/*--------------------------------*- C++ -*----------------------------------*\
  =========                 |
  \\      /  F ield         | OpenFOAM: The Open Source CFD Toolbox
   \\    /   O peration     | Website:  https://openfoam.org
    \\  /    A nd           | Version:  13
     \\/     M anipulation  |
\*---------------------------------------------------------------------------*/
FoamFile
{
    format      ascii;
    class       volScalarField;
    location    "1.65";
    object      k;
}
// * * * * * * * * * * * * * * * * * * * * * * * * * * * * * * * * * * * * * //

dimensions      [0 2 -2 0 0 0 0];

internalField   nonuniform List<scalar> 
2268
(
0.00122097
0.003331
0.00513762
0.00668682
0.0080558
0.00927196
0.0103405
0.0112658
0.0120544
0.0127133
0.0132458
0.0136525
0.0139424
0.0141134
0.0141378
0.0139696
0.0135827
0.0129508
0.0119748
0.010601
0.00880026
0.00639072
0.00341085
0.00262697
0.00759091
0.0115538
0.0149891
0.0180015
0.0206383
0.022927
0.0248909
0.0265518
0.0279302
0.02904
0.0298881
0.0304942
0.0308623
0.0309551
0.0307058
0.0300586
0.0289626
0.0272529
0.0247191
0.0210637
0.0156589
0.00738538
0.00357983
0.0100587
0.0151266
0.0195261
0.0233707
0.0267182
0.029612
0.0320906
0.0341874
0.0359304
0.0373389
0.0384248
0.0392088
0.039699
0.0398697
0.0396734
0.0390736
0.0380117
0.0362831
0.0335606
0.0293061
0.0224599
0.0103735
0.00454652
0.012106
0.0180441
0.0231453
0.0275736
0.0314043
0.0346993
0.037515
0.0398985
0.0418878
0.0435083
0.044775
0.0457115
0.0463325
0.0466262
0.046566
0.0461403
0.045299
0.0438178
0.0412921
0.0369884
0.0293262
0.0136268
0.0055369
0.0141156
0.0207859
0.0264732
0.0313721
0.035579
0.0391772
0.0422441
0.0448422
0.0470215
0.0488147
0.0502394
0.0513253
0.0520956
0.0525507
0.0526815
0.0525045
0.051989
0.0509126
0.0488363
0.0448969
0.0369881
0.0178209
0.00655998
0.0161978
0.0235182
0.029727
0.0350328
0.0395532
0.0433963
0.0466645
0.0494376
0.0517783
0.0537258
0.0552991
0.0565365
0.0574709
0.0581133
0.058469
0.0585837
0.0584552
0.0578868
0.0564557
0.0532758
0.0459222
0.0241001
0.00765931
0.0182458
0.0262626
0.0329563
0.0386362
0.0434345
0.0474922
0.0509382
0.0538749
0.0563706
0.0584702
0.0601907
0.0615839
0.062694
0.0635391
0.0641348
0.0645579
0.0648415
0.0648377
0.0641844
0.0621019
0.0563448
0.034386
0.00897493
0.0205044
0.0291368
0.0362311
0.0421846
0.0471916
0.0514184
0.0550039
0.0580759
0.0607228
0.0630008
0.0649282
0.0665424
0.0678755
0.0689426
0.06978
0.0705038
0.0711971
0.0717735
0.0719449
0.0711257
0.0679059
0.0523413
0.00551693
0.00936381
0.0119755
0.0136963
0.0143831
0.0150671
0.0155983
0.0160312
0.0166398
0.017374
0.0184389
0.0197563
0.0203932
0.0201659
0.0189924
0.0167659
0.0130062
0.00833556
0.00224522
0.0106562
0.021356
0.0275264
0.0311108
0.0327672
0.0341061
0.035285
0.036288
0.0375303
0.0391269
0.041372
0.0438594
0.0449778
0.0444011
0.041939
0.037161
0.0294995
0.0194127
0.00653441
0.0139563
0.0292736
0.0371767
0.041908
0.0441455
0.0455742
0.0469125
0.0482291
0.049768
0.0517074
0.054071
0.0563888
0.0573881
0.0566505
0.0538002
0.0481668
0.0391736
0.026823
0.00980972
0.0175669
0.0361331
0.0449162
0.0504953
0.0533664
0.0548066
0.0561676
0.05759
0.059122
0.0609697
0.0632729
0.0654241
0.0663355
0.0655462
0.0626237
0.0566896
0.0470274
0.0334586
0.0133854
0.0229809
0.0422051
0.0519528
0.0576388
0.0612287
0.0628989
0.0641166
0.0655868
0.0669768
0.0685107
0.0706492
0.0727125
0.0736567
0.0729135
0.0700642
0.0641472
0.0541883
0.0395209
0.0162325
0.0321552
0.0482665
0.0584909
0.0641042
0.0679083
0.0700603
0.0708742
0.0720714
0.0733161
0.0747312
0.0767181
0.0786835
0.0796758
0.0790788
0.0763995
0.0707783
0.0609927
0.0454193
0.0177631
0.0449291
0.0561483
0.0641054
0.0703528
0.0739674
0.076281
0.0768976
0.0775035
0.0784152
0.0797315
0.0815805
0.0834257
0.0844748
0.0841097
0.0816739
0.0764304
0.067178
0.0509922
0.02027
0.0596718
0.0664049
0.070477
0.0761632
0.0797995
0.0819918
0.0825669
0.0827083
0.0831871
0.0842083
0.0857836
0.0874576
0.0885624
0.0884297
0.0862627
0.0812376
0.0722944
0.0559469
0.0231152
0.0111161
0.0245946
0.0340922
0.0416616
0.0478909
0.0530721
0.0574147
0.0610888
0.0642449
0.0670095
0.0694711
0.07169
0.0736933
0.0754773
0.0770433
0.0784153
0.0796447
0.0809194
0.0822723
0.0835058
0.0842522
0.0840866
0.0812748
0.0146985
0.0317439
0.0422551
0.0501567
0.0564555
0.061606
0.0658919
0.0695106
0.0726182
0.0753459
0.0778017
0.0800778
0.082251
0.0843745
0.0864811
0.0885737
0.0906431
0.0926803
0.0948137
0.0970211
0.0991076
0.100901
0.102126
0.0187945
0.0398964
0.0512356
0.0592992
0.065546
0.0705787
0.0747546
0.0782933
0.0813552
0.0840755
0.0865724
0.0889504
0.0912976
0.0936715
0.0960939
0.0985434
0.100959
0.103293
0.105644
0.108034
0.110333
0.112364
0.113995
0.0236207
0.0481648
0.0600965
0.0682814
0.0744825
0.0794139
0.0835082
0.0870048
0.0900729
0.0928574
0.0954884
0.098071
0.100678
0.103345
0.106075
0.108801
0.111415
0.113908
0.116281
0.11853
0.120611
0.12246
0.124034
0.028755
0.0556413
0.0682222
0.0766211
0.0828272
0.0876703
0.0916926
0.0951788
0.0983139
0.101242
0.104095
0.10696
0.109874
0.112841
0.115793
0.118679
0.121454
0.124045
0.12639
0.128473
0.13032
0.131976
0.133482
0.0322176
0.0614149
0.0751867
0.084088
0.090371
0.0950893
0.0989799
0.102411
0.105602
0.108716
0.111831
0.114978
0.118145
0.121291
0.124394
0.127425
0.130321
0.132972
0.135309
0.137328
0.139094
0.140707
0.142251
0.0309268
0.0641576
0.0807832
0.0909228
0.097291
0.101655
0.105204
0.108458
0.111654
0.114905
0.118224
0.121571
0.124922
0.128252
0.131542
0.134748
0.13779
0.140556
0.142978
0.145059
0.146873
0.148537
0.150185
0.0280274
0.0619814
0.0840356
0.0974647
0.104113
0.107608
0.110449
0.11336
0.116479
0.119838
0.123358
0.126923
0.130488
0.134041
0.137565
0.141004
0.144253
0.147187
0.149721
0.151854
0.153671
0.15533
0.157075
0.0261513
0.0608406
0.0850445
0.103865
0.111601
0.113042
0.114655
0.117102
0.120187
0.123764
0.127597
0.131459
0.13528
0.139092
0.142899
0.146621
0.15011
0.153189
0.155746
0.157791
0.159445
0.160901
0.162473
0.0294271
0.0667068
0.0884429
0.102651
0.112924
0.116133
0.117128
0.119049
0.121916
0.12541
0.129183
0.132961
0.136721
0.140574
0.144523
0.14846
0.15223
0.155664
0.158636
0.161093
0.163055
0.164562
0.165921
0.0294366
0.0669534
0.0894903
0.103251
0.11178
0.115967
0.11787
0.119835
0.122416
0.12554
0.128956
0.132517
0.136233
0.140147
0.144204
0.148289
0.152265
0.155983
0.159302
0.162115
0.164373
0.166025
0.167317
0.0319975
0.0687626
0.0880893
0.101054
0.109624
0.114464
0.117243
0.119618
0.122279
0.125282
0.128506
0.131922
0.135571
0.139453
0.14346
0.147461
0.151338
0.154972
0.158244
0.161056
0.163357
0.165124
0.166574
0.0327079
0.0679718
0.0857279
0.0976783
0.106175
0.111749
0.115453
0.118456
0.121402
0.124429
0.127555
0.130854
0.134405
0.13819
0.142069
0.145909
0.149608
0.153064
0.156178
0.158871
0.161106
0.162891
0.164361
0.0317338
0.065616
0.0821915
0.0935656
0.102036
0.108182
0.112716
0.116393
0.119731
0.122919
0.126055
0.129279
0.132712
0.13634
0.140033
0.143672
0.147162
0.150412
0.153335
0.155862
0.157963
0.159646
0.160977
0.0299652
0.0625827
0.07843
0.0893885
0.097794
0.104307
0.10942
0.113654
0.117371
0.120774
0.124
0.127202
0.130518
0.133965
0.137449
0.140868
0.144131
0.147158
0.149871
0.15221
0.154144
0.15567
0.156812
0.0282976
0.0596411
0.0749128
0.0855226
0.0938045
0.100465
0.105902
0.110485
0.114479
0.118069
0.1214
0.124617
0.127847
0.131131
0.134415
0.137618
0.140661
0.14347
0.145978
0.148132
0.149899
0.151262
0.152226
0.0270148
0.0570617
0.0717835
0.0820408
0.09012
0.0967501
0.102293
0.107034
0.111179
0.114892
0.11831
0.121556
0.124738
0.127902
0.131021
0.13404
0.136892
0.139514
0.141848
0.143845
0.145471
0.146699
0.147531
0.0259577
0.0547622
0.0689249
0.0788019
0.086613
0.0930922
0.0985933
0.103355
0.107555
0.111333
0.11481
0.118089
0.121253
0.124342
0.127347
0.130229
0.132939
0.135423
0.137629
0.139515
0.141046
0.142191
0.142954
0.0249531
0.052531
0.0661171
0.0755931
0.083102
0.089372
0.0947519
0.0994606
0.103656
0.107462
0.11098
0.114292
0.11746
0.120516
0.123458
0.12626
0.128882
0.131282
0.133416
0.135245
0.136737
0.137859
0.138622
0.0238619
0.0501676
0.0631607
0.0722324
0.0794367
0.0854854
0.090721
0.09535
0.0995189
0.103337
0.106888
0.110237
0.113429
0.116487
0.119411
0.122182
0.124769
0.127139
0.129252
0.131076
0.132582
0.133738
0.134561
0.0225938
0.0475417
0.0599313
0.0686114
0.0755312
0.0813763
0.0864785
0.091033
0.0951766
0.099006
0.102592
0.105984
0.109216
0.112303
0.115243
0.118023
0.120618
0.123
0.125136
0.126997
0.12856
0.129793
0.130721
0.0211086
0.0446017
0.056385
0.0646971
0.0713643
0.0770371
0.0820327
0.0865327
0.0906644
0.0945138
0.09814
0.101583
0.104865
0.107998
0.110978
0.113794
0.116425
0.118848
0.121036
0.122963
0.124609
0.125948
0.127007
0.0194094
0.0413625
0.0525468
0.0605194
0.0669684
0.0725018
0.0774206
0.0818893
0.0860251
0.0899041
0.0935764
0.0970732
0.100412
0.103599
0.10663
0.109496
0.112178
0.114657
0.11691
0.118917
0.120658
0.122113
0.12331
0.0176101
0.0378916
0.0484968
0.0561602
0.062421
0.067843
0.0727073
0.0771626
0.0813147
0.0852294
0.0889493
0.0924996
0.0958932
0.0991336
0.102217
0.105133
0.107869
0.110406
0.112727
0.114812
0.116646
0.118212
0.11954
0.0158577
0.0343453
0.0443827
0.0517525
0.0578426
0.0631672
0.0679864
0.0724369
0.0766106
0.0805597
0.0843228
0.0879191
0.0913588
0.0946439
0.0977706
0.10073
0.103511
0.106098
0.108475
0.110628
0.112542
0.114204
0.115643
0.0141474
0.0309096
0.0403911
0.0474783
0.0534056
0.0586368
0.0634074
0.0678432
0.0720205
0.0759896
0.0797843
0.0834115
0.0868816
0.0901951
0.0933487
0.0963351
0.0991444
0.101764
0.104181
0.106382
0.108356
0.110091
0.111614
0.012564
0.0277791
0.0367222
0.0435296
0.0492915
0.054422
0.059131
0.0635367
0.0676995
0.0716624
0.075452
0.0790819
0.0825605
0.0858785
0.0890361
0.0920263
0.0948412
0.0974706
0.0999033
0.102128
0.104136
0.105918
0.107497
0.0112076
0.0251287
0.0335652
0.0400946
0.0456833
0.0506994
0.0553292
0.0596783
0.0637989
0.067726
0.0714811
0.0750767
0.078519
0.0818084
0.084942
0.0879073
0.0907001
0.0933116
0.0957327
0.097954
0.0999683
0.101768
0.103372
0.0101571
0.0230799
0.0310662
0.0373302
0.0427419
0.0476303
0.0521601
0.0564246
0.0604706
0.0643269
0.068012
0.071537
0.074908
0.0781264
0.0811908
0.084097
0.0868372
0.0894002
0.09178
0.0939683
0.0959595
0.0977466
0.0993463
0.0094475
0.0216873
0.029311
0.0353425
0.0405865
0.0453415
0.0497546
0.0539087
0.0578475
0.0615967
0.0651738
0.0685899
0.0718518
0.0749623
0.0779214
0.0807266
0.0833729
0.0858544
0.0881627
0.090288
0.0922267
0.0939726
0.0955388
0.0090702
0.0209486
0.0283298
0.0341873
0.0392902
0.0439171
0.0482038
0.0522263
0.0560281
0.0596358
0.0630681
0.066338
0.0694537
0.0724201
0.0752389
0.0779092
0.0804282
0.082791
0.0849917
0.0870239
0.0888824
0.0905589
0.0920646
0.00900386
0.0208429
0.0281272
0.0338895
0.0388916
0.0434045
0.0475596
0.0514329
0.0550713
0.0585063
0.0617605
0.0648499
0.0677857
0.0705749
0.0732214
0.0757262
0.0780879
0.0803034
0.082368
0.0842766
0.0860241
0.0876046
0.0890246
0.00922679
0.0213627
0.0287141
0.034471
0.0394166
0.0438289
0.0478465
0.0515522
0.0550021
0.0582357
0.0612816
0.0641605
0.0668869
0.0694706
0.0719175
0.0742304
0.0764096
0.0784532
0.0803579
0.0821193
0.0837329
0.085193
0.0865021
0.00975048
0.0225435
0.0301339
0.0359716
0.0408972
0.0452133
0.0490777
0.0525915
0.055825
0.0588284
0.0616377
0.0642791
0.0667707
0.069125
0.07135
0.0734499
0.0754264
0.0772788
0.0790045
0.0806
0.082061
0.083382
0.0845622
0.0106246
0.0244762
0.0324784
0.0384699
0.0433883
0.0475896
0.0512695
0.0545561
0.0575385
0.0602796
0.0628238
0.0652024
0.0674369
0.0695419
0.0715268
0.0733972
0.0751556
0.076802
0.0783347
0.0797505
0.0810452
0.082213
0.0832509
0.0119206
0.0273137
0.0358936
0.0420803
0.0469711
0.0510097
0.0544501
0.0574579
0.0601447
0.0625867
0.0648357
0.0669269
0.0688839
0.0707225
0.0724528
0.0740809
0.0756096
0.0770395
0.0783692
0.0795957
0.0807148
0.0817204
0.0826071
0.0137575
0.0312803
0.0405997
0.0469722
0.0517564
0.0555385
0.0586546
0.0613146
0.0636525
0.0657549
0.0676779
0.0694582
0.0711195
0.0726773
0.0741413
0.0755171
0.0768078
0.0780139
0.0791341
0.0801655
0.0811035
0.0819418
0.0826733
0.0163128
0.0367491
0.0469087
0.0533455
0.0578541
0.061231
0.0639098
0.0661411
0.0680737
0.0697973
0.0713668
0.0728163
0.0741674
0.0754333
0.0766224
0.0777394
0.0787866
0.0797645
0.0806715
0.0815048
0.0822598
0.0829297
0.083506
0.0199538
0.0443144
0.0552142
0.0613851
0.0653288
0.0681005
0.0702154
0.0719404
0.0734202
0.0747354
0.0759326
0.0770392
0.0780717
0.07904
0.0799501
0.0808052
0.081607
0.0823552
0.0830484
0.0836837
0.0842567
0.0847607
0.0851865
0.0256874
0.05503
0.0659571
0.0711693
0.0741348
0.0760866
0.0775318
0.0787005
0.0797046
0.0806018
0.0814232
0.0821864
0.0829011
0.0835734
0.0842063
0.0848018
0.0853602
0.0858813
0.0863635
0.0868043
0.0871998
0.087544
0.0878286
0.0377446
0.0708602
0.0793492
0.0824646
0.0840367
0.0850383
0.0857872
0.0864072
0.0869528
0.08745
0.0879119
0.0883455
0.0887545
0.089141
0.089506
0.08985
0.0901729
0.0904741
0.0907526
0.0910064
0.0912328
0.0914274
0.0915843
0.0857893
0.0935885
0.0941509
0.0943752
0.0945697
0.09475
0.0949184
0.0950772
0.0952282
0.0953725
0.0955106
0.0956427
0.0957688
0.0958889
0.0960028
0.0961106
0.0962119
0.0963065
0.0963939
0.0964733
0.0965437
0.0966033
0.0966501
0.0654086
0.0599655
0.059596
0.062176
0.101772
0.101539
0.101806
0.102453
0.114783
0.115269
0.115781
0.116484
0.124998
0.125648
0.126331
0.127068
0.134497
0.135171
0.135834
0.136487
0.143335
0.144032
0.14467
0.145229
0.151423
0.152202
0.152822
0.153243
0.15855
0.159461
0.160063
0.160319
0.164108
0.165251
0.165915
0.166006
0.167181
0.167984
0.168797
0.169186
0.168357
0.169134
0.169819
0.170162
0.16766
0.168387
0.168998
0.169366
0.165345
0.165934
0.166388
0.166661
0.16175
0.162162
0.162455
0.16262
0.157375
0.15763
0.157776
0.157818
0.15262
0.152754
0.152786
0.152718
0.147812
0.147869
0.147824
0.147679
0.143186
0.143207
0.14313
0.142947
0.138863
0.138892
0.138821
0.138641
0.134863
0.134933
0.134904
0.134764
0.131122
0.131258
0.131297
0.131225
0.127526
0.127742
0.127866
0.127877
0.123952
0.124253
0.124464
0.124565
0.120296
0.120677
0.120972
0.121161
0.116497
0.116947
0.117315
0.117582
0.112544
0.11305
0.113477
0.113809
0.108478
0.109023
0.109496
0.109877
0.104381
0.10495
0.105451
0.105868
0.100359
0.100938
0.101453
0.10189
0.0965344
0.0971077
0.0976223
0.0980656
0.0930231
0.0935784
0.0940797
0.0945161
0.0899288
0.0904547
0.0909308
0.0913483
0.0873354
0.0878221
0.0882629
0.0886505
0.0853108
0.0857489
0.0861449
0.0864931
0.0839047
0.0842868
0.0846305
0.084931
0.0831596
0.0834807
0.0837667
0.0840134
0.0831213
0.083379
0.0836046
0.0837945
0.0838504
0.0840452
0.0842109
0.0843444
0.0854324
0.0855678
0.085678
0.0857599
0.0879855
0.0880688
0.0881316
0.0881715
0.0916662
0.0917075
0.0917352
0.0917476
0.0966731
0.0966841
0.0966903
0.0966912
0.0756954
0.0807874
0.0821072
0.0852048
0.0885855
0.0904255
0.0910443
0.0908011
0.0906595
0.0910751
0.0920696
0.0933754
0.0944943
0.0946775
0.0928719
0.0879265
0.078645
0.0623335
0.0280918
0.102784
0.102022
0.100098
0.0993548
0.100648
0.101768
0.102012
0.101326
0.100544
0.100195
0.100406
0.101143
0.102099
0.102392
0.100535
0.0948244
0.0842325
0.0677787
0.0336429
0.117912
0.117042
0.11501
0.113104
0.112386
0.112609
0.112471
0.111398
0.110104
0.109162
0.108764
0.108933
0.109387
0.109104
0.106411
0.0999083
0.089096
0.0725846
0.0369503
0.128301
0.128465
0.127169
0.125223
0.123584
0.12281
0.122112
0.120762
0.119143
0.117776
0.116842
0.116263
0.115692
0.114322
0.110876
0.104253
0.0937509
0.0771285
0.0396213
0.137513
0.138002
0.137156
0.135397
0.133588
0.132245
0.131016
0.129434
0.127638
0.125936
0.12439
0.122926
0.121314
0.119
0.115034
0.108424
0.0981454
0.0812932
0.0419217
0.146007
0.146307
0.145591
0.144079
0.142335
0.140728
0.13914
0.137335
0.135344
0.13331
0.131223
0.129034
0.126616
0.123564
0.119115
0.112352
0.102046
0.0847989
0.0437313
0.153666
0.153615
0.15286
0.151506
0.149854
0.148121
0.146284
0.14426
0.142067
0.139735
0.137231
0.134526
0.131521
0.127869
0.122926
0.115824
0.105201
0.0873529
0.0447876
0.160376
0.15995
0.159038
0.157702
0.156098
0.15429
0.15227
0.150064
0.147681
0.14507
0.142265
0.139241
0.135832
0.13169
0.12623
0.118599
0.107368
0.0886811
0.0447909
0.165714
0.164928
0.163859
0.162492
0.160956
0.159097
0.156901
0.154612
0.152139
0.14928
0.146273
0.143045
0.139303
0.13473
0.128723
0.120389
0.108267
0.0884367
0.0439513
0.16901
0.168168
0.167022
0.165612
0.163947
0.162064
0.160042
0.158045
0.155635
0.15227
0.149298
0.146009
0.141859
0.13677
0.130103
0.120943
0.10776
0.0866597
0.042534
0.170194
0.169481
0.168276
0.166729
0.164882
0.162881
0.160789
0.15846
0.156125
0.153826
0.151883
0.148249
0.143448
0.137859
0.130317
0.120193
0.105975
0.0839682
0.0405607
0.169453
0.168708
0.167409
0.165758
0.163831
0.161707
0.159389
0.156988
0.154821
0.152836
0.151426
0.148839
0.144375
0.138235
0.129394
0.118424
0.103227
0.0806134
0.0382902
0.166737
0.166003
0.164647
0.162917
0.160948
0.158791
0.156445
0.154055
0.151881
0.150031
0.14816
0.14509
0.141021
0.135844
0.127827
0.116005
0.100318
0.0775482
0.0362357
0.162613
0.16183
0.160447
0.158699
0.156745
0.154613
0.152279
0.149881
0.147767
0.146069
0.143974
0.140483
0.136398
0.132291
0.124753
0.113814
0.0978605
0.076533
0.0360973
0.157669
0.156797
0.155381
0.153628
0.151691
0.149579
0.147236
0.144799
0.14269
0.140972
0.138795
0.135284
0.130921
0.126248
0.120105
0.111214
0.0958437
0.0764232
0.0409709
0.152424
0.151437
0.149963
0.148173
0.146198
0.144051
0.141693
0.139256
0.137156
0.13547
0.133407
0.129836
0.124953
0.119434
0.112634
0.103657
0.0901578
0.0714995
0.0370549
0.147275
0.146185
0.144636
0.142772
0.140706
0.138468
0.136069
0.133641
0.131498
0.129739
0.127668
0.124099
0.118709
0.11235
0.104834
0.0951613
0.0821614
0.0640389
0.0309765
0.142488
0.14134
0.139736
0.1378
0.135631
0.133276
0.130782
0.128273
0.125948
0.123832
0.121418
0.117696
0.112086
0.105146
0.0969855
0.0869371
0.0738785
0.0564233
0.0269044
0.13819
0.137056
0.135452
0.13349
0.13125
0.128786
0.126157
0.123453
0.120779
0.1181
0.115031
0.110862
0.105092
0.0978414
0.0892798
0.0789441
0.0660671
0.0494709
0.0232149
0.134378
0.133336
0.131806
0.129889
0.127645
0.125119
0.122359
0.119418
0.116334
0.113037
0.109255
0.104535
0.0985077
0.0911535
0.082456
0.072114
0.0595779
0.0438723
0.0204537
0.130949
0.130066
0.12868
0.126883
0.124714
0.1222
0.119369
0.116243
0.11282
0.109026
0.104678
0.0995043
0.0932751
0.0859016
0.0772998
0.0672181
0.055202
0.0402445
0.018706
0.12774
0.127063
0.125874
0.124257
0.122233
0.11981
0.116998
0.113797
0.110189
0.106111
0.101444
0.0960368
0.0897498
0.0824915
0.0741426
0.0644575
0.0529641
0.0385388
0.0177764
0.124579
0.124127
0.123164
0.121764
0.119933
0.117666
0.114958
0.1118
0.108168
0.104015
0.0992707
0.0938475
0.0876614
0.0806276
0.0726117
0.0633541
0.0523375
0.0383084
0.0175258
0.121322
0.121093
0.120361
0.11919
0.117577
0.115507
0.112965
0.109939
0.106406
0.102335
0.097682
0.0923957
0.0864185
0.0796708
0.0720118
0.0631706
0.0525961
0.0389188
0.0177138
0.117877
0.117855
0.117341
0.116393
0.115002
0.113145
0.110804
0.107964
0.104608
0.100711
0.0962478
0.0911829
0.0854701
0.0790328
0.0717284
0.0632826
0.0531276
0.0398018
0.0180815
0.114218
0.114375
0.114057
0.113314
0.112133
0.110489
0.108361
0.105734
0.102592
0.0989176
0.0946918
0.0898875
0.0844624
0.0783413
0.0713831
0.0633154
0.0535646
0.0405986
0.0184472
0.110378
0.110682
0.110531
0.109969
0.10898
0.107537
0.105619
0.103211
0.100297
0.096864
0.0928954
0.0883665
0.0832366
0.0774312
0.0708116
0.0631094
0.0537502
0.0411504
0.0187236
0.106436
0.106854
0.10684
0.10643
0.10561
0.104351
0.102632
0.100436
0.0977505
0.094562
0.0908542
0.0866031
0.0817676
0.0762738
0.069985
0.0626368
0.0536552
0.0414215
0.018885
0.102501
0.103001
0.103092
0.102807
0.102129
0.101032
0.0994943
0.0974989
0.0950325
0.0920815
0.0886289
0.0846496
0.0801015
0.0749105
0.068941
0.0619311
0.0533077
0.0414291
0.0189336
0.0986976
0.0992464
0.0994132
0.0992232
0.0986603
0.0977005
0.0963218
0.0945081
0.0922449
0.0895173
0.0863067
0.0825863
0.0783119
0.0734085
0.0677402
0.0610459
0.0527535
0.0412073
0.0188914
0.0951464
0.0957127
0.0959238
0.0957989
0.0953222
0.0944719
0.0932271
0.0915714
0.0894896
0.086965
0.083977
0.0804956
0.0764742
0.0718361
0.0664435
0.0600329
0.0520387
0.0408025
0.0188179
0.0919558
0.0925094
0.0927341
0.0926433
0.0922219
0.0914505
0.0903098
0.0887837
0.086856
0.0845083
0.0817171
0.0784492
0.0746528
0.0702518
0.0651069
0.0589565
0.0512314
0.0402856
0.0186834
0.0892156
0.0897279
0.0899358
0.0898473
0.0894481
0.0887216
0.0876508
0.0862207
0.0844146
0.0822122
0.0795875
0.0765036
0.0729069
0.0687149
0.0637871
0.0578621
0.0503732
0.039691
0.0184853
0.086998
0.0874416
0.0876031
0.0874844
0.0870718
0.0863519
0.0853117
0.0839391
0.0822184
0.0801278
0.0776375
0.0747066
0.0712772
0.0672623
0.0625188
0.056785
0.049499
0.0390527
0.0182385
0.0853609
0.0857129
0.0857999
0.0856178
0.0851533
0.0843967
0.0833415
0.0819816
0.0803045
0.0782874
0.0758964
0.0730853
0.0697907
0.065921
0.0613298
0.0557549
0.0486396
0.0383993
0.0179596
0.0843576
0.0846
0.0845881
0.0843099
0.0837508
0.0829061
0.0817798
0.0803784
0.0786962
0.0767103
0.0743816
0.0716569
0.0684659
0.0647111
0.0602424
0.0547969
0.0478232
0.0377615
0.0176702
0.0840472
0.0841693
0.08404
0.083635
0.0829338
0.0819363
0.0806656
0.0791532
0.0774077
0.0754064
0.0731022
0.0704315
0.0673149
0.0636476
0.0592751
0.0539331
0.0470751
0.0371644
0.0173882
0.0845067
0.0845086
0.0842539
0.0836971
0.0827995
0.0815623
0.0800433
0.0783264
0.0764463
0.0743783
0.0720607
0.069414
0.0663456
0.0627419
0.0584428
0.0531821
0.0464172
0.0366334
0.0171325
0.0858413
0.0857389
0.08537
0.0846498
0.0834923
0.0818875
0.0799611
0.0779097
0.0758088
0.0736205
0.0712546
0.0686058
0.0655636
0.0620031
0.0577578
0.0525591
0.0458676
0.0361864
0.016918
0.0881914
0.0880234
0.0875836
0.0867193
0.0852235
0.083034
0.0804446
0.0778851
0.0754708
0.0731159
0.0706755
0.0680058
0.0649729
0.0614389
0.0572305
0.0520767
0.0454407
0.0358416
0.0167636
0.0917352
0.0915668
0.0911524
0.0902382
0.0883147
0.0850495
0.0814029
0.0781551
0.0753677
0.0728297
0.070308
0.0676098
0.0645757
0.0610549
0.0568681
0.0517425
0.0451439
0.0356062
0.0166909
0.0966803
0.0966011
0.0963882
0.0957543
0.0936064
0.0874561
0.0823959
0.0784724
0.0753816
0.0727105
0.0701326
0.0674135
0.0643754
0.060859
0.056681
0.0515674
0.0449862
0.035481
0.0166689
)
;

boundaryField
{
    leftWall
    {
        type            kqRWallFunction;
        value           nonuniform List<scalar> 
50
(
0.00122097
0.00262697
0.00357983
0.00454652
0.0055369
0.00655998
0.00765931
0.00897493
0.0111161
0.0146985
0.0187945
0.0236207
0.028755
0.0322176
0.0309268
0.0280274
0.0261513
0.0294271
0.0294366
0.0319975
0.0327079
0.0317338
0.0299652
0.0282976
0.0270148
0.0259577
0.0249531
0.0238619
0.0225938
0.0211086
0.0194094
0.0176101
0.0158577
0.0141474
0.012564
0.0112076
0.0101571
0.0094475
0.0090702
0.00900386
0.00922679
0.00975048
0.0106246
0.0119206
0.0137575
0.0163128
0.0199538
0.0256874
0.0377446
0.0857893
)
;
    }
    rightWall
    {
        type            kqRWallFunction;
        value           nonuniform List<scalar> 
50
(
0.00224522
0.00653441
0.00980972
0.0133854
0.0162325
0.0177631
0.02027
0.0231152
0.0280918
0.0336429
0.0369503
0.0396213
0.0419217
0.0437313
0.0447876
0.0447909
0.0439513
0.042534
0.0405607
0.0382902
0.0362357
0.0360973
0.0409709
0.0370549
0.0309765
0.0269044
0.0232149
0.0204537
0.018706
0.0177764
0.0175258
0.0177138
0.0180815
0.0184472
0.0187236
0.018885
0.0189336
0.0188914
0.0188179
0.0186834
0.0184853
0.0182385
0.0179596
0.0176702
0.0173882
0.0171325
0.016918
0.0167636
0.0166909
0.0166689
)
;
    }
    lowerWall
    {
        type            kqRWallFunction;
        value           nonuniform List<scalar> 
62
(
0.00122097
0.003331
0.00513762
0.00668682
0.0080558
0.00927196
0.0103405
0.0112658
0.0120544
0.0127133
0.0132458
0.0136525
0.0139424
0.0141134
0.0141378
0.0139696
0.0135827
0.0129508
0.0119748
0.010601
0.00880026
0.00639072
0.00341085
0.00341085
0.00738538
0.0103735
0.0136268
0.0178209
0.0241001
0.034386
0.0523413
0.0654086
0.0599655
0.059596
0.062176
0.00551693
0.0106562
0.0139563
0.0175669
0.0229809
0.0321552
0.0449291
0.0596718
0.00551693
0.00936381
0.0119755
0.0136963
0.0143831
0.0150671
0.0155983
0.0160312
0.0166398
0.017374
0.0184389
0.0197563
0.0203932
0.0201659
0.0189924
0.0167659
0.0130062
0.00833556
0.00224522
)
;
    }
    atmosphere
    {
        type            inletOutlet;
        inletValue      uniform 0.1;
        value           nonuniform List<scalar> 
46
(
0.1
0.1
0.1
0.1
0.1
0.1
0.1
0.1
0.1
0.1
0.1
0.1
0.1
0.1
0.1
0.1
0.1
0.1
0.1
0.1
0.1
0.1
0.1
0.1
0.1
0.1
0.1
0.1
0.1
0.1
0.1
0.1
0.0874561
0.0823959
0.0784724
0.0753816
0.0727105
0.0701326
0.0674135
0.0643754
0.060859
0.056681
0.0515674
0.0449862
0.035481
0.0166689
)
;
    }
    defaultFaces
    {
        type            empty;
    }
}


// ************************************************************************* //
