/*--------------------------------*- C++ -*----------------------------------*\
  =========                 |
  \\      /  F ield         | OpenFOAM: The Open Source CFD Toolbox
   \\    /   O peration     | Website:  https://openfoam.org
    \\  /    A nd           | Version:  13
     \\/     M anipulation  |
\*---------------------------------------------------------------------------*/
FoamFile
{
    format      ascii;
    class       volScalarField;
    location    "1.65";
    object      nut;
}
// * * * * * * * * * * * * * * * * * * * * * * * * * * * * * * * * * * * * * //

dimensions      [0 2 -1 0 0 0 0];

internalField   nonuniform List<scalar> 
2268
(
2.34534e-05
3.85238e-05
4.77606e-05
5.45644e-05
5.99615e-05
6.43417e-05
6.79179e-05
7.08434e-05
7.3235e-05
7.51791e-05
7.67313e-05
7.79255e-05
7.88053e-05
7.93702e-05
7.95468e-05
7.92299e-05
7.84303e-05
7.69701e-05
7.43844e-05
7.02882e-05
6.41235e-05
5.42493e-05
3.9257e-05
7.26986e-05
0.000287236
0.000408316
0.000496036
0.000563616
0.000615632
0.00065551
0.000686299
0.000710511
0.000730164
0.00074666
0.000760602
0.000773122
0.000784745
0.000794465
0.000800075
0.000799144
0.000789467
0.000764918
0.000715251
0.000621782
0.000440141
0.000121988
8.45403e-05
0.000468743
0.000723673
0.000917893
0.00107209
0.00119372
0.00128858
0.00136243
0.00142048
0.0014671
0.00150544
0.00153733
0.00156485
0.00158872
0.00160694
0.00161535
0.00160931
0.00158234
0.0015191
0.00139358
0.00116055
0.00074437
0.000145378
9.47857e-05
0.000582595
0.000956517
0.00125085
0.00148974
0.00168173
0.00183384
0.00195362
0.00204828
0.00212404
0.00218559
0.00223591
0.00227778
0.00231193
0.00233582
0.00234427
0.00233134
0.00228668
0.00218677
0.00199047
0.00162765
0.00100155
0.000168508
0.000104389
0.000663444
0.00113459
0.00151867
0.00183569
0.00209375
0.00230061
0.00246516
0.00259607
0.00270098
0.00278581
0.00285455
0.0029105
0.00295443
0.00298374
0.00299306
0.00297597
0.00291921
0.00279258
0.00254097
0.0020682
0.00124939
0.00019556
0.000113417
0.000727939
0.00127762
0.00174169
0.00212948
0.00244771
0.00270493
0.00291127
0.00307665
0.00320975
0.0033174
0.00340451
0.00347479
0.00352908
0.00356508
0.00357782
0.00356116
0.00350004
0.00335947
0.00307235
0.00251386
0.00151077
0.000229996
0.000122078
0.000768743
0.0013964
0.00193393
0.0023859
0.00275791
0.00306035
0.00330468
0.00350199
0.00366172
0.00379148
0.00389694
0.00398211
0.00404795
0.0040926
0.00411191
0.00410068
0.00404339
0.00390272
0.00360373
0.00299408
0.0018189
0.000274707
0.000131656
0.000813804
0.00151102
0.002113
0.00261858
0.00303616
0.00337784
0.00365546
0.00388126
0.0040656
0.00421665
0.00434073
0.00444174
0.00452065
0.00457612
0.00460512
0.00460402
0.0045582
0.00443103
0.00414667
0.00353993
0.00224912
0.00033447
4.85332e-05
6.56168e-05
7.44327e-05
7.93393e-05
8.0781e-05
8.21719e-05
8.31803e-05
8.3605e-05
8.40785e-05
8.52991e-05
8.76949e-05
9.12118e-05
9.34653e-05
9.34799e-05
9.11635e-05
8.61832e-05
7.67307e-05
6.20404e-05
3.14571e-05
0.000160162
0.000487848
0.000662118
0.000746773
0.000765292
0.000768403
0.000759574
0.000731268
0.000704691
0.000706712
0.000751115
0.000829021
0.000889012
0.000917721
0.000911479
0.000866635
0.000767073
0.000564272
0.000127875
0.000184389
0.000756314
0.00111807
0.00134523
0.00144295
0.00146428
0.00144313
0.00139413
0.00135491
0.0013732
0.00146518
0.0016038
0.0017198
0.00178399
0.00177945
0.00168466
0.00146171
0.0010026
0.000157642
0.000209674
0.000885011
0.00138714
0.00176872
0.00197737
0.00204372
0.00202893
0.00197432
0.00193341
0.00196407
0.00208922
0.00226372
0.00241515
0.00250123
0.0024903
0.00234432
0.00200427
0.00133188
0.000186232
0.000247422
0.000895759
0.00152169
0.00207003
0.00241741
0.00255253
0.00255271
0.00249886
0.00245829
0.002496
0.00263595
0.00282593
0.00299538
0.00309175
0.00306724
0.00287304
0.00243387
0.00157923
0.000205719
0.000299884
0.000868913
0.00158448
0.00229846
0.00280086
0.00302282
0.00304284
0.00299101
0.00295016
0.00299041
0.00313044
0.00331956
0.00349168
0.00358742
0.00354466
0.00330537
0.00278298
0.00177477
0.000213794
0.00035359
0.000909618
0.00167352
0.00252714
0.00316697
0.00347254
0.00352046
0.00347121
0.00342904
0.00346538
0.00359496
0.00377138
0.00393349
0.0040173
0.00395089
0.00366651
0.00307055
0.00192743
0.000225796
0.000403092
0.00111902
0.0019319
0.00284173
0.00355554
0.00391928
0.00399429
0.00395128
0.00390862
0.00393615
0.004047
0.00420139
0.00434254
0.0044037
0.00430696
0.00397491
0.00330726
0.00206023
0.000239622
0.000146865
0.000911936
0.00170696
0.00239391
0.00296824
0.00344322
0.00383419
0.00415539
0.0044197
0.0046382
0.00481977
0.00497141
0.00509714
0.00519822
0.00527429
0.00532329
0.00534045
0.00531734
0.00522308
0.00499179
0.00449309
0.00351202
0.00192681
0.000168777
0.00111481
0.00204483
0.00281364
0.00344317
0.00396167
0.00439119
0.00474845
0.00504693
0.00529766
0.00550963
0.00569017
0.00584442
0.00597528
0.0060841
0.00617054
0.00623176
0.00625642
0.00622727
0.00610529
0.00582076
0.00527023
0.0043538
0.000190472
0.00135854
0.00241804
0.00324953
0.00391566
0.00446169
0.0049163
0.00529847
0.00562236
0.00589899
0.00613718
0.00634406
0.00652507
0.00668367
0.00682171
0.00693962
0.00703437
0.00709862
0.00712498
0.00709508
0.00697725
0.00673079
0.00633269
0.000213013
0.00157646
0.00275189
0.00364357
0.00434648
0.00492047
0.00539965
0.00580497
0.00615214
0.00645251
0.0067149
0.00694629
0.00715207
0.00733578
0.00749936
0.00764172
0.00775965
0.00785242
0.00791676
0.00794509
0.00792493
0.00784285
0.0076985
0.000233684
0.00172053
0.00300372
0.00395829
0.00470396
0.00531205
0.00582108
0.00625426
0.00662839
0.00695415
0.00724091
0.00749573
0.00772394
0.0079292
0.00811132
0.00826988
0.00840508
0.00851681
0.00860375
0.00866314
0.00869095
0.00868376
0.00864376
0.00024557
0.00179956
0.00315263
0.00416201
0.00495745
0.00561084
0.00616085
0.00663042
0.00703627
0.00739196
0.00770509
0.00798303
0.00823109
0.00845201
0.00864784
0.00881951
0.0089674
0.00909127
0.00919061
0.00926472
0.00931316
0.00933604
0.00933503
0.000238728
0.00178863
0.00316109
0.0042214
0.00507708
0.00579158
0.00639795
0.00691622
0.00736286
0.0077524
0.00809373
0.00839378
0.00865964
0.0088958
0.00910506
0.00928872
0.00944702
0.00957946
0.00968563
0.00976578
0.00982102
0.00985307
0.00986387
0.000228825
0.00156097
0.00297839
0.00413186
0.00506641
0.00585314
0.00652846
0.00710672
0.00760176
0.00802951
0.00840085
0.00872451
0.00900948
0.00926183
0.0094852
0.0096811
0.00984929
0.00998864
0.0100985
0.0101794
0.0102338
0.0102647
0.0102759
0.000225588
0.0014989
0.00283541
0.00399126
0.004989
0.00583222
0.00657403
0.00721609
0.00776349
0.00823241
0.0086346
0.00898278
0.00928766
0.00955711
0.00979562
0.0100046
0.0101828
0.0103282
0.0104394
0.0105175
0.010566
0.0105892
0.0105921
0.000244009
0.00174705
0.00295542
0.00396697
0.00491585
0.00578406
0.00657572
0.00727176
0.00786282
0.00836323
0.00878919
0.00915548
0.00947517
0.00975813
0.0100093
0.0102297
0.0104181
0.010572
0.0106897
0.0107715
0.0108195
0.010836
0.0108263
0.000240193
0.00181904
0.00314615
0.00412686
0.00500538
0.00584099
0.00661977
0.00732176
0.0079288
0.00844498
0.00888435
0.00926273
0.00959368
0.00988692
0.0101472
0.0103759
0.0105721
0.0107337
0.0108587
0.0109461
0.0109965
0.0110107
0.0109933
0.000248458
0.00194995
0.00332342
0.00429461
0.00515002
0.00595847
0.00670876
0.00738997
0.00798886
0.00850515
0.00894879
0.00933358
0.00967153
0.00997124
0.0102369
0.0104698
0.0106693
0.0108338
0.0109617
0.0110518
0.0111045
0.0111207
0.0111045
0.000251189
0.00200069
0.00343396
0.00444062
0.00529157
0.00608149
0.0068083
0.00746262
0.0080411
0.00854601
0.00898574
0.00937119
0.0097122
0.0100156
0.0102847
0.0105204
0.0107223
0.0108889
0.0110189
0.0111116
0.0111671
0.0111868
0.0111731
0.000248967
0.00201451
0.00348866
0.00454336
0.00540829
0.00618407
0.00688831
0.00751707
0.00807284
0.00856225
0.00899375
0.00937608
0.00971702
0.0100218
0.010293
0.010531
0.0107355
0.010905
0.0110383
0.0111345
0.0111939
0.0112175
0.0112067
0.000243079
0.00200432
0.00350451
0.00460009
0.00548257
0.00624953
0.00693202
0.00753728
0.00807317
0.00854787
0.00897031
0.0093479
0.00968683
0.00999149
0.0102638
0.0105042
0.0107118
0.0108852
0.0110231
0.0111245
0.0111894
0.011218
0.0112115
0.000236736
0.0019742
0.0034865
0.00461055
0.00550718
0.00626802
0.0069327
0.00751835
0.00803747
0.00849986
0.0089139
0.00928644
0.00962291
0.00992706
0.0102005
0.0104434
0.0106547
0.0108331
0.0109769
0.011085
0.0111569
0.0111923
0.011192
0.000231245
0.00193151
0.0034414
0.00457981
0.00548405
0.00623954
0.00689038
0.0074607
0.0079662
0.00841807
0.00882486
0.00919307
0.00952761
0.00983166
0.0101066
0.0103525
0.0105683
0.0107524
0.0109033
0.0110193
0.0110997
0.0111436
0.0111515
0.00022645
0.00188372
0.00337744
0.00451642
0.00542054
0.00616943
0.00680894
0.00736696
0.00786139
0.00830456
0.00870535
0.00907016
0.00940349
0.00970815
0.00998532
0.0102349
0.0104558
0.0106465
0.0108053
0.0109304
0.0110204
0.0110745
0.0110926
0.000221872
0.00183359
0.00330004
0.00442779
0.00532433
0.00606418
0.00669316
0.00724067
0.00772591
0.00816198
0.00855804
0.00892043
0.00925341
0.00955946
0.00983959
0.0100936
0.0103204
0.0105184
0.0106858
0.0108207
0.0109216
0.0109871
0.0110169
0.00021697
0.0017805
0.00321094
0.00431821
0.00520092
0.00592909
0.00654747
0.00708559
0.00756316
0.00799363
0.00838627
0.00874734
0.00908088
0.00938915
0.00967298
0.0099321
0.0101654
0.0103713
0.0105478
0.0106932
0.0108057
0.0108835
0.0109264
0.000211291
0.00172277
0.00310985
0.00418964
0.00505389
0.00576839
0.00637613
0.00690591
0.00737731
0.00780374
0.00819437
0.00855531
0.00889038
0.00920165
0.00948983
0.00975456
0.00999475
0.0102088
0.0103949
0.010551
0.0106754
0.0107663
0.010823
0.000204534
0.00165902
0.00299621
0.00404348
0.00488635
0.00558627
0.00618389
0.00670668
0.00717362
0.00759773
0.00798786
0.00834988
0.0086874
0.00900234
0.00929529
0.0095659
0.0098131
0.0100354
0.0102309
0.0103977
0.0105341
0.0106382
0.0107093
0.000196541
0.00158792
0.00286979
0.00388163
0.00470211
0.00538783
0.00597664
0.00649426
0.00695869
0.00738227
0.00777341
0.00813764
0.00847839
0.00879742
0.00909531
0.00937173
0.0096257
0.00985577
0.0100603
0.0102374
0.0103854
0.0105024
0.0105876
0.000187516
0.00150522
0.00273034
0.00370732
0.00450655
0.0051798
0.00576182
0.00627649
0.00674054
0.00716537
0.00755888
0.00792625
0.0082707
0.00859394
0.00889656
0.00917833
0.00943838
0.00967547
0.00988806
0.0100745
0.0102331
0.0103622
0.0104609
0.000178353
0.00141357
0.00258334
0.00352747
0.00430784
0.00497102
0.00554872
0.0060629
0.00652878
0.00695641
0.00735336
0.00772441
0.00807265
0.00839976
0.00870645
0.00899261
0.00925761
0.00950039
0.00971965
0.00991394
0.0100817
0.0102214
0.0103322
0.000168862
0.0013248
0.00244172
0.00335579
0.00412005
0.00477583
0.00535145
0.00586654
0.00633487
0.00676608
0.00716718
0.00754187
0.00789343
0.00822354
0.00853308
0.00882216
0.00909042
0.00933707
0.00956105
0.00976116
0.00993605
0.0100843
0.0102052
0.000159447
0.00124756
0.00231766
0.00320577
0.00395731
0.00460855
0.00518429
0.00570191
0.00617362
0.00660819
0.00701193
0.00738916
0.00774297
0.00807451
0.00838508
0.00867503
0.00894432
0.00919246
0.00941871
0.00962212
0.00980156
0.00995582
0.0100842
0.000150765
0.0011879
0.00222164
0.00309042
0.00383395
0.00448395
0.00506198
0.00558316
0.00605838
0.00649566
0.00690092
0.00727848
0.00763144
0.00796187
0.00827105
0.0085592
0.00882675
0.00907353
0.00929913
0.00950286
0.00968386
0.0098411
0.0099739
0.000143537
0.00114917
0.00216158
0.00302097
0.00376298
0.00441574
0.00499809
0.00552332
0.00600139
0.00643983
0.00684448
0.00721977
0.00756907
0.0078948
0.00819865
0.00848166
0.00874428
0.00898643
0.0092081
0.00940886
0.00958813
0.00974505
0.00987901
0.000138335
0.00113287
0.00214285
0.00300593
0.00375463
0.00441461
0.00500304
0.00553216
0.00601151
0.00644869
0.00684972
0.00721942
0.00756156
0.00787902
0.00817392
0.00844773
0.00870137
0.00893534
0.00914967
0.00934406
0.0095182
0.00967142
0.00980317
0.00013543
0.00113969
0.00216867
0.00305031
0.0038145
0.00448596
0.00508147
0.00561345
0.00609172
0.00652445
0.00691827
0.00727858
0.00760974
0.00791515
0.00819742
0.00845846
0.00869959
0.00892163
0.00912497
0.00930966
0.00947548
0.00962178
0.00974815
0.000134863
0.00117009
0.00223985
0.00315413
0.00394141
0.00462733
0.00522993
0.00576284
0.00623704
0.00666176
0.00704456
0.00739166
0.00770812
0.00799794
0.00826424
0.00850933
0.00873491
0.0089421
0.00913156
0.00930357
0.00945807
0.00959467
0.00971294
0.000136543
0.00122324
0.00235253
0.00331014
0.00412559
0.00482734
0.00543618
0.00596762
0.00643457
0.00684772
0.00721589
0.00754633
0.00784489
0.00811619
0.00836383
0.00859055
0.00879831
0.00898851
0.00916203
0.00931933
0.00946052
0.00958533
0.00969337
0.000140437
0.00129478
0.0024958
0.00350318
0.00435006
0.00506858
0.00568232
0.00620986
0.00666639
0.00706459
0.00741486
0.00772566
0.00800372
0.0082543
0.00848144
0.0086882
0.00887679
0.00904878
0.00920523
0.00934673
0.00947352
0.00958545
0.00968217
0.000146613
0.00137759
0.0026553
0.00371695
0.00459832
0.00533435
0.0059518
0.00647256
0.00691507
0.00729461
0.00762363
0.00791197
0.0081673
0.00839546
0.00860086
0.00878677
0.00895557
0.00910893
0.00924798
0.00937342
0.00948556
0.00958437
0.00966957
0.000155194
0.00146711
0.00282339
0.00394489
0.00486499
0.00561891
0.006237
0.00674608
0.00716913
0.00752498
0.00782851
0.00809108
0.00832124
0.00852529
0.00870787
0.00887232
0.00902105
0.00915574
0.00927754
0.00938715
0.00948494
0.00957095
0.00964499
0.000166579
0.00156608
0.00300912
0.00420067
0.00516333
0.00593178
0.00654274
0.00703089
0.0074257
0.00775047
0.00802269
0.00825516
0.00845703
0.00863483
0.00879319
0.00893536
0.00906363
0.00917956
0.00928423
0.0093783
0.00946212
0.0095358
0.00959922
0.000181084
0.00168625
0.00324026
0.00451855
0.00552404
0.00629554
0.00688344
0.00733516
0.00768881
0.00797252
0.00820608
0.00840312
0.00857292
0.00872181
0.00885408
0.0089727
0.00907967
0.00917635
0.00926364
0.00934209
0.00941203
0.00947355
0.0095266
0.000199737
0.0018465
0.00356459
0.00495273
0.00599019
0.00673828
0.0072756
0.00766846
0.00796455
0.00819577
0.00838281
0.00853899
0.00867287
0.00879004
0.00889415
0.00898761
0.00907205
0.00914852
0.00921769
0.00927997
0.00933558
0.00938461
0.00942703
0.000225529
0.00208184
0.00406855
0.00558452
0.0066118
0.00728356
0.00772841
0.00803447
0.00825569
0.00842393
0.008558
0.00866917
0.00876428
0.0088476
0.00892183
0.0089887
0.00904934
0.00910445
0.00915447
0.00919966
0.00924013
0.00927591
0.00930696
0.000271719
0.00250338
0.00495284
0.00654419
0.00743596
0.00793631
0.00823408
0.00842545
0.00855835
0.00865733
0.00873551
0.00880022
0.00885571
0.00890452
0.00894823
0.0089878
0.00902387
0.00905681
0.00908684
0.00911408
0.00913855
0.00916026
0.00917914
0.000417138
0.00370449
0.00682596
0.0080237
0.00846528
0.00865846
0.00875957
0.00882081
0.00886234
0.0088931
0.00891747
0.00893778
0.00895533
0.0089709
0.00898494
0.00899775
0.00900949
0.00902028
0.00903016
0.00903915
0.00904726
0.00905447
0.00906073
0.000367989
0.000352048
0.000351543
0.000361897
0.0033702
0.00316129
0.00310667
0.00316807
0.00598717
0.00583373
0.00576368
0.00577257
0.00757812
0.00750955
0.0074648
0.0074454
0.00860138
0.00857131
0.00854439
0.00852171
0.00931958
0.00930356
0.0092841
0.00926161
0.00985657
0.00984424
0.00982545
0.00980043
0.0102704
0.0102582
0.0102369
0.0102069
0.0105843
0.0105715
0.0105474
0.0105118
0.0108047
0.0107832
0.010757
0.0107227
0.0109633
0.0109392
0.0109101
0.0108737
0.0110729
0.0110476
0.0110166
0.0109789
0.0111407
0.0111142
0.0110814
0.0110419
0.0111741
0.0111467
0.0111124
0.0110715
0.0111802
0.0111529
0.0111182
0.0110764
0.011164
0.0111381
0.0111043
0.011063
0.0111289
0.0111058
0.0110745
0.011035
0.0110771
0.0110582
0.0110306
0.0109944
0.0110101
0.0109965
0.0109738
0.0109422
0.0109295
0.010922
0.0109053
0.0108794
0.010837
0.0108364
0.0108265
0.0108074
0.0107346
0.0107414
0.010739
0.0107273
0.0106245
0.0106389
0.0106442
0.0106405
0.0105089
0.0105307
0.0105437
0.0105479
0.0103903
0.010419
0.0104392
0.0104511
0.0102719
0.0103066
0.0103332
0.0103518
0.0101575
0.010197
0.0102288
0.0102531
0.0100517
0.0100945
0.0101301
0.0101586
0.0099588
0.0100033
0.0100412
0.0100724
0.00988247
0.00992722
0.0099658
0.00999816
0.00982467
0.00986815
0.00990595
0.00993801
0.00978478
0.00982575
0.00986153
0.00989205
0.00975909
0.00979668
0.00982955
0.00985762
0.00974099
0.00977467
0.00980412
0.00982925
0.00972133
0.00975099
0.00977693
0.00979903
0.00969002
0.00971586
0.00973847
0.00975776
0.00963793
0.00966022
0.00967982
0.00969659
0.00955921
0.00957809
0.00959479
0.00960921
0.00945332
0.00946861
0.00948224
0.00949411
0.00932634
0.00933765
0.00934776
0.00935659
0.00919095
0.00919783
0.00920397
0.00920929
0.00906463
0.00906689
0.00906889
0.00907057
0.00114124
0.00203766
0.00279693
0.00357279
0.00423197
0.00462034
0.00473676
0.00471093
0.00467214
0.00468341
0.00475663
0.0048634
0.00495475
0.00496343
0.00480674
0.00439479
0.0036103
0.00221722
0.000263477
0.00370344
0.00423691
0.00462399
0.00498987
0.00536981
0.0056215
0.00570467
0.00566823
0.0056163
0.0055986
0.00562068
0.00565965
0.00567325
0.00559625
0.00534265
0.00481101
0.00386612
0.00229633
0.000284235
0.00592148
0.00609962
0.00622696
0.00634197
0.00647849
0.00658369
0.00660404
0.00654842
0.00647949
0.0064305
0.00640131
0.00636996
0.00629804
0.00612553
0.00576785
0.00512362
0.00405282
0.0023528
0.000295087
0.00744974
0.00746698
0.00746142
0.00744986
0.00744495
0.00743913
0.00739805
0.00731884
0.00722985
0.00714907
0.0070712
0.00697361
0.00681982
0.00655716
0.00610894
0.00537329
0.00420338
0.0024071
0.000303499
0.00848969
0.00844367
0.00837806
0.00830324
0.00823038
0.00815868
0.00807305
0.00796917
0.00785839
0.00774679
0.00762463
0.00747016
0.00724964
0.00691404
0.00639125
0.00557865
0.00432705
0.00245658
0.000310642
0.00921924
0.00914777
0.00905661
0.00895362
0.00884775
0.00874025
0.0086252
0.00849993
0.00836765
0.00822792
0.00806928
0.00787006
0.00759762
0.00720418
0.00661914
0.00574022
0.00442093
0.00249388
0.00031612
0.00974989
0.00966443
0.00956119
0.00944512
0.00932216
0.00919403
0.00905892
0.00891595
0.0087649
0.00860137
0.00841314
0.00817858
0.00786489
0.00742419
0.00678663
0.00585137
0.00447772
0.00251242
0.000319082
0.0101464
0.010049
0.0099369
0.00981188
0.00967742
0.00953462
0.00938413
0.00922634
0.00905881
0.00887463
0.00866207
0.00839857
0.0080501
0.00756874
0.00688549
0.00590208
0.00448656
0.00250382
0.000318402
0.010441
0.0103328
0.0102126
0.0100787
0.00993343
0.00977725
0.00961274
0.00944237
0.00926027
0.00905698
0.00882292
0.00853265
0.0081512
0.00763137
0.00690463
0.00587612
0.00442473
0.00243764
0.000316372
0.0106515
0.0105382
0.0104102
0.0102655
0.0101057
0.00993555
0.00975992
0.00957976
0.00938327
0.00915869
0.00890505
0.00858662
0.0081709
0.00761201
0.00684086
0.00576865
0.00428659
0.00231521
0.000311679
0.0108017
0.0106834
0.0105452
0.0103866
0.0102103
0.0100232
0.00983073
0.00963115
0.00942166
0.00919288
0.00892619
0.00857263
0.00812219
0.0075249
0.00670715
0.00559469
0.00409977
0.00218689
0.000304648
0.0109045
0.0107777
0.0106277
0.010455
0.0102627
0.0100572
0.00984381
0.00962484
0.00939955
0.00915534
0.00887094
0.00850739
0.0080327
0.00739729
0.00653585
0.00539475
0.00389767
0.00206039
0.00029606
0.010965
0.0108299
0.0106686
0.0104823
0.0102746
0.0100517
0.00981917
0.00958003
0.00933218
0.00906401
0.00875073
0.00836328
0.00787562
0.00724745
0.00639352
0.00523418
0.00375171
0.00196797
0.000287777
0.0109927
0.0108506
0.0106794
0.010481
0.0102593
0.01002
0.00976787
0.00950574
0.00923326
0.00894179
0.00860585
0.00819642
0.0077002
0.00709434
0.00627897
0.00521112
0.00378913
0.00203902
0.000289203
0.0109968
0.0108498
0.0106707
0.0104618
0.0102268
0.00997082
0.00969754
0.00940972
0.00910997
0.00879373
0.00844019
0.00802092
0.00751766
0.00690955
0.00615094
0.0051789
0.0039014
0.00224249
0.00031252
0.0109841
0.0108347
0.0106497
0.0104315
0.0101837
0.00991048
0.00961522
0.00930126
0.00897382
0.00863284
0.00826153
0.00782811
0.00731174
0.00669468
0.00594679
0.00502252
0.00382985
0.00222519
0.000306036
0.0109588
0.0108099
0.0106213
0.0103958
0.0101361
0.00984602
0.00952913
0.00918964
0.00883389
0.00846475
0.00806868
0.00761329
0.00707411
0.00643838
0.00568426
0.0047725
0.00362117
0.00207744
0.000280438
0.010923
0.0107777
0.0105888
0.0103588
0.0100898
0.00978527
0.00944874
0.00908495
0.00869998
0.0082968
0.00786572
0.00737961
0.00680829
0.00614237
0.00536504
0.00444673
0.00331982
0.00187953
0.000260266
0.0108777
0.0107395
0.0105541
0.0103237
0.01005
0.00973552
0.00938366
0.00899863
0.0085852
0.00814528
0.00767138
0.00714327
0.00653605
0.00583127
0.0050219
0.00408721
0.00298508
0.00166142
0.000240576
0.0108239
0.0106964
0.0105188
0.010293
0.0100204
0.00970249
0.00934189
0.0089416
0.00850457
0.00803118
0.00751534
0.00694247
0.0062936
0.00555402
0.00471478
0.00376494
0.00268617
0.0014634
0.000223545
0.0107625
0.0106491
0.0104838
0.0102683
0.0100031
0.00968922
0.009328
0.00892102
0.00846942
0.00797224
0.00742432
0.00681527
0.00613187
0.00536316
0.00450288
0.00354683
0.0024912
0.00133567
0.000212558
0.0106946
0.0105984
0.0104494
0.010249
0.00999754
0.00969493
0.00934149
0.00893748
0.00848262
0.0079751
0.00741047
0.00678131
0.00607865
0.00529495
0.00442585
0.00346948
0.00242476
0.00129096
0.000206163
0.0106209
0.0105439
0.0104143
0.0102331
0.0100003
0.00971499
0.00937665
0.00898452
0.00853737
0.00803292
0.00746727
0.00683485
0.00612916
0.00534427
0.00447561
0.00351913
0.00246872
0.00131533
0.000203996
0.0105418
0.0104849
0.0103764
0.0102169
0.010006
0.00974219
0.0094243
0.00905083
0.00861995
0.0081291
0.00757464
0.0069518
0.00625493
0.00547794
0.00461411
0.0036546
0.00258491
0.00138414
0.000204865
0.0104578
0.0104208
0.0103336
0.0101967
0.0100091
0.00976892
0.00947448
0.00912378
0.00871453
0.00824386
0.00770806
0.00710236
0.00642077
0.00565584
0.00479771
0.00383184
0.00273471
0.00147295
0.000207142
0.0103702
0.0103518
0.0102849
0.0101699
0.0100053
0.00978902
0.0095189
0.00919255
0.00880725
0.00835976
0.00784596
0.00726053
0.0065965
0.00584446
0.00499116
0.0040166
0.00288897
0.00156347
0.000209561
0.0102815
0.0102792
0.0102306
0.0101356
0.00999244
0.00979882
0.00955218
0.00924974
0.00888839
0.00846438
0.00797299
0.00740803
0.00676123
0.00602112
0.00517126
0.0041869
0.00302939
0.0016447
0.000211489
0.0101948
0.0102056
0.0101725
0.0100947
0.00997059
0.0097973
0.00957204
0.0092917
0.00895269
0.0085507
0.00808027
0.00753426
0.00690299
0.00617307
0.00532527
0.00433108
0.00314667
0.00171131
0.000212723
0.0101139
0.0101345
0.0101134
0.0100498
0.00994147
0.00978551
0.00957879
0.00931783
0.00899856
0.00861608
0.00816417
0.00763467
0.00701664
0.00629492
0.00544808
0.00444469
0.00323743
0.00176133
0.000213273
0.0100424
0.0100691
0.0100566
0.0100036
0.00990774
0.0097658
0.00957437
0.00932959
0.00902696
0.00866097
0.00822464
0.00770891
0.00710161
0.00638619
0.00553939
0.00452768
0.00330158
0.00179401
0.000213228
0.0099825
0.010012
0.0100046
0.00995893
0.00987217
0.00974091
0.00956144
0.00932956
0.0090403
0.00868761
0.00826383
0.00775904
0.00716004
0.00644916
0.00560163
0.00458195
0.00334015
0.00180925
0.000213124
0.00993473
0.00996399
0.00995889
0.00991751
0.00983688
0.00971327
0.00954267
0.00932053
0.0090415
0.00869902
0.00828487
0.00778836
0.00719522
0.00648736
0.005639
0.00461407
0.00336097
0.00181456
0.000212571
0.00989691
0.0099238
0.00991878
0.00987953
0.00980276
0.0096844
0.00952011
0.00930503
0.0090334
0.00869829
0.00829109
0.00780061
0.00721229
0.00650698
0.0056584
0.0046299
0.00336946
0.00181374
0.000211611
0.00986427
0.00988759
0.00988152
0.0098433
0.00976916
0.00965463
0.00949495
0.00928493
0.00901861
0.00868883
0.00828663
0.00780055
0.00721569
0.00651244
0.00566415
0.00463387
0.00336948
0.0018092
0.000210339
0.00982964
0.00984933
0.00984226
0.00980521
0.00973387
0.00962312
0.00946762
0.00926176
0.00899941
0.00867335
0.00827456
0.00779145
0.00720898
0.00650732
0.00565971
0.00462909
0.00336346
0.00180223
0.000208858
0.00978439
0.00980126
0.00979429
0.00975986
0.00969297
0.00958762
0.00943743
0.00923608
0.00897727
0.00865397
0.00825739
0.00777608
0.00719504
0.00649444
0.00564763
0.00461768
0.0033529
0.00179368
0.000207281
0.00971984
0.00973503
0.00972976
0.00970019
0.00964073
0.00954421
0.0094025
0.0092077
0.00895317
0.00863239
0.00823725
0.00775679
0.00717627
0.0064761
0.00562988
0.00460115
0.00333876
0.00178393
0.000205718
0.00962936
0.00964352
0.00964104
0.00961831
0.00956971
0.00948711
0.00935963
0.00917571
0.00892769
0.00861004
0.00821602
0.00773569
0.00715489
0.00645442
0.00560836
0.00458092
0.00332188
0.00177342
0.000204272
0.00951083
0.0095234
0.00952318
0.00950735
0.00947162
0.00940859
0.00930433
0.00913863
0.0089012
0.00858822
0.00819552
0.00771491
0.00713319
0.00643175
0.00558525
0.00455881
0.00330345
0.00176256
0.000203049
0.00936897
0.00937825
0.00937782
0.00936574
0.00934105
0.00930077
0.00923245
0.00909556
0.0088744
0.00856836
0.00817756
0.00769659
0.00711364
0.00641078
0.00556331
0.00453732
0.00328531
0.00175222
0.000202183
0.00921653
0.009221
0.0092179
0.00920517
0.00918608
0.00916302
0.00914608
0.00904947
0.00884971
0.00855236
0.00816398
0.00768283
0.0070987
0.00639439
0.00554573
0.00451964
0.00327
0.00174339
0.000201856
0.00907272
0.00907323
0.00906969
0.00905961
0.00904894
0.00902468
0.00906865
0.00901353
0.00883309
0.00854296
0.00815658
0.00767544
0.0070906
0.00638532
0.00553578
0.00450931
0.00326058
0.00173732
0.000201692
)
;

boundaryField
{
    leftWall
    {
        type            nutkWallFunction;
        Cmu             0.09;
        kappa           0.41;
        E               9.8;
        value           nonuniform List<scalar> 
50
(
2.65124e-06
7.4587e-06
8.58631e-06
9.57264e-06
1.0569e-05
1.30955e-05
1.45939e-05
1.57146e-05
1.73588e-05
1.97566e-05
2.21297e-05
2.45883e-05
2.69211e-05
2.83662e-05
2.78338e-05
2.66377e-05
2.61602e-05
2.61036e-05
2.61089e-05
2.75558e-05
2.79458e-05
2.74111e-05
2.64121e-05
2.54405e-05
2.46715e-05
2.4022e-05
2.33907e-05
2.26885e-05
2.1849e-05
2.08312e-05
1.96154e-05
1.82601e-05
1.6862e-05
1.541e-05
1.39734e-05
1.26584e-05
1.15761e-05
1.08082e-05
1.03865e-05
1.03114e-05
1.05628e-05
1.114e-05
1.20653e-05
1.33604e-05
1.50651e-05
1.72332e-05
2.00112e-05
2.38533e-05
3.05775e-05
4.93e-05
)
;
    }
    rightWall
    {
        type            nutkWallFunction;
        Cmu             0.09;
        kappa           0.41;
        E               9.8;
        value           nonuniform List<scalar> 
50
(
3.5402e-06
1.26764e-05
1.54287e-05
1.88972e-05
2.17893e-05
2.35585e-05
2.48163e-05
2.62424e-05
2.88693e-05
3.16839e-05
3.31722e-05
3.42871e-05
3.51734e-05
3.5851e-05
3.62433e-05
3.62846e-05
3.59786e-05
3.53387e-05
3.43107e-05
3.34214e-05
3.23989e-05
3.27972e-05
3.75786e-05
3.43799e-05
3.08252e-05
2.8217e-05
2.56552e-05
2.35814e-05
2.21843e-05
2.14089e-05
2.11956e-05
2.1355e-05
2.1664e-05
2.1968e-05
2.21954e-05
2.23273e-05
2.23669e-05
2.23326e-05
2.22726e-05
2.21625e-05
2.19995e-05
2.17949e-05
2.1562e-05
2.13181e-05
2.10782e-05
2.08587e-05
2.06733e-05
2.05389e-05
2.04754e-05
2.04562e-05
)
;
    }
    lowerWall
    {
        type            nutkWallFunction;
        Cmu             0.09;
        kappa           0.41;
        E               9.8;
        value           nonuniform List<scalar> 
62
(
2.65124e-06
4.19843e-06
5.11574e-06
5.76824e-06
6.27866e-06
6.69357e-06
7.03417e-06
7.31387e-06
7.54249e-06
7.72734e-06
7.87294e-06
7.982e-06
8.05864e-06
8.10347e-06
8.10982e-06
8.06581e-06
7.96341e-06
7.79268e-06
7.51981e-06
7.11424e-06
6.53642e-06
5.65057e-06
4.24413e-06
4.24413e-06
1.19371e-05
1.39333e-05
1.57761e-05
1.78277e-05
2.04575e-05
2.40589e-05
2.93414e-05
3.47118e-05
3.37571e-05
3.31095e-05
3.34949e-05
5.30621e-06
1.55848e-05
1.79643e-05
2.21991e-05
2.64292e-05
3.03339e-05
3.45564e-05
3.64377e-05
5.30621e-06
6.75223e-06
7.55038e-06
8.02089e-06
8.22887e-06
8.48064e-06
8.61724e-06
8.72269e-06
8.87015e-06
9.04115e-06
9.22403e-06
9.54384e-06
9.69124e-06
9.66053e-06
9.38774e-06
8.85529e-06
7.88913e-06
6.443e-06
3.5402e-06
)
;
    }
    atmosphere
    {
        type            calculated;
        value           nonuniform List<scalar> 
46
(
0.009
0.009
0.009
0.009
0.009
0.009
0.009
0.009
0.009
0.009
0.009
0.009
0.009
0.009
0.009
0.009
0.009
0.009
0.009
0.009
0.009
0.009
0.009
0.009
0.009
0.009
0.009
0.009
0.009
0.009
0.009
0.009
0.00902468
0.00906865
0.00901353
0.00883309
0.00854296
0.00815658
0.00767544
0.0070906
0.00638532
0.00553578
0.00450931
0.00326058
0.00173732
0.000201692
)
;
    }
    defaultFaces
    {
        type            empty;
    }
}


// ************************************************************************* //
