/*--------------------------------*- C++ -*----------------------------------*\
  =========                 |
  \\      /  F ield         | OpenFOAM: The Open Source CFD Toolbox
   \\    /   O peration     | Website:  https://openfoam.org
    \\  /    A nd           | Version:  13
     \\/     M anipulation  |
\*---------------------------------------------------------------------------*/
FoamFile
{
    format      ascii;
    class       volScalarField;
    location    "1.65";
    object      p;
}
// * * * * * * * * * * * * * * * * * * * * * * * * * * * * * * * * * * * * * //

dimensions      [1 -1 -2 0 0 0 0];

internalField   nonuniform List<scalar> 
2268
(
4454.45
4462.21
4487.62
4530.15
4587.2
4657.52
4740.48
4836.13
4944.64
5066.38
5201.13
5347.53
5503.47
5666.77
5835.45
6006.68
6176.99
6340.56
6489.75
6616.56
6711.25
6762.67
6772.77
3656.91
3664.84
3689.73
3733.05
3791.2
3862.88
3947.42
4044.69
4154.61
4277.54
4413.14
4559.9
4715.35
4877.1
5043.64
5212.54
5380.84
5542.97
5691.28
5817.08
5908.94
5951.58
5958.77
2856.27
2866.75
2891.33
2935.08
2994.34
3067.73
3154.3
3253.7
3365.47
3489.97
3626.83
3774.15
3929.07
4089.14
4253.38
4419.27
4584.66
4744.31
4890.28
5014.17
5104.98
5142.34
5151.91
2051.84
2064.5
2087.76
2132.15
2192.93
2268.16
2356.78
2458.56
2572.2
2698.54
2837.23
2985.7
3140.63
3299.69
3462.37
3625.69
3789.06
3947.42
4091.5
4213.95
4305.55
4340.57
4353.22
1302.39
1318.28
1337.56
1371.62
1419.22
1480.76
1556.87
1649.39
1762.66
1891.68
2034.88
2187.97
2346.32
2506.59
2669.73
2831.41
2993.79
3152.06
3294.65
3416.03
3509.29
3544.29
3563.49
909.261
918.49
926.496
937.552
953.647
976.803
1008.35
1050.37
1110.03
1185.26
1277.86
1393.16
1533.23
1697.56
1870.18
2035.88
2199.09
2358.29
2498.45
2617
2711.32
2749.22
2785.2
827.751
829.429
829.641
829.184
828.505
828.245
828.702
830.101
833.244
842.621
860.835
895.845
953.123
1035.95
1135.14
1252.47
1411.41
1578.69
1715.9
1826.49
1917.72
1958.68
2020.1
767.015
768.876
769.058
768.328
767.211
766.151
765.339
764.883
764.416
763.835
762.916
760.469
755.846
750.104
753.42
780.624
847.304
927.861
1019.49
1116.27
1194.92
1231.35
1298.94
2706.06
2778.57
2795.27
2781.24
2770.55
2774.38
2790.77
2765.96
2685
2567.64
2424.11
2291.31
2192.35
2134.42
2106.16
2108.69
2123.28
2135.82
2112.28
1954.97
2039.27
2080.07
2078.65
2120.92
2204.75
2250.5
2244.25
2167.99
2049.08
1898.68
1764.68
1666.65
1611.02
1587.77
1582.4
1585.44
1600.21
1605.81
1364.44
1428.24
1505.09
1539.53
1544.58
1569.06
1618.87
1636.83
1594.51
1502.32
1430.27
1359.73
1306.65
1271.1
1253.48
1238.29
1227.13
1223.64
1228.39
1121.43
1138.74
1164.45
1220.6
1216.4
1164.9
1156.89
1157.67
1154.84
1142.59
1130.97
1110.39
1091.64
1082.74
1069.51
1061.61
1054.13
1026.45
1003.01
1063.39
1072.64
1011.18
1015.99
1050.82
1021.85
977.136
951.944
951.18
967.417
974.822
965.136
955.356
957.449
951.754
939.559
928.022
909.925
897.733
991.911
1024.38
941.401
885.559
917.344
944.376
912.542
889.261
887.023
888.719
890.035
890.017
891.179
886.105
877.774
857.205
837.71
836.649
836.46
864.12
945.251
875.412
790.638
800.817
849.227
847.788
829.152
832.683
840.658
843.153
844.287
841.392
831.717
821.304
803.312
780.393
784.493
789.519
669.036
821.317
786.123
719.446
702.045
742.142
773.251
765.268
771.593
780.725
785.344
787.368
784.516
775.674
765.551
751.507
733.941
736.374
744.289
671.227
673.334
674.112
673.793
672.956
671.946
670.91
669.831
668.401
666.205
662.769
657.685
651.74
646.356
641.021
632.799
617.641
603.046
616.035
649.162
675.083
685.359
704.454
540.083
541.853
543.153
543.459
543.135
542.376
541.346
540.069
538.388
536.031
532.629
527.941
522.222
515.796
508.203
498.43
486.452
473.429
455.821
436.115
418.427
404.418
391.921
408.579
409.565
411.074
412.042
412.234
411.636
410.461
408.927
407.131
404.739
401.368
396.961
391.804
385.933
379.008
370.195
359.413
347.458
334.506
321.866
309.903
297.719
285.845
286.131
284.175
284.552
285.306
285.135
283.65
282.479
281.334
279.595
277.314
274.461
271.014
266.999
262.389
257.053
250.37
241.97
232.842
223.582
215.404
208.83
203.567
199.328
192.262
189.759
189.643
189.274
187.86
185.637
184.585
184.319
183.29
181.481
179.428
177.247
174.582
171.238
167.045
162.221
157.025
151.911
147.121
142.822
139.882
139.18
141.644
127.656
125.044
123.891
122.836
121.486
120.162
119.149
118.622
117.77
116.282
114.381
112.345
109.971
107.156
103.561
99.7013
96.2848
92.9285
89.7659
86.5608
84.1053
83.2224
84.7475
73.4688
68.5448
64.9256
61.7855
60.0765
59.1582
57.8185
56.1928
54.8403
53.5449
52.1546
50.3496
48.123
45.5403
42.809
40.0968
37.4602
35.0013
32.8905
31.3344
30.4169
30.4426
30.8365
28.8387
26.7632
22.2578
18.2946
16.9443
16.2224
15.503
14.9292
14.5157
14.1042
13.5953
12.979
12.2599
11.4722
10.642
9.82038
9.02912
8.27192
7.55629
6.89117
6.31452
5.92183
5.49395
8.04145
8.692
6.91775
5.30001
4.74361
4.56293
4.50454
4.47695
4.44066
4.38953
4.32703
4.25365
4.17337
4.09205
4.01022
3.92601
3.84267
3.76643
3.70046
3.64378
3.59304
3.53838
3.39393
4.475
4.68743
4.77291
4.60223
4.49639
4.45395
4.43191
4.41157
4.38804
4.35878
4.32186
4.27372
4.21681
4.15541
4.09062
4.02192
3.94885
3.87112
3.78842
3.70104
3.6093
3.50869
3.38783
4.33196
4.32158
4.37498
4.35571
4.34643
4.32698
4.30012
4.27404
4.24533
4.21163
4.16971
4.11813
4.05877
3.996
3.93032
3.86113
3.78812
3.71108
3.63002
3.54574
3.45938
3.3707
3.28039
4.19656
4.18448
4.16229
4.18493
4.19909
4.18772
4.16624
4.14029
4.10966
4.07361
4.02843
3.97607
3.91724
3.85496
3.78982
3.72079
3.64769
3.57037
3.48886
3.40415
3.31813
3.23404
3.14854
4.06677
4.05478
4.04478
4.05281
4.0596
4.05118
4.03318
4.00863
3.97762
3.94001
3.89589
3.84535
3.78972
3.73089
3.66815
3.60111
3.5297
3.4537
3.37309
3.2891
3.20448
3.12478
3.0459
3.93905
3.93075
3.92512
3.92697
3.92646
3.91722
3.90023
3.87665
3.84587
3.80753
3.76499
3.71751
3.66583
3.61093
3.5511
3.48679
3.41806
3.34461
3.26645
3.18518
3.10398
3.02883
2.95402
3.81066
3.80461
3.80035
3.79865
3.79446
3.78417
3.76752
3.74464
3.71506
3.67863
3.63665
3.59156
3.54398
3.49154
3.43426
3.37266
3.30664
3.23583
3.16035
3.08196
3.00387
2.93193
2.85941
3.68062
3.67594
3.67207
3.66844
3.66223
3.6512
3.63479
3.61277
3.58485
3.55101
3.51202
3.4691
3.42294
3.37243
3.31754
3.25846
3.19499
3.12677
3.05393
2.97829
2.90284
2.83314
2.76174
3.5486
3.54474
3.54105
3.53652
3.52925
3.51788
3.5018
3.48068
3.45435
3.42277
3.38638
3.34583
3.30149
3.25307
3.20053
3.14395
3.08304
3.01741
2.94721
2.87415
2.80106
2.73313
2.66247
3.41463
3.41133
3.40785
3.40297
3.3953
3.38391
3.3683
3.34812
3.32323
3.29363
3.25953
3.22126
3.17909
3.13295
3.08292
3.02891
2.97062
2.90765
2.84012
2.76967
2.69887
2.6326
2.563
3.27906
3.27619
3.27294
3.26804
3.26034
3.2492
3.23419
3.215
3.19151
3.16371
3.1317
3.09567
3.05577
3.01207
2.96459
2.91321
2.85762
2.79741
2.73266
2.66489
2.59652
2.53211
2.46388
3.14217
3.1397
3.13673
3.13197
3.12447
3.11375
3.09944
3.08129
3.05918
3.03309
3.00307
2.96921
2.93163
2.89039
2.84548
2.79677
2.74395
2.68659
2.62474
2.55983
2.49405
2.43174
2.3655
3.00424
3.00219
2.99953
2.99501
2.98784
2.97763
2.96409
2.947
2.92625
2.90181
2.87368
2.84194
2.80665
2.76784
2.72551
2.67951
2.62951
2.57509
2.51628
2.45436
2.39139
2.33145
2.26739
2.8655
2.86392
2.86161
2.85738
2.8506
2.84096
2.82822
2.81217
2.79274
2.76987
2.74357
2.71387
2.68081
2.64441
2.60464
2.56135
2.51422
2.46283
2.40716
2.34841
2.28844
2.23103
2.16958
2.72622
2.72515
2.72321
2.71929
2.71291
2.70384
2.69189
2.67685
2.65867
2.63731
2.61275
2.58501
2.55411
2.52007
2.48284
2.44226
2.39802
2.34971
2.2973
2.24185
2.18508
2.1305
2.07186
2.58659
2.58607
2.58448
2.58087
2.57489
2.56638
2.55516
2.54109
2.5241
2.50416
2.48125
2.45538
2.42657
2.39482
2.36008
2.32219
2.28085
2.23566
2.18658
2.13457
2.08119
2.02964
1.97428
2.4468
2.44676
2.4455
2.4422
2.43661
2.42862
2.4181
2.40493
2.38905
2.37044
2.34909
2.32501
2.2982
2.26867
2.23635
2.20111
2.16265
2.12061
2.07492
2.02641
1.97651
1.92817
1.87614
2.30687
2.30726
2.3063
2.30329
2.29809
2.29061
2.28076
2.26843
2.25357
2.23619
2.2163
2.19391
2.16902
2.14162
2.11167
2.07903
2.04342
2.0045
1.96218
1.91721
1.87085
1.82574
1.77722
2.16687
2.16758
2.16688
2.16416
2.15933
2.15233
2.14311
2.13158
2.1177
2.10148
2.08294
2.06213
2.03907
2.01373
1.98607
1.95596
1.92315
1.88731
1.84834
1.80688
1.76407
1.72227
1.67721
2.02677
2.0277
2.02722
2.02478
2.02031
2.01379
2.00517
1.99439
1.98143
1.96632
1.94909
1.92979
1.90843
1.88506
1.85962
1.83197
1.80189
1.76906
1.73338
1.6954
1.65614
1.61766
1.57621
1.88656
1.88761
1.88731
1.88515
1.88103
1.87496
1.86691
1.85685
1.84477
1.83073
1.81477
1.79693
1.77725
1.75576
1.73242
1.70715
1.67973
1.64984
1.61739
1.58283
1.54706
1.51191
1.47392
1.74622
1.74731
1.74716
1.74525
1.74146
1.73583
1.72833
1.71896
1.70775
1.69475
1.68003
1.66363
1.64559
1.62595
1.60469
1.58171
1.55683
1.5298
1.50049
1.46927
1.43697
1.40507
1.37052
1.60576
1.60684
1.6068
1.6051
1.60163
1.5964
1.58943
1.58074
1.57039
1.55843
1.54494
1.52997
1.51357
1.49576
1.47654
1.45583
1.43345
1.40917
1.38288
1.35487
1.3261
1.29744
1.26614
1.46523
1.46625
1.46628
1.46476
1.46156
1.45672
1.45027
1.44227
1.43277
1.42187
1.40961
1.39607
1.38129
1.36532
1.34813
1.32966
1.30975
1.28819
1.26488
1.2401
1.21451
1.18933
1.16108
1.3247
1.32562
1.32566
1.32427
1.32131
1.31685
1.31093
1.30363
1.29502
1.28518
1.27417
1.26207
1.24893
1.23477
1.21959
1.20334
1.18586
1.16697
1.14658
1.12491
1.10246
1.08022
1.05587
1.18425
1.18505
1.18505
1.18373
1.18101
1.17693
1.17157
1.165
1.1573
1.14855
1.13881
1.12816
1.11664
1.10429
1.0911
1.07702
1.06192
1.04564
1.02807
1.00942
0.990085
0.970871
0.94997
1.04399
1.04465
1.04456
1.04332
1.04083
1.03717
1.0324
1.02659
1.01982
1.01218
1.00372
0.994511
0.984605
0.97403
0.962782
0.950816
0.938023
0.924251
0.909411
0.893651
0.877306
0.861059
0.843347
0.904067
0.904564
0.90438
0.903213
0.900993
0.897773
0.893618
0.888597
0.882787
0.876259
0.869079
0.861303
0.852976
0.844124
0.834749
0.824808
0.814211
0.802823
0.790561
0.777545
0.76404
0.750598
0.735979
0.764606
0.764919
0.764641
0.763586
0.761672
0.758933
0.755425
0.751214
0.74637
0.740958
0.735035
0.728651
0.721845
0.714641
0.70704
0.699009
0.690469
0.681307
0.671452
0.660989
0.650123
0.639306
0.627503
0.625761
0.625829
0.625474
0.624582
0.623026
0.620805
0.617967
0.614576
0.610692
0.606372
0.601665
0.596613
0.591247
0.58559
0.579644
0.57338
0.566737
0.559622
0.551972
0.54385
0.535413
0.526982
0.517773
0.487657
0.487397
0.487005
0.486355
0.485205
0.483524
0.481361
0.478777
0.475825
0.472553
0.469
0.465198
0.461176
0.45695
0.452522
0.447873
0.442953
0.437693
0.432045
0.426057
0.419829
0.413603
0.406787
0.35057
0.349908
0.34958
0.349241
0.3485
0.347331
0.345808
0.34399
0.341922
0.339638
0.337167
0.334533
0.331756
0.328848
0.325811
0.32263
0.319273
0.315692
0.311857
0.307805
0.303625
0.299485
0.295062
0.214533
0.213219
0.213376
0.213357
0.212866
0.21208
0.211108
0.209985
0.208732
0.207364
0.205897
0.204342
0.202711
0.20101
0.19924
0.197393
0.195448
0.193379
0.191176
0.188877
0.186553
0.184303
0.182148
0.0777065
0.0725569
0.0730588
0.0732496
0.0729539
0.0725755
0.0721834
0.0717694
0.0713267
0.0708542
0.0703533
0.0698269
0.0692778
0.0687077
0.0681167
0.0675017
0.0668564
0.0661735
0.0654524
0.0647076
0.0639784
0.0632863
0.0627295
759.638
756.707
753.07
724.193
385.861
385.416
374.775
354.391
279.707
276.814
273.769
268.379
197.87
197.935
200.744
204.779
145.654
148.494
151.091
153.56
88.0451
90.8847
93.3401
95.0487
30.1055
30.3702
31.4213
33.4115
4.90572
4.67207
4.74375
5.18149
3.18692
3.05674
2.97131
2.94684
3.24898
3.11952
2.99756
2.92271
3.14709
3.01481
2.88108
2.79425
3.01441
2.88148
2.74147
2.6455
2.92468
2.79513
2.65029
2.54316
2.83451
2.70414
2.55704
2.44578
2.73939
2.60792
2.45897
2.34628
2.64131
2.50975
2.36111
2.2485
2.54269
2.41217
2.26491
2.15338
2.44468
2.31622
2.17167
2.06186
2.34824
2.22286
2.08164
1.97414
2.25332
2.13188
1.99508
1.89026
2.15953
2.04281
1.91088
1.80938
2.06637
1.95491
1.8289
1.73123
1.97404
1.86844
1.74855
1.65516
1.88225
1.78293
1.66988
1.58091
1.79035
1.69765
1.59144
1.50731
1.69755
1.61156
1.51284
1.43384
1.60387
1.5247
1.43331
1.35974
1.50911
1.43675
1.35303
1.28491
1.41307
1.34745
1.27109
1.20862
1.31552
1.25642
1.18763
1.13085
1.21694
1.16418
1.10257
1.05146
1.11738
1.07089
1.01655
0.970835
1.01783
0.976991
0.929193
0.888895
0.917132
0.88174
0.839917
0.804298
0.815505
0.78529
0.749215
0.718328
0.712828
0.687521
0.657081
0.630643
0.60878
0.588085
0.562826
0.540675
0.502998
0.48654
0.466302
0.448265
0.395676
0.383141
0.367489
0.353384
0.287432
0.278617
0.267308
0.2568
0.178698
0.173603
0.166394
0.159041
0.0623029
0.0608199
0.0583723
0.0553919
516.158
601.41
624.757
605.571
579.024
597.516
632.766
657.803
672.39
684.553
692.51
696.069
694.936
689.023
680.689
674.485
674.113
676.96
682.809
317.266
392.254
445.291
458.146
449.869
450.213
473.09
510.251
537.865
556.997
570.083
576.25
575.931
575.423
577.826
585.529
597.9
603.364
607.672
264.99
298.898
334.186
356.381
366.427
366.209
373.265
393.357
418.261
439.839
455.37
466.35
475.418
486.029
499.756
514.836
527.499
534.404
539.821
212.846
235.688
258.73
279.656
292.26
298.65
307.831
319.24
331.935
347.972
364.602
382.496
401.922
419.621
435.363
449.724
461.303
468.752
474.929
159.399
174.143
191.717
207.797
220.694
231.17
243.018
256.455
269.378
282.81
300.114
320.151
340.064
357.832
373.68
387.474
398.338
405.937
412.677
98.3099
107.792
120.72
135.127
149.339
163.003
177.273
192.555
208.547
225.044
242.606
261.391
280.637
298.429
314.263
327.684
338.22
345.928
352.963
37.6975
42.7476
50.6669
62.4924
77.237
93.2191
110.174
128.252
146.59
164.988
183.877
203.28
222.507
240.535
256.711
270.39
281.16
288.963
295.779
6.34292
7.69203
10.0677
14.4884
21.3669
30.8975
44.0934
61.2131
81.5149
103.76
125.971
146.64
166.072
184.425
201.186
215.691
227.34
235.426
241.94
2.99247
3.01144
2.95073
2.94269
3.0353
4.05506
7.43248
13.8104
24.6603
41.2803
63.8755
88.8085
111.749
131.647
148.961
164.204
176.816
185.61
191.228
2.87334
2.87339
2.85483
2.834
2.83218
2.84656
2.87099
2.96314
3.33038
6.7065
16.0375
32.5006
53.5033
77.4744
100.227
116.981
129.948
138.657
143.567
2.73306
2.72109
2.70811
2.69124
2.67895
2.66408
2.65925
2.67779
2.72106
2.78449
2.90195
4.42486
11.6846
26.9681
47.2301
70.0178
87.1228
94.4127
96.8434
2.58132
2.57098
2.55919
2.54497
2.53491
2.52844
2.52938
2.54222
2.53801
2.512
2.51752
2.5608
2.65898
3.19756
9.87398
25.9189
43.512
53.4066
52.7545
2.46049
2.44178
2.42549
2.40779
2.3943
2.38554
2.38636
2.39794
2.39794
2.37608
2.34084
2.30187
2.31724
2.38396
2.50886
3.32281
11.6246
21.0485
22.6832
2.35534
2.32855
2.3052
2.28096
2.26069
2.24517
2.23471
2.22936
2.21869
2.20772
2.19375
2.18126
2.17861
2.14373
2.14886
2.18155
2.10487
2.68274
3.69925
2.25387
2.22192
2.19243
2.16196
2.13501
2.11165
2.08882
2.06509
2.04881
2.04004
2.04006
2.0275
2.02825
1.99716
1.91992
1.84579
1.77521
1.66166
1.64089
2.15529
2.11984
2.0858
2.05032
2.01782
1.98867
1.96113
1.9338
1.91109
1.89805
1.88884
1.87073
1.84016
1.79177
1.72505
1.6715
1.61152
1.57554
1.55973
2.06035
2.02235
1.98499
1.94575
1.90917
1.87576
1.84497
1.81628
1.79119
1.77051
1.75145
1.72481
1.6845
1.6437
1.60268
1.56048
1.53102
1.51257
1.50281
1.96942
1.92964
1.88986
1.84786
1.80832
1.77202
1.73863
1.70792
1.68038
1.65584
1.63151
1.60372
1.57157
1.53801
1.50731
1.48148
1.46187
1.44733
1.44221
1.88284
1.84166
1.80015
1.75617
1.71449
1.67611
1.64093
1.60864
1.5793
1.55249
1.52647
1.49877
1.46965
1.44085
1.41654
1.39752
1.38534
1.37766
1.37487
1.80024
1.75815
1.71542
1.67007
1.62682
1.58684
1.55019
1.51663
1.48599
1.45786
1.43126
1.40501
1.37882
1.35497
1.33494
1.32037
1.31143
1.3067
1.30507
1.72138
1.67865
1.63515
1.58891
1.54455
1.50333
1.46544
1.43074
1.39905
1.37012
1.34345
1.31849
1.29529
1.27495
1.25874
1.24734
1.24065
1.2374
1.23558
1.64551
1.60261
1.55873
1.51201
1.46694
1.42483
1.38597
1.35032
1.31779
1.28827
1.26157
1.23752
1.21629
1.19857
1.18512
1.17627
1.17157
1.16949
1.16756
1.5723
1.52941
1.48552
1.43872
1.39332
1.35066
1.31112
1.27476
1.24158
1.2116
1.18485
1.16136
1.14139
1.12542
1.11389
1.10684
1.10362
1.10255
1.10088
1.50086
1.45839
1.41483
1.36834
1.323
1.28017
1.24028
1.20348
1.16986
1.13957
1.11277
1.08963
1.07043
1.05555
1.04521
1.03931
1.03704
1.03665
1.03551
1.4307
1.38885
1.34598
1.30019
1.25532
1.21269
1.17281
1.13589
1.10211
1.07169
1.04488
1.02197
1.00324
0.988977
0.979312
0.974001
0.972229
0.972291
0.971676
1.36088
1.3201
1.27829
1.23358
1.18957
1.14755
1.10807
1.07138
1.03772
1.00739
0.980704
0.957987
0.939544
0.925608
0.916233
0.911164
0.90955
0.909792
0.909684
1.29101
1.25154
1.21112
1.16788
1.12512
1.0841
1.04538
1.00927
0.976054
0.946064
0.919661
0.897194
0.87897
0.865196
0.855902
0.850788
0.849102
0.84939
0.849623
1.2204
1.18264
1.14393
1.10249
1.06134
1.02169
0.9841
0.948914
0.916446
0.887058
0.861127
0.839016
0.821029
0.807359
0.798015
0.792744
0.790829
0.790986
0.791466
1.14883
1.11296
1.07625
1.03691
0.997691
0.959731
0.923606
0.889665
0.858244
0.829715
0.804463
0.782849
0.765172
0.751619
0.742208
0.736683
0.73447
0.734439
0.735001
1.07582
1.04217
1.00769
0.970706
0.93369
0.897713
0.863342
0.830937
0.800837
0.773414
0.749048
0.728093
0.710838
0.697464
0.687992
0.682247
0.679722
0.679369
0.679983
1.00143
0.970049
0.937968
0.903535
0.868938
0.835181
0.802818
0.772203
0.743672
0.717584
0.694306
0.674179
0.657475
0.644376
0.634934
0.628984
0.626146
0.625616
0.626105
0.925423
0.896359
0.866838
0.835098
0.803093
0.771754
0.741609
0.713004
0.68626
0.661716
0.639718
0.620594
0.60461
0.591939
0.582634
0.576609
0.573516
0.572703
0.573074
0.847963
0.820731
0.794091
0.765172
0.735877
0.70711
0.679358
0.652951
0.628194
0.605405
0.5849
0.566977
0.55189
0.539803
0.530774
0.524711
0.521405
0.520342
0.520522
0.768152
0.744091
0.719768
0.693619
0.667126
0.641053
0.615849
0.591814
0.569228
0.548382
0.529559
0.513019
0.498983
0.487598
0.478924
0.472942
0.469474
0.468134
0.468155
0.686712
0.665354
0.643614
0.620318
0.596707
0.573444
0.550923
0.529412
0.509152
0.490399
0.473398
0.458375
0.445516
0.434956
0.426767
0.420929
0.417386
0.415865
0.415685
0.60319
0.584467
0.565419
0.545058
0.524432
0.504099
0.484384
0.465519
0.447712
0.43118
0.416132
0.402756
0.391207
0.3816
0.374001
0.368457
0.364921
0.363229
0.362904
0.517379
0.501249
0.484962
0.46764
0.450125
0.432858
0.416078
0.399981
0.384743
0.370552
0.357581
0.345978
0.335867
0.327342
0.320477
0.315299
0.311867
0.310106
0.309615
0.428971
0.41552
0.402078
0.387924
0.373691
0.359673
0.345976
0.332774
0.320216
0.308478
0.297699
0.287991
0.279442
0.272122
0.266087
0.261412
0.258144
0.256304
0.255704
0.338084
0.327257
0.316705
0.305854
0.295168
0.284642
0.274163
0.263987
0.254223
0.245043
0.236568
0.228868
0.221995
0.215993
0.210907
0.206771
0.203702
0.201829
0.201045
0.245072
0.236751
0.22906
0.221566
0.214808
0.207946
0.200822
0.193766
0.186926
0.180432
0.174383
0.168816
0.163746
0.159182
0.155125
0.151612
0.148716
0.146613
0.145532
0.149744
0.143659
0.138755
0.134377
0.132892
0.12969
0.126032
0.122214
0.118405
0.114732
0.111246
0.107954
0.104832
0.101849
0.0989655
0.0961245
0.0933136
0.0907319
0.0889396
0.0507975
0.0482106
0.046281
0.0441998
0.0449037
0.0443044
0.0433418
0.0423146
0.0412636
0.0402142
0.0391954
0.0382061
0.0372266
0.0362314
0.0351861
0.034044
0.032758
0.0314155
0.0303442
)
;

boundaryField
{
    leftWall
    {
        type            calculated;
        value           nonuniform List<scalar> 
50
(
4454.45
3656.91
2856.27
2051.84
1302.39
909.261
827.751
767.015
671.227
540.083
408.579
286.131
192.262
127.656
73.4688
28.8387
8.04145
4.475
4.33196
4.19656
4.06677
3.93905
3.81066
3.68062
3.5486
3.41463
3.27906
3.14217
3.00424
2.8655
2.72622
2.58659
2.4468
2.30687
2.16687
2.02677
1.88656
1.74622
1.60576
1.46523
1.3247
1.18425
1.04399
0.904067
0.764606
0.625761
0.487657
0.35057
0.214533
0.0777065
)
;
    }
    rightWall
    {
        type            calculated;
        value           nonuniform List<scalar> 
50
(
2112.28
1605.81
1228.39
1003.01
897.733
836.46
789.519
744.289
682.809
607.672
539.821
474.929
412.677
352.963
295.779
241.94
191.228
143.567
96.8434
52.7545
22.6832
3.69925
1.64089
1.55973
1.50281
1.44221
1.37487
1.30507
1.23558
1.16756
1.10088
1.03551
0.971676
0.909684
0.849623
0.791466
0.735001
0.679983
0.626105
0.573074
0.520522
0.468155
0.415685
0.362904
0.309615
0.255704
0.201045
0.145532
0.0889396
0.0303442
)
;
    }
    lowerWall
    {
        type            calculated;
        value           nonuniform List<scalar> 
62
(
4852.6
4860.36
4885.77
4928.3
4985.35
5055.67
5138.63
5234.28
5342.79
5464.53
5599.28
5745.68
5901.62
6064.91
6233.6
6404.83
6575.14
6738.71
6887.9
7014.71
7109.33
7160.6
7170.7
6772.77
5958.77
5151.91
4353.22
3563.49
2785.2
2020.1
1298.94
1054.25
1008.89
1067.86
1073.02
2706.06
1954.97
1364.44
1121.43
1063.39
991.911
864.12
669.036
3057.13
3129.72
3146.2
3131.49
3072.36
3001.83
3018.16
2998.22
2919.57
2802.38
2702.38
2577.3
2478.89
2421.86
2392.89
2393.75
2408.43
2420.39
2396.79
)
;
    }
    atmosphere
    {
        type            calculated;
        value           nonuniform List<scalar> 
46
(
0
-0.000303858
-0.000290475
-0.000231175
-0.000177177
-0.000138123
-0.000112244
-9.59912e-05
-8.6356e-05
-8.1142e-05
-7.87875e-05
-7.81471e-05
-7.83419e-05
-7.86678e-05
-7.8558e-05
-7.75602e-05
-7.53229e-05
-7.15656e-05
-6.60986e-05
-5.8829e-05
-4.97509e-05
-3.86235e-05
-2.72742e-05
-4.22823e-05
-3.51107e-05
-2.38761e-05
-1.16565e-05
0
0
0
0
0
0
0
0
0
0
0
0
0
0
0
0
0
0
0
)
;
    }
    defaultFaces
    {
        type            empty;
    }
}


// ************************************************************************* //
