/*--------------------------------*- C++ -*----------------------------------*\
  =========                 |
  \\      /  F ield         | OpenFOAM: The Open Source CFD Toolbox
   \\    /   O peration     | Website:  https://openfoam.org
    \\  /    A nd           | Version:  13
     \\/     M anipulation  |
\*---------------------------------------------------------------------------*/
FoamFile
{
    format      ascii;
    class       volScalarField;
    location    "1.65";
    object      p_rgh;
}
// * * * * * * * * * * * * * * * * * * * * * * * * * * * * * * * * * * * * * //

dimensions      [1 -1 -2 0 0 0 0];

internalField   nonuniform List<scalar> 
2268
(
4852.6
4860.36
4885.77
4928.3
4985.35
5055.67
5138.63
5234.28
5342.79
5464.53
5599.28
5745.68
5901.62
6064.91
6233.6
6404.83
6575.14
6738.71
6887.9
7014.71
7109.33
7160.6
7170.7
4851.36
4859.29
4884.18
4927.5
4985.65
5057.33
5141.87
5239.14
5349.06
5471.99
5607.59
5754.35
5909.8
6071.55
6238.09
6406.99
6575.29
6737.42
6885.73
7011.53
7103.38
7145.77
7152.67
4847.02
4857.5
4882.08
4925.82
4985.09
5058.48
5145.04
5244.45
5356.22
5480.72
5617.58
5764.9
5919.82
6079.89
6244.13
6410.02
6575.41
6735.06
6881.03
7004.92
7095.73
7133.08
7142.66
4838.89
4851.54
4874.8
4919.2
4979.98
5055.21
5143.83
5245.61
5359.24
5485.59
5624.28
5772.75
5927.68
6086.73
6249.42
6412.74
6576.11
6734.47
6878.55
7001
7092.59
7127.62
7140.27
4354.97
4328.54
4367.06
4494.72
4667.58
4855
5043.78
5226.66
5346.01
5475.03
5618.23
5771.32
5929.67
6089.93
6253.08
6414.76
6577.13
6735.41
6878
6999.38
7092.64
7127.63
7146.84
1461.65
1548.18
1627.91
1752.62
1939.16
2196.19
2532.29
2964.85
3566.13
4207.57
4874.74
5461.25
5882.59
6077.21
6249.83
6415.53
6578.74
6737.94
6878.09
6996.65
7090.96
7128.87
7164.84
1210.33
1212.01
1212.22
1211.77
1211.09
1210.83
1211.28
1212.68
1237.11
1353.08
1587.81
2076.83
2901.86
4115.97
5363.97
6258.28
6576.3
6754.64
6891.85
7002.44
7093.67
7134.62
7196.04
1208.46
1210.32
1210.5
1209.77
1208.65
1207.59
1206.78
1206.32
1205.86
1205.28
1204.36
1201.91
1197.29
1226.94
1487.83
2179.25
3732.76
5406.55
6212.14
6401.12
6543.86
6533.17
6598.6
3057.13
3129.72
3146.2
3131.49
3072.36
3001.83
3018.16
2998.22
2919.57
2802.38
2702.38
2577.3
2478.89
2421.86
2392.89
2393.75
2408.43
2420.39
2396.79
3007.91
3092.35
3086.04
3089.74
3135.91
3218.63
3238.92
3200.96
3120.69
3006.07
2691.81
2502.71
2379.53
2305.89
2253.75
2285.57
2337.01
2353.85
2261.49
2371.32
2679.11
2651.26
2468.94
2690.01
3113.85
3268.16
3266.69
2994.97
2699
2435.58
2128.12
1879.34
1787.15
1796.7
1770.8
1751.77
1854.57
2013.81
1366.31
1515.88
2084.97
2129.96
1882.93
1907.76
2211.64
2351.43
2249.14
1852.58
1689.46
1687.47
1718.74
1622.48
1559.71
1536.78
1506
1491.68
1466.35
1243.83
1276.34
1439.98
1832.91
1656.66
1315
1257.64
1200.87
1261.28
1477.33
1529.68
1431.04
1296.51
1356.52
1351.79
1416.14
1474.39
1359.34
1230.59
1428.23
1351.46
1230.33
1556.14
1654.01
1322.39
1240.75
1211.54
1129.45
1059.11
1072.19
1065.69
1123.27
1183.77
1190.2
1166.69
1169.55
1134.52
1074.69
1559.66
1521.03
1219.64
1214.6
1538.25
1558.37
1246.56
1211.89
1215.4
1216.98
1209.68
1206.57
1208.21
1209.88
1204.16
1134.69
1099.04
1100.52
1091.05
2759.86
1733.72
1309.12
1057.38
1452.06
1637.35
1380.42
1207.14
1213.74
1224.03
1228.69
1229.22
1225.94
1217.47
1208.01
1144.78
992.34
1048.87
1034.47
1204.69
1206.8
1207.58
1207.26
1206.42
1205.41
1204.38
1203.3
1201.87
1199.67
1196.24
1191.15
1185.21
1179.82
1174.49
1166.27
1151.11
1254.27
1751.41
2365.4
2733.78
2770.11
2807.96
1198.74
1200.51
1201.81
1202.12
1201.8
1201.04
1200.01
1198.73
1197.05
1194.69
1191.29
1186.6
1180.88
1174.46
1166.86
1157.09
1145.11
1132.09
1114.48
1094.75
1076.79
1061.61
1047.84
1192.3
1191.85
1193.44
1195.41
1196.09
1195.49
1194.32
1192.78
1190.99
1188.59
1185.22
1180.82
1175.66
1169.79
1162.86
1154.05
1143.27
1131.31
1118.34
1104.52
1088.44
1062.54
1042.49
1067.99
1097.06
1115.63
1133.44
1146.31
1157.99
1152.09
1139.7
1140.48
1141.9
1133.14
1116.8
1109.29
1110.48
1120.61
1114.04
1094.13
1058.17
1012.16
971.458
930.631
865.684
778.994
773.856
731.793
755.057
766.09
779.732
752.556
750.963
755.162
745.252
739.022
735.059
730.874
725.029
717.949
721.122
718.51
681.793
652.214
617.762
602.346
602.598
616.493
645.208
602.389
694.308
693.666
692.822
685.406
637.754
634.638
662.93
670.969
659.265
648.871
646.984
650.969
660.863
661.625
656.006
656.053
659.911
668.826
665.77
663.609
662.942
664.467
626.4
675.951
665.257
673.676
677.24
682.335
685.044
686.434
686.752
686.418
685.504
683.792
681.304
677.981
673.443
667.669
661.224
653.162
643.193
628.637
608.761
588.556
567.411
432.185
343.733
292.926
252.392
250.2
266.149
273.082
274.493
279.328
286.209
290.906
291.489
286.987
277.784
264.814
249.491
230.509
205.29
173.723
138.546
105.433
79.5133
59.5135
96.4501
103.94
35.5886
6.85112
6.27892
6.09813
6.03984
6.01232
5.976
5.92493
5.86259
5.78949
5.7087
5.62717
5.54527
5.46104
5.3777
5.30146
5.23548
5.17881
5.12807
5.07341
4.92896
6.13576
17.1302
18.1673
7.49871
6.16559
6.11454
6.09213
6.07184
6.04847
6.01908
5.98287
5.93536
5.87758
5.81575
5.75085
5.68214
5.60907
5.53137
5.44875
5.3614
5.26962
5.169
5.04812
6.11791
6.10783
11.3979
6.88547
6.13932
6.11259
6.08557
6.05965
6.03157
6.0025
6.04908
5.96206
5.85127
5.78209
5.7161
5.64736
5.57473
5.49764
5.41629
5.33179
5.24537
5.15655
5.06599
6.1078
6.1258
6.24046
6.39391
6.11121
6.09845
6.07697
6.05118
6.02055
6.09206
6.10741
6.05604
5.88035
5.76812
5.70254
5.63561
5.56243
5.48296
5.40049
5.31534
5.22925
5.14501
5.0593
6.10336
6.09144
6.08159
6.08882
6.09577
6.08712
6.06917
6.04475
6.01373
6.1476
6.10963
6.06071
5.90497
5.77252
5.70967
5.64314
5.57155
5.4912
5.40938
5.32515
5.2405
5.16072
5.08177
6.10109
6.09339
6.08694
6.08818
6.08764
6.07834
6.06141
6.03792
6.0074
6.01414
6.10555
6.06615
5.87542
5.77857
5.71863
5.65399
5.58227
5.50602
5.42758
5.34626
5.26505
5.1899
5.11505
6.09722
6.09155
6.08687
6.08502
6.08077
6.07047
6.05388
6.03103
6.00363
5.96484
5.93574
5.9182
5.83561
5.78303
5.72523
5.66068
5.59285
5.52214
5.44663
5.36821
5.29013
5.21816
5.14563
6.09209
6.08747
6.0836
6.07995
6.07371
6.06268
6.04625
6.02422
5.99626
5.96242
5.92342
5.8805
5.83436
5.78663
5.72948
5.66985
5.60641
5.53822
5.46538
5.38972
5.31427
5.24455
5.17314
6.08527
6.08144
6.07777
6.07322
6.06593
6.05452
6.03842
6.01729
5.99095
5.95937
5.92298
5.88245
5.83878
5.79252
5.73766
5.68054
5.61968
5.55405
5.48383
5.41076
5.33767
5.26973
5.19907
6.0765
6.07323
6.06976
6.06487
6.05716
6.04574
6.03011
6.00992
5.98503
5.95543
5.92132
5.88315
5.84201
5.79669
5.74472
5.69072
5.63245
5.56947
5.50193
5.43147
5.36067
5.29439
5.22479
6.06612
6.06327
6.06004
6.05513
6.0474
6.03622
6.02119
6.002
5.97851
5.9507
5.9187
5.88275
5.84282
5.79905
5.75159
5.70024
5.64463
5.58441
5.51965
5.45188
5.3835
5.31909
5.25086
6.05441
6.05195
6.049
6.04424
6.03673
6.02596
6.01164
5.99348
5.97137
5.94528
5.91525
5.88138
5.8438
5.80256
5.75766
5.70898
5.65613
5.59877
5.53692
5.472
5.40623
5.34391
5.27767
6.04166
6.03962
6.03696
6.03244
6.02527
6.01504
6.00148
5.98438
5.96363
5.93918
5.91106
5.87931
5.84401
5.80521
5.76288
5.71688
5.66688
5.61246
5.55365
5.49173
5.42876
5.36881
5.30476
6.02811
6.02653
6.02422
6.01999
6.01321
6.00356
5.9908
5.97474
5.9553
5.93243
5.90613
5.87643
5.84337
5.80697
5.7672
5.72391
5.67678
5.62539
5.56972
5.51097
5.45099
5.39359
5.33214
6.014
6.01293
6.01099
6.00707
6.00069
5.99163
5.97966
5.96461
5.94643
5.92506
5.9005
5.87276
5.84187
5.80782
5.77059
5.73001
5.68577
5.63746
5.58505
5.5296
5.47283
5.41825
5.35961
5.99957
5.99904
5.99744
5.99383
5.98785
5.97934
5.96812
5.95404
5.93705
5.9171
5.89419
5.86833
5.83952
5.80777
5.77302
5.73513
5.69379
5.64861
5.59952
5.54751
5.49413
5.44258
5.38722
5.98496
5.98491
5.98365
5.98034
5.97475
5.96676
5.95625
5.94307
5.92719
5.90858
5.88723
5.86314
5.83634
5.8068
5.77449
5.73925
5.70079
5.65875
5.61305
5.56454
5.51465
5.46631
5.41428
5.97022
5.9706
5.96964
5.96663
5.96142
5.95394
5.94409
5.93176
5.9169
5.89952
5.87963
5.85724
5.83235
5.80495
5.775
5.74236
5.70675
5.66783
5.62551
5.58054
5.53418
5.48907
5.44055
5.95541
5.95611
5.95541
5.95269
5.94785
5.94086
5.93164
5.92011
5.90622
5.89
5.87147
5.85066
5.82759
5.80226
5.7746
5.74449
5.71167
5.67583
5.63686
5.5954
5.5526
5.5108
5.46573
5.9405
5.94142
5.94094
5.9385
5.93403
5.92751
5.91889
5.90811
5.89515
5.88004
5.86281
5.8435
5.82215
5.79878
5.77334
5.74569
5.71561
5.68278
5.6471
5.60912
5.56986
5.53138
5.48993
5.92547
5.92652
5.92623
5.92406
5.91994
5.91387
5.90582
5.89576
5.88369
5.86965
5.85368
5.83584
5.81616
5.79467
5.77134
5.74607
5.71864
5.68876
5.65631
5.62174
5.58597
5.55083
5.51283
5.91032
5.91142
5.91127
5.90936
5.90557
5.89993
5.89244
5.88307
5.87186
5.85886
5.84414
5.82774
5.8097
5.79006
5.7688
5.74582
5.72094
5.69391
5.66459
5.63338
5.60108
5.56917
5.53463
5.89506
5.89614
5.89611
5.89441
5.89093
5.8857
5.87874
5.87005
5.85969
5.84774
5.83424
5.81927
5.80287
5.78507
5.76585
5.74513
5.72276
5.69848
5.67219
5.64418
5.6154
5.58674
5.55544
5.87973
5.88074
5.88078
5.87925
5.87605
5.87121
5.86477
5.85676
5.84727
5.83636
5.82411
5.81056
5.79579
5.77981
5.76262
5.74415
5.72424
5.70269
5.67938
5.6546
5.62901
5.60383
5.57558
5.86439
5.86531
5.86535
5.86396
5.861
5.85654
5.85062
5.84332
5.83471
5.82487
5.81387
5.80176
5.78862
5.77446
5.75929
5.74303
5.72555
5.70667
5.68627
5.66461
5.64215
5.61991
5.59556
5.84914
5.84993
5.84993
5.84862
5.84589
5.84182
5.83646
5.82989
5.82219
5.81343
5.8037
5.79304
5.78153
5.76917
5.75599
5.7419
5.72681
5.71053
5.69296
5.67431
5.65497
5.63576
5.61486
5.83407
5.83473
5.83464
5.8334
5.83091
5.82725
5.82248
5.81667
5.8099
5.80226
5.7938
5.78459
5.77469
5.76411
5.75286
5.7409
5.7281
5.71433
5.69949
5.68373
5.66739
5.65114
5.63343
5.81934
5.81984
5.81966
5.81849
5.81627
5.81305
5.80889
5.80387
5.79806
5.79153
5.78435
5.77658
5.76825
5.7594
5.75002
5.74008
5.72949
5.7181
5.70584
5.69282
5.67932
5.66587
5.65125
5.80508
5.80539
5.80511
5.80406
5.80214
5.7994
5.7959
5.79168
5.78684
5.78143
5.7755
5.76912
5.76231
5.75511
5.74751
5.73948
5.73094
5.72178
5.71192
5.70146
5.69059
5.67978
5.66797
5.79143
5.79149
5.79114
5.79025
5.78869
5.78647
5.78363
5.78024
5.77636
5.77204
5.76733
5.76228
5.75691
5.75126
5.74531
5.73904
5.7324
5.72529
5.71764
5.70951
5.70108
5.69265
5.68344
5.77852
5.77826
5.77786
5.77721
5.77606
5.77438
5.77222
5.76964
5.76668
5.76341
5.75986
5.75606
5.75204
5.74781
5.74338
5.73873
5.73381
5.72855
5.7229
5.71692
5.71069
5.70446
5.69765
5.76662
5.76596
5.76563
5.76529
5.76455
5.76338
5.76186
5.76004
5.75798
5.75569
5.75322
5.75059
5.74781
5.7449
5.74186
5.73868
5.73533
5.73175
5.72791
5.72386
5.71968
5.71554
5.71112
5.75578
5.75447
5.75462
5.75461
5.75411
5.75333
5.75236
5.75123
5.74998
5.74861
5.74714
5.74559
5.74396
5.74226
5.74049
5.73864
5.7367
5.73463
5.73242
5.73012
5.7278
5.72555
5.7234
5.74415
5.739
5.7395
5.73969
5.7394
5.73902
5.73863
5.73821
5.73777
5.7373
5.7368
5.73627
5.73572
5.73515
5.73456
5.73394
5.7333
5.73262
5.7319
5.73115
5.73042
5.72973
5.72917
3270.42
2905.88
3435.73
3696.94
1040.93
1040.22
1028.26
1001.03
1021.94
1009.86
1009.24
910.456
712.442
645.54
636.338
598.782
651.213
613.579
599.292
649.953
667.765
670.605
673.061
674.769
555.316
558.653
564.326
573.785
51.326
50.2549
52.5291
61.8238
4.72194
4.59176
4.50633
4.48186
4.90927
4.77979
4.65783
4.58297
4.93266
4.80035
4.66661
4.57977
4.92516
4.79222
4.65219
4.55621
4.96054
4.83097
4.68614
4.57901
4.99554
4.86516
4.71806
4.60679
5.0256
4.89412
4.74518
4.63249
5.05271
4.92115
4.77251
4.6599
5.07928
4.94876
4.8015
4.68997
5.10646
4.97801
4.83346
4.72365
5.13522
5.00984
4.86861
4.76111
5.16549
5.04405
4.90725
4.80243
5.1969
5.08018
4.94824
4.84675
5.22892
5.11747
4.99146
4.89379
5.26179
5.15619
5.03629
4.94291
5.29519
5.19587
5.08282
4.99385
5.32849
5.23579
5.12958
5.04544
5.36088
5.27489
5.17617
5.09717
5.39239
5.31323
5.22184
5.14827
5.42283
5.35047
5.26675
5.19863
5.45198
5.38636
5.31
5.24753
5.47963
5.42052
5.35174
5.29496
5.50625
5.45348
5.39187
5.34076
5.53188
5.48538
5.43104
5.38533
5.55752
5.51668
5.46888
5.42859
5.58202
5.54663
5.5048
5.46918
5.60559
5.57537
5.5393
5.50841
5.6281
5.6028
5.57236
5.54592
5.64925
5.62855
5.6033
5.58115
5.66866
5.6522
5.63197
5.61393
5.68654
5.674
5.65835
5.64424
5.70349
5.69467
5.68336
5.67285
5.71995
5.71485
5.70764
5.70029
5.72875
5.72726
5.72481
5.72183
3431.41
1701.45
1212.69
1087.22
1169.88
1518.27
1509.48
1201.17
1206.58
1218.91
1226.67
1230.01
1228.51
1222.51
1214.59
1133.13
949.316
955.444
1011.77
925.53
1012.86
1010.49
924.665
755.117
1002.53
1254.64
1238.35
1195.45
1215.72
1228.82
1234.2
1233.6
1201.59
1073.32
949.575
930.659
932.899
963.217
691.951
738.051
825.542
747.06
752.126
758.211
787.577
953.409
1103.68
1152.67
1209.71
1190.06
1017.83
908.853
892.634
908.154
922.563
926.53
945.24
615.043
677.957
693.092
729.621
750.471
753.346
762.323
760.565
824.943
951.148
942.954
877.998
856.521
874.111
889.894
904.17
915.71
923.277
934.53
676.532
691.269
708.84
724.921
737.833
748.331
760.181
773.475
764.597
752.84
789.319
836.664
857.184
874.9
890.766
904.594
915.444
923.06
925.587
678.03
687.512
700.44
714.847
729.059
742.722
757.002
772.292
788.283
804.263
822.495
841.089
860.352
878.117
893.947
907.4
917.94
925.648
925.233
590.677
621.652
661.403
695.835
719.123
735.535
752.493
770.574
788.913
807.308
826.195
845.643
864.847
882.852
899.026
912.705
923.477
931.281
929.785
79.8411
114.905
179.154
276.47
400.738
531.66
641.873
737.327
786.431
808.676
830.89
851.576
871.006
889.341
906.1
920.605
932.273
940.361
927.81
4.52749
4.54646
4.48575
4.47771
4.57033
23.6355
94.3346
216.459
415.929
637.083
812.736
856.324
879.261
899.158
916.472
931.723
944.352
953.125
952.573
4.5336
4.53363
4.51506
4.49423
4.4924
4.50678
4.5314
4.62509
8.21382
75.7294
274.09
597.556
822.885
907.582
930.335
947.108
960.077
970.092
1003.33
4.51856
4.50657
4.4936
4.4768
4.46463
4.44982
4.44487
4.46333
4.50662
4.57306
4.69609
32.2456
192.691
549.62
874.41
962.794
980.461
994.034
1137.09
4.49201
4.48166
4.46993
4.45601
4.4462
4.43972
4.44005
4.4529
4.50118
4.42382
4.43573
4.4755
4.5789
11.2664
172.229
650.509
1001.4
1041.87
1168.83
4.49633
4.47765
4.46148
4.44411
4.43078
4.42181
4.53613
5.13454
5.45359
5.07726
4.37681
4.338
4.35371
4.42244
4.55669
21.5096
321.351
708.445
743.164
4.51636
4.48961
4.46637
4.44231
4.42218
4.40716
4.63902
5.49642
5.48323
5.19276
4.3551
4.3492
4.46677
5.28503
4.68646
4.71102
5.41775
42.8295
75.863
4.54008
4.50816
4.47874
4.44844
4.42185
4.40047
4.44217
4.64514
4.85832
4.46116
4.32662
4.45877
6.89195
7.12352
6.98369
6.3435
5.59699
4.09696
4.47091
4.56669
4.53124
4.4972
4.46174
4.42933
4.40056
4.37371
4.34659
4.32396
4.31115
4.30458
4.45372
5.77691
6.42584
5.65015
5.15665
4.96842
4.05727
3.97143
4.59694
4.55894
4.52159
4.48236
4.44582
4.41248
4.38178
4.3532
4.3284
4.30896
4.29827
4.33393
4.2241
4.25926
4.13963
4.09708
4.11975
4.06394
4.03972
4.6312
4.59142
4.55165
4.50965
4.47014
4.43389
4.40058
4.36995
4.34255
4.31857
4.2958
4.26719
4.23336
4.20098
4.16913
4.1433
4.12368
4.10949
4.10439
4.66982
4.62864
4.58712
4.54315
4.50148
4.46312
4.42798
4.39575
4.36646
4.33969
4.31374
4.28581
4.25667
4.22791
4.20365
4.18475
4.17273
4.16538
4.16314
4.71241
4.67032
4.62759
4.58224
4.53899
4.49902
4.46239
4.42885
4.39823
4.3701
4.34347
4.31722
4.29105
4.26726
4.24732
4.23287
4.22429
4.2203
4.21877
4.75874
4.71601
4.67251
4.62627
4.58191
4.54069
4.50281
4.46812
4.43644
4.40751
4.38084
4.35588
4.3327
4.3124
4.29626
4.28499
4.27853
4.27564
4.27426
4.80806
4.76517
4.72129
4.67457
4.6295
4.58738
4.54853
4.51288
4.48035
4.45084
4.42414
4.40009
4.37887
4.36117
4.34775
4.33896
4.33433
4.33226
4.33055
4.86005
4.81716
4.77327
4.72647
4.68107
4.63841
4.59887
4.56251
4.52933
4.49935
4.4726
4.44912
4.42915
4.41319
4.40167
4.39464
4.39143
4.39036
4.38868
4.91381
4.87134
4.82777
4.78128
4.73595
4.69311
4.65322
4.61642
4.58281
4.55252
4.52571
4.50257
4.48338
4.4685
4.45817
4.45228
4.45
4.44961
4.44848
4.96884
4.92698
4.88412
4.83832
4.79345
4.75082
4.71095
4.67403
4.64024
4.60982
4.58302
4.56011
4.54138
4.52712
4.51746
4.51216
4.51039
4.51045
4.50983
5.02421
4.98343
4.94162
4.89691
4.8529
4.81089
4.7714
4.73471
4.70105
4.67072
4.64404
4.62132
4.60288
4.58895
4.57958
4.57451
4.57291
4.57316
4.57305
5.07954
5.04007
4.99965
4.9564
4.91365
4.87262
4.83391
4.7978
4.76458
4.73459
4.70819
4.68572
4.6675
4.65373
4.64444
4.63934
4.63768
4.63797
4.6382
5.13412
5.09636
5.05765
5.01621
4.97506
4.93541
4.89782
4.86263
4.83017
4.80078
4.77485
4.75274
4.73475
4.72109
4.71175
4.7065
4.70462
4.70485
4.70526
5.18774
5.15187
5.11516
5.07582
5.0366
4.99865
4.96252
4.92858
4.89716
4.86863
4.84338
4.82177
4.80409
4.79054
4.78114
4.77564
4.77348
4.77358
4.77401
5.23993
5.20628
5.1718
5.13481
5.0978
5.06182
5.02745
4.99505
4.96495
4.93752
4.91316
4.8922
4.87495
4.86158
4.85212
4.8464
4.84396
4.84371
4.8442
5.29073
5.25935
5.22727
5.19284
5.15824
5.12448
5.09212
5.06151
5.03297
5.00689
4.98361
4.96348
4.94678
4.93369
4.92425
4.91835
4.91561
4.91516
4.91551
5.33992
5.31086
5.28134
5.2496
5.21759
5.18625
5.15611
5.1275
5.10076
5.07621
5.05422
5.03509
5.01911
5.00644
4.99715
4.99117
4.98823
4.98744
4.98768
5.38766
5.36042
5.33378
5.30486
5.27557
5.2468
5.21905
5.19264
5.16789
5.1451
5.12459
5.10667
5.09159
5.07951
5.07049
5.06448
5.06131
5.06028
5.06029
5.43304
5.40898
5.38465
5.35851
5.33201
5.30594
5.28074
5.2567
5.23411
5.21327
5.19445
5.17791
5.16388
5.1525
5.14384
5.1379
5.13454
5.13316
5.1331
5.47679
5.45543
5.43369
5.4104
5.38679
5.36353
5.341
5.31949
5.29923
5.28048
5.26348
5.24846
5.23561
5.22505
5.21687
5.21107
5.20755
5.20602
5.20579
5.51847
5.49974
5.48069
5.46033
5.43971
5.41937
5.39966
5.38079
5.36299
5.34646
5.33141
5.31804
5.30649
5.29689
5.2893
5.28377
5.28024
5.27853
5.27819
5.55785
5.54172
5.52543
5.50811
5.4906
5.47333
5.45655
5.44045
5.42521
5.41102
5.39805
5.38645
5.37634
5.36782
5.36096
5.35579
5.35235
5.35059
5.35009
5.59464
5.58118
5.56774
5.55359
5.53936
5.52534
5.51164
5.49844
5.48588
5.47414
5.46337
5.45366
5.44511
5.4378
5.43176
5.42709
5.42382
5.42197
5.42137
5.62894
5.61812
5.60756
5.59671
5.58603
5.5755
5.56502
5.55485
5.54508
5.5359
5.52743
5.51973
5.51286
5.50686
5.50177
5.49764
5.49456
5.49269
5.49191
5.66113
5.6528
5.64511
5.63762
5.63086
5.624
5.61688
5.60982
5.60298
5.59649
5.59044
5.58487
5.5798
5.57524
5.57118
5.56767
5.56477
5.56267
5.56159
5.69099
5.68491
5.68
5.67562
5.67414
5.67094
5.66728
5.66346
5.65965
5.65598
5.65249
5.6492
5.64608
5.6431
5.64022
5.63737
5.63456
5.63198
5.63019
5.71724
5.71465
5.71272
5.71064
5.71135
5.71075
5.70978
5.70876
5.70771
5.70666
5.70564
5.70465
5.70367
5.70268
5.70163
5.70049
5.6992
5.69786
5.69679
)
;

boundaryField
{
    leftWall
    {
        type            fixedFluxPressure;
        gradient        uniform 0;
        value           nonuniform List<scalar> 
50
(
4852.6
4851.36
4847.02
4838.89
4354.97
1461.65
1210.33
1208.46
1204.69
1198.74
1192.3
1067.99
773.856
602.389
626.4
432.185
96.4501
6.13576
6.11791
6.1078
6.10336
6.10109
6.09722
6.09209
6.08527
6.0765
6.06612
6.05441
6.04166
6.02811
6.014
5.99957
5.98496
5.97022
5.95541
5.9405
5.92547
5.91032
5.89506
5.87973
5.86439
5.84914
5.83407
5.81934
5.80508
5.79143
5.77852
5.76662
5.75578
5.74415
)
;
    }
    rightWall
    {
        type            fixedFluxPressure;
        gradient        uniform 0;
        value           nonuniform List<scalar> 
50
(
2396.79
2261.49
2013.81
1466.35
1230.59
1074.69
1091.05
1034.47
1011.77
963.217
945.24
934.53
925.587
925.233
929.785
927.81
952.573
1003.33
1137.09
1168.83
743.164
75.863
4.47091
3.97143
4.03972
4.10439
4.16314
4.21877
4.27426
4.33055
4.38868
4.44848
4.50983
4.57305
4.6382
4.70526
4.77401
4.8442
4.91551
4.98768
5.06029
5.1331
5.20579
5.27819
5.35009
5.42137
5.49191
5.56159
5.63019
5.69679
)
;
    }
    lowerWall
    {
        type            fixedFluxPressure;
        gradient        uniform 0;
        value           nonuniform List<scalar> 
62
(
4852.6
4860.36
4885.77
4928.3
4985.35
5055.67
5138.63
5234.28
5342.79
5464.53
5599.28
5745.68
5901.62
6064.91
6233.6
6404.83
6575.14
6738.71
6887.9
7014.71
7109.33
7160.6
7170.7
7170.7
7152.67
7142.66
7140.27
7146.84
7164.84
7196.04
6598.6
3270.42
2905.88
3435.73
3696.94
3057.13
3007.91
2371.32
1366.31
1243.83
1428.23
1559.66
2759.86
3057.13
3129.72
3146.2
3131.49
3072.36
3001.83
3018.16
2998.22
2919.57
2802.38
2702.38
2577.3
2478.89
2421.86
2392.89
2393.75
2408.43
2420.39
2396.79
)
;
    }
    atmosphere
    {
        type            prghTotalPressure;
        rho             rho;
        psi             none;
        gamma           1;
        p0              uniform 0;
        value           nonuniform List<scalar> 
46
(
5.72904
5.72874
5.72875
5.72881
5.72886
5.7289
5.72893
5.72894
5.72895
5.72896
5.72896
5.72896
5.72896
5.72896
5.72896
5.72896
5.72896
5.72897
5.72897
5.72898
5.72899
5.729
5.72901
5.729
5.729
5.72902
5.72903
5.72904
5.72904
5.72904
5.72904
5.72904
5.72904
5.72904
5.72904
5.72904
5.72904
5.72904
5.72904
5.72904
5.72904
5.72904
5.72904
5.72904
5.72904
5.72904
)
;
        rho             rho;
    }
    defaultFaces
    {
        type            empty;
    }
}


// ************************************************************************* //
