/*--------------------------------*- C++ -*----------------------------------*\
  =========                 |
  \\      /  F ield         | OpenFOAM: The Open Source CFD Toolbox
   \\    /   O peration     | Website:  https://openfoam.org
    \\  /    A nd           | Version:  13
     \\/     M anipulation  |
\*---------------------------------------------------------------------------*/
FoamFile
{
    format      ascii;
    class       volScalarField;
    location    "1.65";
    object      rho;
}
// * * * * * * * * * * * * * * * * * * * * * * * * * * * * * * * * * * * * * //

dimensions      [1 -3 0 0 0 0 0];

internalField   nonuniform List<scalar> 
2268
(
13529
13529
13529
13529
13529
13529
13529
13529
13529
13529
13529
13529
13529
13529
13529
13529
13529
13529
13529
13529
13526.8
13521.6
13521.6
13529
13529
13529
13529
13529
13529
13529
13529
13529
13529
13529
13529
13529
13529
13529
13529
13529
13529
13529
13529
13528.9
13526.1
13522.7
13529
13529
13529
13529
13529
13529
13529
13529
13529
13529
13529
13529
13529
13529
13529
13529
13529
13529
13529
13529
13529
13529
13529
13529
13529
13529
13529
13529
13529
13529
13529
13529
13529
13529
13529
13529
13529
13529
13529
13529
13529
13529
13529
13529
13529
13529
11525.1
11365.3
11437.9
11791.3
12264.2
12739.5
13164.9
13506.1
13529
13529
13529
13529
13529
13529
13529
13529
13529
13529
13529
13529
13529
13529
13529
1706.37
1945.16
2166.7
2517.79
3044.3
3766.77
4707.53
5913.97
7587.06
9336.08
11111
12566.6
13435.4
13529
13529
13529
13529
13529
13529
13529
13529
13529
13529
1000
1000
1000
1000
1000
1000
1000
1000
1055.62
1334.25
1900.17
3086.89
5093.66
8050.63
11053.4
13084.3
13500.1
13529
13529
13529
13529
13529
13529
1000
1000
1000
1000
1000
1000
1000
1000
1000
1000
1000
1000
1000
1080.17
1663.67
3168.32
6536.45
10145.6
11763
11971.8
12117
12010.3
12005.4
11929.5
11931.9
11924.4
11901.2
10255.3
7728.75
7726.4
7892.26
7970.77
7976.26
9455.68
9717.9
9736.54
9767
9743.16
9686.25
9689.2
9669.71
9667.54
11926.2
11927.8
11394.3
11452.2
11496.3
11483.8
11195.4
10836.2
10790.8
10839.3
8983.35
8359.38
8074.48
7870.45
7543.26
7964.49
8512.74
8536.13
7426.64
6842.67
8500.82
7789.27
6316.19
7784.28
10498.3
11208.5
11076.4
9517.48
8132.51
6832.04
5221.92
3891.95
3507.11
3691.75
3618.9
3565.42
4287.79
5337.64
1188.68
1830.71
4468.43
4414.26
3235.52
3606.03
5120.01
5794.8
5312
3446.46
2711.05
2801.3
3044.13
2620.02
2379.54
2306.62
2193.49
2258.31
2249.18
681.267
769.059
1618.94
3084.3
2287.38
1106.81
1059.03
939.837
1170.78
1925.19
2094.88
1759.04
1288.02
1506.7
1510.34
1799.34
2062.83
1696.77
1256.71
1347.82
1010.38
892.514
2071.45
2275.61
1167.69
1013.84
995.546
748.87
526.358
562.697
542.66
716.947
919.502
965.109
956.031
1025.06
920.151
735.921
1818.02
1504.99
899.752
1108.15
1927.51
1853.56
1042.31
1000.4
1000.36
983.626
958.034
946.951
958.805
988.458
1000.7
866.154
832.899
826.044
788.154
4736.38
2066.89
1184.74
765.523
1699.01
2027.93
1375.42
1000.97
1001.6
1004.23
1004.31
1000.94
999.955
1000.8
1002.32
890.895
585.354
707.909
657.353
1000
1000
1000
1000
1000
1000
1000
1000
1000
1000
1000
1000
1000
1000
1000
1000
1000
1220.73
2128.3
3217.13
3859.09
3907.93
3943.08
1000
1000
1000
1000
1000
1000
1000
1000
1000
1000
1000
1000
1000
1000
1000
1000
1000
1000
1000
999.962
999.55
997.763
995.836
999.831
998.002
998.101
999.372
1000
1000
1000
1000
1000
1000
1000
1000
1000
1000
1000
1000
1000
1000
999.965
998.462
993.214
975.718
965.286
860.079
894.209
914.221
932.983
947.335
961.817
956.62
944.243
947.019
951.086
944.592
930.409
926.557
932.947
949.956
950.075
937.418
907.9
867.477
831.696
794.016
728.361
637.661
562.337
524.087
546.693
557.716
572.274
548.148
547.624
551.942
543.355
539.08
537.234
535.295
532.221
528.609
535.731
537.87
507.393
483.737
455.057
444.308
447.395
461.508
486.89
409.451
490.982
491.423
491.604
486.373
446.415
444.602
469.458
477.126
468.315
460.99
461.118
466.603
477.565
481.322
479.805
482.792
489.014
499.431
499.56
499.813
500
500
430.419
472.824
467.317
476.315
480.42
485.101
488.252
490.6
491.9
492.648
493.019
493.091
492.888
492.312
490.905
488.522
485.557
481.196
475.079
464.96
450.202
434.453
417.687
286.096
224.829
191.987
166.046
165.45
177.274
182.702
184.11
187.833
193.006
196.698
197.549
194.866
188.897
180.286
170
157.097
139.746
117.863
93.3837
70.3054
52.1989
38.3164
57.5944
62.0497
18.6778
1.01048
1.00019
1.00011
1.00018
1.00023
1.0002
1.00024
1.00035
1.00053
1.0002
1.00006
1.00002
1
1
1
1
1
1
1
1
1.00033
7.49468
8.06786
1.74464
1.00541
1.00023
1.00001
1.00003
1.00013
1.00005
1.00048
1.00086
1.00033
1.00007
1.00001
1
1
1.00002
1.00007
1.00009
1.00006
1.00005
1.00005
1.0003
1.00046
3.93351
1.4169
1.00419
1.00011
1.00002
1.00011
1.00047
1.00306
1.05263
1.03278
1.00397
1.00038
1.00021
1.00046
1.00067
1.00065
1.00048
1.00036
1.00032
1.00024
1.0001
1.00033
1.01607
1.0877
1.15616
1.00079
1.00006
1.00006
1.00015
1.00015
1.05644
1.08812
1.08864
1.02748
1.00133
1.0011
1.0022
1.00216
1.00104
1.00053
1.00031
1.00027
1.00019
1.00008
1.00039
1.00042
1.0005
1.0001
1.00018
1.00007
1.00009
1.00016
1.00015
1.08438
1.0874
1.0882
1.03902
1.00286
1.00281
1.00306
1.00297
1.00083
1.00024
1.00012
1.00011
1.00007
1.00003
1.00048
1.00076
1.00038
1.0001
1.00009
1.00006
1.00008
1.00013
1.00025
1.02111
1.08309
1.08683
1.02249
1.00307
1.00302
1.00287
1.00148
1.00019
1.00006
1.00004
1.00004
1.00003
1.00001
1.00016
1.00033
1.00015
1.00008
1.00005
1.00005
1.00007
1.00008
1.00104
1.00001
1.00564
1.01769
1.00238
1.00232
1.00209
1.0008
1.00001
1.00005
1.00004
1.00003
1.00003
1.00002
1.00001
1.00004
1.00006
1.00006
1.00005
1.00004
1.00004
1.00003
1.00003
1.00001
1.00001
1.00001
1.00001
1.00001
1.00117
1.00023
1
1.00001
1.00003
1.00003
1.00002
1.00002
1.00001
1.00001
1.00004
1.00005
1.00005
1.00005
1.00004
1.00003
1.00002
1.00001
1.00001
1.00001
1.00001
1.00001
1.00028
1.00113
1.00021
1
1.00002
1.00003
1.00002
1.00001
1.00001
1.00001
1.00001
1.00004
1.00005
1.00005
1.00005
1.00003
1.00002
1.00001
1.00001
1.00001
1.00001
1.00001
1.00004
1.00043
1.00074
1.00001
1.00001
1.00002
1.00002
1.00001
1.00001
1.00001
1.00001
1.00001
1.00003
1.00004
1.00005
1.00005
1.00003
1.00002
1.00001
1.00001
1.00001
1.00001
1.00001
1.00004
1.00003
1
1.00001
1.00002
1.00001
1.00001
1.00001
1.00001
1.00001
1
1
1.00003
1.00003
1.00004
1.00004
1.00003
1.00002
1.00001
1.00001
1.00001
1.00001
1.00001
1
1
1
1.00001
1.00002
1.00001
1.00001
1
1
1
1
1
1.00002
1.00002
1.00003
1.00003
1.00002
1.00002
1.00001
1.00001
1.00001
1.00001
1
1
1
1
1
1
1
1
1
1
1
1
1
1.00002
1.00002
1.00002
1.00002
1.00002
1.00001
1.00001
1.00001
1
1
1
1
1
1
1
1
1
1
1
1
1
1
1
1.00001
1.00001
1.00001
1.00001
1.00001
1.00001
1.00001
1
1
1
1
1
1
1
1
1
1
1
1
1
1
1
1
1.00001
1.00001
1.00001
1.00001
1
1.00001
1.00001
1
1
1
1
1
1
1
1
1
1
1
1
1
1
1
1
1.00001
1.00001
1
1
1
1
1
1
1
1
1
1
1
1
1
1
1
1
1
1
1
1
1
1.00001
1
1
1
1
1
1
1
1
1
1
1
1
1
1
1
1
1
1
1
1
1
1
1
1
1
1
1
1
1
1
1
1
1
1
1
1
1
1
1
1
1
1
1
1
1
1
1
1
1
1
1
1
1
1
1
1
1
1
1
1
1
1
1
1
1
1
1
1
1
1
1
1
1
1
1
1
1
1
1
1
1
1
1
1
1
1
1
1
1
1
1
1
1
1
1
1
1
1
1
1
1
1
1
1
1
1
1
1
1
1
1
1
1
1
1
1
1
1
1
1
1
1
1
1
1
1
1
1
1
1
1
1
1
1
1
1
1
1
1
1
1
1
1
1
1
1
1
1
1
1
1
1
1
1
1
1
1
1
1
1
1
1
1
1
1
1
1
1
1
1
1
1
1
1
1
1
1
1
1
1
1
1
1
1
1
1
1
1
1
1
1
1
1
1
1
1
1
1
1
1
1
1
1
1
1
1
1
1
1
1
1
1
1
1
1
1
1
1
1
1
1
1
1
1
1
1
1
1
1
1
1
1
1
1
1
1
1
1
1
1
1
1
1
1
1
1
1
1
1
1
1
1
1
1
1
1
1
1
1
1
1
1
1
1
1
1
1
1
1
1
1
1
1
1
1
1
1
1
1
1
1
1
1
1
1
1
1
1
1
1
1
1
1
1
1
1
1
1
1
1
1
1
1
1
1
1
1
1
1
1
1
1
1
1
1
1
1
1
1
1
1
1
1
1
1
1
1
1
1
1
1
1
1
1
1
1
1
1
1
1
1
1
1
1
1
1
1
1
1
1
1
1
1
1
1
1
1
1
1
1
1
1
1
1
1
1
1
1
1
1
1
1
1
1
1
1
1
1
1
1
1
1
1
1
1
1
1
1
1
1
4706.54
4028.69
5028.73
5572.5
994.55
994.144
992.143
981.744
946.893
935.176
938.273
819.126
566.054
492.388
479.175
433.423
488.819
449.685
433.361
479.957
500
500
500.001
500
408.84
411.232
414.83
420.644
32.9262
32.3322
33.8945
40.1767
1
1
1
1
1.00004
1.00004
1.00003
1.00002
1.00009
1.00007
1.00007
1.00006
1.00007
1.00007
1.00006
1.00006
1.00003
1.00002
1.00002
1.00002
1.00001
1.00001
1.00001
1.00001
1.00001
1.00001
1.00001
1.00001
1.00001
1.00001
1.00001
1.00001
1.00001
1
1
1
1
1
1
1
1
1
1
1
1
1
1
1
1
1
1
1
1
1
1
1
1
1
1
1
1
1
1
1
1
1
1
1
1
1
1
1
1
1
1
1
1
1
1
1
1
1
1
1
1
1
1
1
1
1
1
1
1
1
1
1
1
1
1
1
1
1
1
1
1
1
1
1
1
1
1
1
1
1
1
1
1
1
1
1
1
1
1
1
1
1
1
1
1
1
1
1
1
1
1
1
5464.72
2062.05
1102.09
902.868
1107.57
1725.99
1643.43
1018.56
1001.36
1001.67
1001.31
1000.9
1000.2
1000.04
1000.82
859.738
515.876
522.027
616.65
923.484
942.221
858.108
708.283
463.437
838.543
1186.57
1105.42
998.372
1000.09
1000.12
998.923
998.492
950.668
752.271
552.705
505.205
500.309
539.799
544.693
560.247
626.845
498.406
492.053
500.094
528.556
714.484
874.426
909.388
962.347
923.274
691.978
539.415
501.211
501.773
504.001
500.253
517.211
442.435
486.517
477.819
494.984
504.054
500.187
499.964
485.479
542.332
663.522
636.215
545.077
500.08
499.962
500.006
499.913
499.869
500
505.583
500.01
500.004
500
500.002
500.016
500.037
500.04
499.901
478.821
454.467
473.007
499.41
499.998
499.947
499.965
499.998
499.984
500
495.927
500
500
500
500
500
499.999
500.008
500.015
500.014
499.568
500.146
499.98
499.996
499.973
499.969
499.997
500
500.001
493.575
430.456
450.638
475.417
493.014
499.664
499.999
500.001
500.004
500.005
500.003
500.001
500.036
500.018
500
499.998
499.998
500.001
500.001
493.531
52.1327
76.0465
119.934
185.825
269.09
355.194
424.009
479.572
500.001
500.001
500.003
500.016
500.015
500.001
500
500
500.013
500.015
486.492
1
1
1
1
1
12.7558
56.6129
132.017
254.894
388.139
487.85
500.003
500
500
500
500.005
500.016
500.002
495.983
1.00002
1.00001
1.00001
1
1
1
1.00012
1.00105
2.94145
41.5746
155.433
340.35
463.422
499.999
500
500.011
500.012
500.799
517.861
1.00005
1.00004
1.00004
1.00008
1.00015
1.00018
1.00011
1.00007
1.00008
1.00177
1.00489
15.5822
101.381
292.735
463.299
500.039
500.354
503.873
582.636
1.00005
1.00004
1.00007
1.00022
1.00036
1.00035
1.00004
1.00004
1.02751
1.00064
1.00398
1.00214
1.00487
4.22316
84.9758
326.907
501.354
517.354
584.148
1.00002
1.00003
1.00009
1.00025
1.00033
1.00023
1.05598
1.34424
1.50096
1.32684
1.00008
1.00016
1.00033
1.00131
1.00591
8.93348
152.14
337.654
353.905
1.00001
1.00003
1.00008
1.00017
1.00023
1.00046
1.11259
1.51183
1.51066
1.38133
1.00016
1.00321
1.05885
1.45364
1.17427
1.17051
1.53303
18.5779
33.3937
1.00001
1.00002
1.00005
1.00013
1.00028
1.00115
1.02938
1.12853
1.2289
1.05902
1.00016
1.06346
2.12743
2.24231
2.21494
1.96734
1.67168
1.06522
1.23788
1
1.00001
1.00001
1.00002
1.00005
1.00021
1.0005
1.00058
1.00062
1.00071
1.00181
1.07116
1.63257
1.92175
1.62774
1.44529
1.3921
1.02917
1.00013
1
1
1
1.00001
1.00003
1.00006
1.00009
1.00013
1.00025
1.00074
1.00404
1.0286
1.00119
1.03114
1.00015
1.00001
1.02056
1.00583
1.00013
1
1
1
1.00001
1.00002
1.00004
1.00007
1.0001
1.00015
1.00036
1.00095
1.00064
1.00001
1.00045
1.00002
1.00002
1.00002
1.00015
1.00015
1
1
1
1
1.00001
1.00002
1.00003
1.00005
1.00007
1.00008
1.00011
1.00002
1.00002
1.00003
1.00005
1.0001
1.00015
1.00027
1.00047
1
1
1
1
1
1.00001
1.00001
1.00002
1.00003
1.00003
1.00002
1.00002
1.00002
1.00004
1.00007
1.00011
1.00024
1.0005
1.00053
1
1
1
1
1
1
1
1.00001
1.00001
1.00001
1.00001
1.00001
1.00002
1.00003
1.00005
1.0001
1.00017
1.00029
1.00043
1
1
1
1
1
1
1
1
1
1
1
1.00001
1.00001
1.00002
1.00003
1.00004
1.00006
1.00007
1.00014
1
1
1
1
1
1
1
1
1
1
1
1
1
1.00001
1.00001
1.00002
1.00002
1.00002
1.00002
1
1
1
1
1
1
1
1
1
1
1
1
1
1
1.00001
1.00001
1.00001
1.00001
1.00001
1
1
1
1
1
1
1
1
1
1
1
1
1
1
1
1.00001
1.00001
1.00001
1.00001
1
1
1
1
1
1
1
1
1
1
1
1
1
1
1
1.00001
1.00001
1.00001
1.00001
1
1
1
1
1
1
1
1
1
1
1
1
1
1
1
1.00001
1.00001
1.00002
1.00001
1
1
1
1
1
1
1
1
1
1
1
1
1
1
1
1.00001
1.00002
1.00004
1.00002
1
1
1
1
1
1
1
1
1
1
1
1
1
1
1
1.00001
1.00002
1.00006
1.00002
1
1
1
1
1
1
1
1
1
1
1
1
1
1
1
1.00001
1.00003
1.00006
1.00003
1
1
1
1
1
1
1
1
1
1
1
1
1
1
1
1.00001
1.00004
1.00006
1.00002
1
1
1
1
1
1
1
1
1
1
1
1
1
1
1
1.00001
1.00005
1.00006
1.00002
1
1
1
1
1
1
1
1
1
1
1
1
1
1
1
1.00002
1.00005
1.00006
1.00002
1
1
1
1
1
1
1
1
1
1
1
1
1
1
1.00001
1.00001
1.00004
1.00003
1.00001
1
1
1
1
1
1
1
1
1
1
1
1
1
1
1.00001
1.00001
1.00002
1.00001
1.00001
1
1
1
1
1
1
1
1
1
1
1
1
1
1
1
1.00001
1.00001
1.00001
1
1
1
1
1
1
1
1
1
1
1
1
1
1
1
1
1.00001
1
1
1
1
1
1
1
1
1
1
1
1
1
1
1
1
1
1
1
1
1
1
1
1
1
1
1
1
1
1
1
1
1
1
1
1
1
1
1
1
1
1
1
1
1
1
1
1
1
1
1
1
1
1
1
1
1
1
1
1
1
1
1
1
1
1
1
1
1
1
1
1
1
1
1
1
1
1
1
1
1
1
1
1
1
1
1
1
1
1
1
1
1
1
1
1
1
1
)
;

boundaryField
{
    leftWall
    {
        type            calculated;
        value           nonuniform List<scalar> 
50
(
13529
13529
13529
13529
11525.1
1706.37
1000
1000
1000
1000
999.831
860.079
562.337
409.451
430.419
286.096
57.5944
1.00033
1.0003
1.00033
1.00039
1.00048
1.00016
1.00004
1.00004
1.00004
1.00003
1.00003
1.00002
1.00002
1.00001
1.00001
1.00001
1.00001
1
1
1
1
1
1
1
1
1
1
1
1
1
1
1
1
)
;
    }
    rightWall
    {
        type            calculated;
        value           nonuniform List<scalar> 
50
(
9667.54
7426.64
5337.64
2249.18
1256.71
735.921
788.154
657.353
616.65
539.799
517.211
505.583
495.927
493.575
493.531
486.492
495.983
517.861
582.636
584.148
353.905
33.3937
1.23788
1.00013
1.00013
1.00015
1.00047
1.00053
1.00043
1.00014
1.00002
1.00001
1.00001
1.00001
1.00001
1.00002
1.00002
1.00003
1.00002
1.00002
1.00002
1.00001
1.00001
1
1
1
1
1
1
1
)
;
    }
    lowerWall
    {
        type            calculated;
        value           nonuniform List<scalar> 
62
(
13529
13529
13529
13529
13529
13529
13529
13529
13529
13529
13529
13529
13529
13529
13529
13529
13529
13529
13529
13529
13526.8
13521.6
13521.6
13521.6
13522.7
13529
13529
13529
13529
13529
12005.4
4706.54
4028.69
5028.73
5572.5
11929.5
11926.2
6842.67
1188.68
681.267
1347.82
1818.02
4736.38
11929.5
11931.9
11924.4
11901.2
10255.3
7728.75
7726.4
7892.26
7970.77
7976.26
9455.68
9717.9
9736.54
9767
9743.16
9686.25
9689.2
9669.71
9667.54
)
;
    }
    atmosphere
    {
        type            calculated;
        value           nonuniform List<scalar> 
46
(
1
1
1
1
1
1
1
1
1
1
1
1
1
1
1
1
1
1
1
1
1
1
1
1
1
1
1
1
1
1
1
1
1
1
1
1
1
1
1
1
1
1
1
1
1
1
)
;
    }
    defaultFaces
    {
        type            empty;
    }
}


// ************************************************************************* //
