/*--------------------------------*- C++ -*----------------------------------*\
  =========                 |
  \\      /  F ield         | OpenFOAM: The Open Source CFD Toolbox
   \\    /   O peration     | Website:  https://openfoam.org
    \\  /    A nd           | Version:  13
     \\/     M anipulation  |
\*---------------------------------------------------------------------------*/
FoamFile
{
    format      ascii;
    class       volVectorField;
    location    "1.65";
    object      U;
}
// * * * * * * * * * * * * * * * * * * * * * * * * * * * * * * * * * * * * * //

dimensions      [0 1 -1 0 0 0 0];

internalField   nonuniform List<vector> 
2268
(
(-0.0147506 0.00543834 0)
(-0.0208285 0.000858953 0)
(-0.0218413 -0.000394627 0)
(-0.0238126 -7.71303e-05 0)
(-0.026417 0.000449427 0)
(-0.0301799 0.000965282 0)
(-0.0352253 0.0014603 0)
(-0.041618 0.00190595 0)
(-0.049255 0.0022612 0)
(-0.0578129 0.00246277 0)
(-0.0667488 0.00248129 0)
(-0.0755762 0.00238426 0)
(-0.0837674 0.00208549 0)
(-0.0905408 0.00153184 0)
(-0.0951646 0.0008389 0)
(-0.0972931 0.000244442 0)
(-0.0970705 -0.000100932 0)
(-0.0946092 -0.000237371 0)
(-0.0902445 -7.53095e-05 0)
(-0.0846248 -3.57018e-05 0)
(-0.0763659 -0.00171246 0)
(-0.0625014 -0.00661764 0)
(-0.0338514 -0.0186547 0)
(-0.00778773 0.0111819 0)
(-0.0105932 0.00301958 0)
(-0.0133785 0.00164779 0)
(-0.0172296 0.00188698 0)
(-0.0211157 0.00248545 0)
(-0.0256776 0.00331295 0)
(-0.0313221 0.00428668 0)
(-0.0382543 0.00525148 0)
(-0.0464436 0.00606185 0)
(-0.0556443 0.00659795 0)
(-0.0653708 0.00672373 0)
(-0.0750941 0.00648434 0)
(-0.0842085 0.00576031 0)
(-0.0919474 0.0044851 0)
(-0.0975764 0.00275837 0)
(-0.100575 0.00090196 0)
(-0.100588 -0.000972631 0)
(-0.0971802 -0.00282957 0)
(-0.0902819 -0.00436647 0)
(-0.0802675 -0.00608799 0)
(-0.0665667 -0.00963396 0)
(-0.0504888 -0.0160428 0)
(-0.0224215 -0.0324737 0)
(-0.00064298 0.0137852 0)
(-0.00437624 0.0046147 0)
(-0.00855351 0.00357591 0)
(-0.013515 0.00391406 0)
(-0.0181926 0.00466356 0)
(-0.023274 0.00584356 0)
(-0.0292754 0.00733542 0)
(-0.0364733 0.00885084 0)
(-0.0448596 0.0102026 0)
(-0.0542334 0.0110662 0)
(-0.0641762 0.0112669 0)
(-0.074145 0.0108246 0)
(-0.0834961 0.00959116 0)
(-0.0914973 0.00751048 0)
(-0.0974252 0.0047479 0)
(-0.100694 0.00164387 0)
(-0.100733 -0.00175434 0)
(-0.0968219 -0.00533949 0)
(-0.0887796 -0.00850849 0)
(-0.0770654 -0.0118175 0)
(-0.0613762 -0.0171645 0)
(-0.0441728 -0.0258297 0)
(-0.0161883 -0.0472884 0)
(0.00606359 0.0134643 0)
(-0.00016885 0.00661056 0)
(-0.00535012 0.00594204 0)
(-0.0109929 0.00621817 0)
(-0.0161787 0.00703476 0)
(-0.0216347 0.0085562 0)
(-0.0279003 0.010592 0)
(-0.0352533 0.0127235 0)
(-0.0437456 0.0146041 0)
(-0.0531571 0.0158657 0)
(-0.0630857 0.0161948 0)
(-0.0730385 0.0155764 0)
(-0.0823308 0.0138293 0)
(-0.0902436 0.0109603 0)
(-0.0960966 0.00698629 0)
(-0.0993376 0.00243073 0)
(-0.0992642 -0.00271597 0)
(-0.0949328 -0.00825271 0)
(-0.0861607 -0.0132605 0)
(-0.0736075 -0.018279 0)
(-0.0571367 -0.0253672 0)
(-0.0395921 -0.03609 0)
(-0.012314 -0.0606509 0)
(0.00856 0.00812327 0)
(0.00143292 0.00765803 0)
(-0.00336824 0.00774155 0)
(-0.00908049 0.00805076 0)
(-0.0145917 0.00893884 0)
(-0.0203995 0.0107159 0)
(-0.0269124 0.0131661 0)
(-0.0344687 0.0157971 0)
(-0.0429485 0.0181709 0)
(-0.0521125 0.0199404 0)
(-0.0617964 0.0206477 0)
(-0.0715141 0.0201108 0)
(-0.080506 0.0180195 0)
(-0.0881377 0.0143243 0)
(-0.0936934 0.00917021 0)
(-0.096626 0.00318516 0)
(-0.0962214 -0.00381112 0)
(-0.091418 -0.0115504 0)
(-0.0820847 -0.0185297 0)
(-0.0690419 -0.0251944 0)
(-0.0523161 -0.0338445 0)
(-0.0349967 -0.0461987 0)
(-0.00898373 -0.0723987 0)
(0.00268278 0.0123464 0)
(0.00100384 0.010799 0)
(-0.00194832 0.0107151 0)
(-0.00728101 0.0108256 0)
(-0.0130725 0.0116144 0)
(-0.019266 0.0134944 0)
(-0.0260002 0.0162141 0)
(-0.0335898 0.0192045 0)
(-0.0419366 0.0218135 0)
(-0.050775 0.0236091 0)
(-0.060084 0.0242446 0)
(-0.0694333 0.0234694 0)
(-0.0779922 0.020996 0)
(-0.0849846 0.0167677 0)
(-0.0898048 0.0108179 0)
(-0.0922262 0.00364673 0)
(-0.0913993 -0.00524233 0)
(-0.086117 -0.0152721 0)
(-0.0762876 -0.0242006 0)
(-0.062839 -0.0324986 0)
(-0.0459589 -0.0425864 0)
(-0.0289999 -0.0561049 0)
(-0.00376824 -0.0816303 0)
(0.0137444 0.00943541 0)
(0.0114897 0.0123814 0)
(0.00942437 0.0140996 0)
(0.00414915 0.0148805 0)
(-0.0026246 0.015734 0)
(-0.0102211 0.0175447 0)
(-0.0182871 0.0202107 0)
(-0.0269344 0.0232211 0)
(-0.0364278 0.0254236 0)
(-0.0461429 0.0271989 0)
(-0.0562004 0.0279489 0)
(-0.065686 0.0271231 0)
(-0.0736709 0.0242772 0)
(-0.0798603 0.0192236 0)
(-0.0839673 0.0120885 0)
(-0.0857954 0.00375661 0)
(-0.0842657 -0.00677848 0)
(-0.078503 -0.0187909 0)
(-0.0685452 -0.0296611 0)
(-0.0548089 -0.039668 0)
(-0.0374714 -0.0511252 0)
(-0.0204172 -0.0653523 0)
(0.0052798 -0.085764 0)
(0.0184959 7.78268e-05 0)
(0.0205297 0.0106273 0)
(0.0202586 0.0149912 0)
(0.0164638 0.0174776 0)
(0.0109259 0.0194942 0)
(0.00456756 0.0221718 0)
(-0.0020839 0.02571 0)
(-0.00882081 0.0298166 0)
(-0.0161736 0.0335186 0)
(-0.0247821 0.0356846 0)
(-0.0347828 0.0361379 0)
(-0.0462531 0.0335076 0)
(-0.0575705 0.0282584 0)
(-0.06733 0.0211259 0)
(-0.0734954 0.0132624 0)
(-0.0755262 0.00450749 0)
(-0.0727596 -0.00763118 0)
(-0.0671956 -0.0215209 0)
(-0.057918 -0.034206 0)
(-0.0439728 -0.0459179 0)
(-0.0259695 -0.058702 0)
(-0.00818294 -0.0735171 0)
(0.0174629 -0.0878059 0)
(0.0403901 -0.0247656 0)
(0.0920693 -0.0173441 0)
(0.128844 -0.00812012 0)
(0.148896 -0.00415258 0)
(0.154275 0.00128604 0)
(0.149936 0.00180784 0)
(0.147429 0.00127886 0)
(0.141668 0.00523003 0)
(0.120952 0.0124526 0)
(0.0831961 0.0185112 0)
(0.0319487 0.0164039 0)
(-0.000123491 0.00755914 0)
(-0.0161928 0.00238288 0)
(-0.0229679 -0.000387223 0)
(-0.0248276 -0.000538367 0)
(-0.022254 -0.00287003 0)
(-0.0193902 -0.00297989 0)
(-0.00848548 -0.00605374 0)
(0.00131051 -0.0001293 0)
(0.0250513 -0.0410455 0)
(0.0668153 -0.0330536 0)
(0.102613 -0.0195208 0)
(0.128674 -0.00866904 0)
(0.139902 0.000229719 0)
(0.143586 0.000824839 0)
(0.144521 0.00182274 0)
(0.138438 0.00868071 0)
(0.118589 0.0205017 0)
(0.0862487 0.0275767 0)
(0.0530513 0.026588 0)
(0.0259864 0.0164265 0)
(0.00726381 0.00828501 0)
(-0.00352898 0.00294832 0)
(-0.00679472 0.000790997 0)
(-0.00709149 -0.00147792 0)
(-0.00987956 -0.00170589 0)
(-0.0110704 -0.00559039 0)
(-0.0122204 -0.00241206 0)
(0.00993214 -0.0572876 0)
(0.0466759 -0.0461603 0)
(0.0808137 -0.0337893 0)
(0.115626 -0.0181116 0)
(0.140124 -0.00354512 0)
(0.147457 -2.88196e-05 0)
(0.145625 0.00342307 0)
(0.136984 0.0132969 0)
(0.119051 0.0286927 0)
(0.0907969 0.0381022 0)
(0.0623154 0.0356378 0)
(0.0416681 0.0239247 0)
(0.0258872 0.0141745 0)
(0.0157151 0.00637597 0)
(0.0115787 0.00170528 0)
(0.00961115 -0.000502297 0)
(0.00465307 0.000267025 0)
(-0.00139368 -0.00453588 0)
(-0.00818872 -0.00876428 0)
(0.00368849 -0.0544661 0)
(0.0479789 -0.059163 0)
(0.0774088 -0.0464097 0)
(0.108918 -0.0339929 0)
(0.141889 -0.0115301 0)
(0.156412 -4.96608e-05 0)
(0.152294 0.0051768 0)
(0.138164 0.0178808 0)
(0.117148 0.0361367 0)
(0.094539 0.0485882 0)
(0.0725368 0.0449173 0)
(0.0559589 0.0317099 0)
(0.0417267 0.0192228 0)
(0.034763 0.00854423 0)
(0.0319634 0.00266642 0)
(0.028668 0.00113251 0)
(0.0237434 0.00207453 0)
(0.0181317 -0.00259944 0)
(0.0173509 -0.00713457 0)
(0.071115 -0.0563593 0)
(0.102892 -0.0792272 0)
(0.108665 -0.0514433 0)
(0.114568 -0.0457995 0)
(0.139999 -0.0266795 0)
(0.168011 -0.00235964 0)
(0.169636 0.00878244 0)
(0.149124 0.024634 0)
(0.120859 0.0457417 0)
(0.100919 0.0588897 0)
(0.0879273 0.0521183 0)
(0.0756002 0.0373195 0)
(0.0626522 0.0233403 0)
(0.0573409 0.00998315 0)
(0.0562762 0.00422154 0)
(0.050383 0.00396864 0)
(0.0387264 0.0042902 0)
(0.0260375 -0.00122943 0)
(0.0210847 0.00643027 0)
(0.158643 -0.128741 0)
(0.173678 -0.0985193 0)
(0.174793 -0.0402211 0)
(0.137605 -0.0452326 0)
(0.139408 -0.0378582 0)
(0.167592 -0.0153713 0)
(0.187617 0.0135732 0)
(0.174122 0.0413566 0)
(0.148178 0.0598543 0)
(0.125833 0.0653777 0)
(0.113431 0.0563703 0)
(0.104249 0.0430128 0)
(0.0965667 0.0286628 0)
(0.0899111 0.0115571 0)
(0.0876572 0.0055487 0)
(0.077701 0.00914169 0)
(0.0533906 0.0120431 0)
(0.0230834 0.00616504 0)
(-0.0114307 0.0160332 0)
(0.215717 -0.227168 0)
(0.206071 -0.127558 0)
(0.232724 -0.0224997 0)
(0.169245 -0.0296832 0)
(0.148324 -0.0401381 0)
(0.162912 -0.0276107 0)
(0.183717 0.0102529 0)
(0.181475 0.0469463 0)
(0.164139 0.0681114 0)
(0.151899 0.0727832 0)
(0.144525 0.0618211 0)
(0.137681 0.0474977 0)
(0.130091 0.0307612 0)
(0.121609 0.0142601 0)
(0.115134 0.00826736 0)
(0.103674 0.0175212 0)
(0.0694526 0.0290884 0)
(0.0225318 0.0242908 0)
(-0.026195 0.0114038 0)
(0.254792 -0.288245 0)
(0.216552 -0.149667 0)
(0.243295 -0.0227122 0)
(0.202091 -0.00118261 0)
(0.160205 -0.0345619 0)
(0.159626 -0.0324708 0)
(0.173781 0.00371473 0)
(0.177799 0.0501433 0)
(0.170138 0.0707657 0)
(0.165442 0.0730762 0)
(0.162935 0.062681 0)
(0.158805 0.0484397 0)
(0.152492 0.0336299 0)
(0.142726 0.0182751 0)
(0.131334 0.0129028 0)
(0.116655 0.0267016 0)
(0.0812711 0.0500055 0)
(0.0261552 0.0450636 0)
(-0.0215403 0.0102637 0)
(0.0196867 -0.0149755 0)
(0.0260587 0.00626986 0)
(0.0276316 0.0152427 0)
(0.0258737 0.0197888 0)
(0.0223817 0.0227034 0)
(0.0181435 0.0255628 0)
(0.013808 0.0288722 0)
(0.0098684 0.0325599 0)
(0.00650746 0.0361306 0)
(0.00345151 0.0394918 0)
(0.000267907 0.0421174 0)
(-0.00366572 0.0427142 0)
(-0.0086393 0.0402246 0)
(-0.0148319 0.0335716 0)
(-0.0231256 0.0211785 0)
(-0.0324189 0.00623677 0)
(-0.0408761 -0.0100285 0)
(-0.0433269 -0.0251827 0)
(-0.0365963 -0.0403377 0)
(-0.022042 -0.0553168 0)
(-0.00285979 -0.0701089 0)
(0.0165402 -0.0853015 0)
(0.0332722 -0.097297 0)
(0.0140392 -0.0362452 0)
(0.0197188 -0.000556884 0)
(0.0205425 0.014359 0)
(0.0206472 0.0211143 0)
(0.0201348 0.0249342 0)
(0.0191914 0.0280923 0)
(0.0181719 0.0311178 0)
(0.0176626 0.0340437 0)
(0.0180563 0.0366882 0)
(0.0194108 0.0389222 0)
(0.0214888 0.0404502 0)
(0.023822 0.040401 0)
(0.0262297 0.0379263 0)
(0.0290989 0.032672 0)
(0.0327226 0.0244195 0)
(0.0369919 0.0127398 0)
(0.0415519 -0.00410068 0)
(0.0459622 -0.0275378 0)
(0.0493428 -0.0544171 0)
(0.0552535 -0.0769509 0)
(0.0678349 -0.0952771 0)
(0.0878145 -0.111691 0)
(0.113779 -0.12411 0)
(0.00259138 -0.0466614 0)
(0.0051629 -0.00299929 0)
(0.00494028 0.0132678 0)
(0.00675915 0.0199937 0)
(0.00909131 0.023854 0)
(0.0111596 0.0272054 0)
(0.0130297 0.029972 0)
(0.0154445 0.0320426 0)
(0.0189517 0.033464 0)
(0.0237057 0.0345502 0)
(0.0295179 0.0352353 0)
(0.0361451 0.0345816 0)
(0.0436401 0.0313413 0)
(0.0523922 0.0249072 0)
(0.0627525 0.0149983 0)
(0.0744818 0.00224512 0)
(0.0866315 -0.0137636 0)
(0.0982703 -0.0339568 0)
(0.109009 -0.058446 0)
(0.119977 -0.0850417 0)
(0.133108 -0.110833 0)
(0.14821 -0.133873 0)
(0.164329 -0.153648 0)
(-0.0121789 -0.0434979 0)
(-0.0119448 -0.00179407 0)
(-0.0120429 0.0110957 0)
(-0.00858747 0.0164997 0)
(-0.00412633 0.0201137 0)
(-0.000163834 0.0242115 0)
(0.00337868 0.0267727 0)
(0.00800671 0.0279046 0)
(0.0140963 0.0282444 0)
(0.0213755 0.0282362 0)
(0.0298732 0.0278695 0)
(0.0397555 0.0261535 0)
(0.0511548 0.0216307 0)
(0.0641208 0.0137099 0)
(0.0785163 0.00231778 0)
(0.0939598 -0.0112849 0)
(0.109682 -0.0269494 0)
(0.124884 -0.0460564 0)
(0.138988 -0.0686818 0)
(0.151769 -0.0938961 0)
(0.163197 -0.119525 0)
(0.173267 -0.142758 0)
(0.181023 -0.161108 0)
(-0.0359133 -0.0221293 0)
(-0.0290386 0.00213691 0)
(-0.0267986 0.00872008 0)
(-0.0226072 0.0122182 0)
(-0.0176061 0.0153915 0)
(-0.0129613 0.0212362 0)
(-0.00865764 0.023155 0)
(-0.00262096 0.0222923 0)
(0.00566056 0.0212471 0)
(0.015388 0.0201484 0)
(0.0263851 0.0184495 0)
(0.0391317 0.0150619 0)
(0.0537652 0.00878855 0)
(0.0700226 -0.000822678 0)
(0.0871395 -0.0134452 0)
(0.104359 -0.0276752 0)
(0.121683 -0.0433251 0)
(0.138661 -0.0621156 0)
(0.154347 -0.0836122 0)
(0.167564 -0.106865 0)
(0.177375 -0.129904 0)
(0.182845 -0.149839 0)
(0.183847 -0.163588 0)
(-0.04385 0.0117107 0)
(-0.0311146 -0.000364015 0)
(-0.0327814 0.00528054 0)
(-0.0330572 0.0084828 0)
(-0.031697 0.0108113 0)
(-0.0279186 0.0159429 0)
(-0.0219882 0.0161108 0)
(-0.0144985 0.0126019 0)
(-0.00514382 0.00935428 0)
(0.00637687 0.00631476 0)
(0.0199494 0.0023668 0)
(0.0353965 -0.00341343 0)
(0.0525145 -0.0116725 0)
(0.0707075 -0.0225424 0)
(0.0893036 -0.0354767 0)
(0.107868 -0.0498652 0)
(0.126372 -0.0656718 0)
(0.144301 -0.0834117 0)
(0.160562 -0.102545 0)
(0.174228 -0.121722 0)
(0.183995 -0.139437 0)
(0.189209 -0.153744 0)
(0.189705 -0.162653 0)
(-0.00854448 0.0368507 0)
(-0.00241697 0.00813796 0)
(-0.0170008 0.0114498 0)
(-0.0290506 0.0113386 0)
(-0.0355675 0.0100628 0)
(-0.0350875 0.0106595 0)
(-0.0294186 0.00843741 0)
(-0.02134 0.00365159 0)
(-0.0113777 -0.00148477 0)
(0.000982943 -0.00666279 0)
(0.0158712 -0.0125899 0)
(0.0328075 -0.0199074 0)
(0.0512588 -0.0290411 0)
(0.0706125 -0.0400955 0)
(0.0903423 -0.0527139 0)
(0.110194 -0.0664987 0)
(0.129885 -0.0812393 0)
(0.148786 -0.0970039 0)
(0.165808 -0.113174 0)
(0.179852 -0.128664 0)
(0.190136 -0.142213 0)
(0.196317 -0.152152 0)
(0.197422 -0.157039 0)
(0.0404241 0.0268459 0)
(0.0487897 0.0160528 0)
(0.0259291 0.0253479 0)
(-0.00284159 0.0223212 0)
(-0.0264955 0.0138109 0)
(-0.0328196 0.00916932 0)
(-0.0295679 0.00418177 0)
(-0.0220267 -0.00219697 0)
(-0.0119388 -0.00893673 0)
(0.000858065 -0.0157126 0)
(0.016375 -0.0228838 0)
(0.0340215 -0.0310928 0)
(0.0532238 -0.0407757 0)
(0.073404 -0.0519844 0)
(0.0940912 -0.0644542 0)
(0.115007 -0.0779126 0)
(0.135826 -0.092164 0)
(0.155846 -0.106884 0)
(0.173953 -0.121568 0)
(0.188859 -0.134982 0)
(0.19915 -0.145986 0)
(0.204333 -0.153455 0)
(0.202317 -0.153306 0)
(0.0617018 -0.0496191 0)
(0.0731796 0.00438172 0)
(0.0838896 0.0441052 0)
(0.0525593 0.0339463 0)
(-0.00522138 0.0131665 0)
(-0.0258689 0.00718493 0)
(-0.0242228 0.00223378 0)
(-0.0162644 -0.00428188 0)
(-0.00599797 -0.0115068 0)
(0.00696216 -0.0187703 0)
(0.0231509 -0.0261888 0)
(0.0419462 -0.0347222 0)
(0.0624208 -0.0446852 0)
(0.0837465 -0.0561466 0)
(0.105467 -0.0687214 0)
(0.127332 -0.0822549 0)
(0.148932 -0.0965341 0)
(0.169266 -0.111224 0)
(0.186673 -0.125459 0)
(0.199469 -0.137757 0)
(0.20666 -0.146398 0)
(0.208921 -0.150033 0)
(0.204007 -0.144083 0)
(-0.0205049 -0.0591573 0)
(0.0135973 -0.0336227 0)
(0.0591276 0.0613534 0)
(0.100604 0.175209 0)
(0.0783923 0.123899 0)
(0.0307109 0.0413946 0)
(0.00549762 -0.00701194 0)
(-0.000548321 -0.0323202 0)
(0.00241833 -0.051366 0)
(0.0124699 -0.0701765 0)
(0.0277502 -0.0886435 0)
(0.045789 -0.104722 0)
(0.0634379 -0.119492 0)
(0.0797756 -0.134363 0)
(0.0953399 -0.149649 0)
(0.110139 -0.16483 0)
(0.123891 -0.178564 0)
(0.136045 -0.188773 0)
(0.146018 -0.193715 0)
(0.15336 -0.192171 0)
(0.15788 -0.184117 0)
(0.157495 -0.17122 0)
(0.155711 -0.13821 0)
(0.0324007 -0.0711642 0)
(-0.0184108 -0.0856461 0)
(-0.0102967 -0.0241127 0)
(0.0230479 0.0998631 0)
(0.0397298 0.113831 0)
(0.0291832 0.0604335 0)
(0.0197182 0.0167918 0)
(0.0127061 -0.0144962 0)
(0.0126169 -0.0384369 0)
(0.0190065 -0.0603013 0)
(0.03008 -0.0794034 0)
(0.0430325 -0.0931098 0)
(0.055789 -0.103608 0)
(0.066667 -0.114986 0)
(0.0759207 -0.127432 0)
(0.0838455 -0.14004 0)
(0.0899519 -0.151679 0)
(0.0939786 -0.161097 0)
(0.0958228 -0.167014 0)
(0.0955664 -0.168279 0)
(0.0936827 -0.1641 0)
(0.0875603 -0.153863 0)
(0.0857839 -0.128835 0)
(-0.00665354 -0.0577186 0)
(-0.0164829 -0.0414958 0)
(-0.0442264 -0.0301274 0)
(-0.0292655 0.0721088 0)
(-0.00488394 0.0909108 0)
(0.0121937 0.0596527 0)
(0.0161228 0.0208627 0)
(0.0158628 -0.0119571 0)
(0.0169342 -0.0398098 0)
(0.0210076 -0.0661567 0)
(0.0276851 -0.0870813 0)
(0.0352198 -0.101337 0)
(0.0427276 -0.110185 0)
(0.04898 -0.119754 0)
(0.0537128 -0.130542 0)
(0.0569358 -0.141179 0)
(0.0583988 -0.150573 0)
(0.0578823 -0.157727 0)
(0.055447 -0.161646 0)
(0.051558 -0.161256 0)
(0.0467549 -0.15561 0)
(0.0412044 -0.144209 0)
(0.042858 -0.122388 0)
(-0.0193029 -0.0420948 0)
(-0.0270534 -0.0162501 0)
(-0.0472441 0.00242088 0)
(-0.0439429 0.0491506 0)
(-0.0218849 0.0655358 0)
(-0.00206448 0.0457666 0)
(0.0082357 0.0152703 0)
(0.012772 -0.0149232 0)
(0.0156517 -0.043069 0)
(0.0180815 -0.0708224 0)
(0.0206189 -0.0925114 0)
(0.0235861 -0.107188 0)
(0.0266462 -0.115691 0)
(0.0292001 -0.124028 0)
(0.0307774 -0.133565 0)
(0.0310688 -0.142528 0)
(0.0298361 -0.150057 0)
(0.0269923 -0.15528 0)
(0.0226894 -0.157434 0)
(0.0173649 -0.15563 0)
(0.0117374 -0.14921 0)
(0.00672936 -0.137915 0)
(0.00861118 -0.121683 0)
(-0.0227778 -0.0225323 0)
(-0.0322272 -0.00389678 0)
(-0.0443414 0.0134385 0)
(-0.0425716 0.0376612 0)
(-0.0272344 0.0445839 0)
(-0.010659 0.0305934 0)
(0.000322244 0.00652226 0)
(0.00662132 -0.0198192 0)
(0.0101331 -0.0461046 0)
(0.0114885 -0.0722215 0)
(0.0109009 -0.0938244 0)
(0.00988755 -0.108524 0)
(0.00944766 -0.117065 0)
(0.0091763 -0.125301 0)
(0.00836343 -0.13384 0)
(0.00653992 -0.141609 0)
(0.00344094 -0.147826 0)
(-0.000900806 -0.151844 0)
(-0.00631409 -0.153068 0)
(-0.0123636 -0.150882 0)
(-0.0184347 -0.144811 0)
(-0.0231268 -0.135018 0)
(-0.021116 -0.122419 0)
(-0.020644 -0.000312929 0)
(-0.0303874 0.00956859 0)
(-0.0388842 0.019463 0)
(-0.0378164 0.0298711 0)
(-0.0277483 0.0303279 0)
(-0.0158178 0.018084 0)
(-0.00666493 -0.00182232 0)
(-0.000962472 -0.0247406 0)
(0.00201226 -0.0484104 0)
(0.00227751 -0.0714904 0)
(-1.70852e-05 -0.0915765 0)
(-0.00344936 -0.106174 0)
(-0.00663793 -0.115409 0)
(-0.0091846 -0.123683 0)
(-0.011898 -0.131469 0)
(-0.0155388 -0.138231 0)
(-0.0201493 -0.143395 0)
(-0.0257179 -0.146477 0)
(-0.0320564 -0.147042 0)
(-0.0387407 -0.144683 0)
(-0.0451882 -0.139176 0)
(-0.0501187 -0.130777 0)
(-0.0488388 -0.120661 0)
(-0.016864 0.0204494 0)
(-0.0258266 0.0211431 0)
(-0.0326751 0.023587 0)
(-0.0327712 0.025479 0)
(-0.02689 0.0211941 0)
(-0.0191201 0.00919665 0)
(-0.0126807 -0.00826614 0)
(-0.00857665 -0.0284715 0)
(-0.00701802 -0.049501 0)
(-0.00799729 -0.069934 0)
(-0.0112614 -0.0877984 0)
(-0.0159856 -0.10169 0)
(-0.0206656 -0.1117 0)
(-0.0248875 -0.120053 0)
(-0.0293966 -0.127329 0)
(-0.0345213 -0.133301 0)
(-0.0403902 -0.137655 0)
(-0.0469707 -0.140053 0)
(-0.0540948 -0.140189 0)
(-0.0613501 -0.137828 0)
(-0.068307 -0.132886 0)
(-0.0738221 -0.125683 0)
(-0.0736139 -0.117083 0)
(-0.0136196 0.0365479 0)
(-0.02132 0.0310412 0)
(-0.027438 0.0275065 0)
(-0.0286803 0.0235726 0)
(-0.0258428 0.0159703 0)
(-0.0214124 0.003634 0)
(-0.017582 -0.0123943 0)
(-0.0153729 -0.0304986 0)
(-0.0152016 -0.0492597 0)
(-0.0172485 -0.0672993 0)
(-0.0212874 -0.0833621 0)
(-0.02653 -0.0964505 0)
(-0.0321263 -0.106582 0)
(-0.0377258 -0.114942 0)
(-0.0435637 -0.121757 0)
(-0.0498999 -0.127138 0)
(-0.0567943 -0.130892 0)
(-0.064216 -0.132802 0)
(-0.0720047 -0.132674 0)
(-0.0798085 -0.130389 0)
(-0.0872868 -0.125945 0)
(-0.0935092 -0.119647 0)
(-0.0944298 -0.112039 0)
(-0.0114749 0.050614 0)
(-0.0179142 0.039647 0)
(-0.0235117 0.0314641 0)
(-0.0255853 0.0235271 0)
(-0.0248318 0.0135498 0)
(-0.0228539 0.000752671 0)
(-0.0211496 -0.0143897 0)
(-0.0206025 -0.0309029 0)
(-0.0216852 -0.0477484 0)
(-0.0245564 -0.0639153 0)
(-0.0290673 -0.0784128 0)
(-0.0347322 -0.0906275 0)
(-0.0409414 -0.100566 0)
(-0.0474234 -0.108634 0)
(-0.0542416 -0.115076 0)
(-0.0614698 -0.119995 0)
(-0.0691295 -0.123303 0)
(-0.077183 -0.124872 0)
(-0.0854877 -0.124596 0)
(-0.0937239 -0.122422 0)
(-0.101679 -0.118393 0)
(-0.108526 -0.112779 0)
(-0.110362 -0.105876 0)
(-0.00991635 0.0627413 0)
(-0.0152938 0.0471455 0)
(-0.0204253 0.0354157 0)
(-0.0229667 0.0246712 0)
(-0.0235381 0.0130272 0)
(-0.0232399 -0.000164085 0)
(-0.0231071 -0.0147048 0)
(-0.0238573 -0.0299918 0)
(-0.0259123 -0.045304 0)
(-0.0294305 -0.0598933 0)
(-0.0343145 -0.0730893 0)
(-0.0402444 -0.0844438 0)
(-0.0468428 -0.0938727 0)
(-0.0538902 -0.101562 0)
(-0.061324 -0.107633 0)
(-0.0691293 -0.112166 0)
(-0.0772905 -0.11513 0)
(-0.0857532 -0.116461 0)
(-0.0943859 -0.116109 0)
(-0.102923 -0.114057 0)
(-0.111188 -0.110365 0)
(-0.1185 -0.105284 0)
(-0.121032 -0.0989322 0)
(-0.00847361 0.0731356 0)
(-0.0129127 0.0536571 0)
(-0.017493 0.0392105 0)
(-0.0201649 0.0264834 0)
(-0.021489 0.0137017 0)
(-0.0222577 0.000256972 0)
(-0.023207 -0.0138041 0)
(-0.0248866 -0.0281059 0)
(-0.0276466 -0.0421647 0)
(-0.0316255 -0.0554561 0)
(-0.0367703 -0.0675066 0)
(-0.0428758 -0.0780007 0)
(-0.0496897 -0.0868353 0)
(-0.0570257 -0.0940617 0)
(-0.0647821 -0.0997448 0)
(-0.0728972 -0.103933 0)
(-0.0813155 -0.10662 0)
(-0.0899737 -0.107781 0)
(-0.0987523 -0.107395 0)
(-0.107402 -0.105467 0)
(-0.115823 -0.102065 0)
(-0.123369 -0.0974182 0)
(-0.126301 -0.0915498 0)
(-0.0068143 0.081783 0)
(-0.0102737 0.0591409 0)
(-0.0141444 0.0426486 0)
(-0.0166478 0.0285525 0)
(-0.0182958 0.0150515 0)
(-0.0196704 0.00152232 0)
(-0.0213051 -0.0120874 0)
(-0.0235972 -0.025546 0)
(-0.0268261 -0.0385443 0)
(-0.0311033 -0.0507275 0)
(-0.036399 -0.0617695 0)
(-0.0425763 -0.0714418 0)
(-0.0494555 -0.079645 0)
(-0.056881 -0.0863764 0)
(-0.0647382 -0.091665 0)
(-0.0729393 -0.0955349 0)
(-0.0814078 -0.0979905 0)
(-0.0900714 -0.099026 0)
(-0.098815 -0.0986371 0)
(-0.107429 -0.0968377 0)
(-0.115797 -0.0936962 0)
(-0.123381 -0.0894345 0)
(-0.12652 -0.0840192 0)
(-0.00477559 0.0883811 0)
(-0.00711439 0.0634034 0)
(-0.0100563 0.0454996 0)
(-0.0121282 0.030552 0)
(-0.0137757 0.01669 0)
(-0.0154114 0.00325619 0)
(-0.0174233 -0.00987523 0)
(-0.0200705 -0.0225652 0)
(-0.0235701 -0.0346286 0)
(-0.0280013 -0.0458377 0)
(-0.0333423 -0.055973 0)
(-0.0394931 -0.0648726 0)
(-0.0463169 -0.0724516 0)
(-0.05368 -0.0786883 0)
(-0.0614671 -0.0835885 0)
(-0.0695796 -0.087165 0)
(-0.0779291 -0.0894238 0)
(-0.0864392 -0.0903676 0)
(-0.0950037 -0.0899993 0)
(-0.103412 -0.0883358 0)
(-0.111593 -0.0854453 0)
(-0.11902 -0.0815456 0)
(-0.122128 -0.0765685 0)
(-0.00231113 0.0925146 0)
(-0.00335875 0.0661978 0)
(-0.00517592 0.0475423 0)
(-0.00659858 0.0322215 0)
(-0.00799558 0.018326 0)
(-0.0096292 0.00517279 0)
(-0.0117757 -0.00741894 0)
(-0.0145712 -0.0193694 0)
(-0.0181754 -0.030577 0)
(-0.0226338 -0.0409064 0)
(-0.0279212 -0.0502166 0)
(-0.0339552 -0.0583959 0)
(-0.0406232 -0.0653781 0)
(-0.0478067 -0.0711365 0)
(-0.0553942 -0.0756673 0)
(-0.0632839 -0.0789753 0)
(-0.0713833 -0.0810662 0)
(-0.0796138 -0.0819453 0)
(-0.0878703 -0.0816186 0)
(-0.0959723 -0.080102 0)
(-0.103813 -0.0774645 0)
(-0.110962 -0.0739139 0)
(-0.113963 -0.0693721 0)
(0.000393479 0.0936375 0)
(0.000779437 0.0673124 0)
(0.000275233 0.048601 0)
(-0.000320035 0.0333636 0)
(-0.00126342 0.01974 0)
(-0.00268599 0.0070481 0)
(-0.00476237 -0.00492205 0)
(-0.00753288 -0.0161309 0)
(-0.0110974 -0.0265272 0)
(-0.015468 -0.0360423 0)
(-0.0206089 -0.0445918 0)
(-0.0264429 -0.0521014 0)
(-0.0328696 -0.0585224 0)
(-0.0397805 -0.0638299 0)
(-0.0470692 -0.0680159 0)
(-0.0546347 -0.0710813 0)
(-0.0623838 -0.0730303 0)
(-0.0702384 -0.0738687 0)
(-0.0781005 -0.0736026 0)
(-0.0857855 -0.0722467 0)
(-0.0932178 -0.0698669 0)
(-0.0999857 -0.0666658 0)
(-0.102762 -0.0625492 0)
(0.00311652 0.0915131 0)
(0.00495207 0.0665581 0)
(0.00587226 0.0484892 0)
(0.00623722 0.0337808 0)
(0.00590765 0.0207274 0)
(0.00486945 0.00868814 0)
(0.00304565 -0.00255636 0)
(0.000468443 -0.0129948 0)
(-0.00291482 -0.0226035 0)
(-0.00708757 -0.0313476 0)
(-0.0119929 -0.0391848 0)
(-0.017548 -0.0460692 0)
(-0.0236577 -0.0519661 0)
(-0.0302195 -0.0568534 0)
(-0.0371312 -0.0607221 0)
(-0.0442947 -0.0635702 0)
(-0.0516188 -0.0654007 0)
(-0.0590266 -0.0662188 0)
(-0.0664207 -0.0660295 0)
(-0.0736457 -0.064847 0)
(-0.0805882 -0.0627316 0)
(-0.0869248 -0.0598697 0)
(-0.0894851 -0.0561767 0)
(0.00548103 0.0864192 0)
(0.00869893 0.0639361 0)
(0.0111048 0.0471349 0)
(0.0125261 0.0333593 0)
(0.0129461 0.0211424 0)
(0.0124423 0.00992247 0)
(0.0110265 -0.000501342 0)
(0.00877093 -0.010125 0)
(0.0056937 -0.0189277 0)
(0.00184017 -0.0269161 0)
(-0.002729 -0.0340791 0)
(-0.00792614 -0.0403758 0)
(-0.0136497 -0.045781 0)
(-0.0197955 -0.0502776 0)
(-0.0262662 -0.053855 0)
(-0.0329664 -0.0565087 0)
(-0.039808 -0.0582401 0)
(-0.046716 -0.0590534 0)
(-0.0536021 -0.0589528 0)
(-0.0603067 -0.0579502 0)
(-0.066741 -0.0560964 0)
(-0.0726075 -0.0535698 0)
(-0.0748783 -0.0502789 0)
(0.00721376 0.0788051 0)
(0.0116714 0.0595436 0)
(0.0154885 0.0444947 0)
(0.0179984 0.0319897 0)
(0.0192618 0.0208505 0)
(0.0194152 0.0106166 0)
(0.0185389 0.00112016 0)
(0.016733 -0.00763335 0)
(0.0140737 -0.0156271 0)
(0.0106297 -0.0228721 0)
(0.00648692 -0.0293653 0)
(0.00174229 -0.0350913 0)
(-0.00351806 -0.0400345 0)
(-0.00918672 -0.0441645 0)
(-0.0151617 -0.0474717 0)
(-0.0213479 -0.0499493 0)
(-0.0276621 -0.0515961 0)
(-0.0340316 -0.0524145 0)
(-0.0403697 -0.0524076 0)
(-0.0465427 -0.0515839 0)
(-0.052434 -0.0499899 0)
(-0.0578144 -0.047776 0)
(-0.0598445 -0.0448715 0)
(0.00814563 0.0694207 0)
(0.0136155 0.0536484 0)
(0.0186716 0.0406272 0)
(0.0222273 0.0296309 0)
(0.0243704 0.0197602 0)
(0.025258 0.0106545 0)
(0.0250149 0.00218487 0)
(0.0237631 -0.00563632 0)
(0.0216195 -0.0127916 0)
(0.0186759 -0.0192914 0)
(0.0150362 -0.0251365 0)
(0.0108037 -0.0303102 0)
(0.00607873 -0.0347934 0)
(0.000964303 -0.0385701 0)
(-0.00445992 -0.0416241 0)
(-0.0100908 -0.0439358 0)
(-0.0158414 -0.0455056 0)
(-0.0216415 -0.0463328 0)
(-0.0274133 -0.0464185 0)
(-0.0330229 -0.0457686 0)
(-0.0383714 -0.0444199 0)
(-0.0432576 -0.0425066 0)
(-0.0450146 -0.039954 0)
(0.00832796 0.0591664 0)
(0.0145207 0.0466404 0)
(0.0205245 0.0356858 0)
(0.024996 0.0263183 0)
(0.027979 0.0178438 0)
(0.0296143 0.00997468 0)
(0.0300443 0.00261256 0)
(0.0294086 -0.00422143 0)
(0.0278477 -0.01051 0)
(0.0254735 -0.0162552 0)
(0.0224032 -0.0214537 0)
(0.0187456 -0.0260865 0)
(0.0146039 -0.0301301 0)
(0.0100772 -0.033559 0)
(0.00525841 -0.0363545 0)
(0.000237595 -0.0385065 0)
(-0.00491679 -0.0400015 0)
(-0.0101271 -0.0408323 0)
(-0.0153112 -0.0410018 0)
(-0.0203596 -0.0405123 0)
(-0.0251533 -0.039399 0)
(-0.0295378 -0.0377567 0)
(-0.0310716 -0.0355259 0)
(0.00794448 0.0489051 0)
(0.0145242 0.0389669 0)
(0.0211507 0.0299124 0)
(0.0263295 0.022177 0)
(0.030028 0.0151546 0)
(0.0323461 0.0085841 0)
(0.0334225 0.00238074 0)
(0.0334092 -0.00343074 0)
(0.0324544 -0.00883376 0)
(0.0306839 -0.0138195 0)
(0.0282218 -0.0183742 0)
(0.0251796 -0.0224709 0)
(0.0216599 -0.0260787 0)
(0.0177588 -0.0291679 0)
(0.0135663 -0.0317135 0)
(0.00916768 -0.0336954 0)
(0.00463982 -0.0351024 0)
(5.06444e-05 -0.0359316 0)
(-0.00453842 -0.0361706 0)
(-0.00901753 -0.0358192 0)
(-0.0132631 -0.0349194 0)
(-0.0171461 -0.0335318 0)
(-0.0184182 -0.0315671 0)
(0.00720964 0.0390598 0)
(0.0139023 0.0310179 0)
(0.0208069 0.0235988 0)
(0.0264331 0.0174126 0)
(0.0306536 0.0118293 0)
(0.0335169 0.00656483 0)
(0.0351494 0.00153304 0)
(0.0357062 -0.00325116 0)
(0.0353322 -0.00777005 0)
(0.0341582 -0.0120028 0)
(0.0323077 -0.0159224 0)
(0.0298898 -0.0194908 0)
(0.027004 -0.0226684 0)
(0.0237421 -0.0254187 0)
(0.0201892 -0.0277109 0)
(0.0164248 -0.0295214 0)
(0.012522 -0.0308339 0)
(0.00854601 -0.0316379 0)
(0.00456546 -0.0319279 0)
(0.000650395 -0.0317031 0)
(-0.00305631 -0.0309727 0)
(-0.00642367 -0.0298086 0)
(-0.00747432 -0.0280711 0)
(0.00627238 0.0299923 0)
(0.0128753 0.0231043 0)
(0.0197891 0.0170381 0)
(0.0255939 0.0122749 0)
(0.0301049 0.00806265 0)
(0.0333273 0.00406157 0)
(0.0353815 0.000170357 0)
(0.0364093 -0.0036171 0)
(0.0365471 -0.0072788 0)
(0.0359214 -0.0107821 0)
(0.0346481 -0.0140856 0)
(0.0328297 -0.0171402 0)
(0.0305591 -0.0198971 0)
(0.0279218 -0.0223126 0)
(0.0249967 -0.0243499 0)
(0.0218573 -0.0259808 0)
(0.0185709 -0.0271858 0)
(0.0151963 -0.0279525 0)
(0.0117971 -0.0282728 0)
(0.00844994 -0.028139 0)
(0.00526785 -0.0275281 0)
(0.00238493 -0.0265473 0)
(0.00159828 -0.0250414 0)
(0.00535252 0.0219047 0)
(0.011692 0.0154576 0)
(0.0183595 0.0104886 0)
(0.0240838 0.00700912 0)
(0.0286509 0.00406921 0)
(0.032041 0.00125465 0)
(0.0343603 -0.00157029 0)
(0.0357337 -0.00442476 0)
(0.036284 -0.007281 0)
(0.0361261 -0.0100962 0)
(0.0353638 -0.0128159 0)
(0.0340895 -0.0153804 0)
(0.032387 -0.0177328 0)
(0.0303332 -0.0198222 0)
(0.0279996 -0.0216067 0)
(0.0254526 -0.023054 0)
(0.0227535 -0.024141 0)
(0.0199559 -0.0248524 0)
(0.0171185 -0.0251762 0)
(0.0143172 -0.0251042 0)
(0.0116428 -0.0246149 0)
(0.00916966 -0.0237659 0)
(0.00852201 -0.022432 0)
(0.00464255 0.0148459 0)
(0.0104967 0.00830402 0)
(0.0167086 0.0042153 0)
(0.0221271 0.00187405 0)
(0.0265423 7.47267e-05 0)
(0.0299204 -0.00167558 0)
(0.0323485 -0.0035413 0)
(0.0339339 -0.00554977 0)
(0.0347817 -0.00767259 0)
(0.0349919 -0.00985721 0)
(0.0346535 -0.012038 0)
(0.0338464 -0.0141464 0)
(0.0326435 -0.016118 0)
(0.0311117 -0.0178965 0)
(0.0293136 -0.0194354 0)
(0.0273079 -0.020699 0)
(0.0251491 -0.0216616 0)
(0.0228859 -0.0223054 0)
(0.0205689 -0.0226161 0)
(0.0182711 -0.0225814 0)
(0.0160728 -0.0221885 0)
(0.0140043 -0.0214618 0)
(0.0135226 -0.0202224 0)
(0.0041024 0.0085845 0)
(0.00933084 0.00181935 0)
(0.0149211 -0.00154031 0)
(0.0198656 -0.00292239 0)
(0.0239661 -0.00374385 0)
(0.027181 -0.00457113 0)
(0.0295794 -0.00559864 0)
(0.0312493 -0.00686461 0)
(0.0322797 -0.00834015 0)
(0.0327531 -0.00996385 0)
(0.0327433 -0.0116611 0)
(0.0323166 -0.0133562 0)
(0.0315333 -0.0149786 0)
(0.0304496 -0.0164677 0)
(0.0291185 -0.0177736 0)
(0.0275902 -0.0188583 0)
(0.0259124 -0.0196944 0)
(0.0241277 -0.0202624 0)
(0.0222826 -0.0205463 0)
(0.0204356 -0.0205299 0)
(0.0186624 -0.0201969 0)
(0.0169854 -0.0195564 0)
(0.0166391 -0.018399 0)
(0.00359721 0.0030612 0)
(0.00809443 -0.00390099 0)
(0.0129933 -0.00666489 0)
(0.0173661 -0.00725113 0)
(0.0210428 -0.00725328 0)
(0.0239806 -0.0073012 0)
(0.0262351 -0.00761818 0)
(0.0278803 -0.00825369 0)
(0.0289893 -0.009176 0)
(0.0296278 -0.0103164 0)
(0.0298541 -0.011593 0)
(0.0297203 -0.0129238 0)
(0.0292739 -0.0142342 0)
(0.0285601 -0.0154603 0)
(0.0276221 -0.0165508 0)
(0.0265017 -0.0174661 0)
(0.0252392 -0.0181779 0)
(0.0238716 -0.0186659 0)
(0.0224376 -0.0189127 0)
(0.0209913 -0.0188992 0)
(0.0195975 -0.0186018 0)
(0.0182588 -0.0180196 0)
(0.0180463 -0.0169265 0)
(0.00290864 -0.00167893 0)
(0.00670294 -0.00881489 0)
(0.0108856 -0.0111053 0)
(0.014652 -0.0110444 0)
(0.0178451 -0.0103701 0)
(0.0204296 -0.00977332 0)
(0.0224565 -0.00950576 0)
(0.0239908 -0.00962303 0)
(0.0250918 -0.0100889 0)