/*--------------------------------*- C++ -*----------------------------------*\
  =========                 |
  \\      /  F ield         | OpenFOAM: The Open Source CFD Toolbox
   \\    /   O peration     | Website:  https://openfoam.org
    \\  /    A nd           | Version:  13
     \\/     M anipulation  |
\*---------------------------------------------------------------------------*/
FoamFile
{
    format      ascii;
    class       volScalarField;
    location    "0.0003";
    object      cellMotionUx;
}
// * * * * * * * * * * * * * * * * * * * * * * * * * * * * * * * * * * * * * //

dimensions      [0 1 -1 0 0 0 0];

internalField   nonuniform List<scalar> 
1690
(
0.0612393
0.183718
0.306195
0.428666
0.551107
0.673407
0.795352
0.921945
0.0612393
0.183718
0.306195
0.428666
0.551107
0.673408
0.795354
0.921935
0.0612393
0.183718
0.306195
0.428666
0.551107
0.67341
0.795358
0.921912
0.0612393
0.183718
0.306195
0.428666
0.551108
0.673412
0.795364
0.921878
0.0612393
0.183718
0.306195
0.428666
0.551108
0.673416
0.795372
0.921832
0.0612393
0.183718
0.306195
0.428666
0.551109
0.67342
0.795382
0.921773
0.0612393
0.183718
0.306195
0.428666
0.55111
0.673425
0.795394
0.921704
0.0612393
0.183718
0.306195
0.428666
0.551111
0.673431
0.795409
0.921622
0.0612393
0.183718
0.306195
0.428667
0.551112
0.673437
0.795426
0.921528
0.0612393
0.183718
0.306195
0.428667
0.551113
0.673444
0.795446
0.921422
0.0612393
0.183718
0.306195
0.428667
0.551115
0.673452
0.795468
0.921304
0.0612393
0.183718
0.306195
0.428667
0.551116
0.67346
0.795494
0.921174
0.0612393
0.183718
0.306195
0.428668
0.551118
0.673469
0.795523
0.921031
0.0612393
0.183718
0.306195
0.428668
0.55112
0.673478
0.795555
0.920875
0.0612393
0.183718
0.306195
0.428668
0.551122
0.673488
0.795591
0.920707
0.981399
0.945564
0.908974
0.87114
0.831918
0.791242
0.749055
0.705302
0.659923
0.61286
0.564048
0.513423
0.460918
0.406463
0.349984
0.291407
0.230654
0.167644
0.102293
0.034511
0.981387
0.94556
0.908974
0.87114
0.831918
0.791242
0.749055
0.705302
0.659923
0.61286
0.564048
0.513423
0.460918
0.406463
0.349984
0.291407
0.230654
0.167644
0.102293
0.034511
0.981362
0.945553
0.908972
0.87114
0.831918
0.791242
0.749055
0.705302
0.659923
0.61286
0.564048
0.513423
0.460918
0.406463
0.349984
0.291407
0.230654
0.167644
0.102293
0.0345109
0.981327
0.945543
0.908971
0.871139
0.831918
0.791242
0.749055
0.705302
0.659923
0.61286
0.564048
0.513423
0.460918
0.406463
0.349984
0.291407
0.230654
0.167644
0.102293
0.0345109
0.981285
0.945532
0.908969
0.871139
0.831918
0.791242
0.749055
0.705302
0.659923
0.61286
0.564048
0.513423
0.460918
0.406463
0.349984
0.291407
0.230654
0.167644
0.102293
0.0345109
0.981235
0.945519
0.908966
0.871139
0.831918
0.791242
0.749055
0.705302
0.659923
0.61286
0.564048
0.513423
0.460918
0.406463
0.349984
0.291407
0.230654
0.167644
0.102293
0.0345109
0.98118
0.945506
0.908964
0.871138
0.831918
0.791242
0.749055
0.705302
0.659923
0.61286
0.564048
0.513423
0.460918
0.406463
0.349984
0.291407
0.230654
0.167644
0.102293
0.0345108
0.981121
0.945492
0.908962
0.871138
0.831918
0.791242
0.749055
0.705302
0.659923
0.61286
0.564048
0.513423
0.460918
0.406463
0.349984
0.291407
0.230654
0.167644
0.102293
0.0345108
0.981058
0.945478
0.90896
0.871138
0.831918
0.791242
0.749055
0.705302
0.659923
0.61286
0.564048
0.513423
0.460918
0.406463
0.349984
0.291407
0.230654
0.167644
0.102293
0.0345108
0.980991
0.945464
0.908957
0.871138
0.831918
0.791242
0.749055
0.705302
0.659923
0.61286
0.564048
0.513423
0.460918
0.406463
0.349984
0.291407
0.230654
0.167644
0.102293
0.0345108
0.980923
0.945451
0.908956
0.871137
0.831918
0.791242
0.749055
0.705302
0.659923
0.61286
0.564048
0.513423
0.460918
0.406463
0.349984
0.291407
0.230654
0.167644
0.102293
0.0345108
0.980853
0.945439
0.908954
0.871137
0.831917
0.791242
0.749055
0.705302
0.659923
0.61286
0.564048
0.513423
0.460918
0.406463
0.349984
0.291407
0.230654
0.167644
0.102293
0.0345107
0.980782
0.945427
0.908952
0.871137
0.831917
0.791242
0.749055
0.705302
0.659923
0.61286
0.564048
0.513423
0.460918
0.406463
0.349984
0.291407
0.230654
0.167644
0.102293
0.0345107
0.98071
0.945415
0.90895
0.871137
0.831917
0.791242
0.749055
0.705302
0.659923
0.61286
0.564048
0.513423
0.460918
0.406463
0.349984
0.291407
0.230654
0.167644
0.102293
0.0345107
0.980638
0.945405
0.908949
0.871136
0.831917
0.791242
0.749055
0.705302
0.659923
0.61286
0.564048
0.513423
0.460918
0.406463
0.349984
0.291407
0.230654
0.167644
0.102293
0.0345107
0.980567
0.945395
0.908948
0.871136
0.831917
0.791242
0.749055
0.705302
0.659923
0.61286
0.564048
0.513423
0.460918
0.406463
0.349984
0.291407
0.230654
0.167644
0.102293
0.0345107
0.980496
0.945386
0.908947
0.871136
0.831917
0.791242
0.749055
0.705302
0.659923
0.61286
0.564048
0.513423
0.460918
0.406463
0.349984
0.291407
0.230654
0.167644
0.102293
0.0345107
0.980426
0.945378
0.908946
0.871136
0.831917
0.791242
0.749055
0.705302
0.659923
0.61286
0.564048
0.513423
0.460918
0.406463
0.349984
0.291407
0.230654
0.167644
0.102293
0.0345107
0.980358
0.945371
0.908945
0.871136
0.831917
0.791242
0.749055
0.705302
0.659923
0.61286
0.564048
0.513423
0.460918
0.406463
0.349984
0.291407
0.230654
0.167644
0.102293
0.0345107
0.980291
0.945364
0.908944
0.871136
0.831917
0.791242
0.749055
0.705302
0.659923
0.61286
0.564048
0.513423
0.460918
0.406463
0.349984
0.291407
0.230654
0.167644
0.102293
0.0345107
0.0612393
0.183718
0.306196
0.428669
0.551125
0.673504
0.795658
0.920405
0.0612393
0.183718
0.306196
0.42867
0.551129
0.673527
0.795745
0.918055
0.0612393
0.183718
0.306196
0.428671
0.551134
0.673551
0.795806
0.91629
0.0612393
0.183718
0.306196
0.428672
0.551139
0.673575
0.795855
0.915012
0.0612393
0.183718
0.306196
0.428673
0.551144
0.673597
0.7959
0.914167
0.0612393
0.183718
0.306197
0.428674
0.551149
0.673617
0.795949
0.913714
0.0612393
0.183718
0.306197
0.428675
0.551153
0.673636
0.796003
0.913621
0.0612393
0.183718
0.306197
0.428676
0.551157
0.673651
0.796065
0.913861
0.0612393
0.183718
0.306197
0.428677
0.55116
0.673664
0.796132
0.914414
0.0612394
0.183719
0.306197
0.428677
0.551163
0.673675
0.796203
0.915262
0.0612394
0.183719
0.306197
0.428678
0.551166
0.673683
0.796273
0.916391
0.0612394
0.183719
0.306198
0.428678
0.551168
0.673688
0.796336
0.917789
0.0612394
0.183719
0.306198
0.428679
0.551169
0.673692
0.796388
0.919444
0.0612394
0.183719
0.306198
0.428679
0.55117
0.673694
0.796418
0.921347
0.0612394
0.183719
0.306198
0.428679
0.55117
0.673695
0.796421
0.923511
0.99477
0.999464
0.999904
0.999982
0.999997
0.999999
1
1
1
1
1
1
1
1
1
1
1
1
1
1
1
1
1
1
1
1
1
1
1
1
1
1
1
1
1
1
1
1
1
1
1
1
1
1
1
1
1
1
0.999998
0.999923
0.990821
0.998619
0.999743
0.999951
0.999991
0.999998
1
1
1
1
1
1
1
1
1
1
1
1
1
1
1
1
1
1
1
1
1
1
1
1
1
1
1
1
1
1
1
1
1
1
1
1
1
1
1
1
1
1
0.999995
0.999802
0.987855
0.99795
0.999611
0.999926
0.999986
0.999997
1
1
1
1
1
1
1
1
1
1
1
1
1
1
1
1
1
1
1
1
1
1
1
1
1
1
1
1
1
1
1
1
1
1
1
1
1
1
1
1
1
1
0.999992
0.999703
0.985711
0.997442
0.999508
0.999906
0.999982
0.999997
0.999999
1
1
1
1
1
1
1
1
1
1
1
1
1
1
1
1
1
1
1
1
1
1
1
1
1
1
1
1
1
1
1
1
1
1
1
1
1
1
1
1
1
0.99999
0.999623
0.984257
0.997086
0.999435
0.999891
0.99998
0.999996
0.999999
1
1
1
1
1
1
1
1
1
1
1
1
1
1
1
1
1
1
1
1
1
1
1
1
1
1
1
1
1
1
1
1
1
1
1
1
1
1
1
1
1
0.999988
0.999562
0.983399
0.99687
0.99939
0.999882
0.999978
0.999996
0.999999
1
1
1
1
1
1
1
1
1
1
1
1
1
1
1
1
1
1
1
1
1
1
1
1
1
1
1
1
1
1
1
1
1
1
1
1
1
1
1
1
1
0.999986
0.99952
0.983071
0.996786
0.999372
0.999879
0.999977
0.999996
0.999999
1
1
1
1
1
1
1
1
1
1
1
1
1
1
1
1
1
1
1
1
1
1
1
1
1
1
1
1
1
1
1
1
1
1
1
1
1
1
1
1
1
0.999985
0.999496
0.983225
0.996825
0.99938
0.999881
0.999977
0.999996
0.999999
1
1
1
1
1
1
1
1
1
1
1
1
1
1
1
1
1
1
1
1
1
1
1
1
1
1
1
1
1
1
1
1
1
1
1
1
1
1
1
1
1
0.999985
0.999489
0.983828
0.996978
0.999413
0.999887
0.999979
0.999996
0.999999
1
1
1
1
1
1
1
1
1
1
1
1
1
1
1
1
1
1
1
1
1
1
1
1
1
1
1
1
1
1
1
1
1
1
1
1
1
1
1
1
1
0.999986
0.999501
0.984858
0.997235
0.999467
0.999898
0.999981
0.999996
0.999999
1
1
1
1
1
1
1
1
1
1
1
1
1
1
1
1
1
1
1
1
1
1
1
1
1
1
1
1
1
1
1
1
1
1
1
1
1
1
1
1
1
0.999987
0.999529
0.986301
0.997587
0.99954
0.999912
0.999983
0.999997
0.999999
1
1
1
1
1
1
1
1
1
1
1
1
1
1
1
1
1
1
1
1
1
1
1
1
1
1
1
1
1
1
1
1
1
1
1
1
1
1
1
1
1
0.999988
0.999575
0.988151
0.998022
0.999629
0.999929
0.999987
0.999998
1
1
1
1
1
1
1
1
1
1
1
1
1
1
1
1
1
1
1
1
1
1
1
1
1
1
1
1
1
1
1
1
1
1
1
1
1
1
1
1
1
1
0.99999
0.999638
0.99041
0.998528
0.999729
0.999948
0.99999
0.999998
1
1
1
1
1
1
1
1
1
1
1
1
1
1
1
1
1
1
1
1
1
1
1
1
1
1
1
1
1
1
1
1
1
1
1
1
1
1
1
1
1
1
0.999993
0.999718
0.993086
0.99909
0.999836
0.999969
0.999994
0.999999
1
1
1
1
1
1
1
1
1
1
1
1
1
1
1
1
1
1
1
1
1
1
1
1
1
1
1
1
1
1
1
1
1
1
1
1
1
1
1
1
1
1
0.999995
0.999815
0.996137
0.999691
0.999946
0.99999
0.999998
1
1
1
1
1
1
1
1
1
1
1
1
1
1
1
1
1
1
1
1
1
1
1
1
1
1
1
1
1
1
1
1
1
1
1
1
1
1
1
1
1
1
1
0.999998
0.999928
0.980233
0.945358
0.908944
0.871136
0.831917
0.791242
0.749055
0.705302
0.659923
0.61286
0.564048
0.513423
0.460918
0.406463
0.349984
0.291407
0.230654
0.167644
0.102293
0.0345107
0.98018
0.945354
0.908943
0.871136
0.831917
0.791242
0.749055
0.705302
0.659923
0.61286
0.564048
0.513423
0.460918
0.406463
0.349984
0.291407
0.230654
0.167644
0.102293
0.0345107
0.980131
0.94535
0.908943
0.871136
0.831917
0.791242
0.749055
0.705302
0.659923
0.61286
0.564048
0.513423
0.460918
0.406463
0.349984
0.291407
0.230654
0.167644
0.102293
0.0345107
0.980088
0.945346
0.908942
0.871136
0.831917
0.791242
0.749055
0.705302
0.659923
0.61286
0.564048
0.513423
0.460918
0.406463
0.349984
0.291407
0.230654
0.167644
0.102293
0.0345107
0.98005
0.945343
0.908942
0.871136
0.831917
0.791242
0.749055
0.705302
0.659923
0.61286
0.564048
0.513423
0.460918
0.406463
0.349984
0.291407
0.230654
0.167644
0.102293
0.0345107
0.980017
0.94534
0.908942
0.871136
0.831917
0.791242
0.749055
0.705302
0.659923
0.61286
0.564048
0.513423
0.460918
0.406463
0.349984
0.291407
0.230654
0.167644
0.102293
0.0345107
0.979988
0.945337
0.908941
0.871136
0.831917
0.791242
0.749055
0.705302
0.659923
0.61286
0.564048
0.513423
0.460918
0.406463
0.349984
0.291407
0.230654
0.167644
0.102293
0.0345107
0.979965
0.945334
0.908941
0.871135
0.831917
0.791242
0.749055
0.705302
0.659923
0.61286
0.564048
0.513423
0.460918
0.406463
0.349984
0.291407
0.230654
0.167644
0.102293
0.0345107
0.979946
0.945332
0.908941
0.871135
0.831917
0.791242
0.749055
0.705302
0.659923
0.61286
0.564048
0.513423
0.460918
0.406463
0.349984
0.291407
0.230654
0.167644
0.102293
0.0345107
0.979932
0.94533
0.908941
0.871135
0.831917
0.791242
0.749055
0.705302
0.659923
0.61286
0.564048
0.513423
0.460918
0.406463
0.349984
0.291407
0.230654
0.167644
0.102293
0.0345107
0.979922
0.945329
0.90894
0.871135
0.831917
0.791242
0.749055
0.705302
0.659923
0.61286
0.564048
0.513423
0.460918
0.406463
0.349984
0.291407
0.230654
0.167644
0.102293
0.0345107
0.979916
0.945328
0.90894
0.871135
0.831917
0.791242
0.749055
0.705302
0.659923
0.61286
0.564048
0.513423
0.460918
0.406463
0.349984
0.291407
0.230654
0.167644
0.102293
0.0345107
0.979915
0.945327
0.90894
0.871135
0.831917
0.791242
0.749055
0.705302
0.659923
0.61286
0.564048
0.513423
0.460918
0.406463
0.349984
0.291407
0.230654
0.167644
0.102293
0.0345107
0.979918
0.945326
0.90894
0.871135
0.831917
0.791242
0.749055
0.705302
0.659923
0.61286
0.564048
0.513423
0.460918
0.406463
0.349984
0.291407
0.230654
0.167644
0.102293
0.0345107
0.979925
0.945326
0.90894
0.871135
0.831917
0.791242
0.749055
0.705302
0.659923
0.61286
0.564048
0.513423
0.460918
0.406463
0.349984
0.291407
0.230654
0.167644
0.102293
0.0345107
)
;

boundaryField
{
    internal
    {
        type            internal;
    }
    movingWall
    {
        type            cellMotion;
        value           nonuniform List<scalar> 
85
(
1
1
1
1
1
1
1
1
1
1
1
1
1
1
1
1
1
1
1
1
1
1
1
1
1
1
1
1
1
1
1
1
1
1
1
1
1
1
1
1
1
1
1
1
1
1
1
1
1
1
1
1
1
1
1
1
1
1
1
1
1
1
1
1
1
1
1
1
1
1
1
1
1
1
1
1
1
1
1
1
1
1
1
1
1
)
;
    }
    farFieldMoving
    {
        type            cellMotion;
        value           nonuniform List<scalar> 
50
(
1
1
1
1
1
1
1
1
1
1
1
1
1
1
1
1
1
1
1
1
1
1
1
1
1
1
1
1
1
1
1
1
1
1
1
1
1
1
1
1
1
1
1
1
1
1
1
1
1
1
)
;
    }
    fixedWall
    {
        type            cellMotion;
        value           uniform 0;
    }
    axis
    {
        type            empty;
    }
    left
    {
        type            cellMotion;
        value           uniform 0;
    }
    farField
    {
        type            slip;
    }
    back
    {
        type            wedge;
    }
    front
    {
        type            wedge;
    }
}


// ************************************************************************* //
