/*--------------------------------*- C++ -*----------------------------------*\
  =========                 |
  \\      /  F ield         | OpenFOAM: The Open Source CFD Toolbox
   \\    /   O peration     | Website:  https://openfoam.org
    \\  /    A nd           | Version:  13
     \\/     M anipulation  |
\*---------------------------------------------------------------------------*/
FoamFile
{
    format      ascii;
    class       surfaceScalarField;
    location    "0.0003";
    object      meshPhi;
}
// * * * * * * * * * * * * * * * * * * * * * * * * * * * * * * * * * * * * * //

dimensions      [0 3 -1 0 0 0 0];

internalField   nonuniform List<scalar> 
3252
(
1.33561e-11
0
2.67121e-11
0
4.00675e-11
0
5.34207e-11
2.21213e-25
6.67618e-11
0
8.00443e-11
-2.22775e-25
9.33305e-11
2.24837e-25
5.02461e-25
4.00683e-11
0
8.01362e-11
0
1.20203e-10
-8.84819e-25
1.60262e-10
0
2.00286e-10
-8.89851e-25
2.40134e-10
0
2.79989e-10
-9.04032e-25
0
6.67805e-11
2.65444e-24
1.3356e-10
2.65444e-24
2.00338e-10
-2.66894e-24
2.67104e-10
-5.32358e-24
3.3381e-10
0
4.00227e-10
0
4.66639e-10
-2.69709e-24
0
9.34927e-11
-3.55856e-24
1.86985e-10
3.55856e-24
2.80473e-10
-3.55858e-24
3.73946e-10
3.5394e-24
4.67336e-10
0
5.60326e-10
0
6.53274e-10
-7.20914e-24
0
1.20205e-10
-4.82691e-26
2.40409e-10
-4.82687e-26
3.60608e-10
8.84819e-24
4.80788e-10
0
6.00863e-10
0
7.20433e-10
8.86222e-24
8.39888e-10
8.98373e-24
-5.68472e-26
1.46917e-10
1.06757e-23
2.93833e-10
2.12934e-23
4.40744e-10
5.79203e-26
5.8763e-10
0
7.34393e-10
0
8.8055e-10
5.76271e-26
1.02647e-09
-5.75154e-26
-1.20437e-23
1.73629e-10
1.23874e-23
3.47257e-10
1.23874e-23
5.20879e-10
-1.2455e-23
6.94473e-10
-6.75631e-26
8.67924e-10
0
1.04068e-09
-1.24733e-23
1.21303e-09
1.25632e-23
-1.41389e-23
2.00342e-10
1.4157e-23
4.00682e-10
1.4157e-23
6.01015e-10
0
8.01316e-10
1.42348e-23
1.00146e-09
1.42374e-23
1.20083e-09
1.41776e-23
1.39954e-09
-4.31965e-23
1.60787e-23
2.27054e-10
1.60135e-23
4.54106e-10
-3.19402e-23
6.8115e-10
3.20272e-23
9.0816e-10
0
1.135e-09
0
1.36099e-09
1.60355e-23
1.58601e-09
1.62142e-23
1.02508e-25
2.53766e-10
0
5.0753e-10
0
7.61286e-10
0
1.015e-09
0
1.26854e-09
0
1.52118e-09
-1.92243e-25
1.77243e-09
-3.59985e-23
-4.04912e-23
2.80478e-10
-3.91441e-23
5.60955e-10
3.89318e-23
8.41422e-10
-3.91444e-23
1.12185e-09
-2.12346e-25
1.40208e-09
0
1.68139e-09
-3.91935e-23
1.95879e-09
3.91376e-23
4.43327e-23
3.07191e-10
0
6.14379e-10
4.27027e-23
9.21558e-10
-8.51742e-23
1.22869e-09
-4.24725e-23
1.53563e-09
4.24795e-23
1.84162e-09
-4.27543e-23
2.14508e-09
2.28736e-25
-4.84149e-23
3.33903e-10
-9.25225e-23
6.67803e-10
-2.50998e-25
1.00169e-09
0
1.33554e-09
0
1.66917e-09
4.60191e-23
2.00189e-09
4.60647e-23
2.33131e-09
-2.47457e-25
1.05319e-22
3.60615e-10
-2.70307e-25
7.21228e-10
-4.98199e-23
1.08183e-09
-2.70297e-25
1.44239e-09
-2.70265e-25
1.80273e-09
9.91172e-23
2.16217e-09
-2.69464e-25
2.51741e-09
4.98876e-23
-3.20156e-25
3.87327e-10
5.30888e-23
7.74652e-10
5.30888e-23
1.16197e-09
0
1.54924e-09
2.89574e-25
1.93629e-09
-5.30985e-23
2.3225e-09
5.34356e-23
2.70569e-09
-5.34878e-23
1.21607e-22
1.41279e-09
5.26232e-27
1.3597e-09
0
1.30515e-09
5.37636e-27
1.24867e-09
4.11583e-24
1.19011e-09
-8.5146e-24
1.12938e-09
-8.831e-24
1.0664e-09
-9.15913e-24
1.00108e-09
0
9.33329e-10
4.92621e-24
8.63065e-10
-5.10925e-24
7.90192e-10
5.30628e-24
7.14613e-10
-1.0992e-23
6.36226e-10
7.72583e-27
5.54928e-10
1.184e-23
4.7061e-10
6.13997e-24
3.8316e-10
8.61911e-27
2.92462e-10
8.93929e-27
1.98395e-10
9.27135e-27
1.00835e-10
-7.08542e-24
9.93894e-27
3.84773e-09
1.41519e-23
3.70315e-09
4.03815e-26
3.55459e-09
1.53129e-23
3.40078e-09
2.14811e-26
3.2413e-09
0
3.07591e-09
2.30995e-26
2.90437e-09
3.53955e-23
2.72647e-09
1.83802e-23
2.54196e-09
-1.89858e-23
2.3506e-09
-1.96913e-23
2.15213e-09
-2.04229e-23
1.94629e-09
2.12393e-23
1.73281e-09
-2.19986e-23
1.5114e-09
-2.27851e-23
1.28176e-09
3.20718e-26
1.04359e-09
-2.45097e-23
7.96577e-10
2.54894e-23
5.40386e-10
3.57804e-26
2.74685e-10
3.71088e-26
2.84837e-23
5.7672e-09
4.09203e-23
5.55055e-09
8.53114e-23
5.32791e-09
6.00707e-26
5.09738e-09
4.59342e-23
4.85835e-09
0
4.61045e-09
6.6889e-26
4.35335e-09
-1.02357e-22
4.08669e-09
7.19483e-26
3.81014e-09
0
3.52332e-09
-5.70982e-23
3.22585e-09
0
2.91733e-09
8.32455e-26
2.59735e-09
-6.37023e-23
2.26549e-09
-6.60692e-23
1.92129e-09
9.28708e-26
1.56432e-09
9.63207e-26
1.19408e-09
9.98989e-26
8.10085e-10
0
4.11836e-10
-7.92901e-23
-8.22567e-23
7.25416e-09
-5.26096e-23
6.98177e-09
-5.48496e-23
6.70176e-09
5.70172e-23
6.4118e-09
-1.18207e-22
6.11114e-09
8.30411e-26
5.79933e-09
6.36213e-23
5.47594e-09
-6.5896e-23
5.14054e-09
9.26368e-26
4.79268e-09
-7.08839e-23
4.43191e-09
-7.35176e-23
4.05774e-09
7.63526e-23
3.66967e-09
0
3.26719e-09
0
2.84976e-09
8.51836e-23
2.41683e-09
8.83486e-23
1.96781e-09
9.16313e-23
1.50211e-09
0
1.01911e-09
-9.84336e-23
5.18172e-10
1.02229e-22
2.12102e-22
8.37943e-09
0
8.06495e-09
-6.63328e-23
7.74155e-09
0
7.40662e-09
0
7.05932e-09
7.38776e-23
6.69914e-09
0
6.32558e-09
-1.07864e-25
5.93815e-09
8.26463e-23
5.53633e-09
-1.16023e-25
5.1196e-09
8.89021e-23
4.68738e-09
9.22053e-23
4.23912e-09
-9.56313e-23
3.7742e-09
1.98235e-22
3.29202e-09
-3.08331e-22
2.79192e-09
2.1324e-22
2.27324e-09
1.10506e-22
1.7353e-09
1.14612e-22
1.17737e-09
0
5.9872e-10
-1.23455e-22
2.56134e-22
9.20334e-09
-1.06214e-25
8.85814e-09
1.05224e-25
8.503e-09
0
8.13514e-09
1.12161e-25
7.7537e-09
-8.58019e-23
7.3581e-09
8.89901e-23
6.94781e-09
0
6.52228e-09
-9.58558e-23
6.08095e-09
-9.92828e-23
5.62323e-09
-2.05944e-22
5.14852e-09
2.1374e-22
4.65617e-09
1.10916e-22
4.14554e-09
1.14882e-22
3.61593e-09
3.57612e-22
3.06665e-09
1.23745e-22
2.49697e-09
-2.56685e-22
1.90612e-09
2.66042e-22
1.29332e-09
1.38057e-22
6.57768e-10
-1.42993e-22
2.96865e-22
9.77727e-09
-1.66463e-22
9.41078e-09
-1.7337e-22
9.03355e-09
1.80192e-22
8.64277e-09
0
8.23753e-09
0
7.81726e-09
-2.00781e-22
7.38138e-09
0
6.92931e-09
0
6.46045e-09
0
5.97418e-09
-2.32327e-22
5.46986e-09
0
4.9468e-09
0
4.40431e-09
-2.59549e-22
3.84167e-09
0
3.25813e-09
0
2.6529e-09
0
2.0252e-09
0
1.37417e-09
0
6.98966e-10
0
0
1.01449e-08
0
9.76487e-09
-3.83641e-22
9.37353e-09
1.99218e-22
8.96806e-09
0
8.54759e-09
0
8.1115e-09
0
7.65922e-09
-2.30225e-22
7.19015e-09
0
6.70366e-09
0
6.1991e-09
0
5.6758e-09
-5.33155e-22
5.13307e-09
-2.7667e-22
4.57017e-09
-2.86561e-22
3.98636e-09
0
3.38086e-09
0
2.75287e-09
3.19704e-22
2.10155e-09
3.32033e-22
1.42603e-09
-3.43903e-22
7.25421e-10
-3.57164e-22
3.69986e-22
1.03432e-08
-4.00394e-22
9.95607e-09
2.85122e-25
9.55715e-09
-2.16612e-22
9.14376e-09
3.04575e-25
8.71506e-09
-2.33024e-22
8.27044e-09
2.4201e-22
7.80931e-09
2.51002e-22
7.33105e-09
-2.59976e-22
6.83504e-09
2.69636e-22
6.3206e-09
-5.59688e-22
5.78706e-09
5.80483e-22
5.2337e-09
4.07705e-25
4.65979e-09
0
4.06455e-09
3.24469e-22
3.4472e-09
3.35615e-22
2.80692e-09
-3.48085e-22
2.14284e-09
3.61507e-22
1.4541e-09
3.74939e-22
7.39769e-10
7.77213e-22
-4.02823e-22
1.04037e-08
0
1.00146e-08
4.49744e-22
9.61338e-09
-2.33034e-22
9.19758e-09
2.42032e-22
8.76636e-09
2.51026e-22
8.31914e-09
2.60353e-22
7.8553e-09
3.65502e-25
7.37424e-09
-2.79681e-22
6.87531e-09
3.93153e-25
6.35786e-09
-6.02109e-22
5.82119e-09
-3.12029e-22
5.26458e-09
3.24061e-22
4.68729e-09
-3.35647e-22
4.08856e-09
0
3.46759e-09
-3.61053e-22
2.82354e-09
-3.7396e-22
2.15557e-09
-3.88381e-22
1.46278e-09
8.06715e-22
7.44248e-10
5.66201e-25
-4.33348e-22
1.03528e-08
4.58874e-22
9.9659e-09
3.26271e-25
9.56673e-09
2.48975e-22
9.15296e-09
-5.15072e-22
8.72385e-09
-2.66744e-22
8.2788e-09
2.77406e-22
7.81722e-09
2.88103e-22
7.3385e-09
2.98807e-22
6.842e-09
4.18903e-25
6.32707e-09
-6.41112e-22
5.793e-09
3.32917e-22
5.2391e-09
-1.03446e-21
4.66462e-09
-3.57146e-22
4.0688e-09
-3.70416e-22
3.45085e-09
5.21379e-25
2.80994e-09
5.40749e-25
2.14521e-09
-4.13258e-22
1.45579e-09
5.81677e-25
7.4075e-10
1.20658e-24
4.62975e-22
1.02129e-08
2.42351e-22
9.83159e-09
-2.53685e-22
9.43787e-09
0
9.02969e-09
2.72623e-22
8.60636e-09
2.8237e-22
8.16732e-09
-2.93259e-22
7.71196e-09
-6.0831e-22
7.23969e-09
0
6.74989e-09
-6.53911e-22
6.24189e-09
6.77748e-22
5.71503e-09
-4.76348e-25
5.16859e-09
3.65018e-22
4.60186e-09
-3.78581e-22
4.01407e-09
0
3.40444e-09
-4.06685e-22
2.77217e-09
0
2.1164e-09
-8.75527e-22
1.43627e-09
9.07442e-22
7.30873e-10
0
0
1.00029e-08
0
9.62975e-09
2.66098e-22
9.24419e-09
-2.76063e-22
8.8444e-09
0
8.42976e-09
-5.93924e-22
7.99973e-09
4.169e-25
7.55372e-09
-6.38447e-22
7.09115e-09
3.31308e-22
6.61141e-09
3.43619e-22
6.11384e-09
4.8237e-25
5.59779e-09
3.69127e-22
5.06258e-09
0
4.50748e-09
-7.94672e-22
3.93176e-09
4.12378e-22
3.33465e-09
4.27122e-22
2.71535e-09
-8.85983e-22
2.07305e-09
6.22687e-25
1.40688e-09
9.53044e-22
7.15961e-10
4.94227e-22
5.12628e-22
9.73859e-09
-2.65802e-22
9.37559e-09
0
9.00027e-09
2.87956e-22
8.61104e-09
5.97715e-22
8.20735e-09
3.10591e-22
7.78867e-09
4.35445e-25
7.35443e-09
0
6.90407e-09
4.6839e-25
6.43699e-09
-3.57932e-22
5.95256e-09
-3.71735e-22
5.45013e-09
3.86069e-22
4.92904e-09
-3.99872e-22
4.38859e-09
4.15291e-22
3.82807e-09
4.30722e-22
3.24672e-09
6.04625e-25
2.64377e-09
9.26647e-22
2.01842e-09
-4.79888e-22
1.36983e-09
6.74552e-25
6.97146e-10
-5.15511e-22
0
9.43313e-09
-2.75898e-22
9.08183e-09
5.77987e-22
8.71832e-09
2.99766e-22
8.34129e-09
-6.20959e-22
7.95026e-09
-3.22015e-22
7.54469e-09
9.0537e-25
7.12407e-09
0
6.68782e-09
3.59259e-22
6.23537e-09
-7.45215e-22
5.76611e-09
7.73951e-22
5.27943e-09
0
4.77467e-09
0
4.25115e-09
-4.31149e-22
3.70819e-09
6.06049e-25
3.14506e-09
6.28564e-25
2.561e-09
-4.81015e-22
1.95524e-09
6.76138e-25
1.32698e-09
5.18124e-22
6.75371e-10
-5.3592e-22
1.11474e-21
9.09756e-09
2.8647e-22
8.75905e-09
2.98848e-22
8.40851e-09
3.10382e-22
8.04489e-09
6.43815e-22
7.66775e-09
3.33867e-22
7.2766e-09
0
6.87093e-09
0
6.45018e-09
5.04176e-25
6.01381e-09
-7.7212e-22
5.56124e-09
5.42321e-25
5.09185e-09
-1.24556e-21
4.60503e-09
-4.3042e-22
4.10012e-09
0
3.57646e-09
0
3.03334e-09
0
2.47004e-09
9.97438e-22
1.88581e-09
-1.0345e-21
1.27988e-09
5.36467e-22
6.51427e-10
7.53073e-25
1.73052e-21
8.74101e-09
2.95979e-22
8.41604e-09
-3.07959e-22
8.07927e-09
3.21118e-22
7.7299e-09
3.3259e-22
7.36753e-09
6.88493e-22
6.9917e-09
-3.56311e-22
6.60191e-09
-7.39602e-22
6.19764e-09
-7.68123e-22
5.77836e-09
-7.96124e-22
5.34351e-09
0
4.8925e-09
-4.27612e-22
4.42475e-09
4.44704e-22
3.93961e-09
-9.21205e-22
3.43645e-09
-4.77716e-22
2.9146e-09
-1.98254e-21
2.37336e-09
5.13875e-22
1.81201e-09
1.44466e-24
1.22981e-09
5.55018e-22
6.25967e-10
7.77013e-25
-1.18927e-21
8.37101e-09
-3.03102e-22
8.06006e-09
3.18098e-22
7.73757e-09
4.45676e-25
7.40298e-09
4.62432e-25
7.05594e-09
0
6.69601e-09
-7.34027e-22
6.32271e-09
7.62332e-22
5.93554e-09
7.89587e-22
5.53399e-09
4.10017e-22
5.11753e-09
0
4.6856e-09
0
4.23763e-09
9.13641e-22
3.77302e-09
6.42143e-25
3.29114e-09
4.91398e-22
2.79136e-09
0
2.27302e-09
-1.05718e-21
1.73541e-09
5.48975e-22
1.17783e-09
5.69373e-22
5.99532e-10
5.90527e-22
-1.22415e-21
7.99374e-09
6.23652e-22
7.69705e-09
0
7.38913e-09
0
7.06961e-09
0
6.7382e-09
-7.26049e-22
6.39448e-09
0
6.03799e-09
-7.81005e-22
5.66825e-09
8.11122e-22
5.28479e-09
1.13868e-24
4.88709e-09
1.18098e-24
4.47461e-09
0
4.04682e-09
9.38559e-22
3.60313e-09
0
3.14295e-09
1.36648e-24
2.66568e-09
-1.04569e-21
2.17068e-09
0
1.65729e-09
1.52451e-24
1.12482e-09
0
5.72566e-10
1.21162e-21
0
7.61411e-09
9.30437e-25
7.33189e-09
-6.66321e-22
7.03861e-09
0
6.73426e-09
-7.17434e-22
6.41857e-09
7.44086e-22
6.09115e-09
0
5.75158e-09
8.00406e-22
5.39939e-09
0
5.03412e-09
0
4.65528e-09
-8.92981e-22
4.26237e-09
0
3.85487e-09
0
3.43223e-09
0
2.99389e-09
1.39854e-24
2.53926e-09
1.07167e-21
2.06774e-09
-1.10848e-21
1.57871e-09
0
1.0715e-09
0
5.45448e-10
0
1.28614e-21
1.00764e-09
-3.34666e-25
2.01528e-09
-6.16817e-23
3.0229e-09
6.10127e-23
4.03041e-09
1.22698e-22
5.03747e-09
-6.20267e-23
6.04277e-09
1.23149e-22
7.04813e-09
-6.20837e-23
1.19412e-22
8.04524e-09
1.15308e-09
1.3997e-22
2.30615e-09
0
3.4592e-09
1.39211e-22
4.61215e-09
-1.39974e-22
5.7647e-09
1.3999e-22
6.91576e-09
0
8.06882e-09
1.40515e-22
0
8.99571e-09
1.29851e-09
-8.49537e-25
2.59702e-09
1.55727e-22
3.8955e-09
1.55728e-22
5.1939e-09
1.54881e-22
6.49195e-09
-8.49279e-25
7.78876e-09
0
9.08169e-09
0
-1.50356e-22
1.01052e-08
1.44395e-09
-9.39639e-25
2.88789e-09
-9.39636e-25
4.33181e-09
0
5.77566e-09
1.72246e-22
7.21924e-09
0
8.66187e-09
1.72298e-22
1.00919e-08
1.71996e-22
-7.27149e-25
1.12154e-08
1.58938e-09
0
3.17875e-09
-1.02974e-24
4.76811e-09
-1.8876e-22
6.35742e-09
1.89792e-22
7.94656e-09
-1.898e-22
9.53503e-09
0
1.11034e-08
0
1.79991e-22
1.23288e-08
1.73481e-09
4.11673e-22
3.46962e-09
-2.06396e-22
5.20442e-09
2.05277e-22
6.93919e-09
-4.11675e-22
8.6739e-09
-4.12803e-22
1.04082e-08
-1.11968e-24
1.21166e-08
-2.0552e-22
-8.56869e-25
1.34467e-08
1.88025e-09
-1.20995e-24
3.76049e-09
-1.20995e-24
5.64073e-09
-2.21793e-22
7.52096e-09
0
9.40125e-09
-2.23002e-22
1.12815e-08
-1.21008e-24
1.31321e-08
-2.21933e-22
2.10129e-22
1.457e-08
2.02568e-09
2.3961e-22
4.05136e-09
0
6.07704e-09
2.39609e-22
8.10274e-09
4.77917e-22
1.01286e-08
2.38303e-22
1.21547e-08
1.3005e-24
1.41502e-08
-2.3716e-22
0
1.56997e-08
2.17111e-09
2.56216e-22
4.34223e-09
-5.09652e-22
6.51335e-09
2.54825e-22
8.68451e-09
-2.53433e-22
1.08559e-08
1.39039e-24
1.3028e-08
-5.10856e-22
1.51714e-08
0
-1.06855e-24
1.68369e-08
2.31655e-09
2.71342e-22
4.6331e-09
0
6.94965e-09
5.45644e-22
9.26629e-09
-2.71339e-22
1.15833e-08
2.71324e-22
1.39014e-08
-5.42462e-22
1.6196e-08
-2.70324e-22
-2.59744e-22
1.79825e-08
2.46198e-09
0
4.92397e-09
0
7.38596e-09
-1.15457e-21
9.84806e-09
0
1.23106e-08
0
1.47746e-08
0
1.72242e-08
-3.13267e-24
5.50991e-22
1.91376e-08
2.60742e-09
6.08751e-22
5.21483e-09
6.0875e-22
7.82227e-09
0
1.04298e-08
0
1.30379e-08
-6.12013e-22
1.56478e-08
-6.08476e-22
1.82564e-08
0
5.85723e-22
2.03033e-08
2.75285e-09
-3.50113e-24
5.5057e-09
0
8.25858e-09
-6.45282e-22
1.10116e-08
-1.29054e-21
1.37651e-08
6.41715e-22
1.65208e-08
6.41487e-22
1.92929e-08
-3.53764e-24
0
2.14808e-08
2.89828e-09
6.74817e-22
5.79657e-09
6.74816e-22
8.69489e-09
-3.68138e-24
1.15934e-08
-3.68158e-24
1.44924e-08
-6.78422e-22
1.73937e-08
-3.68502e-24
2.0324e-08
-6.78964e-22
-3.00875e-24
2.26681e-08
3.04372e-09
6.08744e-09
9.13119e-09
1.21751e-08
1.52196e-08
1.82664e-08
2.13518e-08
2.43461e-08
8.33465e-09
-1.74584e-09
8.46737e-09
-1.83115e-09
8.5803e-09
-1.88225e-09
8.68453e-09
-1.93027e-09
8.78141e-09
-1.97787e-09
8.87121e-09
-2.02539e-09
8.95397e-09
-2.07289e-09
9.0297e-09
-2.12039e-09
9.0984e-09
-2.16788e-09
9.16007e-09
-2.21538e-09
9.21471e-09
-2.26288e-09
9.26233e-09
-2.31037e-09
9.30292e-09
-2.35787e-09
9.33649e-09
-2.40537e-09
9.36302e-09
-2.45286e-09
9.38253e-09
-2.50036e-09
9.39501e-09
-2.54786e-09
9.40046e-09
-2.59535e-09
9.39889e-09
-2.64285e-09
9.39028e-09
-2.69035e-09
9.37465e-09
-2.73784e-09
9.35199e-09
-2.78534e-09
9.32231e-09
-2.83284e-09
9.2856e-09
-2.88033e-09
9.24186e-09
-2.92783e-09
9.19109e-09
-2.97533e-09
9.13329e-09
-3.02282e-09
9.06847e-09
-3.07032e-09
8.99662e-09
-3.11782e-09
8.91774e-09
-3.16531e-09
8.83183e-09
-3.21281e-09
8.7389e-09
-3.26031e-09
8.63894e-09
-3.3078e-09
8.53195e-09
-3.3553e-09
8.41793e-09
-3.4028e-09
8.29689e-09
-3.45029e-09
8.16882e-09
-3.49779e-09
8.03372e-09
-3.54529e-09
7.89159e-09
-3.59278e-09
7.74244e-09
-3.64028e-09
7.58626e-09
-3.68778e-09
7.42305e-09
-3.73527e-09
7.25281e-09
-3.78277e-09
7.07555e-09
-3.83027e-09
6.89126e-09
-3.87776e-09
6.69994e-09
-3.92526e-09
6.50159e-09
-3.97276e-09
6.29621e-09
-4.02025e-09
6.08361e-09
-4.06761e-09
-4.09873e-09
5.84103e-09
9.45726e-09
-1.83057e-09
9.58265e-09
-1.91328e-09
9.66712e-09
-1.95986e-09
9.73992e-09
-2.00178e-09
9.80522e-09
-2.04292e-09
9.86379e-09
-2.08391e-09
9.91577e-09
-2.12487e-09
9.96121e-09
-2.16582e-09
1.00001e-08
-2.20678e-09
1.00325e-08
-2.24773e-09
1.00583e-08
-2.28868e-09
1.00775e-08
-2.32964e-09
1.00903e-08
-2.37059e-09
1.00964e-08
-2.41155e-09
1.00961e-08
-2.4525e-09
1.00892e-08
-2.49345e-09
1.00757e-08
-2.53441e-09
1.00557e-08
-2.57536e-09
1.00292e-08
-2.61631e-09
9.99611e-09
-2.65727e-09
9.95649e-09
-2.69822e-09
9.91032e-09
-2.73918e-09
9.85762e-09
-2.78013e-09
9.79837e-09
-2.82108e-09
9.73257e-09
-2.86204e-09
9.66024e-09
-2.90299e-09
9.58136e-09
-2.94394e-09
9.49594e-09
-2.9849e-09
9.40397e-09
-3.02585e-09
9.30547e-09
-3.06681e-09
9.20042e-09
-3.10776e-09
9.08882e-09
-3.14871e-09
8.97069e-09
-3.18967e-09
8.84601e-09
-3.23062e-09
8.71479e-09
-3.27157e-09
8.57702e-09
-3.31253e-09
8.43272e-09
-3.35348e-09
8.28187e-09
-3.39444e-09
8.12447e-09
-3.43539e-09
7.96054e-09
-3.47634e-09
7.79006e-09
-3.5173e-09
7.61304e-09
-3.55825e-09
7.42947e-09
-3.5992e-09
7.23936e-09
-3.64016e-09
7.04271e-09
-3.68111e-09
6.83952e-09
-3.72207e-09
6.62978e-09
-3.76302e-09
6.41349e-09
-3.80397e-09
6.19008e-09
-3.84468e-09
-3.86995e-09
5.91362e-09
1.05863e-08
-1.88304e-09
1.06981e-08
-1.96275e-09
1.07539e-08
-2.00485e-09
1.07953e-08
-2.04107e-09
1.0829e-08
-2.07622e-09
1.08564e-08
-2.11117e-09
1.08776e-08
-2.14607e-09
1.08927e-08
-2.18097e-09
1.09018e-08
-2.21586e-09
1.09048e-08
-2.25076e-09
1.09018e-08
-2.28566e-09
1.08927e-08
-2.32055e-09
1.08776e-08
-2.35545e-09
1.08564e-08
-2.39034e-09
1.08291e-08
-2.42524e-09
1.07958e-08
-2.46013e-09
1.07564e-08
-2.49503e-09
1.0711e-08
-2.52992e-09
1.06595e-08
-2.56482e-09
1.06019e-08
-2.59971e-09
1.05383e-08
-2.63461e-09
1.04687e-08
-2.66951e-09
1.03929e-08
-2.7044e-09
1.03111e-08
-2.7393e-09
1.02233e-08
-2.77419e-09
1.01294e-08
-2.80909e-09
1.00294e-08
-2.84398e-09
9.92341e-09
-2.87888e-09
9.81133e-09
-2.91377e-09
9.6932e-09
-2.94867e-09
9.569e-09
-2.98357e-09
9.43875e-09
-3.01846e-09
9.30244e-09
-3.05336e-09
9.16007e-09
-3.08825e-09
9.01164e-09
-3.12315e-09
8.85716e-09
-3.15804e-09
8.69661e-09
-3.19294e-09
8.53001e-09
-3.22783e-09
8.35735e-09
-3.26273e-09
8.17863e-09
-3.29763e-09
7.99386e-09
-3.33252e-09
7.80302e-09
-3.36742e-09
7.60613e-09
-3.40231e-09
7.40318e-09
-3.43721e-09
7.19417e-09
-3.4721e-09
6.9791e-09
-3.507e-09
6.75797e-09
-3.54189e-09
6.53076e-09
-3.57678e-09
6.2966e-09
-3.61136e-09
-3.63144e-09
6.00925e-09
1.17167e-08
-1.90368e-09
1.18137e-08
-1.97963e-09
1.18408e-08
-2.01726e-09
1.18507e-08
-2.04815e-09
1.18528e-08
-2.07778e-09
1.18489e-08
-2.10717e-09
1.18394e-08
-2.1365e-09
1.18242e-08
-2.16582e-09
1.18035e-08
-2.19515e-09
1.17772e-08
-2.22447e-09
1.17454e-08
-2.25379e-09
1.17079e-08
-2.28311e-09
1.16649e-08
-2.31243e-09
1.16163e-08
-2.34175e-09
1.15622e-08
-2.37108e-09
1.15024e-08
-2.4004e-09
1.14371e-08
-2.42972e-09
1.13662e-08
-2.45904e-09
1.12898e-08
-2.48836e-09
1.12078e-08
-2.51769e-09
1.11202e-08
-2.54701e-09
1.1027e-08
-2.57633e-09
1.09282e-08
-2.60565e-09
1.08239e-08
-2.63497e-09
1.0714e-08
-2.6643e-09
1.05985e-08
-2.69362e-09
1.04775e-08
-2.72294e-09
1.03509e-08
-2.75226e-09
1.02187e-08
-2.78158e-09
1.00809e-08
-2.81091e-09
9.93759e-09
-2.84023e-09
9.78867e-09
-2.86955e-09
9.63419e-09
-2.89887e-09
9.47413e-09
-2.92819e-09
9.3085e-09
-2.95752e-09
9.13729e-09
-2.98684e-09
8.96051e-09
-3.01616e-09
8.77816e-09
-3.04548e-09
8.59023e-09
-3.0748e-09
8.39673e-09
-3.10412e-09
8.19766e-09
-3.13345e-09
7.99301e-09
-3.16277e-09
7.78279e-09
-3.19209e-09
7.56699e-09
-3.22141e-09
7.34562e-09
-3.25073e-09
7.11868e-09
-3.28006e-09
6.88617e-09
-3.30938e-09
6.64804e-09
-3.33869e-09
6.40317e-09
-3.36765e-09
-3.3831e-09
6.10508e-09
1.28495e-08
-1.8925e-09
1.29299e-08
-1.96395e-09
1.29278e-08
-1.99708e-09
1.29062e-08
-2.02303e-09
1.28766e-08
-2.04761e-09
1.28415e-08
-2.0719e-09
1.28012e-08
-2.09615e-09
1.27558e-08
-2.12039e-09
1.27052e-08
-2.14462e-09
1.26496e-08
-2.16885e-09
1.25889e-08
-2.19309e-09
1.25231e-08
-2.21732e-09
1.24522e-08
-2.24155e-09
1.23763e-08
-2.26578e-09
1.22952e-08
-2.29002e-09
1.22091e-08
-2.31425e-09
1.21178e-08
-2.33848e-09
1.20215e-08
-2.36272e-09
1.19201e-08
-2.38695e-09
1.18136e-08
-2.41118e-09
1.1702e-08
-2.43542e-09
1.15853e-08
-2.45965e-09
1.14635e-08
-2.48388e-09
1.13367e-08
-2.50811e-09
1.12047e-08
-2.53235e-09
1.10677e-08
-2.55658e-09
1.09256e-08
-2.58081e-09
1.07783e-08
-2.60505e-09
1.0626e-08
-2.62928e-09
1.04687e-08
-2.65351e-09
1.03062e-08
-2.67775e-09
1.01386e-08
-2.70198e-09
9.96594e-09
-2.72621e-09
9.78819e-09
-2.75044e-09
9.60535e-09
-2.77468e-09
9.41742e-09
-2.79891e-09
9.22441e-09
-2.82314e-09
9.0263e-09
-2.84738e-09
8.82311e-09
-2.87161e-09
8.61483e-09
-2.89584e-09
8.40146e-09
-2.92008e-09
8.183e-09
-2.94431e-09
7.95945e-09
-2.96854e-09
7.73081e-09
-2.99277e-09
7.49708e-09
-3.01701e-09
7.25826e-09
-3.04124e-09
7.01436e-09
-3.06547e-09
6.76532e-09
-3.0897e-09
6.50981e-09
-3.11355e-09
-3.12492e-09
6.20097e-09
1.39854e-08
-1.84949e-09
1.40467e-08
-1.91568e-09
1.40148e-08
-1.94433e-09
1.39616e-08
-1.96571e-09
1.39005e-08
-1.98569e-09
1.38341e-08
-2.00539e-09
1.3763e-08
-2.02503e-09
1.36873e-08
-2.04466e-09
1.36069e-08
-2.06429e-09
1.3522e-08
-2.08392e-09
1.34325e-08
-2.10354e-09
1.33383e-08
-2.12317e-09
1.32396e-08
-2.1428e-09
1.31362e-08
-2.16243e-09
1.30283e-08
-2.18206e-09
1.29157e-08
-2.20169e-09
1.27985e-08
-2.22132e-09
1.26768e-08
-2.24095e-09
1.25504e-08
-2.26057e-09
1.24194e-08
-2.2802e-09
1.22838e-08
-2.29983e-09
1.21436e-08
-2.31946e-09
1.19988e-08
-2.33909e-09
1.18494e-08
-2.35872e-09
1.16954e-08
-2.37835e-09
1.15368e-08
-2.39798e-09
1.13736e-08
-2.4176e-09
1.12058e-08
-2.43723e-09
1.10334e-08
-2.45686e-09
1.08564e-08
-2.47649e-09
1.06748e-08
-2.49612e-09
1.04885e-08
-2.51575e-09
1.02977e-08
-2.53538e-09
1.01022e-08
-2.55501e-09
9.9022e-09
-2.57463e-09
9.69756e-09
-2.59426e-09
9.48831e-09
-2.61389e-09
9.27445e-09
-2.63352e-09
9.05599e-09
-2.65315e-09
8.83292e-09
-2.67278e-09
8.60526e-09
-2.69241e-09
8.37298e-09
-2.71203e-09
8.1361e-09
-2.73166e-09
7.89462e-09
-2.75129e-09
7.64854e-09
-2.77092e-09
7.39785e-09
-2.79055e-09
7.14255e-09
-2.81018e-09
6.8826e-09
-2.8298e-09
6.6165e-09
-2.84906e-09
-2.85689e-09
6.29694e-09
1.5125e-08
-1.77455e-09
1.51644e-08
-1.8348e-09
1.51021e-08
-1.85899e-09
1.50171e-08
-1.87619e-09
1.49243e-08
-1.89203e-09
1.48267e-08
-1.90761e-09
1.47248e-08
-1.92313e-09
1.46188e-08
-1.93864e-09
1.45087e-08
-1.95415e-09
1.43944e-08
-1.96966e-09
1.4276e-08
-1.98517e-09
1.41535e-08
-2.00068e-09
1.40269e-08
-2.01618e-09
1.38962e-08
-2.03169e-09
1.37613e-08
-2.0472e-09
1.36223e-08
-2.06271e-09
1.34792e-08
-2.07822e-09
1.3332e-08
-2.09373e-09
1.31807e-08
-2.10924e-09
1.30252e-08
-2.12475e-09
1.28657e-08
-2.14026e-09
1.2702e-08
-2.15577e-09
1.25341e-08
-2.17128e-09
1.23622e-08
-2.18678e-09
1.21862e-08
-2.20229e-09
1.2006e-08
-2.2178e-09
1.18217e-08
-2.23331e-09
1.16333e-08
-2.24882e-09
1.14408e-08
-2.26433e-09
1.12441e-08
-2.27984e-09
1.10433e-08
-2.29535e-09
1.08384e-08
-2.31086e-09
1.06294e-08
-2.32637e-09
1.04163e-08
-2.34188e-09
1.01991e-08
-2.35739e-09
9.97769e-09
-2.37289e-09
9.7522e-09
-2.3884e-09
9.5226e-09
-2.40391e-09
9.28887e-09
-2.41942e-09
9.05102e-09
-2.43493e-09
8.80905e-09
-2.45044e-09
8.56297e-09
-2.46595e-09
8.31276e-09
-2.48146e-09
8.05844e-09
-2.49697e-09
7.79999e-09
-2.51248e-09
7.53743e-09
-2.52799e-09
7.27074e-09
-2.54349e-09
6.99989e-09
-2.55899e-09
6.72325e-09
-2.57416e-09
-2.57901e-09
6.39297e-09
1.6269e-08
-1.66756e-09
1.62832e-08
-1.72122e-09
1.61896e-08
-1.74105e-09
1.60726e-08
-1.75446e-09
1.59481e-08
-1.76663e-09
1.58193e-08
-1.77857e-09
1.56866e-08
-1.79045e-09
1.55503e-08
-1.80233e-09
1.54104e-08
-1.8142e-09
1.52668e-08
-1.82608e-09
1.51196e-08
-1.83795e-09
1.49687e-08
-1.84983e-09
1.48142e-08
-1.8617e-09
1.46561e-08
-1.87357e-09
1.44944e-08
-1.88545e-09
1.4329e-08
-1.89732e-09
1.41599e-08
-1.9092e-09
1.39873e-08
-1.92107e-09
1.3811e-08
-1.93294e-09
1.36311e-08
-1.94482e-09
1.34475e-08
-1.95669e-09
1.32603e-08
-1.96857e-09
1.30695e-08
-1.98044e-09
1.2875e-08
-1.99232e-09
1.26769e-08
-2.00419e-09
1.24751e-08
-2.01606e-09
1.22698e-08
-2.02794e-09
1.20608e-08
-2.03981e-09
1.18481e-08
-2.05169e-09
1.16318e-08
-2.06356e-09
1.14119e-08
-2.07543e-09
1.11884e-08
-2.08731e-09
1.09612e-08
-2.09918e-09
1.07304e-08
-2.11106e-09
1.04959e-08
-2.12293e-09
1.02578e-08
-2.13481e-09
1.00161e-08
-2.14668e-09
9.77074e-09
-2.15855e-09
9.52175e-09
-2.17043e-09
9.26912e-09
-2.1823e-09
9.01285e-09
-2.19418e-09
8.75296e-09
-2.20605e-09
8.48942e-09
-2.21792e-09
8.22225e-09
-2.2298e-09
7.95145e-09
-2.24167e-09
7.67701e-09
-2.25355e-09
7.39894e-09
-2.26542e-09
7.11717e-09
-2.27729e-09
6.83006e-09
-2.28886e-09
-2.29126e-09
6.48907e-09
1.74181e-08
-1.52834e-09
1.74033e-08
-1.57486e-09
1.72774e-08
-1.59048e-09
1.71282e-08
-1.60052e-09
1.6972e-08
-1.60949e-09
1.68118e-08
-1.61827e-09
1.66484e-08
-1.627e-09
1.64818e-08
-1.63573e-09
1.63121e-08
-1.64445e-09
1.61392e-08
-1.65317e-09
1.59631e-08
-1.6619e-09
1.57839e-08
-1.67062e-09
1.56016e-08
-1.67935e-09
1.54161e-08
-1.68807e-09
1.52274e-08
-1.69679e-09
1.50356e-08
-1.70552e-09
1.48406e-08
-1.71424e-09
1.46425e-08
-1.72297e-09
1.44413e-08
-1.73169e-09
1.42369e-08
-1.74041e-09
1.40293e-08
-1.74914e-09
1.38186e-08
-1.75786e-09
1.36048e-08
-1.76658e-09
1.33878e-08
-1.77531e-09
1.31676e-08
-1.78403e-09
1.29443e-08
-1.79276e-09
1.27178e-08
-1.80148e-09
1.24882e-08
-1.8102e-09
1.22555e-08
-1.81893e-09
1.20196e-08
-1.82765e-09
1.17805e-08
-1.83638e-09
1.15383e-08
-1.8451e-09
1.12929e-08
-1.85382e-09
1.10444e-08
-1.86255e-09
1.07928e-08
-1.87127e-09
1.0538e-08
-1.88e-09
1.028e-08
-1.88872e-09
1.00189e-08
-1.89744e-09
9.75463e-09
-1.90617e-09
9.48722e-09
-1.91489e-09
9.21665e-09
-1.92361e-09
8.94294e-09
-1.93234e-09
8.66608e-09
-1.94106e-09
8.38607e-09
-1.94979e-09
8.10291e-09
-1.95851e-09
7.81659e-09
-1.96723e-09
7.52713e-09
-1.97596e-09
7.23446e-09
-1.98467e-09
6.93694e-09
-1.99314e-09
-1.99364e-09
6.58524e-09
1.8573e-08
-1.35665e-09
1.85247e-08
-1.39559e-09
1.83654e-08
-1.40726e-09
1.81838e-08
-1.41435e-09
1.79958e-08
-1.42061e-09
1.78044e-08
-1.42671e-09
1.76102e-08
-1.43277e-09
1.74133e-08
-1.43883e-09
1.72138e-08
-1.44489e-09
1.70116e-08
-1.45095e-09
1.68067e-08
-1.45701e-09
1.65991e-08
-1.46307e-09
1.63889e-08
-1.46912e-09
1.6176e-08
-1.47518e-09
1.59605e-08
-1.48124e-09
1.57422e-08
-1.4873e-09
1.55214e-08
-1.49336e-09
1.52978e-08
-1.49942e-09
1.50716e-08
-1.50547e-09
1.48427e-08
-1.51153e-09
1.46112e-08
-1.51759e-09
1.43769e-08
-1.52365e-09
1.41401e-08
-1.52971e-09
1.39005e-08
-1.53577e-09
1.36583e-08
-1.54182e-09
1.34134e-08
-1.54788e-09
1.31659e-08
-1.55394e-09
1.29157e-08
-1.56e-09
1.26628e-08
-1.56606e-09
1.24073e-08
-1.57212e-09
1.21491e-08
-1.57817e-09
1.18882e-08
-1.58423e-09
1.16247e-08
-1.59029e-09
1.13585e-08
-1.59635e-09
1.10896e-08
-1.60241e-09
1.08181e-08
-1.60846e-09
1.05439e-08
-1.61452e-09
1.0267e-08
-1.62058e-09
9.98751e-09
-1.62664e-09
9.70531e-09
-1.6327e-09
9.42045e-09
-1.63876e-09
9.13293e-09
-1.64481e-09
8.84274e-09
-1.65087e-09
8.54988e-09
-1.65693e-09
8.25436e-09
-1.66299e-09
7.95617e-09
-1.66905e-09
7.65532e-09
-1.67511e-09
7.35175e-09
-1.68116e-09
7.04389e-09
-1.68702e-09
-1.68614e-09
6.68149e-09
1.97343e-08
-1.15224e-09
1.96475e-08
-1.18328e-09
1.94537e-08
-1.19135e-09
1.92395e-08
-1.19597e-09
1.90197e-08
-1.19998e-09
1.8797e-08
-1.20389e-09
1.8572e-08
-1.20777e-09
1.83449e-08
-1.21165e-09
1.81155e-08
-1.21553e-09
1.78839e-08
-1.2194e-09
1.76502e-08
-1.22328e-09
1.74143e-08
-1.22716e-09
1.71762e-08
-1.23104e-09
1.6936e-08
-1.23491e-09
1.66935e-08
-1.23879e-09
1.64489e-08
-1.24267e-09
1.62021e-08
-1.24654e-09
1.59531e-08
-1.25042e-09
1.57019e-08
-1.2543e-09
1.54485e-08
-1.25818e-09
1.5193e-08
-1.26205e-09
1.49353e-08
-1.26593e-09
1.46754e-08
-1.26981e-09
1.44133e-08
-1.27369e-09
1.4149e-08
-1.27756e-09
1.38826e-08
-1.28144e-09
1.3614e-08
-1.28532e-09
1.33432e-08
-1.2892e-09
1.30702e-08
-1.29307e-09
1.2795e-08
-1.29695e-09
1.25177e-08
-1.30083e-09
1.22381e-08
-1.3047e-09
1.19564e-08
-1.30858e-09
1.16725e-08
-1.31246e-09
1.13865e-08
-1.31634e-09
1.10982e-08
-1.32021e-09
1.08078e-08
-1.32409e-09
1.05152e-08
-1.32797e-09
1.02204e-08
-1.33184e-09
9.92341e-09
-1.33572e-09
9.62425e-09
-1.3396e-09
9.32292e-09
-1.34348e-09
9.0194e-09
-1.34735e-09
8.7137e-09
-1.35123e-09
8.40582e-09
-1.35511e-09
8.09576e-09
-1.35899e-09
7.78351e-09
-1.36286e-09
7.46905e-09
-1.36674e-09
7.1509e-09
-1.37047e-09
-1.36874e-09
6.77782e-09
2.09026e-08
-9.14765e-10
2.07718e-08
-9.37761e-10
2.05423e-08
-9.42702e-10
2.02953e-08
-9.45343e-10
2.00436e-08
-9.47611e-10
1.97896e-08
-9.49808e-10
1.95338e-08
-9.51992e-10
1.92764e-08
-9.54174e-10
1.90172e-08
-9.56355e-10
1.87563e-08
-9.58536e-10
1.84938e-08
-9.60717e-10
1.82295e-08
-9.62898e-10
1.79636e-08
-9.65079e-10
1.76959e-08
-9.6726e-10
1.74265e-08
-9.69441e-10
1.71555e-08
-9.71622e-10
1.68828e-08
-9.73803e-10
1.66083e-08
-9.75984e-10
1.63322e-08
-9.78165e-10
1.60544e-08
-9.80346e-10
1.57748e-08
-9.82527e-10
1.54936e-08
-9.84707e-10
1.52107e-08
-9.86888e-10
1.49261e-08
-9.89069e-10
1.46398e-08
-9.9125e-10
1.43517e-08
-9.93431e-10
1.4062e-08
-9.95612e-10
1.37706e-08
-9.97793e-10
1.34775e-08
-9.99974e-10
1.31827e-08
-1.00216e-09
1.28863e-08
-1.00434e-09
1.25881e-08
-1.00652e-09
1.22882e-08
-1.0087e-09
1.19866e-08
-1.01088e-09
1.16833e-08
-1.01306e-09
1.13784e-08
-1.01524e-09
1.10717e-08
-1.01742e-09
1.07633e-08
-1.0196e-09
1.04533e-08
-1.02178e-09
1.01415e-08
-1.02396e-09
9.82805e-09
-1.02615e-09
9.5129e-09
-1.02833e-09
9.19606e-09
-1.03051e-09
8.87751e-09
-1.03269e-09
8.55727e-09
-1.03487e-09
8.23534e-09
-1.03705e-09
7.91171e-09
-1.03923e-09
7.58634e-09
-1.04141e-09
7.25799e-09
-1.0435e-09
-1.04144e-09
6.87423e-09
2.20788e-08
-6.43863e-10
2.18976e-08
-6.58846e-10
2.16312e-08
-6.61288e-10
2.1351e-08
-6.62479e-10
2.10674e-08
-6.6349e-10
2.07822e-08
-6.64467e-10
2.04957e-08
-6.65437e-10
2.02079e-08
-6.66407e-10
1.99189e-08
-6.67377e-10
1.96287e-08
-6.68346e-10
1.93373e-08
-6.69315e-10
1.90447e-08
-6.70285e-10
1.87509e-08
-6.71254e-10
1.84558e-08
-6.72223e-10
1.81596e-08
-6.73193e-10
1.78621e-08
-6.74162e-10
1.75635e-08
-6.75131e-10
1.72636e-08
-6.76101e-10
1.69625e-08
-6.7707e-10
1.66602e-08
-6.78039e-10
1.63567e-08
-6.79008e-10
1.60519e-08
-6.79978e-10
1.5746e-08
-6.80947e-10
1.54388e-08
-6.81916e-10
1.51305e-08
-6.82886e-10
1.48209e-08
-6.83855e-10
1.45101e-08
-6.84824e-10
1.41981e-08
-6.85794e-10
1.38849e-08
-6.86763e-10
1.35705e-08
-6.87732e-10
1.32548e-08
-6.88701e-10
1.2938e-08
-6.89671e-10
1.26199e-08
-6.9064e-10
1.23007e-08
-6.91609e-10
1.19802e-08
-6.92579e-10
1.16585e-08
-6.93548e-10
1.13356e-08
-6.94517e-10
1.10115e-08