/*--------------------------------*- C++ -*----------------------------------*\
  =========                 |
  \\      /  F ield         | OpenFOAM: The Open Source CFD Toolbox
   \\    /   O peration     | Website:  https://openfoam.org
    \\  /    A nd           | Version:  13
     \\/     M anipulation  |
\*---------------------------------------------------------------------------*/
FoamFile
{
    format      ascii;
    class       volScalarField;
    location    "0.0003";
    object      p;
}
// * * * * * * * * * * * * * * * * * * * * * * * * * * * * * * * * * * * * * //

dimensions      [0 2 -2 0 0 0 0];

internalField   nonuniform List<scalar> 
1690
(
-0.110902
-0.0598406
-0.019423
0.0106581
0.0295706
0.0306061
0.0275302
-0.000204355
-0.109603
-0.0584229
-0.0178427
0.0123909
0.0309211
0.0325299
0.0273295
9.47291e-05
-0.107192
-0.0564276
-0.0162279
0.0136344
0.0315856
0.0325265
0.0259022
-0.00237071
-0.103543
-0.0533851
-0.0137104
0.01564
0.0328805
0.0325837
0.0240935
-0.00639541
-0.0987369
-0.0493909
-0.0103958
0.0183074
0.0346749
0.0326706
0.0215704
-0.0121539
-0.0928733
-0.0445732
-0.00642561
0.0215008
0.0368405
0.0326657
0.0180334
-0.0200736
-0.086074
-0.0390743
-0.00194329
0.0250961
0.0392794
0.0324687
0.0131438
-0.0307036
-0.0784932
-0.0330695
0.00287177
0.0289332
0.0418613
0.031929
0.00638027
-0.0447958
-0.0703213
-0.0267737
0.00779162
0.0327942
0.0443915
0.0307681
-0.00306761
-0.0635144
-0.061785
-0.0204399
0.0125362
0.0363885
0.0465688
0.0283962
-0.016494
-0.0887909
-0.0531428
-0.0143523
0.0167779
0.0393547
0.0479587
0.0237308
-0.0358405
-0.122948
-0.0446731
-0.00880786
0.0201565
0.0412637
0.0479712
0.0158526
-0.0623914
-0.165658
-0.0366535
-0.00408534
0.0222934
0.0414986
0.0456652
0.0055871
-0.0933851
-0.213122
-0.0293347
-0.00041844
0.0228266
0.039277
0.0400857
-0.00480255
-0.121444
-0.279045
-0.0229281
0.00203191
0.0215999
0.0342616
0.0314334
-0.0136102
-0.137958
-0.36841
4.23935
4.21875
4.21037
4.17898
4.14702
4.1093
4.06783
4.02427
3.98042
3.93791
3.89808
3.86195
3.83014
3.80295
3.7804
3.76232
3.74841
3.73836
3.73196
3.72942
4.23301
4.21285
4.20334
4.17236
4.14002
4.10221
4.06075
4.01736
3.97384
3.93181
3.89258
3.85711
3.82598
3.79946
3.77751
3.75995
3.74647
3.73674
3.73056
3.72812
4.22287
4.20227
4.19275
4.16103
4.12839
4.09026
4.0487
4.00551
3.9625
3.92125
3.88303
3.84869
3.81875
3.79338
3.77249
3.75584
3.7431
3.73394
3.72812
3.72583
4.20757
4.18632
4.17687
4.14407
4.11116
4.07269
4.03117
3.98844
3.94634
3.90637
3.8697
3.83706
3.80885
3.78511
3.7657
3.75032
3.7386
3.73021
3.72489
3.72281
4.18719
4.16522
4.15585
4.12187
4.08883
4.05013
4.00891
3.96703
3.9263
3.88813
3.85354
3.82311
3.79707
3.77537
3.75776
3.7439
3.73341
3.72592
3.72119
3.71936
4.16134
4.13869
4.12947
4.09439
4.06146
4.02281
3.98233
3.94182
3.90305
3.86726
3.83529
3.80753
3.78406
3.7647
3.74914
3.73699
3.72784
3.72135
3.71727
3.7157
4.12929
4.10608
4.09721
4.06128
4.02894
3.99082
3.95174
3.9133
3.87716
3.84438
3.81556
3.79091
3.77033
3.75356
3.74022
3.72989
3.72217
3.71672
3.71331
3.71201
4.08999
4.06652
4.05836
4.02212
3.99108
3.95426
3.91744
3.88192
3.8492
3.82008
3.79492
3.77375
3.75634
3.74233
3.7313
3.72285
3.71658
3.71219
3.70944
3.70841
4.04199
4.01882
4.01202
3.97642
3.94774
3.91325
3.87982
3.84821
3.81974
3.79492
3.77389
3.75651
3.74244
3.73129
3.72262
3.71605
3.71123
3.70786
3.70578
3.70501
3.98336
3.96146
3.95711
3.92364
3.89876
3.86802
3.83932
3.81272
3.78934
3.76942
3.75292
3.73955
3.72895
3.72068
3.71436
3.70963
3.7062
3.70383
3.70237
3.70185
3.9114
3.8925
3.8924
3.86327
3.84415
3.81893
3.79649
3.77603
3.75856
3.74408
3.7324
3.7232
3.71608
3.71067
3.70663
3.70366
3.70155
3.70012
3.69925
3.69896
3.8224
3.80953
3.81649
3.79493
3.78405
3.7665
3.75197
3.73877
3.72796
3.71932
3.71267
3.70767
3.70401
3.70137
3.6995
3.69821
3.69733
3.69677
3.69644
3.69636
3.71098
3.70965
3.72797
3.7184
3.71883
3.7114
3.70645
3.70156
3.69802
3.69553
3.69399
3.69316
3.69284
3.69284
3.69302
3.69328
3.69354
3.69377
3.69394
3.69404
3.56915
3.58963
3.62543
3.63382
3.64914
3.65447
3.6607
3.66499
3.66918
3.67299
3.67654
3.67978
3.68265
3.68512
3.68719
3.68887
3.69017
3.69111
3.69173
3.692
3.38451
3.44632
3.50765
3.54173
3.57593
3.59665
3.61549
3.62961
3.64183
3.65195
3.66047
3.66758
3.67344
3.67821
3.68201
3.68497
3.6872
3.68878
3.6898
3.69021
3.13735
3.27745
3.37375
3.44325
3.50038
3.53896
3.57138
3.59605
3.61626
3.63256
3.64584
3.65658
3.66522
3.67207
3.67744
3.68155
3.6846
3.68675
3.68812
3.68866
2.79675
3.08161
3.22324
3.34009
3.4234
3.48288
3.52926
3.56454
3.59265
3.6149
3.63266
3.64677
3.65793
3.66668
3.67344
3.67857
3.68235
3.685
3.68667
3.68732
2.31534
2.85785
3.05721
3.23456
3.34737
3.42884
3.48963
3.53541
3.57114
3.599
3.62091
3.6381
3.65154
3.66197
3.66997
3.676
3.68042
3.6835
3.68544
3.68618
1.62022
2.59775
2.88208
3.12921
3.27399
3.37783
3.45291
3.50884
3.55176
3.58482
3.61053
3.6305
3.64598
3.6579
3.66698
3.67379
3.67876
3.68221
3.68438
3.6852
0.63182
2.29936
2.70607
3.02691
3.20489
3.33062
3.41941
3.4849
3.53449
3.57232
3.60145
3.6239
3.64117
3.6544
3.66442
3.67191
3.67735
3.68112
3.68349
3.68438
-0.0138213
0.00442956
0.0176651
0.0239695
0.0166433
-0.0248203
-0.118371
-0.209246
-0.00599354
0.0046445
0.0112514
0.0120806
0.00279139
-0.027247
-0.0807728
-0.112112
-0.0017055
0.00339657
0.00542171
0.00310594
-0.00616625
-0.0263694
-0.0561934
-0.0810011
0.000284882
0.00146872
0.000460767
-0.00368865
-0.0122494
-0.0259495
-0.0449473
-0.0598598
0.00145973
-0.00065661
-0.00379327
-0.00906476
-0.0172653
-0.0286194
-0.0418527
-0.0538703
0.000731411
-0.00310154
-0.00742536
-0.0132385
-0.0209271
-0.030421
-0.0407612
-0.050771
-0.00133698
-0.00549822
-0.0105659
-0.0167503
-0.0242044
-0.0327648
-0.0418254
-0.0508532
-0.00231997
-0.00737856
-0.0131208
-0.01966
-0.0270678
-0.0352028
-0.0437005
-0.0522898
-0.00296799
-0.00884646
-0.0152033
-0.022117
-0.0296346
-0.0376601
-0.0459841
-0.0544421
-0.0034383
-0.0100144
-0.0169198
-0.0242143
-0.0319374
-0.0400361
-0.0484068
-0.0569244
-0.00379892
-0.0109612
-0.0183511
-0.0260172
-0.0339961
-0.0422676
-0.0508034
-0.059494
-0.00408494
-0.0117391
-0.0195532
-0.0275681
-0.0358219
-0.0443142
-0.0530708
-0.0620033
-0.004316
-0.0123839
-0.0205638
-0.0288938
-0.0374241
-0.0461736
-0.0551838
-0.0643898
-0.0045064
-0.0129403
-0.0214411
-0.0300405
-0.0388084
-0.0478214
-0.0570238
-0.0662275
-0.00463875
-0.0133932
-0.0221682
-0.0309786
-0.0399684
-0.0494681
-0.0591578
-0.0679242
-0.203169
-0.167264
-0.14763
-0.135748
-0.128683
-0.12505
-0.124017
-0.125017
-0.12767
-0.131727
-0.137
-0.143359
-0.150724
-0.159048
-0.168306
-0.178497
-0.189634
-0.201749
-0.214888
-0.229114
-0.244491
-0.261098
-0.279036
-0.298419
-0.319374
-0.342051
-0.366609
-0.393223
-0.422085
-0.4534
-0.487393
-0.52432
-0.564438
-0.607868
-0.654322
-0.702908
-0.752635
-0.804793
-0.868603
-0.967664
-1.14748
-1.48162
-2.06295
-2.93355
-4.01965
-5.08335
-5.85122
-6.256
-6.41458
-9.03359
-0.120765
-0.112742
-0.108737
-0.105928
-0.105126
-0.10593
-0.108136
-0.111583
-0.116143
-0.121706
-0.128209
-0.135619
-0.143907
-0.153066
-0.163099
-0.174023
-0.185869
-0.198679
-0.212514
-0.227426
-0.243477
-0.260758
-0.27938
-0.299464
-0.321145
-0.344572
-0.369906
-0.397328
-0.427037
-0.459252
-0.494214
-0.532184
-0.573369
-0.617739
-0.664775
-0.713559
-0.763797
-0.818623
-0.890387
-1.00699
-1.21892
-1.60557
-2.27057
-3.2404
-4.39187
-5.42905
-6.06739
-6.2757
-6.47773
-7.71483
-0.0922003
-0.0954504
-0.0976077
-0.0994472
-0.101736
-0.104661
-0.108339
-0.112804
-0.118065
-0.124114
-0.130945
-0.13856
-0.146961
-0.156163
-0.166187
-0.177063
-0.188833
-0.201543
-0.215246
-0.230015
-0.245953
-0.263161
-0.281748
-0.30184
-0.323582
-0.347116
-0.372607
-0.400251
-0.430263
-0.462871
-0.498319
-0.536858
-0.578682
-0.623795
-0.671884
-0.722492
-0.776103
-0.837179
-0.920076
-1.05725
-1.30783
-1.75081
-2.50325
-3.56723
-4.77191
-5.76269
-6.26264
-6.32986
-6.43822
-6.41563
-0.0702954
-0.0758077
-0.0804445
-0.0848436
-0.0894066
-0.0942846
-0.0995955
-0.105415
-0.111799
-0.118786
-0.126412
-0.134707
-0.143702
-0.15343
-0.163929
-0.175243
-0.187422
-0.200523
-0.214616
-0.229781
-0.246109
-0.263698
-0.282658
-0.303111
-0.325194
-0.349079
-0.374955
-0.40302
-0.433495
-0.466618
-0.502656
-0.541898
-0.584605
-0.630928
-0.680875
-0.734557
-0.793415
-0.863501
-0.961238
-1.12117
-1.4053
-1.9037
-2.71419
-3.83507
-5.06167
-5.99633
-6.37809
-6.31597
-6.19058
-5.23495
-0.0642158
-0.0712755
-0.0772953
-0.0829486
-0.0886099
-0.0944439
-0.100573
-0.107084
-0.114044
-0.121509
-0.129526
-0.138139
-0.147391
-0.157327
-0.167994
-0.179445
-0.191738
-0.204936
-0.219114
-0.234354
-0.250752
-0.26841
-0.287446
-0.307991
-0.330194
-0.354226
-0.380275
-0.408549
-0.439284
-0.472751
-0.509259
-0.549138
-0.592727
-0.640326
-0.692219
-0.749028
-0.813088
-0.891789
-1.00297
-1.18176
-1.48833
-2.00935
-2.82862
-3.93129
-5.09912
-5.93417
-6.19882
-6.01747
-5.56606
-4.04444
-0.0604411
-0.0678265
-0.0744024
-0.0807348
-0.0871021
-0.0936215
-0.100388
-0.107476
-0.114952
-0.122874
-0.131295
-0.140265
-0.149836
-0.160058
-0.170984
-0.182674
-0.195191
-0.208603
-0.22299
-0.238437
-0.255043
-0.272914
-0.292173
-0.312955
-0.335414
-0.359726
-0.386085
-0.414714
-0.445861
-0.479814
-0.516899
-0.557489
-0.601972
-0.650735
-0.704271
-0.763653
-0.83203
-0.917696
-1.03852
-1.22721
-1.53692
-2.04066
-2.80296
-3.79752
-4.81025
-5.4906
-5.63248
-5.34239
-4.63741
-2.93883
-0.0600044
-0.0675138
-0.0743573
-0.0810576
-0.0878406
-0.0947939
-0.101989
-0.109488
-0.117349
-0.125626
-0.134372
-0.14364
-0.153483
-0.163955
-0.175114
-0.187022
-0.199746
-0.21336
-0.227945
-0.243592
-0.2604
-0.278483
-0.297965
-0.318988
-0.341711
-0.366313
-0.392998
-0.421994
-0.453565
-0.48801
-0.525675
-0.566943
-0.612232
-0.66201
-0.716972
-0.778628
-0.850752
-0.941926
-1.0687
-1.25899
-1.55517
-2.01164
-2.66994
-3.49231
-4.28759
-4.7768
-4.81753
-4.47263
-3.6729
-2.07958
-0.0611245
-0.0687022
-0.0756961
-0.0826233
-0.0896769
-0.0969262
-0.104428
-0.112233
-0.120392
-0.128955
-0.137974
-0.147499
-0.157586
-0.16829
-0.179672
-0.191795
-0.20473
-0.218553
-0.233349
-0.249212
-0.266245
-0.284564
-0.304299
-0.325597
-0.348621
-0.373557
-0.400615
-0.430034
-0.462087
-0.497085
-0.535387
-0.577395
-0.623563
-0.674464
-0.731027
-0.795165
-0.87106
-0.967046
-1.09753
-1.28461
-1.55899
-1.95641
-2.49703
-3.13603
-3.71646
-4.03492
-4.00625
-3.64899
-2.86422
-1.49253
-0.0631071
-0.0707424
-0.0778368
-0.0849245
-0.0921752
-0.0996468
-0.107385
-0.115434
-0.123839
-0.132645
-0.141902
-0.15166
-0.161973
-0.172898
-0.184497
-0.196835
-0.209986
-0.224027
-0.239048
-0.255143
-0.27242
-0.291001
-0.311018
-0.332625
-0.355989
-0.381306
-0.408793
-0.438702
-0.471318
-0.50697
-0.546037
-0.588957
-0.636255
-0.688646
-0.747302
-0.814468
-0.894503
-0.995117
-1.12819
-1.31003
-1.56095
-1.90137
-2.33547
-2.81671
-3.22304
-3.40925
-3.34096
-2.98616
-2.25542
-1.10783
-0.0655446
-0.0732567
-0.0804406
-0.0876625
-0.0950743
-0.102727
-0.110661
-0.118915
-0.127529
-0.136547
-0.146016
-0.155986
-0.16651
-0.177646
-0.189456
-0.202009
-0.215377
-0.229642
-0.244895
-0.261236
-0.278775
-0.297638
-0.317965
-0.339912
-0.363658
-0.389404
-0.417384
-0.447863
-0.481147
-0.517594
-0.557624
-0.601732
-0.650554
-0.704989
-0.766422
-0.83731
-0.921944
-1.02711
-1.16201
-1.33771
-1.56611
-1.85661
-2.20352
-2.56277
-2.8427
-2.94595
-2.84347
-2.48997
-1.81596
-0.850203
-0.068163
-0.075971
-0.0832461
-0.0905943
-0.0981521
-0.105966
-0.114072
-0.122506
-0.131307
-0.140516
-0.150179
-0.160346
-0.17107
-0.182409
-0.194425
-0.207189
-0.220776
-0.235269
-0.250763
-0.26736
-0.285175
-0.304338
-0.324996
-0.347314
-0.371478
-0.397703
-0.426238
-0.457372
-0.491441
-0.528845
-0.570064
-0.615686
-0.666489
-0.7236
-0.788571
-0.863939
-0.953669
-1.0634
-1.19967
-1.36889
-1.57638
-1.82389
-2.1008
-2.36878
-2.56048
-2.614
-2.47806
-2.12471
-1.5013
-0.670663
-0.0707839
-0.0786969
-0.0860658
-0.0935397
-0.101237
-0.109201
-0.117464
-0.126062
-0.135032
-0.144416
-0.154258
-0.164607
-0.175518
-0.187049
-0.199263
-0.212232
-0.226033
-0.240753
-0.256486
-0.273342
-0.291438
-0.310911
-0.331918
-0.354631
-0.379243
-0.405987
-0.435132
-0.466995
-0.501953
-0.540457
-0.58307
-0.630496
-0.683651
-0.744003
-0.813094
-0.893499
-0.988844
-1.10358
-1.2415
-1.40498
-1.59401
-1.80482
-2.02494
-2.22367
-2.35172
-2.36006
-2.20608
-1.85572
-1.27649
-0.542657
-0.0733253
-0.0813746
-0.0888581
-0.0964705
-0.104312
-0.112425
-0.120842
-0.129598
-0.138731
-0.148283
-0.158298
-0.168826
-0.179921
-0.191642
-0.204054
-0.21723
-0.231249
-0.2462
-0.262181
-0.279304
-0.297695
-0.317488
-0.338841
-0.361957
-0.387016
-0.414277
-0.444035
-0.476636
-0.512493
-0.552111
-0.596125
-0.645329
-0.700671
-0.764469
-0.837672
-0.923091
-1.02394
-1.14401
-1.28443
-1.44418
-1.61897
-1.80115
-1.97749
-2.12424
-2.20555
-2.18084
-2.01168
-1.66492
-1.12183
-0.454799
-0.0753823
-0.0837192
-0.09132
-0.0990629
-0.107034
-0.115278
-0.12383
-0.132724
-0.142
-0.151698
-0.161863
-0.172546
-0.183802
-0.19569
-0.208277
-0.221635
-0.235845
-0.250998
-0.267193
-0.284544
-0.303183
-0.323241
-0.344919
-0.36851
-0.394004
-0.42175
-0.452066
-0.485323
-0.52197
-0.562564
-0.607809
-0.658643
-0.716383
-0.781755
-0.857874
-0.947197
-1.05269
-1.17607
-1.31838
-1.47699
-1.64518
-1.81227
-1.96361
-2.07846
-2.12834
-2.07943
-1.89649
-1.54976
-1.03037
-0.40318
-0.0777749
-0.0867994
-0.0943559
-0.102251
-0.110357
-0.118748
-0.127447
-0.13649
-0.145914
-0.15576
-0.166073
-0.176903
-0.188304
-0.200337
-0.213067
-0.226569
-0.240924
-0.256222
-0.272565
-0.290067
-0.30885
-0.329073
-0.35085
-0.374276
-0.399857
-0.427752
-0.45825
-0.491721
-0.528621
-0.569522
-0.615145
-0.666422
-0.724574
-0.791032
-0.868312
-0.959094
-1.06617
-1.19158
-1.33593
-1.49624
-1.66488
-1.83027
-1.9762
-2.08044
-2.1154
-2.05054
-1.8552
-1.5028
-0.989747
-0.374082
-0.485164
1.95179
2.55706
2.94108
3.14841
3.29228
3.39251
3.46585
3.52087
3.56253
3.5944
3.61881
3.63749
3.65172
3.66247
3.67048
3.67629
3.6803
3.68282
3.68376
-0.773577
1.67191
2.44264
2.8695
3.10237
3.26089
3.37065
3.45046
3.50993
3.55472
3.5888
3.61478
3.63458
3.64962
3.66095
3.66936
3.67546
3.67966
3.6823
3.68327
-0.528305
1.48645
2.34611
2.80075
3.05822
3.23061
3.3497
3.43579
3.49958
3.54737
3.58356
3.61102
3.63189
3.64768
3.65954
3.66834
3.67469
3.67907
3.68182
3.68283
-0.230005
1.37566
2.26773
2.73734
3.01664
3.20183
3.32987
3.42197
3.48988
3.54053
3.5787
3.60757
3.62942
3.6459
3.65826
3.6674
3.674
3.67854
3.68139
3.68243
-0.0310241
1.30524
2.20282
2.68038
2.97811
3.17488
3.31135
3.4091
3.48091
3.53423
3.57426
3.60442
3.62717
3.6443
3.65711
3.66657
3.67338
3.67806
3.68101
3.68207
0.101313
1.26243
2.14721
2.62997
2.9429
3.15002
3.29427
3.39729
3.47271
3.52851
3.57025
3.60159
3.62517
3.64287
3.65608
3.66582
3.67283
3.67764
3.68067
3.68176
0.191043
1.24092
2.09932
2.58594
2.91113
3.12744
3.27876
3.3866
3.46535
3.52341
3.56669
3.59909
3.62341
3.64162
3.65519
3.66518
3.67236
3.67728
3.68037
3.68149
0.245616
1.2327
2.05864
2.54805
2.88293
3.10732
3.26495
3.37714
3.45887
3.51894
3.5636
3.59694
3.6219
3.64056
3.65443
3.66463
3.67196
3.67698
3.68013
3.68126
0.278565
1.23105
2.0246
2.51596
2.8584
3.08978
3.25294
3.36895
3.45331
3.51515
3.56099
3.59514
3.62064
3.63968
3.65381
3.66419
3.67164
3.67673
3.67993
3.68107
0.303574
1.23257
1.9965
2.48934
2.8376
3.07493
3.24281
3.36212
3.44871
3.51205
3.55889
3.59369
3.61965
3.63899
3.65333
3.66384
3.67138
3.67654
3.67977
3.68093
0.326678
1.23568
1.97384
2.46793
2.82064
3.0629
3.23467
3.35671
3.44513
3.50967
3.5573
3.59262
3.61892
3.63848
3.65298
3.6636
3.67121
3.67641
3.67967
3.68084
0.347887
1.23933
1.9565
2.45167
2.80773
3.05388
3.22868
3.35281
3.44261
3.50804
3.55624
3.59193
3.61846
3.63817
3.65277
3.66346
3.67111
3.67634
3.67961
3.68078
0.365628
1.24343
1.94519
2.44117
2.79946
3.04829
3.22512
3.35062
3.44128
3.50724
3.55575
3.59164
3.61828
3.63807
3.65271
3.66342
3.67108
3.67632
3.6796
3.68078
0.381713
1.25002
1.94199
2.43785
2.79688
3.0468
3.2244
3.35036
3.44126
3.50734
3.55589
3.59178
3.61841
3.63818
3.65279
3.66349
3.67114
3.67637
3.67964
3.68083
0.401726
1.25841
1.94589
2.44057
2.79904
3.04861
3.2259
3.35157
3.44222
3.50808
3.55646
3.59221
3.61874
3.63843
3.65298
3.66363
3.67125
3.67645
3.67971
3.68092
)
;

boundaryField
{
    internal
    {
        type            internal;
    }
    movingWall
    {
        type            zeroGradient;
    }
    farFieldMoving
    {
        type            zeroGradient;
    }
    fixedWall
    {
        type            zeroGradient;
    }
    axis
    {
        type            empty;
    }
    left
    {
        type            totalPressure;
        rho             rho;
        psi             none;
        gamma           1;
        p0              uniform 0;
        value           nonuniform List<scalar> 
30
(
-0.142388
-0.140996
-0.138341
-0.134345
-0.129058
-0.122556
-0.114943
-0.106354
-0.0969586
-0.0869705
-0.0766438
-0.0662674
-0.0561459
-0.0465688
-0.0377727
-0.0250837
-0.013028
-0.00571128
-0.00182686
-0.000242016
0
0
0
0
0
0
0
0
0
0
)
;
    }
    farField
    {
        type            zeroGradient;
    }
    back
    {
        type            wedge;
    }
    front
    {
        type            wedge;
    }
}


// ************************************************************************* //
