/*--------------------------------*- C++ -*----------------------------------*\
  =========                 |
  \\      /  F ield         | OpenFOAM: The Open Source CFD Toolbox
   \\    /   O peration     | Website:  https://openfoam.org
    \\  /    A nd           | Version:  13
     \\/     M anipulation  |
\*---------------------------------------------------------------------------*/
FoamFile
{
    format      ascii;
    class       surfaceScalarField;
    location    "0.0003";
    object      phi;
}
// * * * * * * * * * * * * * * * * * * * * * * * * * * * * * * * * * * * * * //

dimensions      [0 3 -1 0 0 0 0];

internalField   nonuniform List<scalar> 
3252
(
4.58847e-11
-1.06447e-12
3.57364e-11
-3.20773e-12
2.77237e-11
-5.34272e-12
2.1711e-11
-7.34053e-12
1.71474e-11
-8.77745e-12
1.40579e-11
-1.0193e-11
9.7647e-12
-8.99301e-12
-5.953e-12
1.36808e-10
-4.26963e-12
1.06405e-10
-1.28721e-11
8.24273e-11
-2.14316e-11
6.44546e-11
-2.94274e-11
5.14386e-11
-3.5785e-11
4.15511e-11
-4.01539e-11
3.07155e-11
-3.80123e-11
-2.23935e-11
2.25301e-10
-9.63872e-12
1.74731e-10
-2.90814e-11
1.34997e-10
-4.84749e-11
1.05498e-10
-6.66953e-11
8.46581e-11
-8.16511e-11
6.88759e-11
-9.07887e-11
5.18765e-11
-8.74245e-11
-4.91199e-11
3.09619e-10
-1.71943e-11
2.3898e-10
-5.19345e-11
1.83795e-10
-8.67786e-11
1.43458e-10
-1.1983e-10
1.15931e-10
-1.47514e-10
9.58988e-11
-1.63747e-10
7.36001e-11
-1.58073e-10
-8.55847e-11
3.88e-10
-2.69387e-11
2.97373e-10
-8.15117e-11
2.2709e-10
-1.36695e-10
1.7684e-10
-1.8976e-10
1.44352e-10
-2.35102e-10
1.22533e-10
-2.61497e-10
9.65025e-11
-2.51497e-10
-1.3063e-10
4.58671e-10
-3.8845e-11
3.48069e-10
-1.17826e-10
2.63011e-10
-1.98548e-10
2.03959e-10
-2.77594e-10
1.6889e-10
-3.46796e-10
1.48907e-10
-3.87671e-10
1.2152e-10
-3.70035e-10
-1.82168e-10
5.19837e-10
-5.2831e-11
3.8912e-10
-1.60736e-10
2.89448e-10
-2.72499e-10
2.22776e-10
-3.84516e-10
1.88253e-10
-4.85725e-10
1.75516e-10
-5.4769e-10
1.50216e-10
-5.17083e-10
-2.36553e-10
5.697e-10
-6.87222e-11
4.18455e-10
-2.09831e-10
3.03955e-10
-3.58331e-10
2.30697e-10
-5.1156e-10
2.00735e-10
-6.55904e-10
2.03574e-10
-7.49898e-10
1.85252e-10
-6.97477e-10
-2.87484e-10
6.06512e-10
-8.62083e-11
4.33894e-10
-2.64266e-10
3.0365e-10
-4.55131e-10
2.24237e-10
-6.59157e-10
2.03747e-10
-8.6225e-10
2.34568e-10
-1.00671e-09
2.30213e-10
-9.18144e-10
-3.25083e-10
6.28658e-10
-1.04797e-10
4.33198e-10
-3.22569e-10
2.85087e-10
-5.60776e-10
1.98317e-10
-8.26106e-10
1.91954e-10
-1.10942e-09
2.65095e-10
-1.3325e-09
2.84817e-10
-1.18912e-09
-3.39757e-10
6.34794e-10
-1.2377e-10
4.14168e-10
-3.82419e-10
2.44049e-10
-6.71124e-10
1.44925e-10
-1.00741e-09
1.52162e-10
-1.39688e-09
2.72121e-10
-1.73176e-09
3.29347e-10
-1.52375e-09
-3.41639e-10
6.24004e-10
-1.42161e-10
3.74834e-10
-4.40437e-10
1.75544e-10
-7.79013e-10
5.20483e-11
-1.19105e-09
5.63359e-11
-1.7081e-09
1.97101e-10
-2.17852e-09
3.04085e-10
-1.93419e-09
-4.00587e-10
5.95992e-10
-1.58775e-10
3.13963e-10
-4.92308e-10
7.54092e-11
-8.7435e-10
-9.25611e-11
-1.35693e-09
-1.34701e-10
-1.9996e-09
-3.99732e-11
-2.60597e-09
1.14922e-10
-2.4185e-09
-6.8057e-10
5.51285e-10
-1.72373e-10
2.32194e-10
-5.33831e-10
-5.5158e-11
-9.476e-10
-2.9009e-10
-1.48255e-09
-4.40002e-10
-2.21002e-09
-4.86069e-10
-2.91934e-09
-3.25769e-10
-2.93404e-09
-1.43324e-09
4.91367e-10
-1.82103e-10
1.33312e-10
-5.631e-10
-2.06169e-10
-9.95433e-10
-5.21063e-10
-1.55493e-09
-8.17147e-10
-2.301e-09
-1.08573e-09
-3.03696e-09
-1.04591e-09
-3.35705e-09
-2.93586e-09
-3.53668e-11
8.87592e-11
-1.05944e-10
1.23672e-10
-1.81321e-10
1.29926e-10
-2.5247e-10
1.27625e-10
-3.18251e-10
1.24339e-10
-3.7613e-10
1.18609e-10
-4.24177e-10
1.11031e-10
-4.60859e-10
1.02005e-10
-4.85115e-10
9.20044e-11
-4.96359e-10
8.15083e-11
-4.94458e-10
7.09716e-11
-4.79671e-10
6.07921e-11
-4.52576e-10
5.1292e-11
-4.1399e-10
4.27118e-11
-3.64887e-10
3.52152e-11
-3.0634e-10
2.89022e-11
-2.3948e-10
2.38387e-11
-1.65548e-10
2.01353e-11
-8.59404e-11
1.79517e-11
1.48949e-11
-9.8002e-11
3.32174e-10
-3.01627e-10
4.71879e-10
-5.07762e-10
4.84616e-10
-7.07521e-10
4.81192e-10
-8.90031e-10
4.66327e-10
-1.04971e-09
4.4368e-10
-1.18129e-09
4.14152e-10
-1.28077e-09
3.79391e-10
-1.34546e-09
3.41199e-10
-1.374e-09
3.01409e-10
-1.36628e-09
2.61722e-10
-1.32325e-09
2.236e-10
-1.24668e-09
1.88202e-10
-1.13893e-09
1.56374e-10
-1.00274e-09
1.2867e-10
-8.41089e-10
1.05415e-10
-6.57045e-10
8.68092e-11
-4.53948e-10
7.32287e-11
-2.35554e-10
6.52594e-11
5.40258e-11
-1.62153e-10
7.12305e-10
-4.83636e-10
1.01001e-09
-8.08917e-10
1.03254e-09
-1.12081e-09
1.02361e-09
-1.4034e-09
9.87952e-10
-1.64793e-09
9.36115e-10
-1.84658e-09
8.69908e-10
-1.99377e-09
7.93231e-10
-2.08613e-09
7.10105e-10
-2.12239e-09
6.24494e-10
-2.10316e-09
5.39967e-10
-2.03054e-09
4.59494e-10
-1.90771e-09
3.85353e-10
-1.73861e-09
3.19136e-10
-1.52758e-09
2.61831e-10
-1.27914e-09
2.13956e-10
-9.97891e-10
1.75799e-10
-6.88695e-10
1.48025e-10
-3.56932e-10
1.31746e-10
1.08929e-10
-2.31477e-10
1.21804e-09
-6.67621e-10
1.71854e-09
-1.10566e-09
1.75059e-09
-1.52058e-09
1.72849e-09
-1.89154e-09
1.65956e-09
-2.20735e-09
1.56375e-09
-2.45851e-09
1.44445e-09
-2.63898e-09
1.30911e-09
-2.74589e-09
1.16487e-09
-2.77913e-09
1.01851e-09
-2.74086e-09
8.75864e-10
-2.63489e-09
7.41594e-10
-2.46616e-09
6.19103e-10
-2.24022e-09
5.10626e-10
-1.96287e-09
4.1742e-10
-1.63991e-09
3.40012e-10
-1.27702e-09
2.78608e-10
-8.80063e-10
2.3407e-10
-4.55388e-10
2.08005e-10
1.71713e-10
-3.10314e-10
1.84527e-09
-8.63195e-10
2.5859e-09
-1.41193e-09
2.62272e-09
-1.92399e-09
2.57548e-09
-2.37362e-09
2.45649e-09
-2.74823e-09
2.29854e-09
-3.03774e-09
2.10752e-09
-3.2371e-09
1.89589e-09
-3.34524e-09
1.67482e-09
-3.36436e-09
1.45436e-09
-3.29899e-09
1.24271e-09
-3.15522e-09
1.04609e-09
-2.93993e-09
8.68731e-10
-2.6603e-09
7.13182e-10
-2.3234e-09
5.80616e-10
-1.93597e-09
4.71257e-10
-1.50438e-09
3.84969e-10
-1.03501e-09
3.22628e-10
-5.34563e-10
2.86205e-10
2.3587e-10
-4.02134e-10
2.59566e-09
-1.07752e-09
3.60649e-09
-1.73727e-09
3.63762e-09
-2.34166e-09
3.54772e-09
-2.86037e-09
3.35665e-09
-3.2809e-09
3.11467e-09
-3.59411e-09
2.83102e-09
-3.79763e-09
2.52494e-09
-3.89366e-09
2.21219e-09
-3.8878e-09
1.90621e-09
-3.78767e-09
1.6173e-09
-3.60195e-09
1.35272e-09
-3.33957e-09
1.11698e-09
-3.00917e-09
9.12389e-10
-2.61882e-09
7.39543e-10
-2.17586e-09
5.97975e-10
-1.68695e-09
4.86907e-10
-1.15852e-09
4.06998e-10
-5.97148e-10
3.60393e-10
2.9649e-10
-5.1039e-10
3.47624e-09
-1.31668e-09
4.77927e-09
-2.08888e-09
4.78705e-09
-2.78021e-09
4.62983e-09
-3.35712e-09
4.33879e-09
-3.80929e-09
3.98712e-09
-4.13053e-09
3.58815e-09
-4.32314e-09
3.16961e-09
-4.39403e-09
2.75194e-09
-4.3531e-09
2.35155e-09
-4.21155e-09
1.98008e-09
-3.98076e-09
1.64498e-09
-3.67152e-09
1.35024e-09
-3.29368e-09
1.09719e-09
-2.85593e-09
8.85332e-10
-2.36582e-09
7.13086e-10
-1.82993e-09
5.78731e-10
-1.25439e-09
4.82482e-10
-6.4524e-10
4.26448e-10
3.50216e-10
-6.39054e-10
4.49964e-09
-1.58657e-09
6.10678e-09
-2.4725e-09
6.06432e-09
-3.2434e-09
5.8062e-09
-3.86525e-09
5.38113e-09
-4.33281e-09
4.89076e-09
-4.64532e-09
4.35294e-09
-4.81185e-09
3.80522e-09
-4.84532e-09
3.2719e-09
-4.76057e-09
2.77135e-09
-4.57247e-09
2.31527e-09
-4.2949e-09
1.91014e-09
-3.94018e-09
1.55842e-09
-3.51892e-09
1.25974e-09
-3.04002e-09
1.01192e-09
-2.51086e-09
8.1192e-10
-1.93762e-09
6.56813e-10
-1.32579e-09
5.46164e-10
-6.80589e-10
4.81863e-10
3.95047e-10
-7.9297e-10
5.68474e-09
-1.89335e-09
7.5943e-09
-2.89279e-09
7.46269e-09
-3.73257e-09
7.05937e-09
-4.383e-09
6.46026e-09
-4.84751e-09
5.79989e-09
-5.13369e-09
5.10025e-09
-5.25945e-09
4.40923e-09
-5.24457e-09
3.75304e-09
-5.10904e-09
3.15025e-09
-4.87113e-09
2.6109e-09
-4.54674e-09
2.13912e-09
-4.14918e-09
1.73477e-09
-3.6893e-09
1.39509e-09
-3.17576e-09
1.11574e-09
-2.61544e-09
8.91881e-10
-2.0138e-09
7.19247e-10
-1.37549e-09
5.96599e-10
-7.04742e-10
5.25448e-10
4.30075e-10
-9.78255e-10
7.05771e-09
-2.24366e-09
9.24879e-09
-3.3534e-09
8.97361e-09
-4.24682e-09
8.36859e-09
-4.90592e-09
7.55058e-09
-5.34697e-09
6.68816e-09
-5.58901e-09
5.80612e-09
-5.66044e-09
4.96172e-09
-5.58824e-09
4.17976e-09
-5.39717e-09
3.47664e-09
-5.10826e-09
2.85867e-09
-4.73872e-09
2.32618e-09
-4.30215e-09
1.87549e-09
-3.80911e-09
1.50077e-09
-3.26762e-09
1.19522e-09
-2.68373e-09
9.52034e-10
-2.062e-09
7.6549e-10
-1.40608e-09
6.33473e-10
-7.19114e-10
5.57011e-10
4.55209e-10
-1.20285e-09
8.65365e-09
-2.64474e-09
1.10775e-08
-3.85675e-09
1.05848e-08
-4.78293e-09
9.70854e-09
-5.42724e-09
8.62401e-09
-5.82299e-09
7.52896e-09
-6.00374e-09
6.44845e-09
-6.00925e-09
5.44595e-09
-5.87319e-09
4.5402e-09
-5.62427e-09
3.74266e-09
-5.28526e-09
3.05372e-09
-4.87378e-09
2.4686e-09
-4.40305e-09
1.97924e-09
-3.8828e-09
1.57635e-09
-3.32007e-09
1.25044e-09
-2.71983e-09
9.92711e-10
-2.08561e-09
7.95997e-10
-1.42e-09
6.5729e-10
-7.25026e-10
5.77069e-10
4.70933e-10
-1.47737e-09
1.05191e-08
-3.10422e-09
1.30857e-08
-4.40363e-09
1.22779e-08
-5.33525e-09
1.10483e-08
-5.93814e-09
9.65023e-09
-6.26633e-09
8.29619e-09
-6.37034e-09
7.00782e-09
-6.30098e-09
5.84886e-09
-6.09735e-09
4.82637e-09
-5.79074e-09
3.94405e-09
-5.40446e-09
3.19429e-09
-4.95559e-09
2.56617e-09
-4.45629e-09
2.04668e-09
-3.91505e-09
1.62289e-09
-3.33761e-09
1.28263e-09
-2.72776e-09
1.01513e-09
-2.0879e-09
8.11909e-10
-1.41958e-09
6.69095e-10
-7.2371e-10
5.86603e-10
4.78096e-10
-1.81643e-09
1.27159e-08
-3.62968e-09
1.52721e-08
-4.99264e-09
1.40264e-08
-5.8956e-09
1.23511e-08
-6.42821e-09
1.05975e-08
-6.66739e-09
8.9654e-09
-6.68198e-09
7.46841e-09
-6.53207e-09
6.16151e-09
-6.2601e-09
5.03415e-09
-5.89832e-09
4.07983e-09
-5.46923e-09
3.28125e-09
-4.98851e-09
2.62066e-09
-4.4667e-09
2.07997e-09
-3.91068e-09
1.64259e-09
-3.32474e-09
1.2938e-09
-2.71141e-09
1.02109e-09
-2.07199e-09
8.14787e-10
-1.40698e-09
6.70255e-10
-7.1631e-10
5.86854e-10
4.77747e-10
-2.241e-09
1.53276e-08
-4.22772e-09
1.76219e-08
-5.61953e-09
1.57936e-08
-6.45333e-09
1.35741e-08
-6.88597e-09
1.14338e-08
-7.01708e-09
9.51519e-09
-6.93321e-09
7.81878e-09
-6.70063e-09
6.37929e-09
-6.36242e-09
5.16303e-09
-5.94994e-09
4.15179e-09
-5.48393e-09
3.31767e-09
-4.9776e-09
2.63542e-09
-4.43948e-09
2.08229e-09
-3.87465e-09
1.63829e-09
-3.28592e-09
1.28643e-09
-2.67457e-09
1.01268e-09
-2.04082e-09
8.06389e-10
-1.38425e-09
6.62273e-10
-7.03885e-10
5.79176e-10
4.71008e-10
-2.78115e-09
1.84681e-08
-4.90246e-09
2.00945e-08
-6.27664e-09
1.75313e-08
-6.99553e-09
1.467e-08
-7.29985e-09
1.21292e-08
-7.30728e-09
9.92819e-09
-7.12307e-09
8.05521e-09
-6.80685e-09
6.49932e-09
-6.40706e-09
5.21568e-09
-5.95018e-09
4.16417e-09
-5.45357e-09
3.30774e-09
-4.92797e-09
2.61459e-09
-4.37958e-09
2.05741e-09
-3.81159e-09
1.61326e-09
-3.22527e-09
1.26324e-09
-2.62068e-09
9.92146e-10
-1.99708e-09
7.8855e-10
-1.35323e-09
6.46687e-10
-6.87376e-10
5.64928e-10
4.59003e-10
-3.46417e-09
2.22791e-08
-5.65235e-09
2.26212e-08
-6.95209e-09
1.91816e-08
-7.50731e-09
1.55889e-08
-7.66636e-09
1.26653e-08
-7.53255e-09
1.01855e-08
-7.24309e-09
8.17143e-09
-6.852e-09
6.52897e-09
-6.39764e-09
5.1977e-09
-5.90355e-09
4.12265e-09
-5.3835e-09
3.25707e-09
-4.84515e-09
2.56306e-09
-4.29227e-09
2.00944e-09
-3.7262e-09
1.57085e-09
-3.14679e-09
1.22696e-09
-2.55301e-09
9.61662e-10
-1.94327e-09
7.63038e-10
-1.31562e-09
6.24965e-10
-6.6764e-10
5.45403e-10
4.4279e-10
-4.32213e-09
2.69347e-08
-6.4814e-09
2.51054e-08
-7.62945e-09
2.06664e-08
-7.97299e-09
1.62818e-08
-7.94894e-09
1.30037e-08
-7.68725e-09
1.02997e-08
-7.30038e-09
8.17435e-09
-6.84008e-09
6.47294e-09
-6.33935e-09
5.11625e-09
-5.81597e-09
4.03413e-09
-5.27953e-09
3.17164e-09
-4.73454e-09
2.48582e-09
-4.1824e-09
1.94244e-09
-3.62273e-09
1.51434e-09
-3.0541e-09
1.18017e-09
-2.47449e-09
9.23292e-10
-1.8816e-09
7.31497e-10
-1.27289e-09
5.9846e-10
-6.45429e-10
5.21785e-10
4.23327e-10
-5.37587e-09
3.26303e-08
-7.43508e-09
2.74756e-08
-8.28617e-09
2.18399e-08
-8.37796e-09
1.67082e-08
-8.16576e-09
1.31385e-08
-7.77212e-09
1.0266e-08
-7.29552e-09
8.07104e-09
-6.77599e-09
6.34058e-09
-6.23803e-09
4.97983e-09
-5.69337e-09
3.90593e-09
-5.14731e-09
3.0575e-09
-4.60129e-09
2.38778e-09
-4.05455e-09
1.86031e-09
-3.50512e-09
1.44679e-09
-2.95045e-09
1.12528e-09
-2.38772e-09
8.78905e-10
-1.81402e-09
6.95406e-10
-1.22636e-09
5.68376e-10
-6.21396e-10
4.95125e-10
4.01463e-10
-6.67304e-09
3.96088e-08
-8.47555e-09
2.95748e-08
-8.89146e-09
2.25638e-08
-8.70795e-09
1.68442e-08
-8.30281e-09
1.30648e-08
-7.7883e-09
1.00952e-08
-7.23333e-09
7.87257e-09
-6.66567e-09
6.14265e-09
-6.09988e-09
4.7975e-09
-5.54169e-09
3.74544e-09
-4.99226e-09
2.92055e-09
-4.45022e-09
2.27354e-09
-3.91286e-09
1.76664e-09
-3.37686e-09
1.37097e-09
-2.83872e-09
1.06441e-09
-2.29497e-09
8.30155e-10
-1.74223e-09
6.56059e-10
-1.17715e-09
5.35761e-10
-5.96103e-10
4.66335e-10
3.77926e-10
-7.74516e-09
4.76454e-08
-9.56202e-09
3.16739e-08
-9.40738e-09
2.27024e-08
-8.94995e-09
1.66911e-08
-8.35878e-09
1.27893e-08
-7.7396e-09
9.80341e-09
-7.12009e-09
7.59264e-09
-6.51582e-09
5.89056e-09
-5.93135e-09
4.57831e-09
-5.3668e-09
3.55972e-09
-4.81956e-09
2.76622e-09
-4.28579e-09
2.14727e-09
-3.76111e-09
1.6646e-09
-3.2411e-09
1.28929e-09
-2.72148e-09
9.9942e-10
-2.19827e-09
7.78458e-10
-1.66773e-09
6.14557e-10
-1.12626e-09
5.01494e-10
-5.70054e-10
4.36189e-10
3.5332e-10
8.46393e-10
-1.9404e-10
-1.30715e-10
-5.93631e-10
-1.10309e-09
-1.03067e-09
-2.11243e-09
-1.5531e-09
-3.23549e-09
-2.185e-09
-4.44778e-09
-2.82998e-09
-5.54842e-09
-3.26178e-09
-2.93784e-09
-6.54354e-09
3.66958e-10
-1.94989e-10
-7.89487e-10
-5.90259e-10
-1.96742e-09
-1.00579e-09
-3.21693e-09
-1.45655e-09
-4.60675e-09
-1.94772e-09
-6.15385e-09
-2.43394e-09
-7.78597e-09
-2.78272e-09
-2.72192e-09
-8.92877e-09
-1.71232e-10
-1.89767e-10
-1.49652e-09
-5.63479e-10
-2.8538e-09
-9.46984e-10
-4.26482e-09
-1.34393e-09
-5.76536e-09
-1.74523e-09
-7.3841e-09
-2.11202e-09
-9.08527e-09
-2.37448e-09
-2.4029e-09
-1.04278e-08
-7.35129e-10
-1.86688e-10
-2.21835e-09
-5.24194e-10
-3.7421e-09
-8.67161e-10
-5.31703e-09
-1.21284e-09
-6.9558e-09
-1.55005e-09
-8.65769e-09
-1.85275e-09
-1.03709e-08
-2.09132e-09
-2.15182e-09
-1.17454e-08
-1.29591e-09
-1.96166e-10
-2.93314e-09
-4.76339e-10
-4.60708e-09
-7.82579e-10
-6.32228e-09
-1.08695e-09
-8.08398e-09
-1.37749e-09
-9.88591e-09
-1.63929e-09
-1.16921e-08
-1.85351e-09
-1.93005e-09
-1.31393e-08
-1.86624e-09
-2.05137e-10
-3.64661e-09
-4.30773e-10
-5.46374e-09
-7.00252e-10
-7.3177e-09
-9.67758e-10
-9.20832e-09
-1.22158e-09
-1.11298e-08
-1.45211e-09
-1.30441e-08
-1.64761e-09
-1.7304e-09
-1.45738e-08
-2.42823e-09
-1.99121e-10
-4.34788e-09
-3.91366e-10
-6.30427e-09
-6.2409e-10
-8.29613e-09
-8.56134e-10
-1.03208e-08
-1.07721e-09
-1.23727e-08
-1.28045e-09
-1.44131e-08
-1.45781e-09
-1.54133e-09
-1.60401e-08
-2.95566e-09
-1.82785e-10
-5.02279e-09
-3.49917e-10
-7.12325e-09
-5.49306e-10
-9.2565e-09
-7.48579e-10
-1.14201e-08
-9.39521e-10
-1.36096e-08
-1.11708e-09
-1.57872e-08
-1.27561e-09
-1.35622e-09
-1.75218e-08
-3.45656e-09
-1.61661e-10
-5.67236e-09
-3.05236e-10
-7.91904e-09
-4.73742e-10
-1.01965e-08
-6.42238e-10
-1.2503e-08
-8.04457e-10
-1.48355e-08
-9.56709e-10
-1.71592e-08
-1.09531e-09
-1.17037e-09
-1.90105e-08
-3.93156e-09
-1.37654e-10
-6.29583e-09
-2.5751e-10
-8.68984e-09
-3.96298e-10
-1.11137e-08
-5.35048e-10
-1.3566e-08
-6.69049e-10
-1.60452e-08
-7.95672e-10
-1.85221e-08
-9.12969e-10
-9.802e-10
-2.04988e-08
-4.37855e-09
-1.11483e-10
-6.89117e-09
-2.06879e-10
-9.43318e-09
-3.16281e-10
-1.20048e-08
-4.25541e-10
-1.46052e-08
-5.31154e-10
-1.72335e-08
-6.31415e-10
-1.98702e-08
-7.25882e-10
-7.82989e-10
-2.19808e-08
-4.79445e-09
-8.33885e-11
-7.45544e-09
-1.53305e-10
-1.0146e-08
-2.3311e-10
-1.28665e-08
-3.12629e-10
-1.56165e-08
-3.89219e-10
-1.83957e-08
-4.6217e-10
-2.11978e-08
-5.32357e-10
-5.76708e-10
-2.3451e-08
-5.16973e-09
-5.33057e-11
-7.97948e-09
-9.6408e-11
-1.08193e-08
-1.46182e-10
-1.36892e-08
-1.95704e-10
-1.65894e-08
-2.42635e-10
-1.952e-08
-2.87264e-10
-2.24921e-08
-3.32244e-10
-3.6117e-10
-2.48956e-08
-5.41085e-09
-2.23517e-11
-8.3671e-09
-3.84419e-11
-1.1353e-08
-5.86193e-11
-1.43685e-08
-7.86864e-11
-1.74135e-08
-9.6674e-11
-2.04893e-08
-1.12674e-10
-2.3621e-08
-1.30912e-10
-1.48062e-10
-2.61782e-08
-4.79601e-09
-7.87817e-09
-1.09805e-08
-1.41031e-08
-1.72443e-08
-2.04038e-08
-2.36201e-08
-2.67625e-08
-6.04958e-09
-7.00527e-10
-5.90986e-09
-1.588e-10
-5.83965e-09
-7.29292e-11
-5.803e-09
-3.71654e-11
-5.78579e-09
-1.73079e-11
-5.77992e-09
-5.89123e-12
-5.78e-09
8.32242e-14
-5.78235e-09
2.3474e-12
-5.78435e-09
1.99951e-12
-5.78412e-09
-2.35022e-13
-5.78028e-09
-3.83862e-12
-5.77187e-09
-8.40382e-12
-5.75825e-09
-1.36276e-11
-5.73895e-09
-1.92999e-11
-5.71368e-09
-2.52693e-11
-5.68225e-09
-3.14236e-11
-5.64456e-09
-3.76941e-11
-5.60053e-09
-4.40277e-11
-5.55015e-09
-5.03847e-11
-5.49344e-09
-5.67084e-11
-5.43047e-09
-6.29731e-11
-5.36127e-09
-6.91912e-11
-5.28591e-09
-7.53686e-11
-5.20443e-09
-8.14792e-11
-5.11692e-09
-8.75041e-11
-5.0235e-09
-9.34277e-11
-4.92425e-09
-9.92424e-11
-4.81931e-09
-1.04947e-10
-4.70875e-09
-1.10557e-10
-4.59265e-09
-1.16103e-10
-4.47096e-09
-1.21691e-10
-4.34355e-09
-1.27409e-10
-4.21057e-09
-1.32981e-10
-4.07336e-09
-1.37202e-10
-3.93536e-09
-1.38005e-10
-3.80038e-09
-1.3498e-10
-3.66414e-09
-1.36239e-10
-3.49504e-09
-1.69103e-10
-3.21093e-09
-2.84109e-10
-2.67598e-09
-5.34951e-10
-1.69821e-09
-9.7777e-10
-1.8761e-10
-1.5106e-09
1.72149e-09
-1.9091e-09
3.58412e-09
-1.86264e-09
4.74354e-09
-1.15942e-09
4.74251e-09
1.02911e-12
3.8575e-09
8.85015e-10
3.17893e-09
6.78565e-10
2.58753e-09
5.91459e-10
9.10286e-09
-6.50869e-09
-9.43914e-09
-5.66978e-10
-9.58516e-09
-5.60402e-11
-9.70814e-09
4.3184e-11
-9.82979e-09
8.31883e-11
-9.94983e-09
1.02483e-10
-1.00676e-08
1.11857e-10
-1.01826e-08
1.15039e-10
-1.02943e-08
1.14053e-10
-1.04024e-08
1.10131e-10
-1.05067e-08
1.04081e-10
-1.0607e-08
9.64516e-11
-1.07031e-08
8.76185e-11
-1.07945e-08
7.78332e-11
-1.08811e-08
6.72618e-11
-1.09624e-08
5.60196e-11
-1.1038e-08
4.41785e-11
-1.11074e-08
3.17795e-11
-1.11703e-08
1.88299e-11
-1.1226e-08
5.28612e-12
-1.12738e-08
-8.89306e-12
-1.13131e-08
-2.36658e-11
-1.13433e-08
-3.89916e-11
-1.13638e-08
-5.48847e-11
-1.13739e-08
-7.13775e-11
-1.13729e-08
-8.85187e-11
-1.13599e-08
-1.06383e-10
-1.13341e-08
-1.25065e-10
-1.12944e-08
-1.4468e-10
-1.12395e-08
-1.65409e-10
-1.1168e-08
-1.87583e-10
-1.10782e-08
-2.11559e-10
-1.09685e-08
-2.37065e-10
-1.08394e-08
-2.62078e-10
-1.06939e-08
-2.82723e-10
-1.05341e-08
-2.97778e-10
-1.03478e-08
-3.21326e-10
-1.0083e-08
-4.01013e-10
-9.62428e-09
-6.27809e-10
-8.79278e-09
-1.11561e-09
-7.39245e-09
-1.93527e-09
-5.36795e-09
-3.00228e-09
-2.75495e-09
-4.1236e-09
1.56164e-10
-4.82021e-09
2.84089e-09
-4.54736e-09
4.63082e-09
-2.94935e-09
5.08833e-09
-4.56478e-10
4.28709e-09
1.68626e-09
2.24977e-09
2.7159e-09
-3.56249e-09
6.4042e-09
1.84586e-08
-1.28706e-08
-1.11232e-08
-3.00125e-10
-1.13689e-08
1.27262e-10
-1.15509e-08
2.14267e-10
-1.17112e-08
2.41468e-10
-1.18611e-08
2.51924e-10
-1.20046e-08
2.55373e-10
-1.21441e-08
2.54468e-10
-1.22805e-08
2.50428e-10
-1.24143e-08
2.43997e-10
-1.2546e-08
2.35711e-10
-1.26755e-08
2.25964e-10
-1.28029e-08
2.15041e-10
-1.29282e-08
2.03141e-10
-1.30513e-08
1.90398e-10
-1.31722e-08
1.76896e-10
-1.32907e-08
1.62681e-10
-1.34067e-08
1.47769e-10
-1.352e-08
1.32159e-10
-1.36306e-08
1.15831e-10
-1.37382e-08
9.87283e-11
-1.38426e-08
8.07331e-11
-1.39433e-08
6.17311e-11
-1.40398e-08
4.1594e-11
-1.41313e-08
2.01364e-11
-1.4217e-08
-2.8848e-12
-1.42957e-08
-2.76794e-11
-1.43663e-08
-5.44719e-11
-1.44273e-08
-8.36634e-11
-1.44768e-08
-1.15888e-10
-1.45124e-08
-1.51935e-10
-1.45318e-08
-1.92216e-10
-1.45331e-08
-2.35701e-10
-1.45155e-08
-2.79777e-10
-1.44736e-08
-3.24552e-10
-1.43861e-08
-3.85333e-10
-1.41963e-08
-5.11111e-10
-1.38018e-08
-7.95456e-10
-1.30693e-08
-1.36039e-09
-1.188e-08
-2.30486e-09
-1.01854e-08
-3.62985e-09
-8.01048e-09
-5.17723e-09
-5.54276e-09
-6.59131e-09
-3.03705e-09
-7.32592e-09
-8.37855e-10
-6.74655e-09
6.15095e-10
-4.4023e-09
1.00259e-09
-8.43971e-10
1.32031e-11
2.67564e-09
-3.63139e-09
6.36051e-09
-1.06533e-08
1.34269e-08
2.48216e-08
-1.69674e-08
-1.246e-08
-6.63008e-11
-1.27102e-08
2.97356e-10
-1.28838e-08
3.73242e-10
-1.30359e-08
3.90661e-10
-1.3178e-08
3.93485e-10
-1.33139e-08
3.91246e-10
-1.34457e-08
3.86182e-10
-1.35744e-08
3.79096e-10
-1.37008e-08
3.70416e-10
-1.38255e-08
3.60449e-10
-1.3949e-08
3.49428e-10
-1.40715e-08
3.37525e-10
-1.41932e-08
3.24862e-10
-1.43143e-08
3.1152e-10
-1.4435e-08
2.97546e-10
-1.45552e-08
2.82956e-10
-1.46752e-08
2.67741e-10
-1.47949e-08
2.51871e-10
-1.49144e-08
2.35297e-10
-1.50336e-08
2.17929e-10
-1.51525e-08
1.99634e-10
-1.5271e-08
1.80243e-10
-1.5389e-08
1.5956e-10
-1.55062e-08
1.37343e-10
-1.56223e-08
1.13295e-10
-1.5737e-08
8.70083e-11
-1.58494e-08
5.78971e-11
-1.59582e-08
2.51305e-11
-1.60617e-08
-1.24086e-11
-1.61577e-08
-5.5874e-11
-1.62441e-08
-1.05884e-10
-1.63175e-08
-1.62309e-10
-1.63704e-08
-2.26785e-10
-1.63835e-08
-3.11479e-10
-1.63148e-08
-4.54101e-10
-1.60957e-08
-7.30149e-10
-1.56449e-08
-1.2463e-09
-1.48994e-08
-2.1059e-09
-1.38469e-08
-3.35729e-09
-1.25311e-08
-4.9457e-09
-1.1032e-08
-6.67629e-09
-9.45682e-09
-8.16652e-09
-7.96771e-09
-8.81503e-09
-6.79181e-09
-7.92245e-09
-6.04094e-09
-5.15318e-09
-6.116e-09
-7.68908e-10
-7.93052e-09
4.49017e-09
-1.21626e-08
1.05926e-08
-1.73536e-08
1.86192e-08
2.75149e-08
-1.99971e-08
-1.38721e-08
1.34687e-10
-1.41187e-08
4.47905e-10
-1.42744e-08
5.1086e-10
-1.4406e-08
5.18782e-10
-1.45276e-08
5.14418e-10
-1.46434e-08
5.06833e-10
-1.47551e-08
4.97859e-10
-1.48639e-08
4.87944e-10
-1.49707e-08
4.77253e-10
-1.50762e-08
4.65896e-10
-1.51807e-08
4.53961e-10
-1.52847e-08
4.41518e-10
-1.53885e-08
4.28619e-10
-1.54922e-08
4.15292e-10
-1.55962e-08
4.01547e-10
-1.57007e-08
3.87375e-10
-1.58057e-08
3.72745e-10
-1.59114e-08
3.57607e-10
-1.6018e-08
3.4189e-10
-1.61256e-08
3.25485e-10
-1.62342e-08
3.08247e-10
-1.63439e-08
2.8999e-10
-1.64548e-08
2.70477e-10
-1.65669e-08
2.49408e-10
-1.668e-08
2.26388e-10
-1.67939e-08
2.00866e-10
-1.6908e-08
1.72057e-10
-1.70217e-08
1.38858e-10
-1.71339e-08
9.98003e-11
-1.7243e-08
5.31927e-11
-1.73462e-08
-2.65748e-12
-1.74381e-08
-7.04468e-11
-1.75063e-08
-1.58625e-10
-1.75263e-08
-2.914e-10
-1.74604e-08
-5.20043e-10
-1.72662e-08
-9.24332e-10
-1.69189e-08
-1.59362e-09
-1.64329e-08
-2.59185e-09
-1.58646e-08
-3.92564e-09
-1.5286e-08
-5.52427e-09
-1.47552e-08
-7.2071e-09
-1.43118e-08
-8.6099e-09
-1.39968e-08
-9.13009e-09
-1.38635e-08
-8.05572e-09
-1.40847e-08
-4.93194e-09
-1.50081e-08
1.54421e-10
-1.70224e-08
6.50453e-09
-1.99126e-08
1.34828e-08
-2.21673e-08
2.08752e-08
2.70891e-08
-2.16909e-08
-1.53176e-08
2.96752e-10
-1.55485e-08
5.6926e-10
-1.56787e-08
6.2008e-10
-1.57843e-08
6.20324e-10
-1.58809e-08
6.10279e-10
-1.59727e-08
5.98405e-10
-1.60611e-08
5.86252e-10
-1.61472e-08
5.74048e-10
-1.62317e-08
5.61784e-10
-1.63152e-08
5.49431e-10
-1.63983e-08
5.36969e-10
-1.64811e-08
5.24384e-10
-1.65642e-08
5.11663e-10
-1.66477e-08
4.98791e-10
-1.67319e-08
4.85742e-10
-1.6817e-08
4.72484e-10
-1.69032e-08
4.58967e-10
-1.69907e-08
4.45129e-10
-1.70797e-08
4.30884e-10
-1.71703e-08
4.16116e-10
-1.72628e-08
4.00673e-10
-1.73571e-08
3.84357e-10
-1.74536e-08
3.66907e-10
-1.75521e-08
3.4798e-10
-1.76529e-08
3.27111e-10
-1.77556e-08
3.03641e-10
-1.78602e-08
2.76631e-10
-1.79661e-08
2.44753e-10
-1.80725e-08
2.06216e-10
-1.81781e-08
1.58757e-10
-1.828e-08
9.92775e-11
-1.83723e-08
2.17962e-11
-1.84429e-08
-8.79572e-11
-1.84736e-08
-2.6075e-10
-1.84447e-08
-5.48935e-10
-1.835e-08
-1.019e-09
-1.82144e-08
-1.72924e-09
-1.81003e-08
-2.70593e-09
-1.80909e-08
-3.93502e-09
-1.82569e-08
-5.35829e-09
-1.86331e-08
-6.83089e-09
-1.92178e-08
-8.02517e-09
-1.99789e-08
-8.36902e-09
-2.08664e-08
-7.16819e-09
-2.18639e-08
-3.93445e-09
-2.30061e-08
1.29664e-09
-2.42029e-08
7.70129e-09
-2.50687e-08
1.43486e-08
-2.46728e-08
2.04809e-08
2.45581e-08
-2.20903e-08
-1.6793e-08
4.19774e-10
-1.7002e-08
6.57948e-10
-1.71027e-08
6.97667e-10
-1.7179e-08
6.92172e-10
-1.72478e-08
6.78248e-10
-1.73131e-08
6.63516e-10
-1.73762e-08
6.49287e-10
-1.74378e-08
6.35664e-10
-1.74985e-08
6.22538e-10
-1.75589e-08
6.09793e-10
-1.76193e-08
5.97341e-10
-1.768e-08
5.85111e-10
-1.77414e-08
5.73043e-10
-1.78037e-08
5.61087e-10
-1.78671e-08
5.49195e-10
-1.7932e-08
5.37312e-10
-1.79984e-08
5.2538e-10
-1.80666e-08
5.13327e-10
-1.81368e-08
5.01061e-10
-1.82091e-08
4.88468e-10
-1.82838e-08
4.75396e-10
-1.83611e-08
4.61643e-10
-1.84411e-08
4.46943e-10
-1.85241e-08
4.30935e-10
-1.86101e-08
4.13115e-10
-1.86992e-08
3.92769e-10
-1.87915e-08
3.68866e-10
-1.88867e-08
3.39941e-10
-1.89844e-08
3.03975e-10
-1.90839e-08
2.58206e-10
-1.91829e-08
1.98348e-10
-1.92773e-08
1.16126e-10
-1.93596e-08
-5.59737e-12
-1.94223e-08
-1.98073e-10
-1.94652e-08
-5.06066e-10
-1.95086e-08
-9.75583e-10
-1.96033e-08
-1.6345e-09
-1.98262e-08
-2.48309e-09
-2.02581e-08
-3.50311e-09
-2.09576e-08
-4.65874e-09
-2.1946e-08
-5.84258e-09
-2.31985e-08
-6.77259e-09
-2.46278e-08
-6.93972e-09
-2.60726e-08
-5.72338e-09
-2.73186e-08
-2.68849e-09
-2.81257e-08
2.10373e-09
-2.82408e-08
7.81644e-09
-2.73962e-08
1.3504e-08
-2.52539e-08
1.83404e-08
2.09868e-08
-2.16301e-08
-1.82829e-08
5.04556e-10
-1.84652e-08
7.12453e-10
-1.8534e-08
7.42093e-10
-1.85792e-08
7.32695e-10
-1.86186e-08
7.16677e-10
-1.86558e-08
7.00602e-10
-1.86921e-08
6.85547e-10
-1.8728e-08
6.71537e-10
-1.87639e-08
6.58414e-10
-1.88001e-08
6.46027e-10
-1.8837e-08
6.34244e-10
-1.88748e-08
6.22965e-10
-1.89139e-08
6.12105e-10
-1.89544e-08
6.01592e-10
-1.89966e-08
5.91362e-10
-1.90406e-08
5.81355e-10
-1.90867e-08
5.71506e-10
-1.91352e-08
5.61742e-10
-1.91861e-08
5.5198e-10
-1.92397e-08
5.42109e-10
-1.92963e-08
5.3199e-10
-1.93561e-08
5.21437e-10
-1.94194e-08
5.10196e-10
-1.94863e-08
4.97919e-10
-1.95573e-08
4.84114e-10
-1.96326e-08
4.68069e-10
-1.97125e-08
4.48759e-10
-1.97973e-08
4.24713e-10
-1.98872e-08
3.93872e-10
-1.99823e-08
3.53278e-10
-2.00821e-08
2.98138e-10
-2.01854e-08
2.19448e-10
-2.02912e-08
1.00231e-10
-2.04023e-08
-8.70012e-11
-2.05321e-08
-3.76237e-10
-2.07128e-08
-7.94915e-10
-2.0997e-08
-1.35032e-09
-2.14489e-08
-2.03116e-09
-2.21276e-08
-2.82445e-09
-2.30725e-08
-3.71377e-09
-2.42948e-08
-4.6203e-09
-2.57589e-08
-5.30851e-09
-2.73477e-08
-5.35092e-09
-2.88354e-08
-4.23569e-09
-2.99031e-08
-1.62079e-09
-3.01871e-08
2.3878e-09
-2.94539e-08
7.08317e-09
-2.76075e-08
1.16577e-08
-2.46824e-08
1.54171e-08
1.72474e-08
-2.08899e-08
-1.97785e-08
5.52034e-10
-1.99294e-08
7.31915e-10
-1.99646e-08
7.52591e-10
-1.99777e-08
7.41048e-10
-1.99866e-08
7.24647e-10
-1.99949e-08
7.08723e-10
-2.00035e-08
6.94118e-10
-2.00128e-08
6.8081e-10
-2.0023e-08
6.6863e-10
-2.00344e-08
6.57417e-10
-2.00472e-08
6.47032e-10
-2.00616e-08
6.37361e-10
-2.00778e-08
6.28312e-10
-2.0096e-08
6.19808e-10
-2.01164e-08
6.11783e-10
-2.01392e-08
6.04177e-10
-2.01647e-08
5.96931e-10
-2.01929e-08
5.89984e-10
-2.02242e-08
5.83263e-10
-2.02587e-08
5.76681e-10
-2.02969e-08
5.70123e-10
-2.03389e-08
5.63435e-10
-2.03851e-08
5.56405e-10
-2.04359e-08
5.48737e-10
-2.04918e-08
5.39999e-10
-2.05533e-08
5.29566e-10
-2.06211e-08
5.16526e-10
-2.06959e-08
4.99569e-10
-2.07789e-08
4.76843e-10
-2.08712e-08
4.45626e-10
-2.09745e-08
4.01449e-10
-2.10912e-08
3.3614e-10
-2.12262e-08
2.35173e-10
-2.139e-08
7.68217e-11
-2.16031e-08
-1.63121e-10
-2.18973e-08
-5.0072e-10
-2.23116e-08
-9.36068e-10
-2.28829e-08
-1.45986e-09
-2.36387e-08
-2.0686e-09
-2.45955e-08
-2.75697e-09
-2.57542e-08
-3.46159e-09
-2.70774e-08
-3.9853e-09
-2.84482e-08
-3.98018e-09
-2.96375e-08
-3.04636e-09
-3.0323e-08
-9.35322e-10
-3.01455e-08
2.21032e-09
-2.8956e-08
5.89368e-09
-2.67699e-08
9.47171e-09
-2.37749e-08
1.24239e-08
1.38337e-08
-2.03071e-08
-2.12723e-08
5.6335e-10
-2.13874e-08
7.1602e-10
-2.13877e-08
7.28993e-10
-2.13682e-08
7.16975e-10
-2.13462e-08
7.01769e-10
-2.13251e-08
6.87402e-10
-2.13055e-08
6.74476e-10
-2.12876e-08
6.62944e-10
-2.12716e-08
6.52652e-10
-2.12577e-08
6.43449e-10
-2.12458e-08
6.35208e-10
-2.12363e-08
6.27823e-10
-2.12292e-08
6.21208e-10
-2.12247e-08
6.15296e-10
-2.12229e-08
6.10028e-10
-2.12241e-08
6.05357e-10
-2.12284e-08
6.0124e-10
-2.12361e-08
5.97634e-10
-2.12473e-08
5.94493e-10
-2.12624e-08
5.9176e-10
-2.12816e-08
5.89363e-10
-2.13054e-08
5.87197e-10
-2.13341e-08
5.85123e-10
-2.13683e-08
5.82936e-10
-2.14086e-08
5.80319e-10
-2.14558e-08
5.76804e-10
-2.1511e-08
5.71705e-10
-2.15755e-08
5.64038e-10
-2.1651e-08
5.52401e-10
-2.17401e-08
5.34727e-10
-2.18463e-08
5.07611e-10
-2.19751e-08
4.64898e-10
-2.21358e-08
3.9588e-10
-2.23439e-08
2.84938e-10
-2.26218e-08
1.14755e-10
-2.29951e-08
-1.27382e-10
-2.34848e-08
-4.46337e-10
-2.41e-08
-8.44675e-10
-2.48388e-08
-1.32986e-09
-2.56953e-08
-1.90044e-09
-2.6659e-08
-2.49785e-09
-2.76925e-08
-2.95183e-09
-2.86943e-08
-2.9784e-09
-2.94715e-08
-2.26918e-09
-2.97549e-08
-6.51918e-10
-2.92768e-08
1.73223e-09
-2.79383e-08
4.55517e-09
-2.58053e-08
7.33878e-09
-2.30662e-08
9.68656e-09
1.08448e-08
-2.00224e-08
-2.27582e-08
5.39655e-10
-2.28324e-08
6.64691e-10
-2.2797e-08
6.71496e-10
-2.27448e-08
6.60617e-10
-2.26919e-08
6.48041e-10
-2.26412e-08
6.36507e-10
-2.25931e-08
6.26397e-10
-2.25478e-08
6.17653e-10
-2.25053e-08
6.10148e-10
-2.24656e-08
6.03761e-10
-2.24288e-08
5.9839e-10
-2.23949e-08
5.9395e-10
-2.23641e-08
5.90376e-10
-2.23364e-08
5.87616e-10
-2.2312e-08
5.85633e-10
-2.22911e-08
5.844e-10
-2.22737e-08
5.83897e-10
-2.22602e-08
5.84108e-10
-2.22507e-08
5.85022e-10
-2.22456e-08
5.86621e-10
-2.22451e-08
5.88883e-10
-2.22497e-08
5.91769e-10
-2.22598e-08
5.95231e-10
-2.22761e-08
5.99191e-10
-2.22992e-08
6.03474e-10
-2.23302e-08
6.07812e-10
-2.23703e-08
6.11819e-10
-2.24212e-08
6.14939e-10
-2.24852e-08
6.16378e-10
-2.25655e-08
6.1498e-10
-2.26667e-08
6.0883e-10
-2.27961e-08
5.9436e-10
-2.29653e-08
5.65058e-10
-2.31912e-08
5.10816e-10
-2.34948e-08
4.18345e-10
-2.38953e-08
2.73076e-10
-2.44015e-08
5.98906e-11
-2.50062e-08
-2.39919e-10
-2.56908e-08
-6.45271e-10
-2.64352e-08
-1.15602e-09
-2.72176e-08
-1.71546e-09
-2.79957e-08
-2.17377e-09
-2.86793e-08
-2.2948e-09
-2.9114e-08
-1.83445e-09
-2.90954e-08
-6.70596e-10
-2.84575e-08
1.09433e-09
-2.71168e-08
3.21451e-09
-2.51433e-08
5.36529e-09
-2.26709e-08
7.21576e-09
8.16146e-09
-1.99319e-08
-2.42301e-08
4.81939e-10
-2.4258e-08
5.77877e-10
-2.41861e-08
5.80471e-10
-2.41013e-08