/*--------------------------------*- C++ -*----------------------------------*\
  =========                 |
  \\      /  F ield         | OpenFOAM: The Open Source CFD Toolbox
   \\    /   O peration     | Website:  https://openfoam.org
    \\  /    A nd           | Version:  13
     \\/     M anipulation  |
\*---------------------------------------------------------------------------*/
FoamFile
{
    format      ascii;
    class       pointScalarField;
    location    "0.0003";
    object      pointMotionUx;
}
// * * * * * * * * * * * * * * * * * * * * * * * * * * * * * * * * * * * * * //

dimensions      [0 1 -1 0 0 0 0];

internalField   nonuniform List<scalar> 
3608
(
0
0.122479
0.244956
0.367429
0.489881
0.612222
0.734025
0.855867
1
0
0.122479
0.244956
0.367429
0.489881
0.612223
0.734027
0.855863
1
0
0.122479
0.244956
0.367429
0.489881
0.612223
0.734032
0.85585
1
0
0.122479
0.244956
0.367429
0.489882
0.612225
0.73404
0.855828
1
0
0.122479
0.244956
0.367429
0.489882
0.612228
0.734052
0.855796
1
0
0.122479
0.244956
0.36743
0.489883
0.612231
0.734068
0.855755
1
0
0.122479
0.244956
0.36743
0.489883
0.612234
0.734087
0.855704
1
0
0.122479
0.244956
0.36743
0.489884
0.612238
0.73411
0.855645
1
0
0.122479
0.244956
0.36743
0.489885
0.612243
0.734137
0.855576
1
0
0.122479
0.244956
0.36743
0.489885
0.612248
0.734168
0.855497
1
0
0.122479
0.244957
0.36743
0.489886
0.612254
0.734204
0.855409
1
0
0.122479
0.244957
0.36743
0.489887
0.61226
0.734243
0.855311
1
0
0.122479
0.244957
0.367431
0.489888
0.612266
0.734288
0.855204
1
0
0.122479
0.244957
0.367431
0.48989
0.612272
0.734337
0.855087
1
0
0.122479
0.244957
0.367431
0.489891
0.612279
0.734376
0.854934
1
0
0.122479
0.244957
0.367432
0.489893
0.612291
0.734442
0.856209
1
0
0.122479
0.244956
0.367429
0.489881
0.612223
0.734027
0.855863
1
0
0.122479
0.244956
0.367429
0.489881
0.612223
0.734032
0.85585
1
0
0.122479
0.244956
0.367429
0.489882
0.612225
0.73404
0.855828
1
0
0.122479
0.244956
0.367429
0.489882
0.612228
0.734052
0.855796
1
0
0.122479
0.244956
0.36743
0.489883
0.612231
0.734068
0.855755
1
0
0.122479
0.244956
0.36743
0.489883
0.612234
0.734087
0.855704
1
0
0.122479
0.244956
0.36743
0.489884
0.612238
0.73411
0.855645
1
0
0.122479
0.244956
0.36743
0.489885
0.612243
0.734137
0.855576
1
0
0.122479
0.244956
0.36743
0.489885
0.612248
0.734168
0.855497
1
0
0.122479
0.244957
0.36743
0.489886
0.612254
0.734204
0.855409
1
0
0.122479
0.244957
0.36743
0.489887
0.61226
0.734243
0.855311
1
0
0.122479
0.244957
0.367431
0.489888
0.612266
0.734288
0.855204
1
0
0.122479
0.244957
0.367431
0.48989
0.612272
0.734337
0.855087
1
0
0.122479
0.244957
0.367431
0.489891
0.612279
0.734376
0.854934
1
0
0.122479
0.244957
0.367432
0.489893
0.612291
0.734442
0.856209
1
1
0.963583
0.927368
0.890163
0.851644
0.811705
0.770284
0.727326
0.682773
0.636565
0.588642
0.538939
0.48739
0.433927
0.378478
0.32097
0.261325
0.199465
0.135307
0.0687668
0
1
0.963585
0.927373
0.890168
0.851649
0.811711
0.770291
0.727333
0.68278
0.636573
0.58865
0.538947
0.487399
0.433936
0.378488
0.320979
0.261335
0.199475
0.135317
0.0687776
0
1
0.963584
0.92738
0.890179
0.851661
0.811724
0.770304
0.727347
0.682795
0.636588
0.588666
0.538964
0.487416
0.433954
0.378506
0.320999
0.261355
0.199495
0.135338
0.0687985
0
1
0.963577
0.927386
0.89019
0.851674
0.811737
0.770318
0.727361
0.68281
0.636604
0.588682
0.538981
0.487434
0.433972
0.378525
0.321017
0.261374
0.199515
0.135358
0.0688187
0
1
0.963565
0.927392
0.890201
0.851686
0.81175
0.770332
0.727376
0.682825
0.636619
0.588698
0.538998
0.487451
0.43399
0.378543
0.321036
0.261393
0.199534
0.135377
0.0688379
0
1
0.963549
0.927397
0.890212
0.851699
0.811763
0.770346
0.72739
0.68284
0.636635
0.588714
0.539014
0.487468
0.434007
0.37856
0.321053
0.261411
0.199552
0.135395
0.068856
0
1
0.96353
0.927401
0.890223
0.851712
0.811777
0.77036
0.727404
0.682854
0.63665
0.58873
0.53903
0.487484
0.434023
0.378577
0.32107
0.261427
0.199569
0.135412
0.0688729
0
1
0.963509
0.927405
0.890234
0.851724
0.81179
0.770373
0.727419
0.682869
0.636665
0.588745
0.539045
0.487499
0.434039
0.378592
0.321086
0.261443
0.199585
0.135428
0.0688886
0
1
0.963485
0.927409
0.890245
0.851737
0.811803
0.770387
0.727432
0.682883
0.636679
0.588759
0.539059
0.487514
0.434053
0.378607
0.321101
0.261458
0.1996
0.135443
0.068903
0
1
0.96346
0.927413
0.890256
0.851749
0.811816
0.7704
0.727445
0.682896
0.636692
0.588773
0.539073
0.487527
0.434067
0.378621
0.321115
0.261472
0.199613
0.135456
0.0689162
0
1
0.963434
0.927416
0.890267
0.851761
0.811828
0.770412
0.727458
0.682909
0.636705
0.588785
0.539086
0.48754
0.43408
0.378633
0.321127
0.261484
0.199626
0.135469
0.0689281
0
1
0.963406
0.92742
0.890277
0.851773
0.81184
0.770424
0.72747
0.682921
0.636717
0.588797
0.539098
0.487552
0.434092
0.378645
0.321139
0.261496
0.199637
0.13548
0.0689389
0
1
0.963378
0.927423
0.890287
0.851783
0.811851
0.770435
0.727481
0.682932
0.636728
0.588808
0.539109
0.487563
0.434102
0.378656
0.321149
0.261506
0.199647
0.13549
0.0689486
0
1
0.963349
0.927426
0.890296
0.851793
0.811861
0.770445
0.727491
0.682942
0.636738
0.588818
0.539119
0.487573
0.434112
0.378665
0.321159
0.261515
0.199656
0.135499
0.0689573
0
1
0.96332
0.927429
0.890305
0.851803
0.81187
0.770455
0.7275
0.682951
0.636747
0.588827
0.539128
0.487582
0.434121
0.378674
0.321167
0.261524
0.199664
0.135507
0.068965
0
1
0.963291
0.927431
0.890313
0.851812
0.811879
0.770463
0.727509
0.68296
0.636756
0.588836
0.539136
0.48759
0.434129
0.378682
0.321175
0.261531
0.199672
0.135514
0.0689719
0
1
0.963261
0.927434
0.89032
0.85182
0.811887
0.770471
0.727517
0.682967
0.636763
0.588843
0.539143
0.487597
0.434136
0.378689
0.321182
0.261538
0.199678
0.13552
0.0689779
0
1
0.963232
0.927436
0.890327
0.851827
0.811894
0.770478
0.727524
0.682974
0.63677
0.58885
0.53915
0.487604
0.434142
0.378695
0.321188
0.261544
0.199684
0.135526
0.0689833
0
1
0.963202
0.927438
0.890333
0.851834
0.811901
0.770485
0.72753
0.682981
0.636776
0.588856
0.539156
0.487609
0.434148
0.3787
0.321193
0.261549
0.199689
0.135531
0.068988
0
1
0.963173
0.927439
0.890339
0.85184
0.811907
0.770491
0.727536
0.682986
0.636782
0.588861
0.539161
0.487614
0.434153
0.378705
0.321198
0.261554
0.199694
0.135535
0.0689921
0
1
0.963111
0.927447
0.890351
0.851852
0.811919
0.770502
0.727547
0.682997
0.636793
0.588872
0.539171
0.487624
0.434162
0.378715
0.321207
0.261562
0.199702
0.135543
0.069
0
1
0.963585
0.927373
0.890168
0.851649
0.811711
0.770291
0.727333
0.68278
0.636573
0.58865
0.538947
0.487399
0.433936
0.378488
0.320979
0.261335
0.199475
0.135317
0.0687776
0
1
0.963584
0.92738
0.890179
0.851661
0.811724
0.770304
0.727347
0.682795
0.636588
0.588666
0.538964
0.487416
0.433954
0.378506
0.320999
0.261355
0.199495
0.135338
0.0687985
0
1
0.963577
0.927386
0.89019
0.851674
0.811737
0.770318
0.727361
0.68281
0.636604
0.588682
0.538981
0.487434
0.433972
0.378525
0.321017
0.261374
0.199515
0.135358
0.0688187
0
1
0.963565
0.927392
0.890201
0.851686
0.81175
0.770332
0.727376
0.682825
0.636619
0.588698
0.538998
0.487451
0.43399
0.378543
0.321036
0.261393
0.199534
0.135377
0.0688379
0
1
0.963549
0.927397
0.890212
0.851699
0.811763
0.770346
0.72739
0.68284
0.636635
0.588714
0.539014
0.487468
0.434007
0.37856
0.321053
0.261411
0.199552
0.135395
0.068856
0
1
0.96353
0.927401
0.890223
0.851712
0.811777
0.77036
0.727404
0.682854
0.63665
0.58873
0.53903
0.487484
0.434023
0.378577
0.32107
0.261427
0.199569
0.135412
0.0688729
0
1
0.963509
0.927405
0.890234
0.851724
0.81179
0.770373
0.727419
0.682869
0.636665
0.588745
0.539045
0.487499
0.434039
0.378592
0.321086
0.261443
0.199585
0.135428
0.0688886
0
1
0.963485
0.927409
0.890245
0.851737
0.811803
0.770387
0.727432
0.682883
0.636679
0.588759
0.539059
0.487514
0.434053
0.378607
0.321101
0.261458
0.1996
0.135443
0.068903
0
1
0.96346
0.927413
0.890256
0.851749
0.811816
0.7704
0.727445
0.682896
0.636692
0.588773
0.539073
0.487527
0.434067
0.378621
0.321115
0.261472
0.199613
0.135456
0.0689162
0
1
0.963434
0.927416
0.890267
0.851761
0.811828
0.770412
0.727458
0.682909
0.636705
0.588785
0.539086
0.48754
0.43408
0.378633
0.321127
0.261484
0.199626
0.135469
0.0689281
0
1
0.963406
0.92742
0.890277
0.851773
0.81184
0.770424
0.72747
0.682921
0.636717
0.588797
0.539098
0.487552
0.434092
0.378645
0.321139
0.261496
0.199637
0.13548
0.0689389
0
1
0.963378
0.927423
0.890287
0.851783
0.811851
0.770435
0.727481
0.682932
0.636728
0.588808
0.539109
0.487563
0.434102
0.378656
0.321149
0.261506
0.199647
0.13549
0.0689486
0
1
0.963349
0.927426
0.890296
0.851793
0.811861
0.770445
0.727491
0.682942
0.636738
0.588818
0.539119
0.487573
0.434112
0.378665
0.321159
0.261515
0.199656
0.135499
0.0689573
0
1
0.96332
0.927429
0.890305
0.851803
0.81187
0.770455
0.7275
0.682951
0.636747
0.588827
0.539128
0.487582
0.434121
0.378674
0.321167
0.261524
0.199664
0.135507
0.068965
0
1
0.963291
0.927431
0.890313
0.851812
0.811879
0.770463
0.727509
0.68296
0.636756
0.588836
0.539136
0.48759
0.434129
0.378682
0.321175
0.261531
0.199672
0.135514
0.0689719
0
1
0.963261
0.927434
0.89032
0.85182
0.811887
0.770471
0.727517
0.682967
0.636763
0.588843
0.539143
0.487597
0.434136
0.378689
0.321182
0.261538
0.199678
0.13552
0.0689779
0
1
0.963232
0.927436
0.890327
0.851827
0.811894
0.770478
0.727524
0.682974
0.63677
0.58885
0.53915
0.487604
0.434142
0.378695
0.321188
0.261544
0.199684
0.135526
0.0689833
0
1
0.963202
0.927438
0.890333
0.851834
0.811901
0.770485
0.72753
0.682981
0.636776
0.588856
0.539156
0.487609
0.434148
0.3787
0.321193
0.261549
0.199689
0.135531
0.068988
0
1
0.963173
0.927439
0.890339
0.85184
0.811907
0.770491
0.727536
0.682986
0.636782
0.588861
0.539161
0.487614
0.434153
0.378705
0.321198
0.261554
0.199694
0.135535
0.0689921
0
1
0.963111
0.927447
0.890351
0.851852
0.811919
0.770502
0.727547
0.682997
0.636793
0.588872
0.539171
0.487624
0.434162
0.378715
0.321207
0.261562
0.199702
0.135543
0.069
0
0
0.122479
0.244957
0.367432
0.489897
0.612312
0.734548
0.857163
0.956828
0
0.122479
0.244957
0.367433
0.4899
0.612328
0.73462
0.856963
0.954255
0
0.122479
0.244957
0.367433
0.489903
0.612345
0.734689
0.856264
0.952088
0
0.122479
0.244957
0.367434
0.489906
0.612361
0.734751
0.855782
0.950563
0
0.122479
0.244957
0.367435
0.489909
0.612376
0.734803
0.855495
0.949591
0
0.122479
0.244958
0.367435
0.489912
0.61239
0.73485
0.85539
0.949107
0
0.122479
0.244958
0.367436
0.489915
0.612401
0.734893
0.855454
0.949067
0
0.122479
0.244958
0.367437
0.489918
0.612411
0.734933
0.855676
0.949436
0
0.122479
0.244958
0.367437
0.48992
0.612419
0.734968
0.856046
0.95019
0
0.122479
0.244958
0.367438
0.489922
0.612426
0.734998
0.856553
0.951312
0
0.122479
0.244958
0.367438
0.489923
0.61243
0.735022
0.857187
0.95279
0
0.122479
0.244958
0.367438
0.489924
0.612434
0.735036
0.857938
0.954618
0
0.122479
0.244958
0.367438
0.489925
0.612436
0.735045
0.858801
0.956799
0
0.122479
0.244958
0.367439
0.489926
0.612437
0.735039
0.858947
0.959049
0
0.122479
0.244958
0.367439
0.489926
0.612436
0.735042
0.859443
1
0
0.122479
0.244957
0.367432
0.489897
0.612312
0.734548
0.857163
0.956828
0
0.122479
0.244957
0.367433
0.4899
0.612328
0.73462
0.856963
0.954255
0
0.122479
0.244957
0.367433
0.489903
0.612345
0.734689
0.856264
0.952088
0
0.122479
0.244957
0.367434
0.489906
0.612361
0.734751
0.855782
0.950563
0
0.122479
0.244957
0.367435
0.489909
0.612376
0.734803
0.855495
0.949591
0
0.122479
0.244958
0.367435
0.489912
0.61239
0.73485
0.85539
0.949107
0
0.122479
0.244958
0.367436
0.489915
0.612401
0.734893
0.855454
0.949067
0
0.122479
0.244958
0.367437
0.489918
0.612411
0.734933
0.855676
0.949436
0
0.122479
0.244958
0.367437
0.48992
0.612419
0.734968
0.856046
0.95019
0
0.122479
0.244958
0.367438
0.489922
0.612426
0.734998
0.856553
0.951312
0
0.122479
0.244958
0.367438
0.489923
0.61243
0.735022
0.857187
0.95279
0
0.122479
0.244958
0.367438
0.489924
0.612434
0.735036
0.857938
0.954618
0
0.122479
0.244958
0.367438
0.489925
0.612436
0.735045
0.858801
0.956799
0
0.122479
0.244958
0.367439
0.489926
0.612437
0.735039
0.858947
0.959049
0
0.122479
0.244958
0.367439
0.489926
0.612436
0.735042
0.859443
1
1
1
1
1
1
1
1
1
1
1
1
1
1
1
1
1
1
1
1
1
1
1
1
1
1
1
1
1
1
1
1
1
1
1
1
1
1
1
1
1
1
1
1
1
1
1
1
1
1
0.995934
0.999412
0.999891
0.999979
0.999996
0.999999
1
1
1
1
1
1
1
1
1
1
1
1
1
1
1
1
1
1
1
1
1
1
1
1
1
1
1
1
1
1
1
1
1
1
1
1
1
1
1
1
1
0.999998
0.999932
0.992057
0.993905
0.998971
0.999805
0.999963
0.999993
0.999999
1
1
1
1
1
1
1
1
1
1
1
1
1
1
1
1
1
1
1
1
1
1
1
1
1
1
1
1
1
1
1
1
1
1
1
1
1
1
1
1
1
0.999997
0.999873
0.991941
0.992381
0.998626
0.999737
0.99995
0.999991
0.999998
1
1
1
1
1
1
1
1
1
1
1
1
1
1
1
1
1
1
1
1
1
1
1
1
1
1
1
1
1
1
1
1
1
1
1
1
1
1
1
1
1
0.999995
0.999825
0.991884
0.991299
0.998373
0.999685
0.99994
0.999989
0.999998
1
1
1
1
1
1
1
1
1
1
1
1
1
1
1
1
1
1
1
1
1
1
1
1
1
1
1
1
1
1
1
1
1
1
1
1
1
1
1
1
1
0.999994
0.999787
0.991838
0.990599
0.998205
0.99965
0.999933
0.999987
0.999998
1
1
1
1
1
1
1
1
1
1
1
1
1
1
1
1
1
1
1
1
1
1
1
1
1
1
1
1
1
1
1
1
1
1
1
1
1
1
1
1
1
0.999993
0.99976
0.991804
0.990241
0.998118
0.999632
0.999929
0.999987
0.999998
1
1
1
1
1
1
1
1
1
1
1
1
1
1
1
1
1
1
1
1
1
1
1
1
1
1
1
1
1
1
1
1
1
1
1
1
1
1
1
1
1
0.999993
0.999741
0.991782
0.990193
0.998107
0.99963
0.999929
0.999987
0.999998
1
1
1
1
1
1
1
1
1
1
1
1
1
1
1
1
1
1
1
1
1
1
1
1
1
1
1
1
1
1
1
1
1
1
1
1
1
1
1
1
1
0.999992
0.999733
0.991771
0.990431
0.998166
0.999642
0.999931
0.999987
0.999998
1
1
1
1
1
1
1
1
1
1
1
1
1
1
1
1
1
1
1
1
1
1
1
1
1
1
1
1
1
1
1
1
1
1
1
1
1
1
1
1
1
0.999992
0.999734
0.991772
0.990937
0.99829
0.999668
0.999936
0.999988
0.999998
1
1
1
1
1
1
1
1
1
1
1
1
1
1
1
1
1
1
1
1
1
1
1
1
1
1
1
1
1
1
1
1
1
1
1
1
1
1
1
1
1
0.999993
0.999744
0.991783
0.991697
0.998472
0.999706
0.999944
0.999989
0.999998
1
1
1
1
1
1
1
1
1
1
1
1
1
1
1
1
1
1
1
1
1
1
1
1
1
1
1
1
1
1
1
1
1
1
1
1
1
1
1
1
1
0.999993
0.999764
0.991806
0.992701
0.998707
0.999754
0.999953
0.999991
0.999998
1
1
1
1
1
1
1
1
1
1
1
1
1
1
1
1
1
1
1
1
1
1
1
1
1
1
1
1
1
1
1
1
1
1
1
1
1
1
1
1
1
0.999994
0.999793
0.99184
0.993941
0.998987
0.99981
0.999964
0.999993
0.999999
1
1
1
1
1
1
1
1
1
1
1
1
1
1
1
1
1
1
1
1
1
1
1
1
1
1
1
1
1
1
1
1
1
1
1
1
1
1
1
1
1
0.999996
0.99983
0.991884
0.995411
0.999303
0.999872
0.999976
0.999995
0.999999
1
1
1
1
1
1
1
1
1
1
1
1
1
1
1
1
1
1
1
1
1
1
1
1
1
1
1
1
1
1
1
1
1
1
1
1
1
1
1
1
1
0.999997
0.999877
0.99194
0.997081
0.999644
0.999936
0.999988
0.999998
1
1
1
1
1
1
1
1
1
1
1
1
1
1
1
1
1
1
1
1
1
1
1
1
1
1
1
1
1
1
1
1
1
1
1
1
1
1
1
1
1
1
0.999998
0.999932
0.992058
1
1
1
1
1
1
1
1
1
1
1
1
1
1
1
1
1
1
1
1
1
1
1
1
1
1
1
1
1
1
1
1
1
1
1
1
1
1
1
1
1
1
1
1
1
1
1
1
1
1
1
1
1
1
1
1
1
1
1
1
1
1
1
1
1
1
1
1
1
1
1
1
1
1
1
1
1
1
1
1
1
1
1
1
1
1
1
1
1
1
1
1
1
1
1
1
1
1
1
0.995934
0.999412
0.999891
0.999979
0.999996
0.999999
1
1
1
1
1
1
1
1
1
1
1
1
1
1
1
1
1
1
1
1
1
1
1
1
1
1
1
1
1
1
1
1
1
1
1
1
1
1
1
1
1
0.999998
0.999932
0.992057
0.993905
0.998971
0.999805
0.999963
0.999993
0.999999
1
1
1
1
1
1
1
1
1
1
1
1
1
1
1
1
1
1
1
1
1
1
1
1
1
1
1
1
1
1
1
1
1
1
1
1
1
1
1
1
1
0.999997
0.999873
0.991941
0.992381
0.998626
0.999737
0.99995
0.999991
0.999998
1
1
1
1
1
1
1
1
1
1
1
1
1
1
1
1
1
1
1
1
1
1
1
1
1
1
1
1
1
1
1
1
1
1
1
1
1
1
1
1
1
0.999995
0.999825
0.991884
0.991299
0.998373
0.999685
0.99994
0.999989
0.999998
1
1
1
1
1
1
1
1
1
1
1
1
1
1
1
1
1
1
1
1
1
1
1
1
1
1
1
1
1
1
1
1
1
1
1
1
1
1
1
1
1
0.999994
0.999787
0.991838
0.990599
0.998205
0.99965
0.999933
0.999987
0.999998
1
1
1
1
1
1
1
1
1
1
1
1
1
1
1
1
1
1
1
1
1
1
1
1
1
1
1
1
1
1
1
1
1
1
1
1
1
1
1
1
1
0.999993
0.99976
0.991804
0.990241
0.998118
0.999632
0.999929
0.999987
0.999998
1
1
1
1
1
1
1
1
1
1
1
1
1
1
1
1
1
1
1
1
1
1
1
1
1
1
1
1
1
1
1
1
1
1
1
1
1
1
1
1
1
0.999993
0.999741
0.991782
0.990193
0.998107
0.99963
0.999929
0.999987
0.999998
1
1
1
1
1
1
1
1
1
1
1
1
1
1
1
1
1
1
1
1
1
1
1
1
1
1
1
1
1
1
1
1
1
1
1
1
1
1
1
1
1
0.999992
0.999733
0.991771
0.990431
0.998166
0.999642
0.999931
0.999987
0.999998
1
1
1
1
1
1
1
1
1
1
1
1
1
1
1
1
1
1
1
1
1
1
1
1
1
1
1
1
1
1
1
1
1
1
1
1
1
1
1
1
1
0.999992
0.999734
0.991772
0.990937
0.99829
0.999668
0.999936
0.999988
0.999998
1
1
1
1
1
1
1
1
1
1
1
1
1
1
1
1
1
1
1
1
1
1
1
1
1
1
1
1
1
1
1
1
1
1
1
1
1
1
1
1
1
0.999993
0.999744
0.991783
0.991697
0.998472
0.999706
0.999944
0.999989
0.999998
1
1
1
1
1
1
1
1
1
1
1
1
1
1
1
1
1
1
1
1
1
1
1
1
1
1
1
1
1
1
1
1
1
1
1
1
1
1
1
1
1
0.999993
0.999764
0.991806
0.992701
0.998707
0.999754
0.999953
0.999991
0.999998
1
1
1
1
1
1
1
1
1
1
1
1
1
1
1
1
1
1
1
1
1
1
1
1
1
1
1
1
1
1
1
1
1
1
1
1
1
1
1
1
1
0.999994
0.999793
0.99184
0.993941
0.998987
0.99981
0.999964
0.999993
0.999999
1
1
1
1
1
1
1
1
1
1
1
1
1
1
1
1
1
1
1
1
1
1
1
1
1
1
1
1
1
1
1
1
1
1
1
1
1
1
1
1
1
0.999996
0.99983
0.991884
0.995411
0.999303
0.999872
0.999976
0.999995
0.999999
1
1
1
1
1
1
1
1
1
1
1
1
1
1
1
1
1
1
1
1
1
1
1
1
1
1
1
1
1
1
1
1
1
1
1
1
1
1
1
1
1
0.999997
0.999877
0.99194
0.997081
0.999644
0.999936
0.999988
0.999998
1
1
1
1
1
1
1
1
1
1
1
1
1
1
1
1
1
1
1
1
1
1
1
1
1
1
1
1
1
1
1
1
1
1
1
1
1
1
1
1
1
1
0.999998
0.999932
0.992058
1
1
1
1
1
1
1
1
1
1
1
1
1
1
1
1
1
1
1
1
1
1
1
1
1
1
1
1
1
1
1
1
1
1
1
1
1
1
1
1
1
1
1
1
1
1
1
1
1
1
0.963012
0.927453
0.890359
0.851861
0.811928
0.770511
0.727556
0.683005
0.6368
0.588879
0.539179
0.487632
0.43417
0.378721
0.321213
0.261569
0.199708
0.13555
0.0690058
0
0.962942
0.927449
0.890359
0.851861
0.811928
0.770511
0.727556
0.683006
0.636801
0.58888
0.539179
0.487632
0.43417
0.378722
0.321214
0.261569
0.199709
0.13555
0.0690059
0
0.962916
0.927447
0.890359
0.851861
0.811928
0.770511
0.727556
0.683006
0.636801
0.58888
0.539179
0.487632
0.43417
0.378722
0.321214
0.261569
0.199709
0.13555
0.0690059
0
0.962894
0.927444
0.890359
0.851861
0.811928
0.770511
0.727556
0.683006
0.636801
0.58888
0.539179
0.487632
0.43417
0.378722
0.321214
0.261569
0.199709
0.13555
0.0690059
0
0.962874
0.927442
0.890359
0.851861
0.811928
0.770511
0.727556
0.683006
0.636801
0.58888
0.539179
0.487632
0.43417
0.378722
0.321214
0.261569
0.199709
0.13555
0.0690059
0
0.962857
0.92744
0.890358
0.851861
0.811928
0.770511
0.727556
0.683006
0.636801
0.58888
0.539179
0.487632
0.43417
0.378722
0.321214
0.261569
0.199709
0.13555
0.0690059
0
0.962843
0.927438
0.890358
0.851861
0.811928
0.770511
0.727556
0.683006
0.636801
0.58888
0.539179
0.487632
0.43417
0.378722
0.321214
0.261569
0.199709
0.13555
0.0690059
0
0.962832
0.927437
0.890358
0.851861
0.811928
0.770511
0.727556
0.683006
0.636801
0.58888
0.539179
0.487632
0.43417
0.378722
0.321214
0.261569
0.199709
0.13555
0.0690059
0
0.962823
0.927435
0.890358
0.85186
0.811928
0.770511
0.727556
0.683006
0.636801
0.58888
0.539179
0.487632
0.43417
0.378722
0.321214
0.261569
0.199709
0.13555
0.0690059
0
0.962817
0.927434
0.890358
0.85186
0.811928
0.770511
0.727556
0.683006
0.636801
0.58888
0.539179
0.487632
0.43417
0.378722
0.321214
0.261569
0.199709
0.13555
0.0690059
0
0.962813
0.927433
0.890358
0.85186
0.811928
0.770511
0.727556
0.683006
0.636801
0.58888
0.539179
0.487632
0.43417
0.378722
0.321214
0.261569
0.199709
0.13555
0.0690059
0
0.962812
0.927433
0.890358
0.85186
0.811928
0.770511
0.727556
0.683006
0.636801
0.58888
0.539179
0.487632
0.43417
0.378722
0.321214
0.261569
0.199709
0.13555
0.0690059
0
0.962814
0.927433
0.890358
0.85186
0.811928
0.770511
0.727556
0.683006
0.636801
0.58888
0.539179
0.487632
0.43417
0.378722
0.321214
0.261569
0.199708
0.13555
0.0690059
0
0.962859
0.927431
0.890356
0.851859
0.811926
0.770509
0.727554
0.683004
0.636799
0.588877
0.539177
0.487629
0.434167
0.378719
0.321211
0.261567
0.199706
0.135547
0.0690039
0
0.96284
0.92736
0.89028
0.851779
0.811843
0.770423
0.727465
0.682912
0.636704
0.58878
0.539076
0.487526
0.434062
0.378611
0.321101
0.261454
0.199592
0.135431
0.0688871
0
0.963012
0.927453
0.890359
0.851861
0.811928
0.770511
0.727556
0.683005
0.6368
0.588879
0.539179
0.487632
0.43417
0.378721
0.321213
0.261569
0.199708
0.13555
0.0690058
0
0.962942
0.927449
0.890359
0.851861
0.811928
0.770511
0.727556
0.683006
0.636801
0.58888
0.539179
0.487632
0.43417
0.378722
0.321214
0.261569
0.199709
0.13555
0.0690059
0
0.962916
0.927447
0.890359
0.851861
0.811928
0.770511
0.727556
0.683006
0.636801
0.58888
0.539179
0.487632
0.43417
0.378722
0.321214
0.261569
0.199709
0.13555
0.0690059
0
0.962894
0.927444
0.890359
0.851861
0.811928
0.770511
0.727556
0.683006
0.636801
0.58888
0.539179
0.487632
0.43417
0.378722
0.321214
0.261569
0.199709
0.13555
0.0690059
0
0.962874
0.927442
0.890359
0.851861
0.811928
0.770511
0.727556
0.683006
0.636801
0.58888
0.539179
0.487632
0.43417
0.378722
0.321214
0.261569
0.199709
0.13555
0.0690059
0
0.962857
0.92744
0.890358
0.851861
0.811928
0.770511
0.727556
0.683006
0.636801
0.58888
0.539179
0.487632
0.43417
0.378722
0.321214
0.261569
0.199709
0.13555
0.0690059
0
0.962843
0.927438
0.890358
0.851861
0.811928
0.770511
0.727556
0.683006
0.636801
0.58888
0.539179
0.487632
0.43417
0.378722
0.321214
0.261569
0.199709
0.13555
0.0690059
0
0.962832
0.927437
0.890358
0.851861
0.811928
0.770511
0.727556
0.683006
0.636801
0.58888
0.539179
0.487632
0.43417
0.378722
0.321214
0.261569
0.199709
0.13555
0.0690059
0
0.962823
0.927435
0.890358
0.85186
0.811928
0.770511
0.727556
0.683006
0.636801
0.58888
0.539179
0.487632
0.43417
0.378722
0.321214
0.261569
0.199709
0.13555
0.0690059
0
0.962817
0.927434
0.890358
0.85186
0.811928
0.770511
0.727556
0.683006
0.636801
0.58888
0.539179
0.487632
0.43417
0.378722
0.321214
0.261569
0.199709
0.13555
0.0690059
0
0.962813
0.927433
0.890358
0.85186
0.811928
0.770511
0.727556
0.683006
0.636801
0.58888
0.539179
0.487632
0.43417
0.378722
0.321214
0.261569
0.199709
0.13555
0.0690059
0
0.962812
0.927433
0.890358
0.85186
0.811928
0.770511
0.727556
0.683006
0.636801
0.58888
0.539179
0.487632
0.43417
0.378722
0.321214
0.261569
0.199709
0.13555
0.0690059
0
0.962814
0.927433
0.890358
0.85186
0.811928
0.770511
0.727556
0.683006
0.636801
0.58888
0.539179
0.487632
0.43417
0.378722
0.321214
0.261569
0.199708
0.13555
0.0690059
0
0.962859
0.927431
0.890356
0.851859
0.811926
0.770509
0.727554
0.683004
0.636799
0.588877
0.539177
0.487629
0.434167
0.378719
0.321211
0.261567
0.199706
0.135547
0.0690039
0
0.96284
0.92736
0.89028
0.851779
0.811843
0.770423
0.727465
0.682912
0.636704
0.58878
0.539076
0.487526
0.434062
0.378611
0.321101
0.261454
0.199592
0.135431
0.0688871
0
)
;

boundaryField
{
    internal
    {
        type            internal;
    }
    movingWall
    {
        type            uniformFixedValue;
        value           uniform 1;
        uniformValue    
        {
            type            square;
            amplitude       
            {
                type            constant;
                value           1;
            }
            frequency       150;
            start           0;
            level           
            {
                type            constant;
                value           0;
            }
            markSpace       1;
        }
    }
    farFieldMoving
    {
        type            uniformFixedValue;
        value           uniform 1;
        uniformValue    
        {
            type            square;
            amplitude       
            {
                type            constant;
                value           1;
            }
            frequency       150;
            start           0;
            level           
            {
                type            constant;
                value           0;
            }
            markSpace       1;
        }
    }
    fixedWall
    {
        type            uniformFixedValue;
        value           uniform 0;
        uniformValue    
        {
            type            constant;
            value           0;
        }
    }
    axis
    {
        type            empty;
    }
    left
    {
        type            uniformFixedValue;
        value           uniform 0;
        uniformValue    
        {
            type            constant;
            value           0;
        }
    }
    farField
    {
        type            slip;
    }
    back
    {
        type            wedge;
    }
    front
    {
        type            wedge;
    }
}


// ************************************************************************* //
