/*--------------------------------*- C++ -*----------------------------------*\
  =========                 |
  \\      /  F ield         | OpenFOAM: The Open Source CFD Toolbox
   \\    /   O peration     | Website:  https://openfoam.org
    \\  /    A nd           | Version:  13
     \\/     M anipulation  |
\*---------------------------------------------------------------------------*/
FoamFile
{
    format      ascii;
    class       volVectorField;
    location    "0.0003";
    object      U;
}
// * * * * * * * * * * * * * * * * * * * * * * * * * * * * * * * * * * * * * //

dimensions      [0 1 -1 0 0 0 0];

internalField   nonuniform List<vector> 
1690
(
(0.533712 -0.00155052 -1.78543e-17)
(0.552697 -0.00460285 1.91245e-17)
(0.592578 -0.00764194 7.95772e-17)
(0.650824 -0.0104879 1.29657e-16)
(0.728217 -0.0125152 1.5627e-16)
(0.808254 -0.0145387 1.76909e-16)
(0.922323 -0.0125806 6.46601e-17)
(0.962432 -0.00750173 5.7017e-17)
(0.5311 -0.00393951 8.80882e-19)
(0.550142 -0.0119167 1.54945e-17)
(0.590161 -0.0198576 1.86855e-16)
(0.648907 -0.0272685 3.73226e-16)
(0.726495 -0.0329126 2.85098e-16)
(0.808092 -0.0374486 3.23162e-16)
(0.922868 -0.0338618 2.18309e-16)
(0.961893 -0.0189667 1.79159e-16)
(0.526076 -0.00631419 1.74756e-18)
(0.545216 -0.0190576 2.38063e-17)
(0.585509 -0.0317442 1.75201e-16)
(0.644933 -0.0436167 3.19759e-16)
(0.723445 -0.0532065 2.00065e-16)
(0.806978 -0.0593 3.0876e-16)
(0.923403 -0.0558396 6.24149e-17)
(0.961729 -0.0288308 6.26456e-17)
(0.518422 -0.00881302 5.75005e-18)
(0.537662 -0.0266109 2.19834e-17)
(0.578298 -0.0444098 1.09159e-16)
(0.6386 -0.0611919 1.54278e-16)
(0.718754 -0.0750894 6.53929e-17)
(0.804862 -0.0832305 1.31225e-16)
(0.924183 -0.0792027 -2.15199e-16)
(0.962617 -0.039118 -1.2551e-16)
(0.508116 -0.0113374 -6.67938e-18)
(0.527423 -0.0342896 1.34005e-17)
(0.568419 -0.0574026 3.92984e-17)
(0.629776 -0.0794462 3.77418e-17)
(0.712238 -0.0980505 -2.85136e-17)
(0.801827 -0.108716 -7.63703e-17)
(0.925478 -0.103381 -3.74374e-16)
(0.964396 -0.0491191 -2.17482e-16)
(0.49515 -0.0138667 -1.15172e-18)
(0.514464 -0.0420341 1.57495e-18)
(0.555766 -0.0706669 8.33335e-18)
(0.618281 -0.0984069 -3.08614e-17)
(0.70367 -0.122323 -8.85941e-17)
(0.797895 -0.136096 -1.25222e-16)
(0.927694 -0.128704 -2.99941e-16)
(0.967215 -0.0583418 -1.91322e-16)
(0.479524 -0.0163813 -2.61862e-18)
(0.498736 -0.049799 5.14178e-18)
(0.540182 -0.0841782 -2.11978e-17)
(0.603825 -0.118173 -7.65674e-17)
(0.69269 -0.148287 -1.12811e-16)
(0.793032 -0.166053 -5.44875e-17)
(0.931505 -0.155651 -1.25912e-16)
(0.971468 -0.0662434 -1.17553e-16)
(0.461258 -0.0188492 -7.53972e-18)
(0.480193 -0.0574993 -5.07677e-18)
(0.521464 -0.0978468 -4.36713e-17)
(0.585993 -0.138789 -1.22963e-16)
(0.678736 -0.176371 -1.24118e-16)
(0.787175 -0.199609 1.11622e-17)
(0.938056 -0.184838 -3.19245e-17)
(0.977839 -0.0720001 -8.37486e-17)
(0.440411 -0.0212229 -2.41642e-18)
(0.458815 -0.0649953 -5.57432e-18)
(0.499381 -0.111484 -5.38627e-17)
(0.564223 -0.160191 -1.41791e-16)
(0.660909 -0.207057 -1.17593e-16)
(0.780023 -0.238277 2.46257e-17)
(0.948409 -0.217058 -2.78245e-17)
(0.987222 -0.0743915 -9.11005e-17)
(0.417108 -0.0234365 1.15485e-18)
(0.434633 -0.0720792 -1.95693e-18)
(0.473698 -0.124759 -5.03799e-17)
(0.537748 -0.182112 -1.34524e-16)
(0.637618 -0.240813 -9.35015e-17)
(0.769863 -0.283983 1.91918e-17)
(0.959951 -0.253276 -2.52837e-17)
(0.999672 -0.0721982 -8.17353e-17)
(0.391561 -0.0254046 -4.23376e-19)
(0.407763 -0.0784624 9.44945e-19)
(0.444199 -0.137131 -3.98741e-17)
(0.505496 -0.203853 -9.9616e-17)
(0.605983 -0.277619 -6.56804e-17)
(0.750615 -0.337975 7.08412e-18)
(0.958848 -0.295265 -4.03411e-19)
(1.011 -0.0661211 -4.21386e-17)
(0.36409 -0.0270242 1.9056e-19)
(0.378444 -0.0837612 1.61912e-19)
(0.410765 -0.147723 -3.47051e-17)
(0.466144 -0.223836 -7.97412e-17)
(0.561591 -0.315526 -5.4354e-17)
(0.709036 -0.397374 -1.26896e-17)
(0.916464 -0.345596 1.31338e-17)
(1.00762 -0.0610026 -8.01741e-18)
(0.335131 -0.0281757 -1.77683e-18)
(0.347082 -0.0874959 -4.75947e-18)
(0.373626 -0.155288 -3.63544e-17)
(0.419051 -0.239443 -7.30735e-17)
(0.500511 -0.349135 -5.84487e-17)
(0.629346 -0.451471 -1.63894e-17)
(0.804465 -0.404173 1.7877e-17)
(0.963634 -0.0689194 7.73735e-18)
(0.305212 -0.0287358 -3.26745e-19)
(0.314332 -0.0892151 -6.95894e-18)
(0.333869 -0.158672 -3.33407e-17)
(0.366296 -0.247878 -6.03774e-17)
(0.424276 -0.369516 -4.68295e-17)
(0.509002 -0.485715 -1.72009e-17)
(0.624104 -0.465268 1.67821e-17)
(0.836271 -0.14457 3.05691e-17)
(0.274878 -0.0286646 -1.48373e-19)
(0.281173 -0.0889017 -5.5931e-18)
(0.293842 -0.157795 -2.13186e-17)
(0.313507 -0.247657 -3.84193e-17)
(0.344102 -0.369203 -3.81028e-17)
(0.37401 -0.487789 -2.00973e-17)
(0.414543 -0.517586 1.6708e-17)
(0.59021 -0.327442 4.8293e-17)
(0.891965 0.0325224 -2.08508e-14)
(0.953883 0.0435703 -3.4112e-15)
(0.785818 0.0441009 2.0481e-15)
(0.725974 0.0417413 2.85326e-15)
(0.635047 0.0392156 2.38635e-15)
(0.552217 0.0360723 -3.04133e-15)
(0.473686 0.0325615 -1.86309e-14)
(0.400993 0.0288459 -2.93792e-14)
(0.334874 0.0250882 -1.3215e-14)
(0.275823 0.0214318 -1.35809e-15)
(0.223998 0.0179943 -9.90025e-15)
(0.17927 0.0148622 -1.63761e-14)
(0.141269 0.012091 -2.26034e-14)
(0.109435 0.00970808 -3.06799e-14)
(0.0830762 0.00771759 2.31285e-16)
(0.0614151 0.00610727 -6.69933e-15)
(0.0436274 0.00485697 -6.4095e-15)
(0.0288252 0.00395541 2.81791e-14)
(0.0159887 0.00339973 3.74521e-14)
(0.00455081 0.00271973 2.98729e-15)
(0.891021 0.0769093 -6.87954e-15)
(0.951762 0.10425 -1.31276e-15)
(0.782857 0.103824 1.01267e-14)
(0.721156 0.0991611 1.7428e-15)
(0.629708 0.0928845 7.2002e-15)
(0.546132 0.0853725 8.24345e-15)
(0.467282 0.0769949 -6.0582e-15)
(0.394577 0.0681458 -1.24335e-14)
(0.328711 0.0592081 -4.77889e-15)
(0.270115 0.0505237 8.35414e-15)
(0.218884 0.0423715 5.89876e-15)
(0.174827 0.0349557 1.11389e-14)
(0.137519 0.0284053 2.29935e-15)
(0.106361 0.0227815 -7.88438e-15)
(0.0806313 0.0180911 2.47785e-16)
(0.0595389 0.0143017 3.16756e-15)
(0.0422554 0.0113628 8.97776e-15)
(0.0278979 0.00924609 5.896e-15)
(0.0154619 0.00794569 9.65696e-15)
(0.00439342 0.00634074 1.97124e-15)
(0.891218 0.122436 8.83527e-16)
(0.947153 0.166702 2.5465e-15)
(0.776053 0.164498 1.08885e-15)
(0.712275 0.157401 6.01618e-16)
(0.618646 0.146804 2.84588e-15)
(0.533942 0.134434 4.97699e-15)
(0.454561 0.120752 2.3239e-15)
(0.381933 0.106429 -3.48271e-15)
(0.316649 0.0920845 -5.81359e-15)
(0.259017 0.0782597 -3.2711e-15)
(0.209 0.0653801 2.24981e-15)
(0.166285 0.0537447 2.71227e-15)
(0.130345 0.0435309 9.84397e-16)
(0.100504 0.0348099 -5.36077e-16)
(0.0759907 0.0275707 8.26001e-16)
(0.0559888 0.0217455 4.25181e-16)
(0.0396655 0.0172425 1.02287e-15)
(0.0261524 0.0140078 3.73382e-15)
(0.0144785 0.012026 1.77868e-14)
(0.00411226 0.00958451 7.84579e-15)
(0.891836 0.16918 4.36607e-15)
(0.940278 0.229509 4.55131e-15)
(0.76592 0.225608 -8.60675e-16)
(0.699353 0.215265 -6.13364e-16)
(0.602508 0.199862 -3.0708e-15)
(0.516374 0.182149 -2.79197e-15)
(0.436392 0.162764 2.10597e-15)
(0.364045 0.142696 1.59439e-15)
(0.29974 0.122813 6.53505e-16)
(0.243594 0.103844 -5.73271e-16)
(0.195375 0.0863378 2.38995e-15)
(0.154596 0.0706574 1.63916e-15)
(0.120592 0.0569979 -4.34136e-16)
(0.0925871 0.0454132 -6.57141e-16)
(0.0697491 0.0358526 -2.48746e-16)
(0.0512334 0.0281972 1.63457e-16)
(0.0362078 0.0223031 -1.21244e-15)
(0.0238281 0.0180828 -4.03867e-15)
(0.0131703 0.0155027 1.77377e-15)
(0.00373317 0.0123382 -3.68277e-15)
(0.892441 0.217105 1.15968e-15)
(0.931042 0.292756 -1.02117e-15)
(0.752488 0.286705 -5.75923e-16)
(0.682251 0.272268 -8.58745e-16)
(0.581488 0.251307 -2.49779e-15)
(0.493802 0.227606 -2.232e-15)
(0.41334 0.202025 7.23979e-16)
(0.341631 0.175921 1.00473e-15)
(0.278805 0.150404 7.88575e-16)
(0.224712 0.126368 1.03272e-16)
(0.178866 0.104441 6.61299e-16)
(0.140565 0.0850079 1.26001e-16)
(0.108983 0.0682369 -1.38251e-15)
(0.0832323 0.0541296 -1.82731e-15)
(0.0624197 0.0425687 1.57673e-16)
(0.0456783 0.0333661 2.11522e-15)
(0.0321856 0.0263151 6.19712e-15)
(0.021133 0.0212857 4.51927e-15)
(0.0116577 0.0182189 7.87385e-16)
(0.00329733 0.0144775 2.72866e-15)
(0.892869 0.266996 -4.22002e-16)
(0.919182 0.357257 -3.71392e-15)
(0.735521 0.348204 -2.49614e-15)
(0.660719 0.32866 -2.24905e-15)
(0.55557 0.301155 -1.25169e-15)
(0.46643 0.270674 4.09751e-16)
(0.38581 0.238324 1.65941e-15)
(0.315267 0.205871 -1.2973e-15)
(0.254529 0.17465 -1.1768e-15)
(0.203106 0.145669 -1.03104e-15)
(0.1602 0.119583 -2.6476e-15)
(0.124873 0.0967379 -2.25424e-15)
(0.0961217 0.0772282 1.04927e-15)
(0.0729538 0.0609659 1.47173e-15)
(0.0544229 0.0477422 -8.77114e-17)
(0.0396526 0.0372838 6.59196e-16)
(0.0278428 0.0293129 2.82295e-15)
(0.0182333 0.0236508 5.47531e-15)
(0.0100352 0.0202076 -9.2359e-16)
(0.00283129 0.0160314 -7.52996e-15)
(0.892946 0.319832 -2.48676e-16)
(0.904285 0.423865 -1.79351e-15)
(0.714598 0.41061 -1.02521e-15)
(0.634369 0.384658 -1.11914e-15)
(0.524615 0.349392 -6.15789e-16)
(0.434374 0.311208 1.30868e-15)
(0.354143 0.271467 2.3712e-15)
(0.285467 0.232373 -2.97842e-16)
(0.227532 0.195429 -1.31648e-15)
(0.179431 0.161691 -1.29973e-15)
(0.140021 0.131764 -1.41096e-15)
(0.108107 0.105891 -5.38611e-16)
(0.0825228 0.0840429 -4.98269e-16)
(0.0621824 0.0660072 1.27996e-16)
(0.0461055 0.0514608 -1.01735e-15)
(0.0334241 0.0400344 8.46728e-16)
(0.0233758 0.0313734 -1.06052e-15)
(0.0152618 0.0252477 1.69792e-15)
(0.00837791 0.021533 -2.52236e-16)
(0.00235678 0.0170541 -1.55262e-15)
(0.892426 0.376674 8.40532e-17)
(0.885766 0.493348 1.49134e-16)
(0.689133 0.474294 1.19565e-15)
(0.602702 0.440269 6.88128e-16)
(0.488437 0.395809 1.08352e-16)
(0.397743 0.348918 5.44553e-16)
(0.318685 0.301176 1.27702e-15)
(0.252748 0.255225 3.59132e-16)
(0.198414 0.212637 -6.09918e-16)
(0.154305 0.174421 -2.93607e-16)
(0.118908 0.141041 2.18783e-16)
(0.0907857 0.112571 4.37762e-16)
(0.0686252 0.0888088 -2.67182e-15)
(0.051276 0.0693871 -5.03793e-15)
(0.0377489 0.0538531 -1.94626e-15)
(0.0272058 0.0417346 -4.10882e-16)
(0.0189385 0.0325998 1.48593e-16)
(0.0123211 0.0261668 1.07852e-15)
(0.00674317 0.0222766 -7.45416e-16)
(0.00189028 0.0176137 3.22368e-16)
(0.890952 0.438744 -3.88422e-16)
(0.862853 0.56643 5.34123e-16)
(0.658381 0.539475 1.56224e-15)
(0.565143 0.495295 1.34384e-15)
(0.446865 0.440031 1.30714e-16)
(0.356692 0.383404 -6.80519e-16)
(0.279835 0.327132 -3.32e-16)
(0.217657 0.274238 -4.65045e-18)
(0.167774 0.226217 3.44118e-16)
(0.12831 0.183906 7.83259e-16)
(0.0973897 0.147534 1.85498e-17)
(0.0733573 0.116937 6.83659e-17)
(0.0547955 0.0916982 -1.10039e-15)
(0.0405237 0.0712736 -2.60314e-15)
(0.0295742 0.0550723 -3.15249e-15)
(0.0211613 0.0425187 -3.69105e-15)
(0.0146466 0.0331073 -6.06718e-16)
(0.00948738 0.0265075 -1.81029e-15)
(0.00517292 0.0225271 -2.60193e-15)
(0.00144366 0.0177832 1.92108e-15)
(0.888008 0.507491 -7.60985e-16)
(0.834541 0.643788 4.65298e-16)
(0.621435 0.606193 1.09956e-15)
(0.521084 0.549316 8.52771e-16)
(0.399791 0.481525 1.53847e-16)
(0.311465 0.414185 -6.7488e-16)
(0.238068 0.349004 -6.0441e-16)
(0.180781 0.289262 -3.93279e-16)
(0.13621 0.236168 2.59294e-16)
(0.101995 0.190256 6.38598e-16)
(0.0759316 0.151417 -1.04198e-16)
(0.0562018 0.11919 -4.18083e-16)
(0.0413309 0.0929127 -4.77078e-16)
(0.0301513 0.0718536 -6.31755e-16)
(0.021748 0.0552829 -8.26491e-16)
(0.0154099 0.0425269 -4.03464e-16)
(0.0105823 0.0330137 -9.81962e-16)
(0.00681358 0.0263694 2.84036e-18)
(0.0036959 0.0223724 1.2912e-15)
(0.00102493 0.0176342 1.94576e-15)
(0.88284 0.584671 -5.06749e-16)
(0.799541 0.726015 4.80178e-16)
(0.577232 0.674247 9.79725e-16)
(0.469927 0.601668 4.37516e-16)
(0.347227 0.519618 3.28967e-16)
(0.262425 0.440728 1.64283e-16)
(0.193949 0.366487 -1.16369e-17)
(0.142745 0.300208 -2.85074e-16)
(0.104306 0.242564 5.05306e-16)
(0.0758609 0.193644 5.70336e-16)
(0.0549384 0.15291 -6.55589e-16)
(0.0396301 0.11956 -1.80581e-15)
(0.0284627 0.092671 -1.08639e-15)
(0.0203261 0.0713213 -1.15585e-15)
(0.0143886 0.0546503 -1.33549e-15)
(0.0100331 0.0418967 2.09688e-15)
(0.00680012 0.0324322 6.28525e-16)
(0.00433374 0.0258469 2.52684e-16)
(0.00233009 0.0218947 1.62521e-15)
(0.000638971 0.0172333 7.51199e-16)
(0.874362 0.67246 -1.71718e-16)
(0.756199 0.813543 5.9816e-16)
(0.52458 0.743136 1.04052e-15)
(0.411161 0.651431 5.30542e-16)
(0.289359 0.553522 6.63183e-16)
(0.210078 0.462493 5.59484e-16)
(0.148134 0.379341 1.38759e-17)
(0.104198 0.307073 -1.51138e-16)
(0.0726234 0.245553 5.0173e-16)
(0.0503548 0.194298 2.44039e-16)
(0.0347467 0.152269 -4.82322e-16)
(0.0238855 0.118298 -9.81604e-16)
(0.0163608 0.0911971 6.03716e-17)
(0.0111635 0.0698686 -5.26733e-18)
(0.00757249 0.0533334 -8.27844e-16)
(0.00508072 0.040757 1.05886e-15)
(0.00333132 0.0314669 2.71412e-16)
(0.00206652 0.0250259 -9.3881e-16)
(0.00108488 0.0211683 3.34301e-16)
(0.000288221 0.0166399 1.76702e-16)
(0.860996 0.77362 -2.14913e-16)
(0.702398 0.906496 5.04576e-16)
(0.462213 0.811986 1.12441e-15)
(0.344429 0.697429 6.95597e-16)
(0.226588 0.582381 5.35683e-16)
(0.155081 0.478984 -5.1932e-17)
(0.101355 0.38742 -4.3181e-16)
(0.0657906 0.30995 -3.19019e-16)
(0.0416771 0.245358 1.79516e-17)
(0.025858 0.192494 -2.95928e-16)
(0.015623 0.149772 -3.4992e-16)
(0.00914622 0.115658 -1.80286e-16)
(0.00513974 0.0887121 3.25494e-16)
(0.00273449 0.0676779 -1.30916e-16)
(0.00134201 0.0514794 -6.79736e-16)
(0.000576854 0.0392248 4.97092e-16)
(0.000189136 0.0302109 -3.71629e-16)
(1.86811e-05 0.0239817 -2.64147e-15)
(-3.68786e-05 0.0202577 -5.84859e-16)
(-2.67097e-05 0.0159055 1.30476e-16)
(0.84045 0.891761 -5.09095e-16)
(0.635394 1.00443 2.2174e-16)
(0.388906 0.879491 1.01963e-15)
(0.269619 0.73826 7.25473e-16)
(0.15957 0.605329 7.38937e-17)
(0.0982336 0.489793 -6.49454e-16)
(0.0543935 0.390706 -7.23496e-16)
(0.0281469 0.309039 -3.07903e-16)
(0.0119201 0.242268 -3.46068e-16)
(0.00267895 0.188546 -4.69885e-16)
(-0.00223543 0.145717 -2.01945e-16)
(-0.00447001 0.111894 4.73777e-17)
(-0.00513471 0.0854242 -1.76176e-17)
(-0.00492769 0.0649163 -8.82966e-16)
(-0.0042884 0.0492195 -1.17916e-15)
(-0.00347422 0.0374028 5.92899e-16)
(-0.00262692 0.0287445 5.3777e-16)
(-0.00181186 0.0227789 -1.59739e-15)
(-0.00103714 0.0192179 -1.21098e-15)
(-0.000306568 0.0150732 2.81451e-16)
(0.809356 1.03168 -7.10347e-16)
(0.551587 1.10591 1.19584e-16)
(0.303669 0.943883 8.797e-16)
(0.18694 0.772332 5.36662e-16)
(0.0892293 0.621577 -3.0785e-16)
(0.0404531 0.494673 -7.21567e-16)
(0.00805168 0.389377 -6.27275e-16)
(-0.00816467 0.30457 -2.15446e-16)
(-0.0162716 0.236626 -3.51385e-17)
(-0.0189501 0.182781 2.09501e-16)
(-0.0186995 0.140388 5.8965e-16)
(-0.0169002 0.107245 1.96994e-16)
(-0.0144378 0.0815253 -6.28237e-17)
(-0.0118195 0.0617339 -6.03696e-16)
(-0.00932548 0.0466697 -8.5827e-16)
(-0.00708294 0.0353795 3.44587e-16)
(-0.00512726 0.027136 4.01665e-16)
(-0.00343343 0.0214714 -5.02888e-16)
(-0.00192117 0.0180943 -7.09713e-16)
(-0.000553045 0.0141787 1.12114e-16)
(0.76284 1.19954 -7.13451e-16)
(0.446245 1.20827 8.71054e-17)
(0.206064 1.00297 5.8837e-16)
(0.0970007 0.798022 2.2492e-16)
(0.0167706 0.630604 -3.68204e-16)
(-0.0172646 0.493324 -6.25277e-16)
(-0.0369254 0.383663 -4.60427e-16)
(-0.0426777 0.296964 -4.88999e-17)
(-0.0425824 0.228818 2.72523e-16)
(-0.0388748 0.175539 7.67169e-16)
(-0.0337007 0.134061 9.45231e-16)
(-0.0281243 0.101932 4.33283e-16)
(-0.0227762 0.0771864 3.68317e-16)
(-0.0179598 0.0582617 4.1202e-16)
(-0.0137917 0.0439287 -1.22484e-16)
(-0.0102704 0.0332293 -1.36655e-16)
(-0.00732921 0.0254416 -3.95745e-17)
(-0.00485857 0.0201035 2.1439e-16)
(-0.00269644 0.0169239 -7.14232e-17)
(-0.000768404 0.0132507 -3.89538e-16)
(0.694102 1.40218 -5.5316e-16)
(0.313217 1.3075 1.0496e-16)
(0.0964443 1.0541 2.30456e-16)
(0.000878984 0.813682 -6.5749e-17)
(-0.0564818 0.631821 -4.36147e-16)
(-0.0739726 0.486121 -5.23951e-16)
(-0.0797343 0.373917 -3.02098e-16)
(-0.0749764 0.286704 -5.26776e-17)
(-0.0668287 0.219242 1.60172e-16)
(-0.0570134 0.167146 6.44992e-16)
(-0.0472223 0.126997 9.4793e-16)
(-0.0381594 0.0961528 7.08376e-16)
(-0.0301824 0.0725567 9.31968e-16)
(-0.0233844 0.0546099 1.23046e-15)
(-0.0177203 0.0410782 3.15861e-16)
(-0.0130647 0.0310126 -3.02524e-16)
(-0.00925437 0.0237069 -2.32749e-16)
(-0.00610236 0.0187104 6.58427e-16)
(-0.0033717 0.0157359 3.89304e-16)
(-0.000955233 0.0123119 -6.60311e-16)
(0.596766 1.64896 -3.46054e-16)
(0.144673 1.40044 2.43949e-17)
(-0.0240954 1.09258 -4.20785e-17)
(-0.0999943 0.817896 -2.34491e-16)
(-0.128904 0.62476 -4.6044e-16)
(-0.128566 0.473689 -3.90622e-16)
(-0.119875 0.360688 -9.27823e-17)
(-0.104777 0.274231 -4.59954e-17)
(-0.088896 0.208288 -1.48261e-16)
(-0.0733455 0.157911 2.11161e-16)
(-0.0592909 0.119428 6.25216e-16)
(-0.0470518 0.0900799 8.09373e-16)
(-0.0367069 0.0677618 1.44794e-15)
(-0.0281404 0.0508702 1.77658e-15)
(-0.0211515 0.0381844 4.37201e-16)
(-0.0154977 0.028778 -2.76186e-16)
(-0.0109267 0.0219678 -1.41356e-16)
(-0.00718115 0.0173198 5.26582e-16)
(-0.00395625 0.0145533 4.31577e-16)
(-0.00111627 0.0113797 -4.25174e-16)
(0.447641 1.94156 -1.68358e-16)
(-0.069151 1.4793 -7.89381e-17)
(-0.154317 1.1127 -1.87898e-16)
(-0.202973 0.809937 -2.38905e-16)
(-0.198871 0.609655 -3.16194e-16)
(-0.180077 0.456507 -6.38637e-17)
(-0.156937 0.34455 1.49542e-16)
(-0.131908 0.260032 3.29652e-17)
(-0.108749 0.196328 -2.18459e-16)
(-0.0879036 0.148109 3.89958e-18)
(-0.0699662 0.111556 3.17018e-16)
(-0.0548681 0.0838585 6.4194e-16)
(-0.0424121 0.0629061 1.49978e-15)
(-0.0322815 0.0471168 1.79727e-15)
(-0.0241289 0.0353007 2.86555e-16)
(-0.0176033 0.0265637 -1.28701e-17)
(-0.0123708 0.0202523 -5.36112e-17)
(-0.00811154 0.0159527 4.22838e-16)
(-0.00445947 0.0133932 4.72175e-16)
(-0.00125422 0.0104673 -2.99613e-16)
(0.336118 2.28038 -2.36405e-17)
(-0.340444 1.55307 -8.34204e-17)
(-0.290456 1.10802 -1.8485e-16)
(-0.304602 0.78983 -1.48156e-16)
(-0.264929 0.586972 1.73867e-17)
(-0.227716 0.435294 2.99428e-16)
(-0.190645 0.326103 3.52414e-16)
(-0.156298 0.24458 1.84994e-16)
(-0.126424 0.183706 -7.54913e-18)
(-0.100761 0.137985 -4.43539e-19)
(-0.0793322 0.103554 6.04211e-17)
(-0.0616876 0.0776094 3.47972e-16)
(-0.0473669 0.0580739 1.18413e-15)
(-0.0358644 0.0434088 1.55616e-15)
(-0.0266971 0.0324682 3.03026e-16)
(-0.019415 0.0243989 2.45165e-16)
(-0.013611 0.0185811 -7.68359e-19)
(-0.00890975 0.0146247 7.07637e-16)
(-0.00489042 0.0122688 7.27117e-16)
(-0.00137158 0.00958404 -3.70892e-16)
(0.223997 -0.0277046 -8.61358e-19)
(0.227272 -0.0853846 -2.86647e-18)
(0.232039 -0.149719 -4.03176e-18)
(0.237387 -0.23073 -1.28926e-17)
(0.236763 -0.332729 -2.80554e-17)
(0.20911 -0.433446 -2.7402e-17)
(0.165259 -0.48886 -7.83744e-19)
(0.182358 -0.440343 3.33526e-17)
(0.161429 -0.024985 -1.47119e-19)
(0.161923 -0.0756798 -3.2101e-19)
(0.161134 -0.12929 1.78158e-18)
(0.157645 -0.188707 -1.59095e-18)
(0.143006 -0.256267 -1.85763e-17)
(0.104446 -0.326604 -2.95302e-17)
(0.048382 -0.379581 -2.11556e-17)
(0.0129079 -0.39274 -9.12022e-18)
(0.106883 -0.0218178 -6.94725e-19)
(0.10593 -0.0651283 4.10863e-19)
(0.102187 -0.109742 1.72391e-18)
(0.0953619 -0.156618 -1.52839e-18)
(0.0816329 -0.204563 -7.86808e-18)
(0.0551037 -0.248065 -1.51544e-17)
(0.0177214 -0.277927 -2.15937e-17)
(-0.0162499 -0.289211 -2.36986e-17)
(0.0604501 -0.0190441 -1.65268e-19)
(0.0593828 -0.0549256 1.16314e-18)
(0.0545101 -0.0911825 1.97653e-18)
(0.0459845 -0.128052 -2.24729e-18)
(0.0321413 -0.164685 -6.22148e-18)
(0.0121524 -0.198335 -7.80539e-18)
(-0.0118467 -0.224915 -7.07785e-18)
(-0.034265 -0.242008 -6.52792e-18)
(0.0220034 -0.0163914 -1.61732e-19)
(0.0216688 -0.0456225 -2.6181e-19)
(0.0165197 -0.0751419 -1.76967e-19)
(0.00856725 -0.104449 -1.42228e-18)
(-0.00306928 -0.132513 -2.3597e-18)
(-0.0185428 -0.157718 -2.35929e-18)
(-0.0362232 -0.178731 -1.26615e-18)
(-0.053621 -0.194705 6.64342e-19)
(-0.00979617 -0.0183803 -4.06299e-19)
(-0.0100303 -0.0380226 -4.7056e-19)
(-0.0147151 -0.0618467 -5.768e-19)
(-0.0217807 -0.0856114 -2.14364e-18)
(-0.0316755 -0.108225 -3.34855e-18)
(-0.0441391 -0.128736 -2.25818e-18)
(-0.0580289 -0.14652 4.0664e-18)
(-0.0722042 -0.161305 1.037e-17)
(-0.0352708 -0.0155743 -1.26605e-18)
(-0.0363846 -0.0316793 -1.96166e-18)
(-0.0401631 -0.0509747 -2.21328e-18)
(-0.0462665 -0.0701469 1.12002e-18)
(-0.0547641 -0.0883729 6.08605e-18)
(-0.0652696 -0.10508 8.37491e-18)
(-0.0769904 -0.120056 1.96412e-18)
(-0.0893252 -0.133179 -8.40574e-18)
(-0.0552326 -0.013721 7.46883e-20)
(-0.0569927 -0.0265629 -5.72375e-19)
(-0.0605052 -0.0419666 -2.21493e-19)
(-0.0660101 -0.0573466 6.18531e-18)
(-0.073546 -0.0720547 2.10596e-17)
(-0.0827768 -0.085699 3.14164e-17)
(-0.0931695 -0.0982192 2.25816e-17)
(-0.104362 -0.109521 -4.08748e-18)
(-0.0713254 -0.0115415 2.17855e-18)
(-0.0733564 -0.021911 2.04293e-18)
(-0.0767375 -0.0341598 -1.73677e-18)
(-0.0818616 -0.0464083 8.19477e-19)
(-0.0887584 -0.0581849 1.1262e-17)
(-0.0971712 -0.0692237 1.54237e-17)
(-0.106746 -0.0795306 6.39918e-18)
(-0.117221 -0.0890241 -4.33474e-18)
(-0.0841251 -0.00939512 1.36395e-18)
(-0.0862713 -0.0176407 2.83189e-18)
(-0.0895679 -0.0272381 2.95273e-18)
(-0.094443 -0.0368368 3.60689e-18)
(-0.100917 -0.0461022 1.74274e-18)
(-0.108802 -0.0548555 -1.20002e-17)
(-0.117867 -0.0631308 -2.71106e-17)
(-0.127896 -0.0708628 -3.08709e-17)
(-0.0940534 -0.00735598 -1.09544e-18)
(-0.096253 -0.0136974 1.9546e-18)
(-0.0994904 -0.0209947 3.06944e-18)
(-0.1042 -0.028289 -1.84046e-18)
(-0.110393 -0.0353455 -1.15656e-17)
(-0.117938 -0.0420482 -2.60405e-17)
(-0.126686 -0.0484413 -4.07157e-17)
(-0.13644 -0.0544768 -4.18684e-17)
(-0.101424 -0.00543288 -3.15582e-18)
(-0.103655 -0.0100324 -1.38316e-18)
(-0.106855 -0.0152865 5.6431e-18)
(-0.111455 -0.0205302 1.11322e-17)
(-0.117466 -0.0255974 1.16817e-17)
(-0.124791 -0.030423 6.80862e-18)
(-0.133335 -0.0350603 -6.90837e-18)
(-0.142916 -0.0394711 -2.07564e-17)
(-0.106205 -0.00360846 -1.49885e-18)
(-0.108473 -0.00658106 -6.49852e-19)
(-0.111664 -0.00997716 3.90094e-18)
(-0.116192 -0.0133591 6.13568e-18)
(-0.122069 -0.0166098 7.4162e-19)
(-0.129236 -0.0197173 -1.20552e-17)
(-0.137612 -0.0227614 -3.40523e-17)
(-0.147024 -0.025664 -5.43151e-17)
(-0.104883 -0.00187867 3.0483e-18)
(-0.107099 -0.00333157 6.26756e-18)
(-0.110171 -0.00505513 1.87458e-18)
(-0.114476 -0.0067746 -8.18219e-18)
(-0.120042 -0.00835297 -1.31035e-17)
(-0.126866 -0.00979092 -1.03288e-17)
(-0.134815 -0.0112566 -6.27613e-18)
(-0.143648 -0.0126233 -2.48135e-18)
(-0.069624 -0.000341813 1.79928e-18)
(-0.0710911 -0.000527551 5.11165e-18)
(-0.0730481 -0.000827493 4.35329e-18)
(-0.0757527 -0.00109803 -9.83801e-19)
(-0.0792737 -0.0013053 -3.69976e-18)
(-0.0837638 -0.00154127 -3.11174e-18)
(-0.088758 -0.00195709 -3.48631e-18)
(-0.0929537 -0.00238254 -3.0493e-18)
(0.277154 -0.271909 3.84673e-17)
(0.289961 -0.240902 2.43155e-17)
(0.311578 -0.227542 3.30933e-17)
(0.326056 -0.220493 2.73948e-17)
(0.336766 -0.215884 3.09165e-17)
(0.344973 -0.212847 2.91526e-17)
(0.35157 -0.210842 2.40562e-17)
(0.357094 -0.209518 1.92365e-17)
(0.361933 -0.208635 1.38506e-17)
(0.366364 -0.208034 1.574e-17)
(0.37058 -0.207608 1.67073e-17)
(0.374714 -0.207275 1.205e-17)
(0.378862 -0.206974 -3.16627e-18)
(0.383095 -0.206667 -1.30025e-17)
(0.387459 -0.206326 -1.78489e-17)
(0.391986 -0.205931 -1.02563e-17)
(0.396703 -0.205468 8.76157e-18)
(0.401629 -0.204925 2.3177e-17)
(0.40678 -0.204295 1.37027e-17)
(0.412162 -0.20357 4.5912e-18)
(0.417783 -0.202742 6.93219e-18)
(0.423654 -0.201807 4.69163e-18)
(0.429781 -0.200764 1.57738e-18)
(0.43618 -0.199602 -2.64347e-18)
(0.442863 -0.198319 1.48743e-17)
(0.449829 -0.196909 -7.16729e-19)
(0.457086 -0.195359 -8.05165e-18)
(0.464651 -0.193661 1.60609e-17)
(0.472535 -0.191813 3.81264e-17)
(0.480755 -0.189802 -2.58743e-17)
(0.489334 -0.187614 -2.80389e-17)
(0.498314 -0.185234 -4.66214e-17)
(0.507736 -0.182657 -3.36058e-17)
(0.517564 -0.179892 -5.36388e-17)
(0.527572 -0.176967 -4.80646e-17)
(0.537313 -0.173868 -2.93037e-17)
(0.546639 -0.170432 -2.46664e-17)
(0.557416 -0.166218 -2.40917e-17)
(0.576387 -0.160318 3.41498e-17)
(0.618036 -0.150951 6.82744e-17)
(0.707203 -0.13575 1.22906e-17)
(0.867981 -0.107463 -3.3172e-17)
(1.10207 -0.0585946 1.83814e-17)
(1.37233 0.0168404 -2.91384e-18)
(1.60454 0.110717 4.11294e-17)
(1.71722 0.19179 4.34119e-17)
(1.67222 0.21671 3.17305e-17)
(1.52248 0.176134 5.30762e-17)
(1.80276 0.108828 1.12381e-16)
(0.289162 0.208743 1.13802e-16)
(0.00995542 -0.373105 -9.0803e-19)
(0.0018612 -0.353578 2.49246e-18)
(-0.00143195 -0.343957 6.92449e-18)
(-0.0065417 -0.338777 5.59978e-18)
(-0.0118363 -0.336479 6.95639e-18)
(-0.0175888 -0.336051 2.09727e-18)
(-0.0236776 -0.336864 -7.59319e-18)
(-0.0300692 -0.338513 -2.05997e-17)
(-0.0367332 -0.340734 -3.23428e-17)
(-0.0436524 -0.343355 -3.60953e-17)
(-0.0508176 -0.346258 -3.54544e-17)
(-0.0582193 -0.349361 -3.19607e-17)
(-0.0658428 -0.352606 -1.93972e-17)
(-0.0736704 -0.355953 7.94893e-18)
(-0.0816818 -0.359372 4.18589e-17)
(-0.0898529 -0.362839 5.69155e-17)
(-0.0981568 -0.366339 4.3296e-17)
(-0.106565 -0.369858 3.80882e-18)
(-0.115045 -0.373388 -5.02202e-17)
(-0.123549 -0.376909 -8.29696e-17)
(-0.132021 -0.380395 -8.77471e-17)
(-0.140421 -0.383838 -7.56209e-17)
(-0.148704 -0.387226 -4.85524e-17)
(-0.156818 -0.390546 -5.29648e-17)
(-0.164708 -0.393783 -3.21422e-17)
(-0.172306 -0.39692 -6.36579e-18)
(-0.179528 -0.39994 1.70067e-17)
(-0.186278 -0.402819 -2.1079e-17)
(-0.192442 -0.405526 -6.16791e-17)
(-0.197874 -0.408029 -1.3948e-16)
(-0.202382 -0.410294 -1.93685e-16)
(-0.205748 -0.412277 -2.02593e-16)
(-0.207844 -0.413864 -1.88563e-16)
(-0.208818 -0.41481 -1.55448e-16)
(-0.209094 -0.414766 -8.37783e-17)
(-0.208549 -0.413602 -3.126e-17)
(-0.204096 -0.412062 2.29646e-17)
(-0.185785 -0.412254 2.68015e-17)
(-0.13431 -0.416844 1.25401e-17)
(-0.023715 -0.425627 -3.2859e-17)
(0.172712 -0.43076 -7.14934e-17)
(0.464006 -0.416225 -9.85758e-17)
(0.825298 -0.356267 -2.6494e-17)
(1.20414 -0.226432 -9.89443e-18)
(1.52499 -0.0221171 9.04887e-17)
(1.71698 0.203471 7.37181e-17)
(1.73684 0.342362 1.21697e-16)
(1.62493 0.310129 1.35448e-16)
(1.23966 0.289056 2.41206e-16)
(-0.699492 0.660473 3.09722e-16)
(-0.0381919 -0.291338 -1.45652e-17)
(-0.055899 -0.287097 -1.80217e-18)
(-0.0682855 -0.286612 2.5523e-18)
(-0.0795432 -0.287481 1.44596e-18)
(-0.0900999 -0.28961 -7.73134e-18)
(-0.100533 -0.292671 -2.57495e-17)
(-0.111072 -0.296441 -4.23309e-17)
(-0.12187 -0.300754 -5.33649e-17)
(-0.13301 -0.305493 -5.27398e-17)
(-0.144546 -0.310578 -3.95523e-17)
(-0.156515 -0.315951 -1.21292e-17)
(-0.16894 -0.321573 1.75093e-17)
(-0.181845 -0.327421 3.65115e-17)
(-0.195247 -0.33348 4.84009e-17)
(-0.209166 -0.339743 5.93985e-17)
(-0.223618 -0.346206 6.57421e-17)
(-0.238621 -0.352871 5.84355e-17)
(-0.254192 -0.359741 3.02084e-17)
(-0.27035 -0.366825 -1.35883e-17)
(-0.287119 -0.374141 -5.81412e-17)
(-0.304526 -0.381702 -8.2987e-17)
(-0.322569 -0.389506 -8.43296e-17)
(-0.341244 -0.397553 -4.4132e-17)
(-0.360536 -0.405846 -5.77251e-18)
(-0.380417 -0.414387 -3.83853e-19)
(-0.400833 -0.423167 -2.04427e-17)
(-0.42173 -0.432177 -7.53377e-17)
(-0.443032 -0.441409 -1.47096e-16)
(-0.464625 -0.450862 -2.27977e-16)
(-0.486334 -0.460532 -2.88681e-16)
(-0.507937 -0.470388 -3.01288e-16)
(-0.529236 -0.480275 -2.57432e-16)
(-0.550152 -0.489826 -1.69019e-16)
(-0.57059 -0.498568 -1.0066e-16)
(-0.589561 -0.506533 -4.31325e-17)
(-0.603156 -0.515401 -2.04058e-17)
(-0.602007 -0.529421 -1.69189e-17)
(-0.570452 -0.554742 -9.01317e-17)
(-0.489834 -0.596231 -1.41644e-16)
(-0.34537 -0.651963 -1.97166e-16)
(-0.132442 -0.708177 -2.25117e-16)
(0.140055 -0.741772 -1.63832e-16)
(0.444012 -0.716267 -2.98211e-17)
(0.737662 -0.594208 1.21602e-16)
(0.974558 -0.357134 2.43511e-16)
(1.11931 -0.0592029 3.2121e-16)
(1.14499 0.181896 3.20994e-16)
(0.938493 0.282067 3.27054e-16)
(-0.0654419 0.460549 4.84088e-16)
(-1.52937 1.04978 4.35749e-16)
(-0.0523124 -0.251914 -1.8005e-18)
(-0.0688824 -0.253911 2.77074e-18)
(-0.0817855 -0.256413 4.70812e-18)
(-0.09401 -0.25923 5.25198e-19)
(-0.105849 -0.262561 -7.18184e-18)
(-0.117643 -0.266367 -2.01131e-17)
(-0.129556 -0.270592 -3.17276e-17)
(-0.141721 -0.275178 -4.24587e-17)
(-0.154236 -0.280073 -4.08467e-17)
(-0.167176 -0.285238 -3.21083e-17)
(-0.180604 -0.290642 -1.42897e-17)
(-0.194571 -0.296267 1.14165e-17)
(-0.209123 -0.302103 3.92203e-17)
(-0.224304 -0.308146 6.62964e-17)
(-0.240154 -0.314397 1.00089e-16)
(-0.256717 -0.320864 1.33776e-16)
(-0.274032 -0.327557 1.39085e-16)
(-0.292145 -0.334489 1.02982e-16)
(-0.311098 -0.341673 3.27693e-17)
(-0.330935 -0.349128 -4.41004e-17)
(-0.351703 -0.356879 -9.04237e-17)
(-0.37345 -0.364955 -6.05891e-17)
(-0.396222 -0.373386 -1.06669e-17)
(-0.420063 -0.382208 6.38911e-18)
(-0.445017 -0.39146 -5.27752e-17)
(-0.471132 -0.401183 -1.47176e-16)
(-0.498424 -0.411421 -2.1977e-16)
(-0.526882 -0.422226 -2.7135e-16)
(-0.556447 -0.433664 -2.85369e-16)
(-0.587013 -0.445787 -2.59742e-16)
(-0.618454 -0.458583 -2.15896e-16)
(-0.650619 -0.47189 -1.37454e-16)
(-0.683187 -0.485469 -6.53961e-17)
(-0.715097 -0.499509 -1.68906e-17)
(-0.743372 -0.51569 -5.83531e-18)
(-0.761778 -0.538276 -3.20379e-17)
(-0.760674 -0.574047 -1.06954e-16)
(-0.729463 -0.630189 -2.1856e-16)
(-0.661045 -0.710467 -3.02062e-16)
(-0.554966 -0.810897 -3.07352e-16)
(-0.417383 -0.915976 -2.20898e-16)
(-0.260322 -0.996257 -9.9976e-17)
(-0.101804 -1.00862 7.70212e-17)
(0.0378258 -0.904954 3.08568e-16)
(0.138636 -0.665117 5.17769e-16)
(0.186974 -0.332555 6.54167e-16)
(0.100636 -0.00109283 5.99159e-16)
(-0.365008 0.285398 5.84643e-16)
(-1.35246 0.661199 5.83593e-16)
(-2.16713 1.27843 5.34572e-16)
(-0.0696849 -0.206191 4.57714e-18)
(-0.0851281 -0.211085 1.33457e-17)
(-0.0979006 -0.215393 1.95523e-17)
(-0.110167 -0.219526 2.57641e-17)
(-0.122179 -0.22378 3.09419e-17)
(-0.134208 -0.228205 3.18108e-17)
(-0.146393 -0.232814 2.29009e-17)
(-0.158851 -0.237609 5.34497e-18)
(-0.171675 -0.242586 -1.15217e-17)
(-0.18494 -0.247741 -2.31675e-17)
(-0.198709 -0.25307 -2.49439e-17)
(-0.21304 -0.258575 -1.83882e-17)
(-0.227987 -0.264258 -2.99331e-18)
(-0.243598 -0.270125 1.91768e-17)
(-0.259925 -0.276186 5.44369e-17)
(-0.277017 -0.282453 8.88932e-17)
(-0.294927 -0.28894 9.82181e-17)
(-0.313708 -0.295664 7.17519e-17)
(-0.333416 -0.302646 8.45269e-18)
(-0.354109 -0.30991 -4.66888e-17)
(-0.375849 -0.317485 -6.43332e-17)