/*--------------------------------*- C++ -*----------------------------------*\
  =========                 |
  \\      /  F ield         | OpenFOAM: The Open Source CFD Toolbox
   \\    /   O peration     | Website:  https://openfoam.org
    \\  /    A nd           | Version:  13
     \\/     M anipulation  |
\*---------------------------------------------------------------------------*/
FoamFile
{
    format      ascii;
    class       surfaceVectorField;
    location    "0.0003";
    object      Uf;
}
// * * * * * * * * * * * * * * * * * * * * * * * * * * * * * * * * * * * * * //

dimensions      [0 1 -1 0 0 0 0];

internalField   nonuniform List<vector> 
3252
(
(0.543253 -0.00307668 6.35059e-19)
(0.532733 -0.00248642 -1.08286e-17)
(0.572668 -0.00612239 4.93508e-17)
(0.551739 -0.00749273 1.77632e-17)
(0.621662 -0.00906488 1.04616e-16)
(0.591672 -0.0124797 1.19807e-16)
(0.688977 -0.0115014 1.42962e-16)
(0.650105 -0.0171456 2.20995e-16)
(0.769469 -0.0135262 1.66582e-16)
(0.727571 -0.0204978 2.04581e-16)
(0.862941 -0.0135668 1.21193e-16)
(0.808194 -0.0237702 2.31754e-16)
(0.94541 -0.0101784 6.10456e-17)
(0.922527 -0.0206691 1.22279e-16)
(0.96223 -0.0122754 1.0282e-16)
(0.540668 -0.00792812 8.18767e-18)
(0.528816 -0.00498659 1.27483e-18)
(0.570209 -0.0158872 1.01175e-16)
(0.547903 -0.0150336 1.92726e-17)
(0.619389 -0.023563 2.80039e-16)
(0.588047 -0.0250302 1.81558e-16)
(0.686903 -0.0300903 3.29166e-16)
(0.647101 -0.0343674 3.48923e-16)
(0.769458 -0.035179 3.04117e-16)
(0.725109 -0.041784 2.46447e-16)
(0.861042 -0.0356683 2.71115e-16)
(0.807586 -0.0468201 3.16616e-16)
(0.949753 -0.026816 1.99796e-16)
(0.923111 -0.0436885 1.47446e-16)
(0.961818 -0.0230852 1.262e-16)
(0.535692 -0.0126859 1.27769e-17)
(0.52247 -0.00750483 3.63335e-18)
(0.565421 -0.0254009 9.95034e-17)
(0.541656 -0.0226431 2.29474e-17)
(0.61502 -0.0376803 2.47479e-16)
(0.582112 -0.0377429 1.44085e-16)
(0.683371 -0.0484111 2.59918e-16)
(0.641949 -0.0519276 2.41792e-16)
(0.767492 -0.0562511 2.54375e-16)
(0.721235 -0.0635595 1.36614e-16)
(0.86036 -0.0575824 1.86468e-16)
(0.805981 -0.0705753 2.25113e-16)
(0.951004 -0.0430657 6.25248e-17)
(0.923771 -0.0670012 -6.83902e-17)
(0.962147 -0.0337508 -2.60007e-17)
(0.52809 -0.0177119 1.38667e-17)
(0.513488 -0.0100408 -2.00209e-19)
(0.558029 -0.0355103 6.55711e-17)
(0.53276 -0.0303276 1.78746e-17)
(0.608208 -0.0528007 1.31718e-16)
(0.573569 -0.0506748 7.57151e-17)
(0.677816 -0.06814 1.0984e-16)
(0.634375 -0.0699731 9.84894e-17)
(0.7641 -0.0791572 9.82865e-17)
(0.715634 -0.0861222 2.04377e-17)
(0.859682 -0.081231 -4.07695e-17)
(0.803409 -0.0954699 3.18438e-17)
(0.952271 -0.06025 -1.72809e-16)
(0.924803 -0.0908882 -2.91404e-16)
(0.963469 -0.0440909 -1.69536e-16)
(0.517817 -0.0228135 3.36055e-18)
(0.501852 -0.0125849 -4.00892e-18)
(0.547954 -0.0458461 2.63494e-17)
(0.521162 -0.0380796 7.68747e-18)
(0.598815 -0.0684242 3.85201e-17)
(0.562306 -0.0638591 2.43389e-17)
(0.670067 -0.0887475 4.6173e-18)
(0.624223 -0.088646 4.59908e-18)
(0.759313 -0.103379 -5.2426e-17)
(0.708099 -0.109807 -5.7539e-17)
(0.858919 -0.106067 -2.2435e-16)
(0.799927 -0.121973 -9.9971e-17)
(0.954172 -0.0777346 -3.00248e-16)
(0.926548 -0.115731 -3.38412e-16)
(0.965758 -0.053816 -2.04845e-16)
(0.504853 -0.0279504 2.11616e-19)
(0.487556 -0.0151226 -1.8646e-18)
(0.535127 -0.0563505 4.95414e-18)
(0.50682 -0.0458702 3.30836e-18)
(0.586691 -0.0845367 -1.12637e-17)
(0.548192 -0.0772956 -6.01822e-18)
(0.659915 -0.110364 -5.9725e-17)
(0.611256 -0.108065 -5.30736e-17)
(0.75303 -0.129205 -1.06896e-16)
(0.698334 -0.134979 -1.00363e-16)
(0.858226 -0.132425 -2.12001e-16)
(0.795531 -0.150694 -9.0846e-17)
(0.95714 -0.0954642 -2.48647e-16)
(0.929546 -0.141971 -2.15358e-16)
(0.969282 -0.0625093 -1.55475e-16)
(0.489173 -0.0330901 1.26158e-18)
(0.47061 -0.0176292 -5.02019e-18)
(0.519443 -0.0669886 -8.02795e-18)
(0.489686 -0.0536363 1.54987e-19)
(0.571608 -0.101175 -4.88821e-17)
(0.531047 -0.0909298 -3.21652e-17)
(0.64703 -0.133229 -9.46875e-17)
(0.595123 -0.128304 -9.92091e-17)
(0.745032 -0.157164 -8.36677e-17)
(0.68588 -0.162046 -1.18329e-16)
(0.857924 -0.160886 -8.99717e-17)
(0.790174 -0.182491 -2.24493e-17)
(0.961785 -0.113439 -1.21967e-16)
(0.934702 -0.170151 -8.00398e-17)
(0.974577 -0.0695342 -1.01058e-16)
(0.470765 -0.0381742 -6.30825e-18)
(0.451053 -0.0200655 -5.03172e-18)
(0.500779 -0.077673 -2.4374e-17)
(0.469728 -0.0612664 -5.32034e-18)
(0.553252 -0.118318 -8.33165e-17)
(0.510654 -0.104625 -4.86603e-17)
(0.630921 -0.157578 -1.2354e-16)
(0.575336 -0.149359 -1.3218e-16)
(0.734962 -0.187983 -5.65191e-17)
(0.670009 -0.191469 -1.20924e-16)
(0.8586 -0.192269 -1.02501e-17)
(0.783674 -0.218644 1.7753e-17)
(0.969063 -0.1316 -5.6367e-17)
(0.943125 -0.200965 -2.99171e-17)
(0.982431 -0.0738918 -8.73471e-17)
(0.449647 -0.0431091 -3.99537e-18)
(0.428976 -0.0223743 -6.63989e-19)
(0.47901 -0.0882394 -2.97184e-17)
(0.446948 -0.0685868 -3.79926e-18)
(0.531226 -0.135837 -9.78261e-17)
(0.486779 -0.118123 -5.21537e-17)
(0.610845 -0.183622 -1.29693e-16)
(0.551232 -0.171069 -1.38225e-16)
(0.722155 -0.222658 -4.65257e-17)
(0.64948 -0.223738 -1.05771e-16)
(0.860712 -0.227729 -1.44915e-18)
(0.775037 -0.260923 2.19592e-17)
(0.979978 -0.1498 -5.76447e-17)
(0.954074 -0.235343 -2.65775e-17)
(0.99333 -0.0742142 -8.65056e-17)
(0.425897 -0.0477578 -4.01039e-19)
(0.404548 -0.0244788 3.78935e-19)
(0.454037 -0.098419 -2.61684e-17)
(0.421423 -0.0753469 -5.30258e-19)
(0.505026 -0.153435 -9.24512e-17)
(0.459195 -0.130987 -4.52148e-17)
(0.585603 -0.21146 -1.14014e-16)
(0.521892 -0.192958 -1.17362e-16)
(0.7049 -0.262386 -3.71867e-17)
(0.622065 -0.259088 -7.98235e-17)
(0.862165 -0.268711 -2.92757e-18)
(0.7604 -0.31084 1.32391e-17)
(0.993245 -0.167987 -5.1864e-17)
(0.959409 -0.274573 -1.30496e-17)
(1.00524 -0.0697468 -6.22711e-17)
(0.399679 -0.0519335 2.60784e-19)
(0.378034 -0.0262825 -1.21072e-19)
(0.425815 -0.107797 -1.94645e-17)
(0.393326 -0.0812063 5.59377e-19)
(0.474001 -0.170492 -6.97446e-17)
(0.427736 -0.142512 -3.73289e-17)
(0.553173 -0.240733 -8.26496e-17)
(0.486119 -0.213915 -8.98296e-17)
(0.678708 -0.307781 -2.93178e-17)
(0.584124 -0.296567 -6.01032e-17)
(0.853092 -0.316724 3.35856e-18)
(0.730141 -0.367274 -2.65264e-18)
(0.999585 -0.187445 -2.00362e-17)
(0.937974 -0.320185 6.2636e-18)
(1.00933 -0.0636957 -2.53401e-17)
(0.371273 -0.0553927 1.76236e-19)
(0.349812 -0.0276721 -7.79442e-19)
(0.394405 -0.115742 -1.72716e-17)
(0.362981 -0.0857324 -2.26452e-18)
(0.437421 -0.185779 -5.72228e-17)
(0.392454 -0.151636 -3.55183e-17)
(0.510641 -0.269678 -6.70486e-17)
(0.442925 -0.231834 -7.64538e-17)
(0.63473 -0.356429 -3.35326e-17)
(0.531476 -0.332423 -5.63728e-17)
(0.812896 -0.371597 1.65996e-19)
(0.669745 -0.423545 -1.45138e-17)
(0.977005 -0.211837 3.19729e-18)
(0.861233 -0.37299 1.54729e-17)
(0.985937 -0.0683887 -2.51166e-19)
(0.341094 -0.0578358 -3.26815e-18)
(0.320364 -0.0285287 -1.0611e-18)
(0.360121 -0.121392 -2.05569e-17)
(0.330918 -0.0884578 -5.84508e-18)
(0.395092 -0.197365 -5.47137e-17)
(0.354003 -0.157102 -3.48669e-17)
(0.455938 -0.294285 -6.57617e-17)
(0.393012 -0.243804 -6.6807e-17)
(0.562867 -0.400278 -3.74295e-17)
(0.462883 -0.35922 -5.27137e-17)
(0.7197 -0.427911 6.79288e-19)
(0.569946 -0.467698 -1.679e-17)
(0.897949 -0.246799 1.31188e-17)
(0.715423 -0.431056 1.73365e-17)
(0.900784 -0.107124 1.90042e-17)
(0.309716 -0.0589754 -3.64284e-18)
(0.290226 -0.0287598 -2.38623e-19)
(0.323819 -0.123943 -2.01498e-17)
(0.29795 -0.0890672 -6.28416e-18)
(0.348697 -0.203275 -4.68589e-17)
(0.314094 -0.158102 -2.74013e-17)
(0.391366 -0.308693 -5.3604e-17)
(0.340216 -0.24735 -4.95293e-17)
(0.462843 -0.427588 -3.20222e-17)
(0.384667 -0.368667 -4.25181e-17)
(0.569336 -0.475523 -2.6249e-19)
(0.442311 -0.486546 -1.86318e-17)
(0.745286 -0.314916 2.32431e-17)
(0.520567 -0.486273 1.67455e-17)
(0.714715 -0.20921 3.93248e-17)
(0.277857 -0.0587832 -2.87073e-18)
(0.259989 -0.0283575 -3.57016e-19)
(0.287112 -0.123348 -1.34558e-17)
(0.265399 -0.0876873 -4.7952e-18)
(0.302237 -0.202726 -2.98688e-17)
(0.275756 -0.155011 -1.62599e-17)
(0.325123 -0.308426 -3.82611e-17)
(0.291232 -0.24213 -3.09494e-17)
(0.35389 -0.428469 -2.91041e-17)
(0.312691 -0.358253 -3.51626e-17)
(0.391107 -0.502643 -1.74953e-18)
(0.325754 -0.472417 -2.22349e-17)
(0.524242 -0.428548 3.15046e-17)
(0.341593 -0.518906 1.15893e-17)
(0.4686 -0.40023 4.38382e-17)
(0.939462 0.0379317 -1.23119e-14)
(0.891594 0.0504437 -1.53545e-14)
(0.855113 0.0438308 -7.32713e-16)
(0.953049 0.067428 -2.58568e-15)
(0.766498 0.0429426 2.4433e-15)
(0.784653 0.0682313 5.22621e-15)
(0.679453 0.0405015 2.62406e-15)
(0.724079 0.0646116 2.41641e-15)
(0.594648 0.0376726 -2.77991e-16)
(0.632947 0.0606916 4.28011e-15)
(0.513752 0.0343489 -1.0694e-14)
(0.549824 0.0558206 1.39809e-15)
(0.438024 0.0307376 -2.3907e-14)
(0.471167 0.050382 -1.36848e-14)
(0.368452 0.0270013 -2.14445e-14)
(0.398469 0.0446284 -2.27127e-14)
(0.305701 0.0232933 -7.39466e-15)
(0.33245 0.0388108 -9.89622e-15)
(0.250109 0.0197444 -5.55127e-15)
(0.273577 0.0331514 2.46269e-15)
(0.201703 0.0164568 -1.30791e-14)
(0.221986 0.0278317 -3.68494e-15)
(0.160241 0.0135019 -1.94329e-14)
(0.177522 0.0229857 -5.55173e-15)
(0.125257 0.0109213 -2.6568e-14)
(0.139794 0.0186989 -1.28067e-14)
(0.0961259 0.00873099 -1.55062e-14)
(0.108226 0.0150131 -2.17122e-14)
(0.0721076 0.00692712 -3.17082e-15)
(0.0821144 0.0119346 2.37776e-16)
(0.052395 0.00549353 -6.55706e-15)
(0.060677 0.00944421 -2.81771e-15)
(0.036136 0.00441442 1.05693e-14)
(0.0430876 0.00751058 -3.5617e-16)
(0.0224028 0.00368264 3.2731e-14)
(0.0284604 0.00611654 1.94129e-14)
(0.010159 0.00306599 2.05367e-14)
(0.0157814 0.00525784 2.65175e-14)
(0.00448889 0.00420497 2.58758e-15)
(0.939041 0.0902957 -4.15393e-15)
(0.891115 0.0978333 -3.18811e-15)
(0.851842 0.104041 4.2998e-15)
(0.949571 0.133325 5.22348e-16)
(0.763018 0.101535 6.01153e-15)
(0.779622 0.131889 5.82911e-15)
(0.674474 0.0960801 4.4217e-15)
(0.716933 0.126246 1.20016e-15)
(0.58883 0.089197 7.71231e-15)
(0.624448 0.11796 5.12967e-15)
(0.507423 0.0812601 1.22306e-15)
(0.540336 0.108211 6.69021e-15)
(0.431512 0.072651 -9.18769e-15)
(0.461233 0.0973905 -2.07242e-15)
(0.362046 0.0637584 -8.67598e-15)
(0.388565 0.08602 -8.17728e-15)
(0.299641 0.0549451 1.66786e-15)
(0.322975 0.0745892 -5.2709e-15)
(0.244571 0.046522 7.14884e-15)
(0.264838 0.0635302 2.82621e-15)
(0.196801 0.0387313 8.47105e-15)
(0.214184 0.0531888 4.16364e-15)
(0.156029 0.0317402 6.79975e-15)
(0.170765 0.0438134 7.13195e-15)
(0.121742 0.0256447 -2.69964e-15)
(0.134108 0.0355562 1.67408e-15)
(0.093278 0.0204791 -3.89246e-15)
(0.103576 0.0284846 -4.39018e-15)
(0.0698741 0.016231 1.68105e-15)
(0.0784247 0.0225985 5.22733e-16)
(0.050713 0.012859 6.01967e-15)
(0.0578508 0.0178509 1.86353e-15)
(0.0349433 0.0103237 7.46498e-15)
(0.0410239 0.0141736 5.19512e-15)
(0.0216471 0.00860776 7.74218e-15)
(0.0270679 0.011528 4.86786e-15)
(0.00979978 0.00715798 5.88475e-15)
(0.0149943 0.00990536 1.35228e-14)
(0.00425972 0.0079043 4.76467e-15)
(0.936485 0.14411 1.69773e-15)
(0.891522 0.1449 2.59781e-15)
(0.84658 0.165621 1.83132e-15)
(0.943769 0.197088 3.53335e-15)
(0.755035 0.161014 8.49697e-16)
(0.771065 0.19408 1.29205e-16)
(0.664408 0.152199 1.70327e-15)
(0.705914 0.185483 3.54664e-18)
(0.577255 0.140732 3.892e-15)
(0.610702 0.172605 -6.6592e-17)
(0.494979 0.127718 3.67464e-15)
(0.525294 0.157689 1.15274e-15)
(0.418831 0.113721 -5.26452e-16)
(0.445617 0.141286 2.21663e-15)
(0.349687 0.0993875 -4.62689e-15)
(0.373128 0.124217 -9.83524e-16)
(0.28805 0.0852982 -4.56553e-15)
(0.308326 0.107216 -2.63018e-15)
(0.234069 0.0719374 -5.60995e-16)
(0.251425 0.0909122 -1.9431e-15)
(0.18758 0.0596685 2.47682e-15)
(0.202293 0.0757909 2.3188e-15)
(0.148166 0.048731 1.86409e-15)
(0.160531 0.062185 2.18403e-15)
(0.115226 0.0392499 2.38026e-16)
(0.125544 0.0502829 2.86128e-16)
(0.0880315 0.0312563 1.32541e-16)
(0.0966067 0.0401508 -5.95671e-16)
(0.0657829 0.0247112 6.29247e-16)
(0.0729183 0.031761 2.96959e-16)
(0.0476476 0.0195351 7.18573e-16)
(0.0536479 0.0250239 2.96348e-16)
(0.0327792 0.0156547 2.35362e-15)
(0.0379635 0.0198245 -7.74567e-17)
(0.0202822 0.013035 1.06322e-14)
(0.0250083 0.0160945 -9.21656e-17)
(0.00917362 0.0108277 1.29076e-14)
(0.0138346 0.0138113 9.90443e-15)
(0.00392565 0.0110075 2.17086e-15)
(0.932818 0.198717 4.45676e-15)
(0.892139 0.192448 2.76343e-15)
(0.838712 0.227596 1.89594e-15)
(0.935662 0.260437 1.76609e-15)
(0.743335 0.220531 -7.39283e-16)
(0.759207 0.255555 -7.1835e-16)
(0.649706 0.207704 -1.81966e-15)
(0.690805 0.243257 -7.36011e-16)
(0.560496 0.191167 -2.93393e-15)
(0.592002 0.225186 -2.7844e-15)
(0.477127 0.172633 -3.87666e-16)
(0.505092 0.204583 -2.51209e-15)
(0.40081 0.152913 1.85484e-15)
(0.42487 0.182206 1.41522e-15)
(0.332286 0.132936 1.13253e-15)
(0.352842 0.159217 1.29966e-15)
(0.271879 0.113502 5.13049e-17)
(0.289277 0.136598 7.21016e-16)
(0.219542 0.0952507 8.81318e-16)
(0.234157 0.115157 -2.35119e-16)
(0.174924 0.0786406 2.02141e-15)
(0.187123 0.0954811 1.52593e-15)
(0.137452 0.0639522 6.21421e-16)
(0.147583 0.0779477 8.82851e-16)
(0.106403 0.0513112 -5.43605e-16)
(0.11479 0.0627416 -9.08153e-16)
(0.080967 0.0407201 -4.56668e-16)
(0.0879113 0.0498944 -1.24202e-15)
(0.0602999 0.0320947 -4.64037e-17)
(0.0660857 0.0393258 -4.56087e-17)
(0.0435556 0.0253039 -5.11943e-16)
(0.0484568 0.0308856 1.13899e-15)
(0.0298992 0.0202315 -2.59978e-15)
(0.0341974 0.0244012 2.49102e-15)
(0.0184697 0.0168163 -1.18545e-15)
(0.022481 0.019766 2.38782e-16)
(0.00834012 0.0139495 -9.04414e-16)
(0.0124143 0.0169357 1.28075e-15)
(0.00351533 0.0134769 -4.78183e-16)
(0.927863 0.254141 9.2018e-17)
(0.892657 0.241437 3.6221e-16)
(0.828138 0.289787 -8.02706e-16)
(0.925063 0.324486 -2.3788e-15)
(0.727855 0.279618 -7.14746e-16)
(0.743933 0.31704 -1.54407e-15)
(0.630459 0.261979 -1.66331e-15)
(0.671395 0.30014 -1.55972e-15)
(0.538819 0.239673 -2.36732e-15)
(0.56842 0.276013 -1.86952e-15)
(0.454324 0.215049 -7.80969e-16)
(0.480001 0.249014 -9.00068e-16)
(0.378077 0.189211 8.61792e-16)
(0.39946 0.220139 1.19561e-15)
(0.310601 0.163395 8.98622e-16)
(0.328339 0.190939 -1.55923e-16)
(0.25196 0.138605 4.52174e-16)
(0.266566 0.162632 -2.02339e-16)
(0.201841 0.115604 3.77197e-16)
(0.213819 0.136165 -4.68634e-16)
(0.159656 0.0949018 3.98531e-16)
(0.169455 0.112181 -1.007e-15)
(0.124641 0.0767754 -6.14497e-16)
(0.132653 0.0910484 -1.07408e-15)
(0.095936 0.0613119 -1.60085e-15)
(0.102499 0.0729031 -1.5644e-16)
(0.0726435 0.0484546 -8.5292e-16)
(0.07805 0.0577056 -1.63983e-16)
(0.053877 0.0380513 1.1186e-15)
(0.0583878 0.0452962 3.39539e-17)
(0.0387848 0.0299049 4.11895e-15)
(0.0426403 0.0354476 1.38111e-15)
(0.0265541 0.0238463 5.3735e-15)
(0.029996 0.0279197 4.49591e-15)
(0.0163706 0.0197803 2.68736e-15)
(0.019671 0.0225603 5.00129e-15)
(0.00737811 0.0163825 1.74022e-15)
(0.0108396 0.0192963 -7.52643e-17)
(0.00306236 0.0153299 -2.44361e-15)
(0.921421 0.311183 -2.0335e-15)
(0.892908 0.292836 -3.34119e-16)
(0.814593 0.352815 -3.11639e-15)
(0.911629 0.390159 -2.74023e-15)
(0.708344 0.33861 -2.37486e-15)
(0.724912 0.379121 -1.75034e-15)
(0.606556 0.315159 -1.75947e-15)
(0.647359 0.356467 -1.67615e-15)
(0.512314 0.286193 -4.36121e-16)
(0.539875 0.325181 -9.29269e-16)
(0.426869 0.254794 1.02318e-15)
(0.450177 0.29093 8.65534e-16)
(0.351122 0.222393 2.08019e-16)
(0.369754 0.254961 2.02031e-15)
(0.285263 0.190545 -1.23815e-15)
(0.300157 0.219249 -7.90546e-16)
(0.229003 0.160424 -1.10525e-15)
(0.240841 0.18521 -1.24762e-15)
(0.181696 0.132864 -1.82458e-15)
(0.191102 0.153875 -1.16727e-15)
(0.142478 0.108369 -2.45451e-15)
(0.149969 0.125876 -2.02059e-15)
(0.110374 0.087161 -6.32613e-16)
(0.116372 0.101512 -1.38437e-15)
(0.0843831 0.0692454 1.25665e-15)
(0.0892267 0.080819 2.64623e-16)
(0.0635267 0.0544747 7.06229e-16)
(0.0674924 0.0636506 7.90416e-16)
(0.0468874 0.0426084 2.78931e-16)
(0.0502057 0.0497442 -5.59066e-16)
(0.0336203 0.033371 1.72134e-15)
(0.0364946 0.0387809 7.5428e-16)
(0.0229477 0.0265335 4.12494e-15)
(0.0255779 0.0304465 8.53919e-16)
(0.0141145 0.0219606 2.33422e-15)
(0.0167266 0.024538 3.56006e-15)
(0.00634725 0.0181578 -4.16622e-15)
(0.00919491 0.0209498 -5.83194e-16)
(0.0025907 0.0166147 -4.49926e-15)
(0.913198 0.370756 -1.00486e-15)
(0.892681 0.347668 -7.93052e-17)
(0.797653 0.417361 -1.41652e-15)
(0.894859 0.458283 -8.04662e-16)
(0.684387 0.397871 -1.07132e-15)
(0.701636 0.442252 1.05268e-16)
(0.577749 0.367347 -8.72054e-16)
(0.618249 0.412366 -1.99188e-16)
(0.480961 0.330648 3.28894e-16)
(0.506199 0.372596 -2.47181e-16)
(0.394983 0.2917 1.83025e-15)
(0.415728 0.330129 9.19717e-16)
(0.320369 0.252276 1.06102e-15)
(0.336094 0.286451 1.81423e-15)
(0.256837 0.214238 -7.97871e-16)
(0.268812 0.243973 3.65763e-17)
(0.203646 0.178868 -1.30826e-15)
(0.21271 0.204235 -9.56819e-16)
(0.159758 0.147001 -1.35433e-15)
(0.166641 0.168268 -7.87583e-16)
(0.124006 0.119063 -9.82743e-16)
(0.129274 0.136611 -5.81376e-16)
(0.0952038 0.0951661 -5.18808e-16)
(0.09929 0.109426 -4.16095e-17)
(0.0722168 0.0751895 -1.90848e-16)
(0.0754486 0.0866015 -1.60467e-15)
(0.0540048 0.0588667 -4.34232e-16)
(0.0566307 0.0678505 -2.50161e-15)
(0.0396373 0.0458518 -1.0231e-16)
(0.0418517 0.0527879 -1.49019e-15)
(0.0282931 0.0357829 -8.95012e-17)
(0.0302588 0.0409945 2.06569e-16)
(0.0192438 0.0283664 2.93546e-16)
(0.0211171 0.0320787 -4.45045e-16)
(0.0118049 0.0234242 7.40626e-16)
(0.0137649 0.0257856 1.38263e-15)
(0.00529527 0.0193346 -8.90512e-16)
(0.00754578 0.0219745 -5.03279e-16)
(0.00211932 0.017397 -5.98192e-16)
(0.90277 0.433782 1.15908e-16)
(0.891674 0.407081 -1.57153e-16)
(0.77673 0.483998 6.62663e-16)
(0.874069 0.529617 3.45672e-16)
(0.655431 0.457592 9.4653e-16)
(0.673434 0.506746 1.3828e-15)
(0.543708 0.418444 4.03528e-16)
(0.583528 0.467759 1.02287e-15)
(0.444712 0.372791 3.22474e-16)
(0.467214 0.41798 1.19768e-16)
(0.358888 0.325483 9.04104e-16)
(0.376786 0.366281 -8.0857e-17)
(0.286252 0.27862 8.26444e-16)
(0.298852 0.314323 4.55599e-16)
(0.225885 0.234319 -1.16555e-16)
(0.234834 0.264929 1.73418e-16)
(0.1765 0.193878 -4.54647e-16)
(0.182772 0.219637 -1.22874e-16)
(0.136629 0.158035 -4.20845e-17)
(0.141034 0.179371 2.56143e-16)
(0.104793 0.127066 3.26276e-16)
(0.107923 0.144484 1.16562e-16)
(0.0796079 0.100907 -1.08867e-15)
(0.0818884 0.114932 2.49182e-16)
(0.0598352 0.0792751 -3.8333e-15)
(0.061565 0.0904094 -1.86959e-15)
(0.0443968 0.0617618 -3.52029e-15)
(0.0457868 0.0704637 -3.79495e-15)
(0.0323732 0.0479044 -1.19257e-15)
(0.0335756 0.0545745 -2.56205e-15)
(0.0229861 0.0372505 -1.36246e-16)
(0.02412 0.0422193 -2.08544e-15)
(0.0155701 0.0294419 6.05078e-16)
(0.0167474 0.0329303 -2.37e-16)
(0.00952174 0.0242572 1.83188e-16)
(0.0108745 0.0264018 -3.96243e-16)
(0.00425855 0.0199878 -2.21301e-16)
(0.00594154 0.022459 -1.69318e-15)
(0.00166228 0.0177505 1.13853e-15)
(0.889563 0.501237 6.30844e-17)
(0.889446 0.472404 -5.79046e-16)
(0.751052 0.553203 1.03864e-15)
(0.848368 0.604869 4.9891e-16)
(0.620804 0.517788 1.45504e-15)
(0.639478 0.572743 1.32551e-15)
(0.50407 0.468167 7.48341e-16)
(0.5426 0.522346 1.09258e-15)
(0.403547 0.412234 -2.67504e-16)
(0.42278 0.460889 1.4255e-16)
(0.318859 0.355781 -5.09438e-16)
(0.333552 0.398953 -6.77634e-16)
(0.249245 0.301167 -1.7131e-16)
(0.258465 0.338259 -4.71378e-16)
(0.19298 0.250665 1.66553e-16)
(0.19879 0.281952 -2.03491e-16)
(0.14816 0.205447 5.59684e-16)
(0.151624 0.231394 3.00718e-16)
(0.112864 0.166052 4.07878e-16)
(0.114846 0.187271 7.09244e-16)
(0.0853246 0.132515 4.30036e-17)
(0.0864107 0.149648 -4.42539e-17)
(0.0639944 0.104548 -5.05353e-16)
(0.0645797 0.118215 -1.80524e-16)
(0.0475659 0.0816722 -1.83806e-15)
(0.0479063 0.092435 -7.81473e-16)
(0.0349573 0.0633207 -2.8728e-15)
(0.0352167 0.0716722 -1.59448e-15)
(0.0252868 0.04891 -3.41686e-15)
(0.02557 0.0552671 -1.9624e-15)
(0.017838 0.0378989 -2.17701e-15)
(0.0182186 0.042596 -2.00897e-15)
(0.0120219 0.0298676 -1.19753e-15)
(0.0125671 0.0331205 -7.98711e-16)
(0.00732365 0.0245536 -2.19889e-15)
(0.00811934 0.0264885 -8.82608e-16)
(0.00326355 0.0201986 -3.81822e-16)
(0.0044172 0.0224937 -6.10017e-16)
(0.00122942 0.0177491 1.9337e-15)
(0.872797 0.574192 -1.60878e-16)
(0.885359 0.545224 -6.30675e-16)
(0.719645 0.625339 7.76553e-16)
(0.816602 0.684682 4.72925e-16)
(0.579735 0.578273 9.78418e-16)
(0.598779 0.64017 1.03814e-15)
(0.458491 0.516039 5.09684e-16)
(0.494864 0.575592 6.39933e-16)
(0.357518 0.448469 -2.52959e-16)
(0.37285 0.500722 2.43605e-16)
(0.275256 0.382189 -6.40287e-16)
(0.28633 0.42764 -2.44769e-16)
(0.209885 0.319677 -5.0077e-16)
(0.215455 0.357943 -3.00585e-16)
(0.158719 0.263199 -7.29435e-17)
(0.161286 0.294928 -3.37818e-16)
(0.1192 0.213631 4.45487e-16)
(0.119858 0.239547 3.85387e-16)
(0.0889723 0.171191 2.73974e-16)
(0.0886001 0.192112 6.0361e-16)
(0.0660263 0.135598 -2.58278e-16)
(0.0651715 0.152305 -3.86813e-16)
(0.0487018 0.106291 -4.47043e-16)
(0.047708 0.119495 -1.12936e-15)
(0.0356697 0.0825752 -5.53006e-16)
(0.0347353 0.0928921 -7.89377e-16)
(0.0258816 0.0637194 -7.27347e-16)
(0.0251154 0.0716697 -9.00378e-16)
(0.0185201 0.0490213 -6.18835e-16)
(0.017976 0.0550332 -1.08738e-15)
(0.012949 0.0378571 -6.87438e-16)
(0.012654 0.0422654 8.78084e-16)
(0.00866636 0.0297522 -4.98542e-16)
(0.00864376 0.0327664 -1.5651e-16)
(0.00525139 0.0244073 6.35272e-16)
(0.00554255 0.0261441 1.30897e-16)
(0.0023283 0.0200466 1.61249e-15)
(0.00299586 0.0221649 1.4624e-15)
(0.000827107 0.0174631 1.33349e-15)
(0.851411 0.653835 -2.38211e-17)
(0.878488 0.627475 -3.34783e-16)
(0.68131 0.700609 7.25334e-16)
(0.777295 0.76958 5.40734e-16)
(0.531388 0.63862 7.13571e-16)
(0.550207 0.708681 1.01093e-15)
(0.406693 0.561392 3.84231e-16)
(0.439764 0.626705 4.85264e-16)
(0.306798 0.480892 2.48127e-16)
(0.317525 0.536751 5.00513e-16)
(0.228551 0.404285 7.79274e-17)
(0.235557 0.451809 3.67131e-16)
(0.168774 0.333952 -1.45862e-16)
(0.170433 0.373105 1.45823e-18)
(0.12371 0.271912 1.02908e-16)
(0.12296 0.303812 -2.16328e-16)
(0.0901653 0.21855 5.37228e-16)
(0.0880441 0.244209 5.03471e-16)
(0.0654082 0.173649 -3.14467e-17)
(0.0627692 0.194099 4.02855e-16)
(0.0472555 0.13654 -1.22021e-15)
(0.0445745 0.152696 -5.66655e-16)
(0.0340007 0.106361 -1.45266e-15)
(0.0315488 0.119016 -1.38277e-15)
(0.0243452 0.0821908 -1.12048e-15)
(0.0222511 0.0920045 -4.97782e-16)
(0.0173116 0.0631378 -1.24403e-15)
(0.0156232 0.0706512 -5.65282e-16)
(0.0121724 0.0483898 3.49398e-16)
(0.01089 0.0540365 -1.07493e-15)
(0.00838662 0.0372507 1.3761e-15)
(0.00749117 0.0413621 1.56409e-15)
(0.00554734 0.0291996 4.44032e-16)
(0.00501966 0.0319777 4.45227e-16)
(0.00333079 0.0239069 9.26429e-16)
(0.00317003 0.0254595 -3.58882e-16)
(0.00146398 0.0196066 1.1962e-15)
(0.00169095 0.0215515 9.62614e-16)
(0.000458939 0.016956 4.56322e-16)
(0.82394 0.74149 2.04967e-16)
(0.867494 0.721573 -1.93915e-16)
(0.634609 0.778989 8.1526e-16)
(0.728552 0.859866 5.5007e-16)
(0.474908 0.69812 7.90185e-16)
(0.492531 0.777592 1.08363e-15)
(0.348523 0.60337 5.95653e-16)
(0.376869 0.674637 6.1536e-16)
(0.251715 0.508838 6.12279e-16)
(0.257102 0.568154 5.97664e-16)
(0.179338 0.421675 2.91656e-16)
(0.181817 0.470937 2.45291e-16)
(0.126569 0.343866 -6.71263e-17)
(0.124095 0.383551 -2.15152e-16)
(0.08856 0.276874 1.69342e-16)
(0.0844615 0.308651 -2.37408e-16)
(0.0615629 0.220393 3.75235e-16)
(0.0567208 0.245569 2.53127e-16)
(0.0425638 0.173667 -1.12518e-16)
(0.0377665 0.193486 -3.34375e-17)
(0.0293015 0.135593 -7.2741e-16)
(0.0249195 0.151091 -4.14284e-16)
(0.020097 0.104994 -4.70119e-16)
(0.0163113 0.117032 -5.69825e-16)
(0.0137343 0.0807274 2.81507e-17)
(0.0105946 0.0899966 1.96612e-16)
(0.00934291 0.0617518 -4.09054e-16)
(0.00683205 0.0688054 -6.98354e-17)
(0.00630631 0.0471599 9.8303e-17)
(0.00437079 0.0524311 -7.51735e-16)
(0.00419085 0.0361966 6.72318e-16)
(0.00276628 0.04001 7.70181e-16)
(0.00268955 0.0283051 -3.22663e-16)
(0.00171662 0.0308538 -5.90323e-17)
(0.00157578 0.0231323 -3.13864e-16)
(0.00101418 0.0245158 -1.81377e-15)
(0.000676302 0.0189455 2.56942e-16)
(0.000508432 0.0207233 -1.38035e-16)
(0.000126385 0.0162835 1.52948e-16)
(0.788315 0.838628 1.37083e-16)
(0.850427 0.830608 -3.66237e-16)
(0.577868 0.860111 8.08792e-16)
(0.667933 0.955425 3.59093e-16)
(0.409486 0.755753 9.13918e-16)
(0.424505 0.845813 1.07051e-15)
(0.284018 0.640955 6.17098e-16)
(0.305948 0.718098 7.10965e-16)
(0.192786 0.531626 2.47234e-16)
(0.192115 0.594069 2.98148e-16)
(0.128332 0.434037 -2.38406e-16)
(0.12584 0.484574 -3.59285e-16)
(0.0839696 0.349391 -3.76443e-16)
(0.0771989 0.389202 -5.81847e-16)
(0.0538552 0.278243 -1.53607e-16)
(0.0464275 0.309592 -3.13301e-16)
(0.0338418 0.219408 -1.36126e-16)
(0.0263707 0.243885 -1.69292e-16)
(0.0207627 0.171523 -3.22432e-16)
(0.0139352 0.190571 -3.85408e-16)
(0.0123865 0.133026 -2.6665e-16)
(0.00643701 0.147778 -2.73805e-16)
(0.00713678 0.102431 6.79914e-17)
(0.00214231 0.113799 -6.31805e-17)
(0.00392968 0.0783868 1.01451e-16)
(-0.000145227 0.0870842 1.49004e-16)
(0.00203207 0.0597264 -4.00321e-16)
(-0.00120678 0.0663083 -5.17755e-16)
(0.000955341 0.0454639 -1.02054e-16)
(-0.00155416 0.0503573 -9.36631e-16)
(0.000380756 0.0348001 7.06536e-17)
(-0.00150693 0.0383193 5.46373e-16)
(0.000103262 0.0271531 -1.48585e-15)
(-0.00125938 0.0294817 9.61472e-17)
(-8.71945e-06 0.0221537 -1.63192e-15)
(-0.000922913 0.0233832 -2.10442e-15)
(-3.30449e-05 0.0181214 -2.33729e-16)
(-0.00055139 0.0197402 -9.06923e-16)
(-0.000170663 0.0154932 2.08135e-16)
(0.741518 0.946878 -1.51583e-16)
(0.824442 0.958654 -6.12702e-16)
(0.509237 0.943109 6.13358e-16)
(0.59225 1.05537 1.6915e-16)
(0.334449 0.810163 8.75234e-16)
(0.345026 0.911803 9.47592e-16)
(0.213465 0.673007 4.05626e-16)
(0.227056 0.755594 6.28272e-16)
(0.130731 0.548614 -2.81184e-16)
(0.123358 0.613655 -1.22629e-16)
(0.0763421 0.441153 -6.858e-16)
(0.0684879 0.492388 -6.86578e-16)
(0.0416804 0.350617 -5.1949e-16)
(0.0305365 0.390108 -6.73961e-16)
(0.0201349 0.276262 -3.26637e-16)
(0.00945356 0.306884 -2.60306e-16)
(0.00738455 0.215897 -4.06847e-16)
(-0.00259313 0.239476 -1.86e-16)
(0.000264716 0.167522 -3.38359e-16)
(-0.00845577 0.185673 -1.20134e-16)
(-0.00333905 0.129114 -7.95575e-17)
(-0.0107112 0.143055 2.05571e-16)
(-0.00480004 0.0989005 1.54728e-17)
(-0.0108691 0.109566 1.24401e-16)
(-0.00503083 0.0753573 -4.424e-16)
(-0.00992396 0.0834687 -4.08899e-17)
(-0.00460596 0.0572111 -1.02836e-15)
(-0.0084756 0.0633182 -7.39196e-16)
(-0.00387701 0.0434189 -3.09292e-16)
(-0.00688151 0.0479379 -1.01397e-15)
(-0.00304546 0.0331526 5.65837e-16)
(-0.005332 0.0363852 4.65067e-16)
(-0.00221496 0.0258161 -5.10337e-16)
(-0.00391411 0.0279352 4.67703e-16)
(-0.00142548 0.0210308 -1.40771e-15)
(-0.00264665 0.0221208 -1.03393e-15)
(-0.0006661 0.0171834 -4.78401e-16)
(-0.00149224 0.0186522 -9.52926e-16)
(-0.000433456 0.0146243 1.94276e-16)
(0.679128 1.06798 -3.04398e-16)
(0.785392 1.11119 -7.11946e-16)
(0.426808 1.02638 4.92679e-16)
(0.497319 1.15751 1.02852e-16)
(0.249373 0.859671 7.11308e-16)
(0.253386 0.973568 7.29616e-16)
(0.137455 0.698329 1.22107e-16)
(0.140606 0.785498 3.76062e-16)
(0.0664406 0.559282 -5.10935e-16)
(0.0519009 0.626184 -3.38942e-16)
(0.0242615 0.442985 -6.75281e-16)
(0.0107188 0.494194 -6.71961e-16)
(0.000114359 0.347747 -4.25117e-16)
(-0.0151191 0.386598 -5.4132e-16)
(-0.0121457 0.271218 -1.26937e-16)
(-0.0259447 0.300751 -1.29647e-16)
(-0.0175255 0.210195 8.49505e-17)
(-0.0298261 0.232706 1.23359e-16)
(-0.018791 0.161971 3.96109e-16)
(-0.0292147 0.179135 4.96794e-16)
(-0.0177787 0.124119 3.96903e-16)
(-0.0264276 0.137195 7.72834e-16)
(-0.0156522 0.0946197 6.94545e-17)
(-0.0226825 0.10456 3.18723e-16)
(-0.0131125 0.0718101 -3.28327e-16)
(-0.0187335 0.0793307 1.59286e-16)
(-0.0105571 0.0543392 -7.28661e-16)
(-0.0149827 0.0599763 -8.04316e-17)
(-0.0081902 0.0411276 -2.6781e-16)
(-0.0116263 0.0452813 -4.79217e-16)
(-0.00609321 0.0313329 3.72606e-16)
(-0.00872504 0.0342897 9.66666e-17)
(-0.00427177 0.0243553 -4.23625e-17)
(-0.00626163 0.0262769 1.74353e-16)
(-0.0026803 0.0198136 -6.04415e-16)
(-0.00416762 0.0207776 -1.3337e-16)
(-0.00122542 0.0161722 -3.06306e-16)
(-0.00232056 0.0175005 -3.80887e-16)
(-0.000663991 0.013709 -1.46321e-16)
(0.596277 1.20381 -3.21909e-16)
(0.727406 1.29478 -6.30822e-16)
(0.32896 1.10749 3.33157e-16)
(0.377673 1.25838 9.63088e-17)
(0.154241 0.902362 4.09958e-16)
(0.149557 1.02878 4.03872e-16)
(0.0569471 0.71584 -6.62334e-17)
(0.0474517 0.806155 7.50853e-17)
(0.000167854 0.563216 -4.94396e-16)
(-0.0209897 0.631508 -4.03227e-16)
(-0.027084 0.439493 -5.44355e-16)
(-0.0464965 0.489667 -5.73045e-16)
(-0.0393935 0.341104 -2.58416e-16)
(-0.0589926 0.378767 -3.78811e-16)
(-0.0425361 0.263513 1.0888e-16)
(-0.0593271 0.291793 -5.08472e-17)
(-0.0406339 0.202664 5.15335e-16)
(-0.0550809 0.223974 2.14608e-16)
(-0.03624 0.155178 8.54576e-16)
(-0.048225 0.171285 7.04189e-16)
(-0.0308767 0.118289 6.93926e-16)
(-0.0406709 0.130475 9.46622e-16)
(-0.0254216 0.0897847 4.01392e-16)
(-0.0332972 0.0989949 5.75089e-16)
(-0.0203425 0.0678966 3.8977e-16)
(-0.026594 0.0748316 6.58869e-16)
(-0.0158531 0.0512259 1.49642e-16)
(-0.020756 0.0564029 8.33913e-16)
(-0.0120118 0.0386766 -1.29441e-16)
(-0.0158168 0.0424769 1.03474e-16)
(-0.00878435 0.0294065 -8.90001e-17)
(-0.0117108 0.0320998 -2.22157e-16)
(-0.0060833 0.0228213 8.50916e-17)
(-0.0083216 0.0245574 -1.39153e-16)
(-0.00378354 0.0185427 7.40897e-17)
(-0.00549972 0.0193931 4.43283e-16)
(-0.00171632 0.0151208 -2.27575e-16)
(-0.00304452 0.0163179 1.66073e-16)
(-0.000864711 0.0127726 -5.29116e-16)
(0.48671 1.35587 -2.31313e-16)
(0.6439 1.51726 -4.46343e-16)
(0.21321 1.18311 1.66564e-16)
(0.226291 1.35342 6.34086e-17)
(0.0496016 0.936082 8.50529e-17)
(0.0342755 1.07426 8.98954e-17)
(-0.0267618 0.72441 -2.47571e-16)
(-0.0511469 0.816048 -1.52778e-16)
(-0.0640503 0.5603 -4.79248e-16)
(-0.093834 0.628402 -4.48676e-16)
(-0.0766335 0.431042 -4.15047e-16)
(-0.102129 0.4799 -4.55186e-16)
(-0.076959 0.331106 -1.79662e-16)
(-0.100437 0.367229 -1.94142e-16)
(-0.0707869 0.253588 5.18064e-17)
(-0.0903464 0.280377 -4.92312e-17)
(-0.0618137 0.193669 3.98161e-16)
(-0.07821 0.213672 1.09639e-18)
(-0.05206 0.147438 7.93698e-16)
(-0.0654368 0.162443 4.21241e-16)
(-0.0426462 0.111856 8.30338e-16)
(-0.0534467 0.123138 7.81488e-16)
(-0.0341357 0.0845699 8.18133e-16)