/*--------------------------------*- C++ -*----------------------------------*\
  =========                 |
  \\      /  F ield         | OpenFOAM: The Open Source CFD Toolbox
   \\    /   O peration     | Website:  https://openfoam.org
    \\  /    A nd           | Version:  13
     \\/     M anipulation  |
\*---------------------------------------------------------------------------*/
FoamFile
{
    format      ascii;
    class       volScalarField;
    location    "0.35";
    object      alpha.oil;
}
// * * * * * * * * * * * * * * * * * * * * * * * * * * * * * * * * * * * * * //

dimensions      [];

internalField   nonuniform List<scalar> 
2268
(
1.96951e-59
1.39229e-57
2.00451e-55
1.21757e-53
5.65367e-52
1.37059e-50
8.61172e-50
2.64854e-49
-2.73355e-34
-6.62447e-31
-2.88541e-29
-1.14726e-27
8.50926e-17
9.84623e-16
3.10121e-15
1.04867e-13
1.60521e-12
6.23834e-12
2.28712e-11
4.49623e-11
4.5418e-11
7.16031e-12
0.000833478
2.6655e-61
6.5567e-56
6.71559e-54
3.07677e-52
1.25639e-50
2.93237e-49
1.54102e-48
4.33452e-48
-9.75524e-33
-2.21461e-29
-9.01852e-28
-2.75053e-26
3.71254e-18
2.05844e-15
1.44442e-14
1.53535e-14
2.04244e-12
9.42262e-11
4.00128e-10
5.21857e-10
2.02194e-10
1.25444e-18
0.000834216
1.2418e-54
8.05575e-55
6.25488e-53
2.87666e-51
1.07876e-49
2.33773e-48
1.14672e-47
4.15495e-47
-1.66978e-31
-3.74785e-28
-1.43843e-26
-3.97736e-25
4.17286e-18
1.53762e-14
1.25992e-13
1.72896e-13
2.89601e-11
3.24096e-11
4.10579e-11
4.85948e-11
1.4012e-09
2.13311e-11
0.000372494
2.27308e-47
2.82698e-50
3.06176e-52
1.26017e-50
4.64598e-49
9.10068e-48
4.82503e-47
1.32636e-46
-1.81333e-30
-4.25381e-27
-1.54904e-25
-4.05762e-24
1.25992e-18
5.60683e-14
5.4055e-13
1.21661e-12
1.32525e-12
8.41638e-09
1.21487e-08
1.27141e-08
6.52598e-09
2.33267e-09
2.8863e-09
1.55573e-45
1.90879e-47
7.22899e-52
2.30136e-50
7.97295e-49
1.47836e-47
1.09019e-46
8.52343e-45
-1.39312e-29
-3.63122e-26
-1.26285e-24
-3.17661e-23
1.48371e-19
7.29243e-14
1.3499e-12
3.74156e-12
1.74152e-11
9.53774e-08
1.18747e-08
3.73096e-09
3.28047e-09
2.91139e-09
4.33899e-10
1.63931e-42
1.09997e-43
3.73059e-47
9.00569e-50
8.37202e-48
3.60959e-46
2.21737e-44
3.08866e-42
-7.95369e-29
-2.47881e-25
-8.29069e-24
-2.01694e-22
7.81938e-18
5.89207e-14
1.30265e-12
4.20263e-11
4.85884e-11
2.58608e-08
1.9801e-08
4.12543e-08
2.71181e-09
2.67129e-09
0.000260849
6.43392e-39
4.8717e-39
5.22504e-39
1.35212e-36
3.92001e-35
8.42819e-34
9.83539e-33
1.42795e-31
-3.40846e-28
-1.40428e-24
-4.55372e-23
-1.07746e-21
2.20259e-15
6.1542e-13
4.16435e-12
1.45076e-10
2.2039e-10
3.09678e-11
4.68162e-05
0.00020828
7.60088e-05
1.53548e-05
0.000595915
5.3632e-37
1.01901e-36
2.73312e-35
8.36567e-34
2.06504e-32
4.1046e-31
4.82017e-30
7.10063e-29
-1.04022e-27
-6.76383e-24
-2.14745e-22
-4.96517e-21
3.70333e-14
3.41918e-12
2.31042e-11
1.2731e-10
4.08769e-10
3.46645e-11
0.000111726
0.000277741
7.97714e-07
2.61988e-06
0.000518283
0.999773
0.999999
0.999999
1
1
0.999951
0.999833
0.999827
0.999854
0.999979
1
1
0.995368
0.991193
0.991209
0.999613
0.980558
0.873112
0.928892
0.999707
0.999908
1
1
1
1
1
1
1
1
1
1
1
0.999923
0.999493
0.999774
1
0.874193
0.868358
0.99907
0.998789
0.971323
1
1
1
1
1
1
1
1
1
1
1
1
0.999986
1
0.922002
0.868278
0.999
0.952204
0.491349
0.682275
0.998624
1
1
1
1
1
1
1
1
1
1
1
1
0.984045
0.958627
0.992237
0.676004
0.00342172
0.00610021
0.467247
0.964782
1
1
1
1
1
1
1
1
1
1
1
1
1
0.990695
0.193302
2.09882e-06
7.91537e-08
2.74726e-06
0.66223
0.999999
0.999997
1
1
1
1
1
1
1
1
1
1
1
0.989343
0.191917
1.68546e-06
2.07596e-09
3.18854e-05
0.506587
0.999913
0.999988
1
1
1
1
1
1
1
1
1
1
1
0.988821
0.391887
2.43871e-05
2.6633e-07
0.021627
0.708111
0.999567
1
1
1
1
1
1
1
1
1
1
1
1
4.40055e-36
1.05583e-35
5.09115e-34
1.11577e-32
2.49653e-31
4.6289e-30
5.40621e-29
7.6487e-28
-1.58239e-27
-2.81581e-23
-8.85744e-22
-2.00911e-20
1.38786e-13
9.62955e-12
7.51465e-11
2.70441e-10
4.58509e-10
3.05919e-11
1.56075e-05
2.08887e-07
0.00394037
0.0279274
0.00143682
5.17069e-35
1.31521e-34
6.41063e-33
1.44873e-31
2.80833e-30
4.48432e-29
5.00885e-28
5.62106e-27
1.2391e-26
-1.71729e-22
-5.44052e-21
-1.20957e-19
1.87014e-13
1.12902e-12
9.81452e-12
3.68206e-11
2.32433e-10
1.52812e-11
9.65693e-07
1.48508e-13
0.0371853
0.0827215
0.0515434
4.4612e-34
1.18774e-33
5.81741e-32
1.39501e-30
2.45946e-29
3.54259e-28
3.66689e-27
3.60301e-26
2.13681e-25
-8.13138e-22
-2.67528e-20
-5.83737e-19
1.9084e-14
1.26662e-13
2.19009e-12
3.11862e-12
1.52224e-11
1.51207e-11
6.79108e-08
4.36972e-13
0.00208601
0.0439816
0.292868
2.52132e-33
6.44226e-33
3.14313e-31
8.24275e-30
1.37384e-28
1.88935e-27
1.89874e-26
1.92848e-25
1.39707e-24
-2.99734e-21
-1.08301e-19
-2.32354e-18
1.54253e-14
1.22899e-13
-5.91313e-12
8.63881e-13
1.37919e-11
8.83821e-11
4.37353e-13
4.58549e-14
4.38288e-13
0.00177842
0.142079
7.71564e-33
1.66818e-32
7.84727e-31
2.2614e-29
4.02083e-28
5.18959e-27
5.53932e-26
6.42538e-25
9.75047e-24
-8.34215e-21
-3.70436e-19
-7.86616e-18
1.50568e-14
1.02955e-14
-4.57337e-10
2.48634e-08
9.99068e-09
1.11077e-09
1.39003e-10
1.03841e-10
-2.96246e-14
2.80826e-12
0.000204121
4.83471e-31
9.01786e-31
3.23494e-29
2.20339e-28
3.16396e-27
4.19864e-26
3.2848e-25
6.07705e-24
6.66593e-23
-1.54847e-20
-1.09355e-18
-2.32875e-17
2.53571e-13
-4.45324e-23
-4.20148e-09
2.68146e-07
3.84855e-13
7.73936e-21
-2.40476e-28
-5.59702e-28
6.96475e-19
-2.90518e-22
3.26796e-15
6.44263e-29
1.61563e-28
5.84815e-27
6.35835e-26
9.48594e-25
1.18178e-23
8.98133e-23
6.29236e-22
2.92934e-21
-8.13011e-21
-2.8215e-18
-6.09541e-17
3.64533e-08
7.48041e-18
-1.3896e-08
-5.3337e-09
0.00561485
0.0324034
0.0329655
0.0406533
0.0934721
0.161056
0.192023
9.46364e-28
3.02098e-27
1.0743e-25
1.93085e-24
2.9346e-23
3.64851e-22
2.99564e-21
2.32492e-20
1.13934e-19
1.33347e-19
-6.335e-18
-1.3797e-16
1.87779e-06
9.14091e-06
1.79409e-13
-1.28114e-09
0.0981611
0.609574
0.925182
0.908936
0.905594
0.918602
0.937499
2.97372e-27
1.13521e-26
3.84951e-25
7.74806e-24
1.16493e-22
1.44228e-21
1.23191e-20
9.83884e-20
6.54809e-19
1.42307e-18
-1.18407e-17
-2.61774e-16
3.29318e-06
7.38756e-05
5.48884e-05
-1.24888e-11
0.207363
0.83812
0.998883
0.999941
0.999982
0.999993
0.999994
8.1673e-27
5.29661e-26
1.37779e-24
2.55482e-23
3.60818e-22
4.30426e-21
3.7696e-20
2.96523e-19
1.80431e-18
5.86139e-18
-1.58968e-17
-4.56595e-16
-2.28168e-17
0.000118896
0.000259717
0.00025719
3.19417e-05
0.0806283
0.425336
0.74188
0.870545
0.932843
0.960853
2.05008e-26
2.03007e-25
4.59685e-24
8.03742e-23
1.07804e-21
1.23855e-20
1.11539e-19
8.79937e-19
5.31841e-18
1.79468e-17
-5.28722e-18
-1.02359e-15
1.67029e-10
0.000239149
0.000317866
0.000136218
1.23859e-07
2.06109e-14
-2.06738e-26
4.18611e-19
0.0124216
0.11454
0.24976
4.61518e-26
6.3887e-25
1.35208e-23
2.28188e-22
3.02907e-21
3.41415e-20
3.05965e-19
2.46886e-18
1.43834e-17
5.91047e-17
6.00164e-17
-2.14094e-15
1.79116e-07
2.4565e-05
0.000113471
3.35895e-05
3.03748e-07
1.4625e-08
5.07348e-09
7.83363e-10
-1.61332e-10
-2.28945e-10
8.92169e-20
9.31873e-26
1.75837e-24
3.56054e-23
5.82655e-22
7.70515e-21
8.47927e-20
7.29375e-19
5.69717e-18
3.42594e-17
1.44481e-16
2.6946e-16
-2.28522e-15
2.94967e-06
1.51974e-07
4.20903e-11
-1.2764e-11
6.687e-08
4.61572e-08
1.08021e-08
1.45105e-09
5.65628e-11
8.35165e-11
1.50312e-09
1.83214e-25
4.372e-24
8.52726e-23
1.34143e-21
1.69376e-20
1.71142e-19
1.45618e-18
1.09217e-17
6.18319e-17
2.73099e-16
7.4112e-16
-1.00621e-15
-1.13085e-13
-4.89145e-12
-1.79758e-10
-2.11074e-10
-1.78575e-10
-1.27888e-10
-1.6207e-10
-1.91918e-10
-1.76186e-10
7.74448e-10
3.99199e-09
3.4375e-25
9.89151e-24
1.87061e-22
2.79764e-21
3.29606e-20
3.26302e-19
2.67127e-18
1.86196e-17
1.00251e-16
5.54778e-16
2.78854e-15
2.33011e-15
-9.91326e-14
-3.97384e-12
-1.56728e-10
-2.70811e-10
-2.83366e-10
-2.26399e-10
-1.43669e-10
-6.12321e-11
-1.34602e-11
1.47055e-09
6.19563e-09
5.81162e-25
1.93146e-23
3.73177e-22
5.2009e-21
5.78459e-20
5.35841e-19
4.20089e-18
2.72695e-17
1.77226e-16
9.54199e-16
4.28889e-15
1.15758e-14
-4.1229e-14
-1.95641e-12
-6.81747e-11
-9.3088e-11
-7.69453e-11
-4.43158e-11
-8.32408e-12
2.31164e-11
4.06951e-11
1.78819e-09
5.89847e-09
8.30169e-25
2.97584e-23
5.8858e-22
8.00171e-21
8.91733e-20
7.78278e-19
5.69842e-18
3.72197e-17
2.1048e-16
1.02532e-15
4.50411e-15
1.5779e-14
1.8561e-14
-6.00037e-13
-1.89033e-11
-1.7606e-11
-7.78131e-12
3.56469e-12
1.54629e-11
2.59425e-11
7.50181e-11
8.22654e-10
3.25111e-09
9.47698e-25
3.52145e-23
7.02078e-22
9.33879e-21
1.043e-19
8.91738e-19
6.39045e-18
3.90592e-17
2.04959e-16
9.45635e-16
4.06866e-15
1.47316e-14
4.61006e-14
1.18154e-14
-2.2236e-12
-2.51905e-13
2.4742e-12
5.8625e-12
9.84354e-12
1.24868e-11
3.42593e-11
2.66509e-10
2.59165e-10
8.44561e-25
3.14231e-23
6.29098e-22
8.68136e-21
9.11291e-20
7.65768e-19
5.34904e-18
3.17332e-17
1.62532e-16
7.34795e-16
3.00226e-15
1.02929e-14
3.73121e-14
1.05761e-13
2.76673e-13
6.78426e-13
1.39202e-12
2.50712e-12
3.85019e-12
4.97613e-12
6.20616e-12
7.70679e-12
1.79831e-11
5.18993e-25
2.03296e-23
4.06912e-22
5.56853e-21
5.74489e-20
4.70549e-19
3.18563e-18
1.82047e-17
9.00979e-17
3.93649e-16
1.54585e-15
5.4305e-15
1.66809e-14
4.51128e-14
1.08586e-13
2.22197e-13
4.37643e-13
7.55569e-13
1.24102e-12
2.10571e-12
3.91367e-12
8.03211e-12
1.37212e-11
2.3875e-25
9.11952e-24
1.81498e-22
2.44614e-21
2.46165e-20
1.95218e-19
1.27037e-18
6.90159e-18
3.23182e-17
1.32769e-16
4.86032e-16
1.55031e-15
4.42453e-15
1.0997e-14
2.458e-14
5.44632e-14
1.07936e-13
2.22771e-13
4.8141e-13
1.12592e-12
2.39209e-12
4.54444e-12
8.47371e-12
7.11305e-26
2.73019e-24
5.38251e-23
7.0868e-22
6.89983e-21
5.20659e-20
3.16935e-19
1.71197e-18
7.58953e-18
2.90281e-17
9.61875e-17
2.80041e-16
7.42707e-16
1.86398e-15
4.678e-15
1.26052e-14
3.39945e-14
9.27747e-14
2.40143e-13
5.85418e-13
1.28166e-12
2.69201e-12
4.44608e-12
1.24257e-26
4.88843e-25
9.83174e-24
1.3135e-22
1.2936e-21
9.93323e-21
6.18078e-20
3.21231e-19
1.425e-18
5.46469e-18
1.83523e-17
5.54958e-17
1.59422e-16
4.833e-16
1.42193e-15
4.72131e-15
1.44105e-14
4.27101e-14
1.18597e-13
2.90374e-13
6.175e-13
1.2015e-12
2.19918e-12
9.69008e-28
3.93195e-26
8.11865e-25
1.11603e-23
1.13918e-22
9.13804e-22
5.97059e-21
3.27269e-20
1.54921e-19
6.52107e-19
2.5216e-18
9.33373e-18
3.43476e-17
1.26069e-16
4.41857e-16
1.66818e-15
5.49628e-15
1.65648e-14
4.58029e-14
1.1314e-13
2.61756e-13
5.55714e-13
9.5184e-13
3.71588e-29
1.67709e-27
3.81439e-26
5.77868e-25
6.51323e-24
5.81828e-23
4.30073e-22
2.7236e-21
1.52534e-20
7.7857e-20
3.73059e-19
1.72484e-18
7.60237e-18
3.06419e-17
1.34366e-16
4.94231e-16
1.65339e-15
5.57216e-15
1.64116e-14
4.14815e-14
9.44706e-14
1.95451e-13
3.69569e-13
1.01646e-30
4.95735e-29
1.42978e-27
2.52237e-26
3.31896e-25
3.48869e-24
3.07551e-23
2.35654e-22
1.60122e-21
9.7341e-21
5.55938e-20
3.15284e-19
1.5437e-18
6.79525e-18
3.25033e-17
1.27445e-16
4.63071e-16
1.54679e-15
4.75084e-15
1.29432e-14
3.14029e-14
7.00399e-14
1.32911e-13
2.52705e-32
1.71272e-30
5.25741e-29
1.07303e-27
1.64225e-26
2.02498e-25
2.10811e-24
1.89728e-23
1.4904e-22
1.08177e-21
7.66734e-21
4.56672e-20
2.3825e-19
1.37371e-18
6.32505e-18
2.68157e-17
1.03573e-16
3.68934e-16
1.18879e-15
3.37202e-15
8.60555e-15
1.96748e-14
4.00523e-14
5.50408e-34
3.99181e-32
1.44769e-30
3.49933e-29
6.3799e-28
9.4133e-27
1.17323e-25
1.26767e-24
1.20683e-23
1.0202e-22
7.74057e-22
5.17986e-21
2.98024e-20
1.91008e-19
9.6584e-19
4.50378e-18
1.90091e-17
7.24434e-17
2.4798e-16
7.58702e-16
2.04385e-15
4.87415e-15
1.12165e-14
8.00505e-36
6.90667e-34
2.98217e-32
8.62191e-31
1.87969e-29
3.25278e-28
4.62293e-27
5.91708e-26
7.02263e-25
6.8037e-24
5.72639e-23
4.06375e-22
3.25548e-21
1.99489e-20
1.11297e-19
5.64957e-19
2.63293e-18
1.09632e-17
4.01566e-17
1.33185e-16
3.98891e-16
1.07553e-15
2.58953e-15
8.41917e-38
8.82659e-36
4.58872e-34
1.59552e-32
4.1857e-31
8.80844e-30
1.53639e-28
2.26375e-27
2.85857e-26
3.14099e-25
3.05714e-24
2.67928e-23
2.12627e-22
1.51539e-21
9.60052e-21
5.41919e-20
2.76542e-19
1.28754e-18
5.40144e-18
1.99548e-17
6.4147e-17
1.85109e-16
5.29614e-16
6.79294e-40
8.70317e-38
5.50482e-36
2.31212e-34
7.26004e-33
1.81004e-31
3.70882e-30
6.38809e-29
9.40918e-28
1.20274e-26
1.35175e-25
1.34964e-24
1.20382e-23
9.61154e-23
6.8672e-22
4.36355e-21
2.46731e-20
1.25765e-19
5.80033e-19
2.391e-18
8.75963e-18
2.85965e-17
8.4966e-17
3.63452e-42
5.85605e-40
4.56567e-38
2.32778e-36
8.7674e-35
2.58877e-33
6.21728e-32
1.24424e-30
2.09771e-29
2.99986e-28
3.79553e-27
4.50479e-26
4.79152e-25
4.32728e-24
3.53878e-23
2.60581e-22
1.7136e-21
1.00056e-20
5.18625e-20
2.39298e-19
9.71575e-19
3.55631e-18
1.30278e-17
1.49532e-44
2.82885e-42
2.56987e-40
1.52788e-38
6.71595e-37
2.32805e-35
6.62416e-34
1.58959e-32
3.27803e-31
5.87989e-30
9.20883e-29
1.24956e-27
1.46017e-26
1.52145e-25
1.48428e-24
1.28892e-23
9.4242e-23
6.17315e-22
3.64588e-21
1.94988e-20
9.37684e-20
4.04213e-19
1.55841e-18
4.19941e-47
9.75073e-45
1.083e-42
7.89197e-41
4.2464e-39
1.79101e-37
6.14281e-36
1.75754e-34
4.26829e-33
8.88727e-32
1.59536e-30
2.48049e-29
3.34988e-28
3.96361e-27
4.28992e-26
4.4104e-25
4.02679e-24
3.09043e-23
2.11986e-22
1.31154e-21
7.34357e-21
3.6666e-20
1.66088e-19
7.87688e-50
2.25705e-47
3.04878e-45
2.70266e-43
1.77575e-41
9.18754e-40
3.87623e-38
1.36289e-36
4.04924e-35
1.02552e-33
2.22656e-32
4.16359e-31
6.73211e-30
9.41109e-29
1.1419e-27
1.2502e-26
1.28937e-25
1.1922e-24
9.51593e-24
6.98338e-23
4.58846e-22
2.60679e-21
1.32889e-20
9.8066e-53
3.39965e-50
5.41479e-48
5.70547e-46
4.48062e-44
2.78051e-42
1.41084e-40
5.98551e-39
2.15683e-37
6.67454e-36
1.78619e-34
4.1459e-33
8.3477e-32
1.46e-30
2.23597e-29
3.0421e-28
3.70147e-27
3.92349e-26
3.46081e-25
2.85774e-24
2.5868e-23
1.81552e-22
1.11942e-21
5.41442e-56
2.11513e-53
4.00696e-51
5.21456e-49
5.18777e-47
4.11971e-45
2.67671e-43
1.45144e-41
6.6598e-40
2.60628e-38
8.7428e-37
2.52572e-35
6.3289e-34
1.38929e-32
2.69536e-31
4.63485e-30
7.04287e-29
9.38305e-28
1.05805e-26
9.02785e-26
7.16495e-25
9.77885e-24
7.19293e-23
2.40372e-59
9.78732e-57
2.18466e-54
3.54465e-52
4.50172e-50
4.6143e-48
3.89073e-46
2.73407e-44
1.61767e-42
8.13311e-41
3.50134e-39
1.29762e-37
4.15121e-36
1.14805e-34
2.75584e-33
5.79263e-32
1.07481e-30
1.7619e-29
2.56612e-28
3.39362e-27
3.21466e-26
4.38169e-25
3.87929e-24
4.45098e-63
1.46624e-60
3.50355e-58
6.84242e-56
1.11706e-53
1.52255e-51
1.73443e-49
1.65904e-47
1.33886e-45
9.14266e-44
5.29761e-42
2.62135e-40
1.11944e-38
4.16261e-37
1.35106e-35
3.83282e-34
9.57798e-33
2.11788e-31
4.04554e-30
6.60364e-29
1.01016e-27
1.4251e-26
1.5873e-25
1.97764e-67
4.68389e-65
1.17947e-62
2.95885e-60
6.94329e-58
1.42482e-55
2.46801e-53
3.57065e-51
4.32402e-49
4.41541e-47
3.83524e-45
2.85641e-43
1.83521e-41
1.02079e-39
4.91455e-38
2.0289e-36
7.02774e-35
2.03032e-33
5.21773e-32
1.27785e-30
2.75389e-29
4.80375e-28
7.02706e-27
3.80564e-73
6.52526e-71
1.5783e-68
5.17108e-66
1.8967e-63
6.57508e-61
1.98051e-58
5.04053e-56
1.08139e-53
1.96758e-51
3.05705e-49
4.07624e-47
4.67731e-45
4.62226e-43
3.9304e-41
2.86683e-39
1.78037e-37
9.26863e-36
3.9674e-34
1.40309e-32
4.29468e-31
1.13822e-29
2.39586e-28
5.98488e-83
5.13392e-81
1.34982e-78
7.80817e-76
6.83863e-73
6.63164e-70
5.88675e-67
4.43702e-64
2.79241e-61
1.47054e-58
6.52184e-56
2.4524e-53
7.86662e-51
2.16385e-48
5.12501e-46
1.04752e-43
1.84615e-41
2.78998e-39
3.56659e-37
3.73624e-35
3.03081e-33
1.71633e-31
6.53432e-30
0.00158527
0.0148425
0.0578272
0.0720983
0.0152205
0.020466
0.0186971
0.0194272
0.301352
0.210462
0.0970995
0.0852591
0.171271
0.0883263
0.0312245
0.25966
0.000444225
1.39891e-05
0.015514
-0.000602675
1.11427e-07
9.87667e-08
2.53828e-05
7.4879e-08
0.172554
0.116372
0.194593
0.770026
0.953501
0.97077
0.994867
1
0.99997
0.999941
0.999989
1
0.960067
0.957368
0.954071
0.942725
0.267672
0.268074
0.273669
0.254518
1.25639e-19
1.63599e-20
3.20772e-19
8.61011e-26
2.48972e-09
2.86883e-09
3.57907e-09
7.92064e-09
5.10519e-09
4.0119e-09
1.46351e-08
3.22551e-08
6.41501e-09
8.72902e-09
1.11826e-08
7.2807e-08
6.26903e-09
4.67322e-09
2.55221e-08
4.79048e-08
3.08701e-09
2.70739e-09
7.37306e-09
1.16927e-08
2.50882e-10
9.1154e-11
6.12887e-11
5.20778e-11
2.63417e-11
3.28389e-11
4.70035e-11
5.18248e-11
2.08765e-11
2.46789e-11
2.71875e-11
3.09735e-11
1.21515e-11
1.42676e-11
1.63628e-11
1.73024e-11
6.6875e-12
7.55177e-12
8.4488e-12
9.29059e-12
3.14671e-12
3.73724e-12
4.28402e-12
4.63854e-12
1.43898e-12
1.67674e-12
1.99237e-12
2.22885e-12
5.85466e-13
7.02906e-13
8.35589e-13
9.556e-13
2.20363e-13
2.7159e-13
3.33181e-13
3.89259e-13
7.26366e-14
9.29201e-14
1.16207e-13
1.40965e-13
2.11174e-14
2.84927e-14
3.80209e-14
4.76662e-14
5.49144e-15
7.83654e-15
1.07468e-14
1.42031e-14
1.2157e-15
1.85169e-15
2.75933e-15
3.78825e-15
2.34224e-16
3.79185e-16
5.94028e-16
8.86978e-16
3.54774e-17
6.9986e-17
1.15356e-16
1.86586e-16
5.3022e-18
1.03466e-17
1.90254e-17
3.36088e-17
5.9365e-19
1.46657e-18
2.90954e-18
5.64381e-18
6.74398e-20
1.68018e-19
3.76277e-19
8.03148e-19
6.03082e-21
1.70373e-20
4.47685e-20
1.09203e-19
4.64313e-22
1.52118e-21
4.61532e-21
1.29328e-20
3.05844e-23
1.18006e-22
4.21418e-22
1.38459e-21
1.65039e-24
8.22384e-24
3.48448e-23
1.36624e-22
8.80111e-26
5.07865e-25
2.64722e-24
1.24025e-23
4.05963e-27
3.02304e-26
1.97221e-25
1.15097e-24
1.95006e-28
1.91e-27
1.61936e-26
1.09284e-25
0.762476
0.447281
0.00862509
3.15563e-09
0.234408
0.899096
1
1
1
1
1
1
1
1
1
1
1
1
1
0.0870662
0.0510899
0.00529803
0.0136322
0.516493
0.981784
1
1
1
1
1
1
1
1
1
1
1
1
1
0.0682194
0.0839892
0.175951
0.285954
0.604021
0.99392
1
1
1
1
1
1
1
1
1
1
1
1
1
0.601189
0.722488
0.816302
0.949038
0.999995
1
1
1
1
1
1
0.973873
0.891296
0.935368
1
1
1
1
1
0.156732
0.94094
0.997856
0.999688
0.99995
1
1
1
1
0.976482
0.783405
0.436159
0.147997
0.222621
0.661729
1
1
1
1
0.193756
0.951908
1
1
0.999999
1
1
1
0.933801
0.523686
0.0297052
3.9278e-07
1.62099e-07
1.79951e-07
0.0454167
0.8899
0.999054
1
1
0.999997
0.999999
1
1
1
1
1
0.844569
0.304594
3.95332e-07
1.80935e-08
1.63803e-08
2.81646e-08
4.72207e-08
1.20986e-07
0.341429
0.967299
1
1
1
1
1
1
1
0.931058
0.622871
0.0939434
6.47504e-07
2.836e-07
1.70122e-07
5.62199e-08
3.8446e-08
4.71112e-08
4.44183e-08
0.00211096
0.993883
1
1
1
1
1
0.952308
0.725513
0.240178
1.71565e-06
1.81258e-06
2.04173e-06
1.78942e-06
3.58353e-07
2.67277e-08
2.94425e-08
4.14946e-08
3.31049e-08
6.41078e-09
0.967908
0.997765
1
0.864723
0.764036
0.601217
0.280995
1.01889e-06
1.23445e-06
2.37481e-06
4.20763e-06
4.29961e-06
2.35347e-06
6.14539e-08
2.50154e-08
2.91366e-08
3.3353e-08
2.34631e-08
1.16502e-08
0.311191
0.983266
1
0.118032
0.00531297
4.84268e-08
1.68975e-07
8.34448e-07
4.46962e-06
1.21038e-05
1.14733e-05
1.4062e-06
1.13917e-07
3.84137e-08
2.62088e-08
2.48911e-08
2.36462e-08
1.77284e-08
1.13845e-08
6.75902e-07
0.981751
1
1.43291e-25
-2.13943e-11
5.15614e-09
3.60255e-07
8.87868e-06
1.21038e-05
1.19693e-05
3.65869e-06
2.16933e-07
3.99546e-09
1.58161e-08
1.89883e-08
1.75228e-08
1.62352e-08
1.32241e-08
1.00496e-08
0.000280259
0.997457
1
1.85177e-08
1.15818e-08
1.01267e-07
4.12992e-06
4.46426e-06
3.6698e-06
3.0117e-07
9.69614e-09
9.36888e-10
1.713e-09
6.02483e-09
7.84905e-09
1.09483e-08
1.14031e-08
1.08312e-08
1.06746e-08
0.00295352
1
1
6.01514e-08
1.03155e-07
8.77327e-07
2.32037e-07
3.83907e-08
1.05821e-10
1.11134e-10
1.6799e-10
3.25558e-10
7.69509e-10
2.58204e-09
4.79489e-09
6.86021e-09
8.44693e-09
9.7414e-09
9.27685e-09
0.000313485
0.487021
0.994114
1.31546e-07
5.81346e-08
9.63391e-09
5.91263e-10
1.0903e-10
1.1138e-10
1.77969e-10
2.54976e-10
3.948e-10
7.67078e-10
1.79899e-09
3.30181e-09
5.22877e-09
7.13604e-09
9.30213e-09
1.1112e-08
1.51679e-07
2.30858e-06
0.981292
7.45479e-08
2.51035e-08
2.78692e-09
3.47102e-10
1.67759e-10
1.73441e-10
1.94877e-10
2.82441e-10
5.4359e-10
1.07838e-09
2.05102e-09
3.39851e-09
5.26213e-09
7.08496e-09
9.60352e-09
1.24633e-08
9.36921e-08
1.32026e-08
0.889398
1.2699e-09
8.80988e-11
1.55401e-10
1.4274e-10
1.28435e-10
1.31358e-10
1.93897e-10
3.73268e-10
7.58413e-10
1.45644e-09
2.57717e-09
4.18292e-09
5.97466e-09
9.15624e-09
1.15784e-08
1.15993e-08
3.14804e-08
1.14686e-08
0.758417
5.61502e-11
8.52606e-11
9.67987e-11
8.68759e-11
8.64832e-11
1.17432e-10
2.17252e-10
4.59631e-10
9.0884e-10
1.69138e-09
2.98889e-09
4.87689e-09
7.56123e-09
1.00836e-08
1.46926e-08
2.15182e-08
1.04243e-08
1.22479e-08
0.786095
5.6374e-11
5.92051e-11
5.65244e-11
5.50533e-11
6.54303e-11
1.05204e-10
2.26184e-10
4.66334e-10
9.40269e-10
1.77829e-09
3.18589e-09
5.42014e-09
8.34172e-09
1.88701e-08
3.22351e-08
1.53709e-08
6.91324e-08
1.33743e-08
0.904076
3.22518e-11
3.41007e-11
3.3639e-11
3.59705e-11
4.89271e-11
8.70222e-11
1.9619e-10
4.09129e-10
8.3786e-10
1.61841e-09
3.02528e-09
5.60914e-09
1.15917e-08
2.65003e-08
4.88316e-08
1.92762e-07
1.39996e-07
0.00137892
0.937491
1.84878e-11
1.93288e-11
1.98791e-11
2.28228e-11
3.32279e-11
6.76338e-11
1.41675e-10
3.07198e-10
6.43565e-10
1.29518e-09
2.49933e-09
4.97966e-09
9.74254e-09
4.5918e-08
1.96422e-07
1.66779e-07
5.69279e-07
0.019465
0.937417
9.75722e-12
1.06164e-11
1.13857e-11
1.3655e-11
2.06849e-11
4.34398e-11
9.25155e-11
2.04662e-10
4.39813e-10
9.21758e-10
1.89795e-09
4.31478e-09
1.75617e-08
9.20301e-08
3.11555e-07
1.00639e-06
1.04066e-06
0.0277385
0.93749
5.056e-12
5.57383e-12
6.21166e-12
7.61951e-12
1.20414e-11
2.39157e-11
5.29314e-11
1.18819e-10
2.62734e-10
5.81249e-10
1.28972e-09
3.0323e-09
1.2748e-08
4.90287e-08
2.83793e-07
6.11887e-07
1.52263e-06
0.015813
0.375377
2.40082e-12
2.79176e-12
3.07101e-12
3.95117e-12
6.12262e-12
1.21569e-11
2.72611e-11
6.2096e-11
1.40298e-10
3.25818e-10
7.93934e-10
1.92425e-09
5.32443e-09
1.8215e-08
4.16671e-08
3.04983e-06
3.43785e-05
0.000121282
1.05833e-05
1.0881e-12
1.28064e-12
1.47716e-12
1.89851e-12
2.87382e-12
5.62543e-12
1.25694e-11
2.90146e-11
6.58803e-11
1.506e-10
3.59025e-10
9.04342e-10
2.00538e-09
4.70671e-09
1.45471e-08
2.82109e-07
5.46346e-09
1.35476e-07
2.24419e-08
4.42879e-13
5.59192e-13
6.57938e-13
8.46884e-13
1.24259e-12
2.33278e-12
5.16371e-12
1.2177e-11
2.81462e-11
6.27712e-11
1.51833e-10
4.01451e-10
1.03418e-09
2.27768e-09
3.69073e-09
4.41917e-09
4.25484e-09
7.44946e-08
4.25453e-08
1.69026e-13
2.24004e-13
2.73484e-13
3.54602e-13
5.08368e-13
8.98893e-13
1.92807e-12
4.58085e-12
1.10077e-11
2.5187e-11
5.70865e-11
1.48081e-10
4.24054e-10
1.08246e-09
2.53074e-09
4.96078e-09
7.91223e-09
1.19994e-08
2.25815e-08
5.80227e-14
8.18203e-14
1.05993e-13
1.41748e-13
1.98067e-13
3.27153e-13
6.66719e-13
1.57103e-12
3.86583e-12
9.22562e-12
2.07148e-11
4.93511e-11
1.38036e-10
4.02388e-10
1.00518e-09
2.45052e-09
5.01753e-09
9.51848e-09
1.13571e-08
1.81518e-14
2.76693e-14
3.79386e-14
5.29694e-14
7.26892e-14
1.13058e-13
2.15579e-13
4.92652e-13
1.21969e-12
2.97783e-12
6.79004e-12
1.5248e-11
3.91627e-11
8.86135e-11
3.06062e-10
8.29795e-10
1.99578e-09
4.16211e-09
5.38547e-09
5.08001e-15
8.29208e-15
1.28178e-14
1.81303e-14
2.50366e-14
3.70846e-14
6.56559e-14
1.42353e-13
3.47996e-13
8.60338e-13
1.9969e-12
4.40215e-12
1.08449e-11
2.57347e-11
7.27578e-11
2.13193e-10
5.68129e-10
1.25682e-09
1.81815e-09
1.26716e-15
2.29214e-15
3.93832e-15
5.80743e-15
8.08015e-15
1.15218e-14
1.89351e-14
3.82064e-14
9.03357e-14
2.23571e-13
5.26686e-13
1.13805e-12
2.02996e-12
5.64547e-12
1.4542e-11
4.22535e-11
1.19337e-10
2.76249e-10
4.12001e-10
2.87163e-16
5.7765e-16
1.09444e-15
1.68929e-15
2.39247e-15
3.38313e-15
5.19706e-15
9.61313e-15
2.14902e-14
5.2386e-14
1.25246e-13
2.73782e-13
5.56526e-13
1.19037e-12
2.63464e-12
6.89713e-12
1.92115e-11
4.46153e-11
5.98639e-11
5.59422e-17
1.25334e-16
2.72408e-16
4.55023e-16
6.60209e-16
9.2936e-16
1.35262e-15
2.28687e-15
4.72727e-15
1.11557e-14
2.67213e-14
6.01699e-14
1.21843e-13
2.41595e-13
4.60008e-13
9.93469e-13
2.44481e-12
5.30023e-12
5.71312e-12
1.03393e-17
2.75104e-17
6.17859e-17
1.11833e-16
1.66588e-16
2.33033e-16
3.32058e-16
5.1763e-16
9.72242e-16
2.17581e-15
5.15701e-15
1.17722e-14
2.44108e-14
4.60137e-14
7.81012e-14
1.33452e-13
2.53312e-13
4.56274e-13
1.3098e-13
1.51322e-18
5.17086e-18
1.28405e-17
2.45185e-17
3.95034e-17
5.48606e-17
7.72634e-17
1.12132e-16
1.89947e-16
3.92625e-16
9.06273e-16
2.06389e-15
4.31433e-15
8.05573e-15
1.2369e-14
1.68679e-14
2.17618e-14
3.05521e-14
1.94116e-14
2.48427e-19
8.94012e-19
2.46157e-18
5.06169e-18
8.10143e-18
1.21324e-17
1.6752e-17
2.33847e-17
3.59483e-17
6.69971e-17
1.47818e-16
3.2574e-16
6.68167e-16
1.19838e-15
1.76066e-15
1.94188e-15
1.6539e-15
2.08442e-15
1.2858e-15
3.06238e-20
1.43842e-19
4.38745e-19
9.91284e-19
1.72515e-18
2.58129e-18
3.42907e-18
4.63855e-18
6.49854e-18
1.06147e-17
1.99174e-17
4.65996e-17
9.45816e-17
1.56668e-16
2.23146e-16
2.06281e-16
1.37423e-16
1.59136e-16
9.3276e-17
4.18291e-21
2.02609e-20
7.14983e-20
1.77711e-19
3.31897e-19
4.74539e-19
6.72966e-19
8.75414e-19
1.12523e-18
1.67935e-18
2.73092e-18
6.32104e-18
1.24858e-17
2.0463e-17
2.63646e-17
2.27134e-17
1.34092e-17
1.07996e-17
5.92704e-18
4.90425e-22
2.71042e-21
1.06497e-20
2.92644e-20
5.91138e-20
9.08423e-20
1.27415e-19
1.6196e-19
1.92746e-19
2.32185e-19
3.95851e-19
5.44922e-19
1.50892e-18
2.54931e-18
3.04353e-18
2.68129e-18
1.33352e-18
6.39091e-19
2.86411e-19
5.26861e-23
3.37982e-22
1.47667e-21
4.46665e-21
9.66621e-21
1.56601e-20
1.97704e-20
2.31109e-20
2.72917e-20
3.54118e-20
5.4537e-20
9.08214e-20
1.67423e-19
2.82334e-19
3.3224e-19
3.15944e-19
1.3029e-19
4.11335e-20
1.09e-20
5.56238e-24
4.01515e-23
1.94138e-22
6.407e-22
1.47919e-21
2.51385e-21
3.36133e-21
3.76936e-21
4.26868e-21
5.49277e-21
7.2009e-21
1.05861e-20
1.73909e-20
2.85439e-20
3.42155e-20
3.48654e-20
1.20362e-20
2.99827e-21
4.59072e-22
5.92707e-25
4.69747e-24
2.46625e-23
8.75171e-23
2.14305e-22
3.79831e-22
5.3917e-22
6.21288e-22
6.82734e-22
7.60559e-22
9.01453e-22
1.17304e-21
1.72005e-21
2.6844e-21
3.35637e-21
3.39368e-21
9.93032e-22
1.91481e-22
1.85797e-23
)
;

boundaryField
{
    leftWall
    {
        type            alphaContactAngle;
        contactAngleProperties 
        {
            mercury         
            {
                theta0          90;
            }
            air             
            {
                theta0          90;
            }
            water           
            {
                theta0          90;
            }
        }
        value           nonuniform List<scalar> 
50
(
1.96951e-59
2.6655e-61
1.2418e-54
2.27308e-47
1.55573e-45
1.63931e-42
6.43392e-39
5.3632e-37
4.40055e-36
5.17069e-35
4.4612e-34
2.52132e-33
7.71564e-33
4.83471e-31
6.44263e-29
9.46364e-28
2.97372e-27
8.1673e-27
2.05008e-26
4.61518e-26
9.31873e-26
1.83214e-25
3.4375e-25
5.81162e-25
8.30169e-25
9.47698e-25
8.44561e-25
5.18993e-25
2.3875e-25
7.11305e-26
1.24257e-26
9.69008e-28
3.71588e-29
1.01646e-30
2.52705e-32
5.50408e-34
8.00505e-36
8.41917e-38
6.79294e-40
3.63452e-42
1.49532e-44
4.19941e-47
7.87688e-50
9.8066e-53
5.41442e-56
2.40372e-59
4.45098e-63
1.97764e-67
3.80564e-73
5.98488e-83
)
;
    }
    rightWall
    {
        type            alphaContactAngle;
        contactAngleProperties 
        {
            mercury         
            {
                theta0          90;
            }
            air             
            {
                theta0          90;
            }
            water           
            {
                theta0          90;
            }
        }
        value           nonuniform List<scalar> 
50
(
0.928892
0.868358
0.868278
0.958627
1
1
1
1
1
1
1
1
1
1
1
1
1
1
1
1
1
0.994114
0.981292
0.889398
0.758417
0.786095
0.904076
0.937491
0.937417
0.93749
0.375377
1.05833e-05
2.24419e-08
4.25453e-08
2.25815e-08
1.13571e-08
5.38547e-09
1.81815e-09
4.12001e-10
5.98639e-11
5.71312e-12
1.3098e-13
1.94116e-14
1.2858e-15
9.3276e-17
5.92704e-18
2.86411e-19
1.09e-20
4.59072e-22
1.85797e-23
)
;
    }
    lowerWall
    {
        type            alphaContactAngle;
        contactAngleProperties 
        {
            mercury         
            {
                theta0          90;
            }
            air             
            {
                theta0          90;
            }
            water           
            {
                theta0          90;
            }
        }
        value           nonuniform List<scalar> 
62
(
1.96951e-59
1.39229e-57
2.00451e-55
1.21757e-53
5.65367e-52
1.37059e-50
8.61172e-50
2.64854e-49
-2.73355e-34
-6.62447e-31
-2.88541e-29
-1.14726e-27
8.50926e-17
9.84623e-16
3.10121e-15
1.04867e-13
1.60521e-12
6.23834e-12
2.28712e-11
4.49623e-11
4.5418e-11
7.16031e-12
0.000833478
0.000833478
0.000834216
0.000372494
2.8863e-09
4.33899e-10
0.000260849
0.000595915
0.000518283
0.00158527
0.0148425
0.0578272
0.0720983
0.999773
0.999707
0.99907
0.999
0.992237
0.990695
0.989343
0.988821
0.999773
0.999999
0.999999
1
1
0.999951
0.999833
0.999827
0.999854
0.999979
1
1
0.995368
0.991193
0.991209
0.999613
0.980558
0.873112
0.928892
)
;
    }
    atmosphere
    {
        type            inletOutlet;
        inletValue      uniform 0;
        value           nonuniform List<scalar> 
46
(
0
0
0
0
0
0
0
0
0
0
0
0
0
0
0
0
0
0
0
0
0
0
0
1.95006e-28
1.91e-27
1.61936e-26
1.09284e-25
5.92707e-25
4.69747e-24
2.46625e-23
8.75171e-23
2.14305e-22
3.79831e-22
5.3917e-22
6.21288e-22
6.82734e-22
7.60559e-22
9.01453e-22
1.17304e-21
1.72005e-21
2.6844e-21
3.35637e-21
3.39368e-21
9.93032e-22
1.91481e-22
1.85797e-23
)
;
    }
    defaultFaces
    {
        type            empty;
    }
}


// ************************************************************************* //
