/*--------------------------------*- C++ -*----------------------------------*\
  =========                 |
  \\      /  F ield         | OpenFOAM: The Open Source CFD Toolbox
   \\    /   O peration     | Website:  https://openfoam.org
    \\  /    A nd           | Version:  13
     \\/     M anipulation  |
\*---------------------------------------------------------------------------*/
FoamFile
{
    format      ascii;
    class       volScalarField;
    location    "0.35";
    object      alpha.water;
}
// * * * * * * * * * * * * * * * * * * * * * * * * * * * * * * * * * * * * * //

dimensions      [];

internalField   nonuniform List<scalar> 
2268
(
2.60454e-15
7.67963e-14
2.62745e-13
5.46227e-13
1.08136e-12
2.07146e-12
3.85026e-12
6.18924e-12
9.16148e-12
1.33429e-11
1.88602e-11
2.62559e-11
3.37877e-11
4.19579e-11
4.9303e-11
5.68782e-11
6.19292e-11
6.97468e-11
2.24722e-10
1.82177e-09
3.83162e-09
3.975e-09
2.04711e-09
1.83588e-15
1.44456e-12
3.31237e-12
5.3145e-12
8.76377e-12
1.50101e-11
2.43011e-11
3.67966e-11
5.35132e-11
7.49118e-11
9.97527e-11
1.31701e-10
1.64379e-10
1.99362e-10
2.27969e-10
2.37516e-10
2.22754e-10
1.18113e-10
2.31103e-09
4.87157e-09
4.37235e-09
3.46375e-09
1.63125e-09
1.51391e-12
9.50368e-12
1.68748e-11
2.4216e-11
3.27578e-11
4.70785e-11
6.77092e-11
9.92835e-11
1.37736e-10
1.84915e-10
2.35429e-10
3.00242e-10
3.72428e-10
4.38433e-10
4.96149e-10
5.4515e-10
5.63532e-10
5.02891e-10
1.1202e-09
1.42148e-09
1.40192e-09
1.00992e-08
3.00678e-09
1.69726e-11
3.28205e-11
3.9734e-11
4.45154e-11
5.41421e-11
6.99287e-11
9.13797e-11
1.24704e-10
1.68298e-10
2.19187e-10
2.76816e-10
3.43449e-10
4.15199e-10
4.97128e-10
5.61478e-10
6.22195e-10
8.38064e-10
8.55041e-10
9.61697e-12
3.57216e-09
1.50405e-07
7.59323e-09
2.98401e-09
2.76469e-10
2.21243e-10
9.99513e-11
3.02958e-11
3.82889e-11
4.22178e-11
5.27832e-11
6.41109e-11
8.06931e-11
1.20053e-10
1.62387e-10
2.01431e-10
2.41425e-10
3.12864e-10
3.04318e-10
4.81876e-10
5.38661e-10
3.47181e-10
5.31176e-15
6.1033e-08
2.98744e-07
2.58711e-07
1.81412e-08
3.34104e-08
1.62059e-08
1.15565e-08
7.99558e-09
5.82451e-09
4.13504e-09
3.02076e-09
2.05581e-09
1.08722e-09
1.34239e-10
7.99199e-11
1.15352e-10
1.6079e-10
2.1362e-10
0.000407991
0.000191608
1.22157e-09
-9.40033e-27
1.05461e-17
2.97913e-08
2.45231e-07
3.66819e-07
2.93094e-07
0.168377
0.136144
0.11359
0.108541
0.110212
0.114885
0.124191
0.140436
0.16544
0.199983
0.243256
0.293176
0.347043
0.398024
0.435153
0.427462
0.353617
0.195694
0.00727417
1.26068e-21
5.45235e-18
-1.97739e-08
5.20222e-12
0.872448
0.819696
0.77992
0.764815
0.765872
0.771649
0.784891
0.807028
0.837417
0.872484
0.907874
0.939981
0.966683
0.986714
0.993486
0.998543
0.983622
0.915482
0.681815
0.102272
1.60095e-05
1.41947e-05
3.23563e-06
4.4923e-11
8.1556e-11
1.28767e-10
1.46017e-10
1.56881e-10
1.42743e-10
1.23876e-10
1.10823e-10
7.73194e-11
6.09192e-11
5.33093e-11
4.26483e-11
2.78043e-11
1.71063e-11
1.23053e-11
6.71757e-12
2.2637e-12
3.08408e-13
2.08775e-14
5.00013e-11
1.57832e-10
2.5625e-10
3.08187e-10
3.35491e-10
3.22664e-10
2.82253e-10
2.41152e-10
2.20997e-10
1.86449e-10
1.55219e-10
1.25482e-10
9.53912e-11
7.67064e-11
4.85415e-11
2.20967e-11
6.86394e-12
7.70753e-13
1.04115e-13
5.82311e-11
2.23743e-10
3.69669e-10
4.32502e-10
4.65631e-10
4.8393e-10
4.55102e-10
3.85762e-10
3.29513e-10
2.86905e-10
2.42775e-10
2.05708e-10
1.69837e-10
1.42834e-10
9.94902e-11
5.20051e-11
2.06152e-11
3.19365e-12
1.78463e-13
5.54474e-11
2.07755e-10
3.18862e-10
3.66698e-10
4.85286e-10
5.31597e-10
5.83802e-10
4.98962e-10
4.14129e-10
3.42626e-10
2.87512e-10
2.47739e-10
2.11734e-10
1.82334e-10
1.40193e-10
8.61755e-11
3.7304e-11
7.71841e-12
5.7914e-13
4.84307e-11
1.5351e-10
1.18978e-10
1.29496e-10
4.24789e-10
7.60525e-10
7.1802e-10
6.03466e-10
4.78605e-10
3.75888e-10
3.11022e-10
2.61663e-10
2.28184e-10
2.00361e-10
1.54348e-10
1.1517e-10
5.10598e-11
1.95927e-11
2.57542e-12
3.50366e-11
9.19155e-11
2.42754e-11
3.93335e-11
3.68863e-10
1.28691e-09
1.3831e-09
1.17914e-09
7.83362e-10
5.20944e-10
3.7095e-10
2.79555e-10
2.30106e-10
2.06914e-10
1.77645e-10
1.35316e-10
7.12272e-11
2.38992e-11
5.97717e-12
2.22471e-11
4.32716e-11
1.69059e-11
1.70758e-11
4.09128e-10
1.7113e-09
1.92698e-09
1.69995e-09
1.15641e-09
7.94376e-10
5.20333e-10
3.57681e-10
2.30961e-10
1.94262e-10
1.70406e-10
1.39251e-10
7.43284e-11
3.47838e-11
6.32453e-12
1.24436e-11
1.19312e-11
7.21492e-12
3.75526e-11
3.51096e-10
1.72041e-09
2.34717e-09
2.04824e-09
1.54505e-09
1.0603e-09
6.72615e-10
4.42714e-10
2.58987e-10
1.81093e-10
1.52738e-10
1.31513e-10
8.72736e-11
3.60486e-11
8.27372e-12
1
1
1
1
1
1
1
1
1
1
1
1
1
1
1
1
1
1
0.999984
0.900888
0.347201
9.89303e-06
1.0297e-05
1
1
1
1
1
1
1
1
1
1
1
1
1
1
1
1
1
1
0.999999
0.999016
0.954476
0.408099
-1.00318e-07
1
1
1
1
1
1
1
1
1
1
1
1
1
1
1
1
1
1
1
0.999944
0.997905
0.953069
0.433382
1
1
1
1
1
1
1
1
1
1
1
1
1
1
1
1
1
1
1
1
0.999996
0.998222
0.857921
1
1
1
1
1
1
1
1
1
1
1
1
1
1
1
1
0.999999
1
1
1
1
1
0.999796
1
1
1
1
1
1
1
1
1
1
1
1
1
1
1
1
0.999999
0.999992
0.999993
0.999996
0.999998
0.999999
0.999999
0.826396
0.858016
0.890135
0.916777
0.938698
0.955373
0.967854
0.976713
0.983226
0.988256
0.991991
0.992339
0.994688
0.998994
1
0.999941
0.994384
0.967592
0.96702
0.959332
0.90652
0.838944
0.807977
0.0713048
0.10221
0.136334
0.173568
0.212718
0.251714
0.289099
0.323464
0.354267
0.386285
0.416985
0.421768
0.443498
0.513759
0.694209
0.85869
0.834528
0.387646
0.0748141
0.091061
0.0944046
0.0813982
0.0625006
-1.13711e-17
-2.72848e-17
-1.15075e-15
-1.12832e-13
-1.07111e-13
-6.20218e-14
-7.60759e-14
-7.82111e-14
-5.73135e-25
-4.84365e-14
-2.35044e-14
2.78702e-23
7.49051e-23
-6.12397e-10
0.0121581
0.104021
0.107584
0.0276393
2.288e-10
2.11051e-20
3.16157e-10
6.33441e-06
6.37318e-06
-2.3858e-17
-9.67712e-17
-3.15181e-15
-4.08957e-13
-3.95609e-13
-2.35521e-13
-3.01251e-13
-3.20417e-13
-1.88664e-13
4.84654e-14
4.54995e-13
6.19552e-12
4.11716e-11
4.8885e-11
1.68543e-19
0
-9.42397e-12
7.81846e-08
0.000427699
0.000296889
5.74667e-06
4.63021e-10
4.2035e-10
-3.88554e-17
-2.30072e-16
-6.07486e-15
-5.70418e-13
-5.0143e-13
-2.78189e-13
-4.05741e-13
-4.25497e-13
-1.90135e-13
8.98519e-13
6.77301e-12
3.41407e-11
3.76555e-10
9.4358e-10
7.71221e-10
3.08826e-10
4.74138e-18
5.12297e-06
7.2179e-05
0.000104711
8.15177e-05
2.65674e-06
1.44418e-06
-5.40278e-17
-4.23545e-16
-9.51167e-15
-5.96372e-13
-4.50908e-13
-2.20324e-13
-3.88087e-13
-3.7625e-13
-1.98608e-14
2.1514e-12
1.44109e-11
8.98145e-11
8.51657e-10
1.72026e-09
1.73742e-09
1.15284e-09
2.91395e-10
4.23417e-11
1.1462e-11
-1.53288e-12
2.51482e-06
7.02672e-06
6.45425e-06
-6.23389e-17
-6.51723e-16
-1.25394e-14
-4.94648e-13
-3.07076e-13
-1.25957e-13
-2.8141e-13
-2.23179e-13
2.47218e-13
3.45262e-12
2.33309e-11
1.48612e-10
1.05714e-09
1.65281e-09
1.61535e-09
1.15425e-09
5.65657e-10
1.93736e-10
3.91438e-11
4.17082e-12
2.05442e-12
1.0952e-12
1.50177e-13
-6.42918e-17
-8.61915e-16
-1.39377e-14
-3.27789e-13
-1.59525e-13
-5.21125e-14
-1.53042e-13
-6.46007e-14
4.80566e-13
4.09731e-12
2.82256e-11
1.53191e-10
8.93633e-10
1.24367e-09
1.02894e-09
6.60072e-10
3.51597e-10
1.46111e-10
5.4124e-11
1.96605e-11
7.11805e-12
2.65546e-12
2.25207e-13
-5.9005e-17
-9.72152e-16
-1.27473e-14
-1.68362e-13
-6.19998e-14
-1.49504e-14
-5.58663e-14
3.46976e-14
5.80467e-13
4.00927e-12
2.48831e-11
1.35264e-10
4.98105e-10
5.8447e-10
4.47605e-10
2.53301e-10
1.21541e-10
5.18352e-11
2.0955e-11
8.54372e-12
3.57637e-12
1.64134e-12
3.02666e-13
-4.42852e-17
-8.19772e-16
-9.17531e-15
-6.24651e-14
-1.80182e-14
-2.63027e-15
-7.34959e-15
6.59749e-14
5.15586e-13
3.04075e-12
1.65497e-11
7.5361e-11
2.55754e-10
2.20364e-10
1.24678e-10
6.09056e-11
2.52919e-11
9.62937e-12
3.65979e-12
1.86384e-12
7.07611e-13
1.32037e-13
4.44483e-14
-2.35064e-17
-4.25109e-16
-3.82976e-15
-1.61431e-14
-3.81644e-15
1.55285e-16
5.82048e-15
5.43273e-14
3.41546e-13
1.78024e-12
7.44783e-12
2.6473e-11
6.91583e-11
4.96204e-11
2.06413e-11
6.97015e-12
2.07684e-12
6.184e-13
2.65122e-13
1.92018e-13
7.85434e-14
1.85372e-14
1.46421e-15
-7.52704e-18
-1.23362e-16
-8.96807e-16
-2.72597e-15
-5.00136e-16
4.92872e-16
4.42174e-15
2.93532e-14
1.56533e-13
6.79866e-13
2.43963e-12
6.14743e-12
1.05196e-11
4.18928e-12
7.13516e-13
8.37401e-14
8.76138e-15
3.406e-17
3.69592e-14
3.76758e-14
1.41281e-14
6.97932e-16
2.35838e-18
-1.09782e-18
-1.59656e-17
-9.65983e-17
-2.30445e-16
-2.5002e-17
1.4486e-16
1.13623e-15
7.01131e-15
3.35604e-14
1.25763e-13
3.60631e-13
6.77481e-13
6.43178e-13
1.0117e-16
-7.06527e-33
-5.80442e-33
-1.87402e-33
-9.90707e-31
8.00313e-31
5.46476e-30
3.10864e-29
8.84176e-29
7.68709e-28
8.20984e-35
4.53878e-30
9.49058e-29
1.08652e-27
6.76049e-27
1.82165e-26
6.13488e-42
8.52619e-41
1.06354e-39
1.20694e-38
1.25195e-37
1.19672e-36
1.07749e-35
9.15041e-35
6.97634e-34
5.44295e-33
4.03121e-32
2.68065e-31
1.63743e-30
9.80756e-30
5.5827e-29
2.75612e-28
1.13547e-27
2.85573e-42
1.82293e-40
5.31519e-39
8.97998e-38
9.01787e-37
5.29198e-43
8.70758e-42
1.25145e-40
1.60201e-39
1.85509e-38
1.96831e-37
1.93769e-36
1.77616e-35
1.51092e-34
1.14992e-33
9.45818e-33
6.29964e-32
3.88722e-31
2.28416e-30
1.30639e-29
6.63724e-29
2.86609e-28
1.10122e-27
7.68535e-51
6.89777e-49
3.20449e-47
1.02417e-45
2.52684e-44
5.10999e-43
8.76464e-42
1.30281e-40
1.70829e-39
2.01412e-38
2.16807e-37
2.13084e-36
1.91521e-35
1.62548e-34
1.23502e-33
9.77714e-33
6.24598e-32
3.73052e-31
2.12434e-30
1.12117e-29
5.33339e-29
2.28874e-28
8.1016e-28
3.92348e-51
3.74215e-49
1.84228e-47
6.2153e-46
1.60969e-44
3.39112e-43
6.007e-42
9.15339e-41
1.22437e-39
1.4633e-38
1.57173e-37
1.52204e-36
1.39654e-35
1.20343e-34
8.24892e-34
6.36551e-33
3.93908e-32
2.36179e-31
1.31903e-30
6.50403e-30
2.94381e-29
1.29012e-28
5.02791e-28
1.34622e-51
1.37854e-49
7.23134e-48
2.57598e-46
6.97221e-45
1.5193e-43
2.75988e-42
4.28714e-41
5.82332e-40
7.05275e-39
7.7174e-38
7.66677e-37
6.9081e-36
5.45528e-35
3.70889e-34
2.81276e-33
1.69925e-32
9.60792e-32
5.19913e-31
2.69965e-30
1.36208e-29
6.326e-29
2.6465e-28
3.16566e-52
3.5225e-50
1.94932e-48
7.29742e-47
2.05337e-45
4.6151e-44
8.61114e-43
1.37192e-41
1.90627e-40
2.3457e-39
2.59096e-38
2.5781e-37
2.20484e-36
1.59434e-35
1.32111e-34
8.50257e-34
5.14574e-33
3.18466e-32
1.72564e-31
8.49694e-31
4.12629e-30
1.98229e-29
9.04183e-29
4.51454e-53
5.07469e-51
3.19728e-49
1.26908e-47
3.76486e-46
8.86946e-45
1.72274e-43
2.81536e-42
3.89075e-41
4.70615e-40
5.43795e-39
5.82515e-38
5.02697e-37
3.76464e-36
3.25482e-35
2.1588e-34
1.37143e-33
8.28895e-33
4.64376e-32
2.44676e-31
1.29299e-30
6.73438e-30
3.22746e-29
3.26741e-54
4.77214e-52
3.10869e-50
1.34176e-48
4.30096e-47
1.08756e-45
2.23674e-44
3.78504e-43
5.51327e-42
7.60519e-41
9.58391e-40
9.55129e-39
8.13092e-38
8.15124e-37
6.12674e-36
4.36296e-35
2.98355e-34
1.93548e-33
1.14911e-32
6.30756e-32
3.32103e-31
1.63636e-30
7.51184e-30
1.90325e-55
2.79697e-53
2.02495e-51
9.61899e-50
3.36203e-48
9.19113e-47
2.04492e-45
3.81917e-44
6.12733e-43
8.58054e-42
1.06614e-40
1.11883e-39
1.01792e-38
1.1139e-37
9.17854e-37
7.08498e-36
5.04629e-35
3.30912e-34
2.00191e-33
1.11439e-32
5.61668e-32
2.82191e-31
1.48274e-30
5.54255e-57
9.18341e-55
7.43445e-53
3.9194e-51
1.49192e-49
4.29642e-48
1.01992e-46
2.22836e-45
4.23194e-44
6.52546e-43
8.29777e-42
8.9447e-41
1.14696e-39
1.0697e-38
9.29538e-38
7.57679e-37
5.69787e-36
3.866e-35
2.41039e-34
1.41923e-33
7.90986e-33
4.17098e-32
2.10315e-31
1.03324e-58
1.94476e-56
1.76936e-54
1.04176e-52
4.46105e-51
1.47987e-49
3.96114e-48
8.82389e-47
1.68179e-45
2.81449e-44
4.21271e-43
5.66305e-42
6.78966e-41
7.22791e-40
6.89407e-39
6.00809e-38
4.83914e-37
3.5674e-36
2.37837e-35
1.43411e-34
7.86448e-34
4.44056e-33
2.65667e-32
1.21345e-60
2.64685e-58
2.77713e-56
1.883e-54
9.28594e-53
3.54913e-51
1.0942e-49
2.7994e-48
6.07569e-47
1.13726e-45
1.85569e-44
2.66105e-43
3.38844e-42
3.87905e-41
4.02882e-40
3.81942e-39
3.32975e-38
2.67271e-37
1.96121e-36
1.31443e-35
8.12686e-35
4.71882e-34
2.78715e-33
1.00872e-62
2.55625e-60
3.03518e-58
2.29539e-56
1.25386e-54
5.30155e-53
1.81264e-51
5.12844e-50
1.20717e-48
2.41998e-47
4.44942e-46
7.71332e-45
1.17529e-43
1.55683e-42
1.86765e-41
2.00586e-40
1.91887e-39
1.64499e-38
1.28512e-37
9.18992e-37
5.92481e-36
3.91102e-35
2.78338e-34
4.07874e-65
1.21444e-62
1.70215e-60
1.53172e-58
1.00121e-56
5.08027e-55
2.08591e-53
7.1268e-52
2.06424e-50
5.12167e-49
1.08879e-47
1.97024e-46
3.09476e-45
4.51432e-44
6.21227e-43
7.47839e-42
7.82651e-41
7.57964e-40
6.84322e-39
5.72341e-38
4.40362e-37
3.13645e-36
2.09441e-35
1.48605e-67
5.27108e-65
8.63029e-63
8.96082e-61
6.68962e-59
3.85211e-57
1.79071e-55
6.92071e-54
2.26264e-52
6.32922e-51
1.53176e-49
3.23194e-48
5.94463e-47
9.73651e-46
1.5065e-44
2.19264e-43
2.76822e-42
3.02424e-41
3.03616e-40
2.83722e-39
2.45808e-38
1.96581e-37
1.48178e-36
3.28686e-70
1.38547e-67
2.68905e-65
3.34736e-63
3.02486e-61
2.11568e-59
1.19027e-57
5.52094e-56
2.1458e-54
7.06702e-53
1.99175e-51
4.85558e-50
1.03007e-48
1.89389e-47
3.06056e-46
4.61694e-45
6.64737e-44
8.63083e-43
1.00753e-41
1.09177e-40
1.06013e-39
9.01615e-39
7.57851e-38
3.89557e-73
1.89751e-70
4.22703e-68
6.14072e-66
6.57296e-64
5.51189e-62
3.75471e-60
2.12655e-58
1.01694e-56
4.14743e-55
1.45094e-53
4.36895e-52
1.1385e-50
2.60228e-49
5.32552e-48
9.87604e-47
1.63918e-45
2.32204e-44
2.76515e-43
3.47238e-42
4.66896e-41
4.84454e-40
4.59313e-39
2.14056e-76
1.17913e-73
3.09961e-71
5.51076e-69
7.38485e-67
7.83269e-65
6.76759e-63
4.84917e-61
2.91023e-59
1.47288e-57
6.34075e-56
2.35277e-54
7.64611e-53
2.20328e-51
5.64847e-50
1.28472e-48
2.58581e-47
4.55437e-46
6.60737e-45
6.85552e-44
8.72848e-43
1.89801e-41
2.07192e-40
9.87318e-80
5.5888e-77
1.69785e-74
3.67823e-72
6.15161e-70
8.22089e-68
8.96615e-66
8.10507e-64
6.14952e-62
3.95713e-60
2.17664e-58
1.02861e-56
4.19167e-55
1.48287e-53
4.61292e-52
1.27706e-50
3.14558e-49
6.88591e-48
1.36964e-46
2.53049e-45
3.03143e-44
6.36787e-43
8.12e-42
1.62979e-83
7.20543e-81
2.29823e-78
5.98444e-76
1.30221e-73
2.35854e-71
3.54081e-69
4.40229e-67
4.5398e-65
3.90102e-63
2.82125e-61
1.74423e-59
9.36458e-58
4.40765e-56
1.83039e-54
6.78302e-53
2.27035e-51
6.7553e-50
1.69898e-48
3.71786e-47
7.98107e-46
1.53625e-44
2.44937e-43
7.62523e-88
2.42815e-85
8.1086e-83
2.6643e-80
8.09461e-78
2.13018e-75
4.701e-73
8.63698e-71
1.32734e-68
1.72094e-66
1.89821e-64
1.79325e-62
1.4582e-60
1.02419e-58
6.20555e-57
3.19513e-55
1.36912e-53
5.02987e-52
1.75887e-50
5.93489e-49
1.7151e-47
4.0669e-46
8.21672e-45
1.4021e-93
3.12084e-91
9.70736e-89
4.09324e-86
1.94001e-83
8.72361e-81
3.41342e-78
1.12608e-75
3.11316e-73
7.23667e-71
1.42283e-68
2.38011e-66
3.40415e-64
4.17741e-62
4.4052e-60
3.98468e-58
3.06535e-56
1.97404e-54
1.05991e-52
4.94257e-51
2.09121e-49
7.55265e-48
2.13871e-46
1.99956e-103
2.30512e-101
8.04956e-99
6.12577e-96
6.95214e-93
8.6052e-90
9.63365e-87
9.07032e-84
7.07404e-81
4.5901e-78
2.50084e-75
1.15492e-72
4.55935e-70
1.55032e-67
4.56998e-65
1.17288e-62
2.62059e-60
5.06733e-58
8.3483e-56
1.12768e-53
1.18158e-51
8.59898e-50
4.4324e-48
4.09568e-06
-6.10408e-13
2.17009e-11
2.64366e-12
-2.42364e-08
-4.76816e-09
-4.23704e-10
1.21117e-11
0.0414977
2.3364e-19
4.27268e-21
3.90774e-11
0.799541
0.816284
0.557916
0.186803
0.999556
0.999951
0.980875
0.983615
1
1
0.999964
0.999221
0.827446
0.883628
0.805407
0.229954
0.0464991
0.0292301
0.00513331
7.95753e-08
3.58905e-09
2.95146e-10
2.89197e-10
2.91733e-10
2.02501e-07
9.82916e-08
1.90319e-08
2.89404e-10
5.80017e-06
5.10549e-06
1.88035e-06
9.7739e-07
5.6795e-06
4.97992e-06
4.22517e-06
3.20697e-06
0
5.3824e-18
5.49418e-17
9.08351e-08
1.39884e-30
-1.50775e-33
0
-5.33773e-34
2.58642e-14
1.24092e-14
2.67627e-15
1.35351e-16
1.36477e-14
3.42434e-15
2.62725e-16
1.92911e-18
6.03997e-16
6.08413e-17
3.55647e-19
8.96496e-23
2.77535e-19
3.14571e-20
3.55419e-21
2.82326e-22
2.91988e-27
6.7859e-27
1.68109e-26
3.9636e-26
3.98656e-27
8.93313e-27
2.01325e-26
5.05551e-26
3.58853e-27
8.0638e-27
1.91565e-26
6.57378e-26
2.66148e-27
5.87729e-27
1.81542e-26
8.03076e-26
1.68393e-27
4.42981e-27
1.65615e-26
6.66549e-26
1.09796e-27
3.30103e-27
1.08433e-26
3.23711e-26
4.10507e-28
1.15086e-27
3.79058e-27
1.21195e-26
1.45515e-28
4.14457e-28
1.19574e-27
3.25008e-27
3.36192e-29
8.60446e-29
2.41869e-28
6.96818e-28
6.48614e-30
1.84472e-29
5.28015e-29
1.4274e-28
1.03367e-30
2.98244e-30
8.60869e-30
2.45185e-29
1.32114e-31
4.10898e-31
1.2642e-30
3.65274e-30
1.67321e-32
5.14567e-32
1.5925e-31
4.8862e-31
1.34056e-33
5.75235e-33
1.77877e-32
5.73364e-32
1.32673e-34
4.55627e-34
1.55274e-33
5.39542e-33
8.31982e-36
3.98566e-35
1.37869e-34
5.04805e-34
6.64972e-37
2.67373e-36
1.02293e-35
4.01696e-35
4.01847e-38
1.8063e-37
7.90079e-37
3.39576e-36
2.08221e-39
1.04806e-38
5.08661e-38
2.42327e-37
9.56155e-41
5.50814e-40
3.04505e-39
1.64201e-38
3.76877e-42
2.70006e-41
1.73748e-40
1.08379e-39
1.45623e-43
1.19512e-42
9.17471e-42
6.68258e-41
5.00916e-45
5.23094e-44
4.96048e-43
4.35517e-42
1.8324e-46
2.51867e-45
3.04335e-44
3.01531e-43
2.92178e-12
9.2426e-12
6.17627e-12
9.16977e-10
1.31755e-09
2.10305e-09
3.27487e-09
2.77606e-09
1.95762e-09
1.23017e-09
7.9655e-10
4.94038e-10
2.85518e-10
1.68106e-10
1.27487e-10
1.07561e-10
8.4405e-11
3.78618e-11
8.22984e-12
3.40304e-11
2.79683e-08
9.49734e-12
5.89676e-09
2.8144e-08
1.65051e-08
5.55626e-09
3.53131e-09
2.41366e-09
1.54837e-09
1.05687e-09
4.51173e-10
2.82851e-10
1.33761e-10
8.71842e-11
7.88943e-11
6.84044e-11
3.72083e-11
8.45066e-12
3.85152e-11
4.54803e-06
7.48489e-07
7.10246e-09
7.21405e-09
1.01105e-07
1.67856e-08
3.30783e-09
2.57608e-09
1.26439e-09
6.45436e-10
3.76922e-10
1.83189e-10
7.26601e-11
4.72439e-11
5.05812e-11
4.90225e-11
3.47047e-11
8.76118e-12
0.0216793
0.00146722
0.000116598
3.41798e-05
5.43763e-06
1.68802e-07
4.62387e-11
1.35228e-09
1.47378e-09
6.38415e-10
2.3332e-10
9.29331e-11
2.89285e-11
6.9692e-12
1.01381e-11
2.33824e-11
3.66036e-11
2.72522e-11
9.66547e-12
0.829176
0.0590602
0.00214436
0.000311599
4.9972e-05
1.12674e-10
1.76425e-10
1.53977e-10
2.59881e-10
2.43007e-10
9.40483e-11
1.58012e-11
1.89029e-12
2.67021e-13
1.43937e-12
8.60175e-12
2.40584e-11
2.24301e-11
9.135e-12
0.805629
0.0480274
2.01861e-07
1.3886e-10
1.51579e-10
1.20325e-08
3.97908e-09
1.10123e-10
8.62782e-11
4.37438e-11
1.33267e-11
2.52442e-12
4.23942e-13
3.13134e-14
1.55559e-13
2.34388e-12
1.27099e-11
1.70678e-11
8.35477e-12
9.28288e-07
4.25498e-10
2.29446e-10
2.07716e-10
1.7712e-10
1.77083e-10
2.04165e-10
2.21468e-10
1.55475e-10
3.63226e-11
5.84997e-12
9.31373e-13
2.42468e-13
2.45319e-14
2.55978e-14
2.88682e-13
5.19498e-12
1.25801e-11
6.78671e-12
6.96373e-09
1.58779e-09
8.23874e-10
5.11325e-10
3.24442e-10
3.94895e-10
5.04878e-10
4.0914e-10
1.98623e-10
5.59986e-11
2.15701e-12
4.97807e-13
1.96285e-13
4.60503e-14
1.70493e-14
1.3432e-14
2.1992e-12
8.28148e-12
6.10846e-12
4.10182e-10
5.54277e-10
5.63691e-10
9.95388e-10
2.0041e-09
2.01121e-09
1.38531e-09
6.51404e-10
2.95895e-10
5.25205e-11
2.17178e-12
2.80042e-13
1.33699e-13
3.95705e-14
1.52573e-14
3.50621e-15
8.37502e-13
6.33923e-12
5.20366e-12
8.3358e-10
1.46135e-09
4.40951e-09
1.14916e-08
7.64487e-09
4.0087e-09
2.13919e-09
6.15131e-10
9.43691e-11
1.87476e-11
1.80421e-12
2.20103e-13
1.13562e-13
3.63855e-14
1.32637e-14
2.99798e-15
1.76015e-13
4.32666e-12
4.15152e-12
6.78588e-07
4.04105e-07
6.46943e-08
3.24454e-08
1.15633e-08
1.82871e-09
2.82273e-10
4.52482e-11
8.31288e-12
1.50238e-12
4.55261e-13
1.38347e-13
6.53143e-14
2.65592e-14
9.77872e-15
2.9729e-15
1.38899e-14
2.28964e-12
3.34455e-12
1.53048e-06
9.32426e-07
1.2659e-07
1.66748e-09
2.88256e-13
2.35044e-13
2.627e-13
5.35695e-13
4.60604e-13
1.19577e-13
7.82068e-14
5.12998e-14
2.57129e-14
1.36238e-14
6.20145e-15
2.2124e-15
1.55136e-15
5.68834e-13
2.56719e-12
2.94712e-08
3.48632e-09
4.10048e-09
3.20239e-09
1.85374e-10
3.91423e-13
2.71568e-13
7.65485e-14
2.14576e-14
7.21001e-15
1.22122e-14
8.15461e-15
8.74364e-15
6.14466e-15
3.31857e-15
1.69229e-15
9.13905e-16
2.83736e-14
1.9021e-12
-6.63103e-17
-1.09431e-16
-6.77215e-17
-1.74731e-18
3.71043e-13
4.08273e-13
2.08967e-13
3.46696e-14
7.3664e-16
6.21826e-16
1.63988e-15
2.20523e-15
2.70355e-15
2.60749e-15
1.87129e-15
1.39325e-15
7.43787e-16
4.65822e-16
1.30285e-12
2.54974e-17
6.46392e-18
8.81304e-19
2.1696e-19
5.21714e-20
8.20906e-19
1.70165e-18
5.07183e-19
1.28763e-17
5.64099e-17
2.25758e-16
4.86861e-16
8.99769e-16
1.1131e-15
9.07434e-16
7.46817e-16
5.98299e-16
3.25873e-16
9.14354e-13
1.2972e-19
2.77641e-19
3.75961e-19
2.12197e-19
5.078e-20
4.33085e-21
2.90783e-21
6.33933e-21
1.63441e-20
3.93042e-19
4.07694e-18
1.99914e-17
5.94429e-17
8.99472e-17
7.11383e-17
2.25805e-16
4.796e-16
3.14117e-16
4.95782e-13
-3.89529e-24
-4.34813e-24
1.14212e-24
3.9822e-23
2.7515e-22
1.15267e-21
2.90042e-21
6.16538e-21
1.33812e-20
2.9262e-20
6.61541e-20
1.82381e-19
4.62244e-19
7.06836e-19
1.31324e-18
3.00999e-17
4.1322e-16
2.75976e-16
1.03246e-13
3.30352e-24
4.67623e-25
6.02476e-24
8.63151e-23
4.34379e-22
1.11564e-21
2.50181e-21
5.73594e-21
1.26523e-20
2.71613e-20
5.83861e-20
1.23948e-19
2.42394e-19
5.0509e-19
9.30847e-19
4.77391e-18
2.70142e-16
2.28473e-16
2.06276e-15
1.00484e-25
4.62499e-25
1.6016e-23
1.28737e-22
3.67347e-22
8.3888e-22
2.06935e-21
4.69793e-21
1.09744e-20
2.51272e-20
5.67223e-20
1.25297e-19
2.51984e-19
5.48824e-19
1.04377e-18
2.77131e-18
1.10526e-16
1.98245e-16
5.71553e-18
1.90373e-25
2.0602e-24
2.49362e-23
9.6993e-23
2.45588e-22
5.63747e-22
1.4464e-21
3.39105e-21
8.2138e-21
1.99184e-20
4.89767e-20
1.18095e-19
2.61489e-19
5.77815e-19
1.15847e-18
3.2041e-18
2.33367e-17
1.87284e-16
4.36204e-18
3.49914e-25
2.73365e-24
1.83515e-23
5.65582e-23
1.37396e-22
3.59601e-22
8.41087e-22
2.07571e-21
5.23525e-21
1.36501e-20
3.66123e-20
9.81599e-20
2.2033e-19
5.73365e-19
1.35465e-18
3.18554e-18
1.30912e-17
1.30706e-16
4.31143e-18
3.5682e-25
1.98396e-24
9.64287e-24
2.78548e-23
6.91354e-23
1.86784e-22
4.46896e-22
1.12987e-21
2.95435e-21
8.19893e-21
2.40576e-20
6.90571e-20
1.90224e-19
4.99523e-19
1.16271e-18
2.93295e-18
5.82374e-18
2.33429e-17
4.2667e-18
2.23247e-25
9.50442e-25
4.21332e-24
1.21757e-23
3.24648e-23
8.26221e-23
2.08107e-22
5.32485e-22
1.44203e-21
4.29727e-21
1.38418e-20
4.41141e-20
1.29235e-19
3.37284e-19
8.86943e-19
1.86169e-18
2.66196e-18
2.21556e-18
3.98289e-18
9.32579e-26
4.21364e-25
1.32045e-24
4.74504e-24
1.28302e-23
3.40273e-23
8.77913e-23
2.25747e-22
6.18836e-22
1.95477e-21
7.03324e-21
2.48476e-20
7.79394e-20
2.04412e-19
4.44232e-19
1.03262e-18
1.70037e-18
1.85936e-18
2.93509e-18
3.27268e-26
1.33682e-25
4.27886e-25
1.61129e-24
4.55422e-24
1.26427e-23
3.31963e-23
8.53349e-23
2.26156e-22
6.86472e-22
2.45784e-21
9.34744e-21
3.1165e-20
8.58588e-20
2.25827e-19
5.37372e-19
1.0514e-18
1.40076e-18
1.45261e-18
8.5495e-27
3.65905e-26
1.18999e-25
4.77956e-25
1.42521e-24
4.12447e-24
1.11687e-23
2.94254e-23
7.61859e-23
2.10706e-22
7.74026e-22
3.30999e-21
1.27058e-20
4.0985e-20
9.75782e-20
2.22776e-19
4.83061e-19
8.3179e-19
8.89374e-19
1.89594e-27
8.46219e-27
2.91982e-26
1.27941e-25
4.05341e-25
1.20685e-24
3.37149e-24
9.10151e-24
2.4206e-23
6.45082e-23
2.05102e-22
9.0441e-22
4.08303e-21
1.50224e-20
4.67867e-20
1.18829e-19
2.28596e-19
4.40828e-19
3.60765e-19
3.84306e-28
1.8008e-27
6.59435e-27
3.12738e-26
1.04363e-25
3.20963e-25
9.24861e-25
2.55945e-24
6.91785e-24
1.86145e-23
5.33111e-23
2.07074e-22
9.90739e-22
4.34091e-21
1.48379e-20
4.46316e-20
1.10095e-19
2.0869e-19
1.53925e-19
6.83895e-29
3.37092e-28
1.30328e-27
6.81853e-27
2.41118e-26
7.752e-26
2.30925e-25
6.55329e-25
1.79463e-24
4.787e-24
1.29374e-23
4.28892e-23
1.94539e-22
6.75168e-22
3.55578e-21
1.22904e-20
3.41368e-20
7.19757e-20
6.425e-20
1.06032e-29
4.61041e-29
2.84746e-28
1.26845e-27
4.96963e-27
1.68746e-26
5.22802e-26
1.52438e-25
4.24271e-25
1.12629e-24
2.89827e-24
8.34265e-24
3.45305e-23
1.48308e-22
6.53173e-22
2.5475e-21
7.9659e-21
1.82675e-20
1.94778e-20
1.49275e-30
6.80718e-30
4.63836e-29
2.18776e-28
9.13366e-28
3.29115e-27
1.06624e-26
3.20785e-26
9.10325e-26
2.43171e-25
6.06558e-25
1.51671e-24
3.63435e-24
2.09727e-23
9.49605e-23
4.03091e-22
1.39826e-21
3.45026e-21
4.08318e-21
1.83504e-31
9.17543e-31
6.54613e-30
3.3203e-29
1.49139e-28
5.7407e-28
1.95064e-27
6.07579e-27
1.76458e-26
4.77015e-26
1.18981e-25
2.74494e-25
7.09857e-25
2.63258e-24
1.13396e-23
4.9932e-23
1.87343e-22
4.86561e-22
5.55135e-22
1.86839e-32
9.47458e-32
7.87371e-31
4.61248e-30
2.17963e-29
8.9512e-29
3.19611e-28
1.03231e-27
3.0787e-27
8.45751e-27
2.12459e-26
4.87296e-26
1.07084e-25
3.15339e-25
1.16991e-24
4.99739e-24
1.93154e-23
5.07668e-23
4.87276e-23
1.86356e-33
1.28884e-32
8.63377e-32
5.57393e-31
2.80107e-30
1.23788e-29
4.69271e-29
1.57297e-28
4.82071e-28
1.35305e-27
3.43271e-27
7.8941e-27
1.65753e-26
3.8152e-26
1.11578e-25
4.21285e-25
1.54832e-24
3.7712e-24
8.5347e-25
1.26241e-34
1.35956e-33
9.18974e-33
5.70708e-32
3.27366e-31
1.52583e-30
6.19257e-30
2.1564e-29
6.78502e-29
1.94714e-28
5.02187e-28
1.15489e-27
2.37601e-27
4.70671e-27
1.04034e-26
3.11198e-26
9.70477e-26
1.989e-25
1.16865e-25
1.45722e-35
1.25509e-34
9.33086e-34
5.69703e-33
3.20704e-32
1.6917e-31
7.34603e-31
2.67809e-30
8.65873e-30
2.53465e-29
6.69468e-29
1.5246e-28
3.04294e-28
5.40037e-28
9.42812e-28
2.08034e-27
4.6821e-27
9.37421e-27
6.39897e-27
8.95345e-37
1.13862e-35
8.85622e-35
5.81194e-34
3.2682e-33
1.73538e-32
7.82777e-32
3.00546e-31
1.00027e-30
2.89878e-30
7.16976e-30
1.80923e-29
3.55411e-29
5.5404e-29
8.1548e-29
1.25985e-28
1.8857e-28
5.25742e-28
3.99938e-28
8.83513e-38
9.30189e-37
7.93333e-36
5.47287e-35
3.11408e-34
1.54027e-33
7.65355e-33
3.04982e-32
1.0496e-31
3.14616e-31
7.29025e-31
1.99307e-30
3.85917e-30
5.71279e-30
6.70344e-30
7.04373e-30
8.94669e-30
2.59472e-29
2.18591e-29
6.59086e-39
7.41691e-38
6.72133e-37
4.89271e-36
2.95435e-35
1.46469e-34
7.21508e-34
2.90647e-33
9.92709e-33
2.83305e-32
7.8574e-32
1.23263e-31
3.82109e-31
5.78045e-31
5.62567e-31
4.64269e-31
4.76422e-31
9.16239e-31
8.60559e-31
4.67424e-40
5.70544e-39
5.43823e-38
4.13897e-37
2.60406e-36
1.32313e-35
5.48565e-35
2.14215e-34
7.84614e-34
2.54052e-33
7.76372e-33
1.73105e-32
3.4172e-32
5.1187e-32
4.78356e-32
3.90498e-32
2.40793e-32
2.95801e-32
2.25179e-32
3.33396e-41
4.35052e-40
4.31849e-39
3.38567e-38
2.17643e-37
1.15675e-36
4.65055e-36
1.65633e-35
6.18763e-35
2.51269e-34
7.08773e-34
1.53095e-33
2.79039e-33
4.0582e-33
3.88198e-33
3.38304e-33
1.33304e-33
1.25118e-33
5.45526e-34
2.50566e-42
3.41985e-41
3.47497e-40
2.75325e-39
1.76905e-38
9.53343e-38
4.21094e-37
1.5222e-36
5.53828e-36
2.20434e-35
6.12005e-35
1.27695e-34
2.12324e-34
2.99237e-34
3.02756e-34
2.60926e-34
7.59252e-35
5.58155e-35
1.44015e-35
)
;

boundaryField
{
    leftWall
    {
        type            alphaContactAngle;
        contactAngleProperties 
        {
            mercury         
            {
                theta0          90;
            }
            air             
            {
                theta0          90;
            }
            oil             
            {
                theta0          90;
            }
        }
        value           nonuniform List<scalar> 
50
(
2.60454e-15
1.83588e-15
1.51391e-12
1.69726e-11
2.76469e-10
3.34104e-08
0.168377
0.872448
1
1
1
1
1
1
0.826396
0.0713048
-1.13711e-17
-2.3858e-17
-3.88554e-17
-5.40278e-17
-6.23389e-17
-6.42918e-17
-5.9005e-17
-4.42852e-17
-2.35064e-17
-7.52704e-18
-1.09782e-18
8.20984e-35
2.85573e-42
7.68535e-51
3.92348e-51
1.34622e-51
3.16566e-52
4.51454e-53
3.26741e-54
1.90325e-55
5.54255e-57
1.03324e-58
1.21345e-60
1.00872e-62
4.07874e-65
1.48605e-67
3.28686e-70
3.89557e-73
2.14056e-76
9.87318e-80
1.62979e-83
7.62523e-88
1.4021e-93
1.99956e-103
)
;
    }
    rightWall
    {
        type            alphaContactAngle;
        contactAngleProperties 
        {
            mercury         
            {
                theta0          90;
            }
            air             
            {
                theta0          90;
            }
            oil             
            {
                theta0          90;
            }
        }
        value           nonuniform List<scalar> 
50
(
2.08775e-14
1.04115e-13
1.78463e-13
5.7914e-13
2.57542e-12
5.97717e-12
6.32453e-12
8.27372e-12
8.22984e-12
8.45066e-12
8.76118e-12
9.66547e-12
9.135e-12
8.35477e-12
6.78671e-12
6.10846e-12
5.20366e-12
4.15152e-12
3.34455e-12
2.56719e-12
1.9021e-12
1.30285e-12
9.14354e-13
4.95782e-13
1.03246e-13
2.06276e-15
5.71553e-18
4.36204e-18
4.31143e-18
4.2667e-18
3.98289e-18
2.93509e-18
1.45261e-18
8.89374e-19
3.60765e-19
1.53925e-19
6.425e-20
1.94778e-20
4.08318e-21
5.55135e-22
4.87276e-23
8.5347e-25
1.16865e-25
6.39897e-27
3.99938e-28
2.18591e-29
8.60559e-31
2.25179e-32
5.45526e-34
1.44015e-35
)
;
    }
    lowerWall
    {
        type            alphaContactAngle;
        contactAngleProperties 
        {
            mercury         
            {
                theta0          90;
            }
            air             
            {
                theta0          90;
            }
            oil             
            {
                theta0          90;
            }
        }
        value           nonuniform List<scalar> 
62
(
2.60454e-15
7.67963e-14
2.62745e-13
5.46227e-13
1.08136e-12
2.07146e-12
3.85026e-12
6.18924e-12
9.16148e-12
1.33429e-11
1.88602e-11
2.62559e-11
3.37877e-11
4.19579e-11
4.9303e-11
5.68782e-11
6.19292e-11
6.97468e-11
2.24722e-10
1.82177e-09
3.83162e-09
3.975e-09
2.04711e-09
2.04711e-09
1.63125e-09
3.00678e-09
2.98401e-09
1.81412e-08
2.93094e-07
5.20222e-12
3.23563e-06
4.09568e-06
-6.10408e-13
2.17009e-11
2.64366e-12
4.4923e-11
5.00013e-11
5.82311e-11
5.54474e-11
4.84307e-11
3.50366e-11
2.22471e-11
1.24436e-11
4.4923e-11
8.1556e-11
1.28767e-10
1.46017e-10
1.56881e-10
1.42743e-10
1.23876e-10
1.10823e-10
7.73194e-11
6.09192e-11
5.33093e-11
4.26483e-11
2.78043e-11
1.71063e-11
1.23053e-11
6.71757e-12
2.2637e-12
3.08408e-13
2.08775e-14
)
;
    }
    atmosphere
    {
        type            inletOutlet;
        inletValue      uniform 0;
        value           nonuniform List<scalar> 
46
(
0
0
0
0
0
0
0
0
0
0
0
0
0
0
0
0
0
0
0
0
0
0
0
1.8324e-46
2.51867e-45
3.04335e-44
3.01531e-43
2.50566e-42
3.41985e-41
3.47497e-40
2.75325e-39
1.76905e-38
9.53343e-38
4.21094e-37
1.5222e-36
5.53828e-36
2.20434e-35
6.12005e-35
1.27695e-34
2.12324e-34
2.99237e-34
3.02756e-34
2.60926e-34
7.59252e-35
5.58155e-35
1.44015e-35
)
;
    }
    defaultFaces
    {