/*--------------------------------*- C++ -*----------------------------------*\
  =========                 |
  \\      /  F ield         | OpenFOAM: The Open Source CFD Toolbox
   \\    /   O peration     | Website:  https://openfoam.org
    \\  /    A nd           | Version:  13
     \\/     M anipulation  |
\*---------------------------------------------------------------------------*/
FoamFile
{
    format      ascii;
    class       volScalarField;
    location    "0.35";
    object      alpha.mercury;
}
// * * * * * * * * * * * * * * * * * * * * * * * * * * * * * * * * * * * * * //

dimensions      [];

internalField   nonuniform List<scalar> 
2268
(
1
1
1
1
1
1
1
1
1
1
1
1
1
1
1
1
1
1
1
1
1
1
0.999167
1
1
1
1
1
1
1
1
1
1
1
1
1
1
1
1
1
1
1
1
1
1
0.999166
1
1
1
1
1
1
1
1
1
1
1
1
1
1
1
1
1
1
1
1
1
1
0.999628
1
1
1
1
1
1
1
1
1
1
1
1
1
1
1
1
1
1
1
1
1
1
1
1
1
1
1
1
1
1
1
1
1
1
1
1
1
1
1
1
1
1
1
1
1
1
1
1
1
1
1
1
1
1
1
1
1
1
1
1
0.999592
0.999808
1
1
1
1
1
1
0.999739
0.831623
0.863856
0.88641
0.891459
0.889788
0.885115
0.875809
0.859564
0.83456
0.800017
0.756744
0.706824
0.652957
0.601976
0.564847
0.572538
0.646383
0.804306
0.992679
0.999792
0.999924
0.999985
0.999404
0.127552
0.180304
0.22008
0.235185
0.234128
0.228351
0.215109
0.192972
0.162583
0.127516
0.0921261
0.0600193
0.0333174
0.0132861
0.00651415
0.00145733
0.016378
0.0845184
0.318074
0.897451
0.999983
0.999983
0.999478
5.72688e-10
9.15662e-10
1.30792e-09
1.40713e-09
1.42054e-09
1.13137e-09
9.56056e-10
8.5737e-10
6.82495e-10
5.77494e-10
5.00616e-10
4.13577e-10
2.91277e-10
1.93006e-10
1.43852e-10
8.2515e-11
2.98601e-11
4.64258e-12
4.13804e-13
5.93312e-10
1.52391e-09
2.39916e-09
2.73278e-09
2.60344e-09
2.08645e-09
1.67227e-09
1.44119e-09
1.24444e-09
1.10889e-09
9.82378e-10
8.6448e-10
7.39406e-10
6.5055e-10
4.61862e-10
2.33923e-10
7.93751e-11
1.01856e-11
1.54714e-12
6.20251e-10
2.24944e-09
3.94919e-09
3.82865e-09
2.9148e-09
1.94762e-09
1.76178e-09
3.46109e-09
1.62432e-09
1.32153e-09
1.13135e-09
1.01548e-09
9.14677e-10
8.53768e-10
7.0154e-10
4.31536e-10
1.88871e-10
3.407e-11
2.48268e-12
6.95343e-10
2.93884e-09
3.99035e-09
2.77921e-09
7.0078e-10
3.74734e-10
8.78074e-10
4.83242e-09
6.67305e-09
2.31276e-09
1.16619e-09
9.53783e-10
8.85955e-10
8.49309e-10
7.75007e-10
5.90696e-10
2.9283e-10
6.99659e-11
6.2668e-12
6.81473e-10
2.75534e-09
2.91109e-09
2.81221e-07
8.5958e-11
6.94806e-11
-5.79746e-11
-2.92026e-10
2.84348e-08
4.46942e-09
1.18929e-09
7.27349e-10
7.16832e-10
7.36611e-10
7.22557e-10
6.41961e-10
3.45544e-10
1.43952e-10
2.13586e-11
5.76627e-10
1.89194e-09
6.48936e-10
3.41509e-06
4.95672e-07
6.28244e-11
1.74748e-08
2.59408e-06
2.8682e-07
8.39875e-09
1.71453e-09
5.7936e-10
5.09555e-10
5.72549e-10
6.17947e-10
5.97516e-10
4.10084e-10
1.65815e-10
4.35565e-11
4.47872e-10
8.64577e-10
4.69085e-10
3.53433e-06
2.14905e-06
1.04294e-10
8.70216e-05
1.23357e-05
2.88431e-08
4.79649e-09
9.13235e-10
3.67222e-10
3.49427e-10
3.99632e-10
4.70865e-10
5.04025e-10
3.86085e-10
1.97496e-10
4.23932e-11
2.37769e-10
6.8971e-11
4.30995e-12
0.00139048
2.3463e-06
0.00242295
0.000432867
1.64977e-08
5.90169e-09
1.43978e-09
4.52791e-10
2.9964e-10
2.6154e-10
2.70326e-10
3.5055e-10
4.133e-10
3.66329e-10
1.86827e-10
4.84457e-11
5.23111e-97
-1.70695e-21
-5.24844e-22
-5.19299e-20
-5.03736e-20
-2.91821e-20
-8.77658e-20
-1.44143e-20
-2.95767e-21
-9.54837e-22
-1.44165e-18
-9.95039e-19
-4.44066e-18
-2.81716e-17
-7.50113e-17
2.04179e-23
2.77845e-11
3.68989e-08
-3.64668e-18
0.0991114
0.648859
0.972063
0.998553
8.182e-80
-1.53602e-20
-1.32932e-20
-1.32028e-18
-1.32708e-18
-8.03685e-19
-3.7367e-19
-1.45793e-19
-4.99895e-20
-1.57055e-20
-5.15448e-21
-6.08498e-18
-4.17759e-17
-1.77637e-16
-5.59764e-16
1.20246e-21
1.38279e-11
2.36001e-10
2.43574e-18
0.000983994
0.00833919
0.509179
0.948457
-2.63517e-91
-1.13481e-20
-9.53505e-21
-6.45124e-21
-4.25347e-21
-2.84186e-21
-1.89415e-21
-1.22962e-21
-7.66335e-22
-5.7484e-22
-7.47183e-22
-4.90056e-18
-3.49909e-17
-1.48609e-16
-4.90903e-16
-1.39019e-15
8.57686e-13
1.80323e-11
2.71115e-19
5.63975e-05
8.60718e-06
0.00294935
0.27375
4.47122e-73
-2.67774e-21
-2.2334e-21
-1.49683e-21
-9.21689e-22
-5.40832e-22
-3.06948e-22
-1.69837e-22
-9.20969e-23
-8.21317e-23
-1.6266e-22
-1.43201e-18
-1.06362e-17
-4.48687e-17
-1.4521e-16
-4.11206e-16
2.63488e-14
-2.45623e-15
1.09833e-17
4.22088e-08
4.24025e-06
1.09273e-08
3.33203e-09
1.77615e-72
-5.37636e-95
-2.05193e-94
-3.29832e-86
1.1333e-83
-5.88506e-82
-4.2514e-86
5.00677e-85
2.28505e-68
4.54261e-68
4.77188e-68
2.78928e-68
2.49851e-65
2.28569e-76
1.80643e-61
2.58903e-61
7.37093e-18
4.51769e-15
1.03981e-11
5.7406e-10
4.77292e-08
3.72305e-08
2.87589e-08
3.18523e-69
1.80029e-68
1.54999e-66
1.09466e-65
3.16147e-64
4.83925e-63
2.00371e-62
3.19496e-61
1.01902e-60
1.46317e-60
1.73713e-60
1.41623e-60
3.83114e-59
6.28467e-59
2.00917e-58
1.42177e-59
1.31159e-24
3.34373e-17
1.86514e-12
2.72414e-12
2.124e-09
2.24472e-08
2.01847e-08
4.1491e-66
3.19287e-65
2.6858e-63
7.24651e-62
1.83327e-60
3.11296e-59
1.69957e-58
8.50391e-58
1.86423e-58
1.00453e-58
1.99171e-58
1.38902e-58
1.61218e-57
2.79612e-57
8.99021e-57
1.00533e-56
5.67004e-53
-2.67602e-20
1.24848e-13
2.38798e-11
5.00886e-11
6.30633e-09
1.64143e-08
3.6611e-64
3.58755e-63
2.79342e-61
1.1421e-59
2.46273e-58
3.97204e-57
2.85173e-56
9.4732e-56
1.62019e-55
8.12353e-56
3.05502e-56
1.31662e-56
4.72884e-56
1.34465e-55
1.08e-53
6.87558e-54
6.14089e-50
5.36655e-51
1.85793e-20
1.09834e-11
9.83524e-12
3.9585e-10
1.08386e-09
3.22696e-63
3.73556e-62
2.67318e-60
1.14517e-58
2.28731e-57
3.31183e-56
2.99112e-55
7.2709e-55
2.43878e-54
1.12617e-54
2.52853e-55
1.30884e-55
2.35718e-55
6.78332e-55
5.45151e-52
5.34089e-52
1.72569e-48
2.34127e-47
1.89677e-47
9.56007e-14
8.73058e-13
1.52951e-13
2.42113e-11
2.39891e-62
4.6386e-61
2.53279e-59
1.02306e-57
2.02133e-56
2.41588e-55
3.01408e-54
6.13743e-54
1.43218e-53
7.69467e-54
1.78679e-54
1.0929e-54
1.09201e-54
1.69253e-54
2.57911e-51
4.29572e-51
2.14004e-47
3.4556e-45
3.48502e-45
4.70493e-47
3.96804e-47
9.42674e-15
1.05851e-17
1.64494e-61
4.71984e-60
2.20993e-58
8.28788e-57
1.72816e-55
1.71054e-54
2.82843e-53
5.94546e-53
8.56275e-53
3.84403e-53
8.2127e-54
7.20027e-54
5.28235e-54
1.12951e-53
7.69201e-51
1.86058e-48
4.20042e-46
3.66322e-44
5.08095e-44
7.54154e-44
2.12838e-39
1.58973e-43
1.50477e-43
1.00342e-60
3.97416e-59
1.74453e-57
6.13295e-56
1.3348e-54
1.13148e-53
2.3666e-52
5.05255e-52
4.73881e-52
1.95101e-52
4.45074e-53
6.46859e-53
2.69661e-53
1.34108e-52
1.69848e-50
6.45349e-47
5.2158e-45
6.01182e-43
5.83489e-43
6.58556e-43
8.65411e-39
2.13165e-37
7.47786e-37
5.51732e-60
2.89453e-58
1.24428e-56
4.11561e-55
8.83992e-54
7.14394e-53
1.79366e-51
3.40731e-51
2.06263e-51
6.75276e-52
1.51201e-52
2.72919e-52
6.91931e-53
7.88939e-52
4.35765e-50
2.22786e-46
2.14733e-44
2.3923e-42
3.51596e-42
3.44035e-42
1.41794e-37
1.62256e-36
1.02232e-35
2.9115e-59
1.84946e-57
7.81666e-56
2.43177e-54
4.99236e-53
4.91583e-52
1.15601e-50
1.73556e-50
6.11659e-51
1.68389e-51
3.00563e-52
8.45879e-52
6.22908e-51
5.20052e-50
1.98988e-48
1.10856e-45
9.1907e-44
3.87329e-41
1.59229e-41
3.04488e-41
1.04376e-36
1.56189e-35
4.99817e-35
1.41282e-58
1.02507e-56
4.20563e-55
1.2394e-53
2.51702e-52
3.49047e-51
5.64145e-50
6.09502e-50
1.21627e-50
1.48377e-50
2.39968e-49
2.83923e-48
4.82763e-47
1.86382e-45
9.31689e-45
2.13033e-43
6.32599e-42
6.66213e-39
3.29781e-39
1.09393e-38
6.25357e-36
8.54363e-35
1.56096e-34
5.86617e-58
4.704e-56
1.94756e-54
5.51224e-53
1.20515e-51
2.18343e-50
1.98735e-49
1.46044e-49
8.63459e-49
1.20057e-47
1.63117e-46
1.70087e-45
3.3336e-44
2.35181e-42
5.21707e-42
2.23743e-40
1.23799e-39
2.32749e-37
2.89959e-37
2.12432e-36
8.7436e-35
3.94595e-34
2.3441e-33
1.9833e-57
1.70064e-55
7.50041e-54
2.20959e-52
5.71293e-51
1.16399e-49
5.75044e-49
7.33562e-48
1.11131e-46
1.42647e-45
1.81704e-44
1.79886e-43
3.15719e-42
1.70671e-40
4.33915e-40
1.70032e-38
6.24415e-38
2.07896e-36
7.28801e-36
5.98914e-35
4.0147e-34
4.41558e-33
1.92989e-32
5.83371e-57
5.40471e-55
2.6229e-53
8.14964e-52
2.41074e-50
5.45061e-49
1.23798e-47
2.09931e-46
3.00736e-45
3.90196e-44
4.91591e-43
4.87189e-42
6.94657e-41
1.47148e-39
8.17357e-39
1.57705e-37
8.11675e-37
5.84269e-36
6.08527e-35
4.22668e-34
2.48329e-33
1.57096e-32
7.003e-32
3.84609e-56
3.81011e-54
2.04151e-52
7.57015e-51
2.16583e-49
5.05589e-48
9.96211e-47
1.70308e-45
2.58898e-44
3.56819e-43
4.43406e-42
4.65063e-41
5.52204e-40
4.68786e-39
5.51926e-38
3.80982e-37
4.04273e-36
3.27817e-35
2.15795e-34
1.3143e-33
7.3479e-33
3.54692e-32
1.51801e-31
8.66067e-56
9.56541e-54
5.39402e-52
2.10402e-50
6.34191e-49
1.56121e-47
3.24285e-46
5.8259e-45
9.24767e-44
1.31557e-42
1.68917e-41
1.98003e-40
2.13442e-39
2.08931e-38
1.78294e-37
1.49082e-36
1.1421e-35
7.62616e-35
4.57093e-34
2.68384e-33
1.42946e-32
6.18131e-32
2.25295e-31
1.15515e-55
1.3406e-53
8.05347e-52
3.32738e-50
1.05509e-48
2.7136e-47
5.85131e-46
1.08339e-44
1.75698e-43
2.5386e-42
3.3093e-41
3.89595e-40
4.08762e-39
3.83268e-38
3.18433e-37
2.80561e-36
1.92149e-35
1.18614e-34
6.86428e-34
3.75799e-33
1.80464e-32
7.25991e-32
2.43813e-31
1.16322e-55
1.40325e-53
8.74393e-52
3.73195e-50
1.21674e-48
3.20221e-47
7.03365e-46
1.32177e-44
2.1717e-43
3.17605e-42
4.15979e-41
4.82603e-40
4.98678e-39
4.75604e-38
3.90618e-37
3.30631e-36
2.1976e-35
1.34184e-34
7.61138e-34
3.85113e-33
1.68826e-32
6.51301e-32
2.0998e-31
8.64388e-56
1.09597e-53
7.13426e-52
3.15665e-50
1.05884e-48
2.84865e-47
6.36917e-46
1.21588e-44
2.02565e-43
2.97996e-42
3.85029e-41
4.37533e-40
4.61023e-39
4.39423e-38
3.2605e-37
2.69078e-36
1.72696e-35
1.04336e-34
5.68833e-34
2.64368e-33
1.07928e-32
4.2578e-32
2.60938e-31
4.12716e-56
5.49782e-54
3.72914e-52
1.7057e-50
5.87766e-49
1.61822e-47
3.69666e-46
7.20359e-45
1.22164e-43
1.82313e-42
2.40159e-41
2.79076e-40
2.86049e-39
2.49291e-38
1.83561e-37
1.48452e-36
9.31652e-36
5.31001e-35
2.77288e-34
1.31511e-33
5.95179e-33
3.02255e-32
3.34937e-31
1.26002e-56
1.76837e-54
1.23411e-52
5.83428e-51
2.07649e-49
5.91474e-48
1.40062e-46
2.82531e-45
4.917e-44
7.42931e-43
9.82828e-42
1.13909e-40
1.09893e-39
8.79765e-39
8.02447e-38
5.51484e-37
3.49639e-36
2.17443e-35
1.14555e-34
5.22722e-34
2.30466e-33
1.21162e-32
1.13962e-31
2.02516e-57
2.8677e-55
2.26712e-53
1.14374e-51
4.33384e-50
1.30822e-48
3.2515e-47
6.71584e-46
1.15122e-44
1.72126e-43
2.43164e-42
3.05107e-41
2.99214e-40
2.50455e-39
2.39491e-38
1.70347e-37
1.13307e-36
6.93709e-36
3.76784e-35
1.81667e-34
8.68469e-34
5.09606e-33
5.08126e-32
1.82246e-58
3.31593e-56
2.7336e-54
1.50154e-52
6.14558e-51
1.9832e-49
5.15423e-48
1.0885e-46
1.99255e-45
3.42917e-44
5.1557e-43
5.9474e-42
5.79005e-41
6.6183e-40
5.48369e-39
4.20968e-38
3.00592e-37
1.95625e-36
1.11767e-35
5.63616e-35
2.63011e-34
1.2282e-33
8.32382e-33
1.37249e-59
2.52959e-57
2.30166e-55
1.37554e-53
6.05567e-52
2.08893e-50
5.87584e-49
1.38713e-47
2.79587e-46
4.86053e-45
7.36811e-44
9.07146e-43
9.61568e-42
1.21274e-40
1.10334e-39
9.11604e-39
6.71774e-38
4.39329e-37
2.5473e-36
1.3058e-35
5.86949e-35
2.62989e-34
1.62014e-33
4.99781e-61
1.04833e-58
1.08005e-56
7.25143e-55
3.4821e-53
1.26258e-51
3.88264e-50
1.09223e-48
2.55232e-47
4.79278e-46
7.12729e-45
8.97645e-44
1.33726e-42
1.40138e-41
1.34449e-40
1.18021e-39
9.25725e-39
6.33932e-38
3.84542e-37
2.11391e-36
1.05841e-35
4.95324e-35
2.53851e-34
1.20133e-62
2.82971e-60
3.21061e-58
2.35069e-56
1.24967e-54
5.14183e-53
1.70637e-51
4.71513e-50
1.11493e-48
2.30143e-47
4.17527e-46
6.62156e-45
9.10894e-44
1.08758e-42
1.14179e-41
1.0735e-40
9.09927e-40
6.86456e-39
4.54547e-38
2.63619e-37
1.34268e-36
6.70036e-36
3.62556e-35
1.73962e-64
4.76526e-62
6.24007e-60
5.25435e-58
3.20343e-56
1.50618e-54
5.68085e-53
1.76777e-51
4.6316e-50
1.03411e-48
1.98071e-47
3.28228e-46
4.77011e-45
6.16185e-44
7.12568e-43
7.40186e-42
6.92614e-41
5.82093e-40
4.35966e-39
2.90408e-38
1.73227e-37
9.4032e-37
5.06608e-36
1.58984e-66
4.84354e-64
6.92365e-62
6.33387e-60
4.21069e-58
2.17871e-56
9.12459e-55
3.1346e-53
8.84364e-52
2.13321e-50
4.77359e-49
9.86548e-48
1.74841e-46
2.66117e-45
3.58367e-44
4.22745e-43
4.36205e-42
3.97117e-41
3.24118e-40
2.37272e-39
1.52643e-38
9.66245e-38
6.43346e-37
7.21171e-69
2.62867e-66
4.48604e-64
4.89722e-62
3.8733e-60
2.37368e-58
1.17454e-56
4.81511e-55
1.66061e-53
4.85487e-52
1.20079e-50
2.50291e-49
4.54684e-48
7.71578e-47
1.20911e-45
1.62137e-44
1.8787e-43
1.98881e-42
1.92652e-41
1.68822e-40
1.32605e-39
9.37051e-39
6.02538e-38
2.77004e-71
1.16198e-68
2.23205e-66
2.7188e-64
2.39802e-62
1.64853e-60
9.22214e-59
4.29626e-57
1.68766e-55
5.65337e-54
1.63531e-52
4.09715e-51
8.84824e-50
1.69757e-48
3.06525e-47
5.06522e-46
7.09934e-45
8.54705e-44
9.32194e-43
9.28396e-42
8.3703e-41
6.79208e-40
5.06277e-39
6.40869e-74
3.20116e-71
7.34706e-69
1.08096e-66
1.15546e-64
9.57238e-63
6.3838e-61
3.50771e-59
1.61144e-57
6.25855e-56
2.07984e-54
5.98517e-53
1.49154e-51
3.18331e-50
5.94678e-49
1.03975e-47
1.71204e-46
2.50397e-45
3.25438e-44
3.83292e-43
3.95096e-42
3.49238e-41
2.99076e-40
7.15324e-77
4.10684e-74
1.08453e-71
1.87453e-69
2.39626e-67
2.40628e-65
1.96463e-63
1.33225e-61
7.60612e-60
3.68629e-58
1.52323e-56
5.38799e-55
1.64732e-53
4.43454e-52
1.07041e-50
2.31503e-49
4.38406e-48
6.91455e-47
9.10995e-46
1.28447e-44
1.8674e-43
2.04908e-42
2.01875e-41
3.88276e-80
2.53972e-77
7.9869e-75
1.70752e-72
2.75708e-70
3.51967e-68
3.64083e-66
3.09495e-64
2.18304e-62
1.29192e-60
6.51695e-59
2.85511e-57
1.10194e-55
3.75901e-54
1.1276e-52
2.96146e-51
6.80745e-50
1.35028e-48
2.15295e-47
2.38704e-46
3.53851e-45
8.45398e-44
9.79105e-43
1.85875e-83
1.23489e-80
4.38693e-78
1.11092e-75
2.17703e-73
3.42062e-71
4.40042e-69
4.7044e-67
4.22916e-65
3.22646e-63
2.10165e-61
1.17268e-59
5.62706e-58
2.34531e-56
8.61468e-55
2.8025e-53
7.99895e-52
2.00728e-50
4.5617e-49
9.52546e-48
1.22599e-46
2.89984e-45
3.99592e-44
2.76665e-87
1.45918e-84
5.58323e-82
1.74627e-79
4.54636e-77
9.77147e-75
1.72267e-72
2.48939e-70
2.96263e-68
2.93562e-66
2.46449e-64
1.78691e-62
1.13336e-60
6.32321e-59
3.12623e-57
1.38541e-55
5.51594e-54
1.90533e-52
5.41159e-51
1.34203e-49
3.26776e-48
6.93519e-47
1.21896e-45
1.36935e-91
5.11371e-89
1.99527e-86
7.6515e-84
2.71602e-81
8.37572e-79
2.17473e-76
4.71771e-74
8.57477e-72
1.31359e-69
1.7067e-67
1.89173e-65
1.79839e-63
1.47235e-61
1.03451e-59
6.10795e-58
2.98026e-56
1.27225e-54
5.29663e-53
2.07685e-51
6.77889e-50
1.80044e-48
4.0371e-47
2.34386e-97
6.10257e-95
2.23636e-92
1.11951e-89
6.32655e-87
3.39242e-84
1.57763e-81
6.15387e-79
2.00072e-76
5.44337e-74
1.24787e-71
2.42669e-69
4.02549e-67
5.71786e-65
6.96312e-63
7.24725e-61
6.37651e-59
4.67301e-57
2.87911e-55
1.57517e-53
7.80291e-52
3.20085e-50
1.01295e-48
3.4638e-107
4.72684e-105
1.93473e-102
1.713e-99
2.24692e-96
3.2031e-93
4.12746e-90
4.4781e-87
4.03272e-84
3.02869e-81
1.91426e-78
1.02743e-75
4.72222e-73
1.87338e-70
6.4592e-68
1.9421e-65
5.0784e-63
1.14578e-60
2.19094e-58
3.4008e-56
4.06757e-54
3.33933e-52
1.97486e-50
0.998411
0.985158
0.351497
0.0183924
0.98478
0.979534
0.906095
0.90219
0.65715
0.789538
0.900805
0.902236
0.0291882
0.0953893
0.410791
0.553535
1.90424e-08
3.54451e-05
0.00361136
0.0169881
1.29777e-08
2.94248e-08
1.0466e-05
0.000778699
9.02458e-09
5.14718e-16
5.0313e-07
2.07236e-05
1.39964e-09
1.08881e-08
8.83426e-09
3.01526e-10
9.25078e-11
1.64622e-10
1.83672e-10
2.84634e-10
1.34465e-27
-2.15831e-41
-5.80531e-34
-5.22274e-32
8.62945e-41
1.4636e-26
1.9581e-24
1.91765e-22
1.95846e-36
5.97276e-36
1.22925e-35
2.38132e-35
2.51978e-35
8.24146e-35
4.68325e-34
1.24941e-33
1.03499e-34
2.61915e-34
2.98179e-33
7.05199e-33
3.10842e-34
1.44756e-33
8.81392e-33
2.33294e-32
7.6577e-33
2.14672e-32
7.47927e-32
1.99093e-31
7.08163e-32
1.78502e-31
4.05765e-31
8.45399e-31
2.51184e-31
5.40131e-31
1.00056e-30
1.88325e-30
4.99491e-31
9.38751e-31
1.67042e-30
2.9648e-30
6.38198e-31
1.19517e-30
4.91617e-30
3.06374e-28
6.99681e-31
6.03092e-30
2.20914e-28
4.51979e-27
2.17867e-30
5.78396e-29
9.57731e-28
9.27717e-27
8.1741e-30
1.27875e-28
1.21793e-27
7.73341e-27
8.74423e-30
9.10049e-29
6.25477e-28
3.31154e-27
2.32641e-30
2.5304e-29
1.9343e-28
1.04461e-27
8.81366e-31
7.3446e-30
4.69107e-29
2.41677e-28
1.14638e-31
9.86377e-31
7.11974e-30
4.09151e-29
1.83914e-32
1.46492e-31
9.99697e-31
5.93253e-30
2.08578e-33
1.4228e-32
1.02756e-31
6.85675e-31
2.09778e-34
1.19284e-33
8.76475e-33
6.50994e-32
2.96291e-35
1.17204e-34
7.07653e-34
5.3707e-33
2.88851e-36
1.29901e-35
5.5596e-35
3.63958e-34
3.60072e-37
1.20178e-36
4.56104e-36
2.44571e-35
2.77828e-38
1.28056e-37
4.49089e-37
1.9349e-36
2.62101e-39
1.04368e-38
3.99423e-38
1.65735e-37
1.80424e-40
8.17259e-40
3.60322e-39
1.59182e-38
1.02807e-41
5.30574e-41
2.62006e-40
1.27815e-39
5.01772e-43
3.02346e-42
1.72782e-41
9.60533e-41
2.04215e-44
1.5571e-43
1.05794e-42
6.90181e-42
7.87603e-46
7.01649e-45
5.79414e-44
4.49795e-43
2.64455e-47
3.04803e-46
3.16455e-45
3.00897e-44
9.27158e-49
1.43062e-47
1.91705e-46
2.09827e-45
4.30951e-12
7.75741e-05
3.02231e-05
0.0268825
0.0507202
0.0129587
1.75883e-08
2.49126e-09
1.30001e-09
6.32177e-10
3.76791e-10
2.38898e-10
1.86494e-10
1.80891e-10
2.22461e-10
2.78922e-10
2.63717e-10
1.62442e-10
4.55554e-11
0.389299
0.204651
0.26366
0.518298
0.378657
0.0182158
3.07632e-10
1.64285e-09
1.13871e-09
6.32038e-10
4.35335e-10
1.88794e-10
1.16214e-10
8.44002e-11
9.14894e-11
1.44389e-10
1.78531e-10
1.21479e-10
4.26587e-11
0.846726
0.748274
0.745363
0.714046
0.395979
0.00607995
8.04643e-11
3.8178e-10
3.85632e-10
3.50776e-10
3.19062e-10
2.243e-10
9.2202e-11
3.87295e-11
4.20638e-11
8.02399e-11
1.13518e-10
1.01395e-10
3.85188e-11
0.375296
0.276044
0.183582
0.0509279
1.58369e-14
7.59228e-09
4.03038e-09
1.19258e-09
4.93919e-10
2.50188e-10
2.19785e-10
1.69069e-10
5.09407e-11
5.43325e-12
9.19732e-12
3.54358e-11
7.90336e-11
6.87747e-11
3.65473e-11
0.014092
-3.85114e-10
1.1773e-08
1.58377e-14
1.1773e-08
1.05543e-07
4.04031e-08
2.79515e-10
2.59625e-10
9.0226e-11
5.27749e-11
3.90974e-11
1.31086e-11
5.38954e-13
1.42529e-12
1.13626e-11
4.55403e-11
5.44819e-11
3.09623e-11
0.000615273
6.44636e-05
-1.47153e-07
3.95738e-07
5.05828e-07
4.79114e-07
6.67566e-08
2.79165e-10
8.49977e-12
1.59311e-11
1.44556e-11
5.25475e-12
1.75717e-12
1.63191e-13
1.8617e-13
2.41298e-12
2.05324e-11
3.90425e-11
2.7348e-11
1.78313e-06
8.99839e-07
1.19565e-08
4.83596e-11
8.89012e-10
-1.73106e-14
4.43155e-09
3.01104e-09
1.17697e-10
1.0256e-12
1.53914e-12
1.19189e-12
6.03992e-13
8.22072e-14
2.49421e-14
2.03299e-13
6.84195e-12
2.77624e-11
2.17231e-11
7.99703e-10
2.32776e-09
1.75465e-09
3.57815e-10
3.10935e-16
1.25553e-14
3.10929e-16
4.49364e-15
4.00589e-14
1.69812e-13
2.37755e-13
2.30019e-13
1.17829e-13
3.27745e-14
9.50367e-15
5.05038e-15
2.68154e-12
1.85818e-11
1.98767e-11
7.65948e-27
-1.01519e-32
3.94472e-24
3.23186e-12
6.66559e-12
5.14031e-12
7.59502e-13
7.30162e-14
3.56649e-15
6.36946e-18
3.46705e-15
2.16989e-14
2.27132e-14
6.45901e-15
3.3639e-15
6.2008e-16
1.04503e-12
1.45296e-11
1.73912e-11
4.54216e-23
4.1784e-23
1.18201e-23
4.73963e-27
3.27598e-26
4.843e-28
1.22721e-32
2.85867e-33
4.75503e-27
4.43893e-26
9.56763e-18
1.2483e-16
1.93884e-15
9.47845e-16
7.45521e-16
3.3812e-16
2.27213e-13
9.7825e-12
1.43907e-11
6.20692e-22
5.62503e-22
1.34679e-22
2.24867e-23
1.16955e-24
1.67973e-27
9.5779e-28
3.3055e-26
3.01391e-25
2.03459e-24
7.12487e-19
1.62477e-17
1.34805e-16
1.79939e-16
1.38187e-16
2.5138e-16
1.63901e-14
4.69948e-12
1.2021e-11
7.13951e-34
3.87518e-33
3.50508e-32
3.41105e-31
4.0708e-30
1.96798e-27
3.53571e-26
1.29673e-24
5.82446e-24
5.82872e-23
1.36859e-20
1.07224e-18
2.95343e-17
3.89638e-17
3.03718e-17
2.09062e-16
1.37091e-15
9.15684e-13
9.58525e-12
1.39667e-32
8.67275e-32
8.38836e-31
5.64709e-30
3.09403e-28
4.21351e-26
1.19909e-24
8.61749e-24
1.18579e-22
6.67234e-22
4.56421e-21
1.99891e-19
6.18327e-18
1.00472e-17
1.06254e-17
1.69857e-16
7.27792e-16
3.02066e-14
7.38021e-12
5.39559e-32
3.42515e-31
3.14981e-30
7.79798e-29
4.53694e-27
6.41012e-25
1.32339e-23
1.69154e-22
8.16142e-22
3.75392e-21
1.35743e-20
7.90029e-20
1.37024e-18
3.10116e-18
5.01122e-18
1.3557e-16
5.44007e-16
5.50864e-16
5.28331e-12
1.45024e-31
1.80222e-30
6.75688e-30
3.4149e-28
1.02229e-25
9.45747e-24
9.0023e-23
6.11769e-22
3.07542e-21
1.28404e-20
4.18361e-20
9.39661e-20
4.58368e-19
1.19659e-18
3.00133e-18
6.93418e-17
4.38484e-16
4.64135e-16
4.02469e-12
9.09242e-31
4.31695e-30
1.42205e-29
1.2672e-26
6.89616e-25
3.43693e-23
3.76349e-22
1.85971e-21
7.73035e-21
2.46182e-20
6.64932e-20
1.47621e-19
3.50741e-19
8.15544e-19
2.63252e-18
2.80217e-17
3.89968e-16
4.63173e-16
2.73596e-12
2.24998e-30
7.32545e-30
4.98699e-29
3.25562e-25
2.00527e-23
2.08344e-22
1.18196e-21
4.58987e-21
1.47215e-20
4.00534e-20
9.69013e-20
2.13809e-19
4.24035e-19
9.44812e-19
2.75329e-18
1.13023e-17
3.70826e-16
4.53371e-16
9.41394e-13
3.48194e-30
1.2055e-29
2.02693e-26
7.67806e-24
9.82375e-23
5.16168e-22
2.06704e-21
7.18655e-21
2.01348e-20
5.13782e-20
1.2352e-19
2.73725e-19
5.56851e-19
1.14015e-18
2.74938e-18
8.02997e-18
2.91862e-16
4.40739e-16
4.46844e-14
7.54218e-29
1.02678e-26
1.58099e-24
3.01051e-23
1.56712e-22
6.40749e-22
2.5571e-21
7.78718e-21
2.20829e-20
5.79526e-20
1.42791e-19
3.26536e-19
6.56034e-19
1.44776e-18
2.95957e-18
8.15107e-18
1.44499e-16
4.36417e-16
6.10994e-17
1.19881e-26
2.8104e-25
5.45691e-24
3.52256e-23
1.57545e-22
5.84342e-22
2.24026e-21
6.77541e-21
1.96765e-20
5.41666e-20
1.43281e-19
3.5433e-19
7.74428e-19
1.63189e-18
3.24157e-18
9.19814e-18
5.24146e-17
4.37948e-16
1.63353e-17
4.89938e-26
4.99681e-25
5.35899e-24
2.70717e-23
1.09307e-22
4.59486e-22
1.49463e-21
4.76616e-21
1.45879e-20
4.3175e-20
1.23086e-19
3.30431e-19
7.29166e-19
1.76585e-18
3.92952e-18
9.17206e-18
3.931e-17
3.83505e-16
1.61942e-17
5.91563e-26
4.13841e-25
3.41204e-24
1.58432e-23
6.25643e-23
2.61697e-22
8.57396e-22
2.81917e-21
9.1115e-21
2.91322e-20
9.09103e-20
2.63385e-19
6.93321e-19
1.72791e-18
3.61987e-18
8.54316e-18
2.06706e-17
1.25925e-16
1.60628e-17
3.66295e-26
2.11158e-25
1.64937e-24
7.73464e-24
3.23853e-23
1.19072e-22
4.08738e-22
1.38105e-21
4.76297e-21
1.67226e-20
5.77229e-20
1.83788e-19
5.16202e-19
1.28558e-18
3.11871e-18
6.14077e-18
9.48879e-18
1.12562e-17
1.51778e-17
1.46868e-26
1.04485e-25
4.73726e-25
3.12399e-24
1.291e-23
4.86594e-23
1.69909e-22
5.82631e-22
2.10205e-21
8.0928e-21
3.16249e-20
1.11943e-19
3.38327e-19
8.485e-19
1.82955e-18
4.14503e-18
6.78799e-18
7.83014e-18
1.1749e-17
4.45511e-27
3.18155e-26
1.5033e-25
1.04022e-24
4.43552e-24
1.73908e-23
6.18212e-23
2.10877e-22
7.43742e-22
2.88662e-21
1.1831e-20
4.59054e-20
1.48369e-19
3.92578e-19
9.95777e-19
2.39023e-18
4.65611e-18
6.00677e-18
6.33672e-18
1.05906e-27
7.92112e-27
3.8446e-26
2.88884e-25
1.30522e-24
5.36643e-24
1.97134e-23
6.92002e-23
2.39425e-22
8.75239e-22
3.8263e-21
1.70898e-20
6.40912e-20
1.98944e-19
4.63848e-19
1.03969e-18
2.24544e-18
3.75437e-18
4.0677e-18
1.97576e-28
1.65573e-27
8.64188e-27
7.09384e-26
3.40776e-25
1.46116e-24
5.55361e-24
1.99193e-23
7.11933e-23
2.5439e-22
1.02025e-21
4.88685e-21
2.17069e-20
7.65543e-20
2.29284e-19
5.6831e-19
1.08497e-18
2.07994e-18
1.79717e-18
3.14202e-29
2.95396e-28
1.66944e-27
1.52378e-26
7.87011e-26
3.55909e-25
1.40991e-24
5.15736e-24
1.85424e-23
6.74513e-23
2.54718e-22
1.15625e-21
5.58981e-21
2.34373e-20
7.64564e-20
2.22346e-19
5.37389e-19
1.01622e-18
8.28986e-19
4.0822e-30
4.35228e-29
2.68637e-28
2.84877e-27
1.6053e-26
7.77571e-26
3.23749e-25
1.21433e-24
4.33792e-24
1.54494e-23
5.65561e-23
2.38496e-22
1.1616e-21
3.97025e-21
1.94178e-20
6.43315e-20
1.743e-19
3.65689e-19
3.60666e-19
4.40407e-31
3.53566e-30
5.52901e-29
4.39594e-28
2.86055e-27
1.50993e-26
6.69501e-26
2.60037e-25
9.30965e-25
3.21233e-24
1.11747e-23
4.38529e-23
2.13911e-22
9.17083e-22
3.81816e-21
1.41212e-20
4.27662e-20
9.7517e-20
1.14068e-19
4.01356e-32
3.39113e-31
6.66359e-30
6.02987e-29
4.41184e-28
2.57452e-27
1.23366e-26
5.03174e-26
1.82997e-25
6.21035e-25
2.03164e-24
7.08561e-24
2.24172e-23
1.38356e-22
5.99263e-22
2.39007e-21
7.95026e-21
1.94311e-20
2.48403e-20
2.86398e-33
2.96198e-32
6.57947e-31
6.97956e-30
5.8407e-29
3.81947e-28
2.00417e-27
8.71469e-27
3.26791e-26
1.10781e-25
3.53223e-25
1.10363e-24
4.10168e-24
1.81583e-23
7.76684e-23
3.20056e-22
1.13544e-21
2.89565e-21
3.5123e-21
1.61497e-34
1.33551e-33
5.02414e-32
6.86092e-31
6.59515e-30
4.89742e-29
2.84933e-28
1.33883e-27
5.26479e-27
1.8066e-26
5.69332e-26
1.71996e-25
5.43518e-25
2.17505e-24
8.67566e-24
3.50277e-23
1.25806e-22
3.18854e-22
3.25491e-22
1.03852e-35
1.56281e-34
3.26884e-33
5.53758e-32
6.28245e-31
5.39668e-30
3.53159e-29
1.81422e-28
7.5877e-28
2.6848e-27
8.42341e-27
2.48883e-26
7.30123e-26
2.46889e-25
8.75448e-25
3.25246e-24
1.09638e-23
2.51341e-23
6.60696e-24
5.58411e-37
1.10063e-35
1.7758e-34
3.48934e-33
5.08634e-32
5.09996e-31
3.81426e-30
2.1674e-29
9.73857e-29
3.60241e-28
1.14492e-27
3.30288e-27
9.17636e-27
2.70742e-26
8.21708e-26
2.63174e-25
7.55462e-25
1.46035e-24
9.39781e-25
7.47479e-38
8.56264e-37
1.17239e-35
1.95128e-34
3.33879e-33
4.13525e-32
3.59422e-31
2.2928e-30
1.11723e-29
4.35939e-29
1.42842e-28
4.02575e-28
1.04761e-27
2.73315e-27
7.05508e-27
1.88577e-26
4.09252e-26
8.07084e-26
5.74128e-26
4.81395e-39
7.36761e-38
8.59658e-37
1.22417e-35
2.00041e-34
2.87369e-33
2.92477e-32
2.13604e-31
1.14152e-30
4.57104e-30
1.44288e-29
4.47757e-29
1.11653e-28
2.47955e-28
5.61839e-28
1.17946e-27
1.96024e-27
5.1057e-27
3.94391e-27
5.40043e-40
6.28143e-39
6.86922e-38
8.03393e-37
1.09472e-35
1.64811e-34
2.04418e-33
1.73333e-32
1.04643e-31
4.5288e-31
1.36429e-30
4.66308e-30
1.13411e-29
2.29869e-29
4.2555e-29
6.54413e-29
1.09253e-28
2.76185e-28
2.33148e-28
4.38696e-41
5.36105e-40
5.81767e-39
6.16574e-38
7.13049e-37
9.37878e-36
1.28344e-34
1.2454e-33
8.29844e-33
3.72629e-32
1.36908e-31
2.68281e-31
1.06411e-30
2.18047e-30
3.32916e-30
4.16738e-30
6.40531e-30
1.12769e-29
1.00504e-29
3.32912e-42
4.41897e-41
4.91495e-40
5.012e-39
5.1722e-38
5.47199e-37
6.33081e-36
6.83625e-35
5.56176e-34
2.93756e-33
1.25831e-32
3.61896e-32
9.07707e-32
1.84429e-31
2.68717e-31
3.42177e-31
3.63448e-31
4.40588e-31
3.07585e-31
2.48816e-43
3.58132e-42
4.13294e-41
4.18083e-40
4.07036e-39
3.93922e-38
3.64624e-37
3.6766e-36
3.53226e-35
2.57867e-34
1.05988e-33
3.01932e-33
7.1043e-33
1.40207e-32
2.08954e-32
2.94321e-32
2.21925e-32
2.17511e-32
9.19804e-33
1.92548e-44
2.95856e-43
3.53002e-42
3.56249e-41
3.3165e-40
3.05369e-39
2.75947e-38
2.5677e-37
2.48763e-36
2.02963e-35
8.46849e-35
2.38822e-34
5.18267e-34
1.00038e-33
1.56877e-33
2.28233e-33
1.35724e-33
1.04395e-33
2.83241e-34
)
;

boundaryField
{
    leftWall
    {
        type            alphaContactAngle;
        contactAngleProperties 
        {
            air             
            {
                theta0          90;
            }
            water           
            {
                theta0          90;
            }
            oil             
            {
                theta0          90;
            }
        }
        value           nonuniform List<scalar> 
50
(
1
1
1
1
1
1
0.831623
0.127552
5.23111e-97
8.182e-80
-2.63517e-91
4.47122e-73
1.77615e-72
3.18523e-69
4.1491e-66
3.6611e-64
3.22696e-63
2.39891e-62
1.64494e-61
1.00342e-60
5.51732e-60
2.9115e-59
1.41282e-58
5.86617e-58
1.9833e-57
5.83371e-57
3.84609e-56
8.66067e-56
1.15515e-55
1.16322e-55
8.64388e-56
4.12716e-56
1.26002e-56
2.02516e-57
1.82246e-58
1.37249e-59
4.99781e-61
1.20133e-62
1.73962e-64
1.58984e-66
7.21171e-69
2.77004e-71
6.40869e-74
7.15324e-77
3.88276e-80
1.85875e-83
2.76665e-87
1.36935e-91
2.34386e-97
3.4638e-107
)
;
    }
    rightWall
    {
        type            alphaContactAngle;
        contactAngleProperties 
        {
            air             
            {
                theta0          90;
            }
            water           
            {
                theta0          90;
            }
            oil             
            {
                theta0          90;
            }
        }
        value           nonuniform List<scalar> 
50
(
4.13804e-13
1.54714e-12
2.48268e-12
6.2668e-12
2.13586e-11
4.35565e-11
4.23932e-11
4.84457e-11
4.55554e-11
4.26587e-11
3.85188e-11
3.65473e-11
3.09623e-11
2.7348e-11
2.17231e-11
1.98767e-11
1.73912e-11
1.43907e-11
1.2021e-11
9.58525e-12
7.38021e-12
5.28331e-12
4.02469e-12
2.73596e-12
9.41394e-13
4.46844e-14
6.10994e-17
1.63353e-17
1.61942e-17
1.60628e-17
1.51778e-17
1.1749e-17
6.33672e-18
4.0677e-18
1.79717e-18
8.28986e-19
3.60666e-19
1.14068e-19
2.48403e-20
3.5123e-21
3.25491e-22
6.60696e-24
9.39781e-25
5.74128e-26
3.94391e-27
2.33148e-28
1.00504e-29
3.07585e-31
9.19804e-33
2.83241e-34
)
;
    }
    lowerWall
    {
        type            alphaContactAngle;
        contactAngleProperties 
        {
            air             
            {
                theta0          90;
            }
            water           
            {
                theta0          90;
            }
            oil             
            {
                theta0          90;
            }
        }
        value           nonuniform List<scalar> 
62
(
1
1
1
1
1
1
1
1
1
1
1
1
1
1
1
1
1
1
1
1
1
1
0.999167
0.999167
0.999166
0.999628
1
1
0.999739
0.999404
0.999478
0.998411
0.985158
0.351497
0.0183924
5.72688e-10
5.93312e-10
6.20251e-10
6.95343e-10
6.81473e-10
5.76627e-10
4.47872e-10
2.37769e-10
5.72688e-10
9.15662e-10
1.30792e-09
1.40713e-09
1.42054e-09
1.13137e-09
9.56056e-10
8.5737e-10
6.82495e-10
5.77494e-10
5.00616e-10
4.13577e-10
2.91277e-10
1.93006e-10
1.43852e-10
8.2515e-11
2.98601e-11
4.64258e-12
4.13804e-13
)
;
    }
    atmosphere
    {
        type            inletOutlet;
        inletValue      uniform 0;
        value           nonuniform List<scalar> 
46
(
0
0
0
0
0
0
0
0
0
0
0
0
0
0
0
0
0
0
0
0
0
0
0
9.27158e-49
1.43062e-47
1.91705e-46
2.09827e-45
1.92548e-44
2.95856e-43
3.53002e-42
3.56249e-41
3.3165e-40
3.05369e-39
2.75947e-38
2.5677e-37
2.48763e-36
2.02963e-35
8.46849e-35
2.38822e-34
5.18267e-34
1.00038e-33
1.56877e-33
2.28233e-33
1.35724e-33
1.04395e-33
2.83241e-34
)
;
    }
    defaultFaces
    {
        type            empty;
    }
}


// ************************************************************************* //
