/*--------------------------------*- C++ -*----------------------------------*\
  =========                 |
  \\      /  F ield         | OpenFOAM: The Open Source CFD Toolbox
   \\    /   O peration     | Website:  https://openfoam.org
    \\  /    A nd           | Version:  13
     \\/     M anipulation  |
\*---------------------------------------------------------------------------*/
FoamFile
{
    format      ascii;
    class       volScalarField;
    location    "0.35";
    object      alpha.air;
}
// * * * * * * * * * * * * * * * * * * * * * * * * * * * * * * * * * * * * * //

dimensions      [];

internalField   nonuniform List<scalar> 
2268
(
1.34378e-23
1.63922e-21
5.47918e-21
6.1767e-21
5.36139e-21
5.45029e-21
5.54994e-21
5.55465e-21
4.98943e-21
3.51009e-21
2.40148e-21
2.79952e-21
1.52005e-19
7.74358e-19
1.77151e-18
2.25632e-18
2.0306e-18
1.55381e-18
9.04117e-19
3.55223e-19
1.00417e-19
3.2574e-20
7.73266e-21
1.04187e-24
1.32176e-19
4.73275e-19
4.24039e-19
3.10407e-19
3.16264e-19
1.96964e-19
1.47636e-19
1.38032e-19
1.08463e-19
6.39082e-20
6.39946e-20
1.59546e-18
8.86067e-18
2.8932e-17
4.44874e-17
4.16273e-17
3.35874e-17
1.62271e-17
8.01075e-18
2.67866e-18
1.11541e-18
1.12777e-19
6.26949e-19
2.53282e-18
7.05307e-18
6.37535e-18
5.02819e-18
5.0343e-18
3.18035e-18
3.4123e-18
3.03224e-18
2.66757e-18
2.12272e-18
1.67444e-18
1.46012e-17
6.70201e-17
2.18321e-16
4.53506e-16
5.06046e-16
4.37642e-16
2.2612e-16
9.09668e-17
2.1416e-17
2.73244e-18
3.66117e-19
4.21863e-17
5.87595e-17
1.12135e-16
6.06049e-17
4.63514e-17
3.51964e-17
2.29447e-17
2.40237e-17
2.15249e-17
1.985e-17
1.8685e-17
1.24029e-17
4.30467e-17
2.25809e-16
8.24368e-16
2.51966e-15
3.59995e-15
3.33719e-15
1.79067e-15
8.32632e-16
1.56355e-16
2.43638e-17
2.4545e-18
8.5012e-16
7.44817e-16
8.72938e-16
5.08228e-16
3.97032e-16
4.01409e-16
1.01929e-15
1.01847e-15
9.54852e-16
9.45562e-16
1.01961e-15
1.42782e-15
1.43892e-15
1.856e-15
3.62136e-15
1.77846e-14
3.51048e-14
3.42761e-14
2.01833e-14
7.36178e-15
2.13305e-15
1.73127e-16
1.43897e-17
2.70676e-14
1.83877e-14
2.09757e-14
1.91043e-14
1.68152e-14
1.69259e-14
1.75833e-14
1.86459e-14
1.90211e-14
2.14721e-14
2.50303e-14
3.80982e-14
4.38949e-14
3.34651e-14
2.94487e-14
7.52481e-14
2.46604e-13
2.81772e-13
2.08531e-13
8.58681e-14
1.13641e-14
5.88729e-16
6.54297e-17
4.57086e-12
2.55905e-12
2.01114e-12
1.8937e-12
1.69247e-12
1.69051e-12
1.70266e-12
1.74549e-12
1.97013e-12
2.52046e-12
2.88361e-12
3.3293e-12
3.84867e-12
4.26867e-12
3.72983e-12
2.98249e-12
5.44132e-12
6.50061e-12
4.69018e-12
1.66763e-12
2.00817e-13
6.11991e-15
4.77094e-16
5.7747e-11
4.49849e-11
3.40433e-11
3.30943e-11
3.09356e-11
3.03577e-11
3.00173e-11
2.97834e-11
3.21201e-11
3.60752e-11
3.74945e-11
3.539e-11
3.58969e-11
4.86413e-11
5.39253e-11
4.10381e-11
3.96538e-11
3.91385e-11
2.89063e-11
1.07023e-11
1.11369e-12
1.76258e-13
1.42293e-14
0.000226943
8.83553e-07
6.7093e-07
8.26363e-11
8.72022e-11
4.93569e-05
0.000167061
0.000173167
0.000145532
2.11004e-05
1.18901e-10
9.14817e-11
0.00463181
0.00880734
0.00879059
0.000387255
0.0194424
0.126888
0.0711082
0.000292658
9.17417e-05
2.04426e-10
2.55573e-10
8.98008e-10
6.31978e-10
6.53882e-10
8.81648e-10
3.05459e-10
1.61726e-10
1.23979e-10
9.52818e-11
8.48833e-11
7.67831e-05
0.000507491
0.000225741
7.83015e-08
0.125807
0.131642
0.000930498
0.00121121
0.0286771
2.04426e-10
7.21381e-10
1.6722e-09
8.75232e-10
3.33405e-10
3.05318e-10
2.38984e-10
1.86211e-10
1.31008e-10
9.0744e-11
1.64505e-12
-3.08328e-11
1.36821e-05
3.51881e-08
0.0779977
0.131722
0.00099966
0.0477965
0.508651
0.317725
0.0013764
2.75288e-10
3.5375e-09
6.14324e-10
4.40499e-10
3.41867e-10
2.49966e-10
1.68716e-10
1.07436e-10
1.08141e-10
1.61094e-09
3.72541e-08
3.53758e-08
0.0159549
0.0413727
0.00776341
0.323996
0.996578
0.9939
0.532753
0.0352179
-1.21128e-16
8.65244e-11
2.58654e-10
3.29151e-10
3.00844e-10
2.45436e-10
1.64626e-10
9.4095e-11
8.68254e-11
2.65869e-08
6.16581e-08
-1.62555e-09
8.06525e-09
0.00930508
0.806698
0.999998
0.999997
0.999997
0.33777
1.19217e-06
7.09264e-11
1.9782e-10
3.28777e-10
3.3993e-10
3.43515e-10
3.13274e-10
1.97557e-10
7.73338e-10
1.29459e-08
6.90018e-08
1.71344e-08
8.04179e-09
0.0106568
0.808083
0.999998
0.999996
0.999966
0.493413
4.27162e-18
8.22344e-11
1.71588e-10
3.36813e-10
3.74335e-10
3.95405e-10
4.65915e-10
3.9103e-10
5.9959e-10
5.04979e-09
2.59262e-08
1.34484e-08
6.46147e-09
0.0111788
0.608113
0.999976
0.998609
0.978371
0.289466
9.21632e-11
7.56477e-11
1.66763e-10
3.68096e-10
4.68259e-10
4.54011e-10
6.18248e-10
6.10291e-10
5.72512e-10
1.72558e-09
9.18554e-09
4.1422e-09
5.58773e-09
1.51265e-10
1.5302e-10
1.47494e-10
1.31347e-10
1.24179e-10
1.20882e-10
1.19216e-10
1.17774e-10
1.16062e-10
1.12808e-10
1.08579e-10
9.55446e-11
9.12081e-11
1.38218e-10
1.72672e-10
1.51284e-10
1.28648e-10
1.32046e-10
1.20015e-10
7.5582e-11
2.63279e-11
4.65618e-12
4.32309e-13
3.55482e-10
3.66556e-10
3.45962e-10
3.20693e-10
3.08868e-10
2.96792e-10
2.91129e-10
2.83461e-10
2.82817e-10
2.78685e-10
2.71366e-10
2.36974e-10
2.1405e-10
4.18479e-10
7.52392e-10
6.77214e-10
4.8562e-10
4.0777e-10
3.55061e-10
2.69803e-10
2.08678e-10
1.05473e-10
3.32498e-11
7.77117e-10
7.70776e-10
7.69501e-10
7.79786e-10
7.68341e-10
7.2354e-10
6.97379e-10
6.75081e-10
6.63142e-10
6.62231e-10
6.56681e-10
5.84409e-10
4.81349e-10
1.02095e-09
2.41807e-09
3.33293e-09
2.17133e-09
1.16235e-09
9.29805e-10
7.10713e-10
5.36407e-10
3.29865e-10
1.53631e-10
1.30236e-09
1.25565e-09
1.37361e-09
1.63436e-09
1.71353e-09
1.59282e-09
1.4739e-09
1.45274e-09
1.38708e-09
1.35626e-09
1.34492e-09
1.22538e-09
9.76231e-10
9.5108e-10
2.22967e-09
2.13691e-08
6.39062e-09
1.04574e-09
1.03944e-09
9.64375e-10
8.04828e-10
4.81458e-10
1.43056e-10
1.2525e-09
1.25322e-09
1.31048e-09
1.80594e-09
2.18789e-09
2.10949e-09
2.06353e-09
2.01404e-09
2.01416e-09
1.99713e-09
2.00056e-09
1.91085e-09
1.6452e-09
1.21036e-09
1.29315e-09
3.23029e-09
5.60909e-07
1.41867e-07
2.83604e-11
1.79105e-26
1.77883e-11
-5.50982e-19
1.21629e-11
1.25416e-09
1.25422e-09
1.25416e-09
1.3457e-09
1.44364e-09
1.65497e-09
8.94382e-09
1.51704e-08
2.0356e-08
2.44695e-08
2.68067e-08
3.16549e-08
3.30442e-08
3.13e-08
8.6052e-09
8.84197e-09
1.32065e-06
8.42191e-06
6.70293e-06
3.55501e-06
1.674e-06
9.6675e-07
5.05273e-07
0.173604
0.141984
0.109865
0.083223
0.0613019
0.0446274
0.0321458
0.0232872
0.0167738
0.0117437
0.00800928
0.00766129
0.00531235
0.00100563
1.86428e-08
5.85818e-05
1.44011e-06
5.11189e-06
1.41372e-05
1.43434e-05
7.94804e-06
4.45841e-08
5.83239e-08
0.928695
0.89779
0.863666
0.826432
0.787282
0.748286
0.710901
0.676536
0.645733
0.613715
0.583015
0.578232
0.5565
0.486232
0.305791
0.14131
0.0673111
0.00277923
3.5314e-06
3.4043e-06
1.1353e-06
3.57049e-10
3.98723e-10
1
1
1
1
1
1
1
1
1
1
1
1
0.999997
0.999926
0.987787
0.895979
0.685054
0.134241
0.00111704
5.92647e-05
1.80109e-05
1.85205e-07
3.57049e-10
1
1
1
1
1
1
1
1
1
1
1
1
1
0.999881
0.99974
0.999743
0.999968
0.919372
0.574236
0.257823
0.129449
0.0671572
0.0391473
1
1
1
1
1
1
1
1
1
1
1
1
1
0.999761
0.999682
0.999864
1
0.999995
0.999928
0.999895
0.987497
0.885457
0.750239
1
1
1
1
1
1
1
1
1
1
1
1
1
0.999975
0.999887
0.999966
1
1
1
1
0.999997
0.999993
0.999994
1
1
1
1
1
1
1
1
1
1
1
1
0.999997
1
1
1
1
1
1
1
1
1
1
1
1
1
1
1
1
1
1
1
1
1
1
1
1
1
1
1
1
1
1
1
1
1
1
1
1
1
1
1
1
1
1
1
1
1
1
1
1
1
1
1
1
1
1
1
1
1
1
1
1
1
1
1
1
1
1
1
1
1
1
1
1
1
1
1
1
1
1
1
1
1
1
1
1
1
1
1
1
1
1
1
1
1
1
1
1
1
1
1
1
1
1
1
1
1
1
1
1
1
1
1
1
1
1
1
1
1
1
1
1
1
1
1
1
1
1
1
1
1
1
1
1
1
1
1
1
1
1
1
1
1
1
1
1
1
1
1
1
1
1
1
1
1
1
1
1
1
1
1
1
1
1
1
1
1
1
1
1
1
1
1
1
1
1
1
1
1
1
1
1
1
1
1
1
1
1
1
1
1
1
1
1
1
1
1
1
1
1
1
1
1
1
1
1
1
1
1
1
1
1
1
1
1
1
1
1
1
1
1
1
1
1
1
1
1
1
1
1
1
1
1
1
1
1
1
1
1
1
1
1
1
1
1
1
1
1
1
1
1
1
1
1
1
1
1
1
1
1
1
1
1
1
1
1
1
1
1
1
1
1
1
1
1
1
1
1
1
1
1
1
1
1
1
1
1
1
1
1
1
1
1
1
1
1
1
1
1
1
1
1
1
1
1
1
1
1
1
1
1
1
1
1
1
1
1
1
1
1
1
1
1
1
1
1
1
1
1
1
1
1
1
1
1
1
1
1
1
1
1
1
1
1
1
1
1
1
1
1
1
1
1
1
1
1
1
1
1
1
1
1
1
1
1
1
1
1
1
1
1
1
1
1
1
1
1
1
1
1
1
1
1
1
1
1
1
1
1
1
1
1
1
1
1
1
1
1
1
1
1
1
1
1
1
1
1
1
1
1
1
1
1
1
1
1
1
1
1
1
1
1
1
1
1
1
1
1
1
1
1
1
1
1
1
1
1
1
1
1
1
1
1
1
1
1
1
1
1
1
1
1
1
1
1
1
1
1
1
1
1
1
1
1
1
1
1
1
1
1
1
1
1
1
1
1
1
1
1
1
1
1
1
1
1
1
1
1
1
1
1
1
1
1
1
1
1
1
1
1
1
1
1
1
1
1
1
1
1
1
1
1
1
1
1
1
1
1
1
1
1
1
1
1
1
1
1
1
1
1
1
1
1
1
1
1
1
1
1
1
1
1
1
1
1
1
1
1
1
1
1
1
1
1
1
1
1
1
1
1
1
1
1
1
1
1
1
1
1
1
1
1
1
1
1
1
1
1
1
1
1
1
1
1
1
1
1
1
1
1
1
1
1
1
1
1
1
1
1
1
1
1
1
1
1
1
1
1
1
1
1
1
1
1
1
1
1
1
1
1
1
1
1
1
1
1
1
1
1
1
1
1
1
1
1
1
1
1
1
1
1
1
1
1
1
1
1
1
1
1
1
1
1
1
1
1
1
1
1
1
1
1
1
1
1
1
1
1
1
1
1
1
1
1
1
1
1
1
1
2.19878e-16
-1.95277e-18
0.590675
0.909509
2.08868e-12
2.08921e-16
0.0752076
0.078383
4.82666e-11
1.74912e-24
0.00209592
0.0125046
2.27756e-11
1.2177e-10
6.7674e-05
1.47226e-06
-6.24573e-15
1.64431e-11
2.55546e-11
8.67005e-09
3.59267e-07
3.11507e-07
1.53932e-07
3.97692e-08
1.12894e-07
8.44105e-08
2.42679e-08
5.24291e-10
2.25378e-08
2.95233e-07
8.7675e-08
1.40653e-09
3.00784e-05
5.90149e-05
1.14101e-05
1.3798e-08
0.0399327
0.0426322
0.0459291
0.0572746
0.732322
0.731921
0.726329
0.745481
0.999994
0.999995
0.999996
0.999997
1
1
1
1
1
1
1
1
1
1
1
1
1
1
1
1
1
1
1
1
1
1
1
1
1
1
1
1
1
1
1
1
1
1
1
1
1
1
1
1
1
1
1
1
1
1
1
1
1
1
1
1
1
1
1
1
1
1
1
1
1
1
1
1
1
1
1
1
1
1
1
1
1
1
1
1
1
1
1
1
1
1
1
1
1
1
1
1
1
1
1
1
1
1
1
1
1
1
1
1
1
1
1
1
1
1
1
1
1
1
1
1
1
1
1
1
1
1
1
1
0.237524
0.552641
0.991345
0.973117
0.714872
0.0879455
-5.59652e-19
2.87681e-10
3.65982e-10
4.56429e-10
7.29789e-10
7.00466e-10
1.31663e-09
1.02608e-09
8.09019e-10
7.99985e-10
1.41647e-09
2.58269e-09
5.30308e-09
0.523635
0.744259
0.731042
0.468069
0.104849
1.03603e-18
4.77352e-10
9.33868e-10
1.0227e-09
1.06822e-09
1.77669e-09
2.22485e-09
1.26426e-08
1.0953e-08
5.12453e-09
2.62951e-09
1.62354e-09
1.53362e-09
5.27887e-09
0.0850545
0.167733
0.0786856
6.18222e-19
-6.22969e-11
-5.10765e-11
2.01488e-13
4.45398e-10
1.38241e-09
2.02886e-09
4.02872e-09
7.90235e-09
5.30616e-09
4.42866e-09
3.30864e-09
1.72668e-09
1.13506e-09
1.17168e-09
3.09414e-09
0.00183547
3.08657e-14
1.82151e-14
4.61633e-12
2.52276e-11
3.781e-11
9.90278e-11
5.76526e-10
1.50231e-09
1.01283e-08
1.7279e-08
0.0261268
0.108704
0.0646324
1.77878e-08
8.23954e-10
1.13618e-09
9.89289e-10
1.9973e-09
2.08421e-10
2.31291e-11
1.31965e-11
4.54254e-11
2.19089e-10
1.2757e-10
2.03715e-10
3.73569e-10
1.31527e-08
0.0235184
0.216595
0.563841
0.852003
0.777379
0.338271
2.80008e-08
1.01963e-09
1.13591e-09
1.19393e-09
1.84406e-09
2.70971e-10
8.09692e-11
2.63072e-10
1.17347e-09
1.69475e-09
1.38244e-10
1.30738e-08
0.0661993
0.476314
0.970295
1
1
1
0.954583
0.1101
0.000945571
1.21026e-09
4.20245e-09
4.86222e-10
4.24692e-10
1.25759e-10
7.90871e-10
2.0633e-09
1.97724e-08
1.65113e-08
0.155431
0.695406
1
1
1
1
1
1
0.658571
0.0327014
1.00401e-08
1.0169e-07
1.734e-09
2.03494e-09
1.31738e-09
4.12346e-09
2.34215e-09
0.0689418
0.377129
0.906057
0.999999
1
1
1
1
1
1
0.997889
0.00611748
3.45843e-09
1.68019e-07
4.94261e-09
9.24707e-10
3.16215e-10
0.0476924
0.274487
0.759822
0.999998
0.999998
0.999998
0.999998
1
1
1
1
1
1
0.032092
0.00223474
7.10094e-08
0.135277
0.235964
0.398783
0.719005
0.999999
0.999999
0.999998
0.999996
0.999996
0.999998
1
1
1
1
1
1
0.688809
0.0167337
7.08114e-08
0.881967
0.994687
1
1
0.999999
0.999996
0.999988
0.999989
0.999999
1
1
1
1
1
1
1
0.999999
0.0182489
7.03996e-08
0.999998
0.999999
1
1
0.999991
0.999988
0.999988
0.999996
1
1
1
1
1
1
1
1
0.99972
0.00254288
7.02455e-08
1
1
1
0.999996
0.999996
0.999996
1
1
1
1
1
1
1
1
1
1
0.997046
3.00007e-07
1.19419e-07
1
1
0.999999
1
1
1
1
1
1
1
1
1
1
1
1
1
0.999687
0.512979
0.00588583
1
1
1
1
1
1
1
1
1
1
1
1
1
1
1
1
1
0.999998
0.0187078
1
1
1
1
1
1
1
1
1
1
1
1
1
1
1
1
1
1
0.110602
1
1
1
1
1
1
1
1
1
1
1
1
1
1
1
1
1
1
0.241583
1
1
1
1
1
1
1
1
1
1
1
1
1
1
1
1
1
1
0.213905
1
1
1
1
1
1
1
1
1
1
1
1
1
1
1
1
1
1
0.0959244
1
1
1
1
1
1
1
1
1
1
1
1
1
1
1
1
1
0.998621
0.0625091
1
1
1
1
1
1
1
1
1
1
1
1
1
1
1
1
0.999999
0.980535
0.0625831
1
1
1
1
1
1
1
1
1
1
1
1
1
1
1
0.999999
0.999999
0.972261
0.0625095
1
1
1
1
1
1
1
1
1
1
1
1
1
1
1
0.999999
0.999998
0.984187
0.624623
1
1
1
1
1
1
1
1
1
1
1
1
1
1
1
0.999997
0.999966
0.999879
0.999989
1
1
1
1
1
1
1
1
1
1
1
1
1
1
1
1
1
1
1
1
1
1
1
1
1
1
1
1
1
1
1
1
1
1
1
1
1
1
1
1
1
1
1
1
1
1
1
1
1
1
1
1
1
1
1
1
1
1
1
1
1
1
1
1
1
1
1
1
1
1
1
1
1
1
1
1
1
1
1
1
1
1
1
1
1
1
1
1
1
1
1
1
1
1
1
1
1
1
1
1
1
1
1
1
1
1
1
1
1
1
1
1
1
1
1
1
1
1
1
1
1
1
1
1
1
1
1
1
1
1
1
1
1
1
1
1
1
1
1
1
1
1
1
1
1
1
1
1
1
1
1
1
1
1
1
1
1
1
1
1
1
1
1
1
1
1
1
1
1
1
1
1
1
1
1
1
1
1
1
1
1
1
1
1
1
1
1
1
1
1
1
1
1
1
1
1
1
1
1
1
1
1
1
1
1
1
1
1
1
1
1
1
1
1
1
1
1
1
1
1
1
1
1
1
1
1
1
1
1
1
1
1
1
1
1
1
1
1
1
1
1
1
1
1
1
1
1
1
1
1
1
1
1
1
1
1
1
1
1
1
1
1
1
1
1
1
1
1
1
1
1
1
1
1
1
1
1
1
1
1
1
1
1
1
1
1
1
1
1
1
1
1
1
1
1
1
1
1
1
1
1
1
1
1
1
1
1
1
1
1
1
1
1
1
1
1
1
1
1
1
1
1
1
1
1
1
1
1
1
1
1
1
1
1
1
1
1
1
1
1
1
1
)
;

boundaryField
{
    leftWall
    {
        type            alphaContactAngle;
        contactAngleProperties 
        {
            mercury         
            {
                theta0          90;
            }
            water           
            {
                theta0          90;
            }
            oil             
            {
                theta0          90;
            }
        }
        value           nonuniform List<scalar> 
50
(
1.34378e-23
1.04187e-24
6.26949e-19
4.21863e-17
8.5012e-16
2.70676e-14
4.57086e-12
5.7747e-11
1.51265e-10
3.55482e-10
7.77117e-10
1.30236e-09
1.2525e-09
1.25416e-09
0.173604
0.928695
1
1
1
1
1
1
1
1
1
1
1
1
1
1
1
1
1
1
1
1
1
1
1
1
1
1
1
1
1
1
1
1
1
1
)
;
    }
    rightWall
    {
        type            alphaContactAngle;
        contactAngleProperties 
        {
            mercury         
            {
                theta0          90;
            }
            water           
            {
                theta0          90;
            }
            oil             
            {
                theta0          90;
            }
        }
        value           nonuniform List<scalar> 
50
(
0.0711082
0.131642
0.131722
0.0413727
8.06525e-09
8.04179e-09
6.46147e-09
5.58773e-09
5.30308e-09
5.27887e-09
3.09414e-09
1.9973e-09
1.19393e-09
4.20245e-09
1.0169e-07
1.68019e-07
7.10094e-08
7.08114e-08
7.03996e-08
7.02455e-08
1.19419e-07
0.00588583
0.0187078
0.110602
0.241583
0.213905
0.0959244
0.0625091
0.0625831
0.0625095
0.624623
0.999989
1
1
1
1
1
1
1
1
1
1
1
1
1
1
1
1
1
1
)
;
    }
    lowerWall
    {
        type            alphaContactAngle;
        contactAngleProperties 
        {
            mercury         
            {
                theta0          90;
            }
            water           
            {
                theta0          90;
            }
            oil             
            {
                theta0          90;
            }
        }
        value           nonuniform List<scalar> 
62
(
1.34378e-23
1.63922e-21
5.47918e-21
6.1767e-21
5.36139e-21
5.45029e-21
5.54994e-21
5.55465e-21
4.98943e-21
3.51009e-21
2.40148e-21
2.79952e-21
1.52005e-19
7.74358e-19
1.77151e-18
2.25632e-18
2.0306e-18
1.55381e-18
9.04117e-19
3.55223e-19
1.00417e-19
3.2574e-20
7.73266e-21
7.73266e-21
1.12777e-19
3.66117e-19
2.4545e-18
1.43897e-17
6.54297e-17
4.77094e-16
1.42293e-14
2.19878e-16
-1.95277e-18
0.590675
0.909509
0.000226943
0.000292658
0.000930498
0.00099966
0.00776341
0.00930508
0.0106568
0.0111788
0.000226943
8.83553e-07
6.7093e-07
8.26363e-11
8.72022e-11
4.93569e-05
0.000167061
0.000173167
0.000145532
2.11004e-05
1.18901e-10
9.14817e-11
0.00463181
0.00880734
0.00879059
0.000387255
0.0194424
0.126888
0.0711082
)
;
    }
    atmosphere
    {
        type            inletOutlet;
        inletValue      uniform 1;
        value           nonuniform List<scalar> 
46
(
1
1
1
1
1
1
1
1
1
1
1
1
1
1
1
1
1
1
1
1
1
1
1
1
1
1
1
1
1
1
1
1
1
1
1
1
1
1
1
1
1
1
1
1
1
1
)
;
    }
    defaultFaces
    {
        type            empty;
    }
}


// ************************************************************************* //
