/*--------------------------------*- C++ -*----------------------------------*\
  =========                 |
  \\      /  F ield         | OpenFOAM: The Open Source CFD Toolbox
   \\    /   O peration     | Website:  https://openfoam.org
    \\  /    A nd           | Version:  13
     \\/     M anipulation  |
\*---------------------------------------------------------------------------*/
FoamFile
{
    format      ascii;
    class       volScalarField;
    location    "0.35";
    object      epsilon;
}
// * * * * * * * * * * * * * * * * * * * * * * * * * * * * * * * * * * * * * //

dimensions      [0 2 -3 0 0 0 0];

internalField   nonuniform List<scalar> 
2268
(
0.0242541
0.0929245
0.173783
0.248359
0.320295
0.38904
0.454007
0.514542
0.570036
0.619888
0.663347
0.699415
0.726966
0.744957
0.752319
0.747688
0.730546
0.709976
0.679903
0.633876
0.561112
0.432156
0.206498
0.0347713
0.0652572
0.0959894
0.124275
0.150606
0.175219
0.19821
0.219572
0.23925
0.257155
0.273144
0.287009
0.298535
0.307578
0.314138
0.31848
0.321733
0.329934
0.344897
0.366796
0.387975
0.370887
0.274881
0.0539567
0.0687423
0.0890313
0.107813
0.124938
0.14064
0.1551
0.168404
0.180578
0.191611
0.201454
0.210032
0.217306
0.223362
0.228539
0.233626
0.240346
0.253
0.275561
0.311106
0.356086
0.380883
0.431444
0.068202
0.0755336
0.0906319
0.104855
0.117777
0.129525
0.140248
0.150023
0.158883
0.166834
0.173858
0.179933
0.185105
0.189612
0.194046
0.199582
0.208327
0.224006
0.250724
0.292074
0.346947
0.397562
0.576785
0.0790923
0.0823446
0.0942306
0.105508
0.11578
0.125103
0.133571
0.14123
0.148105
0.154206
0.159529
0.164092
0.168013
0.171665
0.175883
0.182197
0.193024
0.211734
0.241819
0.286314
0.345997
0.416103
0.709806
0.088692
0.0883176
0.0980641
0.10726
0.115643
0.123247
0.130124
0.136303
0.141805
0.14664
0.150818
0.154391
0.157546
0.160793
0.165218
0.172719
0.186008
0.208078
0.241311
0.28765
0.349685
0.43648
0.834151
0.0983888
0.0934962
0.101717
0.109397
0.116377
0.122675
0.128333
0.133387
0.137857
0.141758
0.145111
0.147998
0.15068
0.153814
0.158763
0.167855
0.184162
0.210295
0.24703
0.294487
0.357454
0.459779
0.961296
0.108846
0.0984212
0.105313
0.111779
0.117671
0.122926
0.127596
0.131736
0.135378
0.13854
0.141254
0.143635
0.146025
0.149242
0.154944
0.165939
0.185814
0.21697
0.258165
0.307069
0.370496
0.486638
1.14278
1.89711
3.21271
4.45536
5.68988
6.82876
7.74482
8.32236
8.57375
8.70841
8.67784
8.4339
7.936
7.19549
6.29896
5.45322
4.52966
3.46893
2.1091
0.728779
1.58951
2.3506
2.74468
3.17638
3.55159
3.79924
3.92281
3.91757
3.86623
3.79688
3.67094
3.48507
3.2529
3.01333
2.83853
2.67312
2.43043
1.89834
1.27566
2.02991
2.16949
2.42363
2.71996
2.94831
3.06836
3.0754
3.02109
2.9625
2.89807
2.80495
2.68324
2.5472
2.42677
2.36504
2.34309
2.28853
2.02501
2.20447
2.25829
2.13356
2.34236
2.57589
2.66294
2.7091
2.6579
2.60017
2.55907
2.51873
2.46039
2.38331
2.30054
2.23823
2.22876
2.26576
2.2931
2.19902
3.06598
2.30036
2.17766
2.40565
2.65496
2.49988
2.4429
2.361
2.31262
2.29718
2.28956
2.2701
2.23595
2.19797
2.17932
2.2064
2.27833
2.35558
2.39523
3.87343
2.22885
2.24451
2.42024
2.46323
2.45089
2.20712
2.11228
2.08202
2.09673
2.12519
2.14641
2.15523
2.15974
2.18006
2.23832
2.33686
2.45275
2.6074
4.6424
2.16467
2.40034
2.33758
2.21077
2.21746
1.96759
1.89016
1.88824
1.93483
1.99901
2.06021
2.11124
2.15679
2.2139
2.30127
2.42381
2.57479
2.83349
5.38549
2.16361
2.58338
2.3117
2.01182
1.8599
1.73999
1.70043
1.72962
1.8053
1.9018
2.00046
2.09196
2.17673
2.26879
2.3841
2.53021
2.71647
3.07614
6.11857
0.12024
0.103755
0.109305
0.114574
0.119342
0.123419
0.126901
0.129896
0.132472
0.134676
0.136596
0.138449
0.140733
0.144497
0.151728
0.165688
0.190576
0.229505
0.280485
0.335947
0.39933
0.50912
0.825699
0.135013
0.107049
0.110045
0.114363
0.118222
0.121343
0.123853
0.125924
0.127691
0.129284
0.130898
0.132904
0.136005
0.141474
0.151444
0.169108
0.198416
0.242572
0.301021
0.368279
0.435722
0.519019
0.676701
0.141329
0.106102
0.107345
0.110995
0.114347
0.117024
0.119131
0.120858
0.122391
0.123929
0.125749
0.128334
0.13253
0.139747
0.152153
0.172675
0.204564
0.250255
0.30896
0.375661
0.4458
0.518113
0.607631
0.142572
0.105473
0.105233
0.107858
0.110448
0.112551
0.114215
0.115605
0.116924
0.118424
0.12046
0.123608
0.128807
0.137506
0.151775
0.174209
0.20743
0.25321
0.310828
0.37585
0.441763
0.507463
0.572544
0.14348
0.106076
0.104233
0.105419
0.106897
0.108169
0.109228
0.110198
0.111277
0.112739
0.114982
0.118627
0.124661
0.134527
0.150168
0.173871
0.207815
0.253402
0.310503
0.376279
0.445184
0.512703
0.576006
0.147321
0.108638
0.104603
0.103901
0.103982
0.104246
0.104601
0.105119
0.105973
0.107441
0.10993
0.114074
0.12088
0.131784
0.148665
0.173602
0.208539
0.254879
0.313378
0.382989
0.459798
0.538641
0.614164
0.157728
0.114579
0.106778
0.103539
0.101958
0.10111
0.100747
0.100858
0.10158
0.103179
0.106066
0.110873
0.118602
0.130677
0.148968
0.175589
0.212712
0.262303
0.325486
0.401879
0.488362
0.579279
0.667486
0.179973
0.126549
0.111529
0.104828
0.101376
0.0993891
0.0983473
0.0981406
0.0988583
0.10075
0.104257
0.110032
0.11905
0.132687
0.152885
0.181984
0.222454
0.277153
0.347351
0.430923
0.524426
0.622551
0.717715
0.220079
0.147249
0.119314
0.108204
0.10289
0.0998272
0.0981754
0.0977467
0.0985929
0.100946
0.105349
0.112525
0.123391
0.139284
0.162012
0.194975
0.23969
0.296857
0.369451
0.455056
0.549624
0.648747
0.745767
0.25588
0.146784
0.122498
0.107024
0.100435
0.0972039
0.0958937
0.0961336
0.0979274
0.10151
0.107385
0.116246
0.129038
0.147312
0.174034
0.213873
0.266852
0.322507
0.395797
0.481041
0.571599
0.666975
0.763127
0.280073
0.147252
0.116224
0.101722
0.0952538
0.0926253
0.0922777
0.093708
0.0968796
0.102022
0.109554
0.120102
0.134514
0.154156
0.181986
0.221804
0.276363
0.349361
0.442428
0.539352
0.61757
0.700387
0.796434
0.291117
0.141089
0.109792
0.0969581
0.0913781
0.0895281
0.0901047
0.0926673
0.0971916
0.103877
0.113076
0.125325
0.141337
0.162018
0.188545
0.224056
0.273529
0.344882
0.434022
0.526676
0.627658
0.74201
0.861286
0.292329
0.134277
0.104325
0.0930107
0.0883398
0.0872195
0.088579
0.0920753
0.0977132
0.105683
0.116283
0.129924
0.147159
0.168664
0.195366
0.228626
0.271708
0.327265
0.395533
0.478295
0.58068
0.699802
0.81349
0.293166
0.130046
0.100603
0.0901512
0.0861223
0.0855532
0.0874932
0.0916635
0.0980886
0.106947
0.118498
0.133064
0.151034
0.172877
0.199197
0.231026
0.269944
0.317155
0.372942
0.440044
0.520931
0.613577
0.709367
0.295995
0.128224
0.0985816
0.0883887
0.0846811
0.0844408
0.0867427
0.0913277
0.0982192
0.107572
0.119604
0.13456
0.152712
0.174372
0.199948
0.23003
0.26546
0.306977
0.355344
0.412503
0.479992
0.55622
0.638392
0.299845
0.127768
0.0977073
0.0875073
0.083893
0.0837986
0.0862795
0.0910656
0.0981625
0.10769
0.119821
0.13473
0.152592
0.173596
0.197979
0.226079
0.258365
0.29535
0.337719
0.386675
0.44311
0.506415
0.574992
0.303244
0.127894
0.0974281
0.087164
0.0835707
0.0835235
0.0860564
0.0908937
0.0980108
0.107488
0.119454
0.134012
0.151258
0.171277
0.194173
0.220105
0.249327
0.282178
0.319162
0.361001
0.408235
0.460747
0.517962
0.305372
0.128082
0.0974069
0.0871135
0.083526
0.0834908
0.0860237
0.0908178
0.097825
0.107106
0.118751
0.132778
0.14922
0.168085
0.189356
0.213061
0.239296
0.268247
0.300227
0.33567
0.374955
0.418211
0.465348
0.305956
0.128083
0.0974362
0.0871854
0.083618
0.0835799
0.0860821
0.0908006
0.0976601
0.106677
0.117886
0.131286
0.146849
0.164523
0.184161
0.205691
0.229087
0.254397
0.281769
0.311444
0.343677
0.37865
0.416468
0.305022
0.127795
0.0974
0.0872665
0.0837424
0.0836972
0.0861477
0.0907617
0.0974439
0.10618
0.116961
0.129743
0.144437
0.160905
0.178971
0.198463
0.219244
0.241242
0.264467
0.28901
0.315008
0.342585
0.371804
0.302732
0.127201
0.0972399
0.0872849
0.0838237
0.0837683
0.0861494
0.0906329
0.0971102
0.105544
0.115893
0.128075
0.14195
0.157322
0.173955
0.191602
0.210037
0.229085
0.248645
0.268695
0.28927
0.310434
0.332226
0.299301
0.126324
0.0969344
0.0871989
0.0838106
0.0837373
0.0860293
0.0903554
0.0965992
0.104707
0.114615
0.12621
0.139314
0.153688
0.16904
0.185064
0.201464
0.217987
0.234449
0.250747
0.266852
0.282793
0.298632
0.294962
0.125214
0.0964892
0.0869927
0.0836743
0.0835679
0.0857466
0.0898853
0.0958639
0.103619
0.11307
0.124086
0.136463
0.149927
0.164154
0.178789
0.193487
0.207941
0.22191
0.235239
0.247865
0.259808
0.271163
0.289961
0.123939
0.0959316
0.0866728
0.0834086
0.0832457
0.0852818
0.0891992
0.0948774
0.102248
0.111223
0.121659
0.13334
0.145976
0.159219
0.172689
0.186009
0.198836
0.210895
0.222002
0.232073
0.241128
0.249296
0.28456
0.122588
0.0953096
0.0862675
0.0830296
0.0827793
0.0846388
0.0882984
0.0936388
0.10059
0.109062
0.11891
0.129916
0.141786
0.154164
0.166661
0.178884
0.190474
0.201135
0.210664
0.218965
0.226056
0.232078
0.279044
0.121266
0.0946901
0.0858245
0.082574
0.0821991
0.0838455
0.08721
0.0921747
0.0986701
0.10661
0.115854
0.12619
0.137332
0.148932
0.160604
0.171954
0.182617
0.192287
0.200749
0.207894
0.21373
0.218395
0.273727
0.120102
0.0941593
0.0854102
0.0820971
0.0815553
0.0829508
0.0859844
0.0905383
0.0965442
0.10392
0.112537
0.122195
0.132627
0.1435
0.154444
0.165075
0.175031
0.184005
0.191772
0.198206
0.203298
0.207165
0.268961
0.119246
0.0938219
0.0851064
0.081669
0.0809135
0.0820206
0.0846911
0.0888041
0.0942911
0.101076
0.10904
0.118004
0.127722
0.137887
0.148152
0.158153
0.167538
0.176003
0.183315
0.189333
0.194024
0.19747
0.265147
0.11888
0.0938007
0.085008
0.0813705
0.0803493
0.0811317
0.083412
0.0870613
0.0920079
0.0981792
0.105469
0.113718
0.122707
0.13216
0.141756
0.151158
0.160033
0.168084
0.175074
0.180847
0.185343
0.188604
0.262748
0.119216
0.0942357
0.0852187
0.0812877
0.0799427
0.0803654
0.0822342
0.085406
0.0898006
0.0953463
0.101947
0.109464
0.117704
0.126424
0.135336
0.144132
0.152502
0.160161
0.166876
0.172477
0.176878
0.180083
0.262313
0.120503
0.0952815
0.0858462
0.0815061
0.0797718
0.0798008
0.0812434
0.0839331
0.0877754
0.0926948
0.098603
0.105378
0.112854
0.120818
0.129018
0.137176
0.145009
0.152252
0.158675
0.164105
0.168433
0.171628
0.264503
0.123032
0.097102
0.0869944
0.0821038
0.0799064
0.0795093
0.0805172
0.0827296
0.0860306
0.0903358
0.0955603
0.101597
0.108304
0.115497
0.122957
0.130438
0.137685
0.144455
0.150531
0.155741
0.159962
0.163135
0.270151
0.127139
0.0998612
0.0887529
0.0831418
0.0804012
0.0795486
0.0801209
0.0818701
0.084651
0.0883657
0.0929289
0.0982448
0.104191
0.110611
0.117315
0.124087
0.1307
0.136933
0.142587
0.147497
0.15154
0.154635
0.280349
0.133212
0.103708
0.091181
0.0846536
0.0812888
0.0799591
0.080104
0.0814134
0.0837049
0.0868625
0.090798
0.0954238
0.100635
0.106297
0.112246
0.118293
0.124235
0.129874
0.135029
0.139551
0.143324
0.146258
0.296635
0.141698
0.108752
0.094285
0.0866304
0.0825728
0.0807607
0.0805002
0.0814031
0.0832436
0.0858851
0.0892344
0.0932109
0.0977239
0.10266
0.107876
0.113205
0.118463
0.12347
0.128064
0.132113
0.135517
0.138192
0.321366
0.15312
0.115016
0.097985
0.0890052
0.0842216
0.0819523
0.0813288
0.0818706
0.0833052
0.0854754
0.0882841
0.0916569
0.0955174
0.0997702
0.104292
0.108932
0.113522
0.11789
0.121885
0.125394
0.12834
0.130657
0.358498
0.168072
0.122357
0.102066
0.0916334
0.0861654
0.0835154
0.0826005
0.082841
0.0839205
0.0856656
0.0879778
0.0907915
0.0940449
0.097661
0.101536
0.105534
0.109495
0.113251
0.11665
0.119585
0.122003
0.123874
0.415228
0.187114
0.130294
0.106106
0.0942785
0.0883013
0.0854231
0.0843266
0.084342
0.0851217
0.0864859
0.0883408
0.0906322
0.093315
0.0963328
0.0996032
0.10301
0.106401
0.109605
0.112454
0.114828
0.116689
0.118052
0.505578
0.210264
0.137659
0.109389
0.0966135
0.0905144
0.0876601
0.086533
0.0864138
0.0869513
0.0879747
0.0894028
0.0911962
0.0933283
0.0957654
0.0984519
0.101298
0.104171
0.1069
0.109292
0.111185
0.112523
0.113371
0.659858
0.235161
0.14195
0.110836
0.0982763
0.0927301
0.0902539
0.0892785
0.0891208
0.0894706
0.0901868
0.0912091
0.0925144
0.0940938
0.0959369
0.098018
0.100284
0.102642
0.104945
0.106995
0.108571
0.109536
0.109964
0.956999
0.250729
0.138393
0.109165
0.0990527
0.0950131
0.0933194
0.0926714
0.0925578
0.0927638
0.0931986
0.0938277
0.0946429
0.0956481
0.0968493
0.0982478
0.0998314
0.101564
0.103369
0.105111
0.106573
0.107493
0.107808
1.66362
0.214615
0.120044
0.103787
0.0992846
0.0977078
0.0970962
0.0968769
0.0968497
0.096937
0.097108
0.0973528
0.0976717
0.09807
0.0985564
0.099141
0.0998346
0.100648
0.101591
0.102668
0.103843
0.104948
0.105962
1.53005
1.22833
1.15748
1.51006
0.837715
0.857144
0.872214
0.930954
0.66762
0.704836
0.740466
0.788384
0.615362
0.651383
0.690372
0.735807
0.618059
0.653844
0.692474
0.735465
0.664878
0.705344
0.74673
0.790559
0.727077
0.772776
0.818521
0.864414
0.782017
0.829969
0.876208
0.920546
0.811542
0.85978
0.906435
0.951665
0.829438
0.878121
0.925796
0.972865
0.864587
0.913923
0.961553
1.00897
0.934145
0.982241
1.02671
1.06994
0.885536
0.935547
0.983388
1.02979
0.779646
0.831516
0.884165
0.936831
0.700181
0.744346
0.789207
0.835274
0.628045
0.665811
0.704584
0.744563
0.563113
0.594741
0.627303
0.660855
0.502892
0.528594
0.55505
0.58222
0.4467
0.466913
0.487733
0.509019
0.395114
0.410506
0.426265
0.442353
0.349502
0.360786
0.372242
0.383857
0.310996
0.318965
0.326968
0.33501
0.279783
0.285246
0.290659
0.296048
0.25523
0.258906
0.262487
0.266012
0.236189
0.238654
0.240993
0.24326
0.221331
0.223011
0.224541
0.225979
0.209392
0.210588
0.211609
0.212516
0.199306
0.200226
0.200946
0.201524
0.190256
0.191039
0.191596
0.191985
0.181676
0.182407
0.182894
0.183187
0.173223
0.173949
0.174419
0.174678
0.164743
0.165481
0.165959
0.166213
0.156232
0.156974
0.157459
0.157717
0.147793
0.148513
0.148987
0.149238
0.139598
0.140257
0.140685
0.1409
0.131856
0.132406
0.132741
0.132876
0.124791
0.125179
0.125367
0.125366
0.118619
0.118794
0.118777
0.118578
0.11354
0.113454
0.113167
0.112699
0.109715
0.109327
0.108711
0.107908
0.107147
0.106455
0.105507
0.104367
0.105623
0.104344
0.103077
0.101757
2.02934
2.42512
2.11559
1.7511
1.57211
1.50636
1.50658
1.56464
1.66891
1.80163
1.94736
2.09373
2.23461
2.37855
2.53539
2.71815
2.96217
3.4847
7.37962
1.24762
1.4079
1.38466
1.33243
1.31273
1.33503
1.38504
1.46632
1.59212
1.76067
1.96241
2.17779
2.38572
2.57953
2.7631
2.96357
3.24493
3.88414
8.4304
0.91464
1.01968
1.08953
1.13949
1.19316
1.26409
1.34459
1.44377
1.59043
1.79867
2.06577
2.35877
2.63526
2.85079
3.02093
3.20352
3.49306
4.21068
9.20651
0.828675
0.92547
1.00663
1.07881
1.15779
1.24604
1.33874
1.4586
1.63706
1.9048
2.27057
2.6759
3.05228
3.25736
3.33834
3.43915
3.69267
4.44412
9.66022
0.818451
0.910706
0.994083
1.07365
1.15842
1.25017
1.35547
1.49821
1.71916
2.07537
2.61533
3.21827
3.74241
3.86901
3.74698
3.70265
3.88054
4.61825
9.80894
0.868761
0.950713
1.02691
1.10336
1.18595
1.27982
1.39614
1.56137
1.83114
2.30954
3.1626
4.22575
4.67057
4.65268
4.2466
4.0309
4.1135
4.7915
9.74822
0.937824
1.01019
1.08072
1.15437
1.23637
1.3337
1.46061
1.64806
1.96786
2.58796
3.46665
4.26023
4.59909
4.83501
4.67501
4.42092
4.4069
4.9937
9.59441
0.991264
1.06346
1.13485
1.21093
1.29764
1.40325
1.54503
1.75617
2.11686
2.64371
3.13746
3.69738
4.15986
4.53443
4.96673
4.91984
4.72481
5.21442
9.44155
1.02502
1.10316
1.18206
1.26746
1.36563
1.48454
1.64768
1.88375
2.19344
2.51922
2.9338
3.42953
3.91636
4.39994
5.07931
5.2124
4.98616
5.43069
9.36266
1.0514
1.1402
1.23172
1.3302
1.44405
1.57366
1.74514
1.94614
2.16006
2.44455
2.80979
3.2529
3.74423
4.27723
4.96646
5.30544
5.22627
5.62109
9.36223
1.09116
1.19416
1.29913
1.40214
1.52216
1.64833
1.77561
1.92125
2.10612
2.34998
2.67513
3.08821
3.57816
4.12008
4.72156
5.30717
5.45514
5.7222
9.38543
1.1425
1.23572
1.33167
1.4398
1.55391
1.65698
1.75582
1.86851
2.016
2.22334
2.51971
2.91755
3.40915
3.96681
4.54254
5.20612
5.46399
5.72355
9.43979
1.10956
1.21192
1.32008
1.42259
1.52002
1.60791
1.68825
1.77703
1.89509
2.07459
2.3493
2.73875
3.23941
3.81982
4.4133
5.02737
5.33852
5.70657
9.5943
1.02499
1.13524
1.24196
1.34207
1.43385
1.51291
1.58267
1.65628
1.75415
1.91247
2.16874
2.54946
3.05575
3.65367
4.25164
4.8001
5.22258
5.69455
9.78175
0.915665
1.02178
1.12721
1.22593
1.31294
1.38643
1.44955
1.51361
1.59863
1.74207
1.98322
2.35278
2.85428
3.44996
4.04596
4.53298
5.0856
5.67599
9.79566
0.813881
0.908535
1.0041
1.09415
1.17364
1.24049
1.29754
1.3551
1.43309
1.56819
1.79912
2.15811
2.64895
3.22793
3.81138
4.30663
4.88082
5.58977
9.53625
0.718691
0.799153
0.880566
0.957739
1.02608
1.08397
1.13443
1.18761
1.26426
1.39714
1.62231
1.97372
2.45684
3.02419
3.59151
4.09716
4.66679
5.30825
9.04911
0.6287
0.694261
0.759979
0.822414
0.877686
0.925473
0.969597
1.0202
1.09991
1.23539
1.46008
1.80589
2.28161
2.84739
3.41819
3.92487
4.43436
5.06774
8.4548
0.544913
0.595651
0.645706
0.692914
0.735603
0.774422
0.813912
0.864381
0.946869
1.0846
1.30897
1.6515
2.12386
2.69193
3.27069
3.77732
4.24318
4.87846
7.8525
0.468622
0.505657
0.541999
0.576578
0.609038
0.640925
0.677147
0.727747
0.81048
0.946329
1.16515
1.49889
1.96334
2.53081
3.12092
3.63574
4.07454
4.71869
7.30115
0.402242
0.428131
0.453732
0.478796
0.503789
0.530697
0.56409
0.613873
0.693183
0.821198
1.02597
1.33962
1.7826
2.33746
2.92914
3.46851
3.89066
4.60078
6.83616
0.347428
0.365042
0.382914
0.401335
0.421209
0.444606
0.475537
0.522233
0.594487
0.709117
0.891321
1.17198
1.57573
2.096
2.67418
3.23008
3.67607
4.54837
6.41228
0.30423
0.316088
0.328684
0.342594
0.358851
0.379297
0.407644
0.449253
0.512003
0.609703
0.763712
1.00194
1.35041
1.81291
2.34912
2.9093
3.40827
4.57472
6.04247
0.271319
0.279306
0.288331
0.299073
0.312527
0.330217
0.355161
0.390677
0.442895
0.522471
0.646432
0.838528
1.12397
1.51391
1.98436
2.49719
3.02633
4.21017
5.06885
0.246662
0.252047
0.258567
0.266882
0.277851
0.292907
0.313823
0.34299
0.384813
0.446955
0.54204
0.688848
0.910213
1.22253
1.61804
2.06363
2.52587
3.1447
3.77041
0.228128
0.231724
0.236385
0.242711
0.25142
0.263701
0.280555
0.303687
0.336057
0.382769
0.452364
0.558209
0.71842
0.950876
1.2604
1.62909
2.01072
2.33452
2.61738
0.213846
0.216173
0.219384
0.223993
0.230683
0.240204
0.253263
0.271004
0.295297
0.329276
0.378176
0.450396
0.558103
0.715463
0.931768
1.2009
1.49091
1.70508
1.78351
0.202325
0.203741
0.205802
0.208934
0.213783
0.220786
0.230482
0.243614
0.261303
0.285328
0.318591
0.365753
0.433772
0.531438
0.666105
0.836581
1.02212
1.15509
1.196
0.192459
0.193224
0.194379
0.196305
0.199505
0.204316
0.211138
0.220454
0.232903
0.249414
0.271435
0.301235
0.342213
0.398812
0.475108
0.570832
0.67359
0.74335
0.782791
0.183475
0.183785
0.184227
0.185186
0.187003
0.189977
0.19442
0.200652
0.209026
0.219984
0.234148
0.252439
0.276211
0.307203
0.346949
0.394869
0.444118
0.474986
0.510972
0.174875
0.174887
0.17481
0.174994
0.175695
0.177182
0.179708
0.183502
0.188761
0.195667
0.204418
0.21526
0.22852
0.24456
0.263509
0.284465
0.303877
0.314338
0.349594
0.166376
0.166198
0.165762
0.165352
0.165187
0.165509
0.166539
0.168452
0.17137
0.175355
0.18041
0.186488
0.193481
0.201182
0.209171
0.216556
0.221697
0.223647
0.261951
0.157866
0.157554
0.156883
0.15604
0.15523
0.154675
0.154575
0.15508
0.156281
0.158192
0.160752
0.163815
0.167137
0.170357
0.172962
0.17428
0.173783
0.173702
0.216387
0.149368
0.148958
0.148111
0.146958
0.145686
0.1445
0.143584
0.143077
0.143058
0.143538
0.144447
0.145634
0.146856
0.147772
0.147955
0.14699
0.145004
0.145651
0.192273
0.140978
0.140465
0.139467
0.138088
0.1365
0.134887
0.133417
0.132223
0.131383
0.130916
0.130774
0.130837
0.130911
0.130734
0.130003
0.128518
0.126764
0.128986
0.178563
0.132839
0.132178
0.131022
0.129469
0.127672
0.125795
0.123987
0.122369
0.121022
0.119977
0.119212
0.118649
0.118157
0.117554
0.116656
0.115412
0.114494
0.11834
0.170051
0.125125
0.124235
0.122885
0.121178
0.119248
0.117232
0.115254
0.11342
0.111808
0.11046
0.109377
0.108521
0.107816
0.107154
0.106441
0.10573
0.105784
0.111079
0.164409
0.118039
0.116797
0.115192
0.113329
0.111314
0.109248
0.107226
0.105332
0.103635
0.102183
0.100994
0.100063
0.0993575
0.0988289
0.0984518
0.0983511
0.0993412
0.105885
0.160545
0.11175
0.110041
0.108123
0.106091
0.104017
0.101958
0.099974
0.0981239
0.0964641
0.0950408
0.0938859
0.0930147
0.092428
0.0921222
0.0921243
0.0926155
0.0944486
0.102072
0.15786
0.106456
0.104198
0.101931
0.0997261
0.0976042
0.0955777
0.0936694
0.0919143
0.0903547
0.0890334
0.0879879
0.0872477
0.0868361
0.0867805
0.0871477
0.0881662
0.0907337
0.0993082
0.155933
0.102385
0.0995823
0.0970014
0.0946505
0.0924918
0.0904959
0.0886571
0.0869921
0.085533
0.0843192
0.0833912
0.0827869
0.082544
0.0827102
0.0833817
0.08483
0.0880163
0.0974713
0.154356
0.0995831
0.0966208
0.0939437
0.0915501
0.089385
0.087405
0.0855947
0.0839645
0.0825427
0.0813679
0.0804822
0.0799282
0.0797505
0.0800078
0.0808122
0.0824628
0.0859746
0.0959739
0.152361
)
;

boundaryField
{
    leftWall
    {
        type            epsilonWallFunction;
        value           nonuniform List<scalar> 
50
(
0.0242541
0.0347713
0.0539567
0.068202
0.0790923
0.088692
0.0983888
0.108846
0.12024
0.135013
0.141329
0.142572
0.14348
0.147321
0.157728
0.179973
0.220079
0.25588
0.280073
0.291117
0.292329
0.293166
0.295995
0.299845
0.303244
0.305372
0.305956
0.305022
0.302732
0.299301
0.294962
0.289961
0.28456
0.279044
0.273727
0.268961
0.265147
0.262748
0.262313
0.264503
0.270151
0.280349
0.296635
0.321366
0.358498
0.415228
0.505578
0.659858
0.956999
1.66362
)
;
    }
    rightWall
    {
        type            epsilonWallFunction;
        value           nonuniform List<scalar> 
50
(
0.728779
1.27566
2.20447
3.06598
3.87343
4.6424
5.38549
6.11857
7.37962
8.4304
9.20651
9.66022
9.80894
9.74822
9.59441
9.44155
9.36266
9.36223
9.38543
9.43979
9.5943
9.78175
9.79566
9.53625
9.04911
8.4548
7.8525
7.30115
6.83616
6.41228
6.04247
5.06885
3.77041
2.61738
1.78351
1.196
0.782791
0.510972
0.349594
0.261951
0.216387
0.192273
0.178563
0.170051
0.164409
0.160545
0.15786
0.155933
0.154356
0.152361
)
;
    }
    lowerWall
    {
        type            epsilonWallFunction;
        value           nonuniform List<scalar> 
62
(
0.0242541
0.0929245
0.173783
0.248359
0.320295
0.38904
0.454007
0.514542
0.570036
0.619888
0.663347
0.699415
0.726966
0.744957
0.752319
0.747688
0.730546
0.709976
0.679903
0.633876
0.561112
0.432156
0.206498
0.206498
0.274881
0.431444
0.576785
0.709806
0.834151
0.961296
1.14278
1.53005
1.22833
1.15748
1.51006
1.89711
1.58951
2.02991
2.25829
2.30036
2.22885
2.16467
2.16361
1.89711
3.21271
4.45536
5.68988
6.82876
7.74482
8.32236
8.57375
8.70841
8.67784
8.4339
7.936
7.19549
6.29896
5.45322
4.52966
3.46893
2.1091
0.728779
)
;
    }
    atmosphere
    {
        type            inletOutlet;
        inletValue      uniform 0.1;
        value           nonuniform List<scalar> 
46
(
0.1
0.1
0.1
0.1
0.1
0.1
0.1
0.1
0.1
0.1
0.1
0.1
0.1
0.1
0.1
0.1
0.1
0.1
0.1
0.1
0.1
0.1
0.1
0.1
0.104344
0.103077
0.101757
0.0995831
0.0966208
0.0939437
0.0915501
0.089385
0.087405
0.0855947
0.0839645
0.0825427
0.0813679
0.0804822
0.0799282
0.0797505
0.0800078
0.0808122
0.0824628
0.0859746
0.0959739
0.152361
)
;
    }
    defaultFaces
    {
        type            empty;
    }
}


// ************************************************************************* //
