/*--------------------------------*- C++ -*----------------------------------*\
  =========                 |
  \\      /  F ield         | OpenFOAM: The Open Source CFD Toolbox
   \\    /   O peration     | Website:  https://openfoam.org
    \\  /    A nd           | Version:  13
     \\/     M anipulation  |
\*---------------------------------------------------------------------------*/
FoamFile
{
    format      ascii;
    class       volScalarField;
    location    "0.35";
    object      k;
}
// * * * * * * * * * * * * * * * * * * * * * * * * * * * * * * * * * * * * * //

dimensions      [0 2 -2 0 0 0 0];

internalField   nonuniform List<scalar> 
2268
(
0.00318357
0.00780211
0.0118524
0.0150401
0.0178202
0.0202863
0.022485
0.0244396
0.026163
0.0276614
0.0289323
0.0299629
0.0307348
0.0312295
0.0314255
0.0312893
0.030813
0.0302306
0.029361
0.027999
0.0257792
0.0216205
0.0131689
0.00665785
0.0167754
0.0243615
0.0306734
0.0360812
0.0407857
0.0449027
0.0484975
0.0516096
0.0542625
0.0564638
0.0582084
0.0594895
0.0603141
0.0607106
0.0607321
0.0604868
0.0599567
0.0591452
0.0577341
0.0547405
0.0468637
0.0263369
0.00893086
0.0207332
0.0299737
0.0377179
0.0443562
0.0501161
0.055139
0.0595081
0.0632753
0.0664733
0.0691183
0.0712159
0.0727774
0.073844
0.0745062
0.0749131
0.0752764
0.0756705
0.076066
0.0759228
0.0736332
0.0644883
0.0355816
0.0104483
0.0233444
0.0336597
0.0422964
0.049697
0.05611
0.0616903
0.0665311
0.0706926
0.0742151
0.077124
0.0794376
0.0811892
0.0824611
0.0834152
0.084303
0.0854276
0.086872
0.0884622
0.0893815
0.0876119
0.0777363
0.0431815
0.0115391
0.0253398
0.0364938
0.0457584
0.0536775
0.0605321
0.0664883
0.0716461
0.0760724
0.079815
0.0829089
0.0853873
0.0873086
0.0888016
0.0901068
0.0915811
0.0935988
0.0961648
0.0988357
0.100461
0.0988267
0.0883324
0.0495858
0.0124643
0.0270239
0.0388884
0.0486042
0.0568718
0.0640176
0.0702212
0.0755903
0.0801987
0.0841014
0.0873429
0.0899716
0.0920739
0.0938288
0.0955615
0.0977388
0.100791
0.104565
0.108215
0.110231
0.108398
0.0973711
0.0552168
0.0133693
0.0286384
0.0411053
0.0511288
0.0596149
0.0669356
0.0732865
0.078786
0.0835155
0.0875362
0.0909006
0.0936729
0.0959696
0.0980244
0.100256
0.103258
0.10752
0.112674
0.117316
0.11948
0.117223
0.105875
0.0606947
0.0143123
0.0304387
0.0433269
0.0535156
0.0621145
0.0695174
0.0759353
0.0814996
0.0862989
0.0903998
0.0938628
0.0967698
0.0992704
0.101656
0.104443
0.108372
0.114019
0.120814
0.126641
0.128979
0.126323
0.115127
0.0681329
0.0569597
0.0811276
0.101154
0.119366
0.135096
0.147394
0.154998
0.158337
0.160237
0.160057
0.15725
0.151192
0.141781
0.129852
0.117937
0.104094
0.0869204
0.0620174
0.0306276
0.0896811
0.146672
0.192554
0.228989
0.260738
0.287094
0.305452
0.314981
0.31821
0.317846
0.312334
0.301553
0.286249
0.2678
0.247161
0.223521
0.193379
0.147605
0.0782776
0.105495
0.178398
0.227626
0.267597
0.304598
0.337194
0.35946
0.372715
0.380708
0.383796
0.380594
0.371168
0.356674
0.339012
0.319282
0.295955
0.263325
0.208709
0.112947
0.113124
0.195232
0.244153
0.284429
0.320303
0.356628
0.381121
0.39916
0.412763
0.42083
0.421935
0.416147
0.404778
0.389935
0.372646
0.350856
0.317567
0.258088
0.140776
0.11443
0.20372
0.252993
0.296809
0.323931
0.358758
0.386211
0.409766
0.429595
0.443667
0.450359
0.449615
0.442694
0.431671
0.417313
0.397163
0.363598
0.300717
0.164539
0.112176
0.20398
0.248114
0.281546
0.323958
0.349922
0.381625
0.4113
0.437692
0.45826
0.471232
0.476359
0.474671
0.468038
0.456854
0.438334
0.404628
0.338856
0.185662
0.110044
0.205386
0.233442
0.259454
0.307779
0.334578
0.37223
0.408367
0.44113
0.468095
0.487506
0.498852
0.502752
0.50077
0.492878
0.476
0.442261
0.373789
0.204978
0.109954
0.207623
0.223601
0.244205
0.281925
0.320753
0.363396
0.404801
0.442888
0.475571
0.501141
0.518674
0.528161
0.530834
0.526229
0.511013
0.477398
0.40653
0.223164
0.0152979
0.032934
0.046171
0.056513
0.0652117
0.0726664
0.0791127
0.0847043
0.0895454
0.0937198
0.0973173
0.100468
0.103393
0.106471
0.110318
0.115771
0.123452
0.132853
0.14138
0.145109
0.142232
0.13179
0.0954147
0.0165138
0.0356852
0.0487806
0.0590742
0.0676948
0.0750585
0.081422
0.086964
0.0918189
0.096109
0.0999786
0.103633
0.107383
0.111686
0.117163
0.124498
0.134129
0.145566
0.156678
0.164048
0.163528
0.153811
0.131539
0.0170119
0.0364431
0.0494819
0.0597848
0.0684087
0.0757772
0.0821593
0.0877554
0.0927325
0.097252
0.101505
0.105754
0.110374
0.115874
0.122857
0.131844
0.142992
0.155666
0.167921
0.176878
0.180173
0.175955
0.164322
0.0171082
0.0360756
0.0492177
0.0595916
0.0682522
0.0756435
0.0820493
0.0876896
0.0927622
0.0974714
0.102058
0.106841
0.112244
0.118796
0.127059
0.137438
0.149854
0.163642
0.177143
0.187988
0.19398
0.195013
0.192268
0.0171873
0.0353691
0.0485656
0.0589655
0.0676168
0.0749843
0.0813721
0.0870219
0.09216
0.0970261
0.101899
0.107134
0.113193
0.120616
0.129937
0.141482
0.155098
0.170129
0.185352
0.199082
0.209623
0.216573
0.221248
0.0175161
0.0347031
0.0479703
0.0583626
0.0669531
0.0742423
0.0805656
0.0861906
0.0913707
0.096374
0.101504
0.107137
0.113759
0.12193
0.132192
0.144852
0.159792
0.176415
0.19401
0.211521
0.227678
0.241849
0.254461
0.0183792
0.0343828
0.0478514
0.0582205
0.0666953
0.0738491
0.0800636
0.0856389
0.0908543
0.0960017
0.101406
0.107454
0.11464
0.123533
0.134701
0.148528
0.165086
0.184092
0.204939
0.226788
0.248517
0.269178
0.288348
0.0201335
0.0349171
0.0487451
0.0590455
0.0673506
0.0743187
0.0803871
0.0858955
0.0911493
0.0964619
0.102192
0.108742
0.116595
0.126292
0.138449
0.153605
0.172014
0.193789
0.21834
0.244195
0.270157
0.295279
0.318702
0.0230418
0.0371266
0.0511636
0.0612619
0.0693716
0.0761307
0.0820332
0.0874714
0.092779
0.0982877
0.104424
0.111631
0.120344
0.131065
0.144321
0.161204
0.181583
0.204756
0.231105
0.259116
0.287264
0.31473
0.340583
0.0254111
0.0414467
0.0541451
0.062669
0.0702811
0.0768998
0.0828658
0.0885268
0.094207
0.100237
0.10701
0.114939
0.124457
0.136164
0.151152
0.170938
0.194637
0.217168
0.244217
0.273154
0.301391
0.329116
0.355868
0.0269165
0.0458703
0.0558004
0.0636095
0.0707094
0.0772107
0.0833349
0.0893437
0.0955169
0.102156
0.109584
0.11816
0.128267
0.140422
0.155742
0.175377
0.199534
0.228643
0.262467
0.29517
0.319837
0.344178
0.371185
0.0275555
0.0468653
0.0569533
0.0647556
0.0717185
0.0782085
0.0844996
0.0908477
0.0975113
0.104749
0.112821
0.122022
0.13267
0.145077
0.159537
0.17711
0.199279
0.22825
0.26139
0.293055
0.324709
0.358066
0.391118
0.0276284
0.0469908
0.0577609
0.0657837
0.072757
0.0792812
0.085712
0.0923273
0.0993777
0.107094
0.115687
0.125369
0.13637
0.14891
0.163228
0.179661
0.199277
0.222601
0.249012
0.278361
0.311711
0.34788
0.380509
0.027702
0.047285
0.0585319
0.0667198
0.0737246
0.0802818
0.0868036
0.0935877
0.10088
0.108891
0.117798
0.127755
0.138909
0.151394
0.165345
0.181033
0.198904
0.219113
0.241316
0.266081
0.293852
0.323634
0.352531
0.0278986
0.0478892
0.0593368
0.0675987
0.0746062
0.0811674
0.0877209
0.0945747
0.101969
0.110094
0.1191
0.129101
0.140185
0.152426
0.165903
0.180741
0.19713
0.215143
0.234776
0.25645
0.280385
0.305691
0.33116
0.0281501
0.0486363
0.060162
0.0684183
0.0754026
0.0819414
0.0884742
0.0953177
0.102702
0.110798
0.119735
0.129593
0.14042
0.152247
0.165098
0.179022
0.19409
0.210348
0.227857
0.24684
0.267354
0.28888
0.310613
0.028366
0.0493303
0.0609338
0.069187
0.0761363
0.0826181
0.0890918
0.0958736
0.103173
0.111145
0.1199
0.129491
0.139936
0.151232
0.163362
0.176323
0.190127
0.204792
0.220367
0.236944
0.254504
0.272745
0.291223
0.0284993
0.0498963
0.0615876
0.0698562
0.0767848
0.0832202
0.0896254
0.0963024
0.103461
0.111252
0.119768
0.129023
0.139021
0.149732
0.161105
0.173097
0.185681
0.198848
0.212608
0.226985
0.241941
0.257308
0.272825
0.0285356
0.0503111
0.0620978
0.0704001
0.0773236
0.0837227
0.0900618
0.0966376
0.103651
0.111236
0.119465
0.128356
0.13789
0.148019
0.158646
0.169704
0.181137
0.192901
0.204975
0.217341
0.229955
0.242705
0.255429
0.0284777
0.0505733
0.0624557
0.0708038
0.0777344
0.0841057
0.0903832
0.0968605
0.103732
0.111119
0.119083
0.127627
0.136712
0.146264
0.156186
0.166378
0.176753
0.187238
0.197779
0.20833
0.218835
0.229202
0.239296
0.0283358
0.0506913
0.0626611
0.0710587
0.0780024
0.0843502
0.0905683
0.0969486
0.103681
0.110879
0.118594
0.126818
0.135496
0.144536
0.153824
0.163238
0.172665
0.182006
0.191181
0.200122
0.208763
0.217022
0.224791
0.0281225
0.0506776
0.0627197
0.0711621
0.078117
0.0844398
0.0905959
0.0968767
0.103469
0.110484
0.117964
0.125893
0.134205
0.142792
0.151525
0.160264
0.168873
0.177233
0.185243
0.192822
0.199898
0.206402
0.212257
0.0278517
0.0505491
0.0626427
0.071118
0.0780749
0.0843638
0.0904493
0.0966224
0.10307
0.1099
0.117152
0.124806
0.132786
0.140976
0.149232
0.157402
0.165332
0.172888
0.179954
0.186441
0.192276
0.197405
0.201782
0.027538
0.0503264
0.0624485
0.0709388
0.077882
0.0841217
0.0901213
0.0961723
0.102462
0.1091
0.116125
0.123513
0.131188
0.139026
0.146878
0.154578
0.161964
0.168888
0.175228
0.180887
0.185797
0.189915
0.193221
0.0271973
0.0500352
0.0621625
0.0706468
0.0775553
0.083725
0.0896178
0.0955263
0.10164
0.10807
0.114859
0.121985
0.129369
0.13689
0.144393
0.151709
0.158668
0.165117
0.170924
0.175993
0.180256
0.183679
0.186262
0.0268474
0.0497067
0.0618185
0.0702742
0.077124
0.0831989
0.0889598
0.0947008
0.100615
0.106817
0.113353
0.120208
0.127306
0.134529
0.141723
0.148719
0.155344
0.161441
0.166877
0.171549
0.175392
0.178376
0.180508
0.0265084
0.0493777
0.0614582
0.0698632
0.0766289
0.0825819
0.0881831
0.0937289
0.0994158
0.105364
0.111626
0.118193
0.124997
0.131926
0.138832
0.145548
0.151904
0.157741
0.162922
0.167343
0.170936
0.17367
0.175554
0.0262033
0.0490911
0.0611306
0.0694647
0.0761207
0.0819241
0.0873369
0.0926584
0.0980892
0.103755
0.109717
0.115972
0.122465
0.129091
0.135711
0.142165
0.148287
0.153918
0.158921
0.163189
0.166649
0.169264
0.17104
0.0259592
0.0488957
0.0608918
0.0691369
0.0756584
0.0812845
0.0864804
0.0915487
0.0966946
0.10205
0.107682
0.113599
0.119756
0.12606
0.132381
0.13857
0.144466
0.149915
0.154779
0.158949
0.162344
0.164923
0.166679
0.0258069
0.0488462
0.0608035
0.0689435
0.075306
0.0807277
0.0856792
0.0904672
0.0953009
0.100317
0.105592
0.111143
0.116936
0.12289
0.12889
0.134795
0.140454
0.145717
0.15045
0.154539
0.157901
0.160484
0.162268
0.0257833
0.0490038
0.0609328
0.068952
0.0751305
0.0803207
0.0850015
0.0894838
0.0939807
0.0986339
0.103525
0.108683
0.114083
0.119659
0.125307
0.1309
0.136295
0.141351
0.145936
0.149936
0.153264
0.155859
0.157689
0.0259314
0.0494363
0.061351
0.0692318
0.075199
0.0801298
0.0845139
0.0886674
0.0928058
0.0970745
0.101561
0.106301
0.111283
0.116452
0.121718
0.126966
0.132065
0.13688
0.141284
0.145167
0.148437
0.151028
0.152897
0.0263035
0.05022
0.0621338
0.0698524
0.0755761
0.0802166
0.0842781
0.088081
0.0918425
0.0957095
0.0997737
0.104078
0.108621
0.113359
0.118216
0.123088
0.127855
0.132391
0.136575
0.140299
0.143474
0.146028
0.147909
0.0269648
0.051442
0.0633608
0.0708823
0.0763215
0.0806364
0.0843476
0.0877791
0.0911475
0.0945997
0.0982294
0.102085
0.106174
0.110463
0.11489
0.11936
0.123765
0.127986
0.131909
0.13543
0.138463
0.140936
0.142792
0.0280015
0.0532057
0.0651166
0.0723865
0.0774878
0.0814348
0.0847652
0.0878047
0.0907664
0.0937941
0.0969815
0.100381
0.104006
0.107836
0.111817
0.115868
0.119887
0.123765
0.127392
0.130668
0.133513
0.135859
0.137646
0.0295384
0.0556395
0.0674918
0.0744247
0.0791164
0.0826448
0.0855615
0.0881887
0.090732
0.0933289
0.0960703
0.0990098
0.102168
0.105532
0.109059
0.112679
0.1163
0.119816
0.123122
0.126122
0.128738
0.130913
0.13259
0.0317732
0.0589124
0.0705821
0.077046
0.081234
0.0842844
0.0867526
0.0889489
0.0910653
0.0932285
0.0955234
0.0980031
0.100692
0.103586
0.106653
0.109836
0.11305
0.116197
0.119172
0.121877
0.12424
0.126212
0.127747
0.0350449
0.0632546
0.0744835
0.0802789
0.0838439
0.0863517
0.0883392
0.0900909
0.0917769
0.0935081
0.0953597
0.0973812
0.0995994
0.102018
0.104618
0.107353
0.110153
0.112926
0.115569
0.117981
0.120085
0.121842
0.123228
0.0399661
0.0689776
0.0792701
0.0841118
0.0869158
0.0888209
0.0903058
0.0916097
0.0928706
0.0941778
0.095593
0.0971594
0.0989039
0.100837
0.102951
0.105217
0.107581
0.109967
0.112278
0.114409
0.116274
0.117837
0.11911
0.0477436
0.0764685
0.0849337
0.0884572
0.0903714
0.0916388
0.0926223
0.0934928
0.0943468
0.0952468
0.0962379
0.0973538
0.0986188
0.100048
0.101643
0.103394
0.105271
0.107222
0.109172
0.111025
0.112686
0.114121
0.115391
0.0611984
0.0860451
0.0912385
0.0931005
0.0940749
0.0947283
0.09525
0.0957263
0.0962076
0.096728
0.0973141
0.0979873
0.0987659
0.0996643
0.100692
0.101852
0.103139
0.104536
0.106009
0.107507
0.108968
0.110359
0.11183
0.0885416
0.0968689
0.0974062
0.0976587
0.0978473
0.0980077
0.0981554
0.0983034
0.0984624
0.0986415
0.0988493
0.0990934
0.0993814
0.0997207
0.100118
0.100581
0.101116
0.101731
0.102435
0.103247
0.104196
0.105341
0.107149
0.0830843
0.0716111
0.0680036
0.0801158
0.118415
0.108463
0.103264
0.106155
0.156677
0.151861
0.149736
0.151965
0.19133
0.192019
0.195006
0.201299
0.225675
0.230425
0.236922
0.245598
0.263977
0.271928
0.280795
0.291006
0.301936
0.312349
0.323169
0.334436
0.334839
0.346639
0.358126
0.369268
0.358019
0.370356
0.382206
0.393627
0.373934
0.386632
0.398846
0.410682
0.389803
0.402653
0.414776
0.426541
0.410635
0.422919
0.433997
0.444467
0.400181
0.413094
0.42504
0.436232
0.37241
0.386219
0.399689
0.412631
0.349036
0.3611
0.372874
0.384476
0.326241
0.336773
0.347154
0.357419
0.304716
0.313691
0.322556
0.331305
0.284197
0.291609
0.298912
0.306078
0.264711
0.270624
0.276423
0.282058
0.246561
0.251112
0.255514
0.259741
0.230259
0.233615
0.236795
0.239777
0.216224
0.218591
0.220763
0.222726
0.204581
0.206183
0.207583
0.208775
0.195171
0.196222
0.197072
0.197722
0.187637
0.188317
0.1888
0.189093
0.181524
0.181973
0.182228
0.182304
0.176371
0.17669
0.176819
0.176772
0.171769
0.17203
0.172101
0.171998
0.167393
0.167644
0.167702
0.167585
0.163011
0.163279
0.163354
0.163252
0.15848
0.15878
0.158887
0.158815
0.153737
0.154072
0.154216
0.15418
0.148785
0.14915
0.149327
0.149327
0.143681
0.144063
0.144264
0.14429
0.138519
0.138902
0.139109
0.139149
0.133416
0.13378
0.133976
0.134009
0.128502
0.128829
0.128994
0.128998
0.123905
0.124187
0.124305
0.124261
0.119738
0.119982
0.12005
0.119943
0.116071
0.116327
0.116368
0.116203
0.112825
0.11327
0.113397
0.113236
0.109272
0.110609
0.111073
0.111063
0.129169
0.193186
0.213371
0.233947
0.269384
0.312513
0.358127
0.403282
0.446422
0.485801
0.519663
0.546322
0.564613
0.574688
0.575002
0.562301
0.529155
0.455163
0.252779
0.125219
0.164455
0.203728
0.244158
0.286466
0.330167
0.373669
0.41667
0.460626
0.50486
0.547315
0.584363
0.612119
0.628016
0.62985
0.615734
0.579269
0.497973
0.276199
0.1662
0.199018
0.237658
0.277308
0.317391
0.358644
0.399099
0.439177
0.482909
0.531366
0.58244
0.629561
0.66525
0.681678
0.679026
0.658965
0.616761
0.528403
0.292881
0.218992
0.2477
0.280396
0.314767
0.351241
0.388785
0.425411
0.464351
0.509938
0.565256
0.628676
0.688891
0.734229
0.745218
0.727555
0.693632
0.641645
0.545887
0.302395
0.264547
0.291401
0.320496
0.351027
0.383271
0.416473
0.450935
0.490158
0.539832
0.606227
0.691443
0.773576
0.831602
0.827163
0.780356
0.724964
0.659287
0.554456
0.305395
0.310308
0.334401
0.359573
0.386023
0.414003
0.443729
0.476617
0.516678
0.571799
0.654143
0.777924
0.909426
0.949878
0.92248
0.838586
0.758971
0.677582
0.56072
0.303936
0.35312
0.374269
0.396233
0.419366
0.444083
0.47121
0.502945
0.544167
0.605263
0.707129
0.829779
0.923266
0.947627
0.945928
0.885335
0.796943
0.700111
0.569132
0.300442
0.387302
0.407338
0.427628
0.44886
0.471789
0.497673
0.529403
0.572251
0.637952
0.722986
0.791504
0.855873
0.895974
0.911241
0.914208
0.844016
0.724675
0.580088
0.296894
0.412039
0.432357
0.452591
0.473657
0.496508
0.522461
0.555649
0.600284
0.654388
0.70565
0.762682
0.820202
0.864168
0.892672
0.921529
0.8675
0.743185
0.590629
0.294996
0.430012
0.451809
0.473301
0.495267
0.51917
0.54487
0.577078
0.612751
0.648219
0.691436
0.74082
0.792053
0.837705
0.873034
0.90403
0.87064
0.759597
0.599536
0.294771
0.446323
0.470484
0.493503
0.514722
0.537909
0.560664
0.582261
0.605984
0.634828
0.670463
0.713727
0.761721
0.808681
0.846816
0.870877
0.86485
0.775584
0.60403
0.295115
0.461459
0.482482
0.502453
0.523403
0.543776
0.560338
0.574873
0.591009
0.612142
0.641171
0.680262
0.727223
0.776156
0.818346
0.842326
0.84677
0.769435
0.602328
0.295838
0.454754
0.477274
0.499123
0.517836
0.533723
0.546143
0.555913
0.566429
0.581375
0.605401
0.641524
0.688537
0.740645
0.788062
0.816952
0.819581
0.750372
0.598367
0.298385
0.433401
0.457726
0.479032
0.496798
0.510901
0.520764
0.52755
0.534254
0.544756
0.564828
0.5984
0.645397
0.7004
0.752899
0.786105
0.787194
0.733903
0.596153
0.302274
0.403873
0.427619
0.44882
0.466236
0.479046
0.487258
0.492029
0.496094
0.50347
0.520487
0.551766
0.598161
0.654626
0.710095
0.747646
0.749145
0.71651
0.597788
0.303961
0.37446
0.395827
0.415043
0.430663
0.441772
0.448283
0.451266
0.4533
0.458499
0.473316
0.502694
0.548149
0.604935
0.661418
0.702068
0.71055
0.687667
0.587009
0.300064
0.345725
0.363889
0.380026
0.392879
0.40155
0.405937
0.407042
0.407323
0.411202
0.424556
0.452327
0.496775
0.553748
0.611351
0.654081
0.668654
0.651513
0.555146
0.290838
0.317769
0.332403
0.344958
0.354499
0.360248
0.362247
0.361516
0.360374
0.363535
0.375868
0.402249
0.44532
0.502031
0.561569
0.607955
0.626961
0.610108
0.523182
0.278317
0.291072
0.302057
0.310928
0.317038
0.319948
0.319784
0.317543
0.315409
0.317736
0.328767
0.353313
0.394581
0.450645
0.511817
0.562081
0.585378
0.570425
0.493928
0.26483
0.266243
0.273788
0.279366
0.282557
0.283126
0.281274
0.277923
0.275058
0.276254
0.285259
0.306837
0.344853
0.398768
0.460255
0.513904
0.541923
0.530829
0.464945
0.251714
0.24415
0.248825
0.25178
0.252767
0.251685
0.248749
0.244695
0.241382
0.241199
0.247421
0.264618
0.29723
0.346266
0.405487
0.460341
0.493694
0.486721
0.435837
0.240148
0.225436
0.227947
0.22903
0.228566
0.226538
0.223141
0.218928
0.215298
0.213692
0.216757
0.228546
0.253686
0.294684
0.347739
0.400754
0.437295
0.43657
0.407078
0.229535
0.210284
0.211305
0.21119
0.209905
0.207477
0.20405
0.200099
0.196282
0.193498
0.193637
0.199912
0.216586
0.247077
0.290128
0.336701
0.373596
0.37902
0.376867
0.219876
0.19842
0.198496
0.197687
0.196012
0.193518
0.190305
0.1867
0.18287
0.179317
0.177218
0.178808
0.187525
0.206968
0.237858
0.274308
0.305116
0.314551
0.319269
0.202152
0.189279
0.188793
0.187611
0.18578
0.183347
0.18043
0.177101
0.173366
0.16943
0.165899
0.164112
0.166459
0.176098
0.195021
0.2206
0.243809
0.250018
0.229306
0.170145
0.182183
0.181381
0.180007
0.178119
0.175767
0.173053
0.169919
0.16631
0.162248
0.157954
0.154076
0.151997
0.153965
0.162328
0.177134
0.19353
0.200026
0.179372
0.133147
0.176483
0.175512
0.174034
0.172111
0.169814
0.167181
0.164148
0.160633
0.156565
0.151945
0.14697
0.142251
0.139026
0.139069
0.143606
0.151189
0.155537
0.142786
0.102897
0.17163
0.170577
0.16904
0.167075
0.164776
0.162138
0.159116
0.155632
0.15158
0.146855
0.141415
0.135393
0.129262
0.123939
0.120502
0.119123
0.117179
0.106653
0.0790444
0.167197
0.166117
0.164546
0.162541
0.160187
0.157484
0.154404
0.150883
0.146815
0.142061
0.136477
0.129962
0.12255
0.114515
0.106378
0.0985765
0.0904617
0.07849
0.059989
0.162881
0.161808
0.160212
0.158174
0.155746
0.152946
0.149764
0.146155
0.142027
0.137246
0.131639
0.125019
0.117227
0.108188
0.0979741
0.0867682
0.0745548
0.0603342
0.0452532
0.158485
0.157443
0.155846
0.153776
0.151274
0.148369
0.145069
0.141346
0.137129
0.132302
0.1267
0.120123
0.112347
0.10316
0.0923939
0.0799613
0.0658424
0.0499615
0.0349175
0.153902
0.152906
0.151326
0.149235
0.146673
0.143678
0.140268
0.136434
0.132123
0.127243
0.121651
0.115161
0.107551
0.0985682
0.0879575
0.0754837
0.060982
0.0444356
0.0284443
0.149098
0.148146
0.146601
0.144507
0.141909
0.138851
0.135361
0.131442
0.127062
0.122147
0.11658
0.110201
0.102807
0.0941583
0.0839812
0.0719856
0.0578921
0.0414913
0.0247313
0.144103
0.143192
0.141681
0.139597
0.136989
0.133904
0.130377
0.126421
0.122015
0.117106
0.1116
0.105363
0.0982209
0.0899557
0.0803087
0.0689782
0.0556174
0.0398008
0.0226651
0.138983
0.138098
0.13661
0.134544
0.13195
0.128878
0.125364
0.121427
0.117055
0.11221
0.106817
0.100767
0.0939117
0.08606
0.0769743
0.0663562
0.0538148
0.0387452
0.0214734
0.133835
0.132945
0.13146
0.129413
0.126853
0.123831
0.120381
0.116521
0.112247
0.10753
0.102309
0.0964967
0.089966
0.0825509
0.0740326
0.0641177
0.0523803
0.038061
0.0207343
0.128777
0.127842
0.12633
0.124291
0.121779
0.118837
0.115495
0.111768
0.107652
0.103122
0.0981295
0.0926003
0.086427
0.079462
0.0715018
0.0622547
0.0512614
0.0376293
0.0202456
0.123959
0.122919
0.121342
0.119296
0.116834
0.113994
0.110794
0.107242
0.10333
0.0990348
0.0943136
0.0891017
0.0833051
0.0767898
0.0693631
0.0607321
0.0504067
0.0373762
0.0199107
0.119529
0.118334
0.116656
0.114584
0.11217
0.109438
0.106398
0.103044
0.0993622
0.0953279
0.0909003
0.08602
0.0806006
0.0745168
0.0675823
0.0595023
0.04976
0.0372451
0.0196774
0.115671
0.114294
0.112494
0.110382
0.108005
0.105375
0.102487
0.0993267
0.0958729
0.0920967
0.0879571
0.0833961
0.0783307
0.0726394
0.066138
0.0585289
0.0492751
0.037187
0.0195096
0.112624
0.111075
0.109166
0.107018
0.104668
0.102116
0.0993475
0.0963419
0.0930734
0.0895102
0.0856105
0.0813165
0.0765453
0.0711758
0.0650231
0.0577854
0.0489108
0.0371516
0.0193726
0.110563
0.109033
0.107118
0.104976
0.102651
0.100143
0.0974369
0.0945106
0.0913378
0.087887
0.0841168
0.0799701
0.0753648
0.0701804
0.0642312
0.0572134
0.0485674
0.0370166
0.0192008
)
;

boundaryField
{
    leftWall
    {
        type            kqRWallFunction;
        value           nonuniform List<scalar> 
50
(
0.00318357
0.00665785
0.00893086
0.0104483
0.0115391
0.0124643
0.0133693
0.0143123
0.0152979
0.0165138
0.0170119
0.0171082
0.0171873
0.0175161
0.0183792
0.0201335
0.0230418
0.0254111
0.0269165
0.0275555
0.0276284
0.027702
0.0278986
0.0281501
0.028366
0.0284993
0.0285356
0.0284777
0.0283358
0.0281225
0.0278517
0.027538
0.0271973
0.0268474
0.0265084
0.0262033
0.0259592
0.0258069
0.0257833
0.0259314
0.0263035
0.0269648
0.0280015
0.0295384
0.0317732
0.0350449
0.0399661
0.0477436
0.0611984
0.0885416
)
;
    }
    rightWall
    {
        type            kqRWallFunction;
        value           nonuniform List<scalar> 
50
(
0.0306276
0.0782776
0.112947
0.140776
0.164539
0.185662
0.204978
0.223164
0.252779
0.276199
0.292881
0.302395
0.305395
0.303936
0.300442
0.296894
0.294996
0.294771
0.295115
0.295838
0.298385
0.302274
0.303961
0.300064
0.290838
0.278317
0.26483
0.251714
0.240148
0.229535
0.219876
0.202152
0.170145
0.133147
0.102897
0.0790444
0.059989
0.0452532
0.0349175
0.0284443
0.0247313
0.0226651
0.0214734
0.0207343
0.0202456
0.0199107
0.0196774
0.0195096
0.0193726
0.0192008
)
;
    }
    lowerWall
    {
        type            kqRWallFunction;
        value           nonuniform List<scalar> 
62
(
0.00318357
0.00780211
0.0118524
0.0150401
0.0178202
0.0202863
0.022485
0.0244396
0.026163
0.0276614
0.0289323
0.0299629
0.0307348
0.0312295
0.0314255
0.0312893
0.030813
0.0302306
0.029361
0.027999
0.0257792
0.0216205
0.0131689
0.0131689
0.0263369
0.0355816
0.0431815
0.0495858
0.0552168
0.0606947
0.0681329
0.0830843
0.0716111
0.0680036
0.0801158
0.0569597
0.0896811
0.105495
0.113124
0.11443
0.112176
0.110044
0.109954
0.0569597
0.0811276
0.101154
0.119366
0.135096
0.147394
0.154998
0.158337
0.160237
0.160057
0.15725
0.151192
0.141781
0.129852
0.117937
0.104094
0.0869204
0.0620174
0.0306276
)
;
    }
    atmosphere
    {
        type            inletOutlet;
        inletValue      uniform 0.1;
        value           nonuniform List<scalar> 
46
(
0.1
0.1
0.1
0.1
0.1
0.1
0.1
0.1
0.1
0.1
0.1
0.1
0.1
0.1
0.1
0.1
0.1
0.1
0.1
0.1
0.1
0.1
0.1
0.1
0.110609
0.111073
0.111063
0.110563
0.109033
0.107118
0.104976
0.102651
0.100143
0.0974369
0.0945106
0.0913378
0.087887
0.0841168
0.0799701
0.0753648
0.0701804
0.0642312
0.0572134
0.0485674
0.0370166
0.0192008
)
;
    }
    defaultFaces
    {
        type            empty;
    }
}


// ************************************************************************* //
