/*--------------------------------*- C++ -*----------------------------------*\
  =========                 |
  \\      /  F ield         | OpenFOAM: The Open Source CFD Toolbox
   \\    /   O peration     | Website:  https://openfoam.org
    \\  /    A nd           | Version:  13
     \\/     M anipulation  |
\*---------------------------------------------------------------------------*/
FoamFile
{
    format      ascii;
    class       volScalarField;
    location    "0.35";
    object      nut;
}
// * * * * * * * * * * * * * * * * * * * * * * * * * * * * * * * * * * * * * //

dimensions      [0 2 -1 0 0 0 0];

internalField   nonuniform List<scalar> 
2268
(
3.76086e-05
5.89572e-05
7.27519e-05
8.19715e-05
8.92316e-05
9.52036e-05
0.000100223
0.000104474
0.000108072
0.000111091
0.000113571
0.000115525
0.000116947
0.000117826
0.000118142
0.000117845
0.000116967
0.000115849
0.000114113
0.000111307
0.000106594
9.735e-05
7.55832e-05
0.000114734
0.000388114
0.000556452
0.000681369
0.000777968
0.000854434
0.000915508
0.00096406
0.00100196
0.0010305
0.00105049
0.00106247
0.00106691
0.00106445
0.00105597
0.00104231
0.00102345
0.000980597
0.000912835
0.000817868
0.000695114
0.000532934
0.000227106
0.00013304
0.000562795
0.000908198
0.00118759
0.00141728
0.00160727
0.0017642
0.00189253
0.00199548
0.00207548
0.00213429
0.00217325
0.00219363
0.00219717
0.00218609
0.0021619
0.00212189
0.00203693
0.00188976
0.00166755
0.00137036
0.000982681
0.0002641
0.000144057
0.000649332
0.00112508
0.00153554
0.00188731
0.00218761
0.00244219
0.00265543
0.00283083
0.00297127
0.00307912
0.00315634
0.00320494
0.00322756
0.00322722
0.00320484
0.00315278
0.00303209
0.00280907
0.00246175
0.00199116
0.001368
0.000290954
0.000151514
0.000701799
0.00127201
0.00178607
0.00223973
0.002636
0.00297866
0.00327115
0.00351663
0.00371802
0.00387798
0.00399891
0.00408332
0.00413429
0.00415466
0.00414297
0.0040848
0.00393084
0.00363563
0.00317246
0.0025405
0.00168765
0.000311758
0.000157651
0.000744205
0.00138794
0.00198221
0.00251719
0.00299273
0.00341054
0.00377283
0.00408211
0.00434108
0.00455243
0.0047188
0.00484294
0.00492774
0.00497453
0.00497779
0.00491538
0.0047292
0.00436754
0.00380177
0.00302417
0.00195496
0.000328958
0.000163498
0.000789487
0.00149501
0.00215065
0.00274843
0.00328702
0.00376661
0.00418821
0.00455354
0.00486487
0.00512477
0.00533598
0.00550118
0.00562233
0.00569786
0.00571683
0.00564967
0.00543326
0.00501427
0.0043628
0.00345981
0.0021942
0.000344895
0.000169375
0.000847241
0.00160426
0.00230592
0.00295093
0.00353822
0.00406716
0.00453782
0.00495113
0.00530886
0.00561345
0.00586763
0.00607373
0.00623191
0.0063362
0.00636983
0.00629677
0.00605452
0.00559103
0.00487575
0.00387637
0.00245128
0.00036559
0.000153916
0.000184378
0.000206695
0.000225373
0.000240538
0.00025246
0.000259804
0.000263171
0.000265358
0.000265692
0.000263875
0.000259237
0.000251432
0.000240919
0.000229556
0.000215293
0.000196015
0.000164125
0.000115844
0.000455387
0.000823676
0.00121578
0.00148573
0.00172278
0.0019525
0.00214058
0.00227926
0.00235712
0.00239469
0.00239168
0.00234833
0.00226704
0.00214199
0.0019369
0.00168213
0.00138478
0.00103293
0.000432298
0.000493432
0.00132028
0.00192407
0.00236942
0.0028322
0.00333499
0.00378132
0.0041384
0.00440319
0.0045744
0.00464774
0.00462087
0.00449494
0.00426232
0.00387931
0.00336437
0.00272689
0.00193598
0.000520819
0.000510006
0.00160783
0.0022904
0.0028266
0.0034674
0.00422521
0.00491847
0.00551486
0.00599186
0.0063281
0.00651223
0.00653966
0.00640984
0.00611396
0.00560754
0.00488975
0.00395812
0.00272615
0.000581739
0.000512305
0.00171521
0.00239456
0.00298633
0.0037777
0.00474176
0.00568585
0.00653448
0.00723044
0.00773759
0.00804109
0.00813695
0.00802467
0.00769534
0.00710365
0.00623106
0.00505114
0.00339791
0.000629046
0.000508117
0.00166838
0.00228922
0.00289624
0.00385386
0.00499296
0.00620533
0.00731266
0.00822314
0.00889341
0.00931108
0.00947583
0.00938918
0.00904348
0.00839218
0.00739977
0.0060076
0.00396337
0.000668261
0.000503483
0.00158165
0.00209813
0.00274043
0.00384472
0.00512038
0.00659732
0.00794852
0.00905177
0.00986495
0.0103822
0.0106083
0.0105473
0.0101944
0.00950064
0.00841315
0.00683687
0.00443786
0.000702153
0.000502903
0.00150178
0.00194652
0.00266786
0.00384609
0.00532154
0.00698946
0.00852658
0.00977868
0.0107031
0.0112988
0.0115739
0.0115337
0.011178
0.0104536
0.0092886
0.00755089
0.00483528
0.000732559
0.000175169
0.000940856
0.00175526
0.00250872
0.00320701
0.00385058
0.00443884
0.00497114
0.00544762
0.0058697
0.00624
0.00656164
0.00683639
0.00706061
0.00721891
0.0072803
0.00719726
0.00692144
0.00641367
0.00564104
0.0045594
0.00307033
0.000992319
0.000181786
0.00107063
0.0019461
0.00274632
0.00348863
0.00417857
0.00481747
0.00540521
0.00594217
0.0064302
0.00687263
0.00727285
0.00763064
0.00793532
0.00815781
0.00824905
0.00816038
0.00786177
0.00733946
0.00657672
0.0055235
0.00410238
0.00230119
0.000184297
0.00112655
0.00205284
0.00289814
0.00368332
0.00441618
0.00509955
0.00573476
0.00632347
0.00686859
0.00737412
0.00784317
0.00827304
0.00864714
0.00892809
0.00906011
0.00899571
0.00871458
0.00821395
0.00749541
0.00655359
0.00537798
0.0039994
0.000184764
0.00111052
0.00207174
0.00296321
0.00379592
0.00457548
0.0053048
0.00598635
0.0066234
0.00722037
0.0077821
0.00831129
0.00880298
0.0092369
0.00957316
0.00975846
0.00974329
0.00951809
0.00908596
0.00846232
0.00766593
0.00674473
0.00581093
0.000185297
0.00106139
0.00203654
0.00296839
0.00384936
0.0046782
0.00545581
0.00618478
0.00686943
0.00751525
0.00812743
0.0087079
0.00925013
0.00973288
0.0101188
0.0103614
0.0104179
0.0102799
0.00995796
0.00947973
0.00888339
0.00823352
0.00764847
0.000187435
0.000997691
0.0019799
0.00295048
0.00387995
0.00475867
0.00558477
0.00636038
0.00709026
0.00778026
0.00843523
0.00905597
0.00963521
0.0101532
0.010579
0.0108777
0.0110196
0.0109895
0.01081
0.0105138
0.0101465
0.0097731
0.00948858
0.000192748
0.00092858
0.00192997
0.0029464
0.00392656
0.00485441
0.0057264
0.00654447
0.00731347
0.00803914
0.00872561
0.00937261
0.00997298
0.0105102
0.0109621
0.0113074
0.0115311
0.0116281
0.0116134
0.0115183
0.0113819
0.0112573
0.0112108
0.00020271
0.000867076
0.00191742
0.00299321
0.00402709
0.0050015
0.00591361
0.00676604
0.00756373
0.00831211
0.00901507
0.0096721
0.0102773
0.0108185
0.0112839
0.0116687
0.0119711
0.012195
0.0123521
0.0124543
0.0125254
0.0126047
0.0127368
0.000217119
0.000842483
0.00197456
0.00312162
0.00420951
0.00522532
0.00616906
0.00704486
0.00785772
0.00861291
0.0093156
0.00996701
0.0105636
0.0110997
0.0115705
0.0119954
0.0123806
0.0127106
0.0130108
0.013279
0.0135126
0.0137418
0.0139986
0.000227119
0.00105328
0.00215393
0.00330269
0.00442622
0.00547531
0.00644471
0.00733698
0.0081565
0.00890821
0.00959729
0.0102282
0.0108034
0.0113274
0.0118151
0.012296
0.0127768
0.0131612
0.013562
0.0139597
0.0143025
0.0146161
0.0149356
0.000232814
0.00128601
0.00241113
0.00357991
0.00472405
0.00579252
0.00677329
0.00766645
0.00847559
0.00920613
0.00986521
0.0104623
0.0110079
0.011512
0.0119954
0.0124801
0.0129657
0.0134674
0.0140136
0.0145383
0.0149078
0.015222
0.0155694
0.000234743
0.00140104
0.00265894
0.00389236
0.00506597
0.00614881
0.00713188
0.00801574
0.00880488
0.00950649
0.010131
0.0106925
0.0112081
0.0116917
0.0121492
0.0126001
0.0130666
0.0135954
0.014168
0.0146756
0.0151184
0.015551
0.015985
0.000235007
0.00148002
0.00287822
0.00418742
0.00539307
0.00648589
0.0074644
0.0083322
0.00909635
0.00976716
0.0103585
0.0108876
0.0113735
0.0118323
0.012274
0.0127065
0.0131539
0.0136269
0.0141091
0.0145802
0.0150594
0.0155642
0.0160185
0.000235588
0.00154736
0.0030649
0.00444406
0.00568005
0.00678017
0.00775076
0.0085997
0.00933761
0.0099784
0.0105392
0.0110393
0.0114982
0.0119322
0.0123521
0.0127673
0.0131904
0.0136241
0.0140531
0.0144802
0.0149183
0.0153632
0.0157676
0.00023666
0.00160971
0.00321437
0.00465288
0.0059157
0.00702189
0.00798391
0.00881435
0.00952753
0.0101407
0.0106739
0.0111477
0.0115817
0.0119917
0.0123889
0.0127812
0.013175
0.0135703
0.0139605
0.0143489
0.0147407
0.0151203
0.0154608
0.000237851
0.00166625
0.00333396
0.0048144
0.00609943
0.00721129
0.00816524
0.00897916
0.00967059
0.0102597
0.0107684
0.0112187
0.0116298
0.012017
0.012391
0.0127583
0.0131225
0.0134829
0.013836
0.0141817
0.014518
0.014831
0.0151015
0.000238807
0.00171246
0.00342985
0.00494259
0.00624269
0.00735502
0.00830109
0.00910138
0.00977458
0.0103433
0.0108314
0.011261
0.0116516
0.0120179
0.0123696
0.0127125
0.0130485
0.0133766
0.0136938
0.0139967
0.0142798
0.0145309
0.0147365
0.000239376
0.00174941
0.00350461
0.00504159
0.00635289
0.00746555
0.00840401
0.00919063
0.00984799
0.0104003
0.0108714
0.0112837
0.0116567
0.0120045
0.0123361
0.0126566
0.0129671
0.0132663
0.0135503
0.0138141
0.0140502
0.014248
0.0143957
0.000239529
0.0017786
0.00356184
0.00511618
0.00643528
0.00754792
0.0084803
0.00925649
0.00990091
0.010439
0.0108959
0.0112943
0.0116529
0.0119853
0.0122999
0.0126012
0.0128901
0.0131644
0.0134199
0.0136504
0.0138476
0.0140011
0.0140995
0.000239289
0.00180124
0.00360435
0.00517021
0.00649418
0.00760645
0.00853442
0.00930321
0.0099383
0.010466
0.0109119
0.0112991
0.011646
0.011966
0.0122672
0.0125532
0.0128247
0.013079
0.0133116
0.0135156
0.0136822
0.013801
0.0138612
0.000238701
0.0018181
0.00363408
0.00520641
0.00653268
0.00764425
0.00856925
0.00933339
0.00996263
0.0104836
0.0109223
0.0113017
0.0116403
0.0119511
0.012242
0.0125165
0.0127748
0.0130142
0.0132297
0.0134144
0.0135596
0.0136547
0.0136889
0.000237816
0.00182974
0.00365235
0.00522672
0.00655293
0.00766333
0.00858645
0.00934818
0.00997455
0.0104922
0.010927
0.011302
0.0116354
0.0119402
0.0122242
0.0124908
0.0127399
0.0129688
0.0131728
0.0133451
0.0134769
0.0135582
0.0135778
0.00023669
0.00183661
0.00366021
0.00523261
0.00655653
0.00766506
0.0085869
0.00934781
0.00997359
0.0104906
0.0109244
0.0112977
0.0116287
0.0119303
0.0122101
0.0124716
0.0127147
0.012937
0.0131338
0.0132988
0.0134239
0.0134991
0.0135137
0.000235378
0.00183918
0.00365868
0.00522549
0.00654493
0.00765062
0.00857119
0.00933214
0.00995881
0.010477
0.0109118
0.0112856
0.0116163
0.0119166
0.0121944
0.0124529
0.0126924
0.0129107
0.0131034
0.0132648
0.0133874
0.0134621
0.0134784
0.000233948
0.001838
0.00364891
0.00520691
0.00651976
0.00762133
0.00854007
0.00930111
0.00992927
0.0104497
0.0108868
0.0112625
0.0115942
0.0118948
0.0121718
0.0124288
0.0126663
0.0128821
0.0130726
0.0132325
0.0133551
0.0134322
0.0134542
0.000232473
0.00183372
0.00363225
0.00517872
0.00648303
0.00757897
0.00849474
0.00925515
0.0098845
0.0104073
0.0108471
0.0112253
0.0115589
0.0118605
0.0121377
0.0123942
0.0126305
0.012845
0.0130342
0.0131937
0.0133175
0.0133983
0.0134274
0.000231041
0.00182707
0.00361026
0.00514315
0.00643724
0.00752592
0.0084371
0.00919538
0.00982474
0.0103491
0.0107913
0.011172
0.0115077
0.0118106
0.0120884
0.0123448
0.0125806
0.0127942
0.0129829
0.0131424
0.0132677
0.0133524
0.0133889
0.000229756
0.00181888
0.00358473
0.00510279
0.00638544
0.00746526
0.00836981
0.00912376
0.00975106
0.0102752
0.0107187
0.0111011
0.0114385
0.0117428
0.0120213
0.0122778
0.0125133
0.0127265
0.0129148
0.0130746
0.0132014
0.0132898
0.0133332
0.000228737
0.00180998
0.00355758
0.0050606
0.00633125
0.00740075
0.00829635
0.00904313
0.00966544
0.0101869
0.0106294
0.0110121
0.0113503
0.0116553
0.0119343
0.012191
0.0124264
0.0126393
0.0128275
0.0129878
0.0131161
0.0132078
0.0132572
0.000228127
0.00180123
0.00353089
0.00501989
0.0062788
0.00733683
0.00822099
0.00895719
0.00957079
0.0100859
0.0105245
0.0109051
0.0112425
0.0115474
0.0118264
0.012083
0.0123182
0.0125311
0.0127194
0.0128803
0.0130101
0.0131048
0.0131594
0.000228086
0.00179351
0.003507
0.00498443
0.00623283
0.00727862
0.0081487
0.00887041
0.0094708
0.00997522
0.0104059
0.0107813
0.0111156
0.0114186
0.0116966
0.0119528
0.0121878
0.0124007
0.0125894
0.0127511
0.0128826
0.0129801
0.0130394
0.000228804
0.00178778
0.00348866
0.00495864
0.00619874
0.00723184
0.00808503
0.00878783
0.00936984
0.00985826
0.0102763
0.0106424
0.0109703
0.0112692
0.0115448
0.0117996
0.0120341
0.0122471
0.0124365
0.0125994
0.0127329
0.0128334
0.0128971
0.000230496
0.00178532
0.00347937
0.00494793
0.0061829
0.00720293
0.008036
0.00871489
0.00927266
0.00973913
0.0101389
0.0104908
0.0108083
0.0111
0.011371
0.0116231
0.0118564
0.0120694
0.0122597
0.0124244
0.0125604
0.0126645
0.0127328
0.00023342
0.00178787
0.00348393
0.00495922
0.00619286
0.00719904
0.00800792
0.00865705
0.0091841
0.00962213
0.00999753
0.0103298
0.0106321
0.0109127
0.0111759
0.0114233
0.0116541
0.0118665
0.0120578
0.0122249
0.0123644
0.012473
0.0125468
0.000237893
0.00179802
0.00350905
0.00500168
0.0062379
0.00722811
0.00800715
0.00861948
0.00910861
0.00951136
0.00985605
0.0101627
0.0104446
0.0107095
0.0109612
0.0112006
0.0114268
0.0116374
0.0118294
0.0119993
0.0121435
0.0122581
0.0123393
0.000244351
0.0018196
0.0035644
0.00508765
0.00632937
0.00729878
0.00803966
0.00860644
0.00904973
0.00941029
0.00971805
0.00999348
0.0102495
0.0104936
0.0107291
0.0109566
0.0111748
0.0113814
0.0115728
0.0117455
0.0118954
0.0120184
0.0121097
0.000253441
0.00185849
0.0036644
0.00523434
0.00648132
0.00742
0.00811037
0.00862066
0.00900954
0.00932119
0.00958641
0.00982537
0.0100504
0.0102685
0.0104826
0.0106933
0.0108991
0.0110978
0.0112861
0.0114605
0.0116169
0.0117509
0.0118567
0.000266199
0.00192451
0.00383212
0.00546643
0.00671077
0.00760007
0.00822193
0.00866244
0.00898806
0.00924487
0.00946296
0.0096612
0.00985084
0.010038
0.0102254
0.0104135
0.0106012
0.0107866
0.0109672
0.0111402
0.0113025
0.0114501
0.0115768
0.00028434
0.00203654
0.00410824
0.0058208
0.00703724
0.00784433
0.00837283
0.00872858
0.00898289
0.00918043
0.00934839
0.00950299
0.00965366
0.00980551
0.00996084
0.0101202
0.0102828
0.0104477
0.0106135
0.010779
0.0109436
0.0111062
0.0112626
0.000310901
0.00223791
0.0045737
0.0063537
0.00747921
0.00815043
0.00855475
0.00881155
0.00898913
0.00912564
0.00924255
0.00935212
0.00946134
0.00957404
0.00969203
0.00981591
0.00994553
0.0100806
0.0102211
0.0103685
0.0105262
0.0107008
0.0108977
0.000352218
0.0026576
0.00541357
0.00714599
0.00804126
0.0085
0.00874984
0.00889938
0.00900012
0.00907756
0.00914501
0.00920982
0.00927617
0.00934641
0.00942183
0.00950298
0.00959011
0.00968354
0.00978445
0.00989626
0.0100275
0.0101971
0.0104401
0.000424116
0.00393505
0.00711339
0.00827033
0.00867878
0.00884776
0.00893036
0.00897759
0.00900917
0.00903385
0.00905596
0.00907785
0.00910089
0.00912592
0.00915346
0.00918382
0.00921728
0.00925426
0.00929579
0.00934474
0.0094095
0.00951627
0.00975133
0.000406045
0.000375741
0.000359578
0.000382548
0.00150646
0.00123525
0.00110031
0.00108941
0.00330922
0.00294475
0.00272516
0.00263627
0.00535402
0.00509441
0.00495744
0.00495633
0.00741614
0.00730847
0.00729541
0.00738124
0.0094326
0.00943514
0.00950296
0.00964077
0.0112847
0.0113624
0.0114835
0.0116452
0.0129032
0.0130297
0.0131737
0.0133316
0.0142149
0.014358
0.0145044
0.0146531
0.0151722
0.0153209
0.0154646
0.0156027
0.015817
0.0159659
0.0161026
0.0162287
0.0162458
0.0163885
0.0165108
0.0166173
0.0162761
0.0164163
0.016534
0.0166315
0.0160099
0.0161451
0.0162612
0.016357
0.0156593
0.0157661
0.0158553
0.0159276
0.0152521
0.0153308
0.0153941
0.0154418
0.0148401
0.0148909
0.0149271
0.0149483
0.0144546
0.0144785
0.0144876
0.0144817
0.0141179
0.0141168
0.0140996
0.0140664
0.0138474
0.0138247
0.0137845
0.0137263
0.0136529
0.0136143
0.0135569
0.01348
0.0135299
0.0134823
0.013415
0.0133268
0.0134633
0.0134131
0.0133427
0.0132507
0.013432
0.0133843
0.0133163
0.0132266
0.0134159
0.0133737
0.0133119
0.0132289
0.0133989
0.0133638
0.0133101
0.0132362
0.0133702
0.0133424
0.0132974
0.0132336
0.0133233
0.0133025
0.0132657
0.0132118
0.013255
0.0132403
0.0132109
0.0131658
0.0131638
0.0131542
0.0131312
0.0130937
0.0130493
0.0130441
0.0130264
0.0129953
0.0129119
0.0129105
0.0128973
0.0128717
0.0127523
0.0127544
0.0127453
0.0127244
0.0125715
0.0125772
0.0125721
0.0125556
0.0123704
0.0123803
0.0123796
0.0123678
0.0121495
0.0121651
0.01217
0.0121636
0.0119092
0.0119328
0.0119453
0.0119462
0.0116484
0.0116842
0.0117082
0.0117195
0.0113647
0.0114197
0.0114616
0.0114887
0.0110517
0.0111398
0.0112108
0.0112622
0.0106924
0.010847
0.010969
0.0110574
0.0101743
0.0105525
0.0107722
0.0109099
0.000739955
0.00138503
0.00193679
0.00281297
0.00415434
0.0058351
0.00766171
0.00935505
0.0107473
0.0117895
0.0124807
0.0128298
0.0128393
0.0124967
0.0117364
0.010469
0.00850744
0.00535071
0.000779275
0.0011311
0.00172887
0.00269774
0.00402662
0.00562617
0.00734881
0.00907305
0.0106561
0.011994
0.0130289
0.0137381
0.0141121
0.0141349
0.0137608
0.0129217
0.0115137
0.00930674
0.00574592
0.000814404
0.00271802
0.00349593
0.00466562
0.00607371
0.00759857
0.00915782
0.0106614
0.0120233
0.0131965
0.0141279
0.0147796
0.0151228
0.0151143
0.0146702
0.0137364
0.0121994
0.009801
0.0059679
0.000838551
0.00520854
0.00596668
0.00702939
0.00826564
0.00959012
0.0109177
0.0121664
0.0133045
0.0142959
0.0150967
0.0156661
0.0159615
0.0158958
0.0153441
0.0142707
0.0125907
0.0100344
0.00603479
0.000851932
0.00769581
0.00839165
0.00929963
0.0103291
0.0114127
0.0124867
0.0135014
0.0144325
0.0152561
0.0159375
0.0164523
0.016735
0.0166311
0.0159157
0.0146267
0.0127751
0.0100809
0.005991
0.000855746
0.00997535
0.0105859
0.0113315
0.0121549
0.0130072
0.0138461
0.0146437
0.0153878
0.0160697
0.0166748
0.0172215
0.0176146
0.0173863
0.0164609
0.0149038
0.0128615
0.0100451
0.00590559
0.000852866
0.0119665
0.0124797
0.0130747
0.0137114
0.0143556
0.0149835
0.0155866
0.0161709
0.0167547
0.0173893
0.0178755
0.0180079
0.017573
0.0166557
0.0150895
0.0129296
0.0100102
0.00583775
0.000846731
0.0136192
0.014042
0.0145023
0.0149743
0.0154378
0.0158853
0.016326
0.0167822
0.0173032
0.0177946
0.0179709
0.0178306
0.0173682
0.0164811
0.0151448
0.0130315
0.0100033
0.00580796
0.000840235
0.0149069
0.0152507
0.0155961
0.0159308
0.0162466
0.0165485
0.0168644
0.017216
0.0175707
0.0177891
0.0178443
0.0176543
0.0171616
0.0162997
0.0150472
0.012994
0.00996942
0.00578118
0.000836519
0.0158284
0.0161128
0.0163684
0.016596
0.0167989
0.0169792
0.0171743
0.0173635
0.0175073
0.0176014
0.017579
0.0173572
0.016868
0.0160377
0.0148102
0.0128587
0.00993615
0.00575511
0.000835282
0.0164306
0.0166829
0.0168722
0.0170058
0.017108
0.0171634
0.0171842
0.0172021
0.0172215
0.0172158
0.0171381
0.0169093
0.0164489
0.0156644
0.0144567
0.0126841
0.00992416
0.00573848
0.000835163
0.0167746
0.0169545
0.0170623
0.0171243
0.017126
0.017054
0.0169397
0.0168242
0.0167284
0.0166412
0.0165289
0.016314
0.0159036
0.0151941
0.0140574
0.0123954
0.00975162
0.00570484
0.000834428
0.0167742
0.0169162
0.0169847
0.0169647
0.0168666
0.0166952
0.0164747
0.0162494
0.0160519
0.0158999
0.0157663
0.0155792
0.0152404
0.0146326
0.0136104
0.012025
0.00949237
0.00564679
0.000835185
0.0164931
0.0166098
0.0166289
0.0165511
0.0163837
0.0161329
0.0158263
0.0155097
0.0152258
0.0150135
0.01486
0.0147044
0.0144483
0.0139633
0.0130812
0.0116186
0.00928186
0.00561692
0.000840673
0.0160323
0.0161064
0.0160835
0.0159584
0.0157309
0.0154122
0.015031
0.0146338
0.0142705
0.0139957
0.013816
0.0136866
0.0135124
0.0131541
0.0124341
0.0111427
0.00908543
0.00566625
0.000848876
0.0155057
0.0155207
0.0154402
0.0152559
0.014966
0.0145799
0.014125
0.0136471
0.0132022
0.0128572
0.0126412
0.0125304
0.0124333
0.0121975
0.0116391
0.010551
0.00871979
0.00554802
0.000849751
0.0149679
0.0149125
0.0147607
0.0145049
0.0141429
0.0136818
0.0131444
0.0125732
0.0120369
0.0116111
0.0113504
0.0112532
0.0112329
0.0111228
0.0107208
0.00982117
0.00818597
0.00522523
0.000841278
0.0144551
0.0143235
0.014092
0.0137525
0.0133078
0.0127611
0.0121313
0.0114568
0.0108138
0.0102922
0.0099737
0.00988318
0.00994174
0.00996784
0.00973171
0.00901362
0.00755483
0.00486109
0.000824551
0.0139932
0.0137857
0.0134749
0.0130553
0.0125245
0.0118844
0.0111499
0.0103582
0.00959588
0.00896906
0.00858291
0.00848469
0.00860569
0.00875808
0.00869363
0.00816454
0.00690157
0.00450077
0.00080384
0.0136137
0.0133418
0.0129596
0.0124623
0.0118457
0.0111095
0.0102662
0.00935641
0.00847453
0.00773891
0.00727237
0.00714074
0.00728931
0.00753321
0.00761593
0.00726984
0.00622406
0.0041231
0.000781024
0.0133373
0.0130153
0.0125744
0.0120097
0.0113164
0.0104935
0.0095531
0.00854229
0.00755347
0.00670913
0.0061425
0.00593535
0.00605351
0.00633069
0.00651121
0.00632434
0.00547999
0.00371585
0.000759255
0.0131651
0.0128105
0.012329
0.0117154
0.0109654
0.0100792
0.0090711
0.0079884
0.00691315
0.00596309
0.00527418
0.00494213
0.00495991
0.00519228
0.00540515
0.00532817
0.00466622
0.003279
0.000739483
0.0130813
0.0127132
0.0122127
0.0115747
0.0107961
0.00987954
0.00883999
0.00771813
0.00658149
0.00553481
0.00470968
0.00421369
0.00406855
0.00417876
0.00434335
0.00431776
0.00379344
0.00279418
0.000720086
0.0130597
0.012696
0.0121985
0.011562
0.0107845
0.00987057
0.00883294
0.00770384
0.00653411
0.00540996
0.00445138
0.00377435
0.00342997
0.00336339
0.00341271
0.00335523
0.00294244
0.00217899
0.000725584
0.0130721
0.0127272
0.0122514
0.0116391
0.0108888
0.010003
0.00899494
0.00788657
0.00671386
0.00554197
0.00447191
0.00362022
0.00306626
0.00279992
0.00270684
0.00259245
0.00222727
0.00150485
0.000691023
0.0130941
0.0127777
0.0123367
0.0117645
0.011059
0.0102209
0.00926204
0.00819697
0.00704993
0.00586631
0.00472309
0.0037249
0.00296966
0.00249406
0.00224047
0.00206916
0.00179087
0.00124038
0.000609595
0.0131083
0.0128249
0.0124254
0.0119021
0.0112505
0.0104722
0.00957504
0.00856913
0.00747093
0.00631035
0.00514052
0.00404349
0.00311689
0.00243285
0.00199195
0.00171307
0.00146035
0.00107614
0.000534286
0.0131032
0.012853
0.0124961
0.0120241
0.0114303
0.0107162
0.00988635
0.00894824
0.00791372
0.00680263
0.00564936
0.00451073
0.00346676
0.00260139
0.00196196
0.00152661
0.00120905
0.000886278
0.000470168
0.0130726
0.0128532
0.0125362
0.0121125
0.0115756
0.0109247
0.0101623
0.009294
0.00832927
0.00728238
0.00617583
0.00504623
0.00394978
0.00295937
0.00214365
0.00153208
0.00109339
0.000745894
0.000413752
0.0130139
0.0128213
0.0125395
0.0121591
0.0116743
0.011082
0.0103829
0.00958131
0.00868532
0.00770641
0.00666078
0.00557238
0.0044777
0.00342907
0.00249
0.00171597
0.00112641
0.000689746
0.000360697
0.0129269
0.0127566
0.0125044
0.0121617
0.0117222
0.0111818
0.0105396
0.00979864
0.00896579
0.00805108
0.00706767
0.00603292
0.00497099
0.00391635
0.00291564
0.00202289
0.00128397
0.000714688
0.000313882
0.0128127
0.0126609
0.0124331
0.012122
0.0117211
0.0112254
0.0106328
0.00994507
0.00916782
0.00830985
0.00738266
0.00640037
0.00538059
0.00434638
0.0033288
0.00236798
0.00150968
0.000794587
0.00027798
0.0126736
0.012537
0.0123294
0.0120445
0.0116759
0.0112181
0.0106682
0.0100267
0.00929755
0.00848829
0.00760905
0.00667203
0.00569139
0.00468382
0.00366991
0.00267601
0.00173569
0.000891974
0.000254392
0.0125121
0.0123884
0.0121976
0.0119345
0.011593
0.0111676
0.0106547
0.0100533
0.00936606
0.00859876
0.00776003
0.00686055
0.00591233
0.00492841
0.00392318
0.00291326
0.00191993
0.000978845
0.000240458
0.0123315
0.0122193
0.012043
0.0117982
0.0114797
0.0110823
0.0106018
0.010036
0.00938605
0.00865586
0.0078524
0.00698474
0.00606323
0.00509869
0.00410186
0.00308348
0.00205612
0.00104746
0.000232409
0.0121354
0.0120346
0.011871
0.0116421
0.0113436
0.0109708
0.0105192
0.00998573
0.00936982
0.00867367
0.00790233
0.00706321
0.00616513
0.00521733
0.00422846
0.00320588
0.00215674
0.00110172
0.000227533
0.0119282
0.0118398
0.0116885
0.0114736
0.0111927
0.0108418
0.0104164
0.00991265
0.00932853
0.00866442
0.00792349
0.00711134
0.00623531
0.00530336
0.0043228
0.00329904
0.00223566
0.00114726
0.000224377
0.0117159
0.0116425
0.0115038
0.0113019
0.0110365
0.0107051
0.0103033
0.00982685
0.00927236
0.00863856
0.00792674
0.00714068
0.00628615
0.0053699
0.0043982
0.0033752
0.00230192
0.00118741
0.000222238
0.0115064
0.0114526
0.0113277
0.0111381
0.0108865
0.010572
0.0101911
0.0097389
0.00921127
0.00860542
0.00792088
0.00715962
0.00632579
0.00542484
0.00446204
0.00344054
0.00235943
0.00122313
0.000220752
0.0113116
0.0112831
0.0111737
0.0109959
0.0107563
0.0104559
0.0100922
0.00966032
0.00915553
0.00857387
0.00791336
0.00717431
0.00635926
0.00547223
0.00451739
0.00349688
0.0024084
0.00125325
0.000219686
0.0111499
0.0111505
0.0110571
0.0108901
0.0106602
0.0103705
0.0100194
0.00960269
0.00911506
0.00855186
0.00791001
0.00718849
0.00638843
0.0055125
0.00456359
0.00354266
0.00244619
0.00127444
0.000218824
0.0110478
0.0110735
0.0109925
0.0108333
0.0106096
0.0103264
0.00998258
0.00957431
0.00909631
0.00854357
0.00791241
0.00720108
0.00640983
0.0055404
0.0045947
0.00357256
0.00246923
0.00128494
0.000217773
)
;

boundaryField
{
    leftWall
    {
        type            nutkWallFunction;
        Cmu             0.09;
        kappa           0.41;
        E               9.8;
        value           nonuniform List<scalar> 
50
(
4.11255e-06
1.13867e-05
1.30151e-05
1.39789e-05
1.46255e-05
1.51483e-05
1.5794e-05
1.81197e-05
2.01249e-05
2.08482e-05
2.11361e-05
2.11912e-05
2.12363e-05
2.14227e-05
2.1908e-05
2.3133e-05
2.21484e-05
2.368e-05
2.46114e-05
2.49978e-05
2.50415e-05
2.50857e-05
2.52032e-05
2.53528e-05
2.54807e-05
2.55593e-05
2.55807e-05
2.55466e-05
2.54628e-05
2.53364e-05
2.51752e-05
2.49873e-05
2.47818e-05
2.45693e-05
2.43619e-05
2.4174e-05
2.40226e-05
2.39279e-05
2.39131e-05
2.40054e-05
2.42358e-05
2.46408e-05
2.52645e-05
2.61654e-05
2.74294e-05
2.91921e-05
3.1676e-05
3.52713e-05
4.07802e-05
5.01626e-05
)
;
    }
    rightWall
    {
        type            nutkWallFunction;
        Cmu             0.09;
        kappa           0.41;
        E               9.8;
        value           nonuniform List<scalar> 
50
(
1.38435e-05
4.68295e-05
5.5339e-05
6.11571e-05
6.5648e-05
6.93562e-05
7.25503e-05
7.54107e-05
7.98086e-05
8.30911e-05
8.53375e-05
8.65876e-05
8.69773e-05
8.6788e-05
8.63328e-05
8.58674e-05
8.56173e-05
8.55876e-05
8.5633e-05
8.57284e-05
8.60634e-05
8.65731e-05
8.67954e-05
8.63099e-05
8.51334e-05
8.34365e-05
8.15389e-05
7.96686e-05
7.79821e-05
7.63951e-05
7.52062e-05
8.62429e-05
7.9045e-05
6.97054e-05
6.09149e-05
5.28916e-05
4.54334e-05
3.86856e-05
3.31695e-05
2.92269e-05
2.67317e-05
2.52503e-05
2.43608e-05
2.37951e-05
2.34146e-05
2.31509e-05
2.29657e-05
2.28317e-05
2.27218e-05
2.25834e-05
)
;
    }
    lowerWall
    {
        type            nutkWallFunction;
        Cmu             0.09;
        kappa           0.41;
        E               9.8;
        value           nonuniform List<scalar> 
62
(
4.11255e-06
6.18788e-06
7.48472e-06
8.34131e-06
9.01037e-06
9.55759e-06
1.00156e-05
1.04027e-05
1.07303e-05
1.10057e-05
1.12329e-05
1.14132e-05
1.15461e-05
1.16303e-05
1.16635e-05
1.16404e-05
1.15595e-05
1.14595e-05
1.13083e-05
1.10666e-05
1.06584e-05
9.83859e-06
7.85227e-06
7.85227e-06
2.13031e-05
2.44374e-05
2.66952e-05
2.84358e-05
2.98684e-05
3.11882e-05
3.28807e-05
3.61766e-05
3.38107e-05
3.31839e-05
3.84146e-05
1.84793e-05
4.98037e-05
5.3626e-05
5.5358e-05
5.56489e-05
5.51475e-05
5.4668e-05
5.46477e-05
1.84793e-05
2.17598e-05
2.40859e-05
2.59892e-05
2.75079e-05
2.86286e-05
2.92959e-05
2.95833e-05
2.97454e-05
2.973e-05
2.94902e-05
2.89642e-05
2.81241e-05
2.70135e-05
2.58464e-05
2.44053e-05
2.24633e-05
1.92273e-05
1.38435e-05
)
;
    }
    atmosphere
    {
        type            calculated;
        value           nonuniform List<scalar> 
46
(
0.009
0.009
0.009
0.009
0.009
0.009
0.009
0.009
0.009
0.009
0.009
0.009
0.009
0.009
0.009
0.009
0.009
0.009
0.009
0.009
0.009
0.009
0.009
0.009
0.0105525
0.0107722
0.0109099
0.0110478
0.0110735
0.0109925
0.0108333
0.0106096
0.0103264
0.00998258
0.00957431
0.00909631
0.00854357
0.00791241
0.00720108
0.00640983
0.0055404
0.0045947
0.00357256
0.00246923
0.00128494
0.000217773
)
;
    }
    defaultFaces
    {
        type            empty;
    }
}


// ************************************************************************* //
