/*--------------------------------*- C++ -*----------------------------------*\
  =========                 |
  \\      /  F ield         | OpenFOAM: The Open Source CFD Toolbox
   \\    /   O peration     | Website:  https://openfoam.org
    \\  /    A nd           | Version:  13
     \\/     M anipulation  |
\*---------------------------------------------------------------------------*/
FoamFile
{
    format      ascii;
    class       volScalarField;
    location    "0.35";
    object      p;
}
// * * * * * * * * * * * * * * * * * * * * * * * * * * * * * * * * * * * * * //

dimensions      [1 -1 -2 0 0 0 0];

internalField   nonuniform List<scalar> 
2268
(
6275.08
6320.16
6391.98
6462.51
6514.18
6544.88
6555.73
6548.72
6526.62
6493.54
6455.14
6418.73
6393.52
6391.1
6425.92
6515.43
6680.08
6948.98
7353.57
7916.21
8613.08
9309.88
9912.71
5472.64
5503.23
5554.06
5608.3
5648.28
5670.9
5676.45
5666.29
5642.9
5610.28
5574.09
5541.81
5522.88
5529.15
5575.41
5679.71
5864.37
6156.98
6589.28
7183.27
7911.73
8622.66
9222.15
4668.02
4697.49
4728.37
4762.49
4786.13
4796.43
4793.06
4776.83
4749.93
4716.2
4681.39
4653.17
4641.2
4657.6
4717.57
4839.37
5044.07
5358.38
5811.83
6421.95
7157.33
7860.27
8484.81
3857.74
3895.11
3911.09
3927.52
3935.05
3932.28
3918.79
3895.02
3862.93
3826.33
3791.11
3765.21
3758.63
3783.84
3856.54
3994.77
4216.31
4544.24
5002.58
5608.08
6332.99
7027.1
7704.25
3038.2
3084.95
3089.93
3092.69
3086.2
3071.51
3048.46
3017.25
2979.62
2939.45
2902.9
2878.23
2875.68
2908.11
2991.99
3145.37
3381.42
3717.08
4165.64
4746.86
5453.32
6146.76
6877.06
2208.01
2264.16
2262.82
2257.07
2240.44
2217.53
2188.52
2153.39
2113.65
2073.09
2037.64
2014.89
2013.69
2045.43
2126.39
2277.01
2512.09
2852.37
3295.95
3847.22
4535.82
5237.6
5992.51
1446.29
1500.98
1500.83
1496.99
1482.2
1463.89
1442.64
1418.66
1393.5
1370.37
1353.41
1346.92
1355.01
1382.96
1440.59
1539.35
1697.02
1949.79
2327.85
2892.19
3582.28
4302.56
5033.17
1033.42
1063.61
1063.64
1065.59
1062.8
1059.21
1055.78
1053.09
1052.1
1054.15
1060.53
1072.46
1091.19
1118.39
1157.13
1207.62
1280.36
1387.28
1561.31
1929.67
2592.08
3306.95
3914.78
990.549
877.635
839.694
834.151
854.995
892.482
927.055
950.608
965.424
970.278
965.174
956.432
950.941
955.773
976.952
1016.3
1069.83
1113.63
1140.16
964.876
844.806
805.509
792.246
806.152
839.236
870.751
893.469
909.774
916.864
915.594
911.937
912.378
923.65
950.823
994.991
1052.01
1095.49
1117.79
925.313
807.395
773.564
755.965
759.829
788.969
818.388
839.121
854.549
862.855
865.085
866.529
872.961
890.286
922.886
970.544
1028.48
1071.76
1100.58
882.231
770.705
750.128
737.485
725.819
745.438
774.684
792.691
805.432
813.454
817.743
822.655
833.233
854.625
890.561
939.898
997.454
1041.97
1083.97
849.954
744.693
741.5
739.758
724.398
717.418
739.26
752.626
761.559
768.314
773.404
780.188
793.024
816.492
853.821
903.511
960.547
1007.72
1064.78
834.157
738.329
740.458
740.201
736.93
719.118
714.115
716.43
720.601
725.531
730.592
738.138
751.862
775.955
813.32
862.504
919.103
969.803
1040.8
835.505
740
740.025
740.236
743.68
738.497
696.179
681.585
680.816
683.773
688.303
695.837
709.432
733.054
769.462
817.511
873.602
928.267
1010.95
844.499
742.918
739.944
738.864
748.014
733.051
669.685
644.744
640.503
641.783
645.555
652.579
665.306
687.608
722.393
768.997
824.598
884.021
974.739
896.341
907.299
910.903
916.116
921.592
927.261
933.804
941.754
951.466
962.995
976.18
990.854
1007.12
1025.61
1047.66
1075.8
1114.48
1165.68
1215.91
1269.48
1440.62
1722.69
1489.11
761.91
770.866
778.48
785.747
792.714
799.438
806.071
812.846
820.032
827.965
837.076
847.963
861.443
878.489
900.012
926.317
955.322
983.558
1005.25
1003.55
935.127
902.03
945.514
623.892
630.321
636.664
642.972
649.154
655.312
661.561
668.072
675.072
682.847
691.753
702.269
715.035
730.709
749.643
771.3
793.242
811.204
819.604
811.827
775.869
647.442
555.841
484.51
490.442
496.111
502.01
507.891
513.84
519.939
526.296
533.074
540.477
548.746
558.197
569.327
582.581
597.956
614.455
629.683
640.001
640.298
624.658
587.819
514.759
394.68
342.568
349.063
354.301
360.047
365.821
371.665
377.634
383.779
390.193
397.019
404.378
412.445
421.77
432.882
445.723
458.777
469.349
474.114
470.32
454.051
419.832
362.263
285.825
197.296
205.333
209.723
215.025
220.42
225.886
231.483
237.223
243.163
249.402
255.868
262.432
269.999
279.74
292.034
304.465
312.855
314.167
308.261
295.84
272.365
234.331
185.483
66.0585
73.7432
76.5096
80.4634
84.4962
88.6113
92.8769
97.2741
101.845
106.786
111.626
115.377
120.069
128.305
141.577
155.442
164.011
165.949
162.34
158.152
149.205
132.305
110.242
8.90204
11.0516
12.2781
13.9578
15.6133
17.2646
18.902
20.4889
22.0442
23.7914
25.425
25.8277
26.3647
28.7801
35.1173
42.6528
46.7423
55.1639
63.1606
69.5201
72.7538
70.3686
63.4518
4.33936
4.45338
4.28479
4.25217
4.23614
4.22732
4.22638
4.22831
4.23267
4.2408
4.2435
4.23898
4.17488
4.09809
4.21357
5.21976
4.18808
5.04811
9.25711
13.5322
16.6754
17.6037
15.5154
4.21448
4.2323
4.2226
4.23193
4.24224
4.24904
4.2524
4.25228
4.2486
4.24154
4.23119
4.21947
4.20667
4.19514
4.13971
3.79372
3.28979
2.33329
-0.338525
-5.55066
-11.1878
-16.9501
-22.3138
4.05929
4.07072
4.0644
4.06282
4.06382
4.0656
4.06673
4.06616
4.06316
4.05722
4.04786
4.03517
4.02416
4.01737
4.02511
4.00966
3.94753
3.71044
3.10751
2.58275
1.36821
-1.68208
-4.23888
3.91727
3.92072
3.91586
3.91126
3.908
3.90616
3.90473
3.90259
3.89884
3.89277
3.88378
3.87102
3.85486
3.84003
3.81727
3.80213
3.78867
3.8118
3.7498
3.61385
3.31762
2.82571
2.50761
3.77845
3.77805
3.77494
3.77098
3.76723
3.76419
3.76134
3.75787
3.75299
3.74605
3.73645
3.72344
3.70631
3.68565
3.66059
3.62431
3.59208
3.56284
3.51611
3.46092
3.46912
3.51606
3.52089
3.64173
3.6398
3.63747
3.6343
3.63078
3.62728
3.62354
3.61901
3.61308
3.60522
3.59497
3.5818
3.56508
3.54436
3.51775
3.48281
3.44352
3.40153
3.34382
3.29351
3.26321
3.25007
3.20171
3.50695
3.50416
3.50175
3.49869
3.49516
3.49126
3.48681
3.48142
3.47463
3.46603
3.45526
3.44194
3.42562
3.40561
3.38071
3.3495
3.31357
3.27268
3.22414
3.17588
3.1358
3.09598
3.0535
3.37382
3.3705
3.36764
3.36435
3.36057
3.35624
3.35118
3.34507
3.33758
3.32836
3.31715
3.30365
3.28747
3.26806
3.24459
3.21649
3.18447
3.14872
3.10848
3.06722
3.02773
2.98924
2.9528
3.24199
3.2383
3.23494
3.23126
3.22713
3.22236
3.21675
3.21006
3.20201
3.19234
3.18079
3.16715
3.15109
3.13219
3.10996
3.08416
3.05514
3.02319
2.98844
2.95266
2.91731
2.8821
2.84777
3.11113
3.10717
3.10334
3.09926
3.09475
3.08956
3.0835
3.07637
3.06791
3.05792
3.0462
3.03254
3.01669
2.99836
2.97727
2.95331
2.92669
2.89766
2.8666
2.8345
2.80211
2.76959
2.73757
2.98101
2.97682
2.97259
2.96813
2.96328
2.95775
2.95135
2.9439
2.9352
2.92507
2.91333
2.89981
2.88431
2.86665
2.84668
2.82433
2.79975
2.77318
2.74497
2.71573
2.68596
2.65606
2.62672
2.85142
2.84707
2.84251
2.83774
2.83262
2.82684
2.82022
2.8126
2.80381
2.7937
2.78211
2.7689
2.75392
2.73706
2.71821
2.69738
2.67468
2.6503
2.62456
2.5979
2.5707
2.54345
2.51694
2.72225
2.71778
2.71299
2.70799
2.70267
2.69674
2.69003
2.68239
2.67367
2.66374
2.65247
2.63974
2.62544
2.60949
2.59184
2.57252
2.55162
2.52932
2.5059
2.48169
2.45704
2.43243
2.40881
2.5934
2.58888
2.58393
2.57878
2.57336
2.56739
2.56071
2.55318
2.54467
2.53507
2.52428
2.51218
2.4987
2.48379
2.46742
2.44964
2.43053
2.41026
2.38907
2.36726
2.3451
2.32308
2.30231
2.46479
2.46028
2.45525
2.45004
2.44462
2.43871
2.43217
2.42487
2.4167
2.40757
2.39738
2.38604
2.3735
2.35973
2.34471
2.32849
2.31118
2.29291
2.2739
2.25442
2.23468
2.21517
2.19713
2.33638
2.33193
2.3269
2.32172
2.31638
2.31063
2.30432
2.29736
2.28964
2.28108
2.27159
2.26112
2.24961
2.23704
2.22342
2.2088
2.19326
2.17695
2.16006
2.14282
2.12541
2.10829
2.09278
2.20812
2.20377
2.19882
2.19374
2.18856
2.18304
2.17706
2.17052
2.16333
2.15543
2.14674
2.1372
2.12677
2.11545
2.10325
2.09022
2.07643
2.06202
2.04716
2.03205
2.01685
2.00197
1.98876
2.07996
2.07576
2.07095
2.06605
2.0611
2.05588
2.05029
2.04424
2.03765
2.03047
2.02261
2.01405
2.00475
1.99469
1.9839
1.97242
1.96034
1.94775
1.93482
1.92172
1.90857
1.89577
1.88462
1.95187
1.94786
1.94325
1.93858
1.93391
1.92905
1.92391
1.9184
1.91245
1.90602
1.89905
1.89148
1.8833
1.8745
1.86509
1.85512
1.84465
1.8338
1.82268
1.81144
1.8002
1.78931
1.78
1.82383
1.82003
1.81567
1.81128
1.80693
1.80248
1.79781
1.79288
1.78761
1.78195
1.77586
1.76929
1.76222
1.75464
1.74656
1.73803
1.7291
1.71986
1.71043
1.70092
1.69143
1.68228
1.67459
1.6958
1.69225
1.68817
1.68409
1.6801
1.67607
1.67192
1.66758
1.663
1.65813
1.65291
1.64731
1.64131
1.63491
1.6281
1.62093
1.61344
1.6057
1.59782
1.5899
1.582
1.57442
1.56817
1.56778
1.56448
1.5607
1.55696
1.55335
1.54977
1.54614
1.54241
1.53852
1.53442
1.53006
1.5254
1.52043
1.51514
1.50953
1.50362
1.49747
1.49112
1.48466
1.47818
1.47173
1.46555
1.46056
1.43974
1.4367
1.43325
1.42984
1.42663
1.42351
1.42041
1.41729
1.41408
1.41073
1.40719
1.40344
1.39944
1.3952
1.3907
1.38597
1.38105
1.37597
1.3708
1.36562
1.36047
1.35555
1.35166
1.31169
1.30888
1.30576
1.30271
1.2999
1.29723
1.29467
1.29214
1.28959
1.28696
1.28422
1.28131
1.27823
1.27496
1.2715
1.26786
1.26406
1.26013
1.25614
1.25214
1.24816
1.24436
1.24143
1.18361
1.18101
1.17823
1.17552
1.1731
1.1709
1.16886
1.16691
1.16499
1.16305
1.16105
1.15894
1.15671
1.15434
1.15183
1.14919
1.14642
1.14355
1.14062
1.13768
1.13474
1.13193
1.12984
1.05551
1.05305
1.05061
1.04825
1.04622
1.04447
1.04293
1.04153
1.04022
1.03892
1.03761
1.03624
1.0348
1.03327
1.03163
1.0299
1.02807
1.02616
1.02419
1.0222
1.0202
1.01828
1.01692
0.92739
0.924987
0.922898
0.920861
0.919217
0.917904
0.916847
0.91597
0.915207
0.914507
0.913828
0.913142
0.912425
0.911661
0.910836
0.90994
0.908972
0.907934
0.906844
0.905721
0.904566
0.903449
0.90273
0.799314
0.796767
0.795047
0.793326
0.792059
0.79117
0.790566
0.790167
0.78991
0.789749
0.789649
0.789583
0.789531
0.789471
0.789387
0.789262
0.789085
0.788852
0.788567
0.788241
0.787873
0.787507
0.787401
0.671418
0.668307
0.667009
0.665604
0.664714
0.664232
0.664045
0.664075
0.664268
0.664588
0.665007
0.665503
0.666054
0.666639
0.667235
0.66782
0.668374
0.668886
0.669353
0.66978
0.67017
0.670561
0.671089
0.543787
0.539492
0.53874
0.537657
0.537142
0.537046
0.537233
0.537637
0.538222
0.538964
0.539845
0.540844
0.541942
0.543112
0.544328
0.545564
0.546794
0.548
0.549178
0.550335
0.55149
0.552706
0.554034
0.416028
0.410212
0.410257
0.409493
0.409326
0.409572
0.410078
0.410797
0.411716
0.412825
0.414112
0.415558
0.417143
0.418837
0.42061
0.422431
0.424273
0.426116
0.427958
0.429814
0.431742
0.433943
0.436488
0.287506
0.279611
0.281245
0.281097
0.281264
0.281778
0.282536
0.283512
0.284711
0.286134
0.287771
0.289604
0.291607
0.29375
0.295998
0.298316
0.300673
0.303053
0.305457
0.307911
0.310592
0.314254
0.319457
0.161288
0.1428
0.149719
0.151933
0.152725
0.153511
0.154501
0.155708
0.157156
0.158853
0.16079
0.162949
0.165298
0.167804
0.170426
0.173123
0.175861
0.178623
0.181425
0.184338
0.187883
0.194527
0.207375
0.0511962
-0.00764425
0.0141135
0.0206364
0.022653
0.0240178
0.0253818
0.0269015
0.0286545
0.0306667
0.0329337
0.0354346
0.0381374
0.0410019
0.0439823
0.0470315
0.0501105
0.0532128
0.0564156
0.0599848
0.0648983
0.0754232
0.101816
-161.704
203.912
637.651
746.171
755.939
608.684
448.065
347.814
460.644
322.349
207.447
146.142
280.949
208.812
196.296
199.519
203.735
148.128
96.2791
61.5735
134.296
99.1494
71.9041
53.7778
87.4327
73.671
60.9012
45.9087
52.1164
43.5962
38.5178
31.4659
6.42642
-0.992478
-6.49307
-12.2375
-32.7387
-36.3005
-34.3946
-30.4852
-5.15173
-4.94863
-3.30924
-1.63294
2.41396
2.42917
2.51908
2.71451
3.56152
3.5558
3.52412
3.48036
3.12103
3.08936
3.0808
3.08983
3.02955
3.01917
3.00906
2.998
2.93241
2.9205
2.90836
2.89605
2.82656
2.8144
2.80229
2.79027
2.71714
2.70546
2.69388
2.68247
2.60763
2.59666
2.58592
2.5753
2.49954
2.48953
2.47981
2.47009
2.39339
2.38452
2.37597
2.3672
2.28894
2.28129
2.27392
2.26616
2.18576
2.17928
2.17306
2.16631
2.08327
2.07788
2.07271
2.06694
1.98091
1.97651
1.97229
1.96744
1.87824
1.87471
1.87134
1.86734
1.7749
1.77213
1.7695
1.76627
1.6706
1.66849
1.66651
1.66397
1.56513
1.56359
1.56216
1.56023
1.45833
1.45727
1.45631
1.4549
1.35011
1.34946
1.3489
1.34792
1.24046
1.24014
1.23989
1.23926
1.12934
1.12929
1.12927
1.12891
1.01679
1.01694
1.01711
1.01695
0.902904
0.9032
0.903482
0.90345
0.787805
0.788192
0.788532
0.788555
0.67167
0.672095
0.672414
0.67242
0.554784
0.555191
0.555433
0.555321
0.437502
0.437829
0.437828
0.437429
0.320567
0.320356
0.319793
0.318951
0.207958
0.204148
0.201827
0.200917
0.110837
0.105054
0.0974444
0.0907877
834.646
743.581
738.199
708.514
693.149
661.274
605.134
581.278
575.794
575.532
577.724
582.899
592.952
612.282
644.022
688.883
745.354
815.142
913.289
517.9
490.094
442.042
280.285
427.156
491.916
477.836
476.316
479.58
481.743
483.363
485.388
488.467
500.888
525.282
566.779
625.253
702.625
810.829
115.889
41.0805
63.3928
196.446
316.216
328.414
351.011
371.898
383.253
388.31
389.85
386.437
377.996
376.214
391.28
428.642
488.143
567.245
677.243
139.916
95.1791
87.9932
91.7284
133.627
205.497
253.005
279.225
292.507
295.914
286.204
256.789
211.872
206.026
231.406
278.297
344.761
423.731
527.263
33.2631
20.1995
41.5166
78.7376
113.602
147.16
179.647
199.21
204.616
183.637
131.222
81.2622
44.4792
47.1273
71.5562
128.009
208.076
288.149
379.95
43.7475
37.748
37.3081
50.5125
72.0643
96.2044
116.975
124.698
105.647
54.9324
16.1186
9.11638
9.20032
8.46771
7.54684
22.3864
96.7283
175.384
252.22
31.8821
25.8272
19.5375
24.5052
37.4637
52.8095
62.4515
52.7848
28.3546
6.92146
6.2092
5.68773
5.87118
6.0995
5.56534
-0.760288
26.8227
94.1884
154.493
15.6035
2.72413
-2.79223
1.48036
11.3409
21.1421
22.2216
11.3099
5.27622
4.99566
5.05454
5.40586
5.64736
5.80399
5.70002
4.18739
-6.68119
41.3096
87.3616
-17.9725
-20.5853
-17.2285
-5.82774
6.09079
8.72996
4.18327
4.53251
4.35879
4.60747
4.87065
5.14549
5.33669
5.4515
5.59705
5.16117
-5.31749
10.2756
43.9727
-20.0022
-9.1167
-0.502428
4.44372
3.07704
3.73651
3.86848
3.89927
4.09998
4.35081
4.54677
4.72955
4.87511
4.99486
5.19594
4.89557
0.152123
-6.31509
18.1625
-0.0567033
1.78713
2.40828
3.40207
3.56551
3.56495
3.65139
3.73832
3.88947
4.04794
4.18421
4.31392
4.42241
4.47888
4.56007
4.42989
2.94004
-9.81833
4.37981
3.1159
3.28758
3.28321
3.36163
3.38802
3.38856
3.46086
3.54375
3.64191
3.74442
3.84289
3.94092
4.02563
4.06842
4.1005
4.20838
3.80757
-5.25568
0.63402
3.38929
3.2515
3.17518
3.17952
3.19974
3.22823
3.27691
3.33186
3.39312
3.45983
3.52875
3.60041
3.67034
3.72423
3.76456
3.91185
4.27972
2.82217
1.84439
3.11716
3.05974
3.03998
3.03723
3.05335
3.07338
3.09869
3.12795
3.16151
3.19862
3.23959
3.28508
3.33503
3.37654
3.40383
3.41558
3.25277
7.13579
-0.184272
2.97878
2.94916
2.92367
2.91723
2.91953
2.92392
2.93063
2.9396
2.95047
2.96305
2.97898
2.99869
3.02214
3.03809
2.98253
2.88945
2.57611
1.38886
5.10097
2.87301
2.8427
2.81835
2.8022
2.79176
2.78347
2.77629
2.76931
2.76243
2.75612
2.75205
2.75022
2.75044
2.7462
2.68881
2.53757
2.47166
2.2736
5.09489
2.76816
2.73808
2.71154
2.68939
2.67095
2.65415
2.63748
2.61927
2.59937
2.57918
2.56002
2.54243
2.52681
2.51067
2.47583
2.39094
2.38864
2.61811
6.86885
2.66168
2.63235
2.60547
2.58116
2.55884
2.53728
2.51498
2.48985
2.46155
2.4319
2.40197
2.3733
2.3469
2.32116
2.29499
2.26741
2.2587
2.50321
8.75434
2.55615
2.5286
2.50268
2.47857
2.45548
2.4323
2.40753
2.37902
2.34671
2.3122
2.27653
2.24174
2.20959
2.17837
2.15229
2.13837
2.09102
2.27298
11.2602
2.45275
2.42785
2.404
2.3813
2.35916
2.33645
2.31161
2.28301
2.25063
2.21576
2.1799
2.14615
2.11686
2.09178
2.06404
2.04168
1.9829
1.85151
13.698
2.35168
2.32972
2.30849
2.28806
2.26798
2.24721
2.22413
2.19786
2.16858
2.13732
2.10655
2.08102
2.06633
2.0594
2.05014
2.03362
1.97211
1.0328
23.9317
2.25246
2.2335
2.2151
2.19735
2.17991
2.16187
2.14199
2.11985
2.09587
2.07122
2.04947
2.03766
2.04349
2.07107
2.09718
2.07233
2.04752
1.07853
29.4489
2.15438
2.13829
2.1227
2.10773
2.09315
2.07822
2.06241
2.04551
2.0281
2.01184
2.00109
2.00334
2.03144
2.09288
2.15219
2.14434
2.0593
1.91597
16.7376
2.05671
2.04325
2.03028
2.01798
2.00625
1.99471
1.98318
1.9718
1.96132
1.9539
1.9541
1.96976
2.01161
2.09269
2.18812
2.16358
2.06631
1.69634
4.54188
1.95879
1.94767
1.93708
1.92722
1.91819
1.91
1.90256
1.89627
1.89216
1.89258
1.90187
1.9266
1.97506
2.05375
2.15413
2.18981
2.06734
2.15929
3.80612
1.86013
1.85106
1.84253
1.83486
1.82834
1.82308
1.81918
1.81716
1.81817
1.82439
1.83935
1.86747
1.91256
1.97461
2.04147
2.07486
2.00107
1.81793
2.57745
1.76036
1.75304
1.74629
1.7405
1.73616
1.7333
1.73219
1.7334
1.73801
1.74781
1.76524
1.79263
1.83034
1.87397
1.91058
1.91646
1.86406
1.75239
1.62952
1.65919
1.65336
1.64811
1.64394
1.64131
1.64028
1.64117
1.64457
1.65136
1.66287
1.68059
1.70541
1.73616
1.76818
1.79276
1.80196
1.8078
1.84507
1.85579
1.55644
1.55185
1.54784
1.545
1.54362
1.54386
1.54605
1.5507
1.55852
1.5704
1.58716
1.60891
1.63423
1.65958
1.68004
1.69352
1.7092
1.73902
1.73548
1.45196
1.44839
1.44543
1.44358
1.44306
1.44408
1.44696
1.45213
1.46013
1.47152
1.48669
1.50543
1.52648
1.54742
1.56517
1.5779
1.58735
1.59375
1.57828
1.3457
1.34296
1.34082
1.33965
1.33965
1.34106
1.34416
1.34932
1.35691
1.36731
1.38065
1.3966
1.41416
1.43163
1.4468
1.45752
1.4626
1.46106
1.44641
1.2376
1.23552
1.23399
1.23325
1.23352
1.23501
1.23799
1.24275
1.24959
1.25873
1.27019
1.28362
1.2982
1.3127
1.32543
1.3343
1.33748
1.33445
1.32321
1.12769
1.12614
1.12502
1.1245
1.1248
1.12615
1.12878
1.13292
1.13881
1.14659
1.15622
1.16737
1.17938
1.19129
1.20175
1.20896
1.21122
1.2083
1.19947
1.01605
1.01487
1.01398
1.0135
1.0137
1.01475
1.01688
1.02028
1.02514
1.03155
1.03946
1.04857
1.05834
1.06799
1.07644
1.08224
1.08393
1.08134
1.07432
0.902782
0.901808
0.90098
0.900429
0.900395
0.901061
0.902611
0.905228
0.909055
0.914163
0.92049
0.927789
0.935611
0.943314
0.95003
0.954603
0.955866
0.953622
0.947856
0.788
0.787089
0.78619
0.785456
0.785116
0.785339
0.786291
0.788129
0.790972
0.794875
0.799782
0.805487
0.811621
0.81766
0.822903
0.826456
0.82734
0.825325
0.820505
0.671874
0.670886
0.669783
0.668776
0.668078
0.667838
0.668202
0.669303
0.671241
0.674057
0.677705
0.682019
0.686704
0.691333
0.695354
0.698046
0.698619
0.696806
0.692682
0.554557
0.553306
0.551905
0.550568
0.54949
0.548798
0.548614
0.549045
0.55017
0.552022
0.554567
0.557677
0.561121
0.564567
0.567574
0.569587
0.569926
0.568292
0.564757
0.436182
0.434492
0.432706
0.43101
0.429561
0.428457
0.427785
0.427626
0.428038
0.429048
0.430632
0.4327
0.435082
0.437533
0.439719
0.441199
0.441411
0.440014
0.436978
0.31736
0.315078
0.312708
0.310525
0.308638
0.307092
0.305933
0.305207
0.304952
0.305188
0.305904
0.307047
0.308511
0.310131
0.311675
0.312822
0.313089
0.312062
0.309591
0.200059
0.196626
0.19309
0.189983
0.187319
0.185061
0.183195
0.181725
0.180666
0.180032
0.179832
0.180053
0.180657
0.181569
0.182668
0.183755
0.184462
0.184287
0.182772
0.081145
0.0749523
0.0709035
0.0676411
0.0648989
0.0625498
0.0605161
0.0587628
0.0572843
0.0560915
0.0552037
0.0546422
0.0544241
0.0545556
0.0550229
0.0557749
0.0566403
0.0572444
0.0568643
)
;

boundaryField
{
    leftWall
    {
        type            calculated;
        value           nonuniform List<scalar> 
50
(
6275.08
5472.64
4668.02
3857.74
3038.2
2208.01
1446.29
1033.42
896.341
761.91
623.892
484.51
342.568
197.296
66.0585
8.90204
4.33936
4.21448
4.05929
3.91727
3.77845
3.64173
3.50695
3.37382
3.24199
3.11113
2.98101
2.85142
2.72225
2.5934
2.46479
2.33638
2.20812
2.07996
1.95187
1.82383
1.6958
1.56778
1.43974
1.31169
1.18361
1.05551
0.92739
0.799314
0.671418
0.543787
0.416028
0.287506
0.161288
0.0511962
)
;
    }
    rightWall
    {
        type            calculated;
        value           nonuniform List<scalar> 
50
(
1140.16
1117.79
1100.58
1083.97
1064.78
1040.8
1010.95
974.739
913.289
810.829
677.243
527.263
379.95
252.22
154.493
87.3616
43.9727
18.1625
4.37981
0.63402
1.84439
-0.184272
5.10097
5.09489
6.86885
8.75434
11.2602
13.698
23.9317
29.4489
16.7376
4.54188
3.80612
2.57745
1.62952
1.85579
1.73548
1.57828
1.44641
1.32321
1.19947
1.07432
0.947856
0.820505
0.692682
0.564757
0.436978
0.309591
0.182772
0.0568643
)
;
    }
    lowerWall
    {
        type            calculated;
        value           nonuniform List<scalar> 
62
(
6673.23
6718.31
6790.13
6860.66
6912.33
6943.03
6953.88
6946.87
6924.77
6891.69
6853.29
6816.88
6791.67
6789.25
6824.07
6913.58
7078.23
7347.13
7751.72
8314.36
9011.23
9708.03
10310.5
9912.71
9222.15
8484.81
7704.25
6877.06
5992.51
5033.17
3914.78
683.878
1038.68
937.173
764.061
990.549
964.876
925.313
882.231
849.954
834.157
835.505
844.499
1005.26
892.35
854.408
848.865
869.71
907.196
941.767
965.32
980.137
984.993
979.889
971.146
965.588
970.358
991.537
1031.01
1084.26
1126.48
1153.84
)
;
    }
    atmosphere
    {
        type            calculated;
        value           nonuniform List<scalar> 
46
(
-0.0209536
-0.0484073
-0.0453526
-0.0438571
-0.0425899
-0.0413072
-0.0398694
-0.0382005
-0.0362643
-0.0340525
-0.0315758
-0.0288591
-0.0259381
-0.0228579
-0.0196719
-0.0164411
-0.0132349
-0.010132
-0.00722511
-0.00462983
-0.00249718
-0.00101435
-0.000326272
-1.53952e-05
0
0
0
0
0
0
0
0
0
0
0
0
0
0
0
0
0
0
0
0
0
0
)
;
    }
    defaultFaces
    {
        type            empty;
    }
}


// ************************************************************************* //
