/*--------------------------------*- C++ -*----------------------------------*\
  =========                 |
  \\      /  F ield         | OpenFOAM: The Open Source CFD Toolbox
   \\    /   O peration     | Website:  https://openfoam.org
    \\  /    A nd           | Version:  13
     \\/     M anipulation  |
\*---------------------------------------------------------------------------*/
FoamFile
{
    format      ascii;
    class       volScalarField;
    location    "0.35";
    object      p_rgh;
}
// * * * * * * * * * * * * * * * * * * * * * * * * * * * * * * * * * * * * * //

dimensions      [1 -1 -2 0 0 0 0];

internalField   nonuniform List<scalar> 
2268
(
6673.23
6718.31
6790.13
6860.66
6912.33
6943.03
6953.88
6946.87
6924.77
6891.69
6853.29
6816.88
6791.67
6789.25
6824.07
6913.58
7078.23
7347.13
7751.72
8314.36
9011.23
9708.03
10310.5
6667.09
6697.68
6748.5
6802.75
6842.73
6865.35
6870.9
6860.74
6837.35
6804.73
6768.54
6736.26
6717.33
6723.59
6769.86
6874.16
7058.82
7351.43
7783.73
8377.72
9106.18
9817.11
10415.6
6658.77
6688.24
6719.12
6753.24
6776.88
6787.18
6783.81
6767.58
6740.67
6706.95
6672.14
6643.92
6631.95
6648.35
6708.32
6830.12
7034.82
7349.13
7802.58
8412.7
9148.08
9851.02
10474.8
6644.79
6682.16
6698.14
6714.56
6722.09
6719.33
6705.84
6682.07
6649.98
6613.37
6578.16
6552.26
6545.68
6570.89
6643.59
6781.82
7003.36
7331.29
7789.63
8395.13
9120.04
9814.15
10491.3
6621.54
6668.3
6673.28
6676.04
6669.55
6654.86
6631.81
6600.6
6562.96
6522.8
6486.25
6461.58
6459.03
6491.46
6575.34
6728.72
6964.77
7300.42
7748.99
8330.21
9036.66
9730.11
10460.4
6587.66
6643.81
6642.47
6636.72
6620.09
6597.18
6568.17
6533.04
6493.3
6452.74
6417.29
6394.54
6393.33
6425.08
6504.39
6655.88
6891.74
7232.02
7675.6
8226.87
8915.47
9617.25
10371.1
5815.15
6024.34
6132.3
6152.66
6129.86
6089.15
6023.3
5921.45
5776.43
5587.72
5363.34
5117.56
4867.45
4651.03
4530.69
4666.32
5177.95
6187.71
7468.69
8067.1
8757.85
9478.43
10206.1
2180.33
2502.28
2722.3
2807.8
2799.16
2763.62
2686.95
2561.82
2392.76
2200.85
2011.5
1845.85
1716.91
1633.32
1634.6
1657.12
1812.38
2296.17
3761.93
7334.67
8564.24
9279.11
9884.03
1005.26
892.35
854.408
848.865
869.71
907.196
941.767
965.32
980.137
984.993
979.889
971.146
965.588
970.358
991.537
1031.01
1084.26
1126.48
1153.84
1009.01
888.946
849.653
836.39
850.296
883.38
914.895
937.614
953.918
961.008
959.739
956.081
956.522
967.791
994.945
1039.13
1096.15
1134.09
1156.14
998.818
880.879
845.032
829.538
833.402
862.542
891.961
912.695
928.123
936.428
938.659
940.102
946.535
963.859
996.459
1044.12
1102.06
1139.61
1164.48
985.131
868.794
800.843
807.827
828.681
848.441
877.687
895.693
908.435
916.456
920.746
925.657
936.236
957.628
993.563
1042.9
1100.46
1143.33
1182.72
981.36
834.304
742.217
740.83
786.418
845.195
871.692
885.058
893.991
900.747
905.836
912.62
925.456
948.924
986.253
1035.94
1092.98
1140.15
1197.21
994.515
769.878
740.782
740.54
737.256
826.417
875.976
878.302
882.464
887.392
892.454
899.999
913.723
937.816
975.182
1024.37
1080.96
1131.66
1202.66
1024.76
777.021
740.408
740.637
744.08
835.592
887.904
872.937
872.107
875.064
879.593
887.128
900.723
924.345
960.753
1008.8
1064.89
1119.56
1202.24
1062.76
829.684
740.391
747.609
753.234
903.943
892.895
865.464
861.224
862.503
866.275
873.3
886.026
908.328
943.113
989.717
1045.32
1104.74
1195.46
1429.81
1440.77
1444.37
1449.58
1455.06
1460.73
1467.27
1475.22
1484.93
1496.46
1509.65
1524.32
1540.59
1559.08
1581.12
1609.26
1647.95
1699.14
1749.37
2465.39
6309.88
8745.79
8696.33
1420.57
1429.53
1437.14
1444.41
1451.38
1458.1
1464.73
1471.51
1478.69
1486.63
1495.74
1506.62
1520.1
1537.15
1558.67
1584.98
1613.98
1642.22
1663.91
1670.33
1650.36
5735.38
9414.22
1407.75
1414.18
1420.52
1426.83
1433.01
1439.17
1445.42
1451.93
1458.93
1466.7
1475.61
1486.12
1498.89
1514.56
1533.5
1555.16
1577.1
1595.06
1603.46
1596.24
1558.99
1443.03
3913.4
1393.56
1399.49
1405.16
1411.06
1416.94
1422.89
1428.99
1435.35
1442.12
1449.53
1457.8
1467.25
1478.38
1491.63
1507.01
1523.51
1538.73
1549.05
1549.35
1533.71
1496.92
1423
1239.15
1376.81
1383.31
1388.55
1394.29
1400.07
1405.91
1411.88
1418.02
1424.44
1431.26
1438.62
1446.69
1456.02
1467.13
1479.97
1493.02
1503.59
1508.36
1504.57
1488.3
1454.08
1396.51
1319.96
1356.74
1364.77
1369.16
1374.46
1379.86
1385.33
1390.92
1396.66
1402.6
1408.84
1415.31
1421.87
1429.44
1439.18
1451.47
1463.9
1472.29
1473.6
1467.69
1455.28
1431.8
1393.77
1344.92
1127.9
1176.16
1220.15
1258.29
1290.46
1315.97
1336.26
1352.02
1364.95
1376.35
1385.98
1390.18
1397.89
1411.65
1426.21
1440
1445.04
1429.76
1425.78
1416.66
1373.79
1313.49
1271.54
110.739
156.416
205.704
259.825
316.619
373.193
427.485
477.472
522.411
569.252
614.124
621.264
652.407
753.784
1014.26
1253.46
1292.57
1031.38
820.81
838.622
844.215
832.662
812.424
5.87438
5.98841
5.81981
5.78719
5.77116
5.76235
5.7614
5.76333
5.76769
5.77583
5.77852
5.774
5.71243
5.68969
24.4349
166.27
329.536
690.948
775.913
780.998
784.173
785.12
783.032
5.8747
5.89251
5.88282
5.89215
5.90246
5.90925
5.91262
5.9125
5.90882
5.90176
5.8914
5.87969
5.86689
5.95385
6.01509
5.66701
4.97647
70.79
354.4
611.212
711.684
757.522
775.364
5.8447
5.85614
5.84982
5.84823
5.84923
5.85101
5.85214
5.85157
5.84858
5.84263
5.83327
5.82058
5.80957
6.01584
6.09372
5.91643
5.73306
5.50499
5.02167
4.55493
14.3657
102.155
220.065
5.82788
5.83133
5.82647
5.82187
5.81861
5.81677
5.81534
5.8132
5.80944
5.80338
5.79438
5.78163
5.76564
5.77406
5.83606
5.74476
5.69956
5.72242
5.66041
5.52446
5.23303
4.74973
4.43054
5.81425
5.81385
5.81074
5.80678
5.80303
5.79999
5.79714
5.79367
5.78879
5.78185
5.77226
5.75925
5.74511
5.72161
5.6964
5.66011
5.62795
5.59869
5.55193
5.49672
5.50492
5.55186
5.5567
5.80273
5.80079
5.79847
5.79529
5.79178
5.78828
5.78454
5.78001
5.77407
5.76622
5.75597
5.7428
5.72607
5.70536
5.67875
5.6438
5.60451
5.56253
5.50482
5.4545
5.4242
5.41107
5.36271
5.79314
5.79035
5.78794
5.78488
5.78135
5.77745
5.773
5.76761
5.76082
5.75222
5.74145
5.72813
5.71181
5.69181
5.6669
5.63569
5.59976
5.55887
5.51033
5.46207
5.42199
5.38217
5.3397
5.78521
5.78189
5.77902
5.77573
5.77195
5.76763
5.76256
5.75646
5.74896
5.73975
5.72854
5.71504
5.69886
5.67944
5.65597
5.62787
5.59586
5.5601
5.51986
5.4786
5.43912
5.40063
5.3642
5.77857
5.77488
5.77152
5.76784
5.76371
5.75894
5.75333
5.74664
5.73859
5.72892
5.71737
5.70373
5.68767
5.66877
5.64654
5.62073
5.59172
5.55977
5.52502
5.48924
5.45389
5.41868
5.38436
5.77291
5.76894
5.76511
5.76103
5.75652
5.75134
5.74528
5.73814
5.72969
5.7197
5.70797
5.69431
5.67846
5.66013
5.63905
5.61509
5.58846
5.55944
5.52838
5.49627
5.46389
5.43137
5.39935
5.76797
5.76379
5.75956
5.7551
5.75025
5.74472
5.73832
5.73087
5.72217
5.71204
5.7003
5.68678
5.67127
5.65362
5.63365
5.6113
5.58672
5.56015
5.53194
5.5027
5.47293
5.44303
5.41369
5.76359
5.75923
5.75468
5.74991
5.74478
5.739
5.73238
5.72476
5.71598
5.70586
5.69428
5.68106
5.66608
5.64922
5.63038
5.60955
5.58684
5.56246
5.53673
5.51007
5.48287
5.45561
5.4291
5.75961
5.75514
5.75035
5.74534
5.74002
5.7341
5.72739
5.71975
5.71103
5.7011
5.68983
5.67709
5.6628
5.64685
5.6292
5.60988
5.58897
5.56668
5.54325
5.51905
5.4944
5.46979
5.44617
5.75595
5.75143
5.74648
5.74133
5.73591
5.72994
5.72326
5.71573
5.70722
5.69763
5.68683
5.67473
5.66125
5.64634
5.62997
5.61219
5.59308
5.57281
5.55162
5.52981
5.50765
5.48563
5.46487
5.75254
5.74803
5.743
5.73779
5.73236
5.72646
5.71992
5.71262
5.70445
5.69532
5.68512
5.67379
5.66125
5.64747
5.63246
5.61624
5.59893
5.58066
5.56165
5.54216
5.52243
5.50292
5.48488
5.74932
5.74487
5.73984
5.73466
5.72932
5.72357
5.71726
5.7103
5.70258
5.69402
5.68453
5.67406
5.66255
5.64998
5.63636
5.62174
5.6062
5.5899
5.57301
5.55576
5.53835
5.52124
5.50572
5.74625
5.7419
5.73695
5.73188
5.7267
5.72118
5.7152
5.70865
5.70147
5.69357
5.68487
5.67533
5.66491
5.65359
5.64139
5.62835
5.61457
5.60016
5.5853
5.57019
5.55498
5.54011
5.52689
5.74329
5.73909
5.73428
5.72938
5.72443
5.71921
5.71362
5.70757
5.70098
5.6938
5.68595
5.67738
5.66808
5.65802
5.64723
5.63575
5.62367
5.61108
5.59815
5.58505
5.5719
5.5591
5.54795
5.7404
5.73638
5.73178
5.72711
5.72244
5.71758
5.71243
5.70692
5.70098
5.69455
5.68757
5.68001
5.67182
5.66302
5.65361
5.64364
5.63318
5.62232
5.6112
5.59997
5.58873
5.57784
5.56852
5.73754
5.73375
5.72939
5.725
5.72065
5.7162
5.71153
5.7066
5.70133
5.69567
5.68958
5.68301
5.67594
5.66835
5.66028
5.65175
5.64282
5.63358
5.62415
5.61464
5.60515
5.596
5.58831
5.73471
5.73116
5.72708
5.723
5.71901
5.71498
5.71083
5.70649
5.70191
5.69704
5.69182
5.68623
5.68023
5.67382
5.66701
5.65984
5.65235
5.64462
5.63673
5.62881
5.62092
5.61333
5.60708
5.73189
5.72859
5.72481
5.72106
5.71746
5.71388
5.71025
5.70652
5.70263
5.69853
5.69417
5.68951
5.68454
5.67925
5.67364
5.66773
5.66158
5.65523
5.64877
5.64229
5.63584
5.62966
5.62467
5.72905
5.726
5.72255
5.71915
5.71593
5.71281
5.70972
5.70659
5.70338
5.70003
5.6965
5.69274
5.68875
5.6845
5.68
5.67528
5.67035
5.66527
5.6601
5.65493
5.64978
5.64485
5.64097
5.72618
5.72338
5.72026
5.71721
5.71439
5.71173
5.70917
5.70664
5.70409
5.70146
5.69871
5.69581
5.69273
5.68946
5.686
5.68235
5.67855
5.67463
5.67064
5.66664
5.66266
5.65886
5.65593
5.7233
5.7207
5.71792
5.71522
5.7128
5.71059
5.70855
5.7066
5.70468
5.70274
5.70074
5.69863
5.6964
5.69404
5.69153
5.68888
5.68611
5.68324
5.68031
5.67737
5.67443
5.67163
5.66953
5.72039
5.71794
5.7155
5.71314
5.71111
5.70936
5.70782
5.70642
5.7051
5.70381
5.70249
5.70113
5.69968
5.69815
5.69652
5.69479
5.69296
5.69104
5.68908
5.68709
5.68509
5.68317
5.6818
5.71747
5.71507
5.71298
5.71094
5.7093
5.70799
5.70693
5.70605
5.70529
5.70459
5.70391
5.70322
5.70251
5.70174
5.70092
5.70002
5.69905
5.69802
5.69692
5.6958
5.69465
5.69353
5.69281
5.71459
5.71204
5.71032
5.7086
5.70733
5.70645
5.70584
5.70544
5.70519
5.70502
5.70492
5.70486
5.70481
5.70475
5.70466
5.70454
5.70436
5.70413
5.70384
5.70352
5.70315
5.70278
5.70268
5.71189
5.70878
5.70748
5.70607
5.70518
5.7047
5.70451
5.70454
5.70474
5.70506
5.70548
5.70597
5.70652
5.70711
5.7077
5.70829
5.70884
5.70936
5.70982
5.71025
5.71064
5.71103
5.71156
5.70945
5.70516
5.7044
5.70332
5.70281
5.70271
5.7029
5.7033
5.70389
5.70463
5.70551
5.70651
5.70761
5.70878
5.70999
5.71123
5.71246
5.71367
5.71484
5.716
5.71715
5.71837
5.7197
5.70689
5.70107
5.70112
5.70035
5.70019
5.70043
5.70094
5.70166
5.70257
5.70368
5.70497
5.70642
5.708
5.7097
5.71147
5.71329
5.71513
5.71697
5.71882
5.72067
5.7226
5.7248
5.72735
5.70356
5.69566
5.6973
5.69715
5.69732
5.69783
5.69859
5.69957
5.70076
5.70219
5.70383
5.70566
5.70766
5.7098
5.71205
5.71437
5.71673
5.71911
5.72151
5.72397
5.72665
5.73031
5.73551
5.70254
5.68405
5.69097
5.69318
5.69397
5.69476
5.69575
5.69696
5.6984
5.7001
5.70204
5.7042
5.70655
5.70905
5.71167
5.71437
5.71711
5.71987
5.72267
5.72559
5.72913
5.73577
5.74862
5.71764
5.6588
5.68056
5.68708
5.6891
5.69046
5.69182
5.69334
5.6951
5.69711
5.69938
5.70188
5.70458
5.70744
5.71043
5.71347
5.71655
5.71966
5.72286
5.72643
5.73134
5.74187
5.76826
7044.53
7318.02
3190.24
898.63
9536.35
9344.08
8528.52
8393.71
7580.22
8777.72
9798.35
9747.59
1444.59
2164.15
5769.8
7295.04
1237.75
1182.82
1169.3
1316.26
1293.74
1258.59
1231.48
1224.53
1261.23
1283.56
1220.55
836.276
789.809
769.115
747.051
736.38
773.915
766.474
761.01
755.274
764.288
758.49
757.664
752.175
235.119
235.679
242.297
226.91
4.33541
4.34928
4.43776
4.63123
5.59733
5.5916
5.55992
5.51635
5.28203
5.25037
5.24181
5.25086
5.31574
5.30537
5.29526
5.28428
5.3438
5.33189
5.31977
5.30749
5.36315
5.35099
5.33888
5.32687
5.37892
5.36724
5.35565
5.34424
5.3946
5.38363
5.37289
5.36227
5.41171
5.4017
5.39198
5.38226
5.43074
5.42188
5.41333
5.40456
5.4515
5.44384
5.43647
5.42871
5.47351
5.46703
5.46081
5.45405
5.49621
5.49082
5.48565
5.47988
5.51905
5.51465
5.51043
5.50558
5.54157
5.53804
5.53467
5.53067
5.56342
5.56065
5.55802
5.5548
5.58432
5.58221
5.58023
5.57769
5.60404
5.6025
5.60107
5.59914
5.62243
5.62138
5.62042
5.61901
5.63942
5.63877
5.6382
5.63723
5.65496
5.65464
5.65439
5.65376
5.66903
5.66898
5.66897
5.6686
5.68168
5.68183
5.682
5.68183
5.69298
5.69328
5.69356
5.69353
5.70308
5.70347
5.70381
5.70383
5.71214
5.71257
5.71288
5.71289
5.72045
5.72086
5.7211
5.72099
5.72836
5.72869
5.72869
5.72829
5.73662
5.73641
5.73585
5.735
5.74921
5.7454
5.74307
5.74217
5.77728
5.7715
5.76389
5.75723
1038.15
863.74
741.247
903.051
1122.12
994.667
871.868
848.012
842.527
842.265
844.458
849.633
859.686
879.016
910.755
955.616
1012.09
1081.88
1180.02
4015.97
2331.06
2793.75
4903.66
3971.55
977.569
807.167
805.647
808.911
811.074
812.694
814.719
817.797
830.219
854.613
896.11
954.584
1031.96
1140.16
9122.04
8009.42
8036.83
7880.83
4752.23
782.436
742.939
763.827
775.181
780.238
781.778
778.365
769.924
768.142
783.208
820.57
880.071
959.173
1069.17
5048.48
3819.85
2716.92
1149.46
588.155
660.023
707.531
733.75
747.032
750.44
740.729
699.463
617.088
631.233
685.931
732.823
799.287
878.256
981.788
1169.06
567.863
559.748
596.021
630.751
664.284
696.77
716.333
721.739
688.622
536.562
307.393
121.893
163.054
414.101
645.131
725.199
805.272
897.072
1099.8
646.284
617.026
630.238
651.792
675.931
696.695
704.418
647.067
359.076
34.4643
10.276
10.3599
9.62726
34.9826
538.407
675.901
755.104
831.94
674.23
668.159
661.855
666.822
679.781
695.127
704.769
595.466
224.894
8.20635
7.49384
6.97238
7.15584
7.38416
6.85005
219.391
648.177
736.505
796.811
720.518
707.639
702.122
706.395
716.255
677.556
461.824
78.8093
6.68651
6.40569
6.46449
6.81573
7.05721
7.21385
7.10988
7.08229
693.93
746.224
792.276
749.539
746.926
750.283
725.153
563.352
194.236
5.71961
6.06892
5.89538
6.14386
6.40595
6.68054
6.87174
6.98655
7.1321
6.6962
737.612
776.075
811.484
698.037
625.508
499.235
238.894
4.73811
5.39776
5.53067
5.56297
5.76376
6.01298
6.20704
6.38979
6.53535
6.65511
6.85617
6.5558
259.618
809.931
848.271
106.887
8.30671
4.19385
5.18769
5.35169
5.35435
5.44759
5.53396
5.67614
5.83345
5.96966
6.09936
6.20785
6.26432
6.34549
6.21531
4.72606
866.63
897.086
5.02943
5.19996
5.19407
5.27258
5.30709
5.3107
5.38287
5.45785
5.55273
5.65503
5.75351
5.85155
5.93626
5.97905
6.01112
6.11899
5.98538
947.623
955.937
5.42517
5.28732
5.21109
5.21952
5.24008
5.26775
5.31302
5.36768
5.42893
5.49563
5.56456
5.63622
5.70616
5.76004
5.80038
5.94767
9.3159
1020.72
1019.74
5.27822
5.22085
5.20192
5.19848
5.21439
5.23437
5.25968
5.28895
5.32251
5.35962
5.40059
5.44608
5.49603
5.53755
5.56483
5.57659
5.75181
534.469
1073.97
5.26512
5.23542
5.20988
5.20342
5.20572
5.21011
5.21682
5.22579
5.23667
5.24924
5.26517
5.28488
5.30833
5.32429
5.26873
5.17565
4.86247
3.67768
1126.85
5.28448
5.25411
5.22974
5.21359
5.20314
5.19485
5.18767
5.1807
5.17382
5.1675
5.16344
5.16161
5.16183
5.1576
5.10021
4.94897
4.88315
4.685
1077.7
5.30474
5.27466
5.24812
5.22597
5.20753
5.19073
5.17406
5.15585
5.13595
5.11576
5.0966
5.07901
5.06339
5.04726
5.01242
4.92754
4.92526
5.15471
969.374
5.32345
5.29413
5.26725
5.24293
5.22061
5.19905
5.17676
5.15163
5.12332
5.09368
5.06374
5.03508
5.00869
4.98295
4.95678
4.92922
4.92049
5.165
1055.53
5.34311
5.31557
5.28965
5.26554
5.24245
5.21927
5.1945
5.16599
5.13368
5.09918
5.0635
5.02872
4.99657
4.96536
4.93931
4.92536
4.87808
5.05997
1271.34
5.36492
5.34001
5.31616
5.29346
5.27132
5.24861
5.22378
5.19518
5.16279
5.12792
5.09206
5.05832
5.02904
5.00398
4.97627
4.95413
4.89526
6.76748
1378.94
5.38903
5.36708
5.34585
5.32541
5.30534
5.28457
5.26149
5.23522
5.20594
5.17468
5.14391
5.11839
5.10371
5.09683
5.08779
5.07123
5.01033
33.5722
1447.76
5.41501
5.39605
5.37765
5.3599
5.34246
5.32442
5.30455
5.28241
5.25842
5.23378
5.21202
5.20022
5.20607
5.23377
5.26023
5.23647
5.21171
48.0156
1512.08
5.44213
5.42604
5.41044
5.39548
5.3809
5.36596
5.35016
5.33326
5.31584
5.29958
5.28884
5.29109
5.3192
5.38071
5.4404
5.43309
5.34954
31.1463
635.864
5.46965
5.45619
5.44322
5.43092
5.41919
5.40765
5.39612
5.38474
5.37426
5.36684
5.36704
5.3827
5.42456
5.50566
5.60113
5.58172
5.5378
5.31583
7.97285
5.49692
5.48581
5.47521
5.46536
5.45633
5.44814
5.4407
5.43441
5.4303
5.43071
5.44
5.46474
5.5132
5.59189
5.69229
5.72845
5.60548
5.69766
7.34429
5.52346
5.51439
5.50586
5.49819
5.49167
5.48641
5.48251
5.48049
5.4815
5.48772
5.50268
5.5308
5.57589
5.63795
5.7048
5.73819
5.6644
5.4814
6.24086
5.54888
5.54156
5.53482
5.52903
5.52469
5.52183
5.52071
5.52192
5.52653
5.53633
5.55377
5.58116
5.61887
5.6625
5.69911
5.70499
5.6526
5.54093
5.41809
5.57291
5.56708
5.56183
5.55766
5.55503
5.554
5.55489
5.55829
5.56508
5.57659
5.59431
5.61912
5.64988
5.6819
5.70648
5.71568
5.72152
5.75881
5.76953
5.59536
5.59077
5.58676
5.58391
5.58254
5.58277
5.58497
5.58962
5.59744
5.60932
5.62607
5.64782
5.67315
5.69849
5.71896
5.73244
5.74811
5.77794
5.7744
5.61607
5.6125
5.60953
5.60769
5.60717
5.60819
5.61107
5.61624
5.62424
5.63563
5.6508
5.66953
5.69059
5.71153
5.72927
5.742
5.75146
5.75786
5.74239
5.635
5.63226
5.63012
5.62895
5.62896
5.63036
5.63346
5.63862
5.64622
5.65662
5.66996
5.6859
5.70346
5.72093
5.7361
5.74682
5.7519
5.75036
5.73571
5.6521
5.65002
5.64849
5.64775
5.64801
5.6495
5.65248
5.65725
5.66409
5.67323
5.68469
5.69811
5.7127
5.7272
5.73992
5.7488
5.75197
5.74895
5.73771
5.66738
5.66583
5.66471
5.66419
5.6645
5.66585
5.66847
5.67261
5.6785
5.68628
5.69591
5.70706
5.71907
5.73098
5.74144
5.74865
5.75091
5.74799
5.73916
5.68094
5.67976
5.67887
5.67839
5.67858
5.67964
5.68176
5.68517
5.69002
5.69644
5.70434
5.71346
5.72323
5.73288
5.74132
5.74713
5.74882
5.74623
5.73921
5.69286
5.69189
5.69106
5.69051
5.69048
5.69114
5.69269
5.69531
5.69914
5.70424
5.71057
5.71787
5.72569
5.73339
5.74011
5.74468
5.74595
5.7437
5.73794
5.70328
5.70237
5.70147
5.70073
5.70039
5.70061
5.70157
5.7034
5.70625
5.71015
5.71506
5.72076
5.7269
5.73294
5.73818
5.74173
5.74262
5.7406
5.73578
5.71234
5.71136
5.71025
5.70925
5.70855
5.70831
5.70867
5.70977
5.71171
5.71453
5.71817
5.72249
5.72717
5.7318
5.73582
5.73852
5.73909
5.73728
5.73315
5.72022
5.71897
5.71757
5.71623
5.71515
5.71446
5.71428
5.71471
5.71583
5.71769
5.72023
5.72334
5.72679
5.73023
5.73324
5.73525
5.73559
5.73396
5.73042
5.72704
5.72535
5.72357
5.72187
5.72042
5.71932
5.71864
5.71849
5.7189
5.71991
5.72149
5.72356
5.72594
5.72839
5.73058
5.73206
5.73227
5.73087
5.72784
5.73341
5.73113
5.72876
5.72658
5.72469
5.72315
5.72199
5.72126
5.72101
5.72124
5.72196
5.7231
5.72456
5.72618
5.72773
5.72888
5.72914
5.72812
5.72564
5.74131
5.73787
5.73434
5.73123
5.72857
5.72631
5.72444
5.72297
5.72191
5.72128
5.72108
5.7213
5.72191
5.72282
5.72392
5.725
5.72571
5.72554
5.72402
5.74759
5.7414
5.73735
5.73408
5.73134
5.72899
5.72696
5.72521
5.72373
5.72253
5.72165
5.72108
5.72087
5.721
5.72147
5.72222
5.72308
5.72369
5.72331
)
;

boundaryField
{
    leftWall
    {
        type            fixedFluxPressure;
        gradient        uniform 0;
        value           nonuniform List<scalar> 
50
(
6673.23
6667.09
6658.77
6644.79
6621.54
6587.66
5815.15
2180.33
1429.81
1420.57
1407.75
1393.56
1376.81
1356.74
1127.9
110.739
5.87438
5.8747
5.8447
5.82788
5.81425
5.80273
5.79314
5.78521
5.77857
5.77291
5.76797
5.76359
5.75961
5.75595
5.75254
5.74932
5.74625
5.74329
5.7404
5.73754
5.73471
5.73189
5.72905
5.72618
5.7233
5.72039
5.71747
5.71459
5.71189
5.70945
5.70689
5.70356
5.70254
5.71764
)
;
    }
    rightWall
    {
        type            fixedFluxPressure;
        gradient        uniform 0;
        value           nonuniform List<scalar> 
50
(
1153.84
1156.14
1164.48
1182.72
1197.21
1202.66
1202.24
1195.46
1180.02
1140.16
1069.17
981.788
897.072
831.94
796.811
792.276
811.484
848.271
897.086
955.937
1019.74
1073.97
1126.85
1077.7
969.374
1055.53
1271.34
1378.94
1447.76
1512.08
635.864
7.97285
7.34429
6.24086
5.41809
5.76953
5.7744
5.74239
5.73571
5.73771
5.73916
5.73921
5.73794
5.73578
5.73315
5.73042
5.72784
5.72564
5.72402
5.72331
)
;
    }
    lowerWall
    {
        type            fixedFluxPressure;
        gradient        uniform 0;
        value           nonuniform List<scalar> 
62
(
6673.23
6718.31
6790.13
6860.66
6912.33
6943.03
6953.88
6946.87
6924.77
6891.69
6853.29
6816.88
6791.67
6789.25
6824.07
6913.58
7078.23
7347.13
7751.72
8314.36
9011.23
9708.03
10310.5
10310.5
10415.6
10474.8
10491.3
10460.4
10371.1
10206.1
9884.03
7044.53
7318.02
3190.24
898.63
1005.26
1009.01
998.818
985.131
981.36
994.515
1024.76
1062.76
1005.26
892.35
854.408
848.865
869.71
907.196
941.767
965.32
980.137
984.993
979.889
971.146
965.588
970.358
991.537
1031.01
1084.26
1126.48
1153.84
)
;
    }
    atmosphere
    {
        type            prghTotalPressure;
        rho             rho;
        psi             none;
        gamma           1;
        p0              uniform 0;
        value           nonuniform List<scalar> 
46
(
5.70809
5.68063
5.68369
5.68518
5.68645
5.68773
5.68917
5.69084
5.69278
5.69499
5.69746
5.70018
5.7031
5.70618
5.70937
5.7126
5.71581
5.71891
5.72181
5.72441
5.72654
5.72803
5.72871
5.72902
5.72904
5.72904
5.72904
5.72904
5.72904
5.72904
5.72904
5.72904
5.72904
5.72904
5.72904
5.72904
5.72904
5.72904
5.72904
5.72904
5.72904
5.72904
5.72904
5.72904
5.72904
5.72904
)
;
        rho             rho;
    }
    defaultFaces
    {
        type            empty;
    }
}


// ************************************************************************* //
