/*--------------------------------*- C++ -*----------------------------------*\
  =========                 |
  \\      /  F ield         | OpenFOAM: The Open Source CFD Toolbox
   \\    /   O peration     | Website:  https://openfoam.org
    \\  /    A nd           | Version:  13
     \\/     M anipulation  |
\*---------------------------------------------------------------------------*/
FoamFile
{
    format      ascii;
    class       surfaceScalarField;
    location    "0.35";
    object      phi;
}
// * * * * * * * * * * * * * * * * * * * * * * * * * * * * * * * * * * * * * //

dimensions      [0 3 -1 0 0 0 0];

internalField   nonuniform List<scalar> 
4432
(
-1.50472e-06
1.50472e-06
6.21203e-07
-2.12592e-06
4.00881e-06
-3.3876e-06
7.73485e-06
-3.72603e-06
1.15517e-05
-3.81684e-06
1.53654e-05
-3.8137e-06
1.91318e-05
-3.76635e-06
2.28148e-05
-3.68299e-06
2.63785e-05
-3.56374e-06
2.97855e-05
-3.40698e-06
3.29922e-05
-3.20667e-06
3.59414e-05
-2.9492e-06
3.85562e-05
-2.6148e-06
4.0737e-05
-2.1808e-06
4.23495e-05
-1.61246e-06
4.3193e-05
-8.43527e-07
4.29612e-05
2.31833e-07
4.11297e-05
1.83143e-06
3.7065e-05
4.06472e-06
3.01595e-05
6.90553e-06
2.02373e-05
9.92226e-06
8.24534e-06
1.19919e-05
8.24534e-06
8.88192e-07
6.16519e-07
3.5767e-06
-4.81444e-06
6.85478e-06
-6.66568e-06
1.03893e-05
-7.26052e-06
1.39988e-05
-7.42641e-06
1.76071e-05
-7.42199e-06
2.11695e-05
-7.32876e-06
2.4649e-05
-7.16248e-06
2.80083e-05
-6.92296e-06
3.1207e-05
-6.60569e-06
3.4198e-05
-6.19771e-06
3.69205e-05
-5.67169e-06
3.92936e-05
-4.98789e-06
4.12124e-05
-4.09955e-06
4.25394e-05
-2.93947e-06
4.3079e-05
-1.38308e-06
4.25357e-05
7.75057e-07
4.04999e-05
3.86724e-06
3.64117e-05
8.15297e-06
2.98271e-05
1.34901e-05
2.06692e-05
1.90802e-05
9.80014e-06
2.2861e-05
1.80455e-05
2.68513e-06
-2.0686e-06
5.62008e-06
-7.74938e-06
8.79248e-06
-9.83807e-06
1.21319e-05
-1.05999e-05
1.55249e-05
-1.08194e-05
1.89148e-05
-1.08119e-05
2.22632e-05
-1.06772e-05
2.55336e-05
-1.04329e-05
2.8687e-05
-1.00764e-05
3.16807e-05
-9.59938e-06
3.44645e-05
-8.9815e-06
3.69741e-05
-8.18128e-06
3.91239e-05
-7.13767e-06
4.08032e-05
-5.77886e-06
4.18715e-05
-4.00777e-06
4.21432e-05
-1.6548e-06
4.13713e-05
1.54702e-06
3.92136e-05
6.02493e-06
3.52308e-05
1.21357e-05
2.90943e-05
1.96267e-05
2.08397e-05
2.73347e-05
1.10053e-05
3.26955e-05
2.90507e-05
3.94387e-06
-6.01249e-06
7.12599e-06
-1.09315e-05
1.02568e-05
-1.29689e-05
1.34425e-05
-1.37856e-05
1.66435e-05
-1.40204e-05
1.98336e-05
-1.4002e-05
2.29851e-05
-1.38287e-05
2.60634e-05
-1.35112e-05
2.90284e-05
-1.30414e-05
3.18355e-05
-1.24065e-05
3.44322e-05
-1.15782e-05
3.67507e-05
-1.04998e-05
3.86995e-05
-9.08648e-06
4.016e-05
-7.23931e-06
4.09861e-05
-4.83396e-06
4.10034e-05
-1.67205e-06
4.00106e-05
2.53981e-06
3.77484e-05
8.28711e-06
3.38756e-05
1.60086e-05
2.81592e-05
2.53431e-05
2.06951e-05
3.47988e-05
1.16786e-05
4.1712e-05
4.07293e-05
4.77659e-06
-1.07891e-05
8.17271e-06
-1.43276e-05
1.13043e-05
-1.61005e-05
1.43826e-05
-1.68639e-05
1.74279e-05
-1.70656e-05
2.04474e-05
-1.70216e-05
2.34264e-05
-1.68076e-05
2.63337e-05
-1.64185e-05
2.913e-05
-1.58377e-05
3.177e-05
-1.50465e-05
3.42e-05
-1.40082e-05
3.63486e-05
-1.26484e-05
3.81169e-05
-1.08547e-05
3.93745e-05
-8.49691e-06
3.99639e-05
-5.42332e-06
3.97147e-05
-1.42285e-06
3.84731e-05
3.7814e-06
3.60791e-05
1.06811e-05
3.2301e-05
1.97867e-05
2.69821e-05
3.0662e-05
2.02449e-05
4.15361e-05
1.1991e-05
4.99659e-05
5.27203e-05
5.31385e-06
-1.61029e-05
8.79335e-06
-1.78071e-05
1.19398e-05
-1.92469e-05
1.495e-05
-1.98741e-05
1.78795e-05
-1.99951e-05
2.07643e-05
-1.99064e-05
2.36004e-05
-1.96437e-05
2.63618e-05
-1.918e-05
2.90121e-05
-1.84879e-05
3.15077e-05
-1.75421e-05
3.37942e-05
-1.62947e-05
3.57964e-05
-1.46507e-05
3.74064e-05
-1.24647e-05
3.84778e-05
-9.56832e-06
3.88309e-05
-5.77638e-06
3.82819e-05
-8.7384e-07
3.67165e-05
5.34679e-06
3.41057e-05
1.32919e-05
3.04036e-05
2.34887e-05
2.5521e-05
3.55446e-05
1.9576e-05
4.74811e-05
1.21915e-05
5.73504e-05
6.49118e-05
5.62857e-06
-2.17315e-05
9.02871e-06
-2.12073e-05
1.21963e-05
-2.24145e-05
1.51646e-05
-2.28425e-05
1.80152e-05
-2.28456e-05
2.08001e-05
-2.26914e-05
2.35205e-05
-2.2364e-05
2.6157e-05
-2.18165e-05
2.86789e-05
-2.10098e-05
3.10461e-05
-1.99094e-05
3.32028e-05
-1.84514e-05
3.50684e-05
-1.65163e-05
3.65252e-05
-1.39215e-05
3.74063e-05
-1.04494e-05
3.75086e-05
-5.8787e-06
3.66175e-05
1.72622e-08
3.46563e-05
7.30804e-06
3.17462e-05
1.62019e-05
2.80402e-05
2.71948e-05
2.37906e-05
3.97942e-05
1.8879e-05
5.23927e-05
1.26122e-05
6.36172e-05
7.7524e-05
5.57528e-06
-2.73068e-05
8.93695e-06
-2.4569e-05
1.21331e-05
-2.56106e-05
1.50714e-05
-2.57808e-05
1.78695e-05
-2.56437e-05
2.05756e-05
-2.53975e-05
2.31918e-05
-2.49803e-05
2.57071e-05
-2.43317e-05
2.80984e-05
-2.34011e-05
3.03289e-05
-2.21399e-05
3.23398e-05
-2.04623e-05
3.40436e-05
-1.822e-05
3.53162e-05
-1.51941e-05
3.5983e-05
-1.11162e-05
3.58476e-05
-5.74327e-06
3.46286e-05
1.23623e-06
3.22732e-05
9.66348e-06
2.89908e-05
1.94843e-05
2.53337e-05
3.08518e-05
2.18971e-05
4.32308e-05
1.8519e-05
5.57709e-05
1.41156e-05
6.80206e-05
9.16396e-05
-3.44819e-05
3.44819e-05
-5.36006e-05
1.91186e-05
-5.60124e-05
2.41182e-06
-5.08146e-05
-5.19776e-06
-4.06911e-05
-1.01235e-05
-2.65684e-05
-1.41227e-05
-1.07406e-05
-1.58277e-05
5.21898e-06
-1.59596e-05
1.98585e-05
-1.46395e-05
3.22892e-05
-1.24307e-05
4.24178e-05
-1.01285e-05
4.96575e-05
-7.23974e-06
5.31883e-05
-3.53077e-06
5.21679e-05
1.02043e-06
4.58761e-05
6.29182e-06
3.38619e-05
1.20142e-05
1.6382e-05
1.74798e-05
-3.91553e-06
2.02975e-05
-3.91553e-06
-2.74215e-05
6.19035e-05
-4.13267e-05
3.30239e-05
-4.20713e-05
3.15633e-06
-3.61707e-05
-1.10983e-05
-2.6282e-05
-2.00122e-05
-1.34587e-05
-2.69461e-05
6.09678e-07
-2.98961e-05
1.40805e-05
-2.94305e-05
2.62982e-05
-2.68571e-05
3.71598e-05
-2.32924e-05
4.60697e-05
-1.90384e-05
5.23359e-05
-1.35059e-05
5.52181e-05
-6.41299e-06
5.40294e-05
2.20911e-06
4.82109e-05
1.21103e-05
3.76052e-05
2.26198e-05
2.28343e-05
3.22507e-05
7.39171e-06
3.57401e-05
3.47612e-06
-2.07162e-05
8.26196e-05
-3.08919e-05
4.31996e-05
-3.08897e-05
3.15412e-06
-2.41097e-05
-1.78783e-05
-1.41134e-05
-3.00085e-05
-2.24215e-06
-3.88173e-05
9.81495e-06
-4.19531e-05
2.1087e-05
-4.07025e-05
3.15565e-05
-3.73266e-05
4.09896e-05
-3.27256e-05
4.87187e-05
-2.67675e-05
5.4048e-05
-1.88352e-05
5.62942e-05
-8.65924e-06
5.48646e-05
3.6388e-06
4.93583e-05
1.76165e-05
3.97931e-05
3.21851e-05
2.69568e-05
4.5087e-05
1.34507e-05
4.92462e-05
1.69268e-05
-1.3042e-05
9.56617e-05
-1.97231e-05
4.98807e-05
-2.04863e-05
3.91723e-06
-1.28739e-05
-2.54906e-05
-2.41094e-06
-4.04714e-05
8.61759e-06
-4.98458e-05
1.86287e-05
-5.19643e-05
2.7911e-05
-4.99848e-05
3.67452e-05
-4.61608e-05
4.4809e-05
-4.07894e-05
5.14113e-05
-3.33698e-05
5.5847e-05
-2.32708e-05
5.74634e-05
-1.02757e-05
5.57331e-05
5.36904e-06
5.03591e-05
2.29905e-05
4.1434e-05
4.11102e-05
2.96959e-05
5.68251e-05
1.67184e-05
6.22237e-05
3.36452e-05
-4.48921e-06
0.000100151
-5.8546e-06
5.1246e-05
-1.06095e-05
8.67208e-06
-1.00304e-06
-3.50971e-05
9.52398e-06
-5.09984e-05
1.96746e-05
-5.99965e-05
2.75367e-05
-5.98264e-05
3.48005e-05
-5.72486e-05
4.20165e-05
-5.33768e-05
4.87593e-05
-4.75322e-05
5.42839e-05
-3.88944e-05
5.78611e-05
-2.6848e-05
5.885e-05
-1.12645e-05
5.67666e-05
7.45244e-06
5.1376e-05
2.83812e-05
4.27969e-05
4.96893e-05
3.16115e-05
6.80105e-05
1.85481e-05
7.52871e-05
5.21933e-05
7.30729e-06
9.28436e-05
9.82492e-06
4.87284e-05
1.38835e-05
4.61341e-06
2.89745e-05
-5.01875e-05
2.42698e-05
-4.62936e-05
3.16534e-05
-6.738e-05
3.65216e-05
-6.46946e-05
4.16379e-05
-6.23649e-05
4.72852e-05
-5.90241e-05
5.27859e-05
-5.30329e-05
5.72974e-05
-4.34059e-05
6.00548e-05
-2.96054e-05
6.04194e-05
-1.16291e-05
5.79369e-05
9.93492e-06
5.24099e-05
3.39082e-05
4.39607e-05
5.81384e-05
3.29982e-05
7.8973e-05
1.96496e-05
8.86357e-05
7.18429e-05
1.36289e-05
7.92147e-05
2.58783e-05
3.6479e-05
2.85164e-05
1.9755e-06
3.00689e-05
-5.17399e-05
4.53387e-05
-6.15635e-05
4.38594e-05
-6.59007e-05
4.49696e-05
-6.58049e-05
4.81202e-05
-6.55155e-05
5.23891e-05
-6.3293e-05
5.67832e-05
-5.74271e-05
6.03678e-05
-4.69905e-05
6.23499e-05
-3.15875e-05
6.20939e-05
-1.13731e-05
5.91714e-05
1.28575e-05
5.34114e-05
3.96681e-05
4.49328e-05
6.6617e-05
3.39906e-05
8.99153e-05
2.03683e-05
0.000102258
9.22112e-05
1.57864e-05
6.34283e-05
3.47662e-05
1.74992e-05
3.7798e-05
-1.05632e-06
4.54572e-05
-5.93997e-05
5.46591e-05
-7.07654e-05
5.24572e-05
-6.36988e-05
5.19473e-05
-6.5295e-05
5.38992e-05
-6.74674e-05
5.71577e-05
-6.65515e-05
6.06424e-05
-6.09118e-05
6.34055e-05
-4.97536e-05
6.46583e-05
-3.28403e-05
6.37814e-05
-1.04963e-05
6.03757e-05
1.62632e-05
5.43e-05
4.57438e-05
4.56741e-05
7.52428e-05
3.46632e-05
0.000100926
2.08392e-05
0.000116082
0.00011305
8.91306e-06
-3.62199e-05
1.69457e-05
-3.26016e-05
2.38002e-05
-3.24652e-05
3.01156e-05
-3.20962e-05
3.60262e-05
-3.15544e-05
4.15886e-05
-3.09599e-05
4.68177e-05
-3.02094e-05
5.17097e-05
-2.92238e-05
5.62427e-05
-2.79341e-05
6.03733e-05
-2.62705e-05
6.40345e-05
-2.41235e-05
6.71362e-05
-2.13217e-05
6.95488e-05
-1.76067e-05
7.10496e-05
-1.2617e-05
7.12223e-05
-5.91587e-06
6.94602e-05
2.99831e-06
6.50891e-05
1.40346e-05
5.79051e-05
2.66683e-05
4.95541e-05
3.92029e-05
4.31365e-05
4.96483e-05
4.16419e-05
5.72655e-05
4.59198e-05
6.37427e-05
6.7218e-05
7.03413e-05
5.18061e-06
-4.14006e-05
1.22632e-05
-3.96843e-05
1.88245e-05
-3.90264e-05
2.50207e-05
-3.82924e-05
3.08948e-05
-3.74284e-05
3.64203e-05
-3.64854e-05
4.16107e-05
-3.53998e-05
4.64712e-05
-3.40843e-05
5.09911e-05
-3.24539e-05
5.51355e-05
-3.04149e-05
5.88535e-05
-2.78414e-05
6.2084e-05
-2.45523e-05
6.47642e-05
-2.02868e-05
6.68269e-05
-1.46797e-05
6.81906e-05
-7.27952e-06
6.88475e-05
2.34141e-06
6.86001e-05
1.4282e-05
6.71336e-05
2.81349e-05
6.37468e-05
4.25897e-05
5.87217e-05
5.46734e-05
5.30568e-05
6.29303e-05
5.72588e-05
5.95408e-05
5.78405e-05
6.66363e-05
4.1514e-06
-4.5552e-05
1.03175e-05
-4.58504e-05
1.64108e-05
-4.51197e-05
2.22755e-05
-4.41571e-05
2.78999e-05
-4.30529e-05
3.32472e-05
-4.18327e-05
3.82991e-05
-4.04517e-05
4.30495e-05
-3.88347e-05
4.74913e-05
-3.68957e-05
5.16092e-05
-3.45328e-05
5.53814e-05
-3.16136e-05
5.87937e-05
-2.79645e-05
6.18673e-05
-2.33604e-05
6.46722e-05
-1.74847e-05
6.73239e-05
-9.93117e-06
6.99601e-05
-2.94798e-07
7.26569e-05
1.15852e-05
7.54462e-05
2.53456e-05
7.81652e-05
3.98708e-05
7.9836e-05
5.30026e-05
8.0997e-05
6.17694e-05
7.77936e-05
6.27442e-05
5.22571e-05
8.3377e-05
4.63256e-06
-5.01846e-05
1.02536e-05
-5.14714e-05
1.58316e-05
-5.06977e-05
2.12683e-05
-4.95938e-05
2.65326e-05
-4.83172e-05
3.1588e-05
-4.6888e-05
3.64062e-05
-4.52698e-05
4.09684e-05
-4.33969e-05
4.52625e-05
-4.11898e-05
4.92812e-05
-3.85515e-05
5.30224e-05
-3.53548e-05
5.65104e-05
-3.14525e-05
5.98469e-05
-2.66969e-05
6.32212e-05
-2.0859e-05
6.68762e-05
-1.35861e-05
7.10274e-05
-4.44601e-06
7.58094e-05
6.80317e-06
8.13405e-05
1.98145e-05
8.77177e-05
3.34936e-05
9.47594e-05
4.5961e-05
0.000101797
5.47318e-05
0.000108083
5.64579e-05
5.01713e-05
0.000110169
5.36891e-06
-5.55534e-05
1.085e-05
-5.69524e-05
1.60907e-05
-5.59384e-05
2.11585e-05
-5.46616e-05
2.60666e-05
-5.32252e-05
3.07997e-05
-5.16211e-05
3.53341e-05
-4.98043e-05
3.96462e-05
-4.77091e-05
4.37204e-05
-4.5264e-05
4.75524e-05
-4.23835e-05
5.11446e-05
-3.8947e-05
5.45306e-05
-3.48385e-05
5.78709e-05
-3.00372e-05
6.14631e-05
-2.44511e-05
6.56749e-05
-1.77979e-05
7.07736e-05
-9.54468e-06
7.68727e-05
7.03994e-07
8.39803e-05
1.2707e-05
9.22734e-05
2.52006e-05
0.000101863
3.63718e-05
0.000112413
4.41817e-05
0.000122794
4.60766e-05
4.06175e-05
0.000132348
6.18714e-06
-6.17405e-05
1.15834e-05
-6.23487e-05
1.65473e-05
-6.09022e-05
2.13076e-05
-5.94218e-05
2.58995e-05
-5.78172e-05
3.03226e-05
-5.60442e-05
3.45592e-05
-5.40409e-05
3.85832e-05
-5.17332e-05
4.2379e-05
-4.90599e-05
4.59512e-05
-4.59557e-05
4.92971e-05
-4.2293e-05
5.24127e-05
-3.79542e-05
5.54854e-05
-3.311e-05
5.89077e-05
-2.78735e-05
6.31829e-05
-2.20732e-05
6.86178e-05
-1.49796e-05
7.52594e-05
-5.93759e-06
8.30129e-05
4.95338e-06
9.19952e-05
1.62183e-05
0.000102506
2.58608e-05
0.000114281
3.24067e-05
0.000126418
3.39401e-05
2.91087e-05
0.000137927
7.18949e-06
-6.89299e-05
1.19766e-05
-6.71357e-05
1.66665e-05
-6.55921e-05
2.12092e-05
-6.39644e-05
2.55606e-05
-6.21686e-05
2.97225e-05
-6.0206e-05
3.36796e-05
-5.7998e-05
3.74046e-05
-5.54581e-05
4.08797e-05
-5.2535e-05
4.41349e-05
-4.92109e-05
4.71922e-05
-4.53503e-05
4.99554e-05
-4.07175e-05
5.26234e-05
-3.5778e-05
5.56289e-05
-3.08789e-05
5.9593e-05
-2.60373e-05
6.47251e-05
-2.01116e-05
7.10415e-05
-1.2254e-05
7.87185e-05
-2.72359e-06
8.78707e-05
7.06615e-06
9.88474e-05
1.48841e-05
0.000111395
1.98592e-05
0.000124645
2.06897e-05
1.63977e-05
0.000137356
8.77842e-06
-7.77082e-05
1.13524e-05
-6.97091e-05
1.59915e-05
-7.02309e-05
2.04616e-05
-6.84342e-05
2.47227e-05
-6.64296e-05
2.87396e-05
-6.42227e-05
3.24861e-05
-6.17444e-05
3.59442e-05
-5.89161e-05
3.9092e-05
-5.56828e-05
4.19782e-05
-5.2097e-05
4.47111e-05
-4.80831e-05
4.71973e-05
-4.32036e-05
4.9766e-05
-3.83467e-05
5.25805e-05
-3.36933e-05
5.61224e-05
-2.95792e-05
6.04721e-05
-2.44613e-05
6.56251e-05
-1.7407e-05
7.30354e-05
-1.01338e-05
8.30293e-05
-2.92778e-06
9.49499e-05
2.96351e-06
0.000108206
6.60301e-06
0.000122118
6.77729e-06
2.81699e-06
0.000135699
2.14297e-05
-9.91378e-05
1.31807e-05
-6.146e-05
1.47148e-05
-7.17648e-05
1.87596e-05
-7.24788e-05
2.27621e-05
-7.04318e-05
2.65257e-05
-6.79862e-05
2.99494e-05
-6.51679e-05
3.3035e-05
-6.20016e-05
3.57935e-05
-5.84412e-05
3.81491e-05
-5.44525e-05
4.0225e-05
-5.0159e-05
4.25358e-05
-4.55144e-05
4.53849e-05
-4.11958e-05
4.89756e-05
-3.72837e-05
5.28534e-05
-3.34568e-05
5.85502e-05
-3.01579e-05
6.52216e-05
-2.40784e-05
7.30434e-05
-1.79555e-05
8.27856e-05
-1.26699e-05
9.43338e-05
-8.5847e-06
0.000107195
-6.2585e-06
0.0001207
-6.72722e-06
-1.05842e-05
0.000134101
4.00146e-06
-0.000103139
1.25443e-05
-7.00034e-05
1.60618e-05
-7.52826e-05
1.98132e-05
-7.62305e-05
2.35272e-05
-7.4146e-05
2.69362e-05
-7.13954e-05
3.01043e-05
-6.83361e-05
3.30542e-05
-6.49516e-05
3.58568e-05
-6.12437e-05
3.86455e-05
-5.72413e-05
4.15613e-05
-5.30748e-05
4.48308e-05
-4.87839e-05
4.77875e-05
-4.41525e-05
5.03889e-05
-3.9885e-05
5.24388e-05
-3.55063e-05
5.63579e-05
-3.40768e-05
6.71844e-05
-3.49045e-05
7.71037e-05
-2.78746e-05
8.6776e-05
-2.23421e-05
9.79329e-05
-1.97415e-05
0.000110393
-1.87183e-05
0.000123178
-1.9512e-05
-2.33829e-05
0.000135976
-1.54486e-06
-0.000101595
8.26109e-06
-7.98096e-05
1.3173e-05
-8.01948e-05
1.6394e-05
-7.94518e-05
1.94707e-05
-7.72229e-05
2.25096e-05
-7.44346e-05
2.5523e-05
-7.13497e-05
2.85673e-05
-6.79961e-05
3.17002e-05
-6.43769e-05
3.50134e-05
-6.05546e-05
3.86121e-05
-5.66737e-05
4.25805e-05
-5.27523e-05
4.70159e-05
-4.8588e-05
5.11975e-05
-4.40669e-05
5.70224e-05
-4.13314e-05
6.33206e-05
-4.03751e-05
6.89228e-05
-4.05067e-05
7.30746e-05
-3.20261e-05
8.44708e-05
-3.3738e-05
0.000101392
-3.66626e-05
0.000117933
-3.52592e-05
0.000130152
-3.17308e-05
-3.46074e-05
0.000141377
-1.69558e-06
-9.98989e-05
5.35344e-06
-8.68585e-05
9.50079e-06
-8.43421e-05
1.22737e-05
-8.22247e-05
1.48116e-05
-7.97608e-05
1.74215e-05
-7.70446e-05
2.02045e-05
-7.41328e-05
2.32323e-05
-7.1024e-05
2.65736e-05
-6.77183e-05
3.0283e-05
-6.42641e-05
3.43795e-05
-6.07702e-05
3.89161e-05
-5.72889e-05
4.41387e-05
-5.38107e-05
5.04558e-05
-5.03841e-05
5.68233e-05
-4.76993e-05
6.3474e-05
-4.7026e-05
6.87862e-05
-4.58192e-05
8.08057e-05
-4.40457e-05
9.40837e-05
-4.70159e-05
0.000108315
-5.08938e-05
0.000119836
-4.67801e-05
0.000132484
-4.43787e-05
-5.06242e-05
0.000148501
-1.06705e-06
-9.88318e-05
3.09507e-06
-9.10206e-05
6.06296e-06
-8.73099e-05
8.33584e-06
-8.44976e-05
1.04801e-05
-8.19051e-05
1.27585e-05
-7.93231e-05
1.52999e-05
-7.66742e-05
1.81924e-05
-7.39165e-05
2.15112e-05
-7.10371e-05
2.53146e-05
-6.80675e-05
2.96274e-05
-6.50831e-05
3.44866e-05
-6.21482e-05
3.99894e-05
-5.93135e-05
4.62935e-05
-5.66883e-05
5.3321e-05
-5.47268e-05
6.01178e-05
-5.38229e-05
6.7429e-05
-5.31305e-05
7.63408e-05
-5.29577e-05
8.47185e-05
-5.53936e-05
9.03383e-05
-5.6514e-05
9.90954e-05
-5.55373e-05
0.000110899
-5.6182e-05
-6.05975e-05
0.000120872
-9.29385e-07
-9.79021e-05
1.14492e-06
-9.30947e-05
3.06714e-06
-8.92321e-05
4.81294e-06
-8.62434e-05
6.59337e-06
-8.36855e-05
8.56716e-06
-8.12969e-05
1.08425e-05
-7.89496e-05
1.35034e-05
-7.65775e-05
1.66218e-05
-7.41557e-05
2.0254e-05
-7.16997e-05
2.44303e-05
-6.92594e-05
2.91768e-05
-6.68948e-05
3.45328e-05
-6.46696e-05
4.05467e-05
-6.27022e-05
4.70355e-05
-6.12156e-05
5.36148e-05
-6.04023e-05
6.04901e-05
-6.00058e-05
6.78233e-05
-6.0291e-05
7.40667e-05
-6.1637e-05
8.00489e-05
-6.24962e-05
8.71585e-05
-6.26473e-05
9.56463e-05
-6.467e-05
-6.82881e-05
0.000103337
-1.12229e-06
-9.67799e-05
-4.27552e-07
-9.37894e-05
6.14182e-07
-9.02738e-05
1.81227e-06
-8.74414e-05
3.19036e-06
-8.50637e-05
4.8188e-06
-8.29254e-05
6.76967e-06
-8.09006e-05
9.10827e-06
-7.89162e-05
1.18927e-05
-7.69401e-05
1.5168e-05
-7.49751e-05
1.89598e-05
-7.30513e-05
2.32784e-05
-7.12135e-05
2.81271e-05
-6.95183e-05
3.3477e-05
-6.80522e-05
3.92019e-05
-6.69406e-05
4.50742e-05
-6.62745e-05
5.10647e-05
-6.59963e-05
5.69716e-05
-6.61979e-05
6.22535e-05
-6.69189e-05
6.73059e-05
-6.75487e-05
7.28427e-05
-6.8184e-05
7.78244e-05
-6.96517e-05
-7.15663e-05
8.11027e-05
-1.4486e-06
-9.53311e-05
-1.64818e-06
-9.35898e-05
-1.31123e-06
-9.06108e-05
-6.46958e-07
-8.81057e-05
2.94163e-07
-8.60048e-05
1.52754e-06
-8.41588e-05
3.09023e-06
-8.24633e-05
5.02471e-06
-8.08507e-05
7.37115e-06
-7.92866e-05
1.016e-05
-7.7764e-05
1.34046e-05
-7.62959e-05
1.71013e-05
-7.49103e-05
2.12278e-05
-7.36449e-05
2.57291e-05
-7.25535e-05
3.04911e-05
-7.17025e-05
3.5353e-05
-7.11364e-05
4.02007e-05
-7.08441e-05
4.48507e-05
-7.08479e-05
4.9041e-05
-7.11092e-05
5.28714e-05
-7.13791e-05
5.63631e-05
-7.16757e-05
5.89677e-05
-7.22563e-05
-7.28297e-05
6.02313e-05
-1.77165e-06
-9.35595e-05
-2.5794e-06
-9.2782e-05
-2.8057e-06
-9.03845e-05
-2.63367e-06
-8.82778e-05
-2.13821e-06
-8.65003e-05
-1.33359e-06
-8.49635e-05
-2.07778e-07
-8.35892e-05
1.26177e-06
-8.23203e-05
3.09716e-06
-8.1122e-05
5.3127e-06
-7.99796e-05
7.90903e-06
-7.88923e-05
1.087e-05
-7.78713e-05
1.41583e-05
-7.69332e-05
1.77079e-05
-7.61031e-05
2.14152e-05
-7.54097e-05
2.51468e-05
-7.48681e-05
2.87731e-05
-7.44703e-05
3.21325e-05
-7.42073e-05
3.50503e-05
-7.4027e-05
3.74775e-05
-7.38063e-05
3.93212e-05
-7.35194e-05
4.02599e-05
-7.3195e-05
-7.26388e-05
4.00692e-05
-2.04459e-06
-9.15147e-05
-3.29193e-06
-9.15347e-05
-3.97504e-06
-8.97014e-05
-4.24607e-06
-8.80068e-05
-4.1824e-06
-8.6564e-05
-3.81474e-06
-8.53312e-05
-3.14941e-06
-8.42545e-05
-2.1806e-06
-8.32891e-05
-9.00413e-07
-8.24023e-05
6.92974e-07
-8.1573e-05
2.58857e-06
-8.07879e-05
4.75933e-06
-8.00421e-05
7.16008e-06
-7.9334e-05
9.72207e-06
-7.86651e-05
1.23505e-05
-7.80382e-05
1.49299e-05
-7.74474e-05
1.73359e-05
-7.68763e-05
1.94288e-05
-7.63001e-05
2.10703e-05
-7.56685e-05
2.21685e-05
-7.49045e-05
2.26102e-05
-7.39612e-05
2.2209e-05
-7.27937e-05
-7.12625e-05
2.08328e-05
-2.2553e-06
-8.92596e-05
-3.83463e-06
-8.99554e-05
-4.89533e-06
-8.86407e-05
-5.56211e-06
-8.734e-05
-5.90746e-06
-8.62187e-05
-5.9694e-06
-8.52692e-05
-5.76575e-06
-8.44582e-05
-5.30415e-06
-8.37508e-05
-4.5901e-06
-8.31163e-05
-3.63367e-06
-8.25295e-05
-2.45347e-06
-8.19681e-05
-1.08188e-06
-8.14137e-05
4.33015e-07
-8.08489e-05
2.02399e-06
-8.02561e-05
3.6046e-06
-7.96188e-05
5.074e-06
-7.89168e-05
6.32199e-06
-7.81243e-05
7.23039e-06
-7.72085e-05
7.68498e-06
-7.61231e-05
7.59054e-06
-7.48101e-05
6.84771e-06
-7.32183e-05
5.34246e-06
-7.12885e-05
-6.89229e-05
3.00295e-06
-2.40865e-06
-8.68508e-05
-4.24471e-06
-8.81193e-05
-5.62002e-06
-8.72654e-05
-6.63707e-06
-8.6323e-05
-7.36123e-06
-8.54946e-05
-7.83292e-06
-8.47976e-05
-8.0772e-06
-8.4214e-05
-8.11122e-06
-8.37168e-05
-7.95023e-06
-8.32773e-05
-7.61274e-06
-8.28669e-05
-7.1242e-06
-8.24567e-05
-6.52063e-06
-8.20173e-05
-5.85057e-06
-8.15189e-05
-5.17558e-06
-8.09311e-05
-4.57105e-06
-8.02233e-05
-4.12349e-06
-7.93644e-05
-3.92662e-06
-7.83211e-05
-4.07789e-06
-7.70572e-05
-4.6705e-06
-7.55304e-05
-5.78646e-06
-7.36941e-05
-7.50246e-06
-7.15024e-05
-9.88636e-06
-6.89046e-05
-6.58393e-05
-1.29699e-05
-2.51317e-06
-8.43378e-05
-4.54843e-06
-8.60841e-05
-6.18532e-06
-8.56286e-05
-7.50812e-06
-8.50002e-05
-8.57491e-06
-8.44278e-05
-9.42601e-06
-8.39465e-05
-1.00907e-05
-8.35493e-05
-1.05923e-05
-8.32152e-05
-1.09528e-05
-8.29168e-05
-1.11965e-05
-8.26232e-05
-1.13528e-05
-8.23003e-05
-1.14588e-05
-8.19112e-05
-1.15605e-05
-8.14172e-05
-1.1713e-05
-8.07785e-05
-1.19807e-05
-7.99556e-05
-1.2435e-05
-7.891e-05
-1.3152e-05
-7.76041e-05
-1.42086e-05
-7.60006e-05
-1.5677e-05
-7.4062e-05
-1.76204e-05
-7.17507e-05
-2.00918e-05
-6.90309e-05
-2.31295e-05
-6.58669e-05
-6.22237e-05
-2.67451e-05
-2.57711e-06
-8.17606e-05
-4.76413e-06
-8.38971e-05
-6.61496e-06
-8.37778e-05
-8.19902e-06
-8.34162e-05
-9.56747e-06
-8.30594e-05
-1.07592e-05
-8.27548e-05
-1.18053e-05
-8.25032e-05
-1.27328e-05
-8.22876e-05
-1.35679e-05
-8.20817e-05
-1.43381e-05
-8.18531e-05
-1.50743e-05
-8.1564e-05
-1.58125e-05
-8.1173e-05
-1.65943e-05
-8.06354e-05
-1.74671e-05
-7.99057e-05
-1.84836e-05
-7.89391e-05
-1.97005e-05
-7.76931e-05
-2.11765e-05
-7.61281e-05
-2.29689e-05
-7.42082e-05
-2.51302e-05
-7.19006e-05
-2.77045e-05
-6.91765e-05
-3.07249e-05
-6.60106e-05
-3.42102e-05
-6.23815e-05
-5.82732e-05
-3.81607e-05
-2.60638e-06
-7.91545e-05
-4.90347e-06
-8.16001e-05
-6.92394e-06
-8.17574e-05
-8.72456e-06
-8.16156e-05
-1.03501e-05
-8.14338e-05
-1.18372e-05
-8.12677e-05
-1.32173e-05
-8.11232e-05
-1.45191e-05
-8.09858e-05
-1.57705e-05
-8.08302e-05
-1.70003e-05
-8.06232e-05
-1.82391e-05
-8.03252e-05
-1.952e-05
-7.9892e-05
-2.0879e-05
-7.92763e-05
-2.23551e-05
-7.84296e-05
-2.39894e-05
-7.73048e-05
-2.58244e-05
-7.5858e-05
-2.79024e-05
-7.40501e-05
-3.02632e-05
-7.18473e-05
-3.29418e-05
-6.92221e-05
-3.59651e-05
-6.61532e-05
-3.93504e-05
-6.26253e-05
-4.31034e-05
-5.86286e-05
-5.416e-05
-4.72165e-05
-2.60499e-06
-7.65495e-05
-4.97416e-06
-7.9231e-05
-7.12197e-06
-7.96096e-05
-9.09436e-06
-7.96433e-05
-1.09302e-05
-7.95979e-05
-1.26633e-05
-7.95347e-05
-1.43242e-05
-7.94623e-05
-1.59416e-05
-7.93683e-05
-1.75439e-05
-7.92279e-05
-1.91594e-05
-7.90077e-05
-2.08168e-05
-7.86678e-05
-2.25453e-05
-7.81635e-05
-2.43749e-05
-7.74466e-05
-2.63358e-05
-7.64686e-05
-2.84583e-05
-7.51824e-05
-3.07716e-05
-7.35446e-05
-3.33037e-05
-7.1518e-05
-3.60791e-05
-6.90719e-05
-3.91175e-05
-6.61837e-05
-4.24321e-05
-6.28386e-05
-4.60278e-05
-5.90297e-05
-4.99008e-05
-5.47556e-05
-5.00222e-05
-5.40386e-05
-2.57561e-06
-7.3974e-05
-4.98138e-06
-7.68253e-05
-7.21596e-06
-7.73751e-05
-9.31576e-06
-7.75435e-05
-1.13142e-05
-7.75996e-05
-1.32417e-05
-7.76072e-05
-1.51271e-05
-7.75769e-05
-1.69984e-05
-7.74971e-05
-1.88828e-05
-7.73435e-05
-2.08071e-05
-7.70834e-05
-2.27972e-05
-7.66776e-05
-2.48783e-05
-7.60823e-05
-2.70738e-05
-7.5251e-05
-2.94059e-05
-7.41365e-05
-3.18947e-05
-7.26935e-05
-3.45583e-05
-7.08811e-05
-3.74118e-05
-6.86644e-05
-4.04671e-05
-6.60165e-05
-4.37318e-05
-6.2919e-05
-4.72078e-05
-5.93627e-05
-5.08909e-05
-5.53466e-05
-5.47709e-05
-5.08757e-05
-4.59621e-05
-5.88311e-05
-2.52021e-06
-7.14538e-05
-4.92938e-06
-7.44162e-05
-7.21194e-06
-7.50926e-05
-9.39587e-06
-7.53596e-05
-1.15093e-05
-7.54861e-05
-1.35794e-05
-7.55371e-05
-1.56327e-05
-7.55236e-05
-1.76953e-05
-7.54344e-05
-1.9793e-05
-7.52458e-05
-2.19501e-05
-7.49262e-05
-2.41896e-05
-7.4438e-05
-2.65321e-05
-7.37398e-05
-2.89952e-05
-7.27878e-05
-3.15936e-05
-7.1538e-05
-3.43389e-05
-6.99482e-05
-3.72392e-05
-6.79807e-05
-4.02997e-05
-6.5604e-05
-4.35218e-05
-6.27944e-05
-4.69035e-05
-5.95373e-05
-5.04384e-05
-5.58278e-05
-5.41157e-05
-5.16693e-05
-5.79206e-05
-4.7071e-05
-4.20482e-05
-6.18344e-05
-2.44056e-06
-6.90135e-05
-4.82224e-06
-7.20347e-05
-7.11618e-06
-7.27987e-05
-9.34278e-06
-7.3133e-05
-1.15253e-05
-7.33036e-05
-1.36874e-05
-7.3375e-05
-1.58531e-05
-7.33579e-05
-1.80465e-05
-7.3241e-05
-2.0291e-05
-7.30012e-05
-2.26088e-05
-7.26084e-05
-2.50194e-05
-7.20274e-05
-2.75391e-05
-7.12201e-05
-3.01804e-05
-7.01465e-05
-3.29516e-05
-6.87667e-05
-3.5857e-05
-6.70428e-05
-3.88969e-05
-6.49407e-05
-4.20684e-05
-6.24325e-05
-4.53649e-05
-5.94979e-05
-4.8777e-05
-5.61252e-05
-5.22923e-05
-5.23125e-05
-5.58956e-05
-4.80661e-05
-5.95692e-05
-4.33975e-05
-3.83243e-05
-6.32932e-05
-2.33861e-06
-6.66749e-05
-4.66459e-06
-6.97088e-05
-6.93591e-06
-7.05275e-05
-9.1662e-06
-7.09028e-05
-1.13742e-05
-7.10956e-05
-1.35802e-05
-7.11689e-05
-1.58058e-05
-7.11323e-05
-1.80728e-05
-7.0974e-05
-2.04025e-05
-7.06715e-05
-2.28142e-05
-7.01965e-05
-2.53246e-05
-6.95169e-05
-2.79461e-05
-6.85985e-05
-3.06867e-05
-6.74059e-05
-3.35494e-05
-6.59039e-05
-3.65328e-05
-6.40594e-05
-3.96311e-05
-6.18424e-05
-4.28349e-05
-5.92287e-05
-4.61318e-05
-5.62009e-05
-4.95072e-05
-5.27498e-05
-5.29445e-05
-4.88753e-05
-5.64254e-05
-4.45853e-05
-5.99307e-05
-3.98923e-05
-3.48141e-05
-6.3441e-05
-2.21674e-06
-6.44584e-05
-4.46183e-06
-6.74638e-05
-6.67954e-06
-6.83098e-05
-8.87753e-06
-6.87048e-05
-1.10705e-05
-6.89027e-05
-1.32758e-05
-6.89636e-05
-1.55127e-05
-6.88954e-05
-1.78008e-05
-6.86858e-05
-2.01595e-05
-6.83129e-05
-2.26055e-05
-6.77504e-05
-2.51527e-05
-6.69697e-05
-2.78102e-05
-6.5941e-05
-3.05822e-05
-6.46339e-05
-3.34676e-05
-6.30185e-05
-3.64604e-05
-6.10665e-05
-3.95504e-05
-5.87525e-05
-4.27235e-05
-5.60556e-05
-4.59631e-05
-5.29613e-05
-4.92508e-05
-4.94622e-05
-5.2567e-05
-4.55592e-05
-5.5892e-05
-4.12604e-05
-5.9206e-05
-3.65784e-05
-3.15306e-05
-6.24895e-05
-2.07782e-06
-6.23806e-05
-4.22029e-06
-6.53214e-05
-6.35667e-06
-6.61735e-05
-8.48963e-06
-6.65719e-05
-1.06305e-05
-6.67618e-05
-1.27944e-05
-6.67997e-05
-1.49985e-05
-6.66913e-05
-1.72609e-05
-6.64234e-05
-1.95987e-05
-6.5975e-05
-2.20269e-05
-6.53222e-05
-2.45564e-05
-6.44401e-05
-2.71938e-05
-6.33035e-05
-2.99402e-05
-6.18875e-05
-3.27912e-05
-6.01674e-05
-3.57378e-05
-5.81199e-05
-3.87661e-05
-5.57241e-05
-4.1859e-05
-5.29627e-05
-4.49969e-05
-4.98234e-05
-4.81588e-05
-4.63003e-05
-5.13235e-05
-4.23946e-05
-5.447e-05
-3.8114e-05
-5.75787e-05
-3.34699e-05
-2.8478e-05
-6.06314e-05
-1.92529e-06
-6.04555e-05
-3.94715e-06
-6.32997e-05
-5.97784e-06
-6.41429e-05
-8.01636e-06
-6.45334e-05
-1.00718e-05
-6.47064e-05
-1.21577e-05
-6.47138e-05
-1.42899e-05
-6.4559e-05
-1.64852e-05
-6.4228e-05
-1.87592e-05
-6.3701e-05
-2.11247e-05
-6.29566e-05
-2.35907e-05
-6.1974e-05
-2.61613e-05
-6.07329e-05
-2.88352e-05
-5.92135e-05
-3.16059e-05
-5.73967e-05
-3.44618e-05
-5.5264e-05
-3.73869e-05
-5.2799e-05
-4.03619e-05
-4.99877e-05
-4.33652e-05
-4.68202e-05
-4.63741e-05
-4.32915e-05
-4.9366e-05
-3.94027e-05
-5.23197e-05
-3.51604e-05
-5.52159e-05
-3.05739e-05
-2.56568e-05
-5.80373e-05
-1.7632e-06
-5.86924e-05
-3.65048e-06
-6.14125e-05
-5.55426e-06
-6.22392e-05
-7.47206e-06
-6.26157e-05
-9.4122e-06
-6.27662e-05
-1.13877e-05
-6.27383e-05
-1.34139e-05
-6.25328e-05
-1.55066e-05
-6.21353e-05
-1.76801e-05
-6.15274e-05
-1.99456e-05
-6.06911e-05
-2.23101e-05
-5.96094e-05
-2.47757e-05
-5.82672e-05
-2.73396e-05
-5.66496e-05
-2.99934e-05
-5.47428e-05
-3.27242e-05
-5.25332e-05
-3.55148e-05
-5.00085e-05
-3.83443e-05
-4.71582e-05
-4.11899e-05
-4.39746e-05
-4.40274e-05
-4.0454e-05
-4.68335e-05
-3.65967e-05
-4.95865e-05
-3.24076e-05
-5.22674e-05
-2.7893e-05
-2.30629e-05
-5.48614e-05
-1.59639e-06
-5.70962e-05
-3.33916e-06
-5.96698e-05
-5.09755e-06
-6.04808e-05
-6.871e-06
-6.08423e-05
-8.66919e-06
-6.09681e-05
-1.05059e-05
-6.09016e-05
-1.23968e-05
-6.06419e-05
-1.4357e-05
-6.01751e-05
-1.63996e-05
-5.94848e-05
-1.85342e-05
-5.85564e-05
-2.07662e-05
-5.73774e-05
-2.30963e-05
-5.59371e-05
-2.55201e-05
-5.42257e-05
-2.80288e-05
-5.22341e-05
-3.06086e-05
-4.99533e-05
-3.32419e-05
-4.73752e-05
-3.59071e-05
-4.4493e-05
-3.85804e-05
-4.13014e-05
-4.12366e-05
-3.77978e-05
-4.38509e-05
-3.39825e-05
-4.6401e-05
-2.98577e-05
-4.88684e-05
-2.54258e-05
-2.06918e-05
-5.12397e-05
-1.43112e-06
-5.56652e-05
-3.02318e-06
-5.80778e-05
-4.6196e-06
-5.88845e-05
-6.22703e-06
-5.92349e-05
-7.85945e-06
-5.93356e-05
-9.53296e-06
-5.92281e-05
-1.12638e-05
-5.8911e-05
-1.30668e-05
-5.83721e-05
-1.49536e-05
-5.75979e-05
-1.69323e-05
-5.65777e-05
-1.90067e-05
-5.5303e-05
-2.11764e-05
-5.37674e-05
-2.34365e-05
-5.19656e-05
-2.57779e-05
-4.98926e-05
-2.81873e-05
-4.75439e-05
-3.06473e-05
-4.49153e-05
-3.31366e-05
-4.20037e-05
-3.56307e-05
-3.88073e-05
-3.81031e-05
-3.53255e-05
-4.05271e-05
-3.15586e-05
-4.28782e-05
-2.75067e-05
-4.51376e-05
-2.31666e-05
-1.85348e-05
-4.72947e-05
-1.27536e-06
-5.43899e-05
-2.71394e-06
-5.66393e-05
-4.13256e-06
-5.74659e-05
-5.55338e-06
-5.78141e-05
-6.99858e-06
-5.78904e-05
-8.48796e-06
-5.77387e-05
-1.00387e-05
-5.73603e-05
-1.16645e-05
-5.67462e-05
-1.33756e-05
-5.58868e-05
-1.5178e-05
-5.47752e-05
-1.70742e-05
-5.34068e-05
-1.90629e-05
-5.17787e-05
-2.11394e-05
-4.9889e-05
-2.32956e-05
-4.77364e-05
-2.55194e-05
-4.53201e-05
-2.77949e-05
-4.26398e-05
-3.01019e-05
-3.96967e-05
-3.24162e-05
-3.64931e-05
-3.47097e-05
-3.30321e-05
-3.69525e-05
-2.93159e-05
-3.91162e-05
-2.53431e-05
-4.11791e-05
-2.11039e-05
-1.65821e-05
-4.31319e-05
-1.14054e-06
-5.32495e-05
-2.42566e-06
-5.53543e-05
-3.64947e-06
-5.62421e-05
-4.86277e-06
-5.66008e-05
-6.1012e-06
-5.6652e-05
-7.38909e-06
-5.64508e-05
-8.74374e-06
-5.60056e-05
-1.0177e-05
-5.53128e-05
-1.16964e-05
-5.43674e-05
-1.33057e-05
-5.31659e-05
-1.50059e-05
-5.17066e-05
-1.67955e-05
-4.99891e-05
-1.86706e-05
-4.80139e-05
-2.0625e-05
-4.57821e-05
-2.26492e-05
-4.32958e-05
-2.47306e-05
-4.05585e-05
-2.68516e-05
-3.75757e-05
-2.89896e-05
-3.43553e-05
-3.11155e-05
-3.09062e-05
-3.31953e-05
-2.72362e-05
-3.51928e-05
-2.33457e-05
-3.70783e-05
-1.92186e-05
-1.48175e-05
-3.88431e-05
-1.05432e-06
-5.21953e-05
-2.18044e-06
-5.42282e-05
-3.18515e-06
-5.52375e-05
-4.16736e-06
-5.56186e-05
-5.181e-06
-5.56384e-05
-6.25383e-06
-5.53779e-05
-7.40086e-06
-5.48586e-05
-8.62999e-06
-5.40837e-05
-9.94483e-06
-5.30526e-05
-1.13464e-05
-5.17643e-05
-1.28343e-05
-5.02186e-05
-1.44071e-05
-4.84162e-05
-1.60626e-05
-4.63584e-05
-1.77973e-05
-4.40474e-05
-1.96062e-05
-4.1487e-05