/*--------------------------------*- C++ -*----------------------------------*\
  =========                 |
  \\      /  F ield         | OpenFOAM: The Open Source CFD Toolbox
   \\    /   O peration     | Website:  https://openfoam.org
    \\  /    A nd           | Version:  13
     \\/     M anipulation  |
\*---------------------------------------------------------------------------*/
FoamFile
{
    format      ascii;
    class       volVectorField;
    location    "0.35";
    object      U;
}
// * * * * * * * * * * * * * * * * * * * * * * * * * * * * * * * * * * * * * //

dimensions      [0 1 -1 0 0 0 0];

internalField   nonuniform List<vector> 
2268
(
(-0.0214638 0.00666119 0)
(-0.0108418 -0.00783963 0)
(0.0266522 -0.0136769 0)
(0.0669753 -0.0148736 0)
(0.11006 -0.0151209 0)
(0.153674 -0.0150072 0)
(0.197002 -0.0147382 0)
(0.239585 -0.0143509 0)
(0.281016 -0.0138511 0)
(0.320882 -0.0132387 0)
(0.358729 -0.0124966 0)
(0.394 -0.0115783 0)
(0.425944 -0.0104153 0)
(0.453567 -0.0089316 0)
(0.475577 -0.00700075 0)
(0.490145 -0.00436118 0)
(0.494536 -0.000608325 0)
(0.484279 0.00473796 0)
(0.453026 0.0127471 0)
(0.393618 0.0235798 0)
(0.302685 0.0363541 0)
(0.166359 0.0473807 0)
(0.0469411 0.0340703 0)
(-0.00211206 0.00871919 0)
(0.023511 -0.0180521 0)
(0.0592512 -0.0274102 0)
(0.0982112 -0.0303872 0)
(0.139146 -0.0312683 0)
(0.180465 -0.0313241 0)
(0.221484 -0.0309674 0)
(0.261764 -0.0302861 0)
(0.300888 -0.0292902 0)
(0.338421 -0.0279687 0)
(0.373878 -0.0262727 0)
(0.406663 -0.0240911 0)
(0.435977 -0.0212638 0)
(0.460771 -0.0176039 0)
(0.479704 -0.0128302 0)
(0.490936 -0.00639533 0)
(0.491826 0.00257685 0)
(0.478451 0.0155447 0)
(0.445389 0.0338096 0)
(0.386411 0.0566477 0)
(0.299269 0.0805325 0)
(0.176373 0.0958245 0)
(0.0681873 0.0683667 0)
(0.0172564 -0.00161845 0)
(0.0462732 -0.0329157 0)
(0.0819583 -0.0441734 0)
(0.119243 -0.0481703 0)
(0.15782 -0.0493695 0)
(0.19664 -0.0494193 0)
(0.235191 -0.0488481 0)
(0.273065 -0.0477639 0)
(0.309834 -0.0461679 0)
(0.345037 -0.0440305 0)
(0.378158 -0.0412651 0)
(0.408567 -0.0376897 0)
(0.435419 -0.0330373 0)
(0.457602 -0.0269933 0)
(0.473714 -0.0191147 0)
(0.481924 -0.0085912 0)
(0.479829 0.00590033 0)
(0.464234 0.02647 0)
(0.430669 0.0548403 0)
(0.374095 0.0898631 0)
(0.293238 0.126002 0)
(0.183822 0.150212 0)
(0.0861661 0.125428 0)
(0.0309008 -0.0201549 0)
(0.0626837 -0.0496002 0)
(0.0992003 -0.0611379 0)
(0.135208 -0.0656176 0)
(0.171727 -0.0669568 0)
(0.208271 -0.0669472 0)
(0.244548 -0.0661527 0)
(0.280205 -0.0646659 0)
(0.314809 -0.0624646 0)
(0.34788 -0.059494 0)
(0.37888 -0.0556233 0)
(0.407146 -0.0505872 0)
(0.431787 -0.043992 0)
(0.451604 -0.035375 0)
(0.465107 -0.0241347 0)
(0.470445 -0.00926725 0)
(0.465459 0.0107485 0)
(0.447746 0.0384128 0)
(0.413838 0.0758768 0)
(0.359827 0.121558 0)
(0.28523 0.168156 0)
(0.187101 0.201153 0)
(0.0979326 0.188067 0)
(0.0398203 -0.0440806 0)
(0.0737892 -0.0679322 0)
(0.111512 -0.0785458 0)
(0.146718 -0.0829802 0)
(0.181634 -0.0842604 0)
(0.216268 -0.0841538 0)
(0.250571 -0.0831549 0)
(0.284264 -0.0812924 0)
(0.316931 -0.078503 0)
(0.348089 -0.0746998 0)
(0.377191 -0.0697003 0)
(0.403553 -0.0631393 0)
(0.426224 -0.0544666 0)
(0.443893 -0.0430419 0)
(0.454929 -0.0280932 0)
(0.457363 -0.00851277 0)
(0.449237 0.0171777 0)
(0.429027 0.0515097 0)
(0.394475 0.0969562 0)
(0.342974 0.151588 0)
(0.27463 0.20669 0)
(0.186879 0.248066 0)
(0.10507 0.252231 0)
(0.0464163 -0.0735267 0)
(0.0801687 -0.0877761 0)
(0.118975 -0.0964833 0)
(0.15373 -0.100246 0)
(0.187521 -0.101146 0)
(0.220688 -0.100801 0)
(0.253389 -0.099513 0)
(0.285424 -0.097194 0)
(0.316418 -0.093718 0)
(0.345918 -0.0889628 0)
(0.373386 -0.0827004 0)
(0.398113 -0.0744824 0)
(0.419078 -0.0636309 0)
(0.434832 -0.0493704 0)
(0.443517 -0.0308119 0)
(0.442889 -0.0067279 0)
(0.431008 0.0243214 0)
(0.407295 0.0649899 0)
(0.371317 0.117796 0)
(0.322508 0.179585 0)
(0.261332 0.241389 0)
(0.185116 0.290904 0)
(0.110311 0.31783 0)
(0.0517777 -0.104138 0)
(0.0823219 -0.106037 0)
(0.122069 -0.112311 0)
(0.156507 -0.114968 0)
(0.189584 -0.115229 0)
(0.221721 -0.114495 0)
(0.253172 -0.11282 0)
(0.283814 -0.109996 0)
(0.313351 -0.105847 0)
(0.341387 -0.100226 0)
(0.367397 -0.0928672 0)
(0.390625 -0.0832428 0)
(0.409971 -0.0705456 0)
(0.42383 -0.0538366 0)
(0.430082 -0.0321115 0)
(0.426029 -0.00404928 0)
(0.409722 0.0312728 0)
(0.381398 0.0764215 0)
(0.342991 0.134599 0)
(0.297721 0.203606 0)
(0.246274 0.270853 0)
(0.185044 0.328856 0)
(0.117476 0.38779 0)
(0.0534826 -0.130646 0)
(0.080179 -0.121269 0)
(0.121622 -0.126543 0)
(0.155666 -0.128222 0)
(0.188278 -0.12781 0)
(0.219681 -0.126679 0)
(0.250071 -0.124614 0)
(0.279405 -0.121324 0)
(0.307489 -0.116577 0)
(0.334 -0.110186 0)
(0.35841 -0.101801 0)
(0.3799 -0.0907742 0)
(0.397283 -0.0760984 0)
(0.40889 -0.0565399 0)
(0.412619 -0.0309006 0)
(0.405401 0.0022919 0)
(0.384916 0.042397 0)
(0.351506 0.091325 0)
(0.309262 0.152504 0)
(0.269865 0.222529 0)
(0.232691 0.291866 0)
(0.192372 0.356573 0)
(0.139921 0.463024 0)
(-0.393718 0.133134 0)
(-0.526396 0.0566102 0)
(-0.653117 -0.000149923 0)
(-0.619007 -0.0256026 0)
(-0.525327 -0.0454918 0)
(-0.384769 -0.0616139 0)
(-0.215435 -0.0684595 0)
(-0.0318991 -0.0703417 0)
(0.153366 -0.0635621 0)
(0.299958 -0.0525151 0)
(0.429989 -0.04233 0)
(0.531468 -0.0307205 0)
(0.595458 -0.0165576 0)
(0.613047 6.48533e-05 0)
(0.575728 0.0199012 0)
(0.475797 0.042115 0)
(0.322857 0.0658973 0)
(0.0629393 0.0804674 0)
(-0.141048 -0.0308302 0)
(-0.326173 0.235989 0)
(-0.403321 0.12993 0)
(-0.503962 0.0173088 0)
(-0.457389 -0.0398521 0)
(-0.361269 -0.0743507 0)
(-0.229085 -0.10293 0)
(-0.0752363 -0.116789 0)
(0.0883287 -0.116551 0)
(0.234431 -0.106487 0)
(0.365745 -0.0915315 0)
(0.480394 -0.0746158 0)
(0.569036 -0.0529699 0)
(0.623344 -0.0253234 0)
(0.635273 0.00807929 0)
(0.597662 0.0466231 0)
(0.504588 0.0875652 0)
(0.366489 0.125501 0)
(0.161827 0.139244 0)
(0.0146983 -0.0083353 0)
(-0.268368 0.34561 0)
(-0.28907 0.182994 0)
(-0.381101 0.0142557 0)
(-0.327914 -0.0743202 0)
(-0.22109 -0.126125 0)
(-0.0933022 -0.16102 0)
(0.0441759 -0.176411 0)
(0.179117 -0.17225 0)
(0.302833 -0.157695 0)
(0.417425 -0.137742 0)
(0.517311 -0.112701 0)
(0.593802 -0.0797127 0)
(0.638914 -0.0374102 0)
(0.645306 0.0138395 0)
(0.607255 0.0723819 0)
(0.520695 0.133795 0)
(0.394875 0.188615 0)
(0.221643 0.206275 0)
(0.10009 0.047828 0)
(-0.214505 0.433655 0)
(-0.15615 0.226822 0)
(-0.257135 0.0158822 0)
(-0.209656 -0.0972571 0)
(-0.0914607 -0.173659 0)
(0.0430881 -0.219014 0)
(0.157408 -0.230091 0)
(0.266798 -0.221799 0)
(0.370441 -0.204051 0)
(0.468343 -0.179641 0)
(0.554047 -0.146989 0)
(0.618988 -0.103065 0)
(0.655271 -0.0466497 0)
(0.656045 0.0213994 0)
(0.616527 0.0983895 0)
(0.534061 0.178073 0)
(0.416269 0.247701 0)
(0.259412 0.270512 0)
(0.144417 0.124446 0)
(-0.175961 0.484727 0)
(0.0150685 0.247578 0)
(-0.126069 0.00502804 0)
(-0.0816689 -0.0880386 0)
(0.0345427 -0.207378 0)
(0.183495 -0.269243 0)
(0.272439 -0.274747 0)
(0.355439 -0.262527 0)
(0.438867 -0.243316 0)
(0.520356 -0.21576 0)
(0.59247 -0.176544 0)
(0.646379 -0.122591 0)
(0.674092 -0.053021 0)
(0.669077 0.0306198 0)
(0.627125 0.124479 0)
(0.546499 0.220499 0)
(0.433412 0.303284 0)
(0.284338 0.333554 0)
(0.16717 0.208624 0)
(-0.164138 0.485074 0)
(0.227006 0.251885 0)
(0.117863 0.0402644 0)
(0.32976 -0.237695 0)
(0.18901 -0.219056 0)
(0.335267 -0.310999 0)
(0.390343 -0.305187 0)
(0.443917 -0.292639 0)
(0.506883 -0.274525 0)
(0.572767 -0.245459 0)
(0.632156 -0.200897 0)
(0.675637 -0.13797 0)
(0.695042 -0.0563181 0)
(0.684064 0.0416817 0)
(0.638838 0.150932 0)
(0.558225 0.261733 0)
(0.447281 0.356887 0)
(0.301356 0.397577 0)
(0.179329 0.300749 0)
(-0.15744 0.43489 0)
(0.332623 0.212861 0)
(0.319321 0.0217802 0)
(0.275969 -0.251319 0)
(0.530755 -0.258699 0)
(0.488842 -0.324682 0)
(0.500884 -0.31847 0)
(0.527602 -0.312138 0)
(0.572128 -0.29826 0)
(0.624199 -0.269268 0)
(0.672106 -0.220416 0)
(0.70589 -0.149394 0)
(0.717261 -0.0565432 0)
(0.700135 0.0548027 0)
(0.650912 0.178273 0)
(0.568877 0.30268 0)
(0.458118 0.409804 0)
(0.313006 0.462719 0)
(0.186199 0.397336 0)
(-0.137283 0.372553 0)
(0.378956 0.161019 0)
(0.415457 0.0776196 0)
(0.471301 -0.301578 0)
(0.630967 -0.353428 0)
(0.594884 -0.314341 0)
(0.588547 -0.318468 0)
(0.600244 -0.323625 0)
(0.632084 -0.316292 0)
(0.673228 -0.288418 0)
(0.711247 -0.235902 0)
(0.73614 -0.157289 0)
(0.739694 -0.0537902 0)
(0.716194 0.0701372 0)
(0.662309 0.206964 0)
(0.577702 0.344097 0)
(0.465697 0.462872 0)
(0.320801 0.529092 0)
(0.191373 0.493806 0)
(0.0388554 -0.17276 0)
(0.0667743 -0.151937 0)
(0.110827 -0.156539 0)
(0.145317 -0.156353 0)
(0.17789 -0.155061 0)
(0.208667 -0.153529 0)
(0.237628 -0.151294 0)
(0.26483 -0.148023 0)
(0.290199 -0.143367 0)
(0.313545 -0.13684 0)
(0.33455 -0.127598 0)
(0.352803 -0.114319 0)
(0.367758 -0.0951546 0)
(0.378558 -0.0678131 0)
(0.383641 -0.0300908 0)
(0.380115 0.0198071 0)
(0.365001 0.0795341 0)
(0.33567 0.141552 0)
(0.286262 0.197533 0)
(0.239802 0.25275 0)
(0.227536 0.315686 0)
(0.234773 0.369435 0)
(0.293959 0.453907 0)
(0.0157595 -0.217298 0)
(0.0460136 -0.201738 0)
(0.0839657 -0.200248 0)
(0.118114 -0.196937 0)
(0.150484 -0.192914 0)
(0.181067 -0.188508 0)
(0.209816 -0.183171 0)
(0.236786 -0.176353 0)
(0.261977 -0.1676 0)
(0.285272 -0.15652 0)
(0.306435 -0.142597 0)
(0.325151 -0.125006 0)
(0.341088 -0.102422 0)
(0.353921 -0.072895 0)
(0.363318 -0.0339293 0)
(0.369016 0.0170725 0)
(0.370481 0.0811915 0)
(0.366833 0.156484 0)
(0.356507 0.234361 0)
(0.335772 0.291617 0)
(0.281817 0.328921 0)
(0.288885 0.348274 0)
(0.33659 0.343793 0)
(0.0099092 -0.2351 0)
(0.038534 -0.231955 0)
(0.0720954 -0.228114 0)
(0.104094 -0.223194 0)
(0.134983 -0.217631 0)
(0.164458 -0.21159 0)
(0.192371 -0.204757 0)
(0.218678 -0.196699 0)
(0.243354 -0.186943 0)
(0.266345 -0.174948 0)
(0.28754 -0.16 0)
(0.306816 -0.141121 0)
(0.32417 -0.116969 0)
(0.339855 -0.0856694 0)
(0.354411 -0.0448959 0)
(0.368598 0.00761389 0)
(0.382981 0.0725781 0)
(0.397763 0.148318 0)
(0.413103 0.228194 0)
(0.427921 0.298129 0)
(0.44031 0.337722 0)
(0.410425 0.326204 0)
(0.431443 0.299543 0)
(0.0137756 -0.25668 0)
(0.0396063 -0.262045 0)
(0.0702869 -0.258284 0)
(0.0997444 -0.252778 0)
(0.128518 -0.24636 0)
(0.156256 -0.239188 0)
(0.182778 -0.231072 0)
(0.207966 -0.221647 0)
(0.231743 -0.210467 0)
(0.254057 -0.196986 0)
(0.27487 -0.180488 0)
(0.294192 -0.160079 0)
(0.312326 -0.134692 0)
(0.330075 -0.102809 0)
(0.348684 -0.0623803 0)
(0.369496 -0.0112079 0)
(0.393415 0.051735 0)
(0.421022 0.124533 0)
(0.452938 0.201562 0)
(0.489442 0.271949 0)
(0.530026 0.320112 0)
(0.565125 0.320798 0)
(0.59239 0.269327 0)
(0.0188722 -0.283652 0)
(0.0430116 -0.292265 0)
(0.0727386 -0.287716 0)
(0.100156 -0.281366 0)
(0.126935 -0.27406 0)
(0.152843 -0.26586 0)
(0.177744 -0.256571 0)
(0.201507 -0.245851 0)
(0.224024 -0.233293 0)
(0.245244 -0.2184 0)
(0.265147 -0.200502 0)
(0.283751 -0.178877 0)
(0.30151 -0.153023 0)
(0.319696 -0.122015 0)
(0.340263 -0.0841203 0)
(0.365044 -0.0368241 0)
(0.39508 0.0215639 0)
(0.430398 0.0891675 0)
(0.471583 0.160006 0)
(0.519641 0.224533 0)
(0.574505 0.270411 0)
(0.631787 0.281286 0)
(0.688755 0.247755 0)
(0.0258536 -0.318615 0)
(0.0462582 -0.324704 0)
(0.0761018 -0.318271 0)
(0.101827 -0.310709 0)
(0.126884 -0.30235 0)
(0.151103 -0.293061 0)
(0.174375 -0.282566 0)
(0.196569 -0.270498 0)
(0.217563 -0.256502 0)
(0.237339 -0.24017 0)
(0.255905 -0.220842 0)
(0.273106 -0.197918 0)
(0.289339 -0.171797 0)
(0.306216 -0.142418 0)
(0.326442 -0.108456 0)
(0.352286 -0.0666242 0)
(0.384636 -0.0143688 0)
(0.423141 0.0473015 0)
(0.467869 0.110959 0)
(0.520199 0.167033 0)
(0.580507 0.206249 0)
(0.645841 0.216489 0)
(0.7125 0.189802 0)
(0.0368318 -0.358144 0)
(0.0475667 -0.353759 0)
(0.0774713 -0.344132 0)
(0.101933 -0.335079 0)
(0.125737 -0.325679 0)
(0.148613 -0.315533 0)
(0.170434 -0.304168 0)
(0.191069 -0.29112 0)
(0.210398 -0.276055 0)
(0.228483 -0.258702 0)
(0.24539 -0.238399 0)
(0.260822 -0.214402 0)
(0.275056 -0.188176 0)
(0.289653 -0.160904 0)
(0.308074 -0.132421 0)
(0.332323 -0.0975594 0)
(0.362649 -0.0515245 0)
(0.399609 0.00548137 0)
(0.444801 0.0638235 0)
(0.498983 0.111851 0)
(0.562434 0.143745 0)
(0.632939 0.151037 0)
(0.705649 0.12713 0)
(0.0559306 -0.385955 0)
(0.0449384 -0.373111 0)
(0.0742631 -0.361961 0)
(0.0980713 -0.351826 0)
(0.121546 -0.34131 0)
(0.143823 -0.330257 0)
(0.16468 -0.318065 0)
(0.184007 -0.304163 0)
(0.201733 -0.288237 0)
(0.218 -0.270187 0)
(0.232908 -0.249287 0)
(0.246555 -0.224347 0)
(0.259602 -0.198149 0)
(0.274169 -0.172818 0)
(0.291112 -0.148228 0)
(0.311786 -0.119353 0)
(0.336498 -0.0816655 0)
(0.368384 -0.037268 0)
(0.415696 0.0116655 0)
(0.47602 0.0509498 0)
(0.543636 0.0745122 0)
(0.617651 0.0769115 0)
(0.693869 0.0541715 0)
(0.24711 -0.438643 0)
(0.038443 -0.373149 0)
(0.0730175 -0.36124 0)
(0.0900386 -0.350843 0)
(0.111603 -0.339186 0)
(0.132742 -0.327777 0)
(0.152039 -0.315458 0)
(0.169444 -0.301471 0)
(0.185149 -0.2854 0)
(0.199096 -0.26749 0)
(0.210398 -0.247021 0)
(0.221535 -0.221344 0)
(0.234895 -0.19473 0)
(0.251782 -0.168861 0)
(0.273535 -0.152287 0)
(0.295901 -0.130931 0)
(0.33059 -0.0985264 0)
(0.369305 -0.0705243 0)
(0.415731 -0.0459453 0)
(0.473268 -0.023647 0)
(0.53951 -0.00872086 0)
(0.611319 -0.00918381 0)
(0.6856 -0.0289924 0)
(0.0241907 -0.60788 0)
(0.0323068 -0.314593 0)
(0.081971 -0.433296 0)
(0.0976234 -0.448411 0)
(0.116598 -0.436765 0)
(0.135641 -0.419687 0)
(0.153334 -0.399766 0)
(0.169675 -0.37783 0)
(0.185002 -0.353908 0)
(0.199817 -0.327873 0)
(0.214711 -0.301495 0)
(0.231272 -0.275488 0)
(0.249677 -0.251884 0)
(0.271094 -0.234028 0)
(0.278332 -0.190388 0)
(0.274715 -0.151089 0)
(0.331112 -0.109249 0)
(0.388956 -0.0966665 0)
(0.437685 -0.0788158 0)
(0.492884 -0.0634191 0)
(0.558111 -0.0579461 0)
(0.626798 -0.0663594 0)
(0.6973 -0.0904878 0)
(-0.026254 -0.55819 0)
(0.0160807 -0.400323 0)
(0.0626888 -0.423133 0)
(0.0800978 -0.422803 0)
(0.0964977 -0.411189 0)
(0.112787 -0.396139 0)
(0.128943 -0.37921 0)
(0.145099 -0.36063 0)
(0.16157 -0.340352 0)
(0.178729 -0.318764 0)
(0.197057 -0.296783 0)
(0.216686 -0.274249 0)
(0.239884 -0.251236 0)
(0.264598 -0.223869 0)
(0.289702 -0.226905 0)
(0.323549 -0.24183 0)
(0.371032 -0.268142 0)
(0.36294 -0.148137 0)
(0.41445 -0.0873296 0)
(0.494267 -0.0662282 0)
(0.594871 -0.0796373 0)
(0.667863 -0.107992 0)
(0.728939 -0.135294 0)
(-0.0244803 -0.542361 0)
(0.0105907 -0.451469 0)
(0.0428177 -0.444654 0)
(0.0589504 -0.435494 0)
(0.0727772 -0.422559 0)
(0.086411 -0.407672 0)
(0.100755 -0.391475 0)
(0.11623 -0.374005 0)
(0.133218 -0.355274 0)
(0.152103 -0.335571 0)
(0.17301 -0.315579 0)
(0.195969 -0.295568 0)
(0.221433 -0.274941 0)
(0.253142 -0.255218 0)
(0.287247 -0.235382 0)
(0.322376 -0.239246 0)
(0.356473 -0.239794 0)
(0.394933 -0.257514 0)
(0.470339 -0.303801 0)
(0.549342 -0.343188 0)
(0.607724 -0.264164 0)
(0.668011 -0.162015 0)
(0.755112 -0.159666 0)
(-0.0161438 -0.535866 0)
(0.00623643 -0.482083 0)
(0.0258781 -0.463822 0)
(0.0388709 -0.449586 0)
(0.0504418 -0.435654 0)
(0.0621348 -0.421288 0)
(0.0749327 -0.406272 0)
(0.0893903 -0.390443 0)
(0.105955 -0.373758 0)
(0.125022 -0.356426 0)
(0.146796 -0.33892 0)
(0.171309 -0.32153 0)
(0.198896 -0.304382 0)
(0.230506 -0.287969 0)
(0.266904 -0.27669 0)
(0.303942 -0.270089 0)
(0.341428 -0.265525 0)
(0.384623 -0.260981 0)
(0.432581 -0.284801 0)
(0.470458 -0.300033 0)
(0.505248 -0.328215 0)
(0.56142 -0.363863 0)
(0.622573 -0.410068 0)
(-0.010971 -0.531108 0)
(0.000769128 -0.498595 0)
(0.0116301 -0.477428 0)
(0.0211098 -0.461251 0)
(0.0304289 -0.447112 0)
(0.0403756 -0.433593 0)
(0.051661 -0.42006 0)
(0.0647963 -0.406194 0)
(0.0802076 -0.391885 0)
(0.0982686 -0.377256 0)
(0.119206 -0.362629 0)
(0.143116 -0.348358 0)
(0.170163 -0.334762 0)
(0.200752 -0.322518 0)
(0.234644 -0.312969 0)
(0.269785 -0.307873 0)
(0.305711 -0.304531 0)
(0.34456 -0.305475 0)
(0.381043 -0.313405 0)
(0.413003 -0.319771 0)
(0.447662 -0.316145 0)
(0.491411 -0.329837 0)
(0.537279 -0.350032 0)
(-0.00875902 -0.525722 0)
(-0.00449488 -0.505492 0)
(0.000258491 -0.485298 0)
(0.00626787 -0.469299 0)
(0.013135 -0.455822 0)
(0.0211297 -0.443538 0)
(0.0306499 -0.43172 0)
(0.0420738 -0.419975 0)
(0.0557441 -0.408142 0)
(0.0719566 -0.396266 0)
(0.0909074 -0.384559 0)
(0.112673 -0.37331 0)
(0.137296 -0.362875 0)
(0.164763 -0.353779 0)
(0.194684 -0.346922 0)
(0.225939 -0.342891 0)
(0.257937 -0.341063 0)
(0.290339 -0.342049 0)
(0.320358 -0.347032 0)
(0.347317 -0.35063 0)
(0.376043 -0.35407 0)
(0.405745 -0.362308 0)
(0.428664 -0.376557 0)
(-0.00818267 -0.51873 0)
(-0.0088973 -0.50636 0)
(-0.00843827 -0.48876 0)
(-0.00563227 -0.474245 0)
(-0.00131486 -0.462084 0)
(0.00449401 -0.451295 0)
(0.0119452 -0.441258 0)
(0.0212704 -0.431587 0)
(0.0327057 -0.422096 0)
(0.0464536 -0.412766 0)
(0.0626428 -0.403712 0)
(0.0812946 -0.395134 0)
(0.102343 -0.387291 0)
(0.125602 -0.380558 0)
(0.150613 -0.375413 0)
(0.176597 -0.372208 0)
(0.202874 -0.37082 0)
(0.228657 -0.371495 0)
(0.252411 -0.374096 0)
(0.273793 -0.376618 0)
(0.293829 -0.379102 0)
(0.31098 -0.384579 0)
(0.321428 -0.391347 0)
(-0.00832643 -0.509948 0)
(-0.0123809 -0.503379 0)
(-0.0150489 -0.488882 0)
(-0.0150359 -0.476408 0)
(-0.0132066 -0.46592 0)
(-0.00971749 -0.456798 0)
(-0.00456343 -0.448545 0)
(0.00236818 -0.44082 0)
(0.0112105 -0.433435 0)
(0.0220658 -0.426335 0)
(0.0349917 -0.419551 0)
(0.0499446 -0.413183 0)
(0.0667846 -0.407377 0)
(0.0852401 -0.402339 0)
(0.104851 -0.398311 0)
(0.124974 -0.395443 0)
(0.144923 -0.393706 0)
(0.163885 -0.393114 0)
(0.180841 -0.393409 0)
(0.195278 -0.393706 0)
(0.207033 -0.393956 0)
(0.214924 -0.394618 0)
(0.216798 -0.394443 0)
(-0.0086804 -0.499554 0)
(-0.0150616 -0.497675 0)
(-0.0201165 -0.486315 0)
(-0.0225117 -0.476077 0)
(-0.0230211 -0.467402 0)
(-0.0218449 -0.459953 0)
(-0.0190748 -0.453381 0)
(-0.0147008 -0.447416 0)
(-0.00867553 -0.441873 0)
(-0.000965021 -0.43665 0)
(0.00842888 -0.431704 0)
(0.0193886 -0.427056 0)
(0.031731 -0.422741 0)
(0.0451525 -0.418825 0)
(0.0592089 -0.415381 0)
(0.0733348 -0.412429 0)
(0.0868905 -0.409904 0)
(0.0991422 -0.407704 0)
(0.109303 -0.405558 0)
(0.116801 -0.402967 0)
(0.121132 -0.399692 0)
(0.121477 -0.395577 0)
(0.116537 -0.389725 0)
(-0.00900662 -0.487871 0)
(-0.0170708 -0.489941 0)
(-0.0240173 -0.481525 0)
(-0.0284915 -0.47349 0)
(-0.0311596 -0.466608 0)
(-0.0322229 -0.460759 0)
(-0.0318283 -0.455717 0)
(-0.0300366 -0.451269 0)
(-0.0268741 -0.447244 0)
(-0.0223748 -0.443517 0)
(-0.0166066 -0.43999 0)
(-0.00970572 -0.436594 0)
(-0.00188713 -0.433272 0)
(0.00655009 -0.429974 0)
(0.0151769 -0.426658 0)
(0.023496 -0.42325 0)
(0.030939 -0.419631 0)
(0.0368766 -0.415639 0)
(0.0406689 -0.411017 0)
(0.0417731 -0.405409 0)
(0.0396523 -0.398528 0)
(0.0337631 -0.390054 0)
(0.0232797 -0.379347 0)
(-0.00922806 -0.475218 0)
(-0.0185459 -0.480647 0)
(-0.0270146 -0.474882 0)
(-0.0332797 -0.46889 0)
(-0.0379069 -0.463679 0)
(-0.0410805 -0.459286 0)
(-0.0429764 -0.455578 0)
(-0.0437036 -0.452394 0)
(-0.0433424 -0.449572 0)
(-0.0419772 -0.446967 0)
(-0.0397205 -0.444438 0)
(-0.0367345 -0.441851 0)
(-0.033245 -0.439077 0)
(-0.0295467 -0.435979 0)
(-0.02601 -0.432424 0)
(-0.0230707 -0.428269 0)
(-0.0212161 -0.423349 0)
(-0.0209696 -0.417474 0)
(-0.0228504 -0.410405 0)
(-0.0273246 -0.401858 0)
(-0.0348475 -0.391563 0)
(-0.0457777 -0.379209 0)
(-0.0605817 -0.364381 0)
(-0.00933362 -0.461883 0)
(-0.0195913 -0.470137 0)
(-0.0292883 -0.466692 0)
(-0.0370826 -0.46252 0)
(-0.0434536 -0.458796 0)
(-0.0485623 -0.45567 0)
(-0.0525973 -0.45308 0)
(-0.0556982 -0.4509 0)
(-0.0579824 -0.448978 0)
(-0.0595693 -0.447154 0)
(-0.0605996 -0.445254 0)
(-0.0612495 -0.443097 0)
(-0.0617411 -0.440493 0)
(-0.0623459 -0.437248 0)
(-0.0633861 -0.433168 0)
(-0.065228 -0.42806 0)
(-0.0682714 -0.421729 0)
(-0.0729339 -0.413974 0)
(-0.0796199 -0.404577 0)
(-0.0886926 -0.393312 0)
(-0.100505 -0.379955 0)
(-0.115268 -0.364274 0)
(-0.133195 -0.346017 0)
(-0.0093352 -0.448102 0)
(-0.0202863 -0.45869 0)
(-0.0309576 -0.457223 0)
(-0.0400338 -0.454619 0)
(-0.0479198 -0.452168 0)
(-0.0547515 -0.450102 0)
(-0.0607201 -0.448405 0)
(-0.0659823 -0.446979 0)
(-0.0706779 -0.445679 0)
(-0.0749477 -0.444334 0)
(-0.0789466 -0.442747 0)
(-0.0828527 -0.440703 0)
(-0.0868738 -0.437974 0)
(-0.091249 -0.434325 0)
(-0.0962483 -0.429525 0)
(-0.102167 -0.423352 0)
(-0.109318 -0.415593 0)
(-0.118018 -0.406049 0)
(-0.128563 -0.394529 0)
(-0.141215 -0.380855 0)
(-0.156223 -0.364863 0)
(-0.173699 -0.346402 0)
(-0.193669 -0.325344 0)
(-0.00924677 -0.434077 0)
(-0.0206813 -0.446542 0)
(-0.0320985 -0.446723 0)
(-0.0422177 -0.445428 0)
(-0.0513792 -0.44403 0)
(-0.0596948 -0.442811 0)
(-0.0673507 -0.441791 0)
(-0.0745104 -0.440889 0)
(-0.081325 -0.439965 0)
(-0.0879448 -0.438841 0)
(-0.0945279 -0.437307 0)
(-0.101244 -0.435129 0)
(-0.10828 -0.432054 0)
(-0.115837 -0.427826 0)
(-0.124129 -0.422195 0)
(-0.133384 -0.414922 0)
(-0.143832 -0.405794 0)
(-0.155696 -0.394622 0)
(-0.169178 -0.381242 0)
(-0.184445 -0.36552 0)
(-0.20166 -0.347349 0)
(-0.22086 -0.32665 0)
(-0.241942 -0.303377 0)
(-0.00907907 -0.41998 0)
(-0.0208106 -0.433906 0)
(-0.0327602 -0.435424 0)
(-0.0436888 -0.435191 0)
(-0.0538802 -0.434628 0)
(-0.0634223 -0.434055 0)
(-0.0724921 -0.433513 0)
(-0.0812519 -0.432932 0)
(-0.089855 -0.432175 0)
(-0.0984525 -0.431062 0)
(-0.107197 -0.429378 0)
(-0.116245 -0.42688 0)
(-0.125755 -0.423308 0)
(-0.135888 -0.418397 0)
(-0.146808 -0.411889 0)
(-0.158675 -0.403549 0)
(-0.171644 -0.393167 0)
(-0.18586 -0.38057 0)
(-0.201438 -0.365622 0)
(-0.21847 -0.348228 0)
(-0.237047 -0.328331 0)
(-0.257154 -0.305903 0)
(-0.278594 -0.28096 0)
(-0.00883946 -0.40597 0)
(-0.0206961 -0.42098 0)
(-0.0329769 -0.423549 0)
(-0.0444874 -0.424147 0)
(-0.0554612 -0.42422 0)
(-0.0659641 -0.42411 0)
(-0.0761598 -0.42387 0)
(-0.0862045 -0.423436 0)
(-0.096247 -0.422676 0)
(-0.106433 -0.42141 0)
(-0.116904 -0.419424 0)
(-0.127798 -0.416477 0)
(-0.139245 -0.412312 0)
(-0.151368 -0.406668 0)
(-0.164281 -0.399294 0)
(-0.178087 -0.389961 0)
(-0.192876 -0.378473 0)
(-0.208721 -0.364675 0)
(-0.225674 -0.348457 0)
(-0.24376 -0.329757 0)
(-0.263016 -0.308554 0)
(-0.283387 -0.284863 0)
(-0.304624 -0.258736 0)
(-0.00853262 -0.392191 0)
(-0.0203555 -0.407949 0)
(-0.0327769 -0.411314 0)
(-0.0446497 -0.412534 0)
(-0.0561621 -0.413065 0)
(-0.0673597 -0.413257 0)
(-0.0783908 -0.413169 0)
(-0.0894014 -0.412741 0)
(-0.100532 -0.411842 0)
(-0.111919 -0.4103 0)
(-0.123689 -0.407905 0)
(-0.13596 -0.404426 0)
(-0.148835 -0.399619 0)
(-0.162402 -0.393235 0)
(-0.17673 -0.385037 0)
(-0.191873 -0.374812 0)
(-0.207866 -0.36238 0)
(-0.224728 -0.347606 0)
(-0.242454 -0.3304 0)
(-0.261022 -0.310727 0)
(-0.280428 -0.288595 0)
(-0.300587 -0.264046 0)
(-0.321223 -0.237158 0)
(-0.0081628 -0.37878 0)
(-0.0198044 -0.394987 0)
(-0.0321889 -0.398922 0)
(-0.0442146 -0.400583 0)
(-0.0560309 -0.401417 0)
(-0.0676639 -0.401774 0)
(-0.0792464 -0.401716 0)
(-0.0909123 -0.401181 0)
(-0.102791 -0.400043 0)
(-0.115007 -0.398135 0)
(-0.127672 -0.395261 0)
(-0.140884 -0.391204 0)
(-0.154721 -0.385737 0)
(-0.169238 -0.378634 0)
(-0.18447 -0.369676 0)
(-0.200427 -0.35867 0)
(-0.217104 -0.345455 0)
(-0.234473 -0.329913 0)
(-0.252489 -0.311974 0)
(-0.271094 -0.291622 0)
(-0.290251 -0.268883 0)
(-0.309862 -0.243816 0)
(-0.329639 -0.216514 0)
(-0.00773499 -0.365861 0)
(-0.0190606 -0.382253 0)
(-0.031245 -0.386564 0)
(-0.0432279 -0.38851 0)
(-0.0551258 -0.389517 0)
(-0.0669483 -0.389929 0)
(-0.0788123 -0.389802 0)
(-0.0908392 -0.389075 0)
(-0.103147 -0.387625 0)
(-0.115847 -0.385292 0)
(-0.129037 -0.381896 0)
(-0.142795 -0.377241 0)
(-0.157178 -0.371122 0)
(-0.172215 -0.363336 0)
(-0.187909 -0.353691 0)
(-0.204241 -0.342015 0)
(-0.221169 -0.328165 0)
(-0.238633 -0.312042 0)
(-0.256559 -0.29359 0)
(-0.27486 -0.272803 0)
(-0.293481 -0.249723 0)
(-0.31231 -0.224416 0)
(-0.331067 -0.19698 0)
(-0.00725674 -0.35355 0)
(-0.0181443 -0.369892 0)
(-0.029983 -0.374416 0)
(-0.0417428 -0.376519 0)
(-0.0535163 -0.377594 0)
(-0.065299 -0.377972 0)
(-0.077194 -0.377703 0)
(-0.0893107 -0.376721 0)
(-0.101756 -0.374907 0)
(-0.114629 -0.372113 0)
(-0.128014 -0.368175 0)
(-0.141973 -0.36292 0)
(-0.156542 -0.356169 0)
(-0.171729 -0.347748 0)
(-0.187516 -0.337489 0)
(-0.203857 -0.325244 0)
(-0.220685 -0.310891 0)
(-0.237919 -0.294344 0)
(-0.25546 -0.27556 0)
(-0.273205 -0.254541 0)
(-0.291081 -0.231332 0)
(-0.308974 -0.206002 0)
(-0.326621 -0.178648 0)
(-0.00673921 -0.341947 0)
(-0.0170792 -0.35803 0)
(-0.0284463 -0.362636 0)
(-0.0398192 -0.364796 0)
(-0.0512801 -0.365856 0)
(-0.0628138 -0.366134 0)
(-0.0745117 -0.365668 0)
(-0.0864737 -0.364387 0)
(-0.0987971 -0.362176 0)
(-0.11157 -0.3589 0)
(-0.124863 -0.354414 0)
(-0.138724 -0.348568 0)
(-0.153174 -0.341215 0)
(-0.168205 -0.332206 0)
(-0.183779 -0.321402 0)
(-0.199835 -0.308678 0)
(-0.216287 -0.293932 0)
(-0.233036 -0.277092 0)
(-0.24997 -0.258121 0)
(-0.266972 -0.237027 0)
(-0.283961 -0.213854 0)
(-0.30082 -0.188667 0)
(-0.317305 -0.161557 0)
(-0.0061984 -0.331136 0)
(-0.0158918 -0.346776 0)
(-0.0266834 -0.351366 0)
(-0.0375223 -0.353506 0)
(-0.0485007 -0.354495 0)
(-0.0595966 -0.354625 0)
(-0.0708938 -0.353922 0)
(-0.082485 -0.352311 0)
(-0.0944594 -0.349683 0)
(-0.106895 -0.345914 0)
(-0.119853 -0.340882 0)
(-0.133367 -0.334464 0)
(-0.147447 -0.326538 0)
(-0.162071 -0.316987 0)
(-0.177189 -0.305699 0)
(-0.192727 -0.292572 0)
(-0.208589 -0.277522 0)
(-0.224663 -0.260491 0)
(-0.240826 -0.241448 0)
(-0.256956 -0.2204 0)
(-0.272961 -0.197387 0)
(-0.288727 -0.172465 0)
(-0.304035 -0.145716 0)
(-0.00565754 -0.321178 0)
(-0.0146116 -0.336215 0)
(-0.0247475 -0.340727 0)
(-0.0349201 -0.342801 0)
(-0.0452635 -0.343679 0)
(-0.0557535 -0.343629 0)
(-0.0664708 -0.342662 0)
(-0.0775039 -0.340701 0)
(-0.0889357 -0.337641 0)
(-0.100836 -0.333377 0)
(-0.113255 -0.327806 0)
(-0.126218 -0.320833 0)
(-0.139723 -0.312365 0)
(-0.15374 -0.302312 0)
(-0.168211 -0.290589 0)
(-0.183054 -0.277119 0)
(-0.198166 -0.261835 0)
(-0.213428 -0.24469 0)
(-0.22871 -0.22566 0)
(-0.243882 -0.204749 0)
(-0.258848 -0.181989 0)
(-0.27349 -0.157423 0)
(-0.28762 -0.131117 0)
(-0.00514993 -0.312115 0)
(-0.0132696 -0.326412 0)
(-0.0226954 -0.330825 0)
(-0.0320815 -0.332814 0)
(-0.0416526 -0.333562 0)
(-0.0513882 -0.333311 0)
(-0.0613705 -0.33206 0)
(-0.0716862 -0.329731 0)
(-0.0824132 -0.326231 0)
(-0.0936135 -0.32147 0)
(-0.105328 -0.31537 0)
(-0.117573 -0.30786 0)
(-0.13034 -0.298875 0)
(-0.143592 -0.288353 0)
(-0.157269 -0.276235 0)
(-0.171285 -0.262464 0)
(-0.185535 -0.246994 0)
(-0.199895 -0.22979 0)
(-0.214231 -0.210834 0)
(-0.228404 -0.190126 0)
(-0.242307 -0.167688 0)
(-0.255827 -0.143543 0)
(-0.268796 -0.117735 0)
(-0.00472589 -0.303965 0)
(-0.011899 -0.317409 0)
(-0.0205885 -0.321755 0)
(-0.0290741 -0.323667 0)
(-0.0377484 -0.324278 0)
(-0.046599 -0.323811 0)
(-0.0557142 -0.32226 0)
(-0.0651804 -0.31955 0)
(-0.0750698 -0.315602 0)
(-0.085436 -0.310345 0)
(-0.096311 -0.303723 0)
(-0.107704 -0.295692 0)
(-0.119601 -0.286212 0)
(-0.131965 -0.275244 0)
(-0.144735 -0.262754 0)
(-0.157828 -0.248708 0)
(-0.171141 -0.233079 0)
(-0.18455 -0.215848 0)
(-0.197913 -0.197003 0)
(-0.211085 -0.176544 0)
(-0.223944 -0.154479 0)
(-0.236365 -0.130806 0)
(-0.248206 -0.105535 0)
(-0.00446261 -0.296726 0)
(-0.0105313 -0.309226 0)
(-0.0184934 -0.313598 0)
(-0.025964 -0.31547 0)
(-0.0336261 -0.315948 0)
(-0.041478 -0.315254 0)
(-0.0496167 -0.313384 0)
(-0.0581266 -0.310277 0)
(-0.0670719 -0.305872 0)
(-0.0764957 -0.30012 0)
(-0.0864208 -0.292987 0)
(-0.0968502 -0.28445 0)
(-0.107768 -0.274489 0)
(-0.11914 -0.263089 0)
(-0.130913 -0.250237 0)
(-0.143011 -0.235922 0)
(-0.155339 -0.220136 0)
(-0.167776 -0.20288 0)
(-0.180181 -0.184159 0)
(-0.192393 -0.163975 0)
(-0.204264 -0.142322 0)
(-0.215652 -0.119169 0)
(-0.226421 -0.0944686 0)
(-0.00449847 -0.290306 0)
(-0.00920061 -0.301866 0)
(-0.0164878 -0.306442 0)
(-0.0228167 -0.308334 0)
(-0.0293562 -0.308683 0)
(-0.0361118 -0.30774 0)
(-0.0431866 -0.305527 0)
(-0.0506574 -0.302006 0)
(-0.058575 -0.297139 0)
(-0.0669687 -0.290896 0)
(-0.0758507 -0.283264 0)
(-0.0852194 -0.274234 0)
(-0.0950605 -0.263806 0)
(-0.105347 -0.251979 0)
(-0.116039 -0.238759 0)
(-0.127076 -0.224156 0)
(-0.138381 -0.208187 0)
(-0.149845 -0.190877 0)
(-0.16133 -0.172257 0)
(-0.172663 -0.152345 0)
(-0.183661 -0.131135 0)
(-0.194129 -0.108554 0)
(-0.203911 -0.0844696 0)
(-0.00514787 -0.28437 0)
(-0.00797735 -0.295343 0)
(-0.0146693 -0.300397 0)
(-0.019697 -0.302379 0)
(-0.025004 -0.302585 0)
(-0.030583 -0.301356 0)
(-0.0365298 -0.298765 0)
(-0.0429013 -0.294811 0)
(-0.0497267 -0.289477 0)
(-0.0570167 -0.282755 0)
(-0.0647722 -0.274642 0)
(-0.0729881 -0.26514 0)
(-0.0816548 -0.254256 0)
(-0.0907578 -0.242002 0)
(-0.100275 -0.228395 0)
(-0.110174 -0.213463 0)
(-0.120404 -0.197249 0)
(-0.130887 -0.179811 0)
(-0.141502 -0.161218 0)
(-0.152074 -0.141533 0)
(-0.162371 -0.120769 0)
(-0.172111 -0.0988263 0)
(-0.181049 -0.0754378 0)
(-0.00716338 -0.278355 0)
(-0.007084 -0.289722 0)
(-0.0131547 -0.295623 0)
(-0.0166575 -0.297749 0)
(-0.0206234 -0.29775 0)
(-0.02497 -0.296165 0)
(-0.0297517 -0.29315 0)
(-0.0349855 -0.288744 0)
(-0.0406684 -0.282951 0)
(-0.0467893 -0.275773 0)
(-0.0533375 -0.26721 0)
(-0.0603062 -0.257264 0)
(-0.0676927 -0.245943 0)
(-0.0754978 -0.233261 0)
(-0.0837238 -0.219241 0)
(-0.0923709 -0.203921 0)
(-0.101432 -0.187364 0)
(-0.110878 -0.169666 0)
(-0.120639 -0.150952 0)
(-0.130569 -0.131361 0)
(-0.140406 -0.11099 0)
(-0.14972 -0.0897618 0)
(-0.158042 -0.0672226 0)
(-0.0118781 -0.27224 0)
(-0.00691998 -0.285096 0)
(-0.0120229 -0.292285 0)
(-0.0137171 -0.294574 0)
(-0.0162492 -0.294245 0)
(-0.0193466 -0.292197 0)
(-0.022959 -0.288706 0)
(-0.0270365 -0.283841 0)
(-0.0315366 -0.277615 0)
(-0.0364256 -0.270022 0)
(-0.0416834 -0.261056 0)
(-0.0473033 -0.25071 0)
(-0.0532903 -0.238985 0)
(-0.0596603 -0.225885 0)
(-0.0664395 -0.21143 0)
(-0.0736643 -0.195657 0)
(-0.0813798 -0.178637 0)
(-0.0896318 -0.16049 0)
(-0.0984447 -0.141405 0)
(-0.107776 -0.12164 0)
(-0.117413 -0.101481 0)
(-0.126763 -0.081038 0)
(-0.134845 -0.0596692 0)
(-0.0207309 -0.267071 0)
(-0.00756628 -0.282128 0)
(-0.0112072 -0.290733 0)
(-0.0108632 -0.292966 0)
(-0.0119065 -0.292064 0)
(-0.0137878 -0.289422 0)