/*--------------------------------*- C++ -*----------------------------------*\
  =========                 |
  \\      /  F ield         | OpenFOAM: The Open Source CFD Toolbox
   \\    /   O peration     | Website:  https://openfoam.org
    \\  /    A nd           | Version:  13
     \\/     M anipulation  |
\*---------------------------------------------------------------------------*/
FoamFile
{
    format      ascii;
    class       volScalarField;
    location    "0.75";
    object      alphas;
}
// * * * * * * * * * * * * * * * * * * * * * * * * * * * * * * * * * * * * * //

dimensions      [];

internalField   nonuniform List<scalar> 
2268
(
2
2
2
2
2
2
2
2
2
2
2
2
2
2
2
2
2
2
2
2
1.99994
1.99946
1.99943
2
2
2
2
2
2
2
2
2
2
2
2
2
2
2
2
2
2
2
2
1.99999
1.99974
1.99944
2
2
2
2
2
2
2
2
2
2
2
2
2
2
2
2
2
2
2
2
2
1.99999
1.99997
1.59761
1.60562
1.72059
1.88402
2
2
2
2
2
2
2
2
2
2
2
2
2
2
2
2
2
2
2
0.0660233
0.159736
0.288193
0.523551
0.938222
1.49872
1.9006
2
2
2
2
2
2
2
2
2
2
2
2
2
2
2
1.99999
4.42456e-09
3.63548e-09
3.73621e-09
3.939e-09
0.00371449
0.125748
0.550294
1.31813
1.88322
2
2
2
2
2
2
2
2
2
2
2
2
2
1.99997
1.68446e-09
1.56449e-09
1.57231e-09
1.66972e-09
3.40114e-09
4.51325e-09
5.66683e-09
0.0504112
0.446235
1.2174
1.81212
1.99628
1.99986
2
2
2
2
2
2
1.99972
1.98463
1.92979
1.83908
1.82442e-09
1.72721e-09
1.73731e-09
1.8593e-09
1.98567e-09
1.93424e-09
1.41948e-09
1.20846e-09
1.10028e-09
0.0273175
0.270278
0.762988
1.36187
1.66042
1.6816
1.62744
1.59764
1.57496
1.51556
1.3929
1.16239
0.897702
0.665665
1.11997
1.05011
1.04998
1.04898
1.05244
1.15479
1.3718
1.48746
1.47885
1.41958
1.32842
1.29233
1.29169
1.41155
1.84097
2.64619
2.72109
2.72088
2.72112
1.32558
1.088
1.05427
1.16072
1.2832
1.57339
1.83071
1.81366
1.79896
1.80172
1.81008
1.82037
1.83779
1.66858
2.31117
2.57485
2.56343
2.63634
2.72042
1.33442
1.12812
1.27014
1.31274
1.09088
0.923476
0.84145
0.882752
0.995211
1.14438
1.28285
1.41939
1.64276
1.73707
2.20331
2.53961
2.5286
2.41669
2.40509
1.33163
1.29111
1.15554
0.858643
0.642296
0.213394
0.000699815
0.000694494
0.000588476
0.00276885
0.00479913
0.00920493
0.345453
1.37927
1.68399
2.15231
2.04998
1.94442
2.17044
1.16031
1.03749
0.529287
0.138405
0.000520187
0.000497633
0.000452206
0.000316136
0.000301201
0.000300705
0.00406615
0.00471434
0.00253393
0.697492
1.44721
1.93275
1.92976
1.7447
2.17434
0.861433
0.664185
0.0411491
0.000533461
0.000316978
0.000302371
0.000320592
0.000336746
0.000326646
0.000313701
0.000309498
0.000672933
0.000686223
0.0307678
1.11011
1.60612
1.57305
1.73453
2.13129
0.631359
0.0307244
0.000653367
0.000417102
0.000337823
0.000303708
0.00030337
0.000367665
0.000877933
0.00590417
0.00237343
0.000464471
0.000504831
0.00200979
0.403781
1.48289
1.67751
1.47082
1.95742
0.0574068
0.000899688
0.000805457
0.000573813
0.00628836
0.0620641
0.14461
0.22581
0.327996
0.423105
0.373952
0.200661
0.000782317
0.000827223
0.00462942
0.572706
0.777203
1.06932
1.83688
1.8802e-09
1.87361e-09
1.96761e-09
2.1446e-09
2.22668e-09
2.26417e-09
2.05985e-09
1.64028e-09
1.25146e-09
9.67757e-10
1.05045e-09
0.000550245
0.0145686
0.0690019
0.175493
0.290376
0.351554
0.352597
0.314559
0.251648
0.157393
0.0780422
0.0315747
1.85078e-09
1.85685e-09
1.90624e-09
2.05564e-09
2.29866e-09
2.66664e-09
3.03912e-09
3.11923e-09
2.87093e-09
2.50283e-09
1.82414e-09
1.5734e-09
1.21835e-09
1.0281e-09
1.33809e-09
2.18226e-09
3.66178e-09
5.1348e-09
6.04609e-09
2.48432e-07
1.07755e-08
9.1555e-07
2.84119e-05
1.84471e-09
1.84475e-09
1.84472e-09
1.84485e-09
1.84478e-09
1.92997e-09
2.38188e-09
3.48958e-09
6.0804e-09
7.368e-09
6.54338e-09
3.76121e-09
2.23215e-09
2.33749e-09
3.54211e-09
4.56174e-09
5.09667e-09
7.13946e-09
8.96708e-09
1.294e-08
1.58214e-08
2.09654e-06
0.000621836
1.84475e-09
1.84471e-09
1.84475e-09
1.847e-09
1.85078e-09
1.87349e-09
1.87243e-09
2.16009e-09
2.64091e-09
3.21473e-09
3.79708e-09
3.30569e-09
2.29447e-09
2.46463e-09
3.12911e-09
2.69689e-09
0.00712775
0.0591264
0.168391
0.320473
0.508791
0.727038
1.05776
0.406236
0.659351
0.856168
0.932166
0.91355
0.839167
0.7147
0.549125
0.392585
0.301226
0.311267
0.386356
0.508388
0.660247
0.832589
1.07293
1.46219
1.86804
2.21089
2.46054
2.65059
2.81242
2.93481
2.54877
2.75115
2.85457
2.88673
2.88413
2.86236
2.82675
2.80281
2.81302
2.82629
2.79669
2.79271
2.83101
2.87537
2.93294
3
3
2.99999
2.99999
2.99998
2.99997
2.99986
2.99986
3
3
3
3
3
3
3
3
3
3
3
3
3
3
3
3
3
3
3
2.99999
2.99999
2.99998
2.99998
3
3
3
3
3
3
3
3
3
3
3
3
3
3
3
3
3
3
3
2.99995
2.99994
3
3
3
3
3
3
3
3
3
3
3
3
3
3
3
3
3
3
3
3
3
2.99996
2.99956
2.99965
3
3
3
3
3
3
3
3
3
3
3
3
3
3
3
3
3
3
3
3
2.99999
2.99953
2.99945
2.99976
3
3
3
3
3
3
3
3
3
3
3
3
3
3
3
3
3
3
3
3
2.99984
2.99941
2.99965
3
3
3
3
3
3
3
3
3
3
3
3
3
3
3
3
3
3
3
3
3
2.99994
2.99991
3
3
3
3
3
3
3
3
3
3
3
3
3
3
3
3
3
3
3
3
3
3
2.99999
3
3
3
3
3
3
3
3
3
3
3
3
3
3
3
3
3
3
3
3
3
3
2.99999
3
3
3
3
3
3
3
3
3
3
3
3
3
3
3
3
3
3
3
3
3
3
3
3
3
3
3
3
3
3
3
3
3
3
3
3
3
3
3
3
3
3
3
3
3
3
3
3
3
3
3
3
3
3
3
3
3
3
3
3
3
3
3
3
3
3
3
3
3
3
3
3
3
3
3
3
3
3
3
3
3
3
3
3
3
3
3
3
3
3
3
3
3
3
3
3
3
3
3
3
3
3
3
3
3
3
3
3
3
3
3
3
3
3
3
3
3
3
3
3
3
3
3
3
3
3
3
3
3
3
3
3
3
3
3
3
3
3
3
3
3
3
3
3
3
3
3
3
3
3
3
3
3
3
3
3
3
3
3
3
3
3
3
3
3
3
3
3
3
3
3
3
3
3
3
3
3
3
3
3
3
3
3
3
3
3
3
3
3
3
3
3
3
3
3
3
3
3
3
3
3
3
3
3
3
3
3
3
3
3
3
3
3
3
3
3
3
3
3
3
3
3
3
3
3
3
3
3
3
3
3
3
3
3
3
3
3
3
3
3
3
3
3
3
3
3
3
3
3
3
3
3
3
3
3
3
3
3
3
3
3
3
3
3
3
3
3
3
3
3
3
3
3
3
3
3
3
3
3
3
3
3
3
3
3
3
3
3
3
3
3
3
3
3
3
3
3
3
3
3
3
3
3
3
3
3
3
3
3
3
3
3
3
3
3
3
3
3
3
3
3
3
3
3
3
3
3
3
3
3
3
3
3
3
3
3
3
3
3
3
3
3
3
3
3
3
3
3
3
3
3
3
3
3
3
3
3
3
3
3
3
3
3
3
3
3
3
3
3
3
3
3
3
3
3
3
3
3
3
3
3
3
3
3
3
3
3
3
3
3
3
3
3
3
3
3
3
3
3
3
3
3
3
3
3
3
3
3
3
3
3
3
3
3
3
3
3
3
3
3
3
3
3
3
3
3
3
3
3
3
3
3
3
3
3
3
3
3
3
3
3
3
3
3
3
3
3
3
3
3
3
3
3
3
3
3
3
3
3
3
3
3
3
3
3
3
3
3
3
3
3
3
3
3
3
3
3
3
3
3
3
3
3
3
3
3
3
3
3
3
3
3
3
3
3
3
3
3
3
3
3
3
3
3
3
3
3
3
3
3
3
3
3
3
3
3
3
3
3
3
3
3
3
3
3
3
3
3
3
3
3
3
3
3
3
3
3
3
3
3
3
3
3
3
3
3
3
3
3
3
3
3
3
3
3
3
3
3
3
3
3
3
3
3
3
3
3
3
3
3
3
3
3
3
3
3
3
3
3
3
3
3
3
3
3
3
3
3
3
3
3
3
3
3
3
3
3
3
3
3
3
3
3
3
3
3
3
3
3
3
3
3
3
3
3
3
3
3
3
3
3
3
3
3
3
3
3
3
3
3
3
3
3
3
3
3
3
3
3
3
3
3
3
3
0.261821
0.234634
0.533001
0.539097
0.00105141
0.00174967
0.00438961
0.00888685
0.059159
0.143383
0.292699
1.06446
1.6067
2.26008
2.84509
2.8823
2.98571
2.98845
2.45878
1.28447
2.99989
1.82046
1
1
3
2.85222
1.28183
1
3
3
2.84655
1.77037
3
3
3
2.95892
3
3
3
3
3
3
3
3
3
3
3
3
2.99998
2.99999
2.99999
2.99998
2.99998
2.99998
2.99998
2.99998
2.99999
2.99998
2.99998
2.99998
3
3
2.99999
2.99999
3
3
3
3
3
3
3
3
3
3
3
3
3
3
3
3
3
3
3
3
3
3
3
3
3
3
3
3
3
3
3
3
3
3
3
3
3
3
3
3
3
3
3
3
3
3
3
3
3
3
3
3
3
3
3
3
3
3
3
3
3
3
3
3
3
3
3
3
3
3
3
3
3
3
3
3
3
3
3
3
3
3
3
3
3
3
3
3
3
3
3
3
3
3
3
3
3
3
3
3
3
3
3
3
0.168277
0.0153699
0.231769
0.316364
0.551036
0.71336
0.804144
0.866292
0.923219
0.950497
0.92639
0.831766
0.557946
0.181444
0.00225658
0.0170694
0.0278903
0.76881
1.91761
0.23094
1.31658
1.88146
1.39713
1.12973
1.06074
1.00957
1.00373
1.00119
1.00028
1.00008
1.00017
1.00009
0.906747
0.577173
0.210052
0.290187
0.953713
1.75949
2.27943
2.51448
2.11669
1.10089
1.00655
1.00851
1
1
1
1
1
1
1
0.999996
0.999099
0.916504
0.953792
1.04424
1.65831
2.82653
1.68484
1
1
1
1
1
1
1
1
1
1
1
1.00592
1.04225
0.996805
0.997217
1.02268
1.35667
1.00235
1
1
1
1
1
1
1
1
1
1
1
1
1
1.08803
1.2215
1.01811
1.10932
1.52687
1
1
1
1
1
1
1
1
1
1
1
1.00001
1.00001
1
1.00296
1.32201
1.88412
1.88491
2.31602
1
1
1
1
1
1
1
1
1
1
1
1
1
1
1
1.06816
1.64808
2.12742
2.58618
1.11389
1
1
1
1
1.00009
1.00018
1.00012
1.00001
1
1
1
1
1
1
1
1.04314
1.83626
2.79839
1.98637
1.00215
1
1
1
1.00019
1.00029
1.00029
1.00008
1
1
1
1
1
1
1
1.13433
2.27634
2.79873
2.95912
1.96661
1.0864
1
1
1.00004
1.00021
1.00025
1.00004
1
1
1
1
1.00001
1
1
1.07633
1.94904
2.50415
3
3
2.35866
1.35792
1.0097
1
1
1
1
1
1
1
1
1
1
1.00001
1
1
1.0103
3
3
3
2.90705
2.04398
1.31934
1.01425
1
1
1
1
1
1
1
1
1
1
1
1
2.99999
3
3
3
3
2.84923
2.05463
1.39769
1.08466
1.001
1
1
1
1
1
1
1.00415
1.07513
1.18925
2.99998
2.99999
3
3
3
3
3
2.92377
2.40189
1.88918
1.48917
1.27609
1.16017
1.12215
1.16367
1.48114
1.97556
2.38936
2.70316
2.99998
2.99999
3
3
3
3
3
3
3
3
2.9376
2.75306
2.60315
2.5397
2.6582
2.93254
2.99635
2.97791
2.96464
2.99999
3
3
3
3
3
3
3
3
3
3
3
3
3
3
3
2.99373
2.90057
2.96451
3
3
3
3
3
3
3
2.99999
2.99999
3
3
3
3
2.99999
3
3
2.97822
2.84963
2.95897
3
3
3
3
3
3
3
2.99999
2.99999
2.99999
3
3
2.99999
2.99998
2.99998
3
2.99641
2.89138
2.9719
3
3
3
3
3
3
3
3
2.99999
2.99999
2.99999
3
3
2.99998
2.99998
3
2.99625
2.99995
2.99999
3
3
3
3
3
3
3
3
3
3
2.99999
3
3
3
2.99999
3
2.99252
2.99965
2.99999
3
3
3
3
3
3
3
3
3
3
3
3
3
3
3
3
2.99262
2.9986
2.99999
3
3
3
3
3
3
3
3
3
3
3
3
3
3
3
3
2.99863
2.9989
2.99999
3
3
3
3
3
3
3
3
3
3
3
3
3
3
3
3
3
3
2.99998
3
3
3
3
3
3
3
3
3
3
3
3
3
3
3
3
3
3
3
3
3
3
3
3
3
3
3
3
3
3
3
3
3
3
3
3
3
3
3
3
3
3
3
3
3
3
3
3
3
3
3
3
3
3
3
3
3
3
3
3
3
3
3
3
3
3
3
3
3
3
3
3
3
3
3
3
3
3
3
3
3
3
3
3
3
3
3
3
3
3
3
3
3
3
3
3
3
3
3
3
3
3
3
3
3
3
3
3
3
3
3
3
3
3
3
3
3
3
3
3
3
3
3
3
3
3
3
3
3
3
3
3
3
3
3
3
3
3
3
3
3
3
3
3
3
3
3
3
3
3
3
3
3
3
3
3
3
3
3
3
3
3
3
3
3
3
3
3
3
3
3
3
3
3
3
3
3
3
3
3
3
3
3
3
3
3
3
3
3
3
3
3
3
3
3
3
3
3
3
3
3
3
3
3
3
3
3
3
3
3
3
3
3
3
3
3
3
3
3
3
3
3
3
3
3
3
3
3
3
3
3
3
3
3
3
3
3
3
3
3
3
3
3
3
3
3
3
3
3
3
3
3
3
3
3
3
3
3
3
3
3
3
3
3
3
3
3
3
3
3
3
3
3
3
3
3
3
3
3
3
3
3
3
3
3
3
3
3
3
3
3
3
3
3
3
3
3
3
3
3
3
3
3
3
3
3
3
3
3
3
3
3
3
3
3
3
3
3
3
3
3
3
3
3
3
3
3
3
3
3
3
3
3
3
3
3
3
3
3
3
3
3
3
3
3
3
3
3
3
3
3
3
3
3
3
3
3
3
3
3
3
)
;

boundaryField
{
    leftWall
    {
        type            calculated;
        value           nonuniform List<scalar> 
50
(
2
2
2
1.59761
0.0660233
4.42456e-09
1.68446e-09
1.82442e-09
1.8802e-09
1.85078e-09
1.84471e-09
1.84475e-09
0.406236
2.54877
3
3
3
3
3
3
3
3
3
3
3
3
3
3
3
3
3
3
3
3
3
3
3
3
3
3
3
3
3
3
3
3
3
3
3
3
)
;
    }
    rightWall
    {
        type            calculated;
        value           nonuniform List<scalar> 
50
(
2.72112
2.72042
2.40509
2.17044
2.17434
2.13129
1.95742
1.83688
1.91761
1.75949
1.65831
1.35667
1.52687
2.31602
2.58618
2.79839
2.79873
2.50415
1.0103
1
1.18925
2.70316
2.96464
2.96451
2.95897
2.9719
2.99999
2.99999
2.99999
2.99999
2.99998
3
3
3
3
3
3
3
3
3
3
3
3
3
3
3
3
3
3
3
)
;
    }
    lowerWall
    {
        type            calculated;
        value           nonuniform List<scalar> 
62
(
2
2
2
2
2
2
2
2
2
2
2
2
2
2
2
2
2
2
2
2
1.99994
1.99946
1.99943
1.99943
1.99944
1.99997
2
1.99999
1.99997
1.83908
0.665665
0.261821
0.234634
0.533001
0.539097
1.11997
1.32558
1.33442
1.33163
1.16031
0.861433
0.631359
0.0574068
1.11997
1.05011
1.04998
1.04898
1.05244
1.15479
1.3718
1.48746
1.47885
1.41958
1.32842
1.29233
1.29169
1.41155
1.84097
2.64619
2.72109
2.72088
2.72112
)
;
    }
    atmosphere
    {
        type            calculated;
        value           nonuniform List<scalar> 
46
(
3
3
3
3
3
3
3
3
3
3
3
3
3
3
3
3
3
3
3
3
3
3
3
3
3
3
3
3
3
3
3
3
3
3
3
3
3
3
3
3
3
3
3
3
3
3
)
;
    }
    defaultFaces
    {
        type            empty;
    }
}


// ************************************************************************* //
