/*--------------------------------*- C++ -*----------------------------------*\
  =========                 |
  \\      /  F ield         | OpenFOAM: The Open Source CFD Toolbox
   \\    /   O peration     | Website:  https://openfoam.org
    \\  /    A nd           | Version:  13
     \\/     M anipulation  |
\*---------------------------------------------------------------------------*/
FoamFile
{
    format      ascii;
    class       volScalarField;
    location    "0.75";
    object      alpha.mercury;
}
// * * * * * * * * * * * * * * * * * * * * * * * * * * * * * * * * * * * * * //

dimensions      [];

internalField   nonuniform List<scalar> 
2268
(
1
1
1
1
1
1
1
1
1
1
1
1
1
1
1
1
1
1
1
1
0.999938
0.999464
0.999431
1
1
1
1
1
1
1
1
1
1
1
1
1
1
1
1
1
1
1
1
0.999989
0.999738
0.99944
1
1
1
1
1
1
1
1
1
1
1
1
1
1
1
1
1
1
1
1
0.999997
0.999988
0.999974
0.798805
0.802808
0.860295
0.942011
1
1
1
1
1
1
1
1
1
1
1
1
1
1
1
1
1
1
1
0.0330116
0.0798677
0.144096
0.261776
0.469111
0.749359
0.950298
1
1
1
1
1
1
1
1
1
1
1
1
1
1
0.999999
0.999994
1.50459e-09
1.24459e-09
1.35304e-09
1.49911e-09
0.00185724
0.0628739
0.275147
0.659064
0.941609
1
1
1
1
1
1
1
1
1
1
1
1
0.999997
0.999974
7.74695e-12
5.79233e-11
1.01257e-10
1.7155e-10
1.08982e-09
1.75512e-09
2.45132e-09
0.0252056
0.223117
0.608698
0.90606
0.998142
0.999932
1
1
1
1
1
0.999997
0.999855
0.992314
0.964894
0.919529
7.35693e-14
7.95302e-12
2.05856e-11
4.6979e-11
1.64679e-10
2.18813e-10
8.54472e-11
9.95371e-11
1.76697e-10
0.0136588
0.135139
0.381494
0.680933
0.830208
0.840798
0.813719
0.798819
0.787481
0.757776
0.696448
0.581192
0.448851
0.33282
0.0245551
0.0473845
0.0471285
0.0483474
0.0523547
0.153068
0.334847
0.44236
0.43385
0.389283
0.3273
0.2924
0.29207
0.17259
0.0700264
0.129186
0.203621
0.203618
0.203563
0.00500281
0.0101264
0.0432438
0.160631
0.291812
0.603499
0.868294
0.879172
0.879173
0.879172
0.878948
0.879097
0.879075
0.666269
0.143519
0.0571187
0.0454186
0.118453
0.202516
0.00293399
0.00282877
0.264589
0.475602
0.47396
0.449835
0.420159
0.440809
0.497211
0.571972
0.641142
0.709498
0.821218
0.822334
0.263059
0.02186
0.0106927
0.0109017
0.421997
0.00160946
0.15241
0.434638
0.429305
0.321121
0.106591
4.17123e-05
9.01442e-11
3.57336e-14
2.70009e-14
1.39912e-08
0.00233313
0.172555
0.689227
0.418549
0.0201511
0.0104305
0.13406
0.60225
0.0726202
0.336721
0.264157
0.0691889
0.000219067
0.000197059
0.000151939
1.58771e-05
8.91053e-07
3.51838e-07
1.44743e-08
2.71786e-10
2.93808e-20
0.34795
0.39148
0.0234799
0.0260126
0.505401
0.609614
0.399095
0.332092
0.0205489
0.00020539
5.53296e-06
8.07796e-12
1.89214e-05
3.37807e-05
2.08738e-05
6.59548e-06
9.03127e-07
-6.10587e-25
-1.19598e-13
0.0142747
0.38191
0.325711
0.431247
0.697079
0.612291
0.315679
0.0153201
0.000162877
1.8974e-09
8.07796e-12
1.26126e-11
8.09385e-12
3.8212e-10
2.04254e-06
4.79271e-06
1.65096e-06
9.73924e-08
1.95994e-07
1.75318e-07
0.199649
0.595048
0.697014
0.697336
0.644718
0.0284376
4.88042e-06
3.308e-07
1.43939e-06
1.72773e-07
2.3256e-08
6.53437e-08
7.59766e-09
4.11706e-11
3.74527e-11
2.49453e-09
4.22534e-11
1.36283e-12
9.2002e-06
0.00215723
0.284676
0.38649
0.534565
0.689434
4.20816e-15
1.91345e-13
7.48662e-13
3.0189e-12
2.05473e-11
6.71972e-11
4.92982e-11
2.16043e-11
3.54158e-11
1.73933e-11
1.44657e-10
0.000275122
0.0072843
0.0345009
0.0877465
0.145188
0.175777
0.176299
0.157278
0.12582
0.0786941
0.0390209
0.0157804
1.9268e-17
4.15813e-16
8.40914e-15
1.55867e-13
1.91682e-13
1.33243e-12
2.12073e-12
5.15834e-12
1.19836e-11
1.72908e-11
8.84914e-11
1.67656e-10
8.40114e-11
2.08627e-11
-4.09628e-13
-2.1408e-14
1.75136e-24
9.67539e-13
1.30371e-12
7.78524e-13
1.18595e-12
-3.93299e-10
2.0773e-28
1.42198e-18
3.28863e-17
7.18663e-16
9.54608e-15
1.44743e-14
4.57555e-14
9.63431e-14
1.84764e-13
7.4648e-13
3.93448e-12
7.89853e-12
3.22219e-11
8.8589e-11
1.62384e-10
1.7165e-10
1.26011e-10
7.4374e-11
7.57059e-11
7.29237e-11
7.96945e-11
1.21612e-10
3.91067e-10
5.52165e-10
7.6126e-20
1.90965e-18
4.06855e-17
4.20996e-16
5.02509e-16
1.78572e-16
7.57131e-16
1.66506e-15
8.71524e-15
5.68067e-14
5.53675e-14
1.91303e-13
3.47956e-13
4.20527e-13
3.37865e-13
2.21305e-12
2.73272e-12
3.06818e-11
5.67446e-11
6.50564e-11
8.78583e-11
2.37741e-10
5.1296e-10
2.73625e-21
6.97289e-20
1.4589e-18
7.38502e-18
5.63702e-18
4.49255e-18
1.02586e-17
1.46952e-17
3.98104e-17
6.22872e-17
4.72041e-16
8.65628e-16
1.76481e-15
2.22227e-15
7.38907e-16
5.20437e-15
1.48723e-14
6.05717e-14
7.08513e-14
1.83204e-13
4.1112e-13
9.00583e-12
9.73444e-10
1.07685e-24
6.13576e-23
7.9785e-22
3.35403e-21
1.55898e-21
4.13462e-21
8.38815e-21
2.5583e-20
2.59389e-20
1.12081e-21
1.59437e-32
4.39356e-33
1.59556e-32
1.61646e-31
4.32626e-23
8.79147e-19
2.16744e-17
2.00238e-16
1.37273e-15
1.33861e-12
4.58866e-11
6.4296e-10
2.17594e-09
-1.35287e-23
-2.00687e-23
-1.54882e-25
9.48917e-27
1.0358e-25
8.09728e-25
9.19939e-25
1.55546e-24
1.79486e-25
2.12729e-30
3.18312e-29
5.52577e-25
2.25982e-23
6.90733e-21
1.38182e-19
1.06635e-17
5.46844e-16
8.90315e-16
5.56667e-15
7.54905e-12
3.98663e-10
1.37435e-09
2.16097e-09
-5.43073e-24
-8.94434e-24
-4.63918e-24
-1.17282e-24
-6.07804e-26
1.28756e-26
4.70788e-28
5.80053e-27
1.09547e-30
6.32131e-28
2.32151e-25
4.92015e-23
5.23741e-21
5.51025e-19
5.76548e-17
3.01054e-15
6.24884e-14
4.56483e-13
1.54955e-12
2.68634e-11
4.09103e-10
1.31362e-09
1.60119e-09
-1.63056e-24
-2.3905e-24
-1.50436e-24
-4.49262e-25
-5.33549e-26
-8.2008e-28
-6.44983e-29
-1.60538e-30
6.04501e-29
4.71504e-26
1.50778e-23
2.33126e-21
1.66443e-19
8.91532e-18
3.9099e-16
9.63776e-15
1.22096e-13
9.19271e-13
3.43103e-12
3.33992e-11
2.99031e-10
6.98378e-10
8.17347e-10
-3.86363e-25
-5.13792e-25
-3.43589e-25
-1.09332e-25
-1.72331e-26
-1.37764e-27
-1.11933e-28
-7.87406e-30
-3.49077e-31
7.41112e-27
2.85263e-24
4.29026e-22
3.70327e-20
1.10126e-18
6.25835e-17
1.58582e-15
1.92258e-14
5.87725e-13
3.5707e-12
2.06726e-11
1.51967e-10
3.28393e-10
3.00034e-10
-7.06818e-26
-9.04759e-26
-5.99873e-26
-1.92921e-26
-3.39626e-27
-3.58679e-28
-3.10342e-29
-2.06628e-30
-9.06215e-32
3.67543e-28
3.15439e-25
8.94532e-23
8.37261e-21
3.73201e-19
1.14161e-17
8.55068e-17
1.68504e-15
1.16412e-13
1.52941e-12
8.64254e-12
4.46863e-11
1.04626e-10
1.37287e-10
-9.79623e-27
-1.2799e-26
-8.18537e-27
-2.58707e-27
-4.73208e-28
-5.49413e-29
-4.84345e-30
-3.13553e-31
-1.33139e-32
1.61454e-28
6.85561e-26
8.90812e-24
5.97057e-22
2.86232e-20
1.45908e-18
3.0615e-17
2.48087e-16
1.23005e-14
3.54513e-13
2.91677e-12
1.30589e-11
4.19678e-11
7.99791e-11
-1.02421e-27
-1.42776e-27
-8.77342e-28
-2.69807e-28
-4.97094e-29
-5.97359e-30
-5.2771e-31
-3.36178e-32
-1.41665e-33
2.65946e-28
1.69611e-25
2.19665e-23
1.25621e-21
3.92064e-20
7.78981e-19
1.35147e-17
1.12703e-16
1.99605e-15
3.46701e-14
5.82466e-13
4.47556e-12
1.71294e-11
4.75236e-11
-8.13992e-29
-1.24582e-28
-7.41426e-29
-2.22179e-29
-4.08096e-30
-4.97129e-31
-4.3929e-32
-2.79032e-33
-1.19343e-34
2.2756e-29
2.6425e-26
4.63973e-24
3.39667e-22
1.29129e-20
2.92882e-19
6.10317e-18
6.93427e-17
5.57794e-16
4.21982e-15
2.39855e-14
6.37594e-13
3.60848e-12
2.05144e-11
-4.99689e-30
-8.52693e-30
-4.97747e-30
-1.46476e-30
-2.68398e-31
-3.30128e-32
-2.9346e-33
-1.88476e-34
-8.34124e-36
3.8649e-31
1.66655e-27
3.81708e-25
4.03431e-23
2.08266e-21
6.25656e-20
1.28014e-18
1.89251e-17
1.72484e-16
8.01282e-16
1.50116e-15
1.37013e-14
7.38782e-13
3.62325e-12
-2.42117e-31
-4.62906e-31
-2.68559e-31
-7.84193e-32
-1.44198e-32
-1.79728e-33
-1.62124e-34
-1.0668e-35
-4.96122e-37
1.31924e-33
5.28234e-29
2.06745e-26
2.77953e-24
1.8915e-22
7.55759e-21
1.89278e-19
3.21525e-18
3.80523e-17
2.59397e-16
6.00227e-16
1.20215e-15
3.32875e-14
3.32575e-13
-9.49163e-33
-2.02631e-32
-1.18152e-32
-3.4591e-33
-6.43238e-34
-8.176e-35
-7.55213e-36
-5.14855e-37
-2.54428e-38
3.15722e-36
3.664e-31
6.12536e-28
1.20365e-25
1.11253e-23
5.84189e-22
1.90773e-20
4.05901e-19
6.37912e-18
6.16325e-17
2.37913e-16
4.93613e-16
5.90086e-15
3.49544e-14
-3.08821e-34
-7.29064e-34
-4.30622e-34
-1.27514e-34
-2.41553e-35
-3.15158e-36
-3.00449e-37
-2.14017e-38
-1.12664e-39
1.20009e-40
1.03262e-32
1.26365e-29
3.53496e-27
4.55767e-25
3.33136e-23
1.50105e-21
4.35219e-20
8.82713e-19
1.1325e-17
6.8783e-17
2.04547e-16
1.15094e-15
8.84786e-15
-8.54381e-36
-2.19931e-35
-1.3212e-35
-3.98155e-36
-7.72686e-37
-1.04027e-37
-1.02954e-38
-7.69389e-40
-3.26753e-41
1.09954e-40
1.23884e-34
2.37571e-31
9.37442e-29
1.65216e-26
1.64325e-24
1.00293e-22
3.88364e-21
1.01859e-19
1.68795e-18
1.43921e-17
4.77999e-17
3.44262e-16
1.45421e-15
-2.05414e-37
-5.66919e-37
-3.46517e-37
-1.06619e-37
-2.12686e-38
-2.96441e-39
-3.05399e-40
-2.1621e-41
3.34246e-41
4.3062e-40
1.28367e-36
3.98821e-33
2.20669e-30
5.23568e-28
6.93001e-26
5.65087e-24
2.89062e-22
9.74919e-21
2.06543e-19
2.30981e-18
1.0854e-17
3.33798e-17
4.00573e-16
-4.37163e-39
-1.27079e-38
-7.87999e-39
-2.47631e-39
-5.0822e-40
-7.33575e-41
-7.02556e-42
1.89354e-41
3.5582e-40
6.91253e-39
1.38271e-37
6.12406e-35
4.54609e-32
1.42949e-29
2.5052e-27
2.667e-25
1.77966e-23
7.67858e-22
2.06858e-20
2.99513e-19
1.17522e-18
7.53063e-18
4.32605e-17
-8.3689e-41
-2.51367e-40
-1.57373e-40
-5.03945e-41
-1.05935e-41
-9.32982e-43
1.8698e-41
4.05276e-40
8.30234e-39
1.58277e-37
2.74889e-36
4.34407e-35
1.42243e-33
3.44446e-31
7.63307e-29
1.04873e-26
9.01109e-25
4.94149e-23
1.6836e-21
3.11019e-20
1.60358e-19
3.17362e-19
1.14466e-17
-1.45879e-42
-4.44556e-42
-2.79067e-42
-8.90001e-43
2.79016e-43
1.48146e-41
3.40797e-40
7.38457e-39
1.40887e-37
2.39828e-36
3.76756e-35
5.13581e-34
6.18394e-33
7.70546e-32
2.65412e-30
3.48137e-28
3.74195e-26
2.58507e-24
1.10642e-22
2.59568e-21
1.10671e-20
5.2202e-20
1.15195e-18
-2.33823e-44
-7.09967e-44
-4.06649e-44
1.36731e-43
4.83014e-42
1.24562e-40
2.88061e-39
5.7979e-38
1.03944e-36
1.66398e-35
2.38796e-34
3.04537e-33
3.4674e-32
3.53071e-31
3.21784e-30
3.44773e-29
1.43409e-27
1.10431e-25
5.85233e-24
1.76193e-22
1.40499e-21
1.77466e-21
1.95219e-19
-3.45194e-46
-7.79343e-46
1.55723e-44
6.76502e-43
2.11007e-41
5.37945e-40
1.18872e-38
2.30066e-37
3.95178e-36
6.04542e-35
8.27489e-34
1.01465e-32
1.11711e-31
1.10539e-30
9.65457e-30
7.10488e-29
4.73383e-28
5.96849e-27
2.63519e-25
5.96933e-24
3.31935e-23
2.40673e-22
7.01259e-21
-6.3716e-51
5.88828e-46
3.73848e-44
1.57029e-42
4.98681e-41
1.26757e-39
2.74255e-38
5.19344e-37
8.70905e-36
1.30372e-34
1.75185e-33
2.10323e-32
2.28169e-31
2.22781e-30
1.93935e-29
1.46464e-28
8.93482e-28
4.34732e-27
2.80025e-26
5.04481e-25
4.08815e-24
6.10747e-24
8.71968e-22
5.76052e-48
7.93767e-46
5.24191e-44
2.27847e-42
7.40644e-41
1.91009e-39
4.10247e-38
7.68209e-37
1.27107e-35
1.87364e-34
2.45593e-33
2.98736e-32
3.19852e-31
3.05993e-30
2.57934e-29
1.874e-28
1.14061e-27
5.80789e-27
3.44268e-26
1.93037e-25
7.55873e-25
3.36374e-24
4.05377e-23
4.61126e-48
6.3797e-46
4.34596e-44
1.95623e-42
6.55444e-41
1.73738e-39
3.79059e-38
7.13691e-37
1.18218e-35
1.73689e-34
2.34498e-33
2.81471e-32
3.01011e-31
2.86987e-30
2.41181e-29
1.75193e-28
1.07352e-27
5.78184e-27
3.44789e-26
2.00165e-25
8.78398e-25
3.29736e-24
1.58432e-23
2.33706e-48
3.35994e-46
2.39373e-44
1.1286e-42
3.94901e-41
1.08923e-39
2.45585e-38
4.68746e-37
7.86506e-36
1.1915e-34
1.59749e-33
1.90128e-32
2.06607e-31
1.9631e-30
1.64726e-29
1.20461e-28
7.69308e-28
4.46121e-27
2.7292e-26
1.72566e-25
7.51034e-25
3.7676e-24
1.38344e-23
8.07026e-49
1.21273e-46
9.09263e-45
4.51618e-43
1.66302e-41
4.83074e-40
1.15445e-38
2.33553e-37
4.07563e-36
6.32908e-35
8.64787e-34
1.0457e-32
1.13709e-31
1.08173e-30
9.18424e-30
7.05054e-29
4.72487e-28
2.91579e-27
1.81977e-26
1.20835e-25
6.3757e-25
2.78692e-24
1.35043e-23
1.98922e-49
3.12881e-47
2.47482e-45
1.30285e-43
5.09943e-42
1.57679e-40
4.00769e-39
8.5682e-38
1.55023e-36
2.48977e-35
3.4935e-34
4.32167e-33
4.76552e-32
4.68699e-31
4.207e-30
3.36742e-29
2.35453e-28
1.52818e-27
1.02261e-26
7.16555e-26
3.77781e-25
2.21595e-24
8.54959e-24
3.66919e-50
6.00948e-48
4.99211e-46
2.77283e-44
1.14759e-42
3.75539e-41
1.01045e-39
2.29421e-38
4.37956e-37
7.33085e-36
1.08065e-34
1.41606e-33
1.64227e-32
1.71727e-31
1.61436e-30
1.3357e-29
9.81884e-29
6.7487e-28
4.68358e-27
3.32559e-26
2.08661e-25
9.75846e-25
5.44366e-24
5.23951e-51
8.88261e-49
7.68352e-47
4.46426e-45
1.93885e-43
6.67582e-42
1.89081e-40
4.47299e-39
9.25872e-38
1.62907e-36
2.54111e-35
3.49321e-34
4.44084e-33
4.97542e-32
4.96832e-31
4.39456e-30
3.50411e-29
2.61221e-28
1.87885e-27
1.31617e-26
6.67546e-26
4.47747e-25
2.28335e-24
6.01769e-52
1.0434e-49
9.32668e-48
5.62383e-46
2.55372e-44
9.22479e-43
2.75469e-41
6.92486e-40
1.52632e-38
2.88086e-37
4.8005e-36
7.18307e-35
9.69272e-34
1.16152e-32
1.22844e-31
1.18738e-30
1.03092e-29
8.08534e-29
5.92418e-28
4.23115e-27
2.51318e-26
1.45262e-25
8.88906e-25
5.73073e-53
9.97504e-51
9.00218e-49
5.73895e-47
2.71754e-45
1.02416e-43
3.16267e-42
8.66667e-41
2.01819e-39
4.01275e-38
7.31879e-37
1.20921e-35
1.72862e-34
2.20898e-33
2.51814e-32
2.61481e-31
2.46185e-30
2.08162e-29
1.63285e-28
1.21192e-27
7.5047e-27
4.85827e-26
2.99512e-25
4.67849e-54
8.08116e-52
7.29949e-50
4.88824e-48
2.40481e-46
9.47434e-45
3.07658e-43
8.96535e-42
2.21935e-40
4.7496e-39
9.49234e-38
1.70422e-36
2.61378e-35
3.58003e-34
4.41913e-33
4.94165e-32
5.02197e-31
4.61088e-30
3.90536e-29
3.08303e-28
2.14058e-27
1.53842e-26
9.44907e-26
3.37701e-55
5.73818e-53
5.19078e-51
3.55968e-49
1.80661e-47
7.42189e-46
2.55246e-44
7.8058e-43
2.06611e-41
4.82197e-40
1.04619e-38
2.02326e-37
3.39726e-36
5.11163e-35
6.9108e-34
8.40421e-33
9.26756e-32
9.328e-31
8.67483e-30
7.48816e-29
5.97813e-28
4.52205e-27
3.30746e-26
2.17319e-56
3.65533e-54
3.2939e-52
2.25805e-50
1.17125e-48
4.98594e-47
1.8169e-45
5.83234e-44
1.6454e-42
4.18763e-41
9.82875e-40
2.05975e-38
3.82192e-37
6.40409e-36
9.69402e-35
1.32621e-33
1.65276e-32
1.88625e-31
1.98269e-30
1.92734e-29
1.73031e-28
1.44775e-27
1.08318e-26
1.34123e-57
2.12126e-55
1.87576e-53
1.26531e-51
6.64357e-50
2.89941e-48
1.00646e-46
3.43122e-45
1.13439e-43
3.14065e-42
8.00105e-41
1.83838e-39
3.81309e-38
7.2257e-37
1.2514e-35
1.98295e-34
2.88733e-33
3.86126e-32
4.73011e-31
5.29652e-30
5.38237e-29
4.81139e-28
3.92504e-27
7.81188e-59
1.13001e-56
9.61557e-55
6.32494e-53
3.33553e-51
1.49428e-49
5.73194e-48
2.05158e-46
6.87063e-45
2.06987e-43
5.77349e-42
1.47824e-40
3.49634e-39
7.70164e-38
1.57721e-36
2.98395e-35
5.16913e-34
8.12998e-33
1.15705e-31
1.49112e-30
1.7709e-29
1.72299e-28
1.44966e-27
4.29182e-60
5.52031e-58
4.444e-56
2.83778e-54
1.49574e-52
6.84385e-51
2.80878e-49
1.05704e-47
3.71265e-46
1.223e-44
3.79287e-43
1.11137e-41
3.11233e-40
8.34692e-39
2.10874e-37
4.88438e-36
1.01195e-34
1.8525e-33
2.98974e-32
4.22583e-31
5.14709e-30
5.05242e-29
4.84475e-28
2.18084e-61
2.44135e-59
1.84691e-57
1.14487e-55
6.02088e-54
2.80929e-52
1.20301e-50
4.78726e-49
1.81046e-47
6.58295e-46
2.32421e-44
8.16283e-43
2.89084e-41
9.86557e-40
3.11061e-38
8.64503e-37
2.05724e-35
4.13416e-34
6.96811e-33
9.81807e-32
1.1844e-30
1.3195e-29
1.24716e-28
0.130789
0.117097
0.265854
0.26884
9.44467e-11
7.78936e-21
7.68326e-21
-4.00014e-27
5.1704e-10
3.27899e-10
1.4501e-09
5.61715e-09
5.58489e-10
2.58977e-09
5.47001e-09
5.39371e-09
3.45308e-09
3.81152e-09
5.18085e-09
7.23064e-09
2.73788e-09
2.73943e-09
2.82581e-09
3.19994e-09
1.67741e-09
1.49924e-09
2.04791e-09
2.01017e-09
8.46018e-10
5.10157e-10
4.12356e-10
3.54374e-10
2.57108e-10
1.40509e-10
8.82276e-11
5.31542e-11
2.30686e-10
1.13219e-10
6.30286e-11
4.37501e-11
1.41406e-10
1.03586e-10
6.59475e-11
3.29419e-11
9.94037e-11
9.94035e-11
6.95119e-11
4.22473e-11
6.70963e-11
7.33616e-11
6.51941e-11
4.35625e-11
4.5948e-11
4.84833e-11
5.35672e-11
4.33562e-11
1.4667e-11
2.37054e-11
2.84691e-11
2.79807e-11
1.18956e-12
4.75972e-12
6.0663e-12
7.15562e-12
9.4061e-14
5.10733e-13
3.54677e-13
4.51906e-13
1.38216e-14
1.40954e-14
5.47509e-14
3.75426e-14
2.93647e-15
3.86735e-15
4.13956e-15
8.773e-15
5.79081e-16
6.92525e-16
1.56189e-15
2.33786e-15
1.40497e-16
2.40181e-16
2.80344e-16
8.13276e-16
2.82763e-17
2.93674e-17
8.51421e-17
1.19847e-16
4.9966e-18
7.06933e-18
8.30648e-18
3.35513e-17
4.65245e-19
5.13734e-19
1.69443e-18
3.48923e-18
6.31609e-20
8.13325e-20
1.018e-19
7.57526e-19
5.81069e-21
3.23071e-21
1.705e-20
6.81917e-20
4.39972e-22
3.69333e-22
2.01285e-21
1.20375e-20
3.34375e-23
5.66349e-23
1.19895e-22
3.36707e-22
2.67715e-23
5.66008e-23
1.13148e-22
2.63424e-22
2.80664e-23
5.24032e-23
1.44925e-22
3.04478e-22
2.46287e-23
5.81391e-23
1.27608e-22
3.07719e-22
1.65774e-23
3.46317e-23
1.05508e-22
2.27454e-22
7.35136e-24
2.35155e-23
5.51591e-23
1.54517e-22
3.75128e-24
9.75084e-24
3.37496e-23
8.10096e-23
1.61152e-24
4.93445e-24
1.31585e-23
4.20152e-23
5.81603e-25
1.80826e-24
6.10354e-24
1.61156e-23
2.00734e-25
7.46944e-25
2.32427e-24
7.32149e-24
7.9955e-26
2.91656e-25
9.59491e-25
2.88636e-24
2.71998e-26
1.14147e-25
3.94344e-25
1.24214e-24
1.13315e-26
4.21013e-26
1.41241e-25
4.84836e-25
3.67338e-27
1.40268e-26
5.20383e-26
1.67892e-25
1.06453e-27
3.8598e-27
1.28122e-26
3.71877e-26
0.0664437
1.26023e-08
9.05786e-06
4.19649e-06
6.40137e-08
1.63429e-07
2.50453e-07
1.11439e-07
1.26373e-07
4.08589e-07
4.67264e-07
3.53301e-07
5.6262e-08
-5.41885e-11
0.000372697
0.00833325
0.0137314
0.33875
0.690402
-5.03239e-12
1.37286e-08
1.09552e-07
1.68059e-08
5.96036e-08
2.1963e-07
2.7838e-07
2.81109e-07
5.65238e-07
1.0759e-06
1.07597e-06
7.74765e-07
5.38144e-08
3.55279e-15
6.39469e-05
0.00219355
0.00238469
0.102376
0.690402
5.69638e-09
2.95308e-09
2.95146e-09
1.64806e-08
5.23858e-08
2.40521e-07
4.26127e-07
6.84227e-07
8.0345e-07
7.89936e-07
3.00396e-07
1.64275e-08
1.70223e-08
-2.38795e-12
1.08879e-22
-6.67168e-06
7.47419e-05
0.0438523
0.658307
3.73914e-09
4.15197e-09
1.84794e-08
4.54679e-08
6.24878e-08
1.26621e-07
9.06981e-08
3.32139e-08
6.16425e-08
5.75271e-09
1.69208e-08
2.05774e-08
1.67916e-08
3.85106e-06
0.000169204
0.000616544
0.000422546
0.0226805
0.356667
8.77893e-09
1.01915e-08
1.00611e-08
5.54051e-09
3.826e-09
3.40046e-09
3.36606e-09
3.63173e-09
3.00564e-09
5.58483e-09
1.09731e-08
2.14043e-08
1.66062e-08
3.63795e-06
0.000456374
0.000722179
5.30485e-05
0.0172968
0.36105
3.29605e-09
3.2586e-09
2.91746e-09
2.99121e-09
6.26372e-09
7.76494e-09
7.23135e-09
3.63277e-09
2.96127e-09
4.54444e-09
4.48263e-09
7.52589e-09
6.1414e-07
4.76582e-06
0.000190141
0.000391373
3.80713e-17
0.0113802
0.360915
1.6659e-09
1.0644e-09
7.66686e-10
1.0308e-09
1.31426e-09
1.02803e-09
4.76005e-10
3.3049e-10
1.69144e-09
8.57144e-09
1.38596e-08
5.16704e-08
1.08658e-07
9.70316e-08
6.77481e-08
6.99747e-07
3.58487e-17
0.00702887
0.216381
3.08292e-10
2.6746e-10
1.35198e-10
7.66793e-11
8.20035e-11
8.21059e-11
8.89828e-11
2.80049e-10
1.53578e-09
3.88833e-09
1.00071e-08
3.0699e-08
9.15997e-08
9.7371e-08
6.30583e-08
-3.85618e-10
5.91579e-05
0.00165031
0.00417086
4.51093e-11
4.57973e-11
6.53528e-11
6.94262e-11
9.21131e-11
1.29088e-10
1.8778e-10
3.11375e-10
5.4377e-10
8.73617e-10
8.94949e-10
2.12963e-10
2.35733e-09
1.3858e-08
8.1955e-09
8.58796e-13
1.16288e-05
5.48464e-05
0.000133438
2.74931e-11
2.32011e-11
3.41193e-11
4.51286e-11
5.02378e-11
6.57587e-11
9.47823e-11
1.38288e-10
2.09931e-10
2.79951e-10
2.82704e-10
2.13421e-10
2.13055e-10
4.33276e-10
3.13561e-10
3.02558e-10
4.28754e-09
2.71753e-05
6.53542e-05
2.0062e-11
1.19558e-11
1.23952e-11
1.80961e-11
2.62703e-11
4.30216e-11
6.5559e-11
9.21624e-11
1.27719e-10
1.61385e-10
1.78671e-10
2.11944e-10
2.44673e-10
3.15257e-10
4.08383e-10
4.45891e-10
3.89885e-10
2.96128e-10
2.67824e-10
1.85138e-11
9.22526e-12
8.80521e-12
1.07138e-11
1.35225e-11
2.06284e-11
3.36865e-11
4.93803e-11
6.68782e-11
8.4417e-11
9.52932e-11
1.419e-10
1.9058e-10
2.36339e-10
2.93271e-10
3.50406e-10
3.68144e-10
2.95662e-10
2.41579e-10
2.05885e-11
8.53759e-12
7.78866e-12
8.27856e-12
7.91597e-12
8.34796e-12
1.0965e-11
1.42655e-11
1.78045e-11
2.32797e-11
3.3157e-11
4.32062e-11
5.55983e-11
6.88822e-11
7.79069e-11
7.28378e-11
4.10031e-11
2.08207e-11
1.23125e-11
2.17593e-11
6.58394e-12
5.61167e-12
6.79467e-12
6.69873e-12
5.67275e-12
4.4923e-12
4.03844e-12
4.56123e-12
5.83173e-12
7.76976e-12
9.99759e-12
1.18953e-11
1.28144e-11
1.23483e-11
7.32567e-12
2.25549e-12
1.94175e-13
3.25491e-15
1.65697e-11
3.8765e-12
2.3983e-12
4.95413e-12
5.81156e-12
5.30567e-12
3.71925e-12
2.74164e-12
2.01046e-12
1.67592e-12
1.59851e-12
1.71586e-12
1.80451e-12
1.76784e-12
1.08148e-12
3.87979e-13
6.38413e-14
3.23218e-15
3.00753e-16
5.14627e-12
1.50512e-12
9.26469e-13
1.9153e-12
3.82804e-12
4.61469e-12
4.22394e-12
2.81875e-12
1.8404e-12
1.20493e-12
7.69576e-13
4.49749e-13
2.83735e-13
1.95774e-13
1.02537e-13
3.25832e-14
3.3651e-15
6.59994e-16
3.69623e-17
4.61333e-13
3.38764e-13
3.62886e-13
6.5339e-13
1.29582e-12
2.51202e-12
3.04067e-12
3.25038e-12
2.51493e-12
1.61934e-12
8.70664e-13
3.8017e-13
1.52857e-13
7.86988e-14
3.21101e-14
8.30539e-15
3.49652e-15
1.36221e-15
4.41329e-17
5.77608e-14
1.02621e-13
1.45257e-13
2.65711e-13
4.54502e-13
7.42622e-13
1.12231e-12
2.52136e-12
2.42816e-12
2.12122e-12
1.47813e-12
7.32544e-13
2.99837e-13
1.38422e-13
6.26878e-14
3.07171e-14
1.96389e-14
2.62364e-15
5.79646e-17
1.53661e-14
3.69362e-14
5.89861e-14
1.1036e-13
1.73063e-13
2.73584e-13
4.11994e-13
6.46583e-13
1.15508e-12
1.73716e-12
1.70761e-12
1.13174e-12
7.20129e-13
3.89781e-13
1.99633e-13
1.13297e-13
4.69617e-14
5.83432e-15
5.95206e-17
6.2723e-15
1.36768e-14
2.38597e-14
4.48569e-14
7.82037e-14
1.27858e-13
2.02094e-13
2.71837e-13
3.42065e-13
6.49912e-13
1.06387e-12
1.12157e-12
8.76844e-13
6.15626e-13
3.87628e-13
1.75101e-13
6.94386e-14
8.54685e-15
5.99348e-17
1.81568e-15
4.57566e-15
8.33618e-15
1.73796e-14
3.37049e-14
5.93208e-14
1.02247e-13
1.40738e-13
1.62344e-13
1.84238e-13
3.45318e-13
5.00791e-13
6.42052e-13
6.2842e-13
4.54205e-13
2.2861e-13
8.44899e-14
1.07379e-14
1.16881e-16
5.79714e-16
1.30564e-15
2.83786e-15
6.76011e-15
1.43258e-14
2.65043e-14
4.47304e-14
6.89964e-14
8.38038e-14
8.76932e-14
1.05915e-13
1.56723e-13
2.43389e-13
3.87859e-13
4.03613e-13
2.51503e-13
9.77527e-14
1.39834e-14
4.0794e-16
1.23136e-16
3.84011e-16
9.5895e-16
2.48181e-15
5.62964e-15
1.14749e-14
1.95706e-14
2.78659e-14
3.61759e-14
3.8862e-14
4.39689e-14
6.37523e-14
1.31935e-13
2.61022e-13
2.56936e-13
2.1342e-13
1.01187e-13
2.04205e-14
8.18937e-16
3.30978e-17
1.08968e-16
3.04943e-16
8.83658e-16
2.19451e-15
4.70437e-15
8.18556e-15
1.1394e-14
1.3558e-14
1.61781e-14
2.23816e-14
3.57226e-14
7.41666e-14
1.6953e-13
2.01565e-13
1.60983e-13
9.5582e-14
2.29159e-14
8.29174e-16
6.43212e-18
2.74294e-17
8.88616e-17
2.90508e-16
7.69659e-16
1.74534e-15
3.01774e-15
4.16705e-15
5.04479e-15
6.61427e-15
1.17548e-14
2.58998e-14
5.99148e-14
1.13993e-13
1.53667e-13
1.37433e-13
9.22764e-14
1.97003e-14
8.33506e-16
1.3551e-18
6.58261e-18
2.46622e-17
7.85359e-17
2.51316e-16
5.73497e-16
9.79877e-16
1.373e-15
1.8545e-15
3.11457e-15
6.45199e-15
1.60883e-14
4.18253e-14
8.52376e-14
1.21083e-13
1.17981e-13
7.45603e-14
1.71335e-14
5.78916e-16
2.30787e-19
1.15565e-18
5.86201e-18
2.19176e-17
7.38071e-17
1.71111e-16
3.05228e-16
4.33237e-16
6.93077e-16
1.42614e-15
3.43277e-15
1.01481e-14
2.99406e-14
6.46337e-14
9.45486e-14
9.62765e-14
5.85569e-14
1.26589e-14
4.35037e-16
7.62306e-21
1.33769e-19
6.22003e-19
2.82286e-18
1.30549e-17
3.68219e-17
7.75954e-17
1.37733e-16
2.75117e-16
6.59176e-16
1.83102e-15
6.85945e-15
2.27045e-14
5.06792e-14
7.45257e-14
7.63089e-14
4.72862e-14
8.72548e-15
4.3398e-16
1.01055e-21
2.95437e-21
7.56665e-21
3.08133e-20
2.1165e-19
9.02754e-19
3.70841e-18
1.32175e-17
7.43305e-17
2.99683e-16
1.15073e-15
5.22239e-15
1.86241e-14
4.18819e-14
6.04599e-14
5.95454e-14
3.60875e-14
5.60173e-15
4.12797e-16
1.09001e-21
2.53359e-21
5.15753e-21
1.01523e-20
1.75168e-20
3.18416e-20
6.90737e-20
3.7607e-19
9.28435e-18
7.14823e-17
4.87522e-16
3.72646e-15
1.42979e-14
3.12589e-14
4.46473e-14
4.50244e-14
2.33e-14
3.00324e-15
2.33325e-16
9.88734e-22
2.47885e-21
5.44781e-21
1.12987e-20
2.08568e-20
3.64244e-20
5.74865e-20
8.80759e-20
3.92957e-19
7.28697e-18
1.56017e-16
2.38772e-15
9.84524e-15
1.98898e-14
2.51438e-14
2.20183e-14
9.38402e-15
1.2647e-15
3.12667e-17
7.69187e-22
2.09853e-21
5.07654e-21
1.05991e-20
2.33085e-20
4.27977e-20
7.02682e-20
1.07137e-19
1.63086e-19
3.95883e-19
2.29555e-17
1.08371e-15
4.62749e-15
9.12323e-15
1.04423e-14
7.99903e-15
2.81034e-15
2.59983e-16
6.18883e-18
4.62033e-22
1.39878e-21
4.01153e-21
9.17323e-21
2.09484e-20
4.37703e-20
7.87702e-20
1.27257e-19
1.93527e-19
2.79437e-19
1.10501e-18
1.86307e-16
9.70693e-16
2.50678e-15
2.71173e-15
1.752e-15
4.70148e-16
4.40943e-17
2.92504e-18
2.53235e-22
8.31559e-22
2.57745e-21
6.93196e-21
1.71797e-20
3.81479e-20
7.66141e-20
1.36697e-19
2.18546e-19
3.25626e-19
4.68259e-19
9.32191e-18
1.61807e-16
4.2256e-16
3.9481e-16
1.98755e-16
7.71921e-17
1.26419e-17
1.24375e-18
1.14216e-22
4.26373e-22
1.43057e-21
4.31555e-21
1.15269e-20
2.88274e-20
6.19965e-20
1.22929e-19
2.17957e-19
3.50019e-19
5.06649e-19
7.48049e-19
1.29853e-17
2.76317e-17
2.37013e-17
1.26964e-17
5.77346e-18
2.3553e-18
4.85407e-19
4.94155e-23
1.99444e-22
7.19973e-22
2.35327e-21
6.92393e-21
1.86109e-20
4.50835e-20
9.702e-20
1.92094e-19
3.25573e-19
5.03857e-19
7.70732e-19
1.18439e-18
3.47357e-18
4.69663e-18
4.31551e-18
2.40818e-18
8.84131e-19
2.85774e-19
2.00637e-23
8.72047e-23
3.39902e-22
1.17326e-21
3.69142e-21
1.05108e-20
2.7135e-20
6.47556e-20
1.41736e-19
2.60802e-19
4.35418e-19
7.25413e-19
1.01348e-18
1.75277e-18
2.25174e-18
1.96364e-18
9.69718e-19
3.53411e-19
8.62884e-20
8.72459e-24
3.93029e-23
1.58405e-22
5.81173e-22
1.87653e-21
5.44535e-21
1.49567e-20
3.65995e-20
8.57693e-20
1.74108e-19
3.05219e-19
5.03421e-19
7.30727e-19
1.03324e-18
9.96965e-19
7.44474e-19
3.13345e-19
1.16269e-19
4.9171e-20
3.68225e-24
1.77861e-23
7.42477e-23
2.77895e-22
9.07378e-22
2.76592e-21
7.37391e-21
1.79305e-20
4.10615e-20
8.93525e-20
1.60055e-19
2.52442e-19
3.64734e-19
4.37859e-19
3.06242e-19
1.70465e-19
8.42347e-20
6.29308e-20
1.73517e-20
1.4257e-24
6.78194e-24
2.94572e-23
1.11026e-22
3.69114e-22
1.12842e-21
3.07817e-21
7.59133e-21
1.72974e-20
3.60516e-20
6.51994e-20
9.93451e-20
1.29085e-19
1.37667e-19
7.99213e-20
4.1061e-20
3.84167e-20
1.92922e-20
9.00697e-21
4.81291e-25
2.28576e-24
9.58588e-24
3.58611e-23
1.19513e-22
3.64985e-22
1.01129e-21
2.5483e-21
5.78109e-21
1.16056e-20
2.0648e-20
3.11104e-20
3.81492e-20
3.66029e-20
2.01264e-20
1.46699e-20
9.58169e-21
7.88674e-21
2.77064e-21
1.03657e-25
4.91684e-25
2.07981e-24
7.68528e-24
2.55445e-23
7.94728e-23
2.2215e-22
5.59418e-22
1.27074e-21
2.58245e-21
4.59155e-21
6.70093e-21
7.47412e-21
6.46653e-21
4.14842e-21
3.45114e-21
2.86029e-21
1.29015e-21
3.22621e-22
)
;

boundaryField
{
    leftWall
    {
        type            alphaContactAngle;
        contactAngleProperties 
        {
            air             
            {
                theta0          90;
            }
            water           
            {
                theta0          90;
            }
            oil             
            {
                theta0          90;
            }
        }
        value           nonuniform List<scalar> 
50
(
1
1
1
0.798805
0.0330116
1.50459e-09
7.74695e-12
7.35693e-14
4.20816e-15
1.9268e-17
1.42198e-18
7.6126e-20
2.73625e-21
1.07685e-24
-1.35287e-23
-5.43073e-24
-1.63056e-24
-3.86363e-25
-7.06818e-26
-9.79623e-27
-1.02421e-27
-8.13992e-29
-4.99689e-30
-2.42117e-31
-9.49163e-33
-3.08821e-34
-8.54381e-36
-2.05414e-37
-4.37163e-39
-8.3689e-41
-1.45879e-42
-2.33823e-44
-3.45194e-46
-6.3716e-51
5.76052e-48
4.61126e-48
2.33706e-48
8.07026e-49
1.98922e-49
3.66919e-50
5.23951e-51
6.01769e-52
5.73073e-53
4.67849e-54
3.37701e-55
2.17319e-56
1.34123e-57
7.81188e-59
4.29182e-60
2.18084e-61
)
;
    }
    rightWall
    {
        type            alphaContactAngle;
        contactAngleProperties 
        {
            air             
            {
                theta0          90;
            }
            water           
            {
                theta0          90;
            }
            oil             
            {
                theta0          90;
            }
        }
        value           nonuniform List<scalar> 
50
(
0.203563
0.202516
0.421997
0.60225
0.609614
0.612291
0.644718
0.689434
0.690402
0.690402
0.658307
0.356667
0.36105
0.360915
0.216381
0.00417086
0.000133438
6.53542e-05
2.67824e-10
2.41579e-10
1.23125e-11
3.25491e-15
3.00753e-16
3.69623e-17
4.41329e-17
5.79646e-17
5.95206e-17
5.99348e-17
1.16881e-16
4.0794e-16
8.18937e-16
8.29174e-16
8.33506e-16
5.78916e-16
4.35037e-16
4.3398e-16
4.12797e-16
2.33325e-16
3.12667e-17
6.18883e-18
2.92504e-18
1.24375e-18
4.85407e-19
2.85774e-19
8.62884e-20
4.9171e-20
1.73517e-20
9.00697e-21
2.77064e-21
3.22621e-22
)
;
    }
    lowerWall
    {
        type            alphaContactAngle;
        contactAngleProperties 
        {
            air             
            {
                theta0          90;
            }
            water           
            {
                theta0          90;
            }
            oil             
            {
                theta0          90;
            }
        }
        value           nonuniform List<scalar> 
62
(
1
1
1
1
1
1
1
1
1
1
1
1
1
1
1
1
1
1
1
1
0.999938
0.999464
0.999431
0.999431
0.99944
0.999974
1
0.999994
0.999974
0.919529
0.33282
0.130789
0.117097
0.265854
0.26884
0.0245551
0.00500281
0.00293399
0.00160946
0.0726202
0.399095
0.315679
0.0284376
0.0245551
0.0473845
0.0471285
0.0483474
0.0523547
0.153068
0.334847
0.44236
0.43385
0.389283
0.3273
0.2924
0.29207
0.17259
0.0700264
0.129186
0.203621
0.203618
0.203563
)
;
    }
    atmosphere
    {
        type            inletOutlet;
        inletValue      uniform 0;
        value           nonuniform List<scalar> 
46
(
2.18084e-61
2.44135e-59
1.84691e-57
1.14487e-55
6.02088e-54
2.80929e-52
1.20301e-50
4.78726e-49
1.81046e-47
6.58295e-46
2.32421e-44
8.16283e-43
2.89084e-41
9.86557e-40
3.11061e-38
8.64503e-37
2.05724e-35
4.13416e-34
6.96811e-33
9.81807e-32
1.1844e-30
1.3195e-29
1.24716e-28
1.06453e-27
3.8598e-27
1.28122e-26
3.71877e-26
1.03657e-25
0
0
0
0
0
0
0
0
0
0
0
0
0
0
0
0
0
0
)
;
    }
    defaultFaces
    {
        type            empty;
    }
}


// ************************************************************************* //
