/*--------------------------------*- C++ -*----------------------------------*\
  =========                 |
  \\      /  F ield         | OpenFOAM: The Open Source CFD Toolbox
   \\    /   O peration     | Website:  https://openfoam.org
    \\  /    A nd           | Version:  13
     \\/     M anipulation  |
\*---------------------------------------------------------------------------*/
FoamFile
{
    format      ascii;
    class       volScalarField;
    location    "0.75";
    object      alpha.oil;
}
// * * * * * * * * * * * * * * * * * * * * * * * * * * * * * * * * * * * * * //

dimensions      [];

internalField   nonuniform List<scalar> 
2268
(
1.54919e-38
1.50875e-37
4.81443e-37
8.79646e-37
1.67844e-35
5.00971e-30
1.31804e-24
7.19099e-20
4.51217e-17
8.01261e-16
8.36493e-15
6.58115e-14
3.93252e-13
1.83616e-12
7.95653e-12
3.27131e-11
9.43987e-11
1.69435e-10
1.59991e-10
1.62169e-10
6.22529e-05
0.000535898
0.000569092
3.72964e-37
2.48484e-34
8.54407e-32
1.34613e-29
9.52713e-28
2.39323e-26
5.50093e-25
5.18704e-22
3.28621e-19
1.31354e-17
2.02292e-15
4.58757e-14
3.23649e-13
1.4937e-12
5.83907e-12
1.98538e-11
6.3288e-11
1.59006e-10
2.67866e-10
4.30535e-10
1.0826e-05
0.000261877
0.000560043
1.0141e-35
3.81776e-35
3.81759e-34
7.97799e-32
3.07054e-29
2.84188e-27
5.85907e-26
9.47058e-25
2.39798e-23
3.37014e-21
8.69806e-18
2.98131e-15
1.53432e-13
1.1805e-12
5.54956e-12
1.45318e-11
6.99059e-11
1.18128e-09
6.46672e-09
1.91977e-09
2.89059e-06
1.19778e-05
2.63572e-05
6.77479e-33
5.72683e-33
2.86925e-32
1.2568e-31
1.33592e-30
6.62274e-28
5.79103e-23
5.98902e-20
1.50381e-18
2.94107e-17
4.58735e-16
5.68774e-15
5.98773e-14
5.1444e-13
1.16518e-11
4.11734e-11
7.19132e-11
3.73487e-10
7.95466e-08
3.06215e-07
1.1002e-07
4.894e-08
5.32241e-08
1.21239e-31
1.12837e-31
8.63533e-31
4.73931e-30
1.46437e-29
6.66955e-29
9.34331e-25
1.27217e-21
5.32537e-19
1.67265e-16
3.23413e-15
2.53315e-14
8.15566e-13
2.20698e-11
9.02896e-11
3.8494e-10
1.00028e-09
4.94367e-10
9.51711e-11
1.28348e-09
1.33939e-09
1.19045e-06
5.8777e-06
3.97798e-31
5.43801e-31
5.00793e-30
3.23771e-29
1.21292e-28
3.71235e-28
1.16193e-24
8.07834e-20
9.70779e-17
3.5906e-15
1.74762e-13
3.08076e-12
1.25857e-11
4.81437e-11
1.07018e-10
4.47329e-10
5.69482e-09
2.90077e-08
1.10966e-09
6.28856e-08
4.60205e-09
2.72883e-06
2.58498e-05
1.18084e-30
4.97739e-30
4.69631e-29
2.68972e-28
1.11164e-27
1.96691e-27
1.03994e-25
2.80384e-21
5.33297e-18
1.88951e-15
2.56073e-13
4.19769e-12
1.66125e-11
5.17631e-11
1.2645e-10
1.78097e-10
2.38123e-11
3.86845e-07
2.59595e-06
4.98358e-06
1.84167e-06
1.50909e-06
2.5942e-05
3.57153e-30
6.39e-29
4.91962e-28
2.68038e-27
6.75812e-27
6.69863e-27
8.34413e-27
8.62098e-24
3.23455e-20
9.00021e-17
1.91505e-14
4.33876e-13
5.6624e-12
3.66026e-11
6.89851e-11
5.49386e-11
2.34681e-11
5.60501e-07
5.9024e-06
7.47086e-06
5.33678e-06
7.83357e-07
2.45293e-05
0.927739
0.951253
0.951446
0.951337
0.947602
0.846072
0.646675
0.53509
0.543652
0.595567
0.672135
0.707319
0.707345
0.707348
0.544369
0.112297
0.0376284
0.0376841
0.0375799
0.834705
0.950931
0.951244
0.839325
0.699449
0.366248
0.0939809
0.0551677
0.0404461
0.0432021
0.0519795
0.0619716
0.079431
0.318341
0.270591
0.183728
0.195556
0.122563
0.0384894
0.831325
0.934508
0.732634
0.361339
0.142711
0.0229848
8.08604e-05
8.22671e-05
8.38511e-05
8.53163e-05
0.000107381
0.000108942
0.00011113
0.0738006
0.256861
0.218854
0.23033
0.286205
0.0864577
0.833379
0.777756
0.280284
3.26256e-05
3.85102e-05
4.68403e-05
7.9702e-05
0.000110468
0.000212456
0.00271881
0.00478673
0.00404459
0.000125717
0.000595549
0.412529
0.413537
0.469797
0.460761
0.113658
0.824608
0.313686
1.33349e-06
2.75207e-05
8.1904e-05
0.000103005
0.000148316
0.000284379
0.000299414
0.000299891
0.00406611
0.00470089
0.00133645
0.000289584
0.420694
0.521881
0.522116
0.374948
0.101535
0.0632408
3.18104e-20
1.84271e-06
8.27562e-05
0.000289044
0.000299301
0.000280592
0.000265181
0.000276786
0.000290312
0.000297863
0.000671191
0.000526037
0.000284353
0.237363
0.522116
0.497851
0.280031
0.0603222
2.28052e-23
-7.84897e-11
4.37946e-05
0.000241804
0.000281916
0.000298495
0.000298793
0.00026655
0.000667718
0.00554265
0.00205093
0.00032721
0.000307327
0.000277923
0.00448229
0.292793
0.272249
0.0757607
0.00907287
7.77932e-06
2.92399e-20
4.74818e-05
0.000163648
0.00259404
0.0553196
0.133575
0.216546
0.322772
0.420766
0.371725
0.198669
0.000280421
0.000263131
0.000284582
0.00335443
0.00416876
0.000192076
0.000224218
7.52065e-29
8.93938e-28
6.51303e-27
2.62733e-26
8.39004e-26
1.52354e-25
1.11846e-25
2.1788e-25
1.05761e-21
2.34706e-18
1.94386e-16
8.45742e-15
8.1929e-13
1.24173e-11
3.47077e-11
3.71672e-11
2.39278e-11
1.71058e-07
3.82958e-06
7.44346e-06
4.73099e-06
4.60372e-07
5.22523e-06
2.09746e-27
2.59909e-26
2.17371e-25
1.81803e-24
1.55578e-23
1.92828e-22
2.33324e-21
1.36709e-20
1.75856e-18
4.55474e-16
1.10673e-14
5.27184e-14
2.28648e-13
1.63142e-12
3.8885e-12
1.54923e-11
4.73331e-11
1.4229e-12
8.25285e-10
2.33005e-07
4.47608e-09
7.58227e-07
4.63715e-06
9.0061e-23
4.47825e-21
6.47015e-20
5.80172e-19
3.55625e-18
2.45454e-17
1.5122e-16
7.3073e-16
4.60175e-15
4.07155e-14
1.41483e-13
1.87838e-12
1.78342e-11
4.66417e-11
1.0828e-11
1.06655e-11
5.50971e-12
4.90567e-14
4.61634e-14
2.94556e-14
3.64892e-10
2.08705e-06
2.06121e-05
1.51845e-21
1.53635e-19
5.82904e-18
1.03682e-16
9.55387e-16
6.39149e-15
3.39572e-14
1.59863e-13
6.90007e-13
2.82244e-12
1.11547e-11
4.71217e-11
3.06412e-10
4.86999e-10
1.14654e-09
5.05724e-12
5.07776e-12
9.90774e-07
1.97021e-06
1.17379e-07
1.8193e-10
4.55234e-05
0.00012227
5.4678e-23
7.13594e-21
4.16923e-19
1.42055e-17
1.71101e-16
1.38794e-15
7.43714e-15
3.27099e-14
1.17701e-13
3.91139e-13
2.88295e-12
1.03602e-10
9.37976e-10
9.51087e-10
2.6782e-08
1.37263e-08
2.87719e-10
4.39421e-06
6.7364e-06
4.0351e-06
2.86525e-06
8.30676e-05
0.000109088
4.27155e-25
1.56664e-23
1.56066e-21
1.61423e-19
3.06658e-18
3.19327e-17
1.47824e-16
4.7163e-16
8.93057e-16
8.01546e-16
2.53776e-18
1.97512e-18
1.29979e-10
1.30437e-10
3.47885e-08
1.903e-07
4.42739e-07
3.86323e-06
6.57864e-06
9.24007e-06
1.71742e-05
7.13672e-05
6.83487e-05
4.98464e-25
1.53526e-23
3.28781e-22
3.83727e-21
2.25624e-20
1.12651e-19
4.34983e-19
1.53931e-18
4.10488e-18
9.67303e-18
2.58958e-16
2.18744e-13
1.70843e-10
2.10661e-09
4.10071e-08
2.9083e-07
1.18425e-06
1.11793e-07
1.05482e-06
6.80248e-06
6.6377e-06
9.44469e-06
9.69527e-06
1.71201e-25
3.63476e-24
8.55094e-23
7.94255e-22
3.8302e-21
1.69807e-20
8.10004e-20
4.64222e-19
5.48075e-18
5.31222e-16
6.66404e-14
4.16534e-12
1.41304e-10
1.5062e-09
8.88942e-09
3.42477e-08
2.23559e-08
5.20608e-08
8.49602e-08
2.26059e-05
3.06325e-05
9.54882e-08
7.67151e-10
2.18346e-25
2.11849e-24
3.03753e-23
3.24882e-22
2.05716e-21
1.13829e-20
6.78555e-20
4.01605e-19
2.08613e-17
6.55083e-15
6.00575e-13
2.4424e-11
3.80392e-10
2.53859e-09
6.32995e-09
8.02199e-09
9.96053e-09
2.45296e-08
2.54584e-08
2.21467e-05
0.000220625
0.000173326
1.15832e-07
4.83488e-25
3.37678e-24
3.31227e-23
2.8909e-22
1.97724e-21
1.39515e-20
9.44563e-20
6.50091e-19
3.52108e-18
5.94147e-15
7.17419e-13
2.3291e-11
3.32833e-10
2.90066e-09
1.35302e-08
1.85009e-08
1.53482e-08
1.26228e-08
1.73794e-08
4.93926e-06
0.000236007
0.000275761
0.000117599
1.00803e-24
8.56015e-24
7.30232e-23
5.4912e-22
4.04199e-21
2.91017e-20
1.94528e-19
1.20615e-18
5.46851e-18
5.85155e-15
8.77948e-13
2.7489e-11
3.3765e-10
2.37171e-09
1.09597e-08
1.81992e-08
1.69574e-08
9.81701e-09
4.84533e-09
4.83333e-09
7.79983e-05
0.000296505
0.000175555
1.65874e-24
1.85351e-23
1.73659e-22
1.34228e-21
9.50915e-21
6.28496e-20
3.85379e-19
1.94777e-18
8.59584e-18
2.38511e-15
4.5582e-13
1.46951e-11
1.61824e-10
8.56e-10
4.02112e-09
1.10349e-08
1.2779e-08
7.47174e-09
7.28076e-09
6.66362e-08
7.5013e-08
3.18094e-05
4.23236e-05
2.20884e-24
3.10667e-23
3.22768e-22
2.57937e-21
1.79579e-20
1.11081e-19
6.04643e-19
2.76071e-18
1.1737e-17
2.12867e-16
5.40466e-14
2.27741e-12
3.21754e-11
2.22797e-10
1.01897e-09
3.68753e-09
6.80091e-09
5.18088e-09
3.74396e-09
1.05334e-07
2.07058e-07
1.03924e-09
1.74438e-09
2.34525e-24
4.11259e-23
4.61978e-22
3.7913e-21
2.61476e-20
1.53865e-19
7.55362e-19
3.44247e-18
1.43236e-17
6.21028e-17
4.99736e-15
2.80273e-13
5.30254e-12
4.62822e-11
2.3553e-10
1.03236e-09
2.49419e-09
3.57974e-09
3.67857e-09
4.02226e-08
1.36957e-07
9.04893e-10
2.15475e-09
2.17906e-24
4.17544e-23
5.0231e-22
4.30854e-21
2.9738e-20
1.66135e-19
8.24058e-19
3.70219e-18
1.49542e-17
5.43636e-17
5.21926e-16
2.52984e-14
7.12647e-13
8.09824e-12
5.41226e-11
2.65827e-10
9.39495e-10
1.93895e-09
2.64489e-09
4.58243e-09
1.21607e-09
1.09136e-09
3.44377e-09
1.77751e-24
3.67814e-23
4.5567e-22
3.99657e-21
2.72431e-20
1.54203e-19
7.61561e-19
3.41768e-18
1.35334e-17
4.85003e-17
1.86449e-16
2.6748e-15
7.93439e-14
1.15536e-12
9.59945e-12
6.3923e-11
2.86143e-10
7.98465e-10
1.35182e-09
1.95165e-09
9.06645e-10
1.19902e-09
3.64207e-09
1.28373e-24
2.76993e-23
3.50123e-22
3.07997e-21
2.12614e-20
1.21035e-19
6.01119e-19
2.66999e-18
1.04995e-17
3.7536e-17
1.28198e-16
5.35707e-16
7.99839e-15
1.36113e-13
1.32563e-12
1.15497e-11
6.92006e-11
2.60621e-10
5.57073e-10
1.00158e-09
7.96325e-10
1.05421e-09
2.66679e-09
8.15636e-25
1.78474e-23
2.26445e-22
2.01527e-21
1.40262e-20
8.04867e-20
3.96606e-19
1.76536e-18
6.94833e-18
2.50589e-17
8.50021e-17
2.77745e-16
1.28922e-15
1.48756e-14
1.49445e-13
1.66882e-12
1.37891e-11
6.83396e-11
1.87585e-10
3.91008e-10
4.73987e-10
5.76226e-10
1.72652e-09
4.62831e-25
9.92791e-24
1.25775e-22
1.12132e-21
7.84937e-21
4.54478e-20
2.27786e-19
1.00163e-18
3.98238e-18
1.44847e-17
4.88796e-17
1.59612e-16
5.19202e-16
2.42254e-15
1.65216e-14
2.02872e-13
2.25543e-12
1.45377e-11
5.16717e-11
1.24389e-10
1.7095e-10
2.92413e-10
6.53866e-10
2.35095e-25
4.85447e-24
6.06077e-23
5.3807e-22
3.76903e-21
2.20852e-20
1.10507e-19
4.89166e-19
1.96082e-18
7.23865e-18
2.49607e-17
8.43398e-17
2.73952e-16
8.94071e-16
3.26518e-15
2.4759e-14
3.1189e-13
2.54252e-12
1.16717e-11
3.3572e-11
6.02366e-11
7.04064e-11
2.95177e-10
1.11135e-25
2.20261e-24
2.61889e-23
2.27985e-22
1.57702e-21
9.22867e-21
4.6341e-20
2.09101e-19
8.57093e-19
3.3036e-18
1.21037e-17
4.41675e-17
1.56449e-16
5.30156e-16
1.76904e-15
6.60093e-15
4.63148e-14
3.90032e-13
2.21418e-12
7.83369e-12
1.24223e-11
2.60884e-11
7.00373e-11
4.63885e-26
9.05e-25
1.04786e-23
8.95499e-23
6.11807e-22
3.5559e-21
1.82104e-20
8.5847e-20
3.76668e-19
1.59025e-18
6.58331e-18
2.72058e-17
1.06923e-16
4.015e-16
1.40912e-15
4.58727e-15
1.59277e-14
7.49677e-14
4.04811e-13
1.63104e-12
3.42126e-12
4.14912e-12
2.49274e-11
1.5118e-26
3.0206e-25
3.5818e-24
3.12393e-23
2.2079e-22
1.36648e-21
7.65349e-21
4.081e-20
2.0582e-19
1.00182e-18
4.75008e-18
2.15321e-17
8.94035e-17
3.48524e-16
1.23514e-15
3.96862e-15
1.17564e-14
3.40778e-14
1.14651e-13
3.96402e-13
7.77956e-13
1.69066e-12
5.0801e-12
3.88149e-27
8.18916e-26
1.05437e-24
1.01837e-23
8.15105e-23
5.83827e-22
3.89188e-21
2.41311e-20
1.39671e-19
7.57351e-19
3.84246e-18
1.79654e-17
7.56383e-17
2.92343e-16
1.02804e-15
3.26925e-15
9.41814e-15
2.47362e-14
6.40656e-14
1.65188e-13
3.80213e-13
5.63371e-13
1.94972e-12
8.53439e-28
2.04451e-26
3.06985e-25
3.54491e-24
3.45025e-23
2.90445e-22
2.21279e-21
1.51921e-20
9.49086e-20
5.41378e-19
2.8181e-18
1.32671e-17
5.58568e-17
2.14085e-16
7.4746e-16
2.36506e-15
6.76764e-15
1.75492e-14
4.35442e-14
1.00154e-13
1.87436e-13
4.3836e-13
7.71226e-13
1.848e-28
5.40836e-27
9.8949e-26
1.36631e-24
1.53422e-23
1.44322e-22
1.18697e-21
8.63682e-21
5.61742e-20
3.28466e-19
1.72954e-18
8.1797e-18
3.45977e-17
1.32615e-16
4.62599e-16
1.47957e-15
4.26544e-15
1.09171e-14
2.69608e-14
6.46376e-14
1.40398e-13
2.51588e-13
6.13361e-13
4.13028e-29
1.4855e-27
3.19205e-26
4.95248e-25
6.12142e-24
6.21153e-23
5.37522e-22
4.07319e-21
2.73088e-20
1.63076e-19
8.68878e-19
4.17348e-18
1.78656e-17
6.92057e-17
2.43519e-16
7.77233e-16
2.27068e-15
5.91001e-15
1.56511e-14
3.79915e-14
8.15101e-14
2.15829e-13
4.55366e-13
9.1701e-30
3.80963e-28
9.0953e-27
1.53572e-25
2.02848e-24
2.18434e-23
1.98139e-22
1.56035e-21
1.08051e-20
6.60723e-20
3.61787e-19
1.77151e-18
7.74563e-18
3.05954e-17
1.09632e-16
3.5968e-16
1.08588e-15
2.8898e-15
7.66565e-15
2.17991e-14
5.71296e-14
1.41701e-13
4.47333e-13
1.85394e-30
8.37663e-29
2.14297e-27
3.85643e-26
5.38042e-25
6.10959e-24
5.82586e-23
4.77694e-22
3.43043e-21
2.18656e-20
1.23803e-19
6.23244e-19
2.82681e-18
1.15051e-17
4.24506e-17
1.43741e-16
4.32954e-16
1.23916e-15
3.63627e-15
1.14422e-14
3.19476e-14
1.17929e-13
3.61438e-13
3.23101e-31
1.53046e-29
4.12137e-28
7.82947e-27
1.15172e-25
1.3786e-24
1.38444e-23
1.19578e-22
8.9846e-22
5.97754e-21
3.52081e-20
1.84248e-19
8.70594e-19
3.67789e-18
1.40669e-17
4.89624e-17
1.6083e-16
4.92604e-16
1.51452e-15
5.55377e-15
2.01154e-14
6.79667e-14
3.016e-13
4.7869e-32
2.33305e-30
6.55668e-29
1.3088e-27
2.02795e-26
2.55971e-25
2.71173e-24
2.47366e-23
1.93292e-22
1.35888e-21
8.37981e-21
4.59477e-20
2.26583e-19
1.00042e-18
4.05583e-18
1.517e-17
5.2204e-17
1.69669e-16
5.91496e-16
2.50661e-15
9.69984e-15
4.77145e-14
1.6891e-13
6.05979e-33
3.00565e-31
8.75975e-30
1.82903e-28
2.9768e-27
3.95586e-26
4.41881e-25
4.26384e-24
3.50685e-23
2.58285e-22
1.67295e-21
9.71588e-21
5.0415e-20
2.36139e-19
1.02389e-18
4.08141e-18
1.51478e-17
5.44545e-17
2.10671e-16
9.93857e-16
4.82611e-15
1.93688e-14
1.01482e-13
6.61537e-34
3.31325e-32
9.9531e-31
2.16207e-29
3.68024e-28
5.13433e-27
6.03247e-26
6.00554e-25
5.37624e-24
4.14946e-23
2.83092e-22
1.6943e-21
9.63372e-21
4.81951e-20
2.22902e-19
9.53869e-19
3.88813e-18
1.58658e-17
6.94876e-17
3.51041e-16
1.44454e-15
8.65062e-15
4.13581e-14
6.29893e-35
3.1574e-33
9.70936e-32
2.17605e-30
3.85771e-29
5.62801e-28
6.9293e-27
7.26883e-26
6.90494e-25
5.62571e-24
4.05212e-23
2.62937e-22
1.57816e-21
8.46144e-21
4.14025e-20
1.95623e-19
8.90711e-19
4.0359e-18
1.94742e-17
1.05129e-16
5.26927e-16
2.77847e-15
1.60245e-14
5.28533e-36
2.61872e-34
7.97498e-33
1.88049e-31
3.46107e-30
5.25352e-29
6.58975e-28
7.53401e-27
7.49601e-26
6.2863e-25
4.88129e-24
3.53945e-23
2.25379e-22
1.29683e-21
6.86943e-21
3.53089e-20
1.7909e-19
9.1004e-19
4.95347e-18
2.89028e-17
1.5597e-16
9.28555e-16
5.43492e-15
3.95062e-37
1.91706e-35
5.69257e-34
1.41275e-32
2.69175e-31
4.24814e-30
5.539e-29
6.73953e-28
7.03656e-27
6.2084e-26
5.26628e-25
4.18058e-24
2.85384e-23
1.76923e-22
1.02334e-21
5.73748e-21
3.21858e-20
1.83926e-19
1.12075e-18
7.16705e-18
4.4117e-17
2.94847e-16
1.73313e-15
2.65981e-38
1.25713e-36
3.66832e-35
9.35585e-34
1.8376e-32
3.00814e-31
4.14777e-30
5.26455e-29
5.79298e-28
5.51641e-27
5.08808e-26
4.32893e-25
3.20234e-24
2.16655e-23
1.37814e-22
8.50771e-22
5.29288e-21
3.42121e-20
2.35757e-19
1.69381e-18
1.21994e-17
8.69937e-17
6.14043e-16
1.62299e-39
7.47261e-38
2.16326e-36
5.52989e-35
1.11289e-33
1.87989e-32
2.75414e-31
3.63838e-30
4.20825e-29
4.35771e-28
4.33458e-27
3.93928e-26
3.1755e-25
2.3653e-24
1.67467e-23
1.16352e-22
8.28842e-22
6.26458e-21
5.05501e-20
4.22005e-19
3.49117e-18
2.79591e-17
2.0441e-16
9.20004e-41
4.06184e-39
1.16547e-37
2.94437e-36
6.02808e-35
1.04274e-33
1.45064e-32
2.01329e-31
2.7104e-30
3.04435e-29
3.25322e-28
3.17614e-27
2.80743e-26
2.32281e-25
1.85416e-24
1.48398e-23
1.25414e-22
1.15309e-21
1.13199e-20
1.12729e-19
1.08031e-18
9.38294e-18
7.55462e-17
4.86372e-42
2.03139e-40
5.72096e-39
1.42056e-37
2.93827e-36
5.19316e-35
8.01393e-34
1.1602e-32
1.55773e-31
1.89003e-30
2.17149e-29
2.29682e-28
2.24473e-27
2.08916e-26
1.91994e-25
1.83248e-24
1.91309e-23
2.19362e-22
2.63222e-21
3.12009e-20
3.56708e-19
3.41466e-18
2.86251e-17
2.41936e-43
9.36846e-42
2.55788e-40
6.22992e-39
1.29472e-37
2.32872e-36
3.85252e-35
5.81206e-34
8.05013e-33
1.05246e-31
1.30501e-30
1.50957e-29
1.64974e-28
1.76219e-27
1.93677e-26
2.33383e-25
3.16229e-24
4.58172e-23
6.57868e-22
8.80176e-21
1.04683e-19
1.01974e-18
9.8072e-18
1.13638e-44
3.96963e-43
1.04121e-41
2.48578e-40
5.17277e-39
9.45278e-38
1.62775e-36
2.56794e-35
3.76514e-34
5.29974e-33
7.12032e-32
9.09005e-31
1.13275e-29
1.43731e-28
2.00696e-27
3.22677e-26
5.66577e-25
9.76383e-24
1.52253e-22
2.06097e-21
2.44002e-20
2.70559e-19
2.56963e-18
2.80324e-05
4.11035e-05
4.81755e-05
4.81071e-05
4.61118e-06
5.61799e-06
2.18788e-05
2.95924e-05
3.72332e-05
5.81577e-05
6.13146e-05
3.02539e-05
7.229e-05
5.64773e-05
0.0127564
0.0549338
1.79945e-05
0.000994862
0.269881
0.857763
5.45248e-05
0.589738
0.999998
1
9.65965e-07
0.0738886
0.859087
1
3.18025e-08
5.58825e-07
0.0767262
0.614813
-5.14168e-17
6.99681e-26
2.27491e-07
0.0205399
6.35809e-09
-6.48503e-13
2.03399e-13
1.29302e-07
2.04941e-08
2.61995e-16
7.40172e-10
1.06944e-09
1.57211e-06
8.54453e-08
7.05652e-10
8.88316e-09
2.72021e-06
3.71019e-07
2.0743e-08
4.44885e-08
1.2926e-06
4.90417e-07
2.6083e-07
2.4048e-07
2.08623e-09
2.05908e-07
1.71262e-07
1.18902e-07
2.01367e-09
1.97618e-09
4.12799e-09
2.49567e-09
2.48621e-09
1.89171e-09
1.97277e-09
2.01849e-09
1.80496e-09
1.8302e-09
2.26673e-09
2.42418e-09
1.0447e-09
1.30407e-09
1.50035e-09
1.89245e-09
3.81667e-10
4.70482e-10
8.08471e-10
8.8253e-10
1.3637e-10
2.22686e-10
2.48664e-10
4.39159e-10
4.2903e-11
4.90386e-11
1.07333e-10
1.30454e-10
1.23622e-11
1.83694e-11
2.20174e-11
5.22923e-11
2.92116e-12
3.60679e-12
7.91465e-12
1.21386e-11
1.27146e-12
1.82473e-12
2.25972e-12
5.01782e-12
8.56595e-13
1.0501e-12
1.76037e-12
2.74835e-12
7.72745e-13
1.14428e-12
1.78339e-12
3.33967e-12
7.32561e-13
1.0643e-12
2.3823e-12
4.30815e-12
6.46206e-13
1.29169e-12
2.51539e-12
5.586e-12
5.94472e-13
1.07893e-12
2.86624e-12
5.96638e-12
4.70005e-13
1.07994e-12
2.33156e-12
5.5919e-12
2.96413e-13
6.04403e-13
1.81175e-12
3.87357e-12
1.28157e-13
3.98709e-13
9.16869e-13
2.54937e-12
6.5124e-14
1.65462e-13
5.60643e-13
1.32825e-12
2.82181e-14
8.47647e-14
2.22324e-13
6.96852e-13
1.03651e-14
3.17435e-14
1.05454e-13
2.75351e-13
3.6508e-15
1.34469e-14
4.14994e-14
1.29435e-13
1.4906e-15
5.41227e-15
1.77836e-14
5.33694e-14
5.21909e-16
2.1968e-15
7.63157e-15
2.41828e-14
2.24787e-16
8.42035e-16
2.8603e-15
9.97329e-15
7.51041e-17
2.91118e-16
1.1001e-15
3.61645e-15
2.2194e-17
8.15841e-17
2.74813e-16
8.12589e-16
1.49672e-05
6.91152e-24
0.000285034
0.0991469
0.426612
0.634736
0.766729
0.846086
0.915681
0.948639
0.924639
0.830198
0.557535
0.181443
0.00141248
0.000194235
0.000192096
0.091302
0.0639307
-1.20763e-07
-1.79142e-19
0.152394
0.69504
0.935136
0.969629
0.995217
0.998134
0.999406
0.999858
0.999957
0.999916
0.999954
0.906746
0.577006
0.20542
0.285125
0.747016
0.270101
0.0102904
0.202208
0.441653
0.949553
0.996727
0.995746
1
0.999999
0.999999
0.999999
1
1
0.999998
0.999996
0.999099
0.916517
0.953563
0.955951
0.341691
0.0867342
0.65758
1
1
1
1
1
1
1
1
1
1
1
0.997038
0.978471
0.995572
0.996372
0.977318
0.643331
0.998824
1
1
1
1
1
1
1
1
1
1
0.999999
0.999999
0.999996
0.955728
0.888637
0.989231
0.93669
0.556036
1
1
1
1
1
1
1
1
1
1
1
0.999997
0.999997
0.999995
0.998425
0.838797
0.557942
0.55185
0.16153
1
1
1
1
1
1
1
1
1
1
1
1
1
1
1
0.96592
0.675958
0.432774
0.0987177
0.943056
1
1
1
1
0.999957
0.999908
0.999938
0.999995
1
1
1
1
1
1
1
0.978402
0.581045
0.098722
0.506813
0.998926
1
1
0.999999
0.999904
0.999856
0.999856
0.999962
1
1
1
0.999999
0.999998
0.999999
1
0.932828
0.361802
0.100571
0.0204398
0.516697
0.956801
1
1
0.99998
0.999894
0.999874
0.999982
1
1
1
0.999998
0.999997
0.999998
1
0.961833
0.525467
0.247895
1.11788e-09
4.4144e-08
0.320669
0.821041
0.995149
1
1
1
1
1
1
1
1
1
0.999999
0.999994
1
1
0.994848
3.38933e-08
3.59468e-08
2.88369e-08
0.0464747
0.47801
0.840332
0.992873
1
1
1
1
1
1
1
1
1
1
1
1
6.3973e-08
1.57512e-08
2.19567e-08
3.22374e-08
2.67587e-08
0.0753869
0.472686
0.801156
0.957671
0.9995
1
1
1
1
1
1
0.997926
0.962436
0.905377
1.28338e-07
1.56467e-08
2.38719e-08
5.02383e-08
8.66757e-08
1.07819e-07
1.04273e-07
0.038116
0.299053
0.55541
0.755413
0.861955
0.919913
0.938927
0.918163
0.759432
0.512218
0.305322
0.148421
6.94196e-08
1.86558e-08
5.69434e-09
3.71137e-08
7.37379e-08
1.49977e-07
2.18758e-07
1.10042e-07
1.11167e-07
1.07839e-07
0.0312002
0.123471
0.198424
0.230149
0.170899
0.033728
0.00182292
0.0110425
0.0176822
2.75793e-09
6.71651e-09
4.62451e-09
1.02262e-08
1.04719e-08
2.43285e-07
1.50567e-06
1.53016e-06
4.34335e-07
1.43139e-07
1.37081e-07
1.33997e-07
1.51269e-07
1.78785e-07
1.78108e-07
1.78783e-07
0.00313743
0.0497128
0.0177441
2.15208e-09
2.94136e-09
4.51412e-09
1.1015e-08
1.53643e-08
1.54936e-08
1.37828e-06
4.59481e-06
4.71659e-06
1.26843e-06
1.67283e-07
1.75498e-07
1.44041e-06
2.94444e-06
7.85752e-07
1.83162e-07
0.0108883
0.0751861
0.0205139
2.63838e-09
2.93469e-09
4.41196e-09
9.94603e-09
1.32903e-08
1.60969e-08
1.40077e-08
2.62516e-06
5.12533e-06
5.1384e-06
1.51657e-06
1.78714e-07
4.00278e-06
1.12702e-05
8.98839e-06
1.78785e-07
0.00179298
0.0543089
0.0140504
2.18321e-09
2.51682e-09
3.80108e-09
7.92091e-09
1.16808e-08
1.412e-08
1.40262e-08
1.39788e-08
2.61777e-06
5.11864e-06
5.12378e-06
4.08148e-07
1.37405e-06
9.66218e-06
1.00756e-05
1.28995e-06
0.00187506
2.29516e-05
5.74818e-06
1.42007e-09
1.87239e-09
3.0905e-09
5.78028e-09
8.99145e-09
1.24884e-08
1.47493e-08
1.39204e-08
1.36598e-08
2.12683e-06
4.59371e-06
1.49728e-06
4.51138e-08
2.02863e-08
2.65734e-06
1.08125e-08
0.00374084
0.000176701
5.76429e-06
7.32777e-10
1.32064e-09
2.22329e-09
3.8143e-09
6.128e-09
8.8799e-09
1.27345e-08
1.43161e-08
1.33904e-08
1.36565e-08
3.98409e-08
8.22538e-07
1.69978e-07
2.21255e-08
1.08125e-08
1.06741e-08
0.00369213
0.000701085
5.74849e-06
3.95845e-10
7.41721e-10
1.35513e-09
2.40025e-09
3.96276e-09
5.72165e-09
7.97544e-09
9.93047e-09
1.2964e-08
1.6933e-08
1.76098e-08
1.86085e-08
6.08371e-08
4.22813e-08
1.79222e-08
1.08125e-08
0.000683691
0.000548373
6.93536e-06
1.53181e-10
3.70505e-10
7.3298e-10
1.35179e-09
2.27923e-09
3.496e-09
4.91349e-09
5.56323e-09
4.98355e-09
1.39337e-08
3.1007e-08
3.25682e-08
3.00913e-08
2.87088e-08
2.06499e-08
1.4156e-08
1.2557e-08
1.49058e-08
7.84369e-06
6.34129e-11
1.67576e-10
3.49272e-10
6.97103e-10
1.25101e-09
1.96443e-09
2.77377e-09
3.41906e-09
3.94713e-09
6.56426e-09
1.36169e-08
1.95091e-08
1.75896e-08
1.76347e-08
1.77447e-08
1.50465e-08
1.26549e-08
2.06411e-08
7.06594e-07
2.26873e-11
6.789e-11
1.53311e-10
3.34014e-10
6.21186e-10
1.01157e-09
1.44463e-09
1.9865e-09
2.89257e-09
4.55848e-09
6.95894e-09
9.26143e-09
1.11658e-08
1.31919e-08
1.47354e-08
1.43172e-08
1.31411e-08
1.35514e-08
3.33759e-08
1.24969e-11
3.35882e-11
7.58267e-11
1.53793e-10
3.11205e-10
5.08386e-10
7.522e-10
1.17539e-09
1.97893e-09
3.377e-09
5.20353e-09
7.16076e-09
9.16432e-09
1.13467e-08
1.31603e-08
1.34577e-08
1.35087e-08
1.88451e-08
2.06644e-08
1.23663e-11
2.76889e-11
5.68597e-11
1.04706e-10
1.94913e-10
3.10467e-10
4.98022e-10
7.92573e-10
1.36557e-09
2.30552e-09
3.56001e-09
5.06394e-09
6.94956e-09
9.31523e-09
1.15484e-08
1.24284e-08
1.37548e-08
2.2248e-08
7.89136e-07
1.65297e-11
3.52552e-11
6.8612e-11
1.16207e-10
1.9614e-10
3.0584e-10
4.77619e-10
7.22611e-10
1.14196e-09
1.79437e-09
2.7136e-09
3.99357e-09
5.80947e-09
8.21488e-09
1.05522e-08
1.16017e-08
1.33213e-08
4.95389e-08
2.4326e-06
2.03685e-11
4.53903e-11
8.8173e-11
1.57195e-10
2.59336e-10
4.13221e-10
6.23947e-10
8.88881e-10
1.28031e-09
1.85151e-09
2.66645e-09
3.83317e-09
5.58133e-09
7.91241e-09
1.01298e-08
1.11304e-08
1.28855e-08
9.10465e-07
2.43088e-06
2.15075e-11
5.02703e-11
1.03412e-10
2.0113e-10
3.38501e-10
5.92595e-10
8.77182e-10
1.25422e-09
1.74653e-09
2.39554e-09
3.25316e-09
4.43875e-09
6.15855e-09
8.39448e-09
1.03367e-08
1.10915e-08
1.14119e-08
2.32504e-06
2.4326e-06
1.81635e-11
4.64376e-11
1.04173e-10
2.21035e-10
4.18748e-10
7.50509e-10
1.1745e-09
1.74549e-09
2.45917e-09
3.33656e-09
4.38139e-09
5.7174e-09
7.53836e-09
9.71791e-09
1.11755e-08
1.14126e-08
1.42767e-08
2.40855e-06
2.39133e-06
1.32798e-11
3.68462e-11
9.0618e-11
1.92837e-10
4.40715e-10
8.40326e-10
1.44469e-09
2.2615e-09
3.28433e-09
4.50142e-09
6.00024e-09
7.79776e-09
9.89853e-09
1.21251e-08
1.27705e-08
1.22223e-08
1.76366e-08
1.84832e-06
2.02982e-07
7.61099e-12
2.31553e-11
6.74055e-11
1.55539e-10
3.63299e-10
7.9263e-10
1.4937e-09
2.54706e-09
4.00809e-09
5.79598e-09
8.04116e-09
1.06499e-08
1.32816e-08
1.65923e-08
1.68634e-08
1.58008e-08
1.3015e-07
7.41559e-08
1.08829e-08
4.11194e-12
1.34089e-11
4.15243e-11
1.12039e-10
2.8035e-10
6.31166e-10
1.33677e-09
2.53335e-09
4.26776e-09
6.90933e-09
1.05413e-08
1.41603e-08
1.81039e-08
2.79202e-08
3.42089e-08
3.22533e-08
1.38525e-07
1.43593e-08
8.8709e-09
1.86974e-12
6.87966e-12
2.27986e-11
6.81026e-11
1.80646e-10
4.54666e-10
9.92496e-10
2.05996e-09
3.89317e-09
6.85438e-09
1.05629e-08
1.3635e-08
2.05403e-08
7.2584e-08
1.62792e-07
1.63588e-07
5.82946e-08
1.13683e-08
2.92047e-09
8.30474e-13
3.30473e-12
1.17608e-11
3.78742e-11
1.09828e-10
2.93211e-10
7.19359e-10
1.6008e-09
3.42615e-09
5.95655e-09
8.06979e-09
1.12005e-08
2.84613e-08
1.27136e-07
1.66532e-07
1.66667e-07
1.10591e-07
1.97246e-08
2.87789e-09
3.51764e-13
1.51762e-12
5.86292e-12
2.00266e-11
6.23354e-11
1.7612e-10
4.56954e-10
1.128e-09
2.67319e-09
5.00403e-09
7.0873e-09
1.40887e-08
4.12408e-08
5.21945e-08
1.0763e-07
1.66532e-07
1.12217e-07
2.89725e-08
2.03333e-09
1.6129e-13
7.28091e-13
2.94248e-12
1.08187e-11
3.49538e-11
1.01845e-10
2.83388e-10
7.12786e-10
1.78435e-09
3.83165e-09
6.53518e-09
1.22107e-08
2.60441e-08
2.4666e-08
2.45625e-08
4.3666e-08
1.47316e-08
3.36653e-09
1.46242e-09
7.23113e-14
3.53856e-13
1.50101e-12
5.71464e-12
1.90203e-11
5.92779e-11
1.62277e-10
4.08847e-10
9.84588e-10
2.30567e-09
4.30459e-09
6.63433e-09
9.52731e-09
1.22499e-08
1.27993e-08
1.81697e-09
1.16e-09
1.14668e-09
2.85962e-10
2.9761e-14
1.4522e-13
6.49731e-13
2.52538e-12
8.69592e-12
2.76532e-11
7.88603e-11
2.04424e-10
4.92622e-10
1.09477e-09
2.10416e-09
3.26927e-09
4.10588e-09
5.61058e-09
5.21956e-09
2.07755e-09
1.14238e-09
3.18973e-10
1.61889e-10
1.06142e-14
5.21713e-14
2.27258e-13
8.86056e-13
3.09262e-12
9.94818e-12
2.92015e-11
7.84264e-11
1.90337e-10
4.11969e-10
7.99065e-10
1.32564e-09
1.83825e-09
2.09108e-09
1.61331e-09
6.66071e-10
2.67259e-10
1.65786e-10
4.60303e-11
2.32209e-15
1.14195e-14
5.03566e-14
1.94877e-13
6.83466e-13
2.25976e-12
6.74802e-12
1.82648e-11
4.48696e-11
9.96917e-11
1.95625e-10
3.21214e-10
4.12191e-10
4.19894e-10
3.16157e-10
1.17597e-10
8.59421e-11
2.43103e-11
4.91142e-12
)
;

boundaryField
{
    leftWall
    {
        type            alphaContactAngle;
        contactAngleProperties 
        {
            mercury         
            {
                theta0          90;
            }
            air             
            {
                theta0          90;
            }
            water           
            {
                theta0          90;
            }
        }
        value           nonuniform List<scalar> 
50
(
1.54919e-38
3.72964e-37
1.0141e-35
6.77479e-33
1.21239e-31
3.97798e-31
1.18084e-30
3.57153e-30
7.52065e-29
2.09746e-27
9.0061e-23
1.51845e-21
5.4678e-23
4.27155e-25
4.98464e-25
1.71201e-25
2.18346e-25
4.83488e-25
1.00803e-24
1.65874e-24
2.20884e-24
2.34525e-24
2.17906e-24
1.77751e-24
1.28373e-24
8.15636e-25
4.62831e-25
2.35095e-25
1.11135e-25
4.63885e-26
1.5118e-26
3.88149e-27
8.53439e-28
1.848e-28
4.13028e-29
9.1701e-30
1.85394e-30
3.23101e-31
4.7869e-32
6.05979e-33
6.61537e-34
6.29893e-35
5.28533e-36
3.95062e-37
2.65981e-38
1.62299e-39
9.20004e-41
4.86372e-42
2.41936e-43
1.13638e-44
)
;
    }
    rightWall
    {
        type            alphaContactAngle;
        contactAngleProperties 
        {
            mercury         
            {
                theta0          90;
            }
            air             
            {
                theta0          90;
            }
            water           
            {
                theta0          90;
            }
        }
        value           nonuniform List<scalar> 
50
(
0.0375799
0.0384894
0.0864577
0.113658
0.101535
0.0603222
0.00907287
0.000224218
0.0639307
0.270101
0.341691
0.643331
0.556036
0.16153
0.0987177
0.098722
0.100571
0.247895
0.994848
1
0.905377
0.148421
0.0176822
0.0177441
0.0205139
0.0140504
5.74818e-06
5.76429e-06
5.74849e-06
6.93536e-06
7.84369e-06
7.06594e-07
3.33759e-08
2.06644e-08
7.89136e-07
2.4326e-06
2.43088e-06
2.4326e-06
2.39133e-06
2.02982e-07
1.08829e-08
8.8709e-09
2.92047e-09
2.87789e-09
2.03333e-09
1.46242e-09
2.85962e-10
1.61889e-10
4.60303e-11
4.91142e-12
)
;
    }
    lowerWall
    {
        type            alphaContactAngle;
        contactAngleProperties 
        {
            mercury         
            {
                theta0          90;
            }
            air             
            {
                theta0          90;
            }
            water           
            {
                theta0          90;
            }
        }
        value           nonuniform List<scalar> 
62
(
1.54919e-38
1.50875e-37
4.81443e-37
8.79646e-37
1.67844e-35
5.00971e-30
1.31804e-24
7.19099e-20
4.51217e-17
8.01261e-16
8.36493e-15
6.58115e-14
3.93252e-13
1.83616e-12
7.95653e-12
3.27131e-11
9.43987e-11
1.69435e-10
1.59991e-10
1.62169e-10
6.22529e-05
0.000535898
0.000569092
0.000569092
0.000560043
2.63572e-05
5.32241e-08
5.8777e-06
2.58498e-05
2.5942e-05
2.45293e-05
2.80324e-05
4.11035e-05
4.81755e-05
4.81071e-05
0.927739
0.834705
0.831325
0.833379
0.824608
0.0632408
2.28052e-23
7.77932e-06
0.927739
0.951253
0.951446
0.951337
0.947602
0.846072
0.646675
0.53509
0.543652
0.595567
0.672135
0.707319
0.707345
0.707348
0.544369
0.112297
0.0376284
0.0376841
0.0375799
)
;
    }
    atmosphere
    {
        type            inletOutlet;
        inletValue      uniform 0;
        value           nonuniform List<scalar> 
46
(
1.13638e-44
3.96963e-43
1.04121e-41
2.48578e-40
5.17277e-39
9.45278e-38
1.62775e-36
2.56794e-35
3.76514e-34
5.29974e-33
7.12032e-32
9.09005e-31
1.13275e-29
1.43731e-28
2.00696e-27
3.22677e-26
5.66577e-25
9.76383e-24
1.52253e-22
2.06097e-21
2.44002e-20
2.70559e-19
2.56963e-18
2.2194e-17
8.15841e-17
2.74813e-16
8.12589e-16
2.32209e-15
0
0
0
0
0
0
0
0
0
0
0
0
0
0
0
0
0
0
)
;
    }
    defaultFaces
    {
        type            empty;
    }
}


// ************************************************************************* //
