/*--------------------------------*- C++ -*----------------------------------*\
  =========                 |
  \\      /  F ield         | OpenFOAM: The Open Source CFD Toolbox
   \\    /   O peration     | Website:  https://openfoam.org
    \\  /    A nd           | Version:  13
     \\/     M anipulation  |
\*---------------------------------------------------------------------------*/
FoamFile
{
    format      ascii;
    class       volScalarField;
    location    "0.75";
    object      alpha.air;
}
// * * * * * * * * * * * * * * * * * * * * * * * * * * * * * * * * * * * * * //

dimensions      [];

internalField   nonuniform List<scalar> 
2268
(
4.02855e-15
2.92554e-14
2.60723e-14
1.23742e-14
6.37696e-15
3.32195e-15
1.83841e-15
8.34744e-16
3.29824e-16
1.07519e-16
3.32923e-17
6.39278e-18
1.60759e-18
8.81863e-19
9.40817e-19
1.4052e-18
2.37735e-18
3.28693e-18
3.34751e-18
3.00235e-18
3.02456e-18
2.70237e-17
3.69025e-16
7.16314e-15
3.83123e-13
2.89198e-13
1.30204e-13
6.89083e-14
3.53647e-14
2.10191e-14
1.2334e-14
6.05391e-15
2.23151e-15
6.89844e-16
2.03765e-16
5.07372e-17
9.77732e-18
8.50057e-18
1.29731e-17
2.2268e-17
3.57955e-17
3.84853e-17
6.11627e-17
3.28036e-16
1.73021e-15
4.48034e-15
8.58204e-13
4.16382e-12
3.36055e-12
1.94261e-12
9.86565e-13
4.76977e-13
2.27721e-13
1.00005e-13
3.72196e-14
1.84309e-14
5.93015e-15
2.38521e-15
7.53894e-16
2.08371e-16
8.8914e-17
8.37651e-17
1.25679e-16
2.31729e-16
3.69463e-16
2.10599e-15
1.19057e-14
5.74496e-14
1.84035e-13
8.24723e-11
7.68336e-11
5.745e-11
3.68424e-11
2.05441e-11
9.2061e-12
3.91865e-12
1.33368e-12
4.36585e-13
1.2542e-13
3.19058e-14
1.07969e-14
4.9972e-15
1.39125e-15
7.11755e-16
7.38993e-16
6.63541e-16
1.03247e-15
3.39826e-15
1.1566e-14
6.18462e-14
7.0782e-13
4.20872e-12
3.45892e-10
2.66701e-10
2.15695e-10
1.72907e-10
1.24778e-10
7.70037e-11
3.71922e-11
1.65616e-11
7.83881e-12
3.39394e-12
1.28371e-12
3.59551e-13
1.11351e-13
4.68586e-14
1.38221e-14
8.12333e-15
7.70974e-15
8.19331e-15
8.65912e-15
1.03941e-14
1.54699e-13
5.85228e-12
5.03168e-11
4.71796e-10
3.82098e-10
3.43375e-10
3.13591e-10
2.66396e-10
1.97307e-10
1.26121e-10
6.52177e-11
2.99696e-11
1.58523e-11
7.72036e-12
3.81149e-12
1.6098e-12
5.83975e-13
2.20932e-13
1.18228e-13
4.40178e-14
2.37509e-14
3.04899e-14
1.4925e-13
3.30347e-12
2.01396e-11
1.3948e-10
5.56323e-10
4.82881e-10
4.566e-10
4.42206e-10
4.07166e-10
3.34338e-10
2.54732e-10
1.74112e-10
9.78828e-11
5.03724e-11
2.65525e-11
1.39711e-11
7.60872e-12
3.53956e-12
1.37114e-12
4.18794e-13
9.59289e-14
1.63121e-13
1.06365e-12
3.29199e-12
5.78689e-11
2.58909e-10
1.41534e-10
6.08091e-10
5.70435e-10
5.65379e-10
5.88449e-10
5.52103e-10
4.98872e-10
4.16194e-10
3.36463e-10
2.48961e-10
1.51333e-10
8.22989e-11
4.57632e-11
2.52514e-11
1.24491e-11
3.7037e-12
4.42322e-13
7.29147e-12
3.52796e-11
9.25645e-11
1.15912e-10
2.07454e-10
2.61521e-09
1.67923e-07
0.047706
0.00136254
0.00142519
0.000315463
4.36705e-05
0.000860479
0.0184781
0.0225497
0.0224976
0.01515
0.000560389
6.84381e-05
6.95763e-05
0.119673
0.385517
0.758505
0.75874
0.758653
0.758804
0.160291
0.0389369
0.00551208
4.35969e-05
4.34823e-05
4.99819e-05
4.5852e-05
4.97245e-05
5.562e-05
5.61455e-05
6.68931e-05
6.74138e-05
6.99476e-05
0.00589994
0.584513
0.758963
0.759014
0.758957
0.758965
0.165741
0.0626513
0.00277715
6.44249e-05
8.38112e-05
0.000273855
0.000350162
0.00035075
0.000235242
0.000115776
0.000151944
9.54634e-05
7.1387e-05
0.00619959
0.473444
0.759013
0.758963
0.702894
0.491545
0.165012
0.0695118
0.00199413
9.6627e-09
4.90777e-06
5.48758e-05
0.000178896
0.000194676
0.00012534
1.66821e-05
4.12184e-06
0.000164694
7.2666e-05
7.26171e-05
0.144787
0.566158
0.519773
0.405179
0.284093
0.063486
0.0167872
0.000324097
1.45179e-08
4.93379e-08
1.69846e-07
3.6927e-09
7.24828e-10
1.57056e-09
3.66242e-08
2.95135e-09
4.48355e-06
0.000399162
0.000434431
0.0811845
0.454637
0.451872
0.119651
0.284525
5.0399e-07
4.89412e-07
1.6491e-05
1.33084e-05
5.62265e-06
1.0234e-06
7.19023e-07
1.33454e-06
2.70389e-06
3.39943e-06
3.27619e-06
5.80425e-07
5.33953e-05
0.00064466
0.0363073
0.144193
0.0709018
0.0201151
0.28213
4.94085e-07
2.80531e-05
9.46065e-05
5.84314e-05
1.86354e-05
1.73735e-06
1.52569e-06
3.37049e-05
6.87099e-05
0.00011731
0.0001064
4.56886e-05
6.57039e-05
0.000577173
3.56288e-08
7.20118e-09
0.00374343
0.000128784
0.219637
0.000174623
0.000296642
0.000252438
0.000135762
0.00123132
0.00224816
0.00367848
0.0030879
0.00174144
0.00077958
0.000742249
0.000664297
0.000167299
0.000181897
1.01272e-05
1.1534e-08
1.80515e-05
3.10126e-12
0.152596
6.26732e-10
6.24411e-10
6.55369e-10
7.12854e-10
7.28528e-10
7.09927e-10
6.53751e-10
5.32357e-10
3.93543e-10
3.1099e-10
2.53713e-10
1.81772e-10
1.13893e-10
8.05407e-11
7.3697e-11
1.58353e-10
4.02173e-10
6.94184e-10
9.33928e-10
2.2611e-09
6.10781e-10
6.02711e-10
2.8535e-06
6.16928e-10
6.18949e-10
6.35407e-10
6.85111e-10
7.66091e-10
8.8799e-10
1.01163e-09
1.03631e-09
9.48988e-10
8.2275e-10
5.49047e-10
4.12679e-10
3.50034e-10
3.28249e-10
4.45008e-10
7.22271e-10
1.20482e-09
1.71048e-09
1.7394e-09
5.14171e-09
2.099e-09
5.27031e-08
7.92492e-06
6.14903e-10
6.14918e-10
6.14907e-10
6.14943e-10
6.14917e-10
6.43294e-10
7.93895e-10
1.16307e-09
2.0263e-09
2.45336e-09
2.17581e-09
1.23163e-09
6.79046e-10
6.55359e-10
1.06266e-09
1.43302e-09
1.64747e-09
2.32933e-09
2.9404e-09
4.26019e-09
5.0711e-09
2.90134e-09
0.000200408
6.14917e-10
6.14903e-10
6.14917e-10
6.15668e-10
6.16927e-10
6.24495e-10
6.24133e-10
7.19977e-10
8.80069e-10
1.0706e-09
1.26194e-09
1.08606e-09
6.62454e-10
6.58931e-10
6.60632e-10
8.95804e-10
0.00237592
0.0197085
0.0561296
0.106824
0.169597
0.242331
0.352545
0.135412
0.219784
0.285389
0.310722
0.304517
0.279722
0.238233
0.183042
0.130862
0.100409
0.103756
0.128785
0.169463
0.220082
0.27753
0.357645
0.487397
0.622677
0.73696
0.820178
0.88353
0.937446
0.978232
0.849589
0.91705
0.951525
0.962243
0.961377
0.954119
0.94225
0.934271
0.937674
0.942096
0.932229
0.930904
0.943669
0.958457
0.977646
1
1
0.999996
0.999993
0.999991
0.999983
0.999929
0.999932
1
1
1
1
1
1
1
1
1
1
1
1
1
1
1
1
0.999999
1
0.999999
0.999993
0.999993
0.999991
0.99999
1
1
1
1
1
1
1
1
1
1
1
1
1
1
1
1
1
1
1
0.999977
0.999969
1
1
1
1
1
1
1
1
1
1
1
1
1
1
1
1
1
1
1
1
1
0.999978
0.999779
0.999827
1
1
1
1
1
1
1
1
1
1
1
1
1
1
1
1
1
1
1
1
0.999995
0.999764
0.999724
0.999882
1
1
1
1
1
1
1
1
1
1
1
1
1
1
1
1
1
1
1
1
0.999922
0.999703
0.999824
1
1
1
1
1
1
1
1
1
1
1
1
1
1
1
1
1
1
1
1
1
0.999968
0.999957
1
1
1
1
1
1
1
1
1
1
1
1
1
1
1
1
1
1
1
1
1
0.999999
0.999996
1
1
1
1
1
1
1
1
1
1
1
1
1
1
1
1
1
1
1
1
1
1
0.999996
1
1
1
1
1
1
1
1
1
1
1
1
1
1
1
1
1
1
1
1
1
1
0.999999
1
1
1
1
1
1
1
1
1
1
1
1
1
1
1
1
1
1
1
1
1
1
1
1
1
1
1
1
1
1
1
1
1
1
1
1
1
1
1
1
1
1
1
1
1
1
1
1
1
1
1
1
1
1
1
1
1
1
1
1
1
1
1
1
1
1
1
1
1
1
1
1
1
1
1
1
1
1
1
1
1
1
1
1
1
1
1
1
1
1
1
1
1
1
1
1
1
1
1
1
1
1
1
1
1
1
1
1
1
1
1
1
1
1
1
1
1
1
1
1
1
1
1
1
1
1
1
1
1
1
1
1
1
1
1
1
1
1
1
1
1
1
1
1
1
1
1
1
1
1
1
1
1
1
1
1
1
1
1
1
1
1
1
1
1
1
1
1
1
1
1
1
1
1
1
1
1
1
1
1
1
1
1
1
1
1
1
1
1
1
1
1
1
1
1
1
1
1
1
1
1
1
1
1
1
1
1
1
1
1
1
1
1
1
1
1
1
1
1
1
1
1
1
1
1
1
1
1
1
1
1
1
1
1
1
1
1
1
1
1
1
1
1
1
1
1
1
1
1
1
1
1
1
1
1
1
1
1
1
1
1
1
1
1
1
1
1
1
1
1
1
1
1
1
1
1
1
1
1
1
1
1
1
1
1
1
1
1
1
1
1
1
1
1
1
1
1
1
1
1
1
1
1
1
1
1
1
1
1
1
1
1
1
1
1
1
1
1
1
1
1
1
1
1
1
1
1
1
1
1
1
1
1
1
1
1
1
1
1
1
1
1
1
1
1
1
1
1
1
1
1
1
1
1
1
1
1
1
1
1
1
1
1
1
1
1
1
1
1
1
1
1
1
1
1
1
1
1
1
1
1
1
1
1
1
1
1
1
1
1
1
1
1
1
1
1
1
1
1
1
1
1
1
1
1
1
1
1
1
1
1
1
1
1
1
1
1
1
1
1
1
1
1
1
1
1
1
1
1
1
1
1
1
1
1
1
1
1
1
1
1
1
1
1
1
1
1
1
1
1
1
1
1
1
1
1
1
1
1
1
1
1
1
1
1
1
1
1
1
1
1
1
1
1
1
1
1
1
1
1
1
1
1
1
1
1
1
1
1
1
1
1
1
1
1
1
1
1
1
1
1
1
1
1
1
1
1
1
1
1
1
1
1
1
1
1
1
1
1
1
1
1
1
1
1
1
1
1
1
1
1
1
1
1
1
1
1
1
1
1
1
1
1
1
1
1
1
1
1
1
1
1
1
1
1
1
1
1
1
1
1
1
1
1
1
1
1
1
1
1
1
1
1
1
1
1
1
1
1
1
1
1
1
1
1
1
1
1
1
1
1
1
1
1
1
1
1
1
1
1
1
1
1
1
1
1
1
1
1
1
1
1
1
1
1
1
1
1
1
1
1
7.16934e-05
0.000132906
0.000415133
0.000456409
0.000348933
0.000581349
0.00145591
0.00295242
0.0197073
0.0477749
0.0975459
0.354811
0.535542
0.753342
0.944112
0.942455
0.995231
0.995818
0.729633
0.142237
0.999945
0.410241
1.65622e-06
8.10962e-10
0.999999
0.926111
0.140913
6.63303e-08
1
0.999999
0.923274
0.385187
1
1
1
0.97946
1
1
1
1
1
1
1
1
0.999998
1
1
1
0.999994
0.999998
0.999997
0.999995
0.999994
0.999994
0.999995
0.999995
0.999996
0.999995
0.999995
0.999995
1
0.999999
0.999997
0.999996
1
1
1
1
1
1
1
1
1
1
1
1
1
1
1
1
1
1
1
1
1
1
1
1
1
1
1
1
1
1
1
1
1
1
1
1
1
1
1
1
1
1
1
1
1
1
1
1
1
1
1
1
1
1
1
1
1
1
1
1
1
1
1
1
1
1
1
1
1
1
1
1
1
1
1
1
1
1
1
1
1
1
1
1
1
1
1
1
1
1
1
1
1
1
1
1
1
1
1
1
1
1
1
1
0.0117914
0.0051233
0.0771553
0.0724028
0.0414745
0.0262079
0.0124714
0.00673521
0.00251262
0.000619011
0.000583348
0.000522217
0.000136976
2.41989e-07
3.29001e-05
6.95708e-05
7.84236e-05
2.42343e-06
0.157627
0.07698
0.438859
0.576355
0.23403
0.0648635
0.0303705
0.00478271
0.00186524
0.000593473
0.000140455
4.15943e-05
8.30993e-05
4.63419e-05
3.16343e-07
1.3035e-05
8.14458e-05
9.76678e-05
0.000648098
0.0361943
0.756381
0.770758
0.558347
0.0504468
0.00327338
0.00425331
8.7605e-15
8.83144e-15
1.50598e-14
1.59405e-14
1.05149e-13
1.41398e-08
1.91435e-06
4.09166e-25
6.82665e-23
-1.2978e-09
2.66587e-05
0.000195205
9.41326e-22
0.913266
0.34242
9.35866e-11
1.1903e-10
9.35866e-11
1.1903e-10
2.30011e-08
4.12086e-08
2.94328e-08
1.46597e-08
1.64036e-08
1.36141e-08
1.3355e-08
0.00295784
0.0211463
7.18109e-20
1.79198e-10
-2.38256e-22
-1.36935e-18
0.00117638
8.10951e-10
8.08001e-10
1.3356e-09
2.9623e-09
9.1386e-09
8.55815e-08
1.1083e-07
7.07101e-08
3.28728e-08
1.05733e-07
4.94719e-07
4.93462e-07
3.47998e-08
0.0437957
0.110472
0.0095907
0.0460111
0.082912
8.10951e-10
8.10859e-10
9.60221e-10
4.04417e-09
6.98275e-09
5.46345e-09
5.71864e-08
1.01221e-07
1.03876e-07
1.2924e-07
3.01479e-07
2.65634e-06
2.65167e-06
1.01547e-08
0.0013836
0.160809
0.442058
0.436767
0.477553
8.10859e-10
8.19026e-10
1.73547e-09
9.85882e-09
1.55912e-08
7.88092e-09
4.0227e-07
3.98839e-09
3.43371e-09
2.94652e-07
2.95696e-07
1.68137e-07
8.69022e-08
8.68258e-08
1.51693e-07
0.0340793
0.324042
0.560196
0.684901
0.0569442
8.10284e-10
8.10359e-10
8.10784e-10
7.41358e-08
4.26486e-05
9.18396e-05
6.1881e-05
5.06912e-06
3.49795e-08
1.09651e-07
1.32066e-07
8.54562e-08
8.87446e-08
9.12321e-08
1.32403e-07
0.0215391
0.417305
0.897107
0.493187
0.00107434
8.10284e-10
8.11076e-10
8.21561e-07
9.58271e-05
0.000143896
0.000143706
3.80299e-05
3.53754e-08
3.62159e-08
4.26163e-08
1.17641e-06
2.07105e-06
5.58341e-07
1.23336e-07
0.0671601
0.638143
0.899296
0.97956
0.483303
0.0431986
1.29194e-09
1.47317e-09
1.96427e-05
0.000106196
0.000125672
1.8021e-05
3.60251e-08
3.81835e-08
6.93719e-08
2.14677e-06
2.91948e-06
1.79244e-06
1.29903e-07
0.0381675
0.474506
0.75204
1
1
0.679331
0.178959
0.00485141
8.47672e-09
1.14009e-08
1.26429e-08
2.04705e-08
3.85321e-08
4.40735e-08
1.08874e-07
1.08099e-07
1.0711e-07
1.04555e-06
5.55422e-06
7.01876e-08
8.41968e-08
0.00515186
0.999999
1
1
0.953525
0.52199
0.159668
0.0071271
1.68093e-08
4.36712e-08
3.72469e-08
4.65295e-08
1.11745e-07
1.02973e-07
5.66632e-08
5.44108e-08
5.713e-08
7.16444e-08
6.90709e-08
7.56172e-08
0.999996
1
1
1
1
0.924613
0.527314
0.198844
0.0423286
0.0004996
3.61551e-08
3.87553e-08
4.01486e-08
4.37072e-08
4.82764e-08
4.99561e-08
0.00207401
0.0375644
0.094623
0.999995
0.999998
1
1
1
1
1
0.961884
0.700947
0.44459
0.244587
0.138045
0.0800867
0.0610734
0.0818365
0.240568
0.487782
0.694678
0.851579
0.999995
0.999998
1
1
1
1
1
1
1
1
0.9688
0.876529
0.801576
0.769851
0.829101
0.966272
0.998177
0.988957
0.982318
0.999995
0.999999
1
1
1
1
0.999998
0.999998
1
1
1
1
1
1
1
1
0.996863
0.950287
0.982256
1
1
1
1
1
1
0.999999
0.999995
0.999995
0.999999
1
1
0.999999
0.999997
0.999999
1
0.989112
0.924814
0.979486
1
1
1
1
1
1
1
0.999997
0.999995
0.999995
0.999998
1
0.999996
0.999989
0.999991
1
0.998207
0.945691
0.98595
1
1
1
1
1
1
1
1
0.999997
0.999995
0.999995
1
0.999999
0.99999
0.99999
0.999999
0.998125
0.999977
0.999994
1
1
1
1
1
1
1
1
1
0.999998
0.999995
0.999999
1
1
0.999997
1
0.996259
0.999823
0.999994
1
1
1
1
1
1
1
1
1
1
1
0.999999
1
1
1
1
0.996308
0.999299
0.999994
1
1
1
1
1
1
1
1
1
1
1
1
1
1
1
1
0.999316
0.999452
0.999993
1
1
1
1
1
1
1
1
1
1
1
1
1
1
1
1
1
1
0.999992
1
1
1
1
1
1
1
1
1
1
1
1
1
1
1
1
1
1
0.999999
1
1
1
1
1
1
1
1
1
1
1
1
1
1
1
1
1
1
1
1
1
1
1
1
1
1
1
1
1
1
1
1
1
1
1
1
1
1
1
1
1
1
1
1
1
1
1
1
1
1
1
1
1
1
1
1
0.999999
1
1
1
1
1
1
1
1
1
1
1
1
1
1
1
1
1
1
0.999998
1
1
1
1
1
1
1
1
1
1
1
1
1
1
1
1
1
0.999999
0.999998
1
1
1
1
1
1
1
1
1
1
1
1
1
1
1
1
1
0.999998
0.999998
1
1
1
1
1
1
1
1
1
1
1
1
1
1
1
1
1
0.999998
0.999998
1
1
1
1
1
1
1
1
1
1
1
1
1
1
1
1
1
0.999998
1
1
1
1
1
1
1
1
1
1
1
1
1
1
1
1
1
1
1
1
1
1
1
1
1
1
1
1
1
1
1
1
1
1
1
1
1
1
1
1
1
1
1
1
1
1
1
1
1
1
1
1
1
1
1
1
1
1
1
1
1
1
1
1
1
1
1
1
1
1
1
1
1
1
1
1
1
1
1
1
1
1
1
1
1
1
1
1
1
1
1
1
1
1
1
1
1
1
1
1
1
1
1
1
1
1
1
1
1
1
1
1
1
1
1
1
1
1
1
1
1
1
1
1
1
1
1
1
1
1
1
1
1
1
1
1
1
1
1
1
1
1
1
1
1
1
1
1
1
1
1
1
1
1
1
1
1
1
1
1
1
1
1
1
1
1
1
1
1
1
1
1
1
1
1
1
1
1
1
1
1
1
1
1
1
1
1
1
1
1
1
)
;

boundaryField
{
    leftWall
    {
        type            alphaContactAngle;
        contactAngleProperties 
        {
            mercury         
            {
                theta0          90;
            }
            water           
            {
                theta0          90;
            }
            oil             
            {
                theta0          90;
            }
        }
        value           nonuniform List<scalar> 
50
(
4.02855e-15
7.16314e-15
8.58204e-13
8.24723e-11
3.45892e-10
4.71796e-10
5.56323e-10
6.08091e-10
6.26732e-10
6.16928e-10
6.14903e-10
6.14917e-10
0.135412
0.849589
1
1
1
1
1
1
1
1
1
1
1
1
1
1
1
1
1
1
1
1
1
1
1
1
1
1
1
1
1
1
1
1
1
1
1
1
)
;
    }
    rightWall
    {
        type            alphaContactAngle;
        contactAngleProperties 
        {
            mercury         
            {
                theta0          90;
            }
            water           
            {
                theta0          90;
            }
            oil             
            {
                theta0          90;
            }
        }
        value           nonuniform List<scalar> 
50
(
0.758804
0.758965
0.491545
0.284093
0.284525
0.28213
0.219637
0.152596
0.157627
0.0361943
9.41326e-22
-1.36935e-18
0.082912
0.477553
0.684901
0.897107
0.899296
0.75204
0.00515186
7.56172e-08
0.094623
0.851579
0.982318
0.982256
0.979486
0.98595
0.999994
0.999994
0.999994
0.999993
0.999992
0.999999
1
1
0.999999
0.999998
0.999998
0.999998
0.999998
1
1
1
1
1
1
1
1
1
1
1
)
;
    }
    lowerWall
    {
        type            alphaContactAngle;
        contactAngleProperties 
        {
            mercury         
            {
                theta0          90;
            }
            water           
            {
                theta0          90;
            }
            oil             
            {
                theta0          90;
            }
        }
        value           nonuniform List<scalar> 
62
(
4.02855e-15
2.92554e-14
2.60723e-14
1.23742e-14
6.37696e-15
3.32195e-15
1.83841e-15
8.34744e-16
3.29824e-16
1.07519e-16
3.32923e-17
6.39278e-18
1.60759e-18
8.81863e-19
9.40817e-19
1.4052e-18
2.37735e-18
3.28693e-18
3.34751e-18
3.00235e-18
3.02456e-18
2.70237e-17
3.69025e-16
3.69025e-16
4.48034e-15
1.84035e-13
4.20872e-12
5.03168e-11
1.3948e-10
1.41534e-10
1.67923e-07
7.16934e-05
0.000132906
0.000415133
0.000456409
0.047706
0.160291
0.165741
0.165012
0.063486
5.0399e-07
4.94085e-07
0.000174623
0.047706
0.00136254
0.00142519
0.000315463
4.36705e-05
0.000860479
0.0184781
0.0225497
0.0224976
0.01515
0.000560389
6.84381e-05
6.95763e-05
0.119673
0.385517
0.758505
0.75874
0.758653
0.758804
)
;
    }
    atmosphere
    {
        type            inletOutlet;
        inletValue      uniform 1;
        value           nonuniform List<scalar> 
46
(
1
1
1
1
1
1
1
1
1
1
1
1
1
1
1
1
1
1
1
1
1
1
1
1
1
1
1
1
1
1
1
1
1
1
1
1
1
1
1
1
1
1
1
1
1
1
)
;
    }
    defaultFaces
    {
        type            empty;
    }
}


// ************************************************************************* //
