/*--------------------------------*- C++ -*----------------------------------*\
  =========                 |
  \\      /  F ield         | OpenFOAM: The Open Source CFD Toolbox
   \\    /   O peration     | Website:  https://openfoam.org
    \\  /    A nd           | Version:  13
     \\/     M anipulation  |
\*---------------------------------------------------------------------------*/
FoamFile
{
    format      ascii;
    class       volScalarField;
    location    "0.75";
    object      epsilon;
}
// * * * * * * * * * * * * * * * * * * * * * * * * * * * * * * * * * * * * * //

dimensions      [0 2 -3 0 0 0 0];

internalField   nonuniform List<scalar> 
2268
(
0.00776176
0.0262365
0.0472638
0.0676875
0.0875806
0.10615
0.123112
0.138697
0.153516
0.168445
0.184472
0.202589
0.223906
0.249788
0.282427
0.323116
0.3665
0.402225
0.415001
0.385768
0.297047
0.154796
0.0354787
0.00877334
0.0186515
0.028991
0.0392806
0.0496785
0.0599028
0.0695006
0.0780315
0.0853378
0.0916444
0.0974111
0.103146
0.109355
0.116645
0.125818
0.137575
0.150731
0.162531
0.168808
0.164384
0.144062
0.106531
0.068813
0.0140349
0.0197494
0.0279617
0.0361862
0.0445149
0.0528323
0.060723
0.06769
0.0734804
0.078258
0.0824768
0.0866616
0.0913205
0.0969838
0.104234
0.113406
0.124285
0.135921
0.146728
0.154518
0.156171
0.147605
0.141753
0.0207763
0.0227694
0.0296146
0.0368169
0.0441207
0.0513883
0.0582903
0.0644139
0.0695261
0.0738105
0.0777655
0.0819405
0.0868507
0.0930098
0.100872
0.110857
0.123316
0.138444
0.156438
0.17747
0.200885
0.223214
0.261404
0.0284097
0.0263563
0.0321563
0.0386388
0.0452261
0.0517024
0.0577808
0.063231
0.0679611
0.0721724
0.0763524
0.081037
0.086746
0.093992
0.10324
0.115181
0.1308
0.151532
0.179697
0.218867
0.273757
0.348919
0.475398
0.0363808
0.0299119
0.0347081
0.0406025
0.0467656
0.0527787
0.0581788
0.063115
0.0676189
0.0719468
0.0765809
0.0819932
0.088716
0.0972876
0.108337
0.122976
0.143046
0.17166
0.214252
0.280172
0.386023
0.567113
0.938758
0.0470265
0.0334889
0.0370529
0.0421119
0.0475585
0.0532465
0.0587574
0.0637954
0.0681793
0.072696
0.077871
0.0840903
0.0919087
0.101958
0.115168
0.133243
0.159237
0.198732
0.262012
0.36826
0.557507
0.954054
2.23149
0.0594129
0.0373029
0.0394636
0.0436382
0.0482066
0.0531835
0.0585723
0.0640583
0.0690962
0.0741627
0.0799308
0.0869847
0.0959592
0.107671
0.123454
0.145837
0.179646
0.234158
0.327228
0.493822
0.811177
1.58255
6.62695
1.11689
2.47405
4.45104
5.2713
5.01512
4.56722
4.13982
3.81677
3.54375
3.25805
2.95078
2.63695
2.267
1.76713
1.16362
1.00606
1.28813
1.08496
0.913156
0.743208
1.828
2.30897
2.29788
2.07456
1.88271
1.72954
1.6095
1.50589
1.40405
1.2998
1.19096
1.06878
0.951354
0.861816
1.25361
1.5275
0.940084
0.813967
0.708671
1.56448
1.79799
1.80719
1.66872
1.51784
1.39195
1.28906
1.19852
1.11277
1.02909
0.947319
0.863605
0.790714
0.756908
0.969754
1.21812
0.991947
1.07191
0.823281
1.72684
1.93467
1.85255
1.67042
1.4961
1.35697
1.24241
1.14136
1.04793
0.960113
0.878774
0.799519
0.732563
0.708291
0.815548
0.95906
0.905376
1.3109
1.91356
2.57189
2.422
2.11605
1.8229
1.59018
1.41547
1.27589
1.15507
1.0458
0.945507
0.854987
0.772646
0.704937
0.676038
0.726366
0.823977
0.859633
1.466
5.63966
4.06377
3.10247
2.4819
2.04339
1.7332
1.50927
1.33602
1.18996
1.06139
0.946536
0.844978
0.758047
0.690119
0.654405
0.681333
0.765693
0.867184
1.57911
11.9067
5.68844
3.79219
2.87044
2.28807
1.89689
1.62086
1.41044
1.23692
1.08765
0.957302
0.844672
0.750804
0.681579
0.643315
0.662533
0.755353
0.895521
1.62954
22.9189
6.91466
4.38004
3.24738
2.53861
2.06778
1.73879
1.49047
1.28923
1.11922
0.97331
0.849591
0.748759
0.676363
0.638841
0.659561
0.771638
0.923663
1.59791
0.0785624
0.0433426
0.0432118
0.0462152
0.0498129
0.0538929
0.0586171
0.0639985
0.0699558
0.0764481
0.0836669
0.092285
0.103233
0.117823
0.138197
0.168631
0.217797
0.303061
0.459279
0.755855
1.32904
2.48786
5.37001
0.100929
0.0502073
0.0474432
0.0493697
0.0524668
0.0563821
0.0612087
0.0669684
0.073611
0.0811794
0.0899825
0.100716
0.114595
0.133842
0.162923
0.210903
0.296599
0.460034
0.785703
1.44028
2.70057
4.89501
8.16898
0.118864
0.0558919
0.0512056
0.052484
0.0554923
0.0597218
0.0652006
0.0719059
0.079731
0.0886858
0.0991011
0.11187
0.128851
0.154015
0.195945
0.272982
0.424075
0.7358
1.39252
2.74724
5.35319
9.6231
14.7946
0.131661
0.0602423
0.0545807
0.0556108
0.0587132
0.0633757
0.0696061
0.0773354
0.0864322
0.0969514
0.109367
0.125021
0.146932
0.182336
0.246981
0.376314
0.650437
1.24634
2.53047
5.19132
10.3389
18.7229
28.0683
0.138846
0.0636454
0.0580853
0.0589374
0.0619149
0.0667967
0.0735794
0.0821023
0.0922605
0.104329
0.119229
0.139075
0.169111
0.221876
0.32666
0.552359
1.05747
2.17318
4.5483
9.44826
18.9496
34.0553
51.1863
0.14397
0.0668914
0.0626109
0.0625687
0.0646594
0.0693847
0.076543
0.0857292
0.0969233
0.110693
0.128816
0.154821
0.197568
0.278898
0.452332
0.849089
1.76695
3.75829
7.83405
16.1046
31.2685
50.9798
59.9305
0.144723
0.0653721
0.0620831
0.0627074
0.0652886
0.0701482
0.0775669
0.0873161
0.0995722
0.115749
0.138485
0.173521
0.235634
0.361743
0.646187
1.3276
2.91918
6.18318
12.0495
21.1961
33.3767
44.9684
49.8922
0.116012
0.061317
0.0598829
0.0614034
0.0645289
0.0693975
0.0761654
0.0851683
0.0975166
0.115496
0.14312
0.189806
0.279182
0.470465
0.911453
1.92179
4.01651
7.69434
13.1923
20.2606
28.0549
34.8185
37.5637
0.0979194
0.0593287
0.0583567
0.0603025
0.063402
0.0680504
0.0745826
0.0834489
0.0959884
0.115313
0.147631
0.206475
0.323544
0.57276
1.11562
2.24711
4.35405
7.72921
12.3164
17.5787
22.5716
26.1182
26.6261
0.0910083
0.0596687
0.0583132
0.0600617
0.0628888
0.0670572
0.0729833
0.0813139
0.0936161
0.113669
0.148803
0.215117
0.348502
0.625514
1.19181
2.27794
4.15314
6.9685
10.5679
14.398
17.6144
19.3671
18.8769
0.0923274
0.0621889
0.0598584
0.0608688
0.0631137
0.0666883
0.0720148
0.0798508
0.0918646
0.111973
0.148106
0.216731
0.352874
0.62541
1.15385
2.10896
3.6674
5.89913
8.63273
11.3978
13.5226
14.4037
13.7111
0.0981687
0.0652808
0.0616792
0.0618861
0.0635432
0.0665436
0.0712407
0.0783873
0.0896234
0.108732
0.143407
0.208797
0.335801
0.581771
1.03973
1.83233
3.07368
4.791
6.83339
8.83481
10.2979
10.8042
10.2315
0.105557
0.067792
0.062892
0.0624661
0.0636995
0.0662567
0.0703796
0.0767438
0.0868469
0.104069
0.135306
0.193507
0.304147
0.512512
0.88867
1.51985
2.48043
3.7779
5.29299
6.7563
7.81149
8.17336
7.79754
0.112773
0.0694344
0.0633353
0.062445
0.0634156
0.0656797
0.0693443
0.0749615
0.0838099
0.0987229
0.125509
0.174662
0.26615
0.43438
0.731019
1.2182
1.94589
2.91459
4.03611
5.11946
5.91452
6.22298
6.02362
0.119138
0.0703763
0.0632185
0.0619667
0.0627696
0.0648502
0.068177
0.0731579
0.0808205
0.0934166
0.115592
0.155536
0.228302
0.359259
0.585889
0.952698
1.49487
2.21219
3.04292
3.85487
4.47331
4.75386
4.68437
0.124553
0.070893
0.0628173
0.0612556
0.0619284
0.063885
0.0669686
0.0714443
0.0780937
0.088637
0.10659
0.138231
0.194546
0.293805
0.462812
0.733608
1.13224
1.66062
2.27806
2.89395
3.3777
3.63464
3.65372
0.129127
0.0712052
0.0623395
0.0604947
0.061043
0.0628987
0.0658011
0.069889
0.0757266
0.0845858
0.0990182
0.123735
0.16661
0.24058
0.364604
0.561819
0.85255
1.24205
1.6997
2.16301
2.54546
2.77984
2.85237
0.132999
0.0714463
0.0619045
0.0597951
0.0602128
0.0619701
0.0647262
0.0685166
0.0737268
0.0812746
0.0929959
0.112249
0.144715
0.19953
0.290106
0.433154
0.643905
0.926887
1.26398
1.6131
1.91663
2.12645
2.22669
0.136277
0.0716853
0.0615668
0.0592096
0.0594885
0.0611409
0.0637664
0.0673206
0.0720495
0.0786001
0.088282
0.103485
0.12825
0.16898
0.23501
0.338117
0.489534
0.693707
0.94066
1.20348
1.44398
1.62757
1.73805
0.139056
0.0719683
0.0613468
0.0587542
0.0588873
0.0604256
0.0629244
0.0662795
0.0706317
0.0764257
0.0845843
0.0967967
0.115908
0.14638
0.194649
0.26889
0.377249
0.523911
0.704061
0.901349
1.09086
1.2479
1.35743
0.141702
0.0723638
0.0612498
0.0584241
0.058406
0.0598218
0.0621921
0.0653682
0.0694132
0.0746234
0.0816409
0.0916488
0.106636
0.129698
0.165259
0.218949
0.296596
0.401864
0.532987
0.680592
0.828854
0.960428
1.06239
0.144275
0.0728443
0.0612489
0.0581982
0.0580295
0.0593181
0.0615567
0.0645637
0.0683453
0.0730908
0.0792407
0.0876167
0.0996015
0.117336
0.143863
0.183057
0.239056
0.314882
0.410393
0.520593
0.635778
0.744085
0.83507
0.146406
0.0732683
0.061291
0.0580475
0.0577379
0.0589001
0.061005
0.0638475
0.0673928
0.0717535
0.0772268
0.0843791
0.0941667
0.108069
0.128183
0.157187
0.198015
0.253061
0.322934
0.405238
0.494274
0.582193
0.661005
0.148036
0.0735987
0.0613383
0.0579459
0.0575134
0.0585542
0.060526
0.0632067
0.0665328
0.0705621
0.0754905
0.0817052
0.0898652
0.100992
0.116536
0.13836
0.168551
0.208966
0.260479
0.322152
0.390821
0.461484
0.528326
0.149186
0.073831
0.0613801
0.0578791
0.0573441
0.0582712
0.0601119
0.0626334
0.065752
0.0694865
0.0739612
0.079438
0.0863689
0.0954589
0.107714
0.124438
0.147128
0.177206
0.215572
0.26206
0.31505
0.371494
0.427354
0.149905
0.07398
0.0614209
0.0578464
0.0572265
0.0580478
0.0597601
0.0621248
0.0650444
0.0685103
0.0725961
0.0774752
0.0834559
0.0910236
0.100878
0.113936
0.131277
0.153987
0.182889
0.218194
0.25919
0.304128
0.350335
0.15026
0.0740748
0.0614782
0.057858
0.0571661
0.0578878
0.0594731
0.0616829
0.0644101
0.0676271
0.0713711
0.0757534
0.0809812
0.0873871
0.0954564
0.105837
0.11931
0.136703
0.158724
0.185746
0.217572
0.25329
0.291227
0.150341
0.0741578
0.0615808
0.0579348
0.0571778
0.0578017
0.0592597
0.0613145
0.0638541
0.066837
0.0702749
0.0742346
0.0788519
0.0843519
0.0910696
0.0994615
0.110093
0.123592
0.140547
0.161377
0.186162
0.214511
0.245462
0.150262
0.0742845
0.0617687
0.0581073
0.0572851
0.0578077
0.0591349
0.061032
0.063386
0.0661459
0.0693049
0.0728978
0.0770096
0.081789
0.0874643
0.0943545
0.102867
0.113473
0.126652
0.142804
0.162147
0.184601
0.209687
0.150168
0.0745255
0.0620933
0.0584159
0.0575203
0.0579317
0.0591198
0.0608534
0.0630209
0.0655649
0.0684652
0.0717337
0.0754186
0.079614
0.0844717
0.0902111
0.0971222
0.105554
0.115886
0.128474
0.143586
0.161315
0.181497
0.150237
0.0749676
0.0626186
0.0589113
0.0579247
0.0582075
0.0592423
0.0608031
0.062779
0.0651103
0.0677663
0.0707421
0.0740592
0.0777724
0.0819782
0.0868236
0.0925107
0.0992938
0.107464
0.117322
0.129134
0.14308
0.159183
0.150694
0.075718
0.0634232
0.0596558
0.0585489
0.0586773
0.0595379
0.0609115
0.0626874
0.0648045
0.0672249
0.0699308
0.0729239
0.0762306
0.0799074
0.0840485
0.0887907
0.0943142
0.100837
0.1086
0.117843
0.128771
0.141512
0.151821
0.0769095
0.0646033
0.0607249
0.0594537
0.0593913
0.0600495
0.0612155
0.0627795
0.0646765
0.0668646
0.0693153
0.0720157
0.0749712
0.0782095
0.0817864
0.0857904
0.0903451
0.0956082
0.101765
0.109016
0.11756
0.127563
0.153986
0.0787115
0.0662788
0.0622096
0.0607106
0.0604078
0.0608265
0.0617587
0.0630937
0.0647619
0.0667152
0.0689183
0.0713464
0.0739895
0.0768546
0.0799696
0.0833877
0.0871897
0.0914855
0.0964119
0.102127
0.108804
0.116611
0.157685
0.0813472
0.0686002
0.0642181
0.0624003
0.0617904
0.0619223
0.062588
0.0636722
0.0650987
0.0668113
0.0687671
0.0709342
0.07329
0.0758269
0.0785531
0.0814958
0.0847042
0.088251
0.0922325
0.0967677
0.101995
0.108064
0.163623
0.0851243
0.0717592
0.0668746
0.064606
0.0635994
0.0633851
0.0637455
0.0645534
0.0657215
0.0671839
0.0688893
0.0707977
0.0728801
0.0751182
0.0775058
0.0800518
0.0827821
0.0857406
0.0889909
0.0926172
0.0967235
0.101433
0.172849
0.0904809
0.0759931
0.0703055
0.0673944
0.0658722
0.0652404
0.0652527
0.0657575
0.0666493
0.0678493
0.0692973
0.0709466
0.0727619
0.0747183
0.0768005
0.0790051
0.0813403
0.0838276
0.0865046
0.0894258
0.092664
0.0963121
0.186912
0.0980291
0.0815641
0.0745996
0.0707749
0.0685881
0.0674598
0.0670827
0.0672619
0.0678633
0.068791
0.0699747
0.0713622
0.0729143
0.0746019
0.0764039
0.0783072
0.0803073
0.0824091
0.0846292
0.0869975
0.0895596
0.0923807
0.207882
0.108514
0.0886653
0.0797209
0.0746331
0.0716174
0.0699214
0.0691272
0.0689718
0.0692806
0.0699357
0.070856
0.0719848
0.0732808
0.0747132
0.0762574
0.0778941
0.0796088
0.0813936
0.0832484
0.0851833
0.0872213
0.0894019
0.237752
0.12247
0.0971683
0.0853573
0.0786462
0.0746721
0.0723756
0.0711694
0.0706968
0.0707332
0.0711352
0.071811
0.0727
0.073761
0.0749628
0.0762794
0.0776873
0.0791651
0.0806945
0.0822632
0.0838667
0.0855118
0.0872219
0.276627
0.13914
0.106097
0.0907112
0.082213
0.0772884
0.0744451
0.0728874
0.0721548
0.0719712
0.0721692
0.0726471
0.0733422
0.0742138
0.0752317
0.0763694
0.077601
0.0789004
0.0802427
0.0816074
0.0829812
0.0843623
0.0857689
0.316416
0.153835
0.112828
0.0943308
0.0844654
0.0788792
0.0756816
0.0739076
0.0730198
0.0727064
0.0727839
0.0731447
0.0737249
0.0744844
0.0753941
0.0764278
0.0775585
0.078758
0.0799984
0.0812556
0.082513
0.0837671
0.0850394
18.1791
19.9731
23.1632
28.9997
11.2052
12.568
13.4319
13.606
17.1574
17.8168
17.6237
16.7172
29.6676
28.6171
26.18
22.7634
44.9958
39.0515
32.1311
25.0912
51.3601
42.2035
32.7194
24.4753
46.4956
37.1816
27.8379
20.4469
33.227
27.1477
20.6274
15.4565
22.8449
19.3402
15.3863
11.8545
16.1862
14.0323
11.7892
9.61108
11.9517
10.6671
9.34689
8.09766
9.14193
8.38642
7.63369
6.92089
7.14546
6.70404
6.27287
5.86969
5.64583
5.38923
5.14126
4.91498
4.4809
4.33523
4.19323
4.06515
3.55852
3.48198
3.40386
3.33213
2.82385
2.79155
2.75395
2.71717
2.2384
2.23445
2.2233
2.20939
1.77282
1.78659
1.79275
1.79431
1.40398
1.42813
1.44528
1.45732
1.11333
1.14276
1.16633
1.18515
0.885749
0.916928
0.943608
0.966353
0.708646
0.739269
0.766702
0.791175
0.571482
0.600139
0.626737
0.651318
0.465457
0.491396
0.516175
0.539741
0.383361
0.406279
0.428699
0.450539
0.319452
0.339323
0.359158
0.378874
0.269297
0.286258
0.30348
0.320894
0.229589
0.243855
0.258555
0.273641
0.19792
0.209746
0.222085
0.234913
0.172565
0.18222
0.192403
0.203107
0.152274
0.160035
0.168292
0.177056
0.136108
0.142251
0.148833
0.155873
0.123318
0.128114
0.133276
0.138829
0.113278
0.116977
0.120966
0.125272
0.105452
0.108275
0.111318
0.114604
0.0993871
0.10152
0.103813
0.106283
0.0947163
0.096314
0.0980218
0.0998545
0.0911679
0.0923629
0.0936317
0.0949887
0.0885783
0.0894902
0.0904578
0.0914982
0.086881
0.0876375
0.0884585
0.0893715
0.0860621
0.0867772
0.0875894
0.0885574
12.2742
7.29008
5.10858
3.78322
2.90594
2.32052
1.91289
1.60831
1.36645
1.16672
0.9992
0.860043
0.749453
0.672704
0.636899
0.66302
0.792195
0.926756
1.42394
11.7175
8.57131
6.19899
4.48044
3.33344
2.58247
2.07063
1.70022
1.41708
1.19138
1.00855
0.861598
0.746959
0.669427
0.63469
0.655879
0.765676
0.881181
1.22189
14.4115
10.278
7.0649
4.8751
3.50401
2.64354
2.07513
1.67765
1.3848
1.16005
0.98357
0.844766
0.738634
0.666938
0.633904
0.646356
0.722113
0.821076
1.08411
17.2917
11.1329
7.14239
4.76523
3.35344
2.49304
1.93902
1.56054
1.28835
1.08493
0.929831
0.812049
0.726097
0.669737
0.643799
0.650733
0.683745
0.769257
0.990837
17.3362
10.5033
6.51482
4.26534
2.98007
2.21282
1.7248
1.39491
1.16106
0.990273
0.86456
0.774053
0.713335
0.678113
0.665712
0.67581
0.668352
0.732175
0.944478
15.9325
9.17885
5.56561
3.63166
2.55432
1.91419
1.50612
1.23019
1.03624
0.89791
0.800812
0.736848
0.701087
0.688379
0.692464
0.712347
0.68373
0.719429
0.933945
13.1263
7.5526
4.63247
3.07957
2.20703
1.67942
1.33697
1.10265
0.938017
0.82286
0.746058
0.70124
0.684358
0.691096
0.712741
0.739702
0.715687
0.72755
0.92728
10.2355
6.13876
3.92674
2.70696
1.99344
1.54442
1.24272
1.03088
0.879805
0.773924
0.704445
0.66616
0.655805
0.670623
0.705549
0.74682
0.754853
0.762694
0.935267
8.1682
5.19896
3.51386
2.52983
1.9196
1.51416
1.2289
1.02096
0.867899
0.757204
0.681355
0.635468
0.616084
0.620335
0.644701
0.68095
0.7051
0.682125
0.682165
6.99311
4.73377
3.37268
2.52825
1.97183
1.58054
1.29179
1.07265
0.905124
0.778471
0.685648
0.621582
0.582199
0.563596
0.560954
0.56583
0.559574
0.515251
0.479529
6.46061
4.64817
3.45131
2.67307
2.13251
1.7323
1.42462
1.18298
0.992237
0.842532
0.726906
0.639928
0.577189
0.534866
0.509354
0.496577
0.489165
0.469329
0.414162
5.94754
4.73035
3.69318
2.93656
2.38609
1.9597
1.62117
1.34826
1.12816
0.951507
0.811428
0.702299
0.619749
0.561008
0.526234
0.521431
0.559287
0.631566
0.64954
5.29193
4.61032
3.96671
3.29159
2.71913
2.25602
1.87824
1.5669
1.31211
1.10527
0.940376
0.812753
0.719112
0.659398
0.639633
0.678524
0.80914
0.99903
1.11062
4.58913
4.24876
3.9309
3.5496
3.08284
2.6114
2.19428
1.84048
1.5465
1.30606
1.11394
0.96949
0.871982
0.826956
0.850024
0.971905
1.22803
1.45674
1.64288
3.88342
3.73293
3.62933
3.46763
3.22513
2.90433
2.5313
2.16242
1.83223
1.56061
1.33492
1.17115
1.071
1.04728
1.13289
1.37922
1.80085
1.85136
2.14824
3.23133
3.17375
3.17245
3.16555
3.07789
2.91378
2.68925
2.40848
2.10392
1.83565
1.59197
1.40727
1.30011
1.28503
1.41135
1.75933
2.21656
1.88864
2.5429
2.66433
2.64585
2.67745
2.73188
2.7519
2.70449
2.59057
2.42335
2.22461
1.99916
1.77263
1.58364
1.46185
1.42848
1.53344
1.80866
1.97838
1.69588
2.78304
2.18726
2.18567
2.21985
2.27949
2.34297
2.36951
2.34231
2.26065
2.13629
1.97551
1.80436
1.64503
1.51206
1.43284
1.45996
1.61383
1.69702
1.58783
2.93784
1.79341
1.80112
1.82997
1.87897
1.93942
1.99537
2.01867
2.0005
1.93856
1.83546
1.70895
1.57334
1.44302
1.34972
1.34196
1.43983
1.5012
1.56468
3.01779
1.47169
1.4868
1.5111
1.5481
1.59574
1.64966
1.69111
1.70681
1.68891
1.63535
1.55164
1.44651
1.33608
1.25393
1.24767
1.33333
1.40186
1.5797
3.06225
1.21035
1.23235
1.25509
1.28361
1.31905
1.36002
1.40226
1.43093
1.43777
1.41757
1.37009
1.30076
1.22537
1.1757
1.19332
1.28673
1.36965
1.57145
3.1617
0.9987
1.02684
1.05056
1.07477
1.10205
1.13302
1.16743
1.19739
1.2155
1.21608
1.19697
1.16197
1.12515
1.11368
1.16068
1.26868
1.37157
1.57172
3.24569
0.827526
0.86054
0.886575
0.909662
0.932693
0.95723
0.983919
1.01143
1.0337
1.04662
1.04834
1.04204
1.0394
1.0618
1.13297
1.25158
1.37485
1.56877
3.25641
0.689113
0.72538
0.75397
0.777779
0.79944
0.820857
0.843282
0.867658
0.891084
0.911325
0.927602
0.942965
0.966708
1.01445
1.10115
1.22171
1.34768
1.54529
3.23242
0.577023
0.614871
0.645528
0.670791
0.692763
0.713319
0.734034
0.756458
0.780346
0.805073
0.831045
0.861324
0.903049
0.966684
1.05991
1.17512
1.29413
1.49815
3.17006
0.485926
0.523849
0.555728
0.582429
0.605447
0.626408
0.646929
0.668734
0.693135
0.720656
0.752652
0.792141
0.844401
0.915717
1.00852
1.11451
1.225
1.43033
3.05033
0.41147
0.448248
0.480413
0.508123
0.532294
0.554199
0.575327
0.597379
0.62236
0.651533
0.68684
0.731113
0.78809
0.86098
0.94891
1.04409
1.14504
1.34426
2.87317
0.350191
0.384904
0.416489
0.444611
0.469687
0.492609
0.514632
0.537355
0.562832
0.592833
0.629502
0.675354
0.732911
0.803283
0.883774
0.967623
1.05786
1.24385
2.65123
0.299409
0.331416
0.361689
0.389599
0.415168
0.438921
0.461825
0.48527
0.511138
0.54137
0.578053
0.623313
0.678729
0.74405
0.815703
0.887993
0.966306
1.13352
2.4001
0.257119
0.286004
0.314383
0.341498
0.367092
0.391369
0.414986
0.439058
0.465185
0.495228
0.531052
0.574351
0.625963
0.684769
0.74685
0.807397
0.872693
1.01739
2.13317
0.221861
0.247385
0.273423
0.299221
0.324366
0.348802
0.372893
0.397437
0.423692
0.453278
0.487726
0.528267
0.575132
0.626636
0.67878
0.727435
0.778913
0.898933
1.86081
0.192572
0.214646
0.238006
0.262027
0.286247
0.310442
0.334711
0.359512
0.385788
0.414756
0.447546
0.484905
0.526533
0.570355
0.612426
0.649159
0.686453
0.780994
1.59078
0.168448
0.187107
0.207566
0.229399
0.252213
0.27571
0.299779
0.324573
0.350728
0.378955
0.409928
0.443889
0.480053
0.516063
0.548123
0.573149
0.596474
0.665979
1.32933
0.148815
0.164215
0.18166
0.200959
0.221868
0.244102
0.267452
0.291951
0.317729
0.34504
0.374054
0.404489
0.435109
0.463366
0.485718
0.499641
0.509948
0.556205
1.08252
0.133051
0.145449
0.159887
0.176384
0.194856
0.215226
0.237341
0.260974
0.285926
0.311995
0.338826
0.365605
0.390693
0.41145
0.424729
0.428711
0.427902
0.454342
0.857713
0.120553
0.130282
0.141841
0.155377
0.171095
0.189038
0.209117
0.231073
0.254477
0.27873
0.302973
0.325899
0.345541
0.359304
0.364618
0.360586
0.351784
0.363991
0.665306
0.110753
0.118188
0.127118
0.137818
0.150542
0.165486
0.1827
0.201991
0.222847
0.244404
0.265412
0.284182
0.298564
0.306201
0.30531
0.296182
0.28399
0.290202
0.519916
0.103159
0.108705
0.115381
0.123435
0.133138
0.144754
0.158441
0.17411
0.191296
0.209069
0.226012
0.240285
0.249802
0.252684
0.248139
0.237842
0.228158
0.239227
0.439273
0.0974208
0.101507
0.106346
0.112099
0.119004
0.127323
0.137226
0.148691
0.161366
0.174448
0.18665
0.196329
0.201784
0.201825
0.196679
0.189313
0.187836
0.215913
0.440838
0.09337
0.0965486
0.100037
0.103944
0.108485
0.113865
0.120221
0.127549
0.135623
0.143867
0.151369
0.156986
0.159634
0.158812
0.155417
0.153168
0.162353
0.217941
0.544667
0.0910806
0.0942638
0.0968501
0.0992766
0.10187
0.104818
0.108212
0.112049
0.116196
0.120357
0.124054
0.126701
0.127797
0.127252
0.126015
0.127586
0.143633
0.228198
0.809082
0.0905634
0.0958252
0.0974555
0.098405
0.0992629
0.100182
0.101207
0.102336
0.103529
0.104705
0.105735
0.106468
0.106776
0.106668
0.106558
0.108192
0.119394
0.198057
1.50207
)
;

boundaryField
{
    leftWall
    {
        type            epsilonWallFunction;
        value           nonuniform List<scalar> 
50
(
0.00776176
0.00877334
0.0140349
0.0207763
0.0284097
0.0363808
0.0470265
0.0594129
0.0785624
0.100929
0.118864
0.131661
0.138846
0.14397
0.144723
0.116012
0.0979194
0.0910083
0.0923274
0.0981687
0.105557
0.112773
0.119138
0.124553
0.129127
0.132999
0.136277
0.139056
0.141702
0.144275
0.146406
0.148036
0.149186
0.149905
0.15026
0.150341
0.150262
0.150168
0.150237
0.150694
0.151821
0.153986
0.157685
0.163623
0.172849
0.186912
0.207882
0.237752
0.276627
0.316416
)
;
    }
    rightWall
    {
        type            epsilonWallFunction;
        value           nonuniform List<scalar> 
50
(
0.913156
0.813967
1.07191
1.3109
1.466
1.57911
1.62954
1.59791
1.42394
1.22189
1.08411
0.990837
0.944478
0.933945
0.92728
0.935267
0.682165
0.479529
0.414162
0.64954
1.11062
1.64288
2.14824
2.5429
2.78304
2.93784
3.01779
3.06225
3.1617
3.24569
3.25641
3.23242
3.17006
3.05033
2.87317
2.65123
2.4001
2.13317
1.86081
1.59078
1.32933
1.08252
0.857713
0.665306
0.519916
0.439273
0.440838
0.544667
0.809082
1.50207
)
;
    }
    lowerWall
    {
        type            epsilonWallFunction;
        value           nonuniform List<scalar> 
62
(
0.00776176
0.0262365
0.0472638
0.0676875
0.0875806
0.10615
0.123112
0.138697
0.153516
0.168445
0.184472
0.202589
0.223906
0.249788
0.282427
0.323116
0.3665
0.402225
0.415001
0.385768
0.297047
0.154796
0.0354787
0.0354787
0.068813
0.141753
0.261404
0.475398
0.938758
2.23149
6.62695
18.1791
19.9731
23.1632
28.9997
1.11689
0.743208
0.708671
0.823281
1.91356
5.63966
11.9067
22.9189
1.11689
2.47405
4.45104
5.2713
5.01512
4.56722
4.13982
3.81677
3.54375
3.25805
2.95078
2.63695
2.267
1.76713
1.16362
1.00606
1.28813
1.08496
0.913156
)
;
    }
    atmosphere
    {
        type            inletOutlet;
        inletValue      uniform 0.1;
        value           nonuniform List<scalar> 
46
(
0.316416
0.153835
0.112828
0.0943308
0.0844654
0.0788792
0.0756816
0.0739076
0.0730198
0.0727064
0.0727839
0.0731447
0.0737249
0.0744844
0.0753941
0.0764278
0.0775585
0.078758
0.0799984
0.0812556
0.082513
0.0837671
0.0850394
0.0860621
0.0867772
0.0875894
0.0885574
0.0905634
0.1
0.1
0.1
0.1
0.1
0.1
0.1
0.1
0.1
0.1
0.1
0.1
0.1
0.1
0.1
0.1
0.1
0.1
)
;
    }
    defaultFaces
    {
        type            empty;
    }
}


// ************************************************************************* //
