/*--------------------------------*- C++ -*----------------------------------*\
  =========                 |
  \\      /  F ield         | OpenFOAM: The Open Source CFD Toolbox
   \\    /   O peration     | Website:  https://openfoam.org
    \\  /    A nd           | Version:  13
     \\/     M anipulation  |
\*---------------------------------------------------------------------------*/
FoamFile
{
    format      ascii;
    class       volScalarField;
    location    "0.75";
    object      k;
}
// * * * * * * * * * * * * * * * * * * * * * * * * * * * * * * * * * * * * * //

dimensions      [0 2 -2 0 0 0 0];

internalField   nonuniform List<scalar> 
2268
(
0.00149872
0.00337261
0.00499576
0.00635103
0.00754284
0.00857525
0.00946688
0.0102515
0.0109721
0.0116766
0.0124125
0.0132221
0.014148
0.0152378
0.0165653
0.0181414
0.0197425
0.0210111
0.0214563
0.0204372
0.0171654
0.0110992
0.00412803
0.00268068
0.00731733
0.011103
0.0142348
0.0168899
0.0191606
0.0211069
0.0227936
0.0243065
0.0257589
0.0272831
0.0290093
0.0310621
0.0335528
0.0365497
0.0398787
0.0432312
0.0460178
0.047341
0.0459207
0.0400311
0.0279872
0.0106145
0.00366101
0.00960594
0.0146721
0.0187658
0.0222226
0.0251989
0.0277607
0.0299747
0.0319494
0.03385
0.0358741
0.0382083
0.0410153
0.0444276
0.0484179
0.0528346
0.0573559
0.0613642
0.0638768
0.063365
0.0574433
0.0428186
0.0172053
0.00475491
0.0118703
0.0177435
0.0224277
0.0263782
0.0297816
0.0327312
0.0353166
0.0376619
0.0399665
0.0424733
0.0453992
0.0489242
0.0531754
0.0580786
0.0635307
0.0692627
0.074733
0.0790301
0.0805658
0.0763825
0.061028
0.0259045
0.00586545
0.0143122
0.0206612
0.0257339
0.0300133
0.0336967
0.0368957
0.0397585
0.0424463
0.0451732
0.0481954
0.0517392
0.0560003
0.0610861
0.0669398
0.0735281
0.0806857
0.0880363
0.0948858
0.0997899
0.0993761
0.0855408
0.0386886
0.00691263
0.0166099
0.0233415
0.0286942
0.0332682
0.0372249
0.0406172
0.043729
0.046743
0.0498984
0.0534563
0.0576315
0.06264
0.0685726
0.0754478
0.0833233
0.0921894
0.10194
0.112288
0.122251
0.128499
0.120358
0.0611664
0.00820537
0.0189171
0.025816
0.0312372
0.0358858
0.0400918
0.0439265
0.047467
0.0507948
0.0543653
0.0584528
0.063252
0.0690006
0.0758145
0.0838057
0.0931516
0.104063
0.116843
0.131875
0.149132
0.16627
0.171808
0.10954
0.00959403
0.0212104
0.0282444
0.0336563
0.0382378
0.0424574
0.0465771
0.0506429
0.0545691
0.0586685
0.0632759
0.068685
0.0751788
0.0829333
0.0921581
0.103184
0.116534
0.13311
0.154311
0.181731
0.215381
0.247571
0.22685
0.0411529
0.0703953
0.104323
0.116646
0.11274
0.105916
0.0992318
0.0939512
0.0893342
0.0843793
0.0788983
0.0731327
0.0661192
0.0560303
0.0423988
0.0381074
0.0448415
0.0400049
0.0358746
0.055538
0.150829
0.211014
0.228133
0.223601
0.214865
0.205664
0.196628
0.187039
0.176294
0.164314
0.15149
0.136513
0.115121
0.0847795
0.0875568
0.114296
0.0880599
0.0586281
0.0539255
0.173272
0.243433
0.278061
0.283252
0.276075
0.265381
0.253422
0.240126
0.22538
0.209342
0.192405
0.173274
0.148625
0.116691
0.101487
0.121869
0.114412
0.0703096
0.0600541
0.201688
0.293815
0.33234
0.336594
0.326935
0.313281
0.29777
0.280603
0.261952
0.242117
0.221549
0.198999
0.172135
0.141167
0.118561
0.126443
0.123478
0.080466
0.106643
0.271231
0.365711
0.394851
0.390807
0.374919
0.35616
0.336076
0.314561
0.291771
0.268004
0.243712
0.218351
0.190123
0.159655
0.136076
0.136874
0.133096
0.0867406
0.217045
0.381766
0.454411
0.46364
0.446022
0.421003
0.39526
0.369558
0.343178
0.316097
0.288545
0.260875
0.233238
0.20449
0.174575
0.152807
0.150338
0.145031
0.0911892
0.355284
0.512845
0.549827
0.533872
0.50031
0.464916
0.43161
0.399818
0.368373
0.336977
0.305757
0.275065
0.245216
0.216091
0.187478
0.167714
0.164582
0.156434
0.0932089
0.547674
0.649473
0.643359
0.602087
0.552435
0.506296
0.465185
0.427209
0.39073
0.355132
0.320387
0.286899
0.255122
0.225452
0.198376
0.180547
0.178036
0.165318
0.0920396
0.0115713
0.0246824
0.0319367
0.0373884
0.0419764
0.0462278
0.0504948
0.0549587
0.0597194
0.0648338
0.0704389
0.0768804
0.0845506
0.0938224
0.105076
0.118949
0.136633
0.160256
0.193339
0.240936
0.308036
0.394344
0.477829
0.0136813
0.0283978
0.0360318
0.041689
0.0465572
0.05121
0.0560008
0.0611071
0.0666193
0.0726428
0.0793936
0.0872295
0.0966139
0.108136
0.122711
0.141818
0.168141
0.206634
0.265822
0.358285
0.497039
0.684413
0.894732
0.0152641
0.0313609
0.0395052
0.0455161
0.0508234
0.0560656
0.0615966
0.0675662
0.0740204
0.0810496
0.0888931
0.0979971
0.108994
0.122893
0.141436
0.167619
0.206637
0.268094
0.367839
0.527487
0.767513
1.08154
1.4014
0.016342
0.0334933
0.042304
0.0487795
0.0545725
0.0604263
0.0667137
0.0735629
0.081002
0.0891423
0.0982793
0.108987
0.122124
0.139394
0.163698
0.200397
0.259181
0.356591
0.517554
0.773766
1.15614
1.64882
2.11165
0.0169308
0.0348943
0.0445451
0.0514453
0.0575894
0.0639312
0.0708679
0.0784925
0.0868513
0.0961584
0.106868
0.119663
0.135879
0.158125
0.191369
0.244919
0.335186
0.486815
0.733016
1.11846
1.68813
2.40291
3.06908
0.0173242
0.0355844
0.0463699
0.0533966
0.0595703
0.0662473
0.0737819
0.0821678
0.0915019
0.10212
0.114734
0.130296
0.150801
0.180373
0.227208
0.30685
0.44472
0.671344
1.02412
1.56313
2.32091
3.12267
3.43939
0.0174538
0.0343214
0.0453829
0.0529714
0.0597667
0.0669488
0.0750898
0.084266
0.0946672
0.106991
0.122093
0.14133
0.167716
0.207585
0.27396
0.391256
0.593535
0.907051
1.34408
1.88779
2.48409
2.96571
3.13495
0.0150719
0.0315158
0.0429652
0.0512324
0.0587135
0.0663609
0.0746526
0.0839843
0.0950361
0.108826
0.126526
0.150205
0.184268
0.237746
0.32832
0.482795
0.726724
1.06256
1.46747
1.89689
2.29546
2.59319
2.69584
0.0134423
0.0289185
0.0406021
0.0493818
0.05724
0.065201
0.0738273
0.0835884
0.0952826
0.110225
0.130251
0.158242
0.199619
0.264582
0.370322
0.538763
0.784213
1.09975
1.45253
1.79218
2.06655
2.23453
2.25153
0.0127735
0.0278037
0.0392168
0.0482196
0.0562986
0.0643562
0.0730034
0.0828415
0.0948095
0.110525
0.132056
0.162846
0.208962
0.280545
0.391832
0.557805
0.785878
1.06498
1.36274
1.63252
1.82818
1.92093
1.8951
0.0128734
0.0281485
0.0392634
0.0482001
0.0562392
0.0641951
0.0727076
0.0824718
0.0945134
0.110536
0.13281
0.164861
0.212671
0.285238
0.393809
0.548414
0.751604
0.991442
1.23936
1.4558
1.60247
1.65822
1.62291
0.0133994
0.0293506
0.0402744
0.0490248
0.0568675
0.0645641
0.0727506
0.0821526
0.0938258
0.109485
0.131457
0.163053
0.209713
0.279098
0.379956
0.518897
0.695754
0.899133
1.1051
1.28146
1.39788
1.43875
1.41032
0.0140615
0.0308197
0.0416542
0.0502176
0.0578226
0.0651953
0.0729456
0.0817837
0.0927358
0.107433
0.128141
0.157845
0.20128
0.264793
0.355191
0.476956
0.628682
0.800206
0.972011
1.11852
1.21595
1.25279
1.23634
0.0146974
0.032216
0.0430119
0.0514215
0.0588093
0.0658687
0.0731674
0.0813653
0.0914106
0.104781
0.123591
0.150468
0.189406
0.245583
0.324369
0.429008
0.557811
0.702163
0.846397
0.970415
1.05558
1.09277
1.0881
0.0152488
0.0334095
0.0441787
0.0524641
0.0596718
0.0664632
0.0733541
0.0809337
0.0900403
0.101958
0.11858
0.142189
0.17608
0.224432
0.291538
0.379971
0.488314
0.609621
0.731476
0.838101
0.914651
0.953164
0.958213
0.0157107
0.034386
0.0451236
0.0533031
0.0603638
0.0669374
0.0734871
0.080524
0.088764
0.0992887
0.1137
0.134006
0.162856
0.203598
0.259695
0.333348
0.423684
0.525445
0.628932
0.721614
0.790618
0.830089
0.842922
0.0160957
0.0351757
0.0458736
0.0539572
0.060894
0.0672918
0.0735662
0.0801533
0.0876488
0.0969415
0.109328
0.126557
0.150745
0.184561
0.2308
0.291424
0.366189
0.451481
0.539033
0.618978
0.681557
0.721558
0.740196
0.016418
0.0358153
0.0464679
0.0544616
0.0612894
0.0675417
0.073595
0.0798197
0.086704
0.0949657
0.105647
0.12016
0.140271
0.168106
0.20593
0.255468
0.316793
0.387231
0.460811
0.52975
0.586412
0.626136
0.64879
0.0166883
0.0363344
0.0469404
0.0548489
0.061577
0.0677038
0.0735759
0.0795097
0.0859026
0.0933271
0.102613
0.114894
0.131599
0.154419
0.18515
0.225247
0.275015
0.332699
0.394078
0.453247
0.504187
0.542742
0.567845
0.0169155
0.0367532
0.0473153
0.055144
0.0617785
0.0677923
0.0735101
0.0792061
0.0852041
0.0919574
0.100119
0.110587
0.124501
0.143199
0.168093
0.200378
0.24048
0.287373
0.338188
0.388597
0.433908
0.470478
0.496688
0.0171292
0.0370858
0.0476096
0.055364
0.0619097
0.0678183
0.073399
0.078894
0.0845695
0.0907836
0.0980456
0.107057
0.118718
0.134083
0.154261
0.180219
0.212422
0.250346
0.292135
0.334726
0.374542
0.408485
0.434692
0.0173359
0.0373501
0.0478345
0.0555207
0.0619821
0.0677907
0.0732452
0.0785638
0.0839688
0.089744
0.0962845
0.104134
0.113994
0.126692
0.143105
0.164014
0.18987
0.220468
0.254667
0.290377
0.32495
0.355842
0.381179
0.0175065
0.0375667
0.0480055
0.0556226
0.0620043
0.0677173
0.0730529
0.0782117
0.0833827
0.088793
0.0947489
0.101669
0.110095
0.120675
0.134103
0.151013
0.171822
0.196512
0.224423
0.254181
0.283885
0.311522
0.335367
0.0176365
0.037729
0.0481295
0.0556821
0.0619843
0.0676059
0.072828
0.0778386
0.0828016
0.0879011
0.0933758
0.099546
0.106829
0.115729
0.126795
0.140545
0.157355
0.177314
0.200072
0.224759
0.250055
0.274424
0.296378
0.0177281
0.0378383
0.0482065
0.0557041
0.0619324
0.0674645
0.0725781
0.0774492
0.0822233
0.0870523
0.0921235
0.0976825
0.104048
0.111611
0.120804
0.132053
0.145691
0.161864
0.180419
0.200832
0.222215
0.243437
0.263281
0.0177854
0.0379002
0.0482418
0.0556931
0.0618564
0.0673025
0.072312
0.0770508
0.0816508
0.0862399
0.0909668
0.0960204
0.101644
0.108136
0.115839
0.125099
0.13621
0.149343
0.164468
0.181294
0.199247
0.217525
0.235176
0.0178138
0.0379239
0.0482448
0.0556581
0.0617641
0.0671313
0.0720394
0.0766526
0.0810905
0.0854638
0.0898924
0.0945223
0.0995383
0.105169
0.11168
0.119352
0.128438
0.139117
0.151433
0.165249
0.180215
0.195786
0.211252
0.0178204
0.0379225
0.0482297
0.0556126
0.0616679
0.0669624
0.071773
0.0762655
0.0805512
0.0847278
0.0888943
0.0931647
0.0976794
0.102612
0.108166
0.114564
0.122023
0.130712
0.140719
0.152005
0.164379
0.17749
0.190835
0.0178143
0.0379129
0.0482154
0.0555755
0.0615856
0.0668113
0.0715285
0.0759029
0.0800438
0.0840389
0.0879719
0.0919333
0.09603
0.100392
0.105175
0.110552
0.116701
0.123776
0.131883
0.141043
0.151174
0.16207
0.173396
0.0178068
0.0379172
0.0482264
0.0555714
0.0615403
0.0666993
0.0713248
0.0755819
0.0795823
0.0834066
0.0871281
0.09082
0.0945645
0.0984588
0.102619
0.107177
0.112274
0.118043
0.124592
0.131976
0.14018
0.149103
0.158541
0.0178119
0.0379628
0.0482943
0.055632
0.0615623
0.0666535
0.0711855
0.0753245
0.079184
0.082844
0.0863694
0.0898219
0.0932652
0.096772
0.100427
0.104329
0.108586
0.113308
0.118591
0.124504
0.131073
0.138265
0.145975
0.0178473
0.0380845
0.0484587
0.0557975
0.0616896
0.0667088
0.071141
0.0751569
0.0788713
0.0823675
0.085706
0.08894
0.0921208
0.0953023
0.0985462
0.101924
0.105514
0.109403
0.11367
0.118385
0.12359
0.129296
0.135463
0.017935
0.0383262
0.0487699
0.0561184
0.0619698
0.0669081
0.0712289
0.0751104
0.0786717
0.081998
0.0851518
0.0881802
0.0911255
0.0940287
0.0969338
0.0998903
0.102955
0.106188
0.109654
0.11341
0.117504
0.121965
0.126795
0.0181034
0.0387439
0.0492913
0.0566575
0.0624608
0.0673026
0.0714931
0.0752216
0.0786146
0.0817607
0.0847241
0.0875516
0.0902787
0.0929372
0.0955581
0.0981746
0.100824
0.103548
0.10639
0.109396
0.112606
0.116054
0.11976
0.0183898
0.0394106
0.050103
0.0574903
0.0632291
0.0679489
0.0719809
0.0755296
0.0787314
0.0816804
0.0844429
0.0870659
0.0895833
0.0920195
0.0943962
0.0967342
0.0990555
0.101385
0.103749
0.106179
0.108702
0.111348
0.114142
0.0188454
0.0404216
0.0513016
0.0587007
0.0643428
0.0689007
0.0727346
0.0760678
0.0790483
0.0817772
0.0843237
0.0867352
0.0890437
0.0912711
0.093432
0.0955372
0.0975969
0.0996217
0.101624
0.103618
0.105619
0.107646
0.10972
0.0195428
0.0418957
0.0529899
0.0603635
0.0658522
0.0701907
0.0737755
0.0768508
0.0795764
0.0820594
0.0843721
0.0865627
0.0886621
0.0906891
0.0926537
0.0945597
0.096408
0.0981972
0.099926
0.101594
0.103205
0.104764
0.106283
0.0205817
0.0439564
0.055241
0.0625058
0.0677546
0.0718013
0.0750811
0.0778567
0.0802965
0.0825117
0.0845763
0.0865388
0.0884294
0.0902645
0.09205
0.093784
0.095459
0.0970639
0.098586
0.100013
0.101334
0.102543
0.103641
0.0220811
0.0466653
0.0580255
0.0650455
0.0699484
0.073631
0.0765599
0.0790079
0.0811458
0.0830849
0.0848989
0.0866357
0.0883244
0.0899795
0.0916036
0.0931898
0.0947234
0.0961847
0.097551
0.0987991
0.0999076
0.100859
0.101646
0.0241266
0.0498939
0.0611154
0.0677305
0.0721961
0.0754728
0.0780383
0.0801626
0.0820111
0.0836908
0.0852729
0.0868037
0.0883111
0.0898078
0.0912937
0.0927573
0.0941784
0.0955299
0.0967809
0.0978997
0.0988563
0.0996262
0.100194
0.0266549
0.053177
0.06401
0.0701154
0.0741273
0.0770252
0.0792737
0.0811268
0.0827389
0.08421
0.0856075
0.0869757
0.0883414
0.0897157
0.0910964
0.0924688
0.0938082
0.0950822
0.0962541
0.0972865
0.0981442
0.0987988
0.0992336
0.0291138
0.0555826
0.0659302
0.0716092
0.0752968
0.0779478
0.0800004
0.0816917
0.0831652
0.0845152
0.0858061
0.0870809
0.0883653
0.0896698
0.0909909
0.0923121
0.0936065
0.0948388
0.0959698
0.0969591
0.0977699
0.0983731
0.0987537
0.443267
0.470001
0.517423
0.599453
1.0239
1.09179
1.14266
1.17365
1.54451
1.59507
1.60421
1.57737
2.21092
2.18835
2.10199
1.96174
2.86217
2.65397
2.38954
2.09525
3.12152
2.78007
2.41194
2.06382
2.98724
2.62445
2.23615
1.89615
2.51531
2.25157
1.94269
1.672
2.08477
1.91871
1.70856
1.49886
1.76676
1.65544
1.52723
1.38528
1.53277
1.46215
1.38244
1.29826
1.3521
1.30948
1.26363
1.21548
1.20102
1.17615
1.1504
1.12401
1.06813
1.05405
1.03995
1.02625
0.948758
0.941406
0.93401
0.927192
0.840871
0.838082
0.834857
0.831873
0.743556
0.744132
0.743831
0.743301
0.656173
0.659364
0.661331
0.662634
0.578172
0.583416
0.58724
0.59009
0.509049
0.515853
0.521194
0.525402
0.448293
0.456193
0.462712
0.468074
0.39534
0.4039
0.411245
0.417514
0.349526
0.358357
0.366181
0.373075
0.310096
0.318867
0.326852
0.334084
0.276238
0.284687
0.29256
0.299861
0.24715
0.255081
0.262622
0.269757
0.2221
0.229376
0.236414
0.243191
0.200476
0.207004
0.213415
0.219684
0.181794
0.187522
0.193222
0.198871
0.1657
0.170607
0.175547
0.180502
0.151934
0.156031
0.160196
0.164419
0.140298
0.143623
0.147032
0.15052
0.130612
0.133232
0.135934
0.138718
0.122691
0.124691
0.12676
0.1289
0.116328
0.117805
0.11933
0.120908
0.111301
0.112351
0.113428
0.114535
0.107386
0.1081
0.108818
0.109545
0.104377
0.104832
0.105274
0.105705
0.102108
0.102372
0.102608
0.102822
0.100466
0.1006
0.100698
0.100768
0.0993972
0.0994607
0.0994896
0.0994933
0.0988793
0.0989218
0.0989361
0.0989376
0.832212
0.833949
0.774615
0.698604
0.625997
0.564136
0.51136
0.464176
0.420338
0.378784
0.339252
0.301995
0.267705
0.237387
0.212195
0.196405
0.193233
0.17127
0.0851881
1.18157
1.06937
0.937649
0.810384
0.704761
0.620999
0.552678
0.494282
0.442399
0.39506
0.351541
0.311824
0.27606
0.245501
0.221083
0.204244
0.195491
0.165546
0.0768985
1.4862
1.26407
1.05213
0.876365
0.743544
0.643381
0.564371
0.499198
0.443403
0.394367
0.350709
0.311823
0.277449
0.248195
0.224485
0.206057
0.190383
0.156034
0.0709985
1.70567
1.35603
1.08114
0.881981
0.738065
0.631801
0.549637
0.483214
0.427611
0.379963
0.3387
0.303068
0.272683
0.247016
0.225578
0.20686
0.184532
0.150113
0.0668634
1.72535
1.3276
1.04131
0.841586
0.700623
0.597433
0.518013
0.454215
0.401428
0.35704
0.31963
0.288464
0.263057
0.242431
0.224796
0.208126
0.181137
0.147458
0.0647843
1.64985
1.24242
0.967602
0.781739
0.651624
0.555694
0.481249
0.421243
0.371807
0.330826
0.297182
0.270278
0.249604
0.234033
0.220801
0.20764
0.180066
0.145611
0.0643577
1.50755
1.13865
0.89351
0.727261
0.608938
0.519872
0.449565
0.392297
0.344986
0.306012
0.27457
0.25025
0.232621
0.220641
0.211783
0.201445
0.177311
0.142856
0.063941
1.35727
1.0497
0.839169
0.691353
0.582401
0.497885
0.429626
0.373099
0.325858
0.286644
0.254886
0.230343
0.21275
0.201389
0.194511
0.187883
0.171127
0.140459
0.0645818
1.24713
0.993737
0.811947
0.678159
0.575372
0.492955
0.424701
0.367013
0.317872
0.276203
0.241524
0.213679
0.192513
0.177475
0.167196
0.158785
0.145704
0.11611
0.0521682
1.1877
0.974021
0.811972
0.68719
0.587638
0.505335
0.435545
0.375337
0.322951
0.277339
0.237969
0.204671
0.177392
0.155781
0.138643
0.123339
0.104972
0.0772337
0.0410814
1.16972
0.986983
0.835924
0.715971
0.617363
0.533628
0.461211
0.397664
0.341392
0.29129
0.246695
0.207324
0.17322
0.144497
0.120855
0.101079
0.0827819
0.0625866
0.0377616
1.13977
1.01294
0.878631
0.761225
0.662102
0.575791
0.499937
0.432495
0.372112
0.317632
0.268274
0.223594
0.18361
0.148829
0.120103
0.0983392
0.0838583
0.072862
0.0515693
1.08058
1.00914
0.923221
0.818904
0.719144
0.629759
0.550009
0.478258
0.413592
0.354925
0.301524
0.252974
0.209277
0.171229
0.140643
0.120416
0.113072
0.108463
0.0735122
1.00426
0.97037
0.925049
0.861653
0.780073
0.692795
0.609866
0.533852
0.464844
0.402116
0.344979
0.293623
0.248267
0.210282
0.182704
0.169777
0.173518
0.164698
0.0950357
0.917096
0.905086
0.888272
0.856014
0.807766
0.745114
0.672122
0.59688
0.524705
0.459073
0.397853
0.344017
0.298079
0.26217
0.241655
0.242885
0.263726
0.230233
0.113277
0.827921
0.826503
0.825334
0.816442
0.792128
0.754141
0.7054
0.646387
0.581255
0.518927
0.457103
0.401425
0.355262
0.320691
0.305353
0.319405
0.344276
0.263362
0.126256
0.742773
0.745328
0.750224
0.753303
0.747104
0.728295
0.698028
0.658271
0.611965
0.55925
0.503196
0.449735
0.403942
0.369395
0.354599
0.363548
0.355254
0.264686
0.133666
0.664416
0.668242
0.674349
0.680869
0.6844
0.679552
0.664609
0.639897
0.607224
0.566808
0.522202
0.476821
0.433147
0.396063
0.374962
0.371634
0.349141
0.265383
0.138393
0.593832
0.598232
0.603907
0.610504
0.61647
0.619162
0.614726
0.602198
0.581289
0.551957
0.516838
0.478119
0.438149
0.402524
0.37939
0.369154
0.340225
0.268426
0.140917
0.531007
0.536147
0.541287
0.546973
0.552781
0.557775
0.558857
0.554104
0.542319
0.523
0.496905
0.465363
0.431031
0.399636
0.378496
0.366509
0.336584
0.273822
0.142588
0.475432
0.481672
0.486755
0.491653
0.496593
0.501244
0.504625
0.504182
0.498511
0.486639
0.468422
0.444706
0.418146
0.394023
0.378149
0.367554
0.338422
0.278468
0.145818
0.426401
0.433983
0.439553
0.444185
0.44846
0.452505
0.456116
0.457658
0.455724
0.449202
0.437608
0.421535
0.403356
0.387393
0.377619
0.369662
0.342712
0.280967
0.148238
0.383155
0.392111
0.398543
0.403436
0.40751
0.411144
0.414417
0.41686
0.41717
0.414444
0.408207
0.398909
0.388433
0.379879
0.375285
0.369488
0.345466
0.282316
0.148519
0.344953
0.355118
0.362561
0.368082
0.372399
0.376019
0.37922
0.382072
0.383798
0.383798
0.38174
0.377972
0.37381
0.371108
0.370173
0.365318
0.342208
0.280708
0.147796
0.311101
0.322176
0.330582
0.336897
0.341757
0.345705
0.349144
0.352364
0.355128
0.357131
0.358211
0.358626
0.359141
0.360496
0.361665
0.35682
0.333857
0.275595
0.145813
0.280973
0.292591
0.301772
0.308875
0.314415
0.318901
0.32279
0.326474
0.330101
0.333588
0.336925
0.340274
0.343925
0.347746
0.349836
0.344607
0.322053
0.26731
0.142001
0.25404
0.265817
0.275503
0.283266
0.289481
0.294589
0.299041
0.303264
0.30763
0.312205
0.317081
0.322324
0.327851
0.332928
0.33519
0.329494
0.307558
0.25622
0.136336
0.229879
0.24145
0.251339
0.259557
0.266344
0.272051
0.277086
0.281877
0.286851
0.292203
0.29806
0.304396
0.310863
0.31636
0.318354
0.312219
0.290999
0.242857
0.129134
0.20819
0.219225
0.22901
0.237441
0.244636
0.250846
0.256413
0.261726
0.267196
0.273084
0.279507
0.286357
0.293108
0.298473
0.299937
0.293389
0.2729
0.227763
0.120783
0.188781
0.198999
0.208388
0.216774
0.224176
0.230749
0.23675
0.242504
0.248364
0.254598
0.261286
0.268244
0.27484
0.279713
0.280475
0.273503
0.253699
0.211417
0.111612
0.171556
0.180728
0.189456
0.19754
0.204927
0.211689
0.217994
0.224082
0.230226
0.236659
0.243395
0.250184
0.256328
0.260469
0.260401
0.252956
0.233753
0.194202
0.101874
0.156474
0.164432
0.17227
0.179802
0.186941
0.193691
0.200139
0.206425
0.212751
0.219255
0.22588
0.232305
0.237793
0.241034
0.240027
0.232039
0.213345
0.176416
0.0917544
0.143508
0.150153
0.156921
0.163671
0.170317
0.176828
0.183219
0.189542
0.195928
0.202382
0.208763
0.214677
0.219364
0.221581
0.219552
0.210962
0.192703
0.158308
0.0814072
0.132604
0.137912
0.143489
0.149259
0.155168
0.161173
0.16726
0.173458
0.17974
0.186006
0.192013
0.197295
0.201073
0.202188
0.199097
0.189894
0.172058
0.14015
0.0710057
0.123644
0.127667
0.132004
0.136645
0.141577
0.146824
0.152385
0.158203
0.164163
0.170061
0.175552
0.180093
0.182895
0.182892
0.178782
0.169055
0.151738
0.122342
0.060827
0.116448
0.119299
0.122425
0.125861
0.129695
0.133976
0.138715
0.143849
0.149214
0.154518
0.159327
0.163033
0.164845
0.163807
0.158858
0.148862
0.132332
0.105579
0.0513932
0.110786
0.112626
0.11465
0.11695
0.119625
0.122771
0.126441
0.130598
0.135069
0.139524
0.143474
0.146279
0.147177
0.145335
0.139928
0.130153
0.114903
0.0910451
0.0436595
0.106421
0.107442
0.108552
0.109843
0.111427
0.113423
0.115914
0.118899
0.122238
0.125621
0.128572
0.130482
0.130664
0.128435
0.123189
0.114373
0.10111
0.0804772
0.0390792
0.103152
0.103566
0.10399
0.104502
0.105212
0.106234
0.107653
0.109487
0.111644
0.113885
0.115824
0.116964
0.116757
0.114692
0.11034
0.103297
0.0927522
0.0756977
0.0392044
0.100851
0.100898
0.100909
0.100951
0.101119
0.101499
0.102152
0.103096
0.10428
0.10555
0.106654
0.107263
0.10701
0.105551
0.102594
0.0978247
0.090496
0.0775652
0.0451249
0.0994769
0.0994437
0.0993277
0.0992094
0.0991655
0.0992485
0.0994906
0.0998989
0.100444
0.101052
0.101594
0.1019
0.101777
0.10103
0.099489
0.0969775
0.0930419
0.0853164
0.0587143
0.0989597
0.099291
0.0992559
0.099189
0.0991491
0.0991565
0.0992181
0.0993329
0.0994912
0.0996716
0.0998399
0.0999488
0.0999403
0.099753
0.0993378
0.0986783
0.097797
0.0963722
0.0887273
)
;

boundaryField
{
    leftWall
    {
        type            kqRWallFunction;
        value           nonuniform List<scalar> 
50
(
0.00149872
0.00268068
0.00366101
0.00475491
0.00586545
0.00691263
0.00820537
0.00959403
0.0115713
0.0136813
0.0152641
0.016342
0.0169308
0.0173242
0.0174538
0.0150719
0.0134423
0.0127735
0.0128734
0.0133994
0.0140615
0.0146974
0.0152488
0.0157107
0.0160957
0.016418
0.0166883
0.0169155
0.0171292
0.0173359
0.0175065
0.0176365
0.0177281
0.0177854
0.0178138
0.0178204
0.0178143
0.0178068
0.0178119
0.0178473
0.017935
0.0181034
0.0183898
0.0188454
0.0195428
0.0205817
0.0220811
0.0241266
0.0266549
0.0291138
)
;
    }
    rightWall
    {
        type            kqRWallFunction;
        value           nonuniform List<scalar> 
50
(
0.0358746
0.0586281
0.0703096
0.080466
0.0867406
0.0911892
0.0932089
0.0920396
0.0851881
0.0768985
0.0709985
0.0668634
0.0647843
0.0643577
0.063941
0.0645818
0.0521682
0.0410814
0.0377616
0.0515693
0.0735122
0.0950357
0.113277
0.126256
0.133666
0.138393
0.140917
0.142588
0.145818
0.148238
0.148519
0.147796
0.145813
0.142001
0.136336
0.129134
0.120783
0.111612
0.101874
0.0917544
0.0814072
0.0710057
0.060827
0.0513932
0.0436595
0.0390792
0.0392044
0.0451249
0.0587143
0.0887273
)
;
    }
    lowerWall
    {
        type            kqRWallFunction;
        value           nonuniform List<scalar> 
62
(
0.00149872
0.00337261
0.00499576
0.00635103
0.00754284
0.00857525
0.00946688
0.0102515
0.0109721
0.0116766
0.0124125
0.0132221
0.014148
0.0152378
0.0165653
0.0181414
0.0197425
0.0210111
0.0214563
0.0204372
0.0171654
0.0110992
0.00412803
0.00412803
0.0106145
0.0172053
0.0259045
0.0386886
0.0611664
0.10954
0.22685
0.443267
0.470001
0.517423
0.599453
0.0411529
0.055538
0.0539255
0.0600541
0.106643
0.217045
0.355284
0.547674
0.0411529
0.0703953
0.104323
0.116646
0.11274
0.105916
0.0992318
0.0939512
0.0893342
0.0843793
0.0788983
0.0731327
0.0661192
0.0560303
0.0423988
0.0381074
0.0448415
0.0400049
0.0358746
)
;
    }
    atmosphere
    {
        type            inletOutlet;
        inletValue      uniform 0.1;
        value           nonuniform List<scalar> 
46
(
0.0291138
0.0555826
0.0659302
0.0716092
0.0752968
0.0779478
0.0800004
0.0816917
0.0831652
0.0845152
0.0858061
0.0870809
0.0883653
0.0896698
0.0909909
0.0923121
0.0936065
0.0948388
0.0959698
0.0969591
0.0977699
0.0983731
0.0987537
0.0988793
0.0989218
0.0989361
0.0989376
0.0989597
0.1
0.1
0.1
0.1
0.1
0.1
0.1
0.1
0.1
0.1
0.1
0.1
0.1
0.1
0.1
0.1
0.1
0.1
)
;
    }
    defaultFaces
    {
        type            empty;
    }
}


// ************************************************************************* //
