/*--------------------------------*- C++ -*----------------------------------*\
  =========                 |
  \\      /  F ield         | OpenFOAM: The Open Source CFD Toolbox
   \\    /   O peration     | Website:  https://openfoam.org
    \\  /    A nd           | Version:  13
     \\/     M anipulation  |
\*---------------------------------------------------------------------------*/
FoamFile
{
    format      ascii;
    class       volScalarField;
    location    "0.75";
    object      nut;
}
// * * * * * * * * * * * * * * * * * * * * * * * * * * * * * * * * * * * * * //

dimensions      [0 2 -1 0 0 0 0];

internalField   nonuniform List<scalar> 
2268
(
2.6045e-05
3.90183e-05
4.75245e-05
5.36318e-05
5.84661e-05
6.23472e-05
6.55173e-05
6.81944e-05
7.05772e-05
7.28484e-05
7.51677e-05
7.76652e-05
8.0458e-05
8.36598e-05
8.7445e-05
9.16691e-05
9.57139e-05
9.87802e-05
9.98397e-05
9.74451e-05
8.9274e-05
7.16251e-05
4.32275e-05
7.37172e-05
0.000258366
0.000382701
0.000464266
0.000516807
0.000551585
0.000576901
0.000599237
0.00062308
0.000651616
0.000687737
0.000734288
0.000794084
0.000868626
0.00095558
0.00104036
0.00111592
0.00117262
0.00119488
0.00115452
0.00100112
0.000661733
0.000147358
8.59478e-05
0.000420501
0.00069289
0.000875856
0.000998449
0.0010817
0.00114222
0.00119461
0.00125025
0.00131774
0.00140435
0.00151611
0.00165793
0.00183168
0.00202417
0.00221536
0.00238221
0.00249336
0.00250274
0.00233863
0.00190161
0.00111791
0.000187947
9.794e-05
0.000556945
0.000956781
0.0012296
0.00141935
0.00155336
0.00165414
0.00174269
0.00183612
0.00194768
0.00208779
0.00226381
0.00248037
0.00273612
0.00300957
0.00327678
0.00350124
0.00363072
0.00359323
0.00329169
0.00261386
0.00150169
0.000231037
0.000108988
0.000699478
0.00119478
0.00154251
0.00179259
0.00197655
0.00212036
0.00224995
0.00238596
0.00254469
0.00273799
0.00297303
0.00325368
0.00357302
0.00390629
0.00422443
0.00447947
0.00460321
0.00450925
0.00409482
0.0032467
0.0018874
0.000283368
0.000118211
0.000830105
0.00141277
0.00182507
0.00212998
0.00236293
0.00255209
0.00272678
0.00290809
0.00311462
0.0033583
0.00364572
0.00398056
0.00434997
0.00472889
0.00508105
0.00534725
0.00544834
0.00529647
0.00480094
0.00384973
0.00229892
0.000358686
0.000128854
0.00096173
0.00161882
0.00208537
0.00243702
0.00271683
0.00295552
0.0031786
0.00340587
0.00365911
0.00394891
0.00428199
0.0046622
0.00507371
0.00548852
0.00586109
0.00612054
0.00618271
0.00597375
0.00543538
0.00446292
0.00278455
0.000483941
0.000139433
0.00108542
0.00181933
0.00233619
0.00272975
0.0030505
0.00333345
0.00360333
0.00387867
0.00417703
0.00450822
0.00488117
0.00530087
0.00574915
0.00619161
0.00657048
0.00680348
0.00681011
0.00654917
0.00601911
0.00514684
0.00348566
0.000698885
0.000136468
0.000180269
0.000220061
0.000232307
0.000228095
0.000221064
0.000214073
0.000208138
0.000202682
0.000196679
0.000189863
0.000182542
0.000173559
0.000159889
0.00013904
0.000129908
0.000140489
0.000132757
0.000126845
0.000373519
0.00112005
0.0017356
0.00203841
0.00216903
0.00220695
0.00220104
0.00216194
0.00209079
0.00199222
0.00186944
0.00173426
0.0015693
0.00125375
0.000750601
0.000550375
0.000769708
0.000742391
0.000380055
0.000369305
0.00172714
0.00296629
0.00385051
0.00432716
0.00451928
0.00455363
0.00448391
0.00432985
0.00410835
0.00383267
0.00351706
0.00312893
0.00251424
0.0016191
0.000955884
0.00109733
0.00118767
0.000415061
0.000394258
0.00212008
0.0040159
0.00536583
0.00610419
0.00642991
0.00650941
0.00642304
0.00620873
0.00589321
0.00549505
0.00502697
0.00445775
0.00364029
0.00253219
0.00155124
0.00150032
0.00151564
0.000444527
0.000534892
0.00257435
0.00496986
0.00663108
0.00754058
0.00795556
0.00806551
0.00796717
0.00770984
0.0073262
0.00683691
0.00625226
0.00555358
0.00461488
0.0033934
0.0022943
0.0020463
0.00185465
0.000461907
0.000751776
0.00322781
0.00599008
0.00779508
0.00876202
0.00920375
0.00931625
0.00920017
0.0089074
0.0084724
0.00791647
0.00724876
0.00645872
0.00545335
0.0041914
0.00308438
0.0026566
0.00218299
0.000473934
0.000954117
0.00416123
0.00717472
0.0089365
0.00984582
0.0102553
0.0103438
0.0102003
0.00987361
0.00939622
0.00878917
0.00806166
0.00720799
0.00616596
0.00491722
0.00382096
0.00322743
0.00245941
0.000479836
0.00117785
0.00549027
0.00850493
0.0100468
0.0108196
0.011157
0.0112007
0.0110205
0.0106577
0.0101416
0.00949161
0.0087195
0.00782344
0.00676349
0.00554404
0.00444802
0.00369697
0.00266299
0.000477133
0.000153388
0.00126504
0.00212433
0.00272227
0.00318355
0.00356876
0.00391482
0.00424763
0.00458827
0.00494855
0.0053372
0.00576425
0.00623243
0.00672396
0.0071903
0.00755133
0.00771434
0.00762674
0.00732495
0.00691205
0.0064255
0.00562557
0.0038266
0.000166909
0.00144559
0.00246287
0.00316829
0.00371819
0.00418611
0.00461125
0.00501829
0.00542625
0.00585036
0.00630457
0.00679939
0.00733088
0.00786307
0.00831814
0.00858271
0.00857867
0.00835325
0.00809402
0.00802142
0.0082332
0.00861242
0.00881983
0.000176414
0.00158369
0.00274305
0.00355259
0.00418926
0.00473699
0.00523727
0.00571396
0.0061847
0.00666639
0.00717628
0.00772601
0.00829767
0.00882538
0.00918815
0.0092631
0.00906179
0.00879141
0.00874491
0.00911528
0.00990379
0.0109399
0.0119472
0.000182556
0.00167594
0.00295098
0.00385087
0.00456515
0.00518527
0.00575474
0.00629769
0.00683217
0.0073766
0.00794841
0.0085508
0.00913547
0.00959086
0.0097648
0.00960451
0.00929485
0.00918223
0.00952691
0.0103797
0.0116355
0.0130682
0.0142978
0.000185807
0.00172181
0.00307451
0.00404151
0.00482095
0.00550697
0.00614306
0.00675373
0.00735834
0.00797649
0.00862091
0.00926642
0.00982595
0.0101423
0.0100899
0.00977382
0.00956189
0.00981466
0.0106321
0.011916
0.0135348
0.0152593
0.0165617
0.00018762
0.0017037
0.00309075
0.00410121
0.00493936
0.00569266
0.00640083
0.00708789
0.00777453
0.00847905
0.00919726
0.00986905
0.0103594
0.0104988
0.0102715
0.00998022
0.0100737
0.010793
0.0120493
0.0136548
0.0155043
0.0172145
0.0177647
0.000189447
0.00162173
0.00298576
0.00402724
0.00492407
0.00575057
0.00654226
0.00731902
0.00810034
0.00890064
0.00968768
0.01036
0.0107437
0.0107209
0.0104535
0.0103776
0.0108611
0.0119755
0.0134934
0.0151319
0.0166392
0.0176032
0.0177284
0.000176229
0.00145787
0.00277443
0.00384716
0.00480801
0.00571114
0.00658528
0.00745352
0.00833568
0.00922871
0.0100669
0.010698
0.0109459
0.0108129
0.0106439
0.010916
0.011834
0.0132061
0.0146912
0.0159836
0.0169034
0.0173821
0.0174125
0.000166081
0.00126861
0.00254243
0.0036395
0.00465092
0.00562238
0.00657716
0.00753553
0.00851238
0.00948255
0.0103426
0.0109148
0.0110844
0.0109999
0.0110632
0.0116255
0.0127121
0.0140831
0.0154174
0.0164445
0.0170283
0.0172057
0.0171352
0.000161354
0.00116601
0.00237367
0.00348411
0.00453591
0.00555875
0.00657212
0.00759581
0.00864164
0.00967218
0.0105475
0.0110949
0.0112764
0.0113242
0.0115941
0.0122932
0.0133837
0.0146483
0.0158154
0.0166593
0.0170771
0.0171476
0.0171228
0.000161546
0.00114667
0.0023179
0.00343513
0.00451021
0.00556156
0.00660663
0.0076661
0.00875147
0.00982055
0.0107184
0.0112864
0.0115356
0.0117082
0.0120967
0.0128349
0.0138632
0.0149965
0.0160135
0.016735
0.0170907
0.0171812
0.0172887
0.000164605
0.00118766
0.0023668
0.00349527
0.00458039
0.00563791
0.00668632
0.00774889
0.00884027
0.00992196
0.0108453
0.0114598
0.0117873
0.0120505
0.0124965
0.0132251
0.0141741
0.0151867
0.0160845
0.0167283
0.017078
0.0172434
0.0174959
0.000168583
0.00126101
0.00248293
0.00363337
0.00472392
0.00577358
0.00680447
0.0078439
0.00891217
0.00998155
0.010922
0.011588
0.0119884
0.0123126
0.012777
0.0134709
0.014341
0.0152544
0.0160651
0.0166655
0.017035
0.0172821
0.0176424
0.000172392
0.00134528
0.00262891
0.00381096
0.00490838
0.00594524
0.00694811
0.00794845
0.00897305
0.010009
0.0109533
0.0116662
0.0121311
0.012496
0.0129537
0.0135974
0.0143912
0.0152244
0.0159745
0.0165551
0.0169554
0.0172703
0.0176896
0.000175656
0.00142743
0.00277859
0.00399768
0.00510542
0.00613048
0.00710319
0.00805823
0.00902807
0.0100153
0.0109481
0.0116989
0.0122223
0.0126184
0.0130562
0.0136392
0.0143561
0.0151196
0.0158253
0.0163993
0.0168316
0.0172001
0.0176407
0.000178352
0.00150107
0.00291724
0.00417447
0.00529548
0.00631221
0.00725761
0.00816819
0.0090803
0.0100098
0.0109155
0.0116918
0.0122695
0.0126979
0.0131149
0.0136325
0.0142688
0.0149633
0.0156273
0.0161943
0.0166554
0.017062
0.0175018
0.00018057
0.00156393
0.00303812
0.00433136
0.00546708
0.00647927
0.0074023
0.00827325
0.00913032
0.00999918
0.010864
0.0116499
0.0122753
0.0127428
0.013149
0.0136049
0.0141557
0.01477
0.0153851
0.0159417
0.016424
0.0168564
0.0172874
0.000182404
0.00161585
0.00313926
0.00446435
0.00561467
0.00662528
0.00753112
0.00836888
0.00917689
0.00998667
0.0108017
0.0115767
0.0122367
0.0127468
0.0131561
0.0135604
0.0140272
0.0145599
0.0151199
0.0156575
0.0161477
0.016593
0.0170134
0.000183926
0.00165749
0.00322099
0.00457285
0.00573649
0.0067474
0.0076405
0.00845153
0.00921774
0.00997321
0.0107344
0.0114804
0.0121531
0.0127001
0.0131282
0.013505
0.013905
0.0143605
0.0148585
0.0153629
0.015844
0.0162889
0.0166971
0.000185193
0.00168924
0.00328438
0.004658
0.00583304
0.00684514
0.0077289
0.00851883
0.00925046
0.0099581
0.0106656
0.0113707
0.0120357
0.0126078
0.0130644
0.0134391
0.0137966
0.0141865
0.01462
0.0150782
0.0155334
0.015964
0.0163565
0.000186354
0.00171055
0.00333064
0.00472178
0.00590613
0.00691954
0.0077963
0.00856966
0.00927317
0.00993991
0.0105972
0.0112551
0.0118952
0.0124754
0.0129595
0.0133506
0.0136923
0.014036
0.0144109
0.0148161
0.0152323
0.0156362
0.0160074
0.000187475
0.00172358
0.00336223
0.00476698
0.00595835
0.00697261
0.00784379
0.00860399
0.00928475
0.00991725
0.0105295
0.0111388
0.0117419
0.0123115
0.0128117
0.0132258
0.0135724
0.0138927
0.0142229
0.014577
0.0149476
0.0153156
0.0156594
0.0001884
0.00173353
0.00338398
0.00479691
0.00599274
0.0070069
0.0078732
0.00862268
0.00928498
0.0098891
0.0104622
0.0110251
0.0115845
0.0121276
0.0126267
0.0130574
0.0134185
0.013734
0.0140367
0.0143489
0.0146744
0.0150021
0.0153137
0.000189104
0.00174069
0.00339886
0.0048156
0.00601225
0.00702511
0.00788674
0.00862719
0.00927435
0.00985507
0.0103949
0.0109154
0.0114295
0.0119354
0.0124161
0.0128488
0.0132213
0.0135411
0.0138307
0.0141129
0.0143991
0.0146869
0.0149634
0.0001896
0.00174528
0.00340743
0.00482498
0.0060199
0.00702974
0.00788667
0.00861926
0.00925386
0.00981528
0.0103271
0.0108105
0.0112812
0.0117446
0.0121936
0.012612
0.0129841
0.0133066
0.0135899
0.0138518
0.0141062
0.014357
0.0145981
0.000189912
0.00174747
0.00341015
0.00482581
0.00601748
0.00702295
0.00787502
0.00860066
0.00922472
0.00977019
0.0102588
0.0107104
0.0111415
0.0115619
0.0119718
0.012362
0.0127195
0.0130355
0.0133112
0.013557
0.013785
0.0140024
0.0142084
0.000190069
0.00174743
0.0034074
0.00481876
0.00600587
0.00700656
0.00785348
0.00857298
0.00918816
0.00972045
0.0101898
0.0106147
0.0110113
0.0113913
0.0117596
0.0121133
0.0124437
0.0127416
0.013003
0.0132312
0.0134345
0.0136204
0.0137915
0.000190108
0.00174534
0.00339959
0.00480451
0.00598596
0.00698174
0.00782357
0.00853759
0.0091453
0.00966669
0.0101202
0.010523
0.0108902
0.0112342
0.0115624
0.0118764
0.012172
0.0124419
0.0126802
0.0128859
0.0130629
0.0132172
0.0133528
0.000190078
0.00174148
0.00338723
0.00478385
0.0059588
0.00694956
0.00778676
0.00849575
0.00909713
0.00960948
0.01005
0.0104345
0.0107773
0.0110904
0.0113825
0.0116578
0.0119155
0.0121513
0.0123597
0.0125374
0.0126849
0.012806
0.0129048
0.000190037
0.00173624
0.00337107
0.00475789
0.00592572
0.00691144
0.00774445
0.00844877
0.00904463
0.00954932
0.00997905
0.0103486
0.0106714
0.0109588
0.0112198
0.01146
0.011681
0.0118809
0.0120557
0.0122016
0.0123169
0.0124033
0.012464
0.000190058
0.00173015
0.00335221
0.00472818
0.00588854
0.00686925
0.00769827
0.00839827
0.00898883
0.00948669
0.00990715
0.0102643
0.0105707
0.0108372
0.0110725
0.0112828
0.011471
0.011637
0.0117782
0.0118913
0.0119736
0.0120251
0.0120477
0.000190236
0.00172401
0.00333226
0.00469699
0.00584988
0.00682557
0.00765048
0.00834606
0.00893102
0.00942213
0.00983409
0.0101805
0.0104734
0.0107231
0.0109379
0.011124
0.0112849
0.0114214
0.0115323
0.0116146
0.0116656
0.011684
0.0116705
0.000190684
0.00171891
0.00331353
0.00466752
0.00581331
0.00678387
0.00760406
0.00829432
0.00887282
0.00935626
0.00975963
0.0100961
0.0103776
0.0106138
0.0108127
0.0109801
0.0111197
0.0112328
0.0113186
0.0113749
0.0113988
0.0113883
0.0113428
0.00019155
0.00171637
0.0032992
0.00464408
0.00578353
0.00674859
0.00756272
0.00824574
0.00881584
0.00928992
0.00968349
0.01001
0.0102811
0.0105063
0.0106932
0.0108472
0.0109715
0.0110677
0.011135
0.0111715
0.0111743
0.0111408
0.0110696
0.000193022
0.00171841
0.0032934
0.00463205
0.00576621
0.00672491
0.00753061
0.00820326
0.00876171
0.00922372
0.00960547
0.00992105
0.0101822
0.0103982
0.0105762
0.0107211
0.0108359
0.0109215
0.0109773
0.011001
0.0109897
0.0109404
0.0108506
0.000195349
0.00172749
0.00330086
0.00463732
0.00576727
0.00671796
0.00751168
0.00816947
0.00871181
0.00915798
0.00952525
0.00982836
0.0100793
0.0102873
0.010459
0.0105987
0.0107089
0.0107898
0.0108405
0.0108584
0.0108401
0.0107823
0.0106816
0.00019886
0.00174592
0.00332549
0.00466447
0.00579108
0.00673131
0.00750845
0.00814595
0.00866694
0.00909292
0.00944266
0.00973167
0.00997211
0.010173
0.0103405
0.0104783
0.010588
0.0106693
0.0107204
0.0107385
0.0107197
0.01066
0.0105557
0.00020397
0.00177391
0.00336718
0.00471353
0.00583769
0.00676485
0.00752071
0.00813251
0.00862714
0.00902898
0.00935855
0.00963216
0.00986207
0.0100569
0.0102221
0.0103606
0.0104731
0.0105585
0.0106144
0.0106373
0.0106229
0.0105668
0.0104647
0.00021109
0.00180611
0.00341764
0.00477645
0.00590019
0.00681312
0.00754459
0.00812708
0.00859218
0.00896758
0.00927573
0.00953366
0.00975357
0.0099435
0.0101081
0.0102494
0.010367
0.0104591
0.0105224
0.0105529
0.0105459
0.0104967
0.010401
0.000220348
0.0018294
0.00345955
0.00483694
0.00596476
0.00686538
0.00757296
0.00812629
0.00856225
0.008912
0.00919983
0.0094434
0.00965469
0.00984111
0.0100064
0.0101515
0.0102753
0.010375
0.0104467
0.0104858
0.0104873
0.0104463
0.0103586
0.000231155
0.00182909
0.00347562
0.00487763
0.00601531
0.00690867
0.00759738
0.00812679
0.00853879
0.0088677
0.00913932
0.00937174
0.00957672
0.00976102
0.00992761
0.0100766
0.010206
0.0103124
0.0103914
0.010438
0.010447
0.0104135
0.0103331
0.000241091
0.00180744
0.0034673
0.00489246
0.00604111
0.00693246
0.00761092
0.0081266
0.00852481
0.00884179
0.00910425
0.00933052
0.00953218
0.00971561
0.00988328
0.0100348
0.0101677
0.0102783
0.0103617
0.0104128
0.0104263
0.0103973
0.0103212
0.000972753
0.000995391
0.00104024
0.00111522
0.00842051
0.00853597
0.00874856
0.00911153
0.0125134
0.0128521
0.0131422
0.0133952
0.0148288
0.0150609
0.0151892
0.0152155
0.0163856
0.0162329
0.0159935
0.0157468
0.0170745
0.0164818
0.0160019
0.0156623
0.0172731
0.0166722
0.0161662
0.0158256
0.017137
0.0168065
0.0164666
0.0162781
0.0171226
0.0171318
0.0170754
0.0170561
0.0173561
0.0175767
0.0178061
0.0179699
0.0176916
0.0180378
0.0184022
0.0187331
0.0179979
0.0184019
0.0188257
0.0192123
0.0181684
0.0185708
0.0189876
0.0193716
0.0181871
0.0185541
0.0189319
0.0192855
0.0180796
0.0183986
0.0187239
0.0190329
0.0178826
0.0181547
0.0184287
0.0186911
0.0176209
0.0178524
0.0180815
0.0183002
0.0173117
0.0175114
0.0177044
0.0178862
0.0169704
0.0171465
0.0173123
0.0174655
0.0166112
0.0167697
0.0169157
0.0170479
0.0162458
0.0163903
0.0165213
0.0166379
0.0158808
0.0160124
0.0161307
0.0162349
0.0155157
0.015634
0.0157401
0.015833
0.0151437
0.0152479
0.0153412
0.0154227
0.0147547
0.0148438
0.0149237
0.0149933
0.0143401
0.0144137
0.0144794
0.0145363
0.0138975
0.0139549
0.0140056
0.0140489
0.0134318
0.0134724
0.0135071
0.0135356
0.0129555
0.0129782
0.0129957
0.0130078
0.0124853
0.0124894
0.0124884
0.0124825
0.0120393
0.0120244
0.0120042
0.0119791
0.0116337
0.0116005
0.0115612
0.0115165
0.0112805
0.0112305
0.0111737
0.0111105
0.010986
0.0109223
0.0108506
0.0107713
0.0107514
0.0106774
0.0105944
0.0105027
0.0105727
0.0104924
0.010402
0.010302
0.0104426
0.0103595
0.0102658
0.0101616
0.0103521
0.0102694
0.0101756
0.0100709
0.0102924
0.0102119
0.0101201
0.0100171
0.0102555
0.010178
0.0100888
0.009988
0.0102345
0.0101591
0.0100707
0.00996853
0.0102245
0.0101489
0.0100577
0.00994811
0.00507828
0.00858597
0.010571
0.0116103
0.0121367
0.0123431
0.0123028
0.0120569
0.0116371
0.0110677
0.0103666
0.00954384
0.00860622
0.0075393
0.00636274
0.00523624
0.004242
0.00284865
0.000458677
0.0107233
0.0120074
0.0127644
0.0131918
0.0134101
0.0134397
0.0132765
0.0129327
0.0124301
0.0117901
0.011028
0.0101568
0.00918229
0.00810297
0.00693094
0.00572422
0.00449211
0.00279909
0.000435558
0.0137939
0.0139919
0.0141017
0.0141785
0.0142001
0.0140927
0.0138143
0.0133686
0.0127778
0.0120661
0.0112546
0.0103591
0.00937948
0.0083127
0.00715476
0.00591216
0.00451747
0.00266869
0.000418474
0.0151424
0.0148651
0.0147286
0.0146919
0.0146198
0.0144104
0.0140221
0.0134662
0.0127735
0.0119763
0.0111038
0.0101798
0.00921647
0.0081995
0.00711355
0.00591822
0.00448223
0.00263639
0.000406086
0.0154542
0.0151025
0.0149797
0.0149447
0.0148247
0.0145169
0.0140018
0.0133113
0.0124912
0.0115857
0.0106351
0.00967511
0.00873069
0.00780039
0.00683177
0.00576859
0.00441827
0.00267278
0.000399935
0.0153762
0.0151352
0.0151399
0.0151447
0.014961
0.0145188
0.0138396
0.0129818
0.0120065
0.0109701
0.00992559
0.00892245
0.00799787
0.00716093
0.00633649
0.0054472
0.00426796
0.00265241
0.000399138
0.0155828
0.0154498
0.0155106
0.0154573
0.015121
0.0144836
0.0136053
0.0125612
0.0114192
0.0102422
0.00909447
0.00803757
0.00711636
0.00633982
0.00566358
0.00493741
0.00395358
0.0025245
0.000396817
0.0161983
0.0161544
0.0161402
0.0158913
0.0153138
0.0144456
0.0133675
0.0121529
0.0108621
0.00955502
0.00830019
0.00716826
0.00621163
0.00544297
0.00482618
0.00425404
0.00349156
0.00232804
0.000401353
0.0171372
0.017095
0.0168855
0.0163612
0.0155213
0.014444
0.0132096
0.011874
0.010478
0.00906745
0.00770533
0.00646657
0.00541403
0.00456973
0.00390245
0.00333232
0.00270979
0.00177876
0.000359057
0.0181547
0.0180373
0.0175934
0.0168104
0.0157614
0.0145411
0.0132165
0.0118203
0.0103707
0.00889244
0.00743334
0.00606537
0.00486453
0.00387528
0.00308398
0.00241967
0.00177229
0.00104193
0.000316751
0.0190605
0.0188617
0.0182219
0.0172593
0.0160854
0.0147944
0.0134383
0.0120309
0.0105715
0.00906375
0.00753503
0.00604517
0.00467863
0.0035133
0.00258078
0.00185172
0.00126083
0.000751152
0.000309865
0.0196579
0.0195218
0.0188129
0.0177595
0.016535
0.0152259
0.0138753
0.0124862
0.0110463
0.0095429
0.0079827
0.00640679
0.00489575
0.00355342
0.002467
0.00166916
0.00113162
0.000756529
0.000368484
0.0198582
0.0198798
0.0193386
0.0183359
0.0171177
0.0158215
0.0144954
0.0131379
0.0117332
0.0102576
0.00870133
0.00708655
0.00548135
0.00400176
0.00278322
0.0019233
0.00142209
0.00105981
0.000437923
0.019779
0.019946
0.019592
0.0188247
0.0177649
0.0165416
0.0152552
0.0139365
0.012575
0.0111425
0.00961541
0.0080035
0.0063617
0.00481241
0.00353432
0.00266916
0.00220659
0.00167586
0.000494778
0.019492
0.0197502
0.0195662
0.0190183
0.0182082
0.0172045
0.0160619
0.0148278
0.0135236
0.0121538
0.0106717
0.00909473
0.00746646
0.00590666
0.00463924
0.00384955
0.00347593
0.00257683
0.000537583
0.0190914
0.0193713
0.0193244
0.0189515
0.0183477
0.0175667
0.0166527
0.015613
0.0144527
0.0132028
0.0118123
0.0103057
0.00873697
0.00720283
0.00594581
0.0052189
0.00481256
0.00330522
0.000564178
0.0186366
0.0188961
0.0189192
0.0186947
0.0182546
0.0176511
0.0169275
0.016093
0.015151
0.0140802
0.0128558
0.0114947
0.0100456
0.00859708
0.00737993
0.00657671
0.00574129
0.003718
0.000577783
0.0181645
0.0183876
0.0184369
0.0183034
0.0179927
0.01754
0.0169719
0.0163015
0.0155339
0.0146364
0.0136018
0.0124388
0.0111672
0.00985315
0.00866712
0.00770219
0.00646487
0.00399194
0.000586738
0.0176966
0.017883
0.0179365
0.0178525
0.0176358
0.0172913
0.0168477
0.0163148
0.0156873
0.0149385
0.0140677
0.0130765
0.0119733
0.010804
0.0096533
0.00851819
0.00693964
0.00414444
0.000592213
0.0172436
0.0174004
0.0174503
0.0173931
0.017234
0.0169733
0.0166215
0.0161897
0.0156728
0.0150535
0.0143218
0.0134742
0.0125148
0.011463
0.010334
0.00906722
0.00727323
0.00427175
0.000597539
0.0168077
0.0169438
0.0169898
0.0169484
0.0168261
0.0166263
0.0163437
0.0159882
0.0155562
0.0150353
0.0144135
0.0136833
0.0128419
0.0118847
0.0107848
0.00944921
0.00752576
0.00444111
0.000605264
0.0163849
0.0165077
0.0165517
0.0165216
0.0164244
0.0162649
0.0160385
0.0157431
0.0153777
0.0149335
0.0143989
0.0137631
0.013014
0.0121279
0.011057
0.00969398
0.00770694
0.00452041
0.000609335
0.0159665
0.0160802
0.0161242
0.0161032
0.0160243
0.0158933
0.0157094
0.0154627
0.0151521
0.0147701
0.0143054
0.0137438
0.0130645
0.0122318
0.0111878
0.00981715
0.00781265
0.00457249
0.000609634
0.0155408
0.0156467
0.015691
0.0156774
0.0156125
0.0155022
0.015348
0.015142
0.0148775
0.0145471
0.0141389
0.0136353
0.0130091
0.0122183
0.0111997
0.00983141
0.00782048
0.00458925
0.000608191
0.0150956
0.015193
0.0152365
0.0152282
0.0151738
0.0150789
0.0149464
0.014772
0.0145454
0.0142581
0.0138962
0.0134388
0.0128547
0.0120993
0.0111067
0.00975117
0.00775146
0.00456279
0.000603624
0.0146218
0.0147081
0.0147481
0.0147423
0.0146951
0.0146116
0.0144953
0.0143445
0.0141488
0.0138975
0.0135742
0.0131552
0.0126073
0.0118851
0.0109216
0.0095898
0.00762013
0.00449611
0.000594943
0.0141159
0.0141869
0.0142194
0.0142123
0.0141687
0.0140932
0.0139891
0.0138559
0.0136854
0.0134644
0.0131742
0.0127892
0.0122749
0.0115864
0.0106562
0.00935837
0.00743494
0.00439529
0.000582244
0.0135812
0.0136315
0.0136508
0.0136373
0.0135932
0.013522
0.0134269
0.0133076
0.0131576
0.0129622
0.0127014
0.0123478
0.0118667
0.0112134
0.010321
0.00906682
0.00720441
0.00426752
0.000566081
0.0130286
0.0130512
0.0130501
0.0130237
0.0129735
0.0129024
0.0128128
0.0127044
0.0125709
0.0123977
0.0121635
0.01184
0.0113921
0.0107758
0.00992591
0.00872412
0.00693642
0.00411888
0.000547044
0.0124746
0.0124616
0.0124316
0.0123843
0.012321
0.0122443
0.012156
0.0120547
0.0119342
0.0117801
0.0115701
0.0112752
0.0108606
0.0102831
0.00947977
0.00833837
0.0066377
0.00395399
0.000525576
0.0119391
0.0118828
0.0118148
0.011737
0.0116522
0.0115627
0.0114696
0.0113708
0.0112591
0.0111205
0.0109318
0.0106637
0.0102817
0.00974407
0.0089908
0.00791658
0.00631347
0.00377592
0.000501953
0.0114428
0.0113368
0.0112221
0.0111042
0.0109878
0.0108762
0.0107705
0.0106673
0.0105593
0.0104315
0.0102603
0.0100162
0.00966529
0.00916752
0.00846658
0.00746473
0.00596754
0.00358649
0.000476305
0.0110035
0.0108448
0.010677
0.0105098
0.0103512
0.0102068
0.0100782
0.00996186
0.0098506
0.00972746
0.00956843
0.00934417
0.00902161
0.00856255
0.00791476
0.00698849
0.0056031
0.00338679
0.000448678
0.0106343
0.0104239
0.0102004
0.00997732
0.00976676
0.00957762
0.00941411
0.00927518
0.00915118
0.00902456
0.0088709
0.00866102
0.00836281
0.00794014
0.00734493
0.00649545
0.00522475
0.00317831
0.000419173
0.0103412
0.0100852
0.00980848
0.0095273
0.0092579
0.00901451
0.00880554
0.00863126
0.00848286
0.00834268
0.00818606
0.00798409
0.00770563
0.00731665
0.00677293
0.00599979
0.0048427
0.00296492
0.000388233
0.0101234
0.00983175
0.00951001
0.00917565
0.00884818
0.00854565
0.00828127
0.00805952
0.00787432
0.00770939
0.00754077
0.00734021
0.00707775
0.00672118
0.00622906
0.005531
0.00448017
0.00275617
0.000357299
0.0099737
0.00965927
0.00930644
0.00893178
0.00855522
0.00819737
0.00787557
0.00759946
0.00736792
0.00716857
0.00698018
0.00677659
0.00652957
0.00620834
0.00577183
0.00514744
0.00418409
0.00257072
0.000329964
0.00988069
0.00955748
0.00919145
0.0087973
0.00839313
0.00799855
0.00763213
0.00730759
0.00702984
0.00679324
0.00658273
0.006377
0.00615118
0.00587535
0.00550418
0.00494997
0.00403265
0.00243656
0.000312895
0.00982974
0.00951004
0.00915172
0.00876782
0.0083717
0.00797743
0.00760077
0.00725577
0.00695185
0.00669133
0.00646867
0.00627133
0.00608029
0.00586586
0.00557118
0.00507269
0.00412204
0.00238852
0.000313786
0.0098039
0.0094899
0.00916101
0.00882406
0.00848285
0.00814276
0.00781183
0.00749983
0.00721619
0.00696938
0.00676333
0.00659599
0.00645605
0.00631375
0.00609514
0.00562303
0.00453985
0.0024845
0.000336468
0.00977825
0.00944175
0.00916817
0.0089228
0.00868793
0.00845776
0.00823248
0.008016
0.00781454
0.00763584
0.00748798
0.00737585
0.0072949
0.00721902
0.00706918
0.0066341
0.00542433
0.00287075
0.000383476
0.0097321
0.0092594
0.00909807
0.00899814
0.00891319
0.00883272
0.00875415
0.00867763
0.00860495
0.00853925
0.0084846
0.00844459
0.00841878
0.00839577
0.00833457
0.00810014
0.0072096
0.00422043
0.0004717
)
;

boundaryField
{
    leftWall
    {
        type            nutkWallFunction;
        Cmu             0.09;
        kappa           0.41;
        E               9.8;
        value           nonuniform List<scalar> 
50
(
2.9131e-06
7.52771e-06
8.67434e-06
9.88924e-06
1.26009e-05
1.39099e-05
1.50711e-05
1.62104e-05
1.76851e-05
1.91121e-05
2.01043e-05
2.07479e-05
2.1093e-05
2.14366e-05
1.81386e-05
1.62066e-05
1.47823e-05
1.41692e-05
1.42619e-05
1.47435e-05
1.53344e-05
1.58873e-05
1.63557e-05
1.67408e-05
1.70569e-05
1.73182e-05
1.7535e-05
1.77158e-05
1.78845e-05
1.80467e-05
1.81796e-05
1.82804e-05
1.83512e-05
1.83954e-05
1.84173e-05
1.84224e-05
1.84177e-05
1.84119e-05
1.84158e-05
1.84431e-05
1.85104e-05
1.86391e-05
1.88565e-05
1.91985e-05
1.97129e-05
2.04602e-05
2.1502e-05
2.28602e-05
2.44517e-05
2.59192e-05
)
;
    }
    rightWall
    {
        type            nutkWallFunction;
        Cmu             0.09;
        kappa           0.41;
        E               9.8;
        value           nonuniform List<scalar> 
50
(
1.24835e-05
3.4053e-05
3.69426e-05
3.92593e-05
4.06241e-05
4.16266e-05
4.21906e-05
4.19897e-05
4.04338e-05
3.86236e-05
3.73315e-05
3.71541e-05
3.64782e-05
3.56724e-05
3.56195e-05
4.12458e-05
3.9536e-05
3.51067e-05
3.3568e-05
3.87013e-05
4.55031e-05
5.18024e-05
5.97072e-05
6.27465e-05
6.40065e-05
6.61314e-05
7.17828e-05
7.22198e-05
7.30565e-05
7.36776e-05
7.37501e-05
7.35591e-05
7.30497e-05
7.20608e-05
7.05645e-05
6.86117e-05
6.62669e-05
6.35847e-05
6.05975e-05
5.73141e-05
5.37424e-05
4.98846e-05
4.57874e-05
4.16288e-05
3.78853e-05
3.54888e-05
3.55563e-05
3.86217e-05
4.48896e-05
5.62935e-05
)
;
    }
    lowerWall
    {
        type            nutkWallFunction;
        Cmu             0.09;
        kappa           0.41;
        E               9.8;
        value           nonuniform List<scalar> 
62
(
2.9131e-06
4.22228e-06
5.05088e-06
5.63448e-06
6.09341e-06
6.4598e-06
6.75724e-06
7.00655e-06
7.22648e-06
7.43402e-06
7.64362e-06
7.86651e-06
8.1125e-06
8.39102e-06
8.71598e-06
9.08387e-06
9.44019e-06
9.71144e-06
9.80452e-06
9.58987e-06
8.85824e-06
7.26456e-06
4.63021e-06
4.63021e-06
1.40799e-05
1.75444e-05
2.11424e-05
2.53891e-05
3.12983e-05
4.10298e-05
6.05173e-05
8.68095e-05
8.96326e-05
8.97739e-05
9.59708e-05
1.53485e-05
3.95871e-05
3.92386e-05
4.13412e-05
4.95435e-05
6.45184e-05
8.20545e-05
0.000110554
1.53485e-05
1.92117e-05
2.29903e-05
2.41651e-05
2.37135e-05
2.18842e-05
2.04446e-05
1.97088e-05
1.92766e-05
1.88709e-05
1.84512e-05
1.79165e-05
1.71144e-05
1.61836e-05
1.46636e-05
1.30374e-05
1.38174e-05
1.31182e-05
1.24835e-05
)
;
    }
    atmosphere
    {
        type            calculated;
        value           nonuniform List<scalar> 
46
(
0.000241091
0.00180744
0.0034673
0.00489246
0.00604111
0.00693246
0.00761092
0.0081266
0.00852481
0.00884179
0.00910425
0.00933052
0.00953218
0.00971561
0.00988328
0.0100348
0.0101677
0.0102783
0.0103617
0.0104128
0.0104263
0.0103973
0.0103212
0.0102245
0.0101489
0.0100577
0.00994811
0.0097321
0.009
0.009
0.009
0.009
0.009
0.009
0.009
0.009
0.009
0.009
0.009
0.009
0.009
0.009
0.009
0.009
0.009
0.009
)
;
    }
    defaultFaces
    {
        type            empty;
    }
}


// ************************************************************************* //
