/*--------------------------------*- C++ -*----------------------------------*\
  =========                 |
  \\      /  F ield         | OpenFOAM: The Open Source CFD Toolbox
   \\    /   O peration     | Website:  https://openfoam.org
    \\  /    A nd           | Version:  13
     \\/     M anipulation  |
\*---------------------------------------------------------------------------*/
FoamFile
{
    format      ascii;
    class       volScalarField;
    location    "0.75";
    object      p;
}
// * * * * * * * * * * * * * * * * * * * * * * * * * * * * * * * * * * * * * //

dimensions      [1 -1 -2 0 0 0 0];

internalField   nonuniform List<scalar> 
2268
(
3689.82
3731.2
3833.17
3985.23
4180.47
4410.01
4662.7
4923.96
5180.33
5422.79
5646.52
5850.04
6033.45
6196.42
6340.83
6467.32
6575.77
6660.83
6713.37
6722.27
6681.25
6602.27
6490.79
2883.54
2926.8
3032.45
3190.7
3393.55
3630.49
3889.56
4154.89
4412.57
4653.68
4873.92
5072.21
5249
5403.98
5537.24
5651.36
5744.54
5813.32
5852.04
5854.7
5820.64
5760.81
5664.78
2065.76
2116.8
2223.96
2389.19
2602.92
2849.62
3117.17
3387.72
3646.72
3886.05
4102.06
4294.05
4463.05
4607.45
4728.92
4828.87
4906.78
4961.23
4989.88
4990.98
4965.74
4919.22
4831.11
1299.3
1350.9
1436.33
1577.45
1782.78
2045.98
2332.4
2614.83
2878.21
3117.11
3329.38
3515.46
3677.78
3812.62
3922.09
4009.33
4074.97
4118.88
4140.59
4140.22
4117.18
4070.2
3985.27
922.3
938.672
965.935
1017.82
1114.17
1283.35
1524.89
1819.34
2102.09
2347.03
2557.46
2738.41
2895.72
3021.83
3119.76
3195.7
3251.54
3287.31
3302.54
3297.09
3266.95
3209.79
3130.17
844.478
840.798
838.512
838.491
842.962
867.01
946.007
1104.68
1323.4
1571.6
1790.35
1968.45
2121.33
2238.84
2323.54
2387.67
2434.74
2463.45
2471.88
2458.59
2415.88
2347.88
2270.3
779.913
775.976
772.305
768.389
764.659
759.452
753.973
754.927
807.378
926.701
1066.38
1219.02
1373.65
1481.81
1549.93
1602.7
1643.68
1667.46
1670.19
1649.04
1595.04
1531.25
1450.17
715.488
711.085
707.503
703.609
699.37
692.116
681.467
668.989
654.075
638.384
650.725
708.265
781.94
835.902
887.077
944.011
988.957
1012.74
1018.22
1008.35
982.432
970.134
923.067
1833.73
1803.4
2011.02
2315.57
2501.25
2584.96
2583
2511.63
2477.35
2497.44
2557.56
2662.58
2809.15
2947.28
3138.2
3015.88
2878.03
2929.81
3401
1774.92
1728.41
1884.67
2104.9
2203.05
2086.6
1924.49
1855.37
1864.04
1926.79
2037.31
2180.14
2362.06
2624.75
2980.97
2865.29
2750.6
2698.54
3149.59
1741.26
1702.93
1719.72
1740.82
1679.42
1452.92
1286.75
1258.93
1270.09
1308.85
1380.86
1513.89
1752.88
2124.34
2680.62
2751.96
2714.96
2661.75
2942.19
1717.89
1646.47
1458.77
1327.67
1235.47
1152.14
1091.28
1063.94
1051.61
1052.52
1076.45
1137.34
1274.5
1628.4
2326.55
2660.38
2689.32
2611.28
2800.38
1624.68
1475.81
1185.17
1101.05
1067.05
1064.01
1046.07
1018.29
1003.34
999.986
1012.84
1043.05
1085.31
1234.52
1926.59
2565.66
2647.93
2406.88
2706.57
1185.16
1180.89
1043.71
1021.85
1006.57
994.373
972.661
949.694
937.494
936.484
950.201
977.386
1000.07
1033.26
1451.75
2294.68
2432.45
2140.5
2624.76
792.997
984.646
970.839
948.703
929.816
915.972
897.804
880.774
871.817
872.737
886.52
913.273
939.93
959.096
1124
1670.47
1945.53
1935.24
2525.15
678.178
895.053
887.807
875.364
857.927
846.761
835.043
824.174
818.331
819.106
828.468
848.939
876.477
901.943
971.889
1160.86
1449.71
1700.65
2336.3
615.462
609.571
605.285
601.324
597.067
590.591
580.905
568.184
553.405
541.245
530.479
517.651
503.435
504.817
529.747
565.771
594.672
611.801
623.557
637.019
660.845
704.141
734.305
480.622
472.417
466.684
461.956
457.423
452.103
445.313
436.676
426.091
415.052
404.311
395.247
390.556
388.729
387.354
386.454
388.997
397.957
415.884
445.407
489.235
541.768
578.667
346.139
336.127
329.033
323.364
318.367
313.461
308.335
302.616
295.805
287.977
279.624
272.366
267.005
264.227
263.785
265.241
269.256
278.104
295.313
324.896
370.662
426.921
462.054
211.454
199.125
190.4
183.71
178.684
174.705
171.54
168.688
165.209
160.458
154.717
149.932
145.468
141.951
139.662
138.359
138.083
140.677
149.404
169.611
209.674
254.838
317.746
83.887
71.9737
64.67
59.8465
57.2844
56.0202
55.4314
54.6849
52.9219
50.0242
49.8885
48.6151
47.0058
45.5419
43.927
41.3609
37.9564
34.5654
33.185
35.4456
39.7076
45.7487
71.6075
14.6086
10.461
8.74428
7.88603
7.63973
7.652
7.79094
7.69919
7.15901
6.98371
7.19557
7.1932
6.85816
6.56233
6.05819
5.05098
5.1028
5.25178
5.27105
5.63554
8.09414
12.5561
21.9183
4.91917
4.80689
4.92972
4.91264
4.87323
4.81167
4.74532
4.71341
4.72777
4.7273
4.70792
4.71692
4.76876
4.87351
5.04321
5.09508
5.0663
5.03755
4.98499
4.94751
5.21935
6.02791
7.37814
4.72449
4.68717
4.70463
4.70651
4.71233
4.71935
4.73128
4.74963
4.76763
4.7835
4.79981
4.81663
4.83502
4.86029
4.89748
4.9334
4.95557
4.98943
5.05557
5.20651
5.5277
5.88399
5.67551
4.5869
4.57893
4.58698
4.58779
4.58807
4.58778
4.58599
4.58404
4.58708
4.60331
4.62119
4.64299
4.67144
4.70751
4.74918
4.79248
4.83529
4.89073
4.97049
5.09025
5.28065
5.42533
5.18101
4.45334
4.45375
4.45901
4.46086
4.46128
4.46102
4.46157
4.46548
4.47441
4.48274
4.49609
4.51535
4.54202
4.57667
4.61662
4.65843
4.70107
4.74631
4.79294
4.82542
4.81607
4.73585
4.49148
4.31859
4.32137
4.32553
4.32833
4.33039
4.33237
4.33548
4.34099
4.34934
4.35931
4.37274
4.39125
4.41612
4.44629
4.48051
4.51532
4.54692
4.57058
4.57695
4.54471
4.42924
4.22435
3.945
4.18284
4.1865
4.19039
4.19363
4.19654
4.19972
4.20395
4.20994
4.21812
4.22844
4.24148
4.25862
4.28072
4.30662
4.33394
4.35877
4.37569
4.37644
4.34834
4.27298
4.12181
3.8859
3.60894
4.04601
4.04973
4.05348
4.05685
4.0601
4.06374
4.06834
4.0744
4.08224
4.09191
4.1037
4.1185
4.13685
4.15742
4.17717
4.19155
4.1942
4.17598
4.12425
4.02417
3.86226
3.6394
3.38687
3.90809
3.91146
3.91493
3.91823
3.92151
3.9252
3.92972
3.93541
3.94248
3.95096
3.96086
3.97268
3.98662
4.00129
4.01346
4.01825
4.00918
3.97769
3.91318
3.80481
3.64649
3.44414
3.21855
3.76936
3.77219
3.77526
3.77828
3.78136
3.78479
3.78887
3.79383
3.79977
3.80667
3.81436
3.82289
3.83225
3.84107
3.84625
3.84308
3.82544
3.78593
3.71648
3.61009
3.46471
3.2856
3.0866
3.63006
3.63231
3.63488
3.63749
3.64017
3.64312
3.64653
3.65052
3.65511
3.6602
3.66553
3.67084
3.67581
3.67925
3.67841
3.66904
3.64569
3.60229
3.53341
3.43502
3.30591
3.14915
2.9754
3.49039
3.49206
3.49409
3.49621
3.49838
3.50071
3.5033
3.5062
3.50935
3.51258
3.51557
3.51793
3.51901
3.51779
3.51199
3.49806
3.47153
3.42798
3.36343
3.27495
3.16118
3.02515
2.87514
3.35048
3.35162
3.35312
3.3547
3.3563
3.35796
3.35969
3.36147
3.36321
3.36467
3.3655
3.36521
3.36307
3.35812
3.3486
3.33176
3.30425
3.26269
3.20359
3.12473
3.02547
2.90851
2.78008
3.21046
3.21114
3.21213
3.21318
3.2142
3.21517
3.21605
3.21677
3.2172
3.21709
3.21605
3.21355
3.20891
3.20124
3.1892
3.17078
3.14342
3.10436
3.05094
2.98148
2.89571
2.79585
2.68649
3.07043
3.07071
3.07125
3.0718
3.07226
3.07257
3.07266
3.07242
3.07169
3.07023
3.06766
3.06348
3.05702
3.0475
3.03387
3.01467
2.98799
2.95175
2.90395
2.8433
2.76968
2.6848
2.59204
2.9305
2.93041
2.93057
2.93067
2.93063
2.93034
2.92973
2.92865
2.92694
2.92437
2.92059
2.91515
2.90745
2.89679
2.88232
2.86296
2.83737
2.80403
2.7615
2.70878
2.64579
2.57384
2.49538
2.79069
2.79037
2.79019
2.78989
2.7894
2.7886
2.78738
2.7856
2.7831
2.77965
2.77496
2.76862
2.76013
2.74888
2.73416
2.71518
2.69096
2.66048
2.6227
2.57692
2.52305
2.46212
2.39586
2.65113
2.65062
2.65014
2.64953
2.64865
2.64742
2.6457
2.64336
2.64025
2.63615
2.6308
2.62387
2.61494
2.60351
2.58899
2.57075
2.54813
2.52039
2.48686
2.44706
2.40094
2.34928
2.29333
2.51188
2.5112
2.51051
2.50962
2.50844
2.50686
2.50475
2.50199
2.49842
2.49386
2.48809
2.48082
2.47173
2.4604
2.44637
2.42915
2.40824
2.38314
2.35341
2.31875
2.27915
2.23526
2.18795
2.37297
2.37217
2.37131
2.37021
2.3688
2.36695
2.36455
2.36148
2.3576
2.35276
2.34675
2.33936
2.33031
2.31929
2.30594
2.28988
2.27073
2.24814
2.22183
2.19161
2.15753
2.12013
2.08002
2.23444
2.23357
2.23258
2.23133
2.22974
2.2277
2.2251
2.22183
2.21778
2.21279
2.20672
2.19936
2.19052
2.17996
2.16739
2.15255
2.13513
2.11491
2.09167
2.06533
2.03594
2.00398
1.9699
2.09634
2.09542
2.09435
2.09299
2.09128
2.08911
2.08639
2.08303
2.0789
2.07389
2.06787
2.06069
2.05218
2.04216
2.03045
2.01682
2.00107
1.98303
1.96257
1.93962
1.91426
1.8869
1.85786
1.95866
1.95773
1.95661
1.95519
1.95341
1.95117
1.94841
1.94502
1.94091
1.93598
1.93012
1.92321
1.91512
1.90572
1.89488
1.88243
1.86825
1.85221
1.83423
1.81426
1.79239
1.76893
1.74417
1.82143
1.8205
1.81937
1.81792
1.81611
1.81387
1.81111
1.80776
1.80375
1.79898
1.79335
1.78679
1.77919
1.77045
1.76048
1.74918
1.73646
1.72223
1.70645
1.6891
1.67025
1.65015
1.629
1.68464
1.68374
1.68261
1.68117
1.67937
1.67716
1.67446
1.67122
1.66735
1.6628
1.65748
1.65132
1.64425
1.6362
1.6271
1.61688
1.60551
1.59292
1.57911
1.56405
1.5478
1.53059
1.51255
1.54827
1.54742
1.54633
1.54491
1.54316
1.54102
1.53843
1.53532
1.53166
1.52737
1.5224
1.51668
1.51017
1.50281
1.49457
1.48539
1.47527
1.46417
1.45209
1.43904
1.42507
1.41034
1.39496
1.41232
1.41153
1.41048
1.40912
1.40744
1.4054
1.40294
1.40003
1.3966
1.39261
1.38802
1.38278
1.37684
1.37018
1.36277
1.35458
1.34561
1.33586
1.32533
1.31405
1.30205
1.28947
1.2764
1.27676
1.27604
1.27505
1.27376
1.27218
1.27026
1.26797
1.26527
1.26211
1.25845
1.25427
1.24951
1.24416
1.2382
1.23159
1.22434
1.21645
1.20793
1.19879
1.18906
1.17879
1.16807
1.15699
1.14156
1.14092
1.13999
1.13879
1.13732
1.13555
1.13345
1.13098
1.12812
1.12482
1.12106
1.11681
1.11205
1.10676
1.10094
1.09458
1.08769
1.0803
1.07241
1.06407
1.05531
1.04622
1.03687
1.00668
1.00611
1.00526
1.00416
1.00282
1.00122
0.999329
0.997123
0.99457
0.991645
0.988321
0.98458
0.980405
0.975788
0.970724
0.965216
0.959275
0.952919
0.946172
0.939067
0.931647
0.923984
0.916133
0.872088
0.871588
0.87081
0.869817
0.868625
0.867211
0.865551
0.863621
0.861398
0.85886
0.855987
0.852762
0.849173
0.845214
0.840884
0.836187
0.831135
0.825745
0.820041
0.814053
0.807823
0.80141
0.794873
0.737731
0.737277
0.736577
0.73571
0.734683
0.733472
0.732058
0.730421
0.728543
0.726405
0.72399
0.721285
0.71828
0.71497
0.711355
0.707437
0.703227
0.69874
0.693997
0.689024
0.683858
0.67855
0.673156
0.603557
0.603114
0.602502
0.60178
0.600936
0.599945
0.598793
0.597464
0.595942
0.594214
0.592264
0.590081
0.587657
0.584987
0.582069
0.578904
0.5755
0.571866
0.568019
0.563978
0.559773
0.555444
0.55104
0.469507
0.469024
0.468524
0.467971
0.467328
0.466572
0.465695
0.464685
0.46353
0.462219
0.460739
0.45908
0.457233
0.455193
0.452957
0.450523
0.447894
0.445074
0.442073
0.438902
0.43558
0.432132
0.428586
0.335525
0.334945
0.334599
0.334241
0.333816
0.333313
0.33273
0.33206
0.331292
0.330416
0.329421
0.328298
0.327036
0.325629
0.324071
0.322356
0.320481
0.318445
0.316245
0.313883
0.31136
0.308679
0.305859
0.201571
0.20088
0.200721
0.200581
0.200406
0.200199
0.199962
0.199688
0.199365
0.198984
0.198533
0.198
0.197372
0.196639
0.195787
0.194804
0.193677
0.192391
0.190929
0.189268
0.187381
0.185232
0.182859
0.0675957
0.0669912
0.0669734
0.0670029
0.0670557
0.0671316
0.0672255
0.0673277
0.0674289
0.0675189
0.0675866
0.0676194
0.0676035
0.0675234
0.0673624
0.0671018
0.0667202
0.0661916
0.0654824
0.0645482
0.0633322
0.0617521
0.0596111
849.582
900.66
994.932
1060.05
582.017
583.803
578.193
581.6
435.616
437.784
513.972
605.632
419.965
540.405
631.172
653.446
251.493
336.964
385.413
418.785
39.6666
91.0705
147.608
210.565
7.10203
17.4689
97.4995
165.148
4.44198
5.37666
16.5181
52.9268
4.35887
4.15104
4.97286
8.40812
4.06013
3.86286
3.76204
3.91347
3.6451
3.47242
3.29122
3.09268
3.37102
3.23502
3.0948
2.93593
3.18502
3.07072
2.96807
2.86618
3.03982
2.9362
2.84399
2.76208
2.92918
2.83569
2.75156
2.67687
2.8383
2.7552
2.67973
2.6112
2.75574
2.68181
2.61416
2.5517
2.67627
2.61072
2.55037
2.49387
2.59641
2.53857
2.48516
2.4346
2.51409
2.46333
2.41644
2.3717
2.42816
2.38388
2.34302
2.30383
2.33811
2.2997
2.26433
2.23031
2.24386
2.21073
2.18029
2.15098
2.14568
2.11723
2.09115
2.06603
2.04399
2.01966
1.99736
1.97593
1.93924
1.91849
1.89948
1.88121
1.83183
1.8142
1.798
1.78245
1.72211
1.70718
1.69339
1.68016
1.61038
1.59778
1.58606
1.57481
1.49688
1.48629
1.47634
1.46678
1.38183
1.37297
1.36455
1.35644
1.26543
1.25805
1.25096
1.2441
1.14787
1.14175
1.1358
1.13004
1.02932
1.02426
1.01931
1.01449
0.909912
0.90576
0.901661
0.897668
0.789772
0.786381
0.783023
0.779749
0.668997
0.666248
0.663519
0.660866
0.547663
0.545444
0.543246
0.541111
0.425852
0.424063
0.422289
0.420562
0.303677
0.302237
0.300787
0.299283
0.181274
0.180185
0.178876
0.177006
0.0572578
0.0555406
0.0536233
0.0511576
713.578
792.723
784.556
788.761
782.561
778.96
774.94
769.937
765.985
763.588
764.692
772.545
787.306
809.396
853.228
929.787
1097.56
1345.62
1909.25
612.57
701.568
717.011
716.198
709.601
708.187
706.686
703.45
699.268
694.82
691.767
692.017
696.23
706.335
730.312
778.322
855.405
903.857
1374.08
665.471
680.279
654.538
627.881
629.216
633.701
635.192
634.216
631.454
628.127
625.524
624.737
626.925
633.328
644.752
664.177
716.801
698.185
1020.9
623.802
574.04
538.087
532.439
549.687
560.84
565.9
567.505
566.863
565.124
563.317
562.307
563.889
569.243
577.474
584.629
618.196
565.223
751.322
425.14
413.563
432.26
457.278
478.359
491.694
499.558
503.803
505.528
505.748
505.401
505.329
506.821
511.288
517.362
519.264
534.347
469.297
588.353
286.73
325.143
357.972
385.989
407.772
423.444
434.37
441.635
446.148
448.82
450.533
452.114
454.588
459.611
465.707
468.731
478.401
411.905
503.23
214.481
250.95
283.332
312.188
336.238
355.105
369.438
380.002
387.606
393.072
397.254
401.026
405.358
411.274
418.536
425.629
436.307
376.238
496.64
118.361
170.829
207.016
237.9
264.703
286.726
304.347
318.139
328.853
337.223
344.054
350.212
356.598
364.017
372.974
382.157
386.335
343.507
334.347
30.8726
87.7888
133.013
165.63
193.974
218.312
238.777
255.468
269.08
280.256
289.753
298.392
307.03
316.597
328.468
342.766
350.001
335.57
329.164
4.9595
26.6262
62.5745
95.4724
123.99
149.392
172.233
191.517
207.802
221.554
233.517
244.458
255.139
266.408
279.901
298.074
317.912
323.607
317.335
3.08861
3.64851
15.3084
32.8352
57.085
81.002
104.854
125.85
144.518
160.568
174.685
187.544
199.725
211.7
224.423
240.531
262.206
281.736
275.068
2.71448
2.85579
3.06659
5.44135
14.3359
25.3632
43.4393
61.7101
80.3082
97.1499
112.539
126.679
139.635
151.333
161.424
171.269
185.648
201.028
180.393
2.72385
2.69598
2.71513
2.91325
2.51636
4.63207
11.0791
16.7527
27.1566
38.7208
51.2728
63.8892
75.5134
85.2506
90.6535
89.6
89.0733
95.5815
62.8955
2.65428
2.59247
2.54594
2.53177
2.644
2.73059
2.18097
2.95266
7.04987
10.3782
13.3656
17.7266
22.8779
28.0122
29.2379
23.1827
22.0509
36.007
18.6718
2.57477
2.49712
2.44869
2.42762
2.4706
2.4982
2.58153
2.63382
2.21278
1.9038
2.44982
3.73313
5.11309
6.56699
6.43654
4.62849
9.26568
17.645
13.4421
2.5109
2.41806
2.36612
2.34174
2.34133
2.35137
2.4028
2.43798
2.47787
2.56935
2.57624
2.31385
2.17835
2.35103
2.83823
3.7245
6.57443
10.9782
10.372
2.4574
2.36081
2.2992
2.26342
2.2495
2.24798
2.2621
2.27759
2.31828
2.38697
2.45236
2.49813
2.56223
2.65615
2.77148
3.03824
3.51344
6.58306
6.74631
2.40717
2.31239
2.24451
2.20126
2.17736
2.16622
2.16775
2.17693
2.1937
2.23052
2.26837
2.30668
2.35373
2.41971
2.4854
2.54822
2.54994
3.89975
3.52864
2.35631
2.26658
2.19671
2.14795
2.11759
2.10064
2.09456
2.097
2.10728
2.12783
2.1522
2.17486
2.20518
2.24519
2.28756
2.32855
2.28409
2.39103
2.55683
2.30218
2.21951
2.15084
2.09944
2.06467
2.04265
2.03146
2.02902
2.03422
2.04639
2.06166
2.07758
2.09702
2.11972
2.14361
2.16744
2.22401
2.35487
2.42856
2.243
2.16846
2.1032
2.05171
2.01423
1.98915
1.97427
1.96733
1.96763
1.97379
1.98306
1.99355
2.00565
2.01901
2.03081
2.02946
2.10694
2.26999
2.31506
2.17774
2.11168
2.0513
2.0018
1.96392
1.93706
1.9194
1.90943
1.90594
1.90762
1.9125
1.91904
1.92698
1.93583
1.94265
1.93659
1.97878
2.14146
2.20209
2.10597
2.04823
1.99356
1.94741
1.91077
1.88343
1.86455
1.85293
1.84711
1.84606
1.84842
1.85312
1.85989
1.86886
1.87873
1.88715
1.92525
2.03604
2.10722
2.02776
1.97782
1.92917
1.88716
1.85291
1.82644
1.8075
1.7952
1.78842
1.78623
1.78772
1.79226
1.79984
1.81099
1.82635
1.84715
1.88988
1.96748
2.03216
1.94352
1.90063
1.85793
1.82042
1.78922
1.76454
1.74636
1.73427
1.72752
1.72527
1.72695
1.73223
1.74128
1.75471
1.77355
1.79985
1.84147
1.90342
1.9658
1.8538
1.81714
1.78006
1.74706
1.71922
1.69683
1.68004
1.66878
1.66263
1.66093
1.66331
1.66965
1.68011
1.69521
1.71572
1.74324
1.78273
1.83723
1.89932
1.75924
1.72798
1.69604
1.66735
1.64289
1.62302
1.608
1.5979
1.5926
1.59171
1.59497
1.60231
1.61388
1.62999
1.65113
1.6784
1.71555
1.76591
1.82725
1.66046
1.63382
1.60648
1.58176
1.56053
1.54318
1.53003
1.52127
1.51692
1.51686
1.52091
1.52903
1.54129
1.55785
1.57894
1.60537
1.64024
1.68726
1.74654
1.55804
1.53532
1.51204
1.49089
1.47263
1.45766
1.44633
1.4389
1.43549
1.43615
1.44079
1.44939
1.46192
1.47842
1.49898
1.52415
1.55664
1.60026
1.65615
1.45247
1.43311
1.41336
1.39536
1.37977
1.36697
1.35733
1.35114
1.34856
1.34975
1.35475
1.36348
1.3759
1.39193
1.41153
1.4351
1.46498
1.50486
1.55641
1.34422
1.32773
1.31105
1.29582
1.28259
1.27172
1.26359
1.25848
1.25658
1.25812
1.26322
1.27181
1.28376
1.29894
1.31725
1.33891
1.36591
1.40172
1.44824
1.23366
1.21967
1.20566
1.19285
1.18169
1.17253
1.16573
1.1615
1.16009
1.16184
1.16684
1.17502
1.18622
1.20026
1.21698
1.23647
1.26039
1.2919
1.33295
1.12116
1.10935
1.09768
1.08699
1.07766
1.07
1.06432
1.06077
1.05974
1.06157
1.0663
1.07387
1.08409
1.09675
1.11164
1.12877
1.14949
1.17661
1.21196
1.00699
0.99713
0.987519
0.978721
0.971017
0.964632
0.959778
0.956825
0.956149
0.957956
0.962298
0.969097
0.97817
0.989271
1.00215
1.01677
1.03425
1.05703
1.08656
0.891404
0.883298
0.875525
0.86841
0.862069
0.856719
0.852691
0.850329
0.849902
0.851589
0.855443
0.861378
0.869194
0.878613
0.889363
0.901392
0.91566
0.934238
0.958098
0.774592
0.768071
0.761935
0.756231
0.751097
0.746794
0.743573
0.741711
0.741446
0.742942
0.746245
0.751261
0.757763
0.765443
0.774008
0.783426
0.794612
0.809246
0.827864
0.656684
0.65158
0.646873
0.642484
0.638538
0.635206
0.632699
0.631251
0.631079
0.632333
0.635047
0.639118
0.644298
0.650248
0.656661
0.663548
0.671852
0.682855
0.697055
0.53776
0.533907
0.530555
0.527414
0.524535
0.522059
0.520164
0.519056
0.518926
0.519898
0.521996
0.52511
0.528989
0.533286
0.53769
0.542263
0.547964
0.555584
0.566526
0.417865
0.415134
0.413128
0.411112
0.409132
0.407353
0.405957
0.405111
0.404973
0.405633
0.407097
0.409254
0.411876
0.414653
0.417315
0.419953
0.423385
0.427668
0.436381
0.29678
0.295184
0.294705
0.293723
0.29246
0.291215
0.290185
0.289509
0.289305
0.289629
0.290456
0.29168
0.293118
0.294547
0.2958
0.296941
0.298296
0.29871
0.30603
0.173211
0.172951
0.175252
0.175549
0.174916
0.174092
0.173331
0.172752
0.17243
0.172388
0.17258
0.1729
0.173217
0.173421
0.173472
0.173335
0.172169
0.165873
0.176223
0.0461678
0.0466504
0.0549893
0.057072
0.0571946
0.0568321
0.0563307
0.0558183
0.0553447
0.0548987
0.0544258
0.0538203
0.0529918
0.051887
0.0505091
0.0486968
0.0445591
0.0252359
0.0565509
)
;

boundaryField
{
    leftWall
    {
        type            calculated;
        value           nonuniform List<scalar> 
50
(
3689.82
2883.54
2065.76
1299.3
922.3
844.478
779.913
715.488
615.462
480.622
346.139
211.454
83.887
14.6086
4.91917
4.72449
4.5869
4.45334
4.31859
4.18284
4.04601
3.90809
3.76936
3.63006
3.49039
3.35048
3.21046
3.07043
2.9305
2.79069
2.65113
2.51188
2.37297
2.23444
2.09634
1.95866
1.82143
1.68464
1.54827
1.41232
1.27676
1.14156
1.00668
0.872088
0.737731
0.603557
0.469507
0.335525
0.201571
0.0675957
)
;
    }
    rightWall
    {
        type            calculated;
        value           nonuniform List<scalar> 
50
(
3401
3149.59
2942.19
2800.38
2706.57
2624.76
2525.15
2336.3
1909.25
1374.08
1020.9
751.322
588.353
503.23
496.64
334.347
329.164
317.335
275.068
180.393
62.8955
18.6718
13.4421
10.372
6.74631
3.52864
2.55683
2.42856
2.31506
2.20209
2.10722
2.03216
1.9658
1.89932
1.82725
1.74654
1.65615
1.55641
1.44824
1.33295
1.21196
1.08656
0.958098
0.827864
0.697055
0.566526
0.436381
0.30603
0.176223
0.0565509
)
;
    }
    lowerWall
    {
        type            calculated;
        value           nonuniform List<scalar> 
62
(
4087.97
4129.35
4231.32
4383.38
4578.62
4808.16
5060.85
5322.11
5578.48
5820.94
6044.67
6248.19
6431.6
6594.57
6738.98
6865.47
6973.92
7058.98
7111.52
7120.42
7079.38
7000.21
6888.72
6490.79
5664.78
4831.11
3985.27
3130.17
2270.3
1450.17
923.067
1014.75
1055.08
1266.01
1333.46
1833.73
1774.92
1741.26
1717.89
1624.68
1185.16
792.997
678.178
1857.16
1836.26
2043.78
2348.81
2536.03
2658.36
2725.83
2695.63
2658.08
2661.2
2697.77
2789.41
2935.86
3026.42
3174.11
3068.99
2959.68
3011.46
3482.63
)
;
    }
    atmosphere
    {
        type            calculated;
        value           nonuniform List<scalar> 
46
(
0
0
0
0
0
0
0
0
0
0
0
0
0
0
0
0
0
0
0
0
0
0
0
0
0
0
0
0
-4.02099e-05
-0.000225138
-0.000500471
-0.000863176
-0.00130157
-0.00179633
-0.00233441
-0.00292186
-0.00359472
-0.00442292
-0.00550023
-0.00691972
-0.00873543
-0.0109303
-0.0134394
-0.01628
-0.0208639
-0.0114044
)
;
    }
    defaultFaces
    {
        type            empty;
    }
}


// ************************************************************************* //
