/*--------------------------------*- C++ -*----------------------------------*\
  =========                 |
  \\      /  F ield         | OpenFOAM: The Open Source CFD Toolbox
   \\    /   O peration     | Website:  https://openfoam.org
    \\  /    A nd           | Version:  13
     \\/     M anipulation  |
\*---------------------------------------------------------------------------*/
FoamFile
{
    format      ascii;
    class       volScalarField;
    location    "0.75";
    object      p_rgh;
}
// * * * * * * * * * * * * * * * * * * * * * * * * * * * * * * * * * * * * * //

dimensions      [1 -1 -2 0 0 0 0];

internalField   nonuniform List<scalar> 
2268
(
4087.97
4129.35
4231.32
4383.38
4578.62
4808.16
5060.85
5322.11
5578.48
5820.94
6044.67
6248.19
6431.6
6594.57
6738.98
6865.47
6973.92
7058.98
7111.52
7120.42
7079.38
7000.21
6888.72
4077.99
4121.25
4226.9
4385.14
4588
4824.94
5084
5349.34
5607.02
5848.13
6068.37
6266.66
6443.45
6598.43
6731.69
6845.81
6938.99
7007.77
7046.49
7049.15
7015.08
6954.96
6858.59
4056.5
4107.55
4214.71
4379.94
4593.67
4840.37
5107.92
5378.47
5637.47
5876.8
6092.81
6284.8
6453.8
6598.2
6719.67
6819.61
6897.53
6951.98
6980.63
6981.73
6956.48
6909.95
6821.81
3567.05
3628.99
3862.79
4214.82
4569.83
4833.03
5119.45
5401.88
5665.26
5904.16
6116.43
6302.51
6464.82
6599.66
6709.14
6796.38
6862.02
6905.93
6927.63
6927.27
6904.22
6857.25
6772.32
1296.71
1468.58
1708.98
2151.38
2935.77
4034.95
4943.3
5402.69
5685.44
5930.38
6140.81
6321.76
6479.06
6605.18
6703.11
6779.05
6834.89
6870.66
6885.88
6880.43
6850.3
6793.13
6713.5
1168.2
1164.52
1162.23
1162.21
1174.22
1445.75
2385.71
4101.52
5466.22
5951.25
6170
6348.1
6500.98
6618.49
6703.18
6767.32
6814.39
6843.09
6851.53
6838.24
6795.53
6727.52
6649.84
1162.49
1158.56
1154.89
1150.97
1147.24
1142.03
1136.55
1258.33
2259.44
4227
5792.04
6386.06
6549.27
6657.76
6725.88
6778.65
6819.63
6843.4
6846.13
6824.3
6734.14
6538.92
6240.39
1156.93
1152.53
1148.94
1145.05
1140.81
1133.56
1122.91
1110.43
1095.52
1155.37
1839.59
3259.68
4989.49
5869.06
5978.81
5885.98
5848.51
5809.58
5650.77
5301.71
4638.33
3894.08
3205.27
1857.16
1836.26
2043.78
2348.81
2536.03
2658.36
2725.83
2695.63
2658.08
2661.2
2697.77
2789.41
2935.86
3026.42
3174.11
3068.99
2959.68
3011.46
3482.63
1817.76
1782.48
1978.31
2333.81
2583.25
2826.28
2969.1
2913.72
2923.04
2985.67
3095.56
3238.11
3419.23
3435.46
3164.51
2941.71
2813.55
2845.5
3393.25
1808.28
1777.33
2300.36
2738.2
2689.85
2427.66
2208.45
2218.7
2333.85
2510.47
2709.99
2969.04
3414
3781.2
3224.25
2811.73
2753.3
2704.61
3788.71
1808.25
2151.43
2757.31
2641.72
2270.3
1633.24
1297.35
1269.89
1257.57
1258.24
1281.96
1348.91
1925.85
3613.25
3540.56
2759.29
2766.89
3032.46
4490.64
2004.53
2812.1
2326.55
1595.52
1332.63
1329.51
1311.42
1283.17
1268.16
1264.81
1277.17
1307.29
1349.89
2653.9
3413.38
2719.03
2810.4
4267.59
4905.69
3117.34
2851.55
1450.77
1346.39
1330.27
1318.05
1296.42
1273.51
1261.26
1260.19
1273.88
1301
1323.69
1414.63
3274.32
3808.32
4401.77
5239.69
5330.88
2688.74
1440.65
1354.16
1331.22
1312.34
1298.5
1280.33
1263.29
1254.25
1254.24
1268.68
1295.77
1322.43
1341.4
2462.72
4849.32
5615.64
5645.87
5912.42
1276.82
1336.39
1329.13
1316.72
1298.25
1275
1245.38
1216.46
1187.76
1167.33
1187.53
1246.24
1317.78
1343.3
1425.19
3176.04
4027.82
5098.62
6523.53
1148.93
1143.04
1138.75
1134.79
1130.53
1124.06
1114.37
1101.65
1086.87
1074.71
1063.95
1052.96
1085.59
1268.88
1649.69
2069.65
2303
2323.61
2208.24
2011.44
1720.29
1498.42
1373.24
1139.28
1131.08
1125.35
1120.62
1116.08
1110.76
1103.97
1095.34
1084.75
1073.71
1062.97
1053.91
1049.22
1047.39
1046.02
1045.12
1047.66
1056.62
1074.55
1104.07
1147.9
1200.43
1237.32
1129.99
1119.98
1112.89
1107.22
1102.22
1097.32
1092.19
1086.47
1079.66
1071.83
1063.48
1056.22
1050.86
1048.08
1047.64
1049.1
1053.11
1061.96
1079.17
1108.75
1154.52
1210.78
1245.75
1120.5
1108.18
1099.45
1092.76
1087.73
1083.76
1080.59
1077.74
1074.26
1069.51
1063.77
1058.98
1054.52
1051
1048.71
1047.41
1044.98
1031.83
1007.48
981.651
964.707
943.797
906.58
978.223
879.136
804.048
773.05
776.9
801.253
843.531
899.809
951.959
980.526
976.932
949.798
906.16
852.396
791.426
706.083
568.618
425.451
305.992
222.272
161.078
111.372
95.076
189.986
107.7
66.0514
52.7786
53.5354
61.9548
75.8411
84.9911
80.5098
75.2119
86.853
88.3852
73.2645
55.8399
33.1099
6.21067
6.26249
6.41345
6.4343
6.80033
9.26351
13.7569
23.1174
6.20381
6.09152
6.21435
6.19727
6.15787
6.0963
6.02995
5.99805
6.01241
6.01193
5.99255
6.00155
6.05339
6.15815
6.32787
6.3799
6.3517
6.32226
6.2703
6.2365
6.50824
7.31862
8.66912
6.13434
6.097
6.11446
6.11634
6.12216
6.12918
6.14111
6.15946
6.17746
6.19333
6.20964
6.22646
6.24485
6.27012
6.30731
6.34326
6.36542
6.3993
6.46546
6.63227
6.95915
7.29393
7.08541
6.12194
6.11396
6.122
6.12281
6.12309
6.1228
6.12102
6.11906
6.1221
6.13833
6.15621
6.17802
6.20646
6.24253
6.28421
6.32751
6.37032
6.42577
6.50553
6.64227
6.98479
7.09324
6.71617
6.11357
6.11397
6.11923
6.12107
6.1215
6.12124
6.12179
6.12569
6.13463
6.14295
6.1563
6.17556
6.20223
6.23689
6.27685
6.31866
6.3613
6.40654
6.45317
6.48974
6.6719
6.62462
6.24917
6.10401
6.10678
6.11095
6.11374
6.1158
6.11778
6.12089
6.1264
6.13475
6.14473
6.15815
6.17666
6.20153
6.2317
6.26593
6.30075
6.33235
6.356
6.36236
6.33014
6.28418
6.27393
5.88682
6.09345
6.0971
6.101
6.10423
6.10714
6.11033
6.11456
6.12055
6.12872
6.13904
6.15209
6.16922
6.19133
6.21723
6.24455
6.26939
6.28631
6.28705
6.25895
6.18365
6.03256
5.8274
5.56039
6.08181
6.08553
6.08928
6.09265
6.0959
6.09954
6.10414
6.1102
6.11804
6.12771
6.1395
6.15431
6.17265
6.19322
6.21297
6.22735
6.23
6.21179
6.16005
6.06008
5.89835
5.67638
5.43056
6.06909
6.07245
6.07592
6.07922
6.08251
6.0862
6.09071
6.0964
6.10348
6.11195
6.12186
6.13367
6.14762
6.16229
6.17445
6.17925
6.17018
6.13869
6.07418
5.96585
5.80767
5.6056
5.38846
6.05555
6.05838
6.06145
6.06447
6.06755
6.07098
6.07506
6.08002
6.08596
6.09286
6.10055
6.10908
6.11844
6.12726
6.13244
6.12927
6.11163
6.07213
6.00268
5.89629
5.75091
5.57185
5.37476
6.04145
6.04369
6.04626
6.04887
6.05156
6.05451
6.05791
6.0619
6.06649
6.07158
6.07692
6.08222
6.0872
6.09063
6.08979
6.08043
6.05708
6.01368
5.9448
5.8464
5.71729
5.56054
5.38683
6.02696
6.02864
6.03067
6.03279
6.03495
6.03729
6.03988
6.04278
6.04593
6.04916
6.05215
6.05451
6.05559
6.05437
6.04857
6.03464
6.00811
5.96456
5.90001
5.81154
5.69777
5.56174
5.41173
6.01225
6.0134
6.01489
6.01648
6.01808
6.01973
6.02146
6.02324
6.02498
6.02645
6.02728
6.02698
6.02484
6.0199
6.01037
5.99353
5.96603
5.92447
5.86536
5.7865
5.68725
5.57028
5.44186
5.99743
5.99811
5.9991
6.00015
6.00117
6.00214
6.00301
6.00374
6.00417
6.00405
6.00302
6.00052
5.99587
5.9882
5.97617
5.95775
5.93039
5.89133
5.83791
5.76844
5.68268
5.58281
5.47346
5.98259
5.98288
5.98341
5.98396
5.98443
5.98474
5.98482
5.98458
5.98385
5.98239
5.97983
5.97564
5.96918
5.95966
5.94603
5.92683
5.90016
5.86391
5.81611
5.75547
5.68184
5.59696
5.5042
5.96786
5.96777
5.96793
5.96803
5.96799
5.9677
5.96708
5.966
5.9643
5.96173
5.95795
5.95251
5.94481
5.93414
5.91967
5.90032
5.87473
5.84139
5.79885
5.74614
5.68314
5.6112
5.53273
5.95325
5.95292
5.95274
5.95245
5.95195
5.95115
5.94993
5.94815
5.94565
5.94221
5.93751
5.93117
5.92268
5.91143
5.89672
5.87773
5.85352
5.82303
5.78525
5.73947
5.68561
5.62467
5.55841
5.93888
5.93836
5.93789
5.93727
5.9364
5.93517
5.93345
5.93111
5.92799
5.92389
5.91855
5.91162
5.90269
5.89125
5.87673
5.8585
5.83587
5.80813
5.77461
5.73481
5.68868
5.63703
5.58108
5.92482
5.92414
5.92345
5.92256
5.92138
5.9198
5.91769
5.91493
5.91136
5.9068
5.90103
5.89376
5.88467
5.87334
5.85931
5.84209
5.82118
5.79608
5.76635
5.73169
5.69209
5.6482
5.60089
5.9111
5.91031
5.90945
5.90835
5.90693
5.90508
5.90268
5.89962
5.89574
5.8909
5.88489
5.8775
5.86845
5.85743
5.84408
5.82802
5.80887
5.78628
5.75996
5.72975
5.69566
5.65826
5.61816
5.89777
5.8969
5.89592
5.89466
5.89307
5.89103
5.88843
5.88516
5.88111
5.87612
5.87005
5.86269
5.85385
5.84329
5.83072
5.81588
5.79846
5.77824
5.755
5.72866
5.69927
5.66731
5.63323
5.88486
5.88395
5.88287
5.88152
5.8798
5.87763
5.87492
5.87155
5.86742
5.86242
5.8564
5.84921
5.84071
5.83069
5.81897
5.80534
5.7896
5.77156
5.75109
5.72814
5.70279
5.67542
5.64639
5.87238
5.87145
5.87033
5.86891
5.86713
5.86489
5.86213
5.85874
5.85463
5.8497
5.84384
5.83693
5.82884
5.81944
5.80859
5.79615
5.78197
5.76593
5.74795
5.72798
5.70611
5.68265
5.65788
5.86034
5.85942
5.85828
5.85683
5.85503
5.85278
5.85002
5.84668
5.84266
5.83789
5.83227
5.82571
5.8181
5.80937
5.7994
5.78809
5.77537
5.76115
5.74537
5.72802
5.70916
5.68906
5.66792
5.84874
5.84785
5.84672
5.84528
5.84348
5.84127
5.83857
5.83533
5.83146
5.82691
5.82159
5.81543
5.80836
5.8003
5.7912
5.78099
5.76962
5.75703
5.74321
5.72815
5.71191
5.6947
5.67666
5.83757
5.83673
5.83563
5.83422
5.83247
5.83032
5.82773
5.82463
5.82096
5.81667
5.8117
5.80598
5.79947
5.79212
5.78387
5.7747
5.76457
5.75347
5.74139
5.72834
5.71437
5.69964
5.68427
5.82682
5.82603
5.82498
5.82362
5.82194
5.8199
5.81744
5.81452
5.8111
5.80711
5.80252
5.79728
5.79134
5.78468
5.77727
5.76908
5.76011
5.75036
5.73983
5.72854
5.71655
5.70397
5.69089
5.81645
5.81573
5.81474
5.81345
5.81187
5.80995
5.80766
5.80496
5.8018
5.79815
5.79396
5.78921
5.78386
5.77789
5.77128
5.76403
5.75614
5.74762
5.73848
5.72875
5.71848
5.70777
5.69668
5.80644
5.8058
5.80488
5.80368
5.80221
5.80044
5.79834
5.79587
5.79301
5.78971
5.78594
5.78169
5.77693
5.77164
5.76582
5.75947
5.75258
5.74518
5.7373
5.72895
5.7202
5.71111
5.70175
5.79676
5.7962
5.79534
5.79424
5.7929
5.7913
5.78941
5.7872
5.78465
5.78173
5.7784
5.77466
5.77049
5.76587
5.76081
5.7553
5.74936
5.743
5.73625
5.72915
5.72173
5.71406
5.70621
5.78736
5.78686
5.78609
5.78509
5.7839
5.78249
5.78083
5.7789
5.77667
5.77414
5.77126
5.76804
5.76445
5.76049
5.75616
5.75146
5.74641
5.74102
5.73532
5.72933
5.7231
5.71669
5.71015
5.7782
5.77775
5.77705
5.77618
5.77515
5.77394
5.77253
5.77089
5.76901
5.76687
5.76446
5.76175
5.75875
5.75544
5.75182
5.74791
5.7437
5.73921
5.73447
5.72949
5.72433
5.71902
5.71363
5.76922
5.76878
5.76817
5.76744
5.7666
5.76561
5.76446
5.76313
5.76161
5.75988
5.75793
5.75575
5.75332
5.75065
5.74773
5.74457
5.74116
5.73753
5.73368
5.72964
5.72544
5.72111
5.7167
5.76037
5.75988
5.75938
5.75883
5.75819
5.75743
5.75655
5.75554
5.75439
5.75308
5.7516
5.74994
5.74809
5.74605
5.74382
5.74138
5.73875
5.73593
5.73293
5.72976
5.72644
5.72299
5.71945
5.75158
5.751
5.75065
5.75029
5.74987
5.74937
5.74878
5.74811
5.74735
5.74647
5.74548
5.74435
5.74309
5.74168
5.74012
5.73841
5.73654
5.7345
5.7323
5.72994
5.72741
5.72473
5.72191
5.74282
5.74213
5.74197
5.74183
5.74165
5.74145
5.74121
5.74094
5.74061
5.74023
5.73978
5.73925
5.73862
5.73789
5.73703
5.73605
5.73493
5.73364
5.73218
5.73052
5.72863
5.72648
5.72411
5.73404
5.73343
5.73342
5.73345
5.7335
5.73357
5.73367
5.73377
5.73387
5.73396
5.73403
5.73406
5.73405
5.73397
5.73381
5.73354
5.73316
5.73263
5.73193
5.73099
5.72977
5.72819
5.72605
2257.17
2216.7
3305.08
3390.13
1240.45
1242.08
1235.89
1238.31
1204.03
1184.21
1221.42
1111.63
842.635
765.289
677.037
681.645
257.445
341.805
526.231
862.501
40.8576
433.453
727.327
790.285
8.38742
66.1186
649.487
807.466
5.8519
6.78689
71.9052
486.86
5.8939
5.68607
6.50806
25.6762
5.72037
5.52308
5.42226
5.5738
5.43054
5.25784
5.07663
4.87809
5.28362
5.14571
5.00541
4.84686
5.23049
5.11098
5.00989
4.91234
5.21317
5.10865
5.01623
4.93429
5.22504
5.13371
5.04952
4.97479
5.25084
5.17015
5.09715
5.03338
5.29236
5.21849
5.15086
5.08934
5.33806
5.2725
5.21217
5.15567
5.38339
5.32555
5.27214
5.22159
5.42626
5.3755
5.32861
5.28387
5.46552
5.42124
5.38038
5.34119
5.50066
5.46225
5.42688
5.39287
5.53161
5.49848
5.46803
5.43872
5.55863
5.53018
5.50409
5.47897
5.58213
5.5578
5.5355
5.51406
5.60257
5.58182
5.56281
5.54454
5.62035
5.60273
5.58652
5.57098
5.63583
5.6209
5.60711
5.59388
5.64929
5.6367
5.62497
5.61372
5.66099
5.6504
5.64045
5.63089
5.67113
5.66227
5.65386
5.64575
5.67993
5.67254
5.66546
5.6586
5.68756
5.68144
5.6755
5.66973
5.6942
5.68915
5.68419
5.67937
5.69999
5.69584
5.69174
5.68775
5.70505
5.70166
5.6983
5.69503
5.70947
5.70672
5.70399
5.70134
5.71333
5.71111
5.70891
5.70678
5.71671
5.71492
5.71315
5.71142
5.71973
5.71829
5.71684
5.71534
5.72252
5.72143
5.72012
5.71825
5.7237
5.72198
5.72007
5.7176
1684.85
1323.46
1276.89
1257.22
1180.13
1129.16
1097.25
1074.14
1053.87
1043.69
1051.22
1084.29
1171.99
1294.47
1388.79
1518.86
1722.71
4118.87
6956.17
1220.58
1071.46
946.242
991.969
1017.61
1027.54
1034.45
1032.17
1028.41
1024.11
1021.09
1021.33
1025.55
1066.38
1199.47
1387.38
1439.78
2160.92
7617.43
852.993
781.325
828.072
1000.08
1019.86
1023.97
1027.12
1026.15
1023.39
1020.06
1017.46
1016.67
1018.85
1025.26
1037.03
1088.76
1127.64
1537.89
8136.03
664.055
873.238
992.613
986.965
1004.21
1015.37
1020.43
1022.03
1021.39
1019.65
1017.84
1016.83
1018.41
1022.47
1024.51
1048.19
1079.18
1288.38
5430.23
941.656
930.686
949.383
974.401
995.481
1008.82
1016.68
1020.93
1022.65
1022.87
1022.52
1022.45
1023.94
1028.46
1018.04
989.192
1047.82
1195.75
5927.9
866.45
904.863
937.692
965.709
987.492
1003.16
1014.09
1021.35
1025.87
1028.54
1030.25
1031.83
1034.32
1039.4
1047.5
961.327
802.364
910.843
6258.76
856.798
893.267
925.649
954.505
978.555
997.422
1011.76
1022.32
1029.92
1035.39
1039.57
1043.34
1047.68
1053.59
1060.85
1046.11
870.903
777.098
4321.59
783.215
875.743
911.93
942.814
969.618
991.61
1009.2
1023.01
1033.76
1042.14
1048.97
1055.13
1061.51
1068.93
1077.89
1087.07
1077.18
785.16
484.756
420.615
854.478
900.524
933.142
961.485
985.75
1006.18
1022.87
1036.56
1047.77
1057.27
1065.9
1074.54
1084.11
1095.98
1110.28
1066.3
615.376
410.505
23.553
456.343
856.896
925.581
954.099
979.484
1002.25
1021.52
1037.9
1051.66
1063.63
1074.57
1085.25
1096.51
1110.01
1128.18
1116.4
761.2
525.831
4.87405
5.43398
302.785
766.103
945.469
973.708
997.56
1018.56
1037.22
1053.27
1067.39
1080.25
1092.43
1104.41
1117.13
1133.23
1154.91
1174.44
1163.18
4.62615
4.76648
4.97723
51.6606
471.978
828.44
991.948
1017.01
1035.61
1052.45
1067.84
1081.98
1094.94
1106.64
1116.73
1126.57
1140.95
1156.33
1135.7
4.76873
4.7324
4.75095
4.94909
4.55219
83.2508
493.3
832.654
1002.06
1056.11
1069.17
1081.79
1093.41
1103.15
1108.55
1107.5
1104.87
1075.32
984.672
4.82637
4.75763
4.70697
4.69283
4.80509
4.8917
4.34208
46.2156
331.691
611.458
830.116
949.365
1017.02
1042.65
1021.49
844.268
576.555
367.408
180.881
4.87263
4.78713
4.73495
4.71387
4.75689
4.78457
4.86797
4.92014
4.4991
4.19012
40.3294
146.876
233.763
271.409
203.685
45.3919
13.6315
32.5286
35.9002
4.93392
4.83141
4.77758
4.75317
4.75275
4.76307
4.816
4.85121
4.88978
4.98091
4.98779
4.72539
4.58992
4.76263
5.24983
6.1361
12.761
73.2081
34.1345
4.99514
4.8976
4.83584
4.80003
4.78611
4.7846
4.80044
4.81999
4.86083
4.92516
4.98915
5.03493
5.10063
5.19646
5.30906
5.57505
19.8319
104.287
35.2485
5.06899
4.97422
4.90632
4.86305
4.83916
4.82802
4.82955
4.8422
4.86228
4.89912
4.93216
4.96869
5.02082
5.09646
5.15911
5.21023
7.59319
78.696
24.8525
5.14331
5.05358
4.98371
4.93494
4.90458
4.88763
4.88155
4.884
4.8979
4.92192
4.94629
4.9624
4.99406
5.0456
5.08854
5.11732
7.67869
5.20991
5.3518
5.21436
5.13169
5.06302
5.01162
4.97685
4.95483
4.94364
4.94121
4.94641
4.96164
4.9805
4.99192
5.00924
5.03192
5.05964
5.07962
10.5722
5.52381
5.3491
5.28037
5.20582
5.14056
5.08908
5.05159
5.02652
5.01165
5.00471
5.00501
5.01117
5.02048
5.03215
5.04327
5.0564
5.06819
5.06683
10.7402
6.36995
5.36113
5.34029
5.27423
5.21386
5.16436
5.12648
5.09962
5.08197
5.072
5.06852
5.0702
5.07508
5.08163
5.08963
5.09845
5.10523
5.09916
6.22027
6.1694
5.37559
5.39372
5.33598
5.28131
5.23515
5.19852
5.17118
5.1523
5.14068
5.13486
5.13383
5.13622
5.14092
5.14768
5.15665
5.16651
5.17492
5.21302
5.32381
5.40784
5.44071
5.39076
5.34211
5.3001
5.26585
5.23939
5.22045
5.20815
5.20137
5.19918
5.20069
5.20524
5.21281
5.22397
5.23932
5.26012
5.30284
5.38045
5.44631
5.48165
5.43877
5.39607
5.35855
5.32736
5.30267
5.2845
5.27241
5.26566
5.26342
5.26509
5.27038
5.27943
5.29287
5.31171
5.33801
5.37963
5.44158
5.504
5.51713
5.48047
5.44339
5.41039
5.38255
5.36016
5.34337
5.33211
5.32596
5.32427
5.32665
5.33299
5.34346
5.35856
5.37908
5.4066
5.44608
5.50059
5.56269
5.54776
5.5165
5.48457
5.45588
5.43142
5.41155
5.39652
5.38643
5.38112
5.38024
5.3835
5.39085
5.40242
5.41853
5.43967
5.46694
5.5041
5.55447
5.61726
5.57418
5.54753
5.5202
5.49548
5.47425
5.4569
5.44375
5.43499
5.43064
5.43058
5.43464
5.44276
5.45502
5.47158
5.49268
5.51911
5.55399
5.60108
5.66501
5.59695
5.57423
5.55095
5.5298
5.51154
5.49657
5.48525
5.47782
5.47441
5.47507
5.47971
5.48831
5.50084
5.51735
5.53792
5.56309
5.59558
5.64101
5.69997
5.61658
5.59722
5.57747
5.55947
5.54388
5.53108
5.52145
5.51525
5.51267
5.51387
5.51886
5.5276
5.54002
5.55605
5.57566
5.59923
5.62911
5.6738
5.72558
5.63352
5.61703
5.60035
5.58513
5.57189
5.56103
5.5529
5.54778
5.54588
5.54743
5.55253
5.56112
5.57308
5.58827
5.60658
5.62824
5.65524
5.69618
5.74266
5.64816
5.63416
5.62016
5.60735
5.59619
5.58703
5.58023
5.576
5.5746
5.57635
5.58135
5.58953
5.60074
5.61479
5.6315
5.651
5.67493
5.71047
5.7479
5.66085
5.64904
5.63737
5.62669
5.61736
5.60969
5.60401
5.60047
5.59944
5.60127
5.60602
5.61358
5.62381
5.63648
5.65137
5.6685
5.68948
5.71647
5.75168
5.67188
5.66202
5.65241
5.64361
5.6359
5.62952
5.62467
5.62172
5.62105
5.62286
5.62721
5.63402
5.6431
5.65422
5.66712
5.68174
5.69946
5.72195
5.75147
5.68148
5.67338
5.66561
5.65849
5.65215
5.6468
5.64277
5.64041
5.63999
5.64169
5.64555
5.65149
5.65932
5.66887
5.67983
5.69186
5.70588
5.72435
5.74819
5.68987
5.68335
5.67721
5.67151
5.66637
5.66207
5.65885
5.65699
5.65673
5.65823
5.66154
5.66656
5.67311
5.68103
5.68969
5.69911
5.71016
5.72457
5.74315
5.69715
5.69205
5.68734
5.68295
5.67901
5.67568
5.67317
5.67172
5.67156
5.67282
5.67554
5.67962
5.68487
5.69085
5.6974
5.70444
5.7126
5.7234
5.73753
5.70342
5.69957
5.69622
5.69308
5.6902
5.68772
5.68583
5.68472
5.68459
5.68557
5.68768
5.69081
5.69472
5.69901
5.70342
5.70804
5.71367
5.72126
5.73219
5.70872
5.70599
5.70399
5.70197
5.69999
5.69821
5.69682
5.69597
5.69583
5.6965
5.69797
5.70013
5.70276
5.70554
5.70821
5.71082
5.71425
5.71853
5.72724
5.71283
5.71124
5.71076
5.70978
5.70851
5.70727
5.70624
5.70556
5.70536
5.70569
5.70652
5.70774
5.70918
5.71062
5.71187
5.713
5.71435
5.71476
5.72208
5.71446
5.7142
5.7165
5.7168
5.71616
5.71534
5.71458
5.714
5.71368
5.71364
5.71383
5.71415
5.71447
5.71467
5.71472
5.71458
5.71342
5.70712
5.71747
5.71261
5.71309
5.72143
5.72351
5.72364
5.72327
5.72277
5.72226
5.72179
5.72134
5.72087
5.72026
5.71944
5.71833
5.71695
5.71514
5.711
5.69168
5.72299
)
;

boundaryField
{
    leftWall
    {
        type            fixedFluxPressure;
        gradient        uniform 0;
        value           nonuniform List<scalar> 
50
(
4087.97
4077.99
4056.5
3567.05
1296.71
1168.2
1162.49
1156.93
1148.93
1139.28
1129.99
1120.5
978.223
189.986
6.20381
6.13434
6.12194
6.11357
6.10401
6.09345
6.08181
6.06909
6.05555
6.04145
6.02696
6.01225
5.99743
5.98259
5.96786
5.95325
5.93888
5.92482
5.9111
5.89777
5.88486
5.87238
5.86034
5.84874
5.83757
5.82682
5.81645
5.80644
5.79676
5.78736
5.7782
5.76922
5.76037
5.75158
5.74282
5.73404
)
;
    }
    rightWall
    {
        type            fixedFluxPressure;
        gradient        uniform 0;
        value           nonuniform List<scalar> 
50
(
3482.63
3393.25
3788.71
4490.64
4905.69
5330.88
5912.42
6523.53
6956.17
7617.43
8136.03
5430.23
5927.9
6258.76
4321.59
484.756
410.505
525.831
1163.18
1135.7
984.672
180.881
35.9002
34.1345
35.2485
24.8525
5.3518
5.3491
5.36113
5.37559
5.40784
5.44631
5.504
5.56269
5.61726
5.66501
5.69997
5.72558
5.74266
5.7479
5.75168
5.75147
5.74819
5.74315
5.73753
5.73219
5.72724
5.72208
5.71747
5.72299
)
;
    }
    lowerWall
    {
        type            fixedFluxPressure;
        gradient        uniform 0;
        value           nonuniform List<scalar> 
62
(
4087.97
4129.35
4231.32
4383.38
4578.62
4808.16
5060.85
5322.11
5578.48
5820.94
6044.67
6248.19
6431.6
6594.57
6738.98
6865.47
6973.92
7058.98
7111.52
7120.42
7079.38
7000.21
6888.72
6888.72
6858.59
6821.81
6772.32
6713.5
6649.84
6240.39
3205.27
2257.17
2216.7
3305.08
3390.13
1857.16
1817.76
1808.28
1808.25
2004.53
3117.34
2688.74
1276.82
1857.16
1836.26
2043.78
2348.81
2536.03
2658.36
2725.83
2695.63
2658.08
2661.2
2697.77
2789.41
2935.86
3026.42
3174.11
3068.99
2959.68
3011.46
3482.63
)
;
    }
    atmosphere
    {
        type            prghTotalPressure;
        rho             rho;
        psi             none;
        gamma           1;
        p0              uniform 0;
        value           nonuniform List<scalar> 
46
(
5.72904
5.72904
5.72904
5.72904
5.72904
5.72904
5.72904
5.72904
5.72904
5.72904
5.72904
5.72904
5.72904
5.72904
5.72904
5.72904
5.72904
5.72904
5.72904
5.72904
5.72904
5.72904
5.72904
5.72904
5.72904
5.72904
5.72904
5.72904
5.729
5.72881
5.72854
5.72818
5.72774
5.72724
5.72671
5.72612
5.72545
5.72462
5.72354
5.72212
5.7203
5.71811
5.7156
5.71276
5.70818
5.71764
)
;
        rho             rho;
    }
    defaultFaces
    {
        type            empty;
    }
}


// ************************************************************************* //
