/*--------------------------------*- C++ -*----------------------------------*\
  =========                 |
  \\      /  F ield         | OpenFOAM: The Open Source CFD Toolbox
   \\    /   O peration     | Website:  https://openfoam.org
    \\  /    A nd           | Version:  13
     \\/     M anipulation  |
\*---------------------------------------------------------------------------*/
FoamFile
{
    format      ascii;
    class       surfaceScalarField;
    location    "0.75";
    object      phi;
}
// * * * * * * * * * * * * * * * * * * * * * * * * * * * * * * * * * * * * * //

dimensions      [0 3 -1 0 0 0 0];

internalField   nonuniform List<scalar> 
4432
(
-2.51578e-06
2.51578e-06
-2.7597e-06
2.43928e-07
-3.25138e-06
4.91677e-07
-4.30009e-06
1.0487e-06
-5.81697e-06
1.51688e-06
-7.71112e-06
1.89415e-06
-9.8325e-06
2.12138e-06
-1.19885e-05
2.15605e-06
-1.40094e-05
2.02082e-06
-1.57723e-05
1.76297e-06
-1.72004e-05
1.42806e-06
-1.82461e-05
1.04573e-06
-1.88661e-05
6.20005e-07
-1.90458e-05
1.79619e-07
-1.8768e-05
-2.77719e-07
-1.79521e-05
-8.15904e-07
-1.6509e-05
-1.44313e-06
-1.44087e-05
-2.10033e-06
-1.16972e-05
-2.71143e-06
-8.49408e-06
-3.20316e-06
-5.07558e-06
-3.41851e-06
-2.11928e-06
-2.9563e-06
-2.11928e-06
-1.00424e-06
3.52001e-06
-1.75373e-06
9.93425e-07
-2.96655e-06
1.70449e-06
-4.54883e-06
2.63099e-06
-6.49754e-06
3.46559e-06
-8.74545e-06
4.14206e-06
-1.11275e-05
4.50344e-06
-1.34344e-05
4.46294e-06
-1.54852e-05
4.07159e-06
-1.71544e-05
3.43215e-06
-1.83721e-05
2.64582e-06
-1.91012e-05
1.77484e-06
-1.93146e-05
8.33345e-07
-1.90244e-05
-1.10531e-07
-1.82689e-05
-1.03319e-06
-1.70484e-05
-2.03644e-06
-1.53653e-05
-3.12621e-06
-1.3266e-05
-4.19963e-06
-1.08378e-05
-5.13965e-06
-8.20024e-06
-5.84071e-06
-5.49664e-06
-6.12211e-06
-2.78094e-06
-5.672e-06
-4.90022e-06
-1.47415e-08
3.53475e-06
-1.38427e-06
2.36296e-06
-3.07816e-06
3.39838e-06
-5.0197e-06
4.57253e-06
-7.23331e-06
5.6792e-06
-9.66981e-06
6.57856e-06
-1.21379e-05
6.97148e-06
-1.44226e-05
6.74769e-06
-1.63534e-05
6.00237e-06
-1.78167e-05
4.8955e-06
-1.87614e-05
3.59052e-06
-1.91717e-05
2.18515e-06
-1.90389e-05
7.00503e-07
-1.84185e-05
-7.30971e-07
-1.73823e-05
-2.06939e-06
-1.59675e-05
-3.45124e-06
-1.42098e-05
-4.88386e-06
-1.21782e-05
-6.23123e-06
-9.96673e-06
-7.35113e-06
-7.67591e-06
-8.13153e-06
-5.37942e-06
-8.41861e-06
-2.96814e-06
-8.08328e-06
-7.86835e-06
2.84125e-07
3.25063e-06
-1.49382e-06
4.1409e-06
-3.40319e-06
5.30775e-06
-5.55973e-06
6.72907e-06
-8.00482e-06
8.12428e-06
-1.05445e-05
9.11824e-06
-1.3e-05
9.42697e-06
-1.51741e-05
8.92184e-06
-1.69155e-05
7.74378e-06
-1.81264e-05
6.10637e-06
-1.87861e-05
4.25022e-06
-1.89028e-05
2.30189e-06
-1.84818e-05
2.79492e-07
-1.76132e-05
-1.59958e-06
-1.63946e-05
-3.28798e-06
-1.4872e-05
-4.97394e-06
-1.30897e-05
-6.6661e-06
-1.11225e-05
-8.19845e-06
-9.05712e-06
-9.4165e-06
-6.9697e-06
-1.02189e-05
-4.88974e-06
-1.04986e-05
-2.64874e-06
-1.03243e-05
-1.05171e-05
-5.7744e-07
3.82807e-06
-2.08608e-06
5.64954e-06
-4.04457e-06
7.26624e-06
-6.29845e-06
8.98295e-06
-8.80218e-06
1.0628e-05
-1.12889e-05
1.1605e-05
-1.3677e-05
1.18151e-05
-1.56885e-05
1.09334e-05
-1.71804e-05
9.23568e-06
-1.81235e-05
7.04946e-06
-1.8514e-05
4.6407e-06
-1.83792e-05
2.16714e-06
-1.77304e-05
-3.69359e-07
-1.66867e-05
-2.64324e-06
-1.53557e-05
-4.61896e-06
-1.37782e-05
-6.55149e-06
-1.19985e-05
-8.44584e-06
-1.00913e-05
-1.01057e-05
-8.13255e-06
-1.13752e-05
-6.17773e-06
-1.21738e-05
-4.23491e-06
-1.24414e-05
-2.11325e-06
-1.24459e-05
-1.26304e-05
1.46724e-07
3.68134e-06
-1.55657e-06
7.35283e-06
-3.66102e-06
9.37069e-06
-6.10202e-06
1.1424e-05
-8.94272e-06
1.34687e-05
-1.18186e-05
1.44809e-05
-1.41281e-05
1.41246e-05
-1.58594e-05
1.26646e-05
-1.71188e-05
1.04951e-05
-1.78061e-05
7.73669e-06
-1.79526e-05
4.78721e-06
-1.76258e-05
1.84034e-06
-1.68287e-05
-1.1664e-06
-1.56847e-05
-3.78724e-06
-1.43057e-05
-5.99794e-06
-1.27168e-05
-8.1404e-06
-1.09639e-05
-1.01988e-05
-9.12441e-06
-1.19451e-05
-7.26588e-06
-1.32337e-05
-5.43079e-06
-1.40089e-05
-3.62832e-06
-1.42439e-05
-1.65628e-06
-1.4418e-05
-1.42866e-05
-4.44617e-07
4.12596e-06
-1.77414e-06
8.68235e-06
-3.57216e-06
1.11687e-05
-5.57989e-06
1.34317e-05
-7.79278e-06
1.56816e-05
-1.03346e-05
1.70227e-05
-1.29747e-05
1.67647e-05
-1.53764e-05
1.50664e-05
-1.66541e-05
1.17728e-05
-1.70992e-05
8.18179e-06
-1.71113e-05
4.79928e-06
-1.66846e-05
1.41368e-06
-1.58099e-05
-2.04111e-06
-1.46539e-05
-4.94324e-06
-1.32923e-05
-7.35954e-06
-1.1728e-05
-9.70473e-06
-1.00247e-05
-1.19021e-05
-8.27332e-06
-1.36965e-05
-6.53768e-06
-1.49694e-05
-4.85277e-06
-1.56938e-05
-3.25183e-06
-1.58448e-05
-1.59252e-06
-1.60773e-05
-1.58791e-05
-1.15583e-06
5.28179e-06
-2.51096e-06
1.00375e-05
-4.13485e-06
1.27926e-05
-5.77833e-06
1.50752e-05
-7.35717e-06
1.72604e-05
-9.01457e-06
1.86801e-05
-1.08868e-05
1.86369e-05
-1.28855e-05
1.70651e-05
-1.46433e-05
1.35306e-05
-1.57806e-05
9.31907e-06
-1.59484e-05
4.96705e-06
-1.54628e-05
9.28124e-07
-1.46519e-05
-2.85205e-06
-1.36273e-05
-5.9678e-06
-1.23369e-05
-8.64995e-06
-1.08071e-05
-1.12345e-05
-9.16874e-06
-1.35404e-05
-7.53619e-06
-1.5329e-05
-5.96876e-06
-1.65368e-05
-4.50311e-06
-1.71594e-05
-3.22269e-06
-1.71252e-05
-2.24603e-06
-1.7054e-05
-1.81252e-05
-3.32432e-05
3.32432e-05
-3.02271e-05
-3.01609e-06
-8.40434e-06
-2.18228e-05
1.64046e-05
-2.4809e-05
3.22635e-05
-1.58588e-05
4.06199e-05
-8.35643e-06
4.4732e-05
-4.11214e-06
4.68974e-05
-2.16542e-06
4.82435e-05
-1.3461e-06
4.8847e-05
-6.03496e-07
4.86319e-05
2.15131e-07
4.80587e-05
5.73225e-07
4.741e-05
6.48645e-07
4.14097e-05
6.00037e-06
1.36767e-05
2.7733e-05
-2.54563e-05
3.9133e-05
-3.36189e-05
8.16253e-06
-3.0705e-05
-2.91389e-06
-3.0705e-05
-1.0764e-05
4.40073e-05
5.51608e-06
-1.92962e-05
2.18399e-05
-3.81466e-05
3.11828e-05
-3.41518e-05
3.72414e-05
-2.19175e-05
4.10536e-05
-1.21686e-05
4.37238e-05
-6.7824e-06
4.58399e-05
-4.28153e-06
4.7402e-05
-2.90813e-06
4.8332e-05
-1.53356e-06
4.85384e-05
8.80927e-09
4.79589e-05
1.15268e-06
4.64363e-05
2.17124e-06
4.21287e-05
1.0308e-05
3.46515e-05
3.52102e-05
7.69365e-06
6.60909e-05
-1.36796e-05
2.95358e-05
-1.56961e-05
-8.9736e-07
-4.64011e-05
7.00231e-06
3.7005e-05
2.44542e-05
-3.67481e-05
2.96989e-05
-4.33913e-05
3.31207e-05
-3.75737e-05
3.67888e-05
-2.55855e-05
3.97782e-05
-1.5158e-05
4.22801e-05
-9.28436e-06
4.44929e-05
-6.49431e-06
4.61199e-05
-4.53513e-06
4.70762e-05
-2.48986e-06
4.70773e-05
7.75913e-09
4.57116e-05
2.51832e-06
4.32997e-05
4.58315e-06
3.93125e-05
1.42952e-05
3.48452e-05
3.96774e-05
2.74013e-05
7.35348e-05
8.8741e-06
4.8063e-05
4.12317e-07
7.56443e-06
-4.59888e-05
2.40728e-05
1.29322e-05
2.96576e-05
-4.23329e-05
3.08927e-05
-4.46264e-05
3.22192e-05
-3.89002e-05
3.43699e-05
-2.77362e-05
3.70439e-05
-1.78319e-05
3.97211e-05
-1.19616e-05
4.2039e-05
-8.81217e-06
4.37248e-05
-6.2209e-06
4.46449e-05
-3.40997e-06
4.43833e-05
2.69295e-07
4.20519e-05
4.8497e-06
3.85184e-05
8.11671e-06
3.45588e-05
1.82548e-05
2.68413e-05
4.73949e-05
2.58603e-05
7.45159e-05
1.87861e-05
5.51372e-05
1.26156e-05
1.37349e-05
-3.33732e-05
2.95734e-05
-1.66412e-05
2.96252e-05
-4.23847e-05
2.94716e-05
-4.44728e-05
2.95264e-05
-3.8955e-05
3.03278e-05
-2.85376e-05
3.19009e-05
-1.9405e-05
3.39078e-05
-1.39685e-05
3.58573e-05
-1.07617e-05
3.74107e-05
-7.7743e-06
3.82804e-05
-4.27964e-06
3.82052e-05
3.44515e-07
3.68403e-05
6.21455e-06
3.33401e-05
1.1617e-05
2.93176e-05
2.22773e-05
2.28754e-05
5.38371e-05
2.29317e-05
7.44596e-05
2.19271e-05
5.61418e-05
1.677e-05
1.88921e-05
-1.66032e-05
2.43507e-05
-4.09919e-05
2.60793e-05
-4.41134e-05
2.50132e-05
-4.34066e-05
2.40335e-05
-3.79752e-05
2.45051e-05
-2.90093e-05
2.6155e-05
-2.10549e-05
2.82006e-05
-1.60142e-05
3.01775e-05
-1.27385e-05
3.18008e-05
-9.39762e-06
3.28122e-05
-5.29099e-06
3.30409e-05
1.15782e-07
3.22228e-05
7.03263e-06
2.94289e-05
1.44108e-05
2.46415e-05
2.70647e-05
2.28154e-05
5.56631e-05
2.41491e-05
7.31259e-05
2.31622e-05
5.71287e-05
1.70635e-05
2.49908e-05
4.60279e-07
1.71689e-05
-5.81607e-05
1.86803e-05
-4.56249e-05
1.78926e-05
-4.2619e-05
1.76531e-05
-3.77357e-05
1.85696e-05
-2.99259e-05
2.04275e-05
-2.29128e-05
2.26516e-05
-1.82382e-05
2.48193e-05
-1.49062e-05
2.66598e-05
-1.12382e-05
2.79075e-05
-6.53866e-06
2.84059e-05
-3.82613e-07
2.79944e-05
7.44411e-06
2.58485e-05
1.65568e-05
2.24272e-05
3.04859e-05
2.19867e-05
5.61036e-05
2.38201e-05
7.12926e-05
2.19759e-05
5.89729e-05
1.50169e-05
3.19498e-05
1.54772e-05
8.3228e-06
-6.64835e-05
1.02943e-05
-4.75963e-05
1.07528e-05
-4.30775e-05
1.1318e-05
-3.83009e-05
1.26104e-05
-3.12182e-05
1.46602e-05
-2.49626e-05
1.70591e-05
-2.06371e-05
1.94179e-05
-1.7265e-05
2.14937e-05
-1.3314e-05
2.30493e-05
-8.09428e-06
2.38963e-05
-1.22959e-06
2.38646e-05
7.47583e-06
2.24807e-05
1.79406e-05
2.02174e-05
3.27492e-05
2.02794e-05
5.60417e-05
2.18086e-05
6.97634e-05
1.84514e-05
6.233e-05
1.09821e-05
3.94192e-05
2.64593e-05
-4.42702e-06
9.70881e-06
-8.12856e-06
1.3739e-05
-1.14364e-05
1.61004e-05
-1.42231e-05
1.78619e-05
-1.62925e-05
1.93298e-05
-1.78187e-05
2.02062e-05
-1.91954e-05
2.00136e-05
-2.06387e-05
1.85084e-05
-2.26092e-05
1.5501e-05
-2.47553e-05
1.14652e-05
-2.64843e-05
6.69607e-06
-2.72134e-05
1.65719e-06
-2.69458e-05
-3.11961e-06
-2.5462e-05
-7.45165e-06
-2.28572e-05
-1.12547e-05
-1.97279e-05
-1.43639e-05
-1.65792e-05
-1.66891e-05
-1.36294e-05
-1.82789e-05
-1.09913e-05
-1.9175e-05
-8.90097e-06
-1.92497e-05
-7.96833e-06
-1.80579e-05
-8.80685e-06
-1.62154e-05
-1.5179e-05
-1.1753e-05
-6.10836e-06
1.58172e-05
-1.06723e-05
1.8303e-05
-1.42039e-05
1.9632e-05
-1.67624e-05
2.04204e-05
-1.82788e-05
2.08462e-05
-1.88331e-05
2.07606e-05
-1.86657e-05
1.98462e-05
-1.80488e-05
1.78915e-05
-1.73669e-05
1.48191e-05
-1.67199e-05
1.08182e-05
-1.6107e-05
6.08321e-06
-1.54579e-05
1.00805e-06
-1.45394e-05
-4.03814e-06
-1.32608e-05
-8.73018e-06
-1.17392e-05
-1.27764e-05
-1.00509e-05
-1.60521e-05
-8.28133e-06
-1.84586e-05
-6.68006e-06
-1.98801e-05
-5.6732e-06
-2.01818e-05
-5.7401e-06
-1.91828e-05
-6.9142e-06
-1.68838e-05
-8.77258e-06
-1.43571e-05
-1.33978e-05
-1.05538e-05
-6.74267e-06
2.25598e-05
-1.19443e-05
2.35046e-05
-1.57829e-05
2.34705e-05
-1.83796e-05
2.30172e-05
-1.97106e-05
2.21772e-05
-1.98245e-05
2.08745e-05
-1.8865e-05
1.88866e-05
-1.70668e-05
1.60933e-05
-1.47782e-05
1.25305e-05
-1.22868e-05
8.32685e-06
-9.81128e-06
3.60772e-06
-7.37376e-06
-1.42947e-06
-5.05479e-06
-6.3571e-06
-2.77353e-06
-1.10115e-05
-5.23063e-07
-1.50268e-05
1.5605e-06
-1.81357e-05
3.17466e-06
-2.00728e-05
3.83602e-06
-2.05415e-05
2.8766e-06
-1.92224e-05
-3.9883e-07
-1.59074e-05
-6.21005e-06
-1.10726e-05
-1.42821e-05
-6.28501e-06
-4.02979e-06
-2.36501e-05
-6.30586e-06
2.88657e-05
-1.18046e-05
2.90034e-05
-1.60177e-05
2.76836e-05
-1.88078e-05
2.58073e-05
-2.00715e-05
2.34408e-05
-1.98789e-05
2.06819e-05
-1.83712e-05
1.73789e-05
-1.58023e-05
1.35244e-05
-1.25561e-05
9.2843e-06
-9.0069e-06
4.77768e-06
-5.37751e-06
-2.1667e-08
-1.84616e-06
-4.96082e-06
1.44128e-06
-9.64455e-06
4.42089e-06
-1.39911e-05
7.08879e-06
-1.76947e-05
9.28101e-06
-2.03279e-05
1.05653e-05
-2.13571e-05
1.02111e-05
-2.01873e-05
7.22545e-06
-1.62367e-05
3.35191e-07
-9.01713e-06
-1.11208e-05
3.83412e-07
-3.13458e-05
1.394e-05
2.55664e-05
-6.0942e-05
-5.21513e-06
3.40808e-05
-1.04247e-05
3.42129e-05
-1.49699e-05
3.22289e-05
-1.79762e-05
2.88136e-05
-1.90899e-05
2.45545e-05
-1.84487e-05
2.00406e-05
-1.63177e-05
1.5248e-05
-1.3151e-05
1.03576e-05
-9.41717e-06
5.55052e-06
-5.69503e-06
1.05554e-06
-1.603e-06
-4.1137e-06
2.33563e-06
-8.89944e-06
5.89897e-06
-1.32079e-05
9.01304e-06
-1.71051e-05
1.16178e-05
-2.02995e-05
1.34286e-05
-2.21388e-05
1.39446e-05
-2.18731e-05
1.20055e-05
-1.82482e-05
6.09792e-06
-1.03292e-05
-4.83258e-06
1.91337e-06
-2.28418e-05
1.83927e-05
-5.75548e-05
4.86531e-05
0.000173192
-0.000205181
-3.13898e-06
3.72199e-05
-7.13552e-06
3.82094e-05
-1.20513e-05
3.71447e-05
-1.52193e-05
3.19816e-05
-1.61284e-05
2.54636e-05
-1.50717e-05
1.89839e-05
-1.24285e-05
1.26048e-05
-8.82397e-06
6.75312e-06
-5.08046e-06
1.80701e-06
-1.19167e-06
-2.83325e-06
2.782e-06
-8.08736e-06
6.53979e-06
-1.26572e-05
9.73511e-06
-1.64032e-05
1.23145e-05
-1.96845e-05
1.43359e-05
-2.23209e-05
1.40442e-05
-2.18471e-05
1.20708e-05
-1.98997e-05
6.75341e-06
-1.29307e-05
-3.99107e-06
4.15323e-07
-2.73794e-05
2.53018e-05
-8.49908e-05
7.60044e-05
-0.00018447
0.000148132
0.000251354
-0.000262631
-9.87011e-06
4.70901e-05
-7.65672e-06
3.59961e-05
-7.93812e-06
3.74262e-05
-9.00287e-06
3.30464e-05
-9.38345e-06
2.58443e-05
-8.66851e-06
1.8269e-05
-6.82248e-06
1.07588e-05
-4.10535e-06
4.03602e-06
-5.29948e-07
-1.76836e-06
3.26237e-06
-6.62555e-06
6.7085e-06
-1.15335e-05
9.684e-06
-1.56327e-05
1.16874e-05
-1.84066e-05
1.10872e-05
-1.90843e-05
5.37509e-06
-1.66087e-05
-5.24654e-06
-1.12255e-05
-2.16322e-05
-3.51406e-06
-4.51001e-05
1.05371e-05
-7.92672e-05
3.45825e-05
-0.000129593
7.56274e-05
-0.000190409
0.00013682
-0.00024658
0.000204305
0.000229628
-0.000224854
-3.18954e-07
4.74092e-05
-1.63255e-06
3.73099e-05
-2.30023e-06
3.8094e-05
-2.47373e-06
3.322e-05
-2.90213e-06
2.62728e-05
-3.51889e-06
1.88859e-05
-4.02716e-06
1.12672e-05
-3.88059e-06
3.88952e-06
-3.41914e-06
-2.22975e-06
-3.06215e-06
-6.9825e-06
-3.06646e-06
-1.15291e-05
-3.98117e-06
-1.4718e-05
-6.64885e-06
-1.5739e-05
-1.22396e-05
-1.34935e-05
-2.20828e-05
-6.76553e-06
-3.76874e-05
4.37904e-06
-6.08394e-05
1.96379e-05
-9.16884e-05
4.13861e-05
-0.000129851
7.27456e-05
-0.000171087
0.000116863
-0.000204535
0.000170269
-0.000214294
0.000214064
0.000206187
-0.000190853
3.38892e-06
4.40204e-05
2.81676e-06
3.78821e-05
4.03805e-06
3.68728e-05
4.91524e-06
3.23429e-05
4.918e-06
2.62701e-05
4.24353e-06
1.95604e-05
2.85199e-06
1.26588e-05
5.80429e-07
6.16114e-06
-2.4582e-06
8.08936e-07
-5.23346e-06
-4.2072e-06
-8.80764e-06
-7.95491e-06
-1.36617e-05
-9.86394e-06
-2.03972e-05
-9.00335e-06
-2.97736e-05
-4.11712e-06
-4.26367e-05
6.09763e-06
-5.99824e-05
2.17248e-05
-8.28682e-05
4.25238e-05
-0.00011102
6.95376e-05
-0.00014209
0.000103816
-0.000170246
0.00014502
-0.000185887
0.00018591
-0.000181961
0.000210137
0.000189997
-0.00016577
4.37406e-06
3.96464e-05
5.8125e-06
3.64437e-05
8.00728e-06
3.4678e-05
9.46513e-06
3.08851e-05
9.76998e-06
2.59653e-05
8.86798e-06
2.04625e-05
6.73603e-06
1.47908e-05
3.49309e-06
9.40412e-06
-3.61034e-07
4.6631e-06
-5.19136e-06
6.23175e-07
-1.11125e-05
-2.03377e-06
-1.84393e-05
-2.53709e-06
-2.75549e-05
1.12351e-07
-3.87733e-05
7.10134e-06
-5.2295e-05
1.96194e-05
-6.8528e-05
3.79579e-05
-8.78479e-05
6.18436e-05
-0.000109446
9.11361e-05
-0.000130832
0.000125201
-0.000147338
0.000161525
-0.000153611
0.000192183
-0.000147476
0.000204002
0.00018088
-0.000138359
4.6009e-06
3.50455e-05
7.28802e-06
3.37567e-05
9.81326e-06
3.21528e-05
1.14315e-05
2.92669e-05
1.18438e-05
2.5553e-05
1.09499e-05
2.13564e-05
8.74773e-06
1.6993e-05
5.35205e-06
1.27999e-05
9.11035e-07
9.10415e-06
-4.71992e-06
6.25417e-06
-1.1609e-05
4.85538e-06
-1.98719e-05
5.7258e-06
-2.95924e-05
9.83292e-06
-4.07782e-05
1.82872e-05
-5.32516e-05
3.20928e-05
-6.68921e-05
5.15985e-05
-8.14653e-05
7.64169e-05
-9.60177e-05
0.000105688
-0.00010856
0.000137743
-0.000116123
0.000169089
-0.000116478
0.000192538
-0.000110041
0.000197565
0.000174208
-0.000103369
4.24564e-06
3.07999e-05
7.34935e-06
3.0653e-05
9.91911e-06
2.95831e-05
1.15555e-05
2.76306e-05
1.20534e-05
2.50552e-05
1.13173e-05
2.20925e-05
9.32148e-06
1.89888e-05
6.0966e-06
1.60248e-05
1.67529e-06
1.35255e-05
-3.96401e-06
1.18935e-05
-1.08419e-05
1.17333e-05
-1.89247e-05
1.38087e-05
-2.80956e-05
1.90039e-05
-3.81094e-05
2.83011e-05
-4.85603e-05
4.25437e-05
-5.89834e-05
6.20217e-05
-6.88214e-05
8.6255e-05
-7.71605e-05
0.000114028
-8.26118e-05
0.000143195
-8.3581e-05
0.000170058
-7.95557e-05
0.000188512
-7.24806e-05
0.00019049
0.000169182
-6.74547e-05
3.6053e-06
2.71946e-05
6.58349e-06
2.76749e-05
8.98555e-06
2.71811e-05
1.05551e-05
2.60611e-05
1.11296e-05
2.44807e-05
1.06114e-05
2.26107e-05
8.94831e-06
2.0652e-05
6.12417e-06
1.8849e-05
2.1418e-06
1.75079e-05
-2.99197e-06
1.70273e-05
-9.22879e-06
1.79702e-05
-1.64358e-05
2.10158e-05
-2.43705e-05
2.69386e-05
-3.26367e-05
3.65673e-05
-4.06831e-05
5.05903e-05
-4.78782e-05
6.92168e-05
-5.35478e-05
9.19247e-05
-5.69099e-05
0.00011739
-5.70843e-05
0.000143369
-5.3413e-05
0.000166387
-4.62941e-05
0.000181394
-3.81457e-05
0.000182341
0.000164579
-3.35436e-05
2.8929e-06
2.43018e-05
5.47897e-06
2.50888e-05
7.58635e-06
2.50738e-05
9.02121e-06
2.46263e-05
9.64218e-06
2.38598e-05
9.34827e-06
2.29047e-05
8.07218e-06
2.19281e-05
5.77721e-06
2.1144e-05
2.45539e-06
2.08298e-05
-1.86923e-06
2.1352e-05
-7.10534e-06
2.32063e-05
-1.30619e-05
2.69724e-05
-1.94265e-05
3.33032e-05
-2.5733e-05
4.28738e-05
-3.13708e-05
5.62282e-05
-3.56594e-05
7.35054e-05
-3.79267e-05
9.41921e-05
-3.75464e-05
0.000117009
-3.40178e-05
0.00013984
-2.72413e-05
0.00015961
-1.80449e-05
0.000172197
-8.74977e-06
0.000173046
0.000159027
-3.19786e-06
2.21393e-06
2.20879e-05
4.32393e-06
2.29789e-05
6.09073e-06
2.3307e-05
7.35385e-06
2.33632e-05
7.98845e-06
2.32252e-05
7.8975e-06
2.29957e-05
7.01065e-06
2.2815e-05
5.28561e-06
2.28691e-05
2.71347e-06
2.3402e-05
-6.69053e-07
2.47346e-05
-4.7469e-06
2.72842e-05
-9.30643e-06
3.1532e-05
-1.40097e-05
3.80066e-05
-1.83776e-05
4.72418e-05
-2.18054e-05
5.9656e-05
-2.3635e-05
7.53351e-05
-2.32545e-05
9.38116e-05
-2.0183e-05
0.000113938
-1.41618e-05
0.000133819
-5.37617e-06
0.000150825
5.23637e-06
0.000161585
1.55361e-05
0.000162746
0.000152212
2.2351e-05
1.61798e-06
2.047e-05
3.26283e-06
2.13341e-05
4.69463e-06
2.18753e-05
5.77684e-06
2.22811e-05
6.4015e-06
2.26006e-05
6.48217e-06
2.2915e-05
5.95485e-06
2.33424e-05
4.78166e-06
2.40423e-05
2.95897e-06
2.52247e-05
5.327e-07
2.71609e-05
-2.37339e-06
3.01903e-05
-5.54563e-06
3.47043e-05
-8.65265e-06
4.11136e-05
-1.12403e-05
4.98295e-05
-1.27492e-05
6.1165e-05
-1.25826e-05
7.51685e-05
-1.02083e-05
9.14373e-05
-5.26476e-06
0.000108995
2.38813e-06
0.000126166
1.24284e-05
0.000140784
2.38686e-05
0.000150144
3.48419e-05
0.000151773
0.000144226
4.28283e-05
1.12222e-06
1.93478e-05
2.3547e-06
2.01017e-05
3.48345e-06
2.07466e-05
4.39352e-06
2.1371e-05
4.9945e-06
2.19997e-05
5.21439e-06
2.26952e-05
5.00108e-06
2.35558e-05
4.32686e-06
2.47166e-05
3.19693e-06
2.63547e-05
1.66366e-06
2.86942e-05
-1.51985e-07
3.2006e-05
-2.04688e-06
3.65992e-05
-3.71681e-06
4.27836e-05
-4.75494e-06
5.08677e-05
-4.66848e-06
6.10786e-05
-2.93652e-06
7.34365e-05
9.00949e-07
8.75999e-05
7.12424e-06
0.000102771
1.57659e-05
0.000117525
2.64763e-05
0.000130074
3.8298e-05
0.000138323
4.96639e-05
0.000140407
0.00013528
5.861e-05
7.25573e-07
1.86223e-05
1.61168e-06
1.92156e-05
2.47992e-06
1.98784e-05
3.23569e-06
2.06153e-05
3.80609e-06
2.14293e-05
4.13475e-06
2.23666e-05
4.1835e-06
2.3507e-05
3.93696e-06
2.49631e-05
3.41003e-06
2.68817e-05
2.65937e-06
2.94449e-05
1.79846e-06
3.2867e-05
1.01498e-06
3.73827e-05
5.72439e-07
4.32262e-05
8.22918e-07
5.06172e-05
2.18874e-06
5.97128e-05
5.11188e-06
7.05134e-05
9.97213e-06
8.27397e-05
1.70176e-05
9.57258e-05
2.62061e-05
0.000108336
3.71647e-05
0.000119116
4.90487e-05
0.000126439
6.0574e-05
0.000128882
0.000125639
7.0215e-05
4.16872e-07
1.82055e-05
1.02272e-06
1.86098e-05
1.67432e-06
1.92268e-05
2.29657e-06
1.99931e-05
2.83312e-06
2.08928e-05
3.24259e-06
2.19572e-05
3.50045e-06
2.32492e-05
3.60315e-06
2.48605e-05
3.57451e-06
2.69103e-05
3.47436e-06
2.95451e-05
3.40896e-06
3.29324e-05
3.54182e-06
3.72499e-05
4.09918e-06
4.26688e-05
5.37661e-06
4.93398e-05
7.72736e-06
5.73621e-05
1.15213e-05
6.67195e-05
1.70765e-05
7.71845e-05
2.4579e-05
8.82234e-05
3.39689e-05
9.89465e-05
4.48864e-05
0.000108198
5.66125e-05
0.000114713
6.811e-05
0.000117385
0.000115561
7.8188e-05
1.87054e-07
1.80185e-05
5.67294e-07
1.82296e-05
1.04234e-06
1.87518e-05
1.55113e-06
1.94844e-05
2.05193e-06
2.03921e-05
2.5167e-06
2.14924e-05
2.93281e-06
2.28332e-05
3.30673e-06
2.44866e-05
3.6692e-06
2.65479e-05
4.08167e-06
2.91326e-05
4.64307e-06
3.23711e-05
5.49599e-06
3.6397e-05
6.83136e-06
4.13335e-05
8.89203e-06
4.72792e-05
1.19658e-05
5.42884e-05
1.63554e-05
6.23299e-05
2.23213e-05
7.12187e-05
3.0005e-05
8.05397e-05
3.93435e-05
8.9608e-05
5.00181e-05
9.75236e-05
6.14301e-05
0.000103301
7.27466e-05
0.000106068
0.000105278
8.30294e-05
4.61876e-09
1.80139e-05
2.20995e-07
1.80133e-05
5.54776e-07
1.84181e-05
9.67804e-07
1.90714e-05
1.4312e-06
1.99287e-05
1.92818e-06
2.09955e-05
2.45577e-06
2.23056e-05
3.02805e-06
2.39144e-05
3.6804e-06
2.58956e-05
4.47416e-06
2.83389e-05
5.50104e-06
3.13442e-05
6.8862e-06
3.50119e-05
8.79019e-06
3.94296e-05
1.14103e-05
4.46592e-05
1.49758e-05
5.07228e-05
1.9728e-05
5.75778e-05
2.5875e-05
6.50718e-05
3.35277e-05
7.28869e-05
4.26304e-05
8.05054e-05
5.29157e-05
8.72382e-05
6.3895e-05
9.23213e-05
7.49007e-05
9.50625e-05
9.49927e-05
8.51864e-05
-1.18354e-07
1.81324e-05
-3.69819e-08
1.7932e-05
1.84265e-07
1.81969e-05
5.15469e-07
1.87402e-05
9.39426e-07
1.95048e-05
1.44794e-06
2.0487e-05
2.04533e-06
2.17083e-05
2.75094e-06
2.32088e-05
3.60248e-06
2.50441e-05
4.65954e-06
2.72819e-05
6.00646e-06
2.99973e-05
7.75353e-06
3.32649e-05
1.00365e-05
3.71466e-05
1.30156e-05
4.16801e-05
1.68713e-05
4.68671e-05
2.17911e-05
5.2658e-05
2.79374e-05
5.89254e-05
3.5398e-05
6.54265e-05
4.41288e-05
7.17746e-05
5.39156e-05
7.74514e-05
6.43672e-05
8.18698e-05
7.49498e-05
8.44799e-05
8.48782e-05
8.50643e-05
-2.10273e-07
1.83427e-05
-2.28128e-07
1.79499e-05
-9.5893e-08
1.80647e-05
1.6651e-07
1.84778e-05
5.48538e-07
1.91228e-05
1.0505e-06
1.99851e-05
1.68166e-06
2.10771e-05
2.46453e-06
2.2426e-05
3.43719e-06
2.40715e-05
4.65605e-06
2.60631e-05
6.19773e-06
2.84557e-05
8.15932e-06
3.13033e-05
1.06565e-05
3.46494e-05
1.38205e-05
3.85162e-05
1.77935e-05
4.28941e-05
2.27193e-05
4.77323e-05
2.87216e-05
5.29231e-05
3.58685e-05
5.82796e-05
4.41281e-05
6.35151e-05
5.33349e-05
6.82446e-05
6.31815e-05
7.20233e-05
7.32439e-05
7.44175e-05
7.50834e-05
8.30388e-05
-2.73961e-07
1.86167e-05
-3.65183e-07
1.80412e-05
-3.04158e-07
1.80037e-05
-1.02971e-07
1.82767e-05
2.35841e-07
1.8784e-05
7.15589e-07
1.95054e-05
1.35021e-06
2.04425e-05
2.16352e-06
2.16127e-05
3.19242e-06
2.30426e-05
4.48898e-06
2.47665e-05
6.12176e-06
2.68229e-05
8.17571e-06
2.92494e-05
1.07498e-05
3.20754e-05
1.3953e-05
3.5313e-05
1.78986e-05
3.89485e-05
2.26973e-05
4.29337e-05
2.84419e-05
4.71785e-05
3.51839e-05
5.15376e-05
4.29008e-05
5.57982e-05
5.14682e-05
5.96772e-05
6.06491e-05
6.28424e-05
7.01098e-05
6.49568e-05
6.57331e-05
7.94601e-05
-3.15773e-07
1.89325e-05
-4.61163e-07
1.81866e-05
-4.57114e-07
1.79997e-05
-3.09799e-07
1.81294e-05
-1.75422e-08
1.84918e-05
4.28042e-07
1.90598e-05
1.04168e-06
1.98289e-05
1.84762e-06
2.08068e-05
2.88059e-06
2.20097e-05
4.1876e-06
2.34596e-05
5.82903e-06
2.51815e-05
7.87839e-06
2.72001e-05
1.04202e-05
2.95336e-05
1.35457e-05
3.21876e-05
1.73473e-05
3.51469e-05
2.19113e-05
3.83697e-05
2.73082e-05
4.17816e-05
3.35763e-05
4.52695e-05
4.06995e-05
4.8675e-05
4.85859e-05
5.17909e-05
5.70558e-05
5.43724e-05
6.58495e-05
5.61632e-05
5.69289e-05
7.46537e-05
-3.4018e-07
1.92727e-05
-5.24843e-07
1.83713e-05
-5.66861e-07
1.80418e-05
-4.67921e-07
1.80305e-05
-2.23168e-07
1.82471e-05
1.77868e-07
1.86588e-05
7.51288e-07
1.92555e-05
1.52043e-06
2.00377e-05
2.51703e-06
2.10131e-05
3.78276e-06
2.21939e-05
5.36985e-06
2.35945e-05
7.34109e-06
2.52288e-05
9.76805e-06
2.71067e-05
1.27274e-05
2.92283e-05
1.62955e-05
3.15789e-05
2.05419e-05
3.41233e-05
2.55216e-05
3.68019e-05
3.12637e-05
3.95275e-05
3.77572e-05
4.21815e-05
4.49346e-05
4.46135e-05
5.26617e-05
4.66453e-05
6.07389e-05
4.80861e-05
4.87509e-05
6.89169e-05
-3.5027e-07
1.9623e-05
-5.62429e-07
1.85835e-05
-6.41997e-07
1.81214e-05
-5.87086e-07
1.79756e-05
-3.90651e-07
1.80507e-05
-4.11705e-08
1.83094e-05
4.77951e-07
1.87365e-05
1.18821e-06
1.93274e-05
2.11847e-06
2.00829e-05
3.30481e-06
2.10076e-05
4.79174e-06
2.21076e-05
6.63204e-06
2.33886e-05
8.88555e-06
2.48532e-05
1.16163e-05
2.64976e-05
1.48878e-05
2.83074e-05
1.87576e-05
3.02535e-05
2.32703e-05
3.22893e-05
2.84497e-05
3.4348e-05
3.42892e-05
3.63421e-05
4.07402e-05
3.81625e-05
4.7704e-05
3.96816e-05
5.50291e-05
4.0761e-05
4.12598e-05
6.25202e-05
-3.48412e-07
1.99715e-05
-5.78475e-07
1.88136e-05
-6.88606e-07
1.82315e-05
-6.73946e-07
1.7961e-05
-5.25877e-07
1.79027e-05
-2.3243e-07
1.8016e-05
2.22353e-07
1.82817e-05
8.58754e-07
1.86911e-05
1.70165e-06
1.924e-05
2.78218e-06
1.99271e-05
4.13763e-06
2.07521e-05
5.81168e-06
2.17145e-05
7.85355e-06
2.28113e-05
1.0316e-05
2.40351e-05
1.32517e-05
2.53717e-05
1.67086e-05
2.67967e-05
2.07243e-05
2.82736e-05
2.53198e-05
2.97526e-05
3.04927e-05
3.11691e-05
3.62097e-05
3.24455e-05
4.23994e-05
3.34919e-05
4.89494e-05
3.4211e-05
3.45001e-05
5.57091e-05
-3.3638e-07
2.03079e-05
-5.76302e-07
1.90535e-05
-7.11052e-07
1.83663e-05
-7.33042e-07
1.7983e-05
-6.3248e-07
1.78021e-05
-3.9729e-07
1.77808e-05
-1.25636e-08
1.7897e-05
5.40041e-07
1.81385e-05
1.28233e-06
1.84977e-05
2.24035e-06
1.89691e-05
3.44493e-06
1.95476e-05
4.93163e-06
2.02279e-05
6.74028e-06
2.10027e-05
8.91357e-06
2.18619e-05
1.14945e-05
2.27907e-05
1.45228e-05
2.37684e-05
1.80305e-05
2.4766e-05
2.2037e-05
2.57461e-05
2.6544e-05
2.66622e-05
3.153e-05
2.74595e-05
3.69453e-05
2.80767e-05
4.27087e-05
2.84477e-05
2.85016e-05
4.87073e-05
-3.15773e-07
2.06237e-05
-5.58695e-07
1.92965e-05
-7.12719e-07
1.85204e-05
-7.67657e-07
1.8038e-05
-7.12755e-07
1.77472e-05
-5.36044e-07
1.76041e-05
-2.2379e-07
1.75848e-05
2.4019e-07
1.76745e-05
8.74637e-07
1.78633e-05
1.70121e-06
1.81425e-05
2.74496e-06
1.85039e-05
4.03439e-06
1.89384e-05
5.60115e-06
1.94359e-05
7.47906e-06
1.9984e-05
9.70247e-06
2.05673e-05
1.23037e-05
2.11672e-05
1.53095e-05
2.17601e-05
1.87378e-05
2.23178e-05
2.25933e-05
2.28067e-05
2.68637e-05
2.31891e-05
3.15163e-05
2.34241e-05
3.64945e-05
2.34694e-05
2.32793e-05
4.17168e-05
-2.88081e-07
2.09118e-05
-5.28201e-07
1.95366e-05
-6.96658e-07
1.86889e-05
-7.80614e-07
1.8122e-05
-7.68498e-07
1.77351e-05
-6.48612e-07
1.74843e-05
-4.08444e-07
1.73446e-05
-3.40447e-08
1.73001e-05
4.90443e-07
1.73388e-05
1.18276e-06
1.74502e-05
2.063e-06
1.76236e-05
3.15363e-06
1.78478e-05
4.47933e-06
1.81103e-05
6.06634e-06
1.8397e-05
7.94138e-06
1.86923e-05
1.01299e-05
1.89787e-05
1.26538e-05
1.92363e-05
1.55285e-05
1.9443e-05
1.87605e-05
1.95747e-05
2.23442e-05
1.96055e-05
2.62591e-05
1.95092e-05
3.04681e-05
1.92604e-05
1.88326e-05
3.49149e-05
-2.5515e-07
2.1167e-05
-4.8783e-07
1.97693e-05
-6.66258e-07
1.88673e-05
-7.74968e-07
1.82307e-05
-8.01716e-07
1.77619e-05
-7.35256e-07
1.74178e-05
-5.64386e-07
1.71738e-05
-2.77291e-07
1.70131e-05
1.39046e-07
1.69225e-05
6.99005e-07
1.68903e-05
1.41842e-06
1.69042e-05
2.31472e-06
1.69515e-05
3.40681e-06
1.70182e-05
4.71461e-06
1.70892e-05
6.25833e-06
1.71486e-05
8.05737e-06
1.71796e-05
1.01287e-05
1.71649e-05
1.24851e-05
1.70866e-05
1.51331e-05
1.69268e-05
1.80709e-05
1.66677e-05
2.12871e-05
1.62931e-05
2.47582e-05
1.57893e-05
1.51432e-05
2.84476e-05
-2.19368e-07
2.13864e-05
-4.41429e-07
1.99914e-05
-6.25873e-07
1.90518e-05
-7.54674e-07
1.83595e-05
-8.15262e-07
1.78225e-05
-7.97176e-07
1.73997e-05
-6.90706e-07
1.70673e-05
-4.86106e-07
1.68085e-05
-1.73027e-07
1.66094e-05
2.59873e-07
1.64574e-05
8.24901e-07
1.63392e-05
1.53537e-06
1.62411e-05
2.40549e-06
1.61481e-05
3.45008e-06
1.60446e-05
4.68403e-06
1.59146e-05
6.1216e-06
1.57421e-05
7.77537e-06
1.55112e-05
9.65506e-06
1.5207e-05
1.17663e-05
1.48156e-05
1.4109e-05
1.43249e-05
1.6677e-05
1.37252e-05
1.94563e-05
1.301e-05
1.21753e-05
2.24242e-05
-1.84246e-07
2.15706e-05
-3.9449e-07
2.02017e-05
-5.81434e-07
1.92387e-05
-7.25106e-07
1.85032e-05
-8.13332e-07
1.79107e-05
-8.37008e-07
1.74234e-05
-7.8823e-07
1.70185e-05
-6.59353e-07
1.66796e-05
-4.42436e-07
1.63925e-05
-1.28895e-07
1.61438e-05
2.90642e-07
1.59197e-05
8.26155e-07
1.57056e-05
1.48822e-06
1.5486e-05
2.28765e-06
1.52452e-05
3.23521e-06
1.49671e-05
4.34107e-06
1.46362e-05
5.61417e-06
1.42381e-05
7.06144e-06
1.37597e-05
8.68696e-06
1.319e-05
1.04912e-05
1.25206e-05
1.24704e-05
1.1746e-05
1.46162e-05
1.08643e-05
9.87671e-06
1.69147e-05
-1.54762e-07
2.17254e-05
-3.54553e-07
2.04014e-05
-5.40884e-07
1.9425e-05
-6.93428e-07
1.86557e-05
-8.01832e-07
1.80191e-05
-8.59255e-07
1.74808e-05
-8.6003e-07
1.70193e-05
-7.98681e-07
1.66183e-05
-6.69463e-07
1.62633e-05
-4.66132e-07
1.59405e-05
-1.81844e-07
1.56354e-05
1.90835e-07
1.53329e-05
6.59593e-07
1.50173e-05
1.23235e-06
1.46724e-05
1.91687e-06
1.42826e-05
2.72037e-06
1.38327e-05
3.64912e-06
1.33093e-05
4.70791e-06
1.27009e-05
5.89949e-06
1.19985e-05
7.22404e-06
1.11961e-05
8.67883e-06
1.02912e-05
1.02581e-05
9.28505e-06
8.1821e-06
1.19527e-05
-1.38426e-07
2.18638e-05
-3.31902e-07
2.05949e-05
-5.14262e-07
1.96074e-05
-6.6852e-07
1.881e-05
-7.88445e-07
1.81391e-05
-8.70597e-07
1.7563e-05
-9.11944e-07
1.70607e-05
-9.09188e-07
1.66155e-05
-8.58554e-07
1.62127e-05
-7.55739e-07
1.58377e-05
-5.95906e-07
1.54756e-05
-3.73734e-07
1.51107e-05
-8.35037e-08
1.4727e-05
2.80672e-07
1.43083e-05
7.24584e-07
1.38386e-05
1.25363e-06
1.33037e-05
1.87252e-06
1.26904e-05
2.58494e-06
1.19885e-05
3.39297e-06
1.11904e-05
4.29667e-06
1.02923e-05
5.29375e-06
9.29408e-06
6.37934e-06
8.19942e-06
7.01556e-06
7.54589e-06
-1.4614e-07
2.20099e-05
-3.38943e-07
2.07877e-05
-5.12673e-07
1.97811e-05
-6.60143e-07
1.89575e-05
-7.82268e-07
1.82612e-05
-8.79977e-07
1.76607e-05
-9.52988e-07
1.71337e-05
-9.9999e-07
1.66625e-05
-1.01889e-06
1.62316e-05
-1.00695e-06
1.58257e-05
-9.60893e-07
1.54295e-05
-8.76882e-07
1.50267e-05
-7.50637e-07
1.46008e-05
-5.7753e-07
1.41351e-05
-3.5278e-07
1.36139e-05
-7.16158e-08
1.30225e-05
2.7036e-07
1.23484e-05
6.76798e-07
1.1582e-05
1.15017e-06
1.0717e-05
1.69133e-06
9.75119e-06
2.29883e-06
8.68656e-06
2.96837e-06
7.5299e-06
6.29184e-06
3.69207e-06
-1.92165e-07
2.22021e-05
-3.88039e-07
2.09836e-05
-5.45531e-07
1.99386e-05
-6.76976e-07
1.90889e-05
-7.92761e-07
1.8377e-05
-8.98173e-07
1.77661e-05
-9.95222e-07
1.72307e-05
-1.08415e-06
1.67514e-05
-1.16419e-06
1.63116e-05
-1.23384e-06
1.58954e-05
-1.29097e-06
1.54866e-05
-1.33278e-06
1.50685e-05
-1.35581e-06
1.46238e-05
-1.35593e-06
1.41352e-05
-1.32848e-06
1.35864e-05
-1.2684e-06
1.29624e-05
-1.17054e-06
1.22506e-05
-1.03002e-06
1.14415e-05
-8.42539e-07
1.05296e-05
-6.05046e-07