/*--------------------------------*- C++ -*----------------------------------*\
  =========                 |
  \\      /  F ield         | OpenFOAM: The Open Source CFD Toolbox
   \\    /   O peration     | Website:  https://openfoam.org
    \\  /    A nd           | Version:  13
     \\/     M anipulation  |
\*---------------------------------------------------------------------------*/
FoamFile
{
    format      ascii;
    class       volScalarField;
    location    "0.75";
    object      rho;
}
// * * * * * * * * * * * * * * * * * * * * * * * * * * * * * * * * * * * * * //

dimensions      [1 -3 0 0 0 0 0];

internalField   nonuniform List<scalar> 
2268
(
13529
13529
13529
13529
13529
13529
13529
13529
13529
13529
13529
13529
13529
13529
13529
13529
13529
13529
13529
13529
13528.2
13522
13521.6
13529
13529
13529
13529
13529
13529
13529
13529
13529
13529
13529
13529
13529
13529
13529
13529
13529
13529
13529
13529
13528.9
13525.6
13521.7
13529
13529
13529
13529
13529
13529
13529
13529
13529
13529
13529
13529
13529
13529
13529
13529
13529
13529
13529
13529
13529
13528.8
13528.7
11008.2
11058.4
11778.6
12802.5
13529
13529
13529
13529
13529
13529
13529
13529
13529
13529
13529
13529
13529
13529
13529
13529
13529
13529
13529
1413.6
2000.66
2805.38
4279.79
6877.49
10388.7
12906.3
13529
13529
13529
13529
13529
13529
13529
13529
13529
13529
13529
13529
13529
13529
13529
13528.9
1000
1000
1000
1000
1023.27
1787.75
4447.32
9257.41
12797.4
13529
13529
13529
13529
13529
13529
13529
13529
13529
13529
13529
13529
13529
13528.7
1000
1000
1000
1000
1000
1000
1000
1315.8
3795.44
8626.38
12352
13505.7
13528.1
13529
13529
13529
13529
13529
13529
13527.2
13432.7
13089.2
12520.8
1000
1000
1000
1000
1000
1000
1000
1000
1000
1171.13
2693.16
5779.74
9531.41
11401.7
11534.4
11195.1
11008.4
10866.4
10494.2
9725.79
8281.75
6623.65
5169.89
796.123
1116.69
1113.33
1129.76
1182.11
2493.89
4853.5
6252.26
6141.41
5564.41
4764.11
4309.76
4305.6
2689.16
1220.04
1804.68
2774.37
2774.39
2773.61
485.197
612.51
1060.67
2592.84
4306.34
8378.06
11831.8
11987.5
11994.9
11993.5
11986.3
11983.2
11974.1
9182.62
2078.93
865.572
713.017
1664.62
2759.87
455.523
505.599
3945.94
6778.09
6866.81
6624.22
6263.79
6522.5
7229.28
8166.08
9032.66
9889.15
11288.9
11259.9
3694.46
406.202
260.6
291.294
5752.91
438.629
2451.22
6303.45
6378.75
5023.31
2335.4
1000.3
999.75
999.769
998.624
997.603
1027.04
3161.8
9634.95
5893.1
480.113
376.532
2044.48
8204.95
1434.13
5045.16
4309.3
1866.85
1002.7
1002.42
1001.83
1000.06
999.861
999.854
997.967
997.645
998.933
5358.88
5613.41
579.056
613.435
7025.17
8302.85
5968.64
5160.78
1257.44
1002.52
999.919
999.849
1000.1
1000.29
1000.12
999.934
999.859
999.664
999.684
1178.06
5630
4675.73
6083.34
9573.59
8359.39
4955.14
1191.92
1001.92
999.821
999.84
999.849
999.849
999.833
999.623
997.172
998.889
999.792
999.783
999.287
3499.16
8308.95
9593.02
9698.91
8853.72
1356.12
999.765
999.728
999.801
997.475
970.095
929.539
888.642
836.874
788.838
813.396
900.002
999.693
999.802
1026.88
4565.03
5840.23
7697.47
9485.37
1000
1000
1000
1000
1000
1000
1000
1000
1000
1000
1000
1003.45
1091.27
1432.26
2099.38
2819.06
3202.31
3208.84
2970.53
2576.4
1985.96
1488.89
1197.71
1000
1000
1000
1000
1000
1000
1000
1000
1000
1000
1000
1000
1000
1000
1000
1000
1000
1000
1000
1000
1000
1000
999.99
1000
1000
1000
1000
1000
1000
1000
1000
1000
1000
1000
1000
1000
1000
1000
1000
1000
1000
1000
1000
1000
999.999
999.789
1000
1000
1000
1000
1000
1000
1000
1000
1000
1000
1000
1000
1000
1000
1000
1000
997.626
980.311
943.926
893.283
830.573
757.889
647.747
864.723
780.436
714.896
689.589
695.788
720.557
762.005
817.141
869.269
899.692
896.348
871.343
830.707
780.138
722.748
642.713
513.09
377.943
263.774
180.64
117.352
63.4499
22.6914
151.26
83.8672
49.4266
38.7192
39.5844
46.8354
58.6923
66.6631
63.264
58.8458
68.7034
70.0269
57.2745
42.5012
23.3317
1.00021
1.00022
1.00193
1.00328
1.00461
1.00857
1.03562
1.03414
1
1
1
1
1
1
1
1
1.00001
1
1
1
1
1
1.00002
1.00015
1.00059
1.00006
1.00053
1.0034
1.00332
1.00473
1.00494
1.00001
1.00001
1
1
1
1
1
1
1
1
1
1
1
1
1
1.00002
1.00001
1.00003
1.00004
1.0113
1.01534
1.00008
1.00005
1.00001
1
1
1
1
1
1
1
1
1
1
1
1
1
1
1
1.00001
1.00001
1.00001
1.01107
1.11017
1.08657
1.00009
1.00001
1
1
1
1
1
1
1
1
1
1
1
1
1
1.00001
1.00001
1.00001
1.00001
1.00001
1.00247
1.11782
1.13766
1.05871
1
1
1
1
1
1
1
1
1
1
1
1
1
1
1.00001
1.00001
1.00001
1.00001
1
1.00001
1.03894
1.14796
1.08761
1
1
1
1
1
1
1
1
1
1
1
1
1
1
1
1.00001
1.00001
1
1
1.00003
1.00007
1.01617
1.02138
1
1
1
1
1
1
1
1
1
1
1
1
1
1
1
1
1
1
1
1.00005
1.00014
1.00058
1.00387
1
1
1
1
1
1
1
1
1
1
1
1
1
1
1
1
1
1
1
1.00002
1.00008
1.00021
1.00413
1
1
1
1
1
1
1
1
1
1
1
1
1
1
1
1
1
1
1
1
1
1.00002
1.00086
1
1
1
1
1
1
1
1
1
1
1
1
1
1
1
1
1
1
1
1
1
1
1.00002
1
1
1
1
1
1
1
1
1
1
1
1
1
1
1
1
1
1
1
1
1
1
1
1
1
1
1
1
1
1
1
1
1
1
1
1
1
1
1
1
1
1
1
1
1
1
1
1
1
1
1
1
1
1
1
1
1
1
1
1
1
1
1
1
1
1
1
1
1
1
1
1
1
1
1
1
1
1
1
1
1
1
1
1
1
1
1
1
1
1
1
1
1
1
1
1
1
1
1
1
1
1
1
1
1
1
1
1
1
1
1
1
1
1
1
1
1
1
1
1
1
1
1
1
1
1
1
1
1
1
1
1
1
1
1
1
1
1
1
1
1
1
1
1
1
1
1
1
1
1
1
1
1
1
1
1
1
1
1
1
1
1
1
1
1
1
1
1
1
1
1
1
1
1
1
1
1
1
1
1
1
1
1
1
1
1
1
1
1
1
1
1
1
1
1
1
1
1
1
1
1
1
1
1
1
1
1
1
1
1
1
1
1
1
1
1
1
1
1
1
1
1
1
1
1
1
1
1
1
1
1
1
1
1
1
1
1
1
1
1
1
1
1
1
1
1
1
1
1
1
1
1
1
1
1
1
1
1
1
1
1
1
1
1
1
1
1
1
1
1
1
1
1
1
1
1
1
1
1
1
1
1
1
1
1
1
1
1
1
1
1
1
1
1
1
1
1
1
1
1
1
1
1
1
1
1
1
1
1
1
1
1
1
1
1
1
1
1
1
1
1
1
1
1
1
1
1
1
1
1
1
1
1
1
1
1
1
1
1
1
1
1
1
1
1
1
1
1
1
1
1
1
1
1
1
1
1
1
1
1
1
1
1
1
1
1
1
1
1
1
1
1
1
1
1
1
1
1
1
1
1
1
1
1
1
1
1
1
1
1
1
1
1
1
1
1
1
1
1
1
1
1
1
1
1
1
1
1
1
1
1
1
1
1
1
1
1
1
1
1
1
1
1
1
1
1
1
1
1
1
1
1
1
1
1
1
1
1
1
1
1
1
1
1
1
1
1
1
1
1
1
1
1
1
1
1
1
1
1
1
1
1
1
1
1
1
1
1
1
1
1
1
1
1
1
1
1
1
1
1
1
1
1
1
1
1
1
1
1
1
1
1
1
1
1
1
1
1
1
1
1
1
1
1
1
1
1
1
1
1
1
1
1
1
1
1
1
1
1
1
1
1
1
1
1
1
1
1
1
1
1
1
1
1
1
1
1
1
1
1
1
1
1
1
1
1
1
1
1
1
1
1
1
1
1
1
1
1
1
1
1
1
1
1
1
1
1
1
1
1
1
1
1
1
1
1
1
1
1
1
1
1
1
1
1
1
1
1
1
1
1
1
1
1
1
1
1
1
2638.57
2466.95
4330.44
4367.81
999.649
999.416
998.535
997.036
980.294
952.244
902.521
645.529
464.957
247.383
50.4538
31.0204
5.75508
4.68022
136.156
429.024
1.02724
295.3
499.999
500
1.00059
37.8704
429.685
500
1.00006
1.00029
39.2864
307.792
1
1
1.00011
11.2494
1.00001
1
1
1.00007
1.00001
1
1
1
1.00104
1.00004
1
1.00017
1.00475
1.00219
1.00296
1.00509
1.00572
1.0053
1.0052
1.00519
1.00423
1.00517
1.00515
1.00513
1.00048
1.00148
1.0025
1.00448
1.00002
1.00004
1.00005
1.00042
1
1
1.00001
1.00001
1
1
1
1.00001
1
1
1
1
1
1
1
1
1
1
1
1
1
1
1
1
1
1
1
1
1
1
1
1
1
1
1
1
1
1
1
1
1
1
1
1
1
1
1
1
1
1
1
1
1
1
1
1
1
1
1
1
1
1
1
1
1
1
1
1
1
1
1
1
1
1
1
1
1
1
1
1
1
1
1
1
1
1
1
1
1
1
1
1
1
1
1
1
1
1
1
1
1820.69
994.882
922.893
878.149
745.262
656.452
604.18
570.23
539.651
525.067
537.103
584.384
721.096
909.278
1003.93
1104.24
1171.87
5198.55
9460.61
923.097
561.58
348.026
418.684
467.634
484.848
497.617
499.073
499.711
499.944
499.993
499.969
499.978
546.627
712.285
924.691
887.218
1908.52
9478.83
239.231
128.909
221.385
474.827
498.367
497.881
500.006
500.009
500.011
500.01
500.004
500
499.999
500.002
500.45
541.658
524.128
1071.26
9077.08
44.2804
329.132
500
500.001
500.001
500.002
500.001
500
500.001
500
500
500
500
498.574
491.76
509.939
507.108
795.505
5147.02
499.413
500
500
500
500
500
500
500
500
500
500
500
500
500.047
484.102
454.368
496.468
702.402
5162.75
500
500
500
500
500
500
500
500
500
500
500
499.999
500.007
500.062
501.787
424.857
279.413
430.327
4964.06
500
500
500
500
500
500
500
500
500
500
500
500.001
500.001
500.001
500.001
483.004
338.303
312.042
2977.46
471.585
500
500
500
500
499.979
499.954
499.969
499.997
500
500
500
500.001
500.001
500.001
500
490.023
313.267
106.686
253.9
499.464
500
500
500
499.952
499.928
499.928
499.981
500
500
500
499.999
499.999
500
500
466.639
182.281
52.9899
11.1995
258.832
478.444
500
500
499.99
499.947
499.937
499.991
500
500
500
499.999
499.999
499.999
500
480.954
263.576
125.584
1.00002
1.00003
161.014
410.699
497.579
500
500
500
500
500
500
500
500
500
499.999
499.997
500
500
497.429
1.00056
1.00005
1.00001
24.1909
239.527
420.326
496.444
500
500
500
500
500
500
500
500
500
500
500
500
1.00446
1.0003
1.00001
1.00002
1.00001
38.6181
236.87
400.777
478.878
499.751
500
500
500
500
500
500
498.965
481.255
452.783
1.00513
1.00193
1.00002
1.00003
1.00005
1.00005
1.00005
20.0199
150.228
278.15
377.951
431.115
460.037
469.524
459.164
379.957
256.597
153.356
75.0621
1.0051
1.00167
1.00003
1.00003
1.00004
1.00008
1.00011
1.00006
1.00006
1.00005
16.5689
62.6121
100.014
115.844
86.2784
17.8303
1.90963
6.51023
9.8234
1.00482
1.00082
1.00003
1.00002
1.00002
1.00013
1.00075
1.00076
1.00022
1.00007
1.00007
1.00007
1.00008
1.00009
1.00009
1.00009
2.56558
25.8067
9.85429
1.00046
1.00008
1.00002
1.00001
1.00001
1.00002
1.00069
1.00229
1.00235
1.00063
1.00008
1.00009
1.00072
1.00147
1.00039
1.00009
6.43326
38.5179
11.2365
1.00002
1.00002
1.00001
1.00001
1.00001
1.00001
1.00001
1.00131
1.00256
1.00256
1.00076
1.00009
1.002
1.00562
1.00449
1.00009
1.8947
28.1001
8.01113
1.00001
1.00001
1.00001
1.00001
1.00001
1.00001
1.00001
1.00001
1.00131
1.00255
1.00256
1.0002
1.00069
1.00482
1.00503
1.00064
1.93565
1.01145
1.00287
1.00001
1.00001
1.00001
1
1.00001
1.00001
1.00001
1.00001
1.00001
1.00106
1.00229
1.00075
1.00002
1.00001
1.00133
1.00001
2.86668
1.08817
1.00288
1
1
1
1
1
1
1.00001
1.00001
1.00001
1.00001
1.00002
1.00041
1.00008
1.00001
1.00001
1.00001
2.84237
1.34984
1.00287
1
1
1
1
1
1
1
1.00001
1.00001
1.00001
1.00001
1.00001
1.00003
1.00002
1.00001
1.00001
1.34116
1.27364
1.00346
1
1
1
1
1
1
1
1
1
1.00001
1.00002
1.00002
1.00002
1.00001
1.00001
1.00001
1.00001
1.00001
1.00391
1
1
1
1
1
1
1
1
1
1
1.00001
1.00001
1.00001
1.00001
1.00001
1.00001
1.00001
1.00001
1.00035
1
1
1
1
1
1
1
1
1
1
1
1
1.00001
1.00001
1.00001
1.00001
1.00001
1.00001
1.00002
1
1
1
1
1
1
1
1
1
1
1
1
1
1.00001
1.00001
1.00001
1.00001
1.00001
1.00001
1
1
1
1
1
1
1
1
1
1
1
1
1
1
1.00001
1.00001
1.00001
1.00001
1.00039
1
1
1
1
1
1
1
1
1
1
1
1
1
1
1.00001
1.00001
1.00001
1.00002
1.00121
1
1
1
1
1
1
1
1
1
1
1
1
1
1
1.00001
1.00001
1.00001
1.00045
1.00121
1
1
1
1
1
1
1
1
1
1
1
1
1
1
1.00001
1.00001
1.00001
1.00116
1.00121
1
1
1
1
1
1
1
1
1
1
1
1
1
1
1.00001
1.00001
1.00001
1.0012
1.00119
1
1
1
1
1
1
1
1
1
1
1
1
1
1.00001
1.00001
1.00001
1.00001
1.00092
1.0001
1
1
1
1
1
1
1
1
1
1
1
1.00001
1.00001
1.00001
1.00001
1.00001
1.00006
1.00004
1.00001
1
1
1
1
1
1
1
1
1
1
1.00001
1.00001
1.00001
1.00001
1.00002
1.00002
1.00007
1.00001
1
1
1
1
1
1
1
1
1
1
1
1.00001
1.00001
1.00001
1.00004
1.00008
1.00008
1.00003
1.00001
1
1
1
1
1
1
1
1
1
1
1
1
1.00001
1.00001
1.00006
1.00008
1.00008
1.00006
1.00001
1
1
1
1
1
1
1
1
1
1
1
1
1.00001
1.00002
1.00003
1.00005
1.00008
1.00006
1.00001
1
1
1
1
1
1
1
1
1
1
1
1
1.00001
1.00001
1.00001
1.00001
1.00002
1.00001
1
1
1
1
1
1
1
1
1
1
1
1
1
1
1
1.00001
1.00001
1
1
1
1
1
1
1
1
1
1
1
1
1
1
1
1
1
1
1
1
1
1
1
1
1
1
1
1
1
1
1
1
1
1
1
1
1
1
1
1
1
1
1
1
1
1
1
1
1
1
1
1
1
1
1
1
1
1
1
1
1
)
;

boundaryField
{
    leftWall
    {
        type            calculated;
        value           nonuniform List<scalar> 
50
(
13529
13529
13529
11008.2
1413.6
1000
1000
1000
1000
1000
1000
1000
864.723
151.26
1
1.00001
1.00001
1.00001
1
1
1
1
1
1
1
1
1
1
1
1
1
1
1
1
1
1
1
1
1
1
1
1
1
1
1
1
1
1
1
1
)
;
    }
    rightWall
    {
        type            calculated;
        value           nonuniform List<scalar> 
50
(
2773.61
2759.87
5752.91
8204.95
8302.85
8359.39
8853.72
9485.37
9460.61
9478.83
9077.08
5147.02
5162.75
4964.06
2977.46
106.686
52.9899
125.584
497.429
500
452.783
75.0621
9.8234
9.85429
11.2365
8.01113
1.00287
1.00288
1.00287
1.00346
1.00391
1.00035
1.00002
1.00001
1.00039
1.00121
1.00121
1.00121
1.00119
1.0001
1.00001
1
1
1
1
1
1
1
1
1
)
;
    }
    lowerWall
    {
        type            calculated;
        value           nonuniform List<scalar> 
62
(
13529
13529
13529
13529
13529
13529
13529
13529
13529
13529
13529
13529
13529
13529
13529
13529
13529
13529
13529
13529
13528.2
13522
13521.6
13521.6
13521.7
13528.7
13529
13528.9
13528.7
12520.8
5169.89
2638.57
2466.95
4330.44
4367.81
796.123
485.197
455.523
438.629
1434.13
5968.64
4955.14
1356.12
796.123
1116.69
1113.33
1129.76
1182.11
2493.89
4853.5
6252.26
6141.41
5564.41
4764.11
4309.76
4305.6
2689.16
1220.04
1804.68
2774.37
2774.39
2773.61
)
;
    }
    atmosphere
    {
        type            calculated;
        value           nonuniform List<scalar> 
46
(
1
1
1
1
1
1
1
1
1
1
1
1
1
1
1
1
1
1
1
1
1
1
1
1
1
1
1
1
1
1
1
1
1
1
1
1
1
1
1
1
1
1
1
1
1
1
)
;
    }
    defaultFaces
    {
        type            empty;
    }
}


// ************************************************************************* //
