/*--------------------------------*- C++ -*----------------------------------*\
  =========                 |
  \\      /  F ield         | OpenFOAM: The Open Source CFD Toolbox
   \\    /   O peration     | Website:  https://openfoam.org
    \\  /    A nd           | Version:  13
     \\/     M anipulation  |
\*---------------------------------------------------------------------------*/
FoamFile
{
    format      ascii;
    class       volVectorField;
    location    "0.75";
    object      U;
}
// * * * * * * * * * * * * * * * * * * * * * * * * * * * * * * * * * * * * * //

dimensions      [0 1 -1 0 0 0 0];

internalField   nonuniform List<vector> 
2268
(
(-0.0290784 0.00887793 0)
(-0.0297115 -0.000510559 0)
(-0.0324804 -0.00048621 0)
(-0.0416632 0.00181081 0)
(-0.0562863 0.00366492 0)
(-0.0759149 0.00517977 0)
(-0.0991818 0.0062548 0)
(-0.124084 0.00674399 0)
(-0.148414 0.0066624 0)
(-0.170422 0.00613365 0)
(-0.188948 0.00529421 0)
(-0.203314 0.00425405 0)
(-0.212993 0.00302845 0)
(-0.217666 0.00168316 0)
(-0.217286 0.000211033 0)
(-0.211237 -0.00171979 0)
(-0.198348 -0.00425927 0)
(-0.177883 -0.00715389 0)
(-0.150051 -0.0100508 0)
(-0.116008 -0.0125558 0)
(-0.0779457 -0.0137492 0)
(-0.0381116 -0.0112406 0)
(-0.0153034 -0.00770633 0)
(-0.0104197 0.017934 0)
(-0.0135599 0.00296859 0)
(-0.0257326 0.00583306 0)
(-0.0417247 0.0100169 0)
(-0.0618546 0.0136069 0)
(-0.0860363 0.0165071 0)
(-0.112967 0.0181527 0)
(-0.140359 0.018187 0)
(-0.165781 0.016833 0)
(-0.187391 0.0144715 0)
(-0.204084 0.0114854 0)
(-0.215327 0.00811833 0)
(-0.22075 0.00440553 0)
(-0.220237 0.000621673 0)
(-0.214199 -0.00324058 0)
(-0.20291 -0.00762961 0)
(-0.186235 -0.0125626 0)
(-0.164407 -0.0175517 0)
(-0.138268 -0.0220246 0)
(-0.109076 -0.0254166 0)
(-0.0783504 -0.0266588 0)
(-0.0467159 -0.0235197 0)
(-0.0214033 -0.0172101 0)
(0.00677426 0.0216096 0)
(-0.00709151 0.00886156 0)
(-0.0247147 0.0138358 0)
(-0.0452595 0.0198248 0)
(-0.068924 0.0253712 0)
(-0.0958375 0.0296493 0)
(-0.124438 0.0315038 0)
(-0.152205 0.030632 0)
(-0.176779 0.0275127 0)
(-0.196434 0.0228106 0)
(-0.210291 0.0172114 0)
(-0.218074 0.011087 0)
(-0.219614 0.0045171 0)
(-0.215103 -0.00192973 0)
(-0.205466 -0.00815952 0)
(-0.191402 -0.0147231 0)
(-0.173141 -0.0216632 0)
(-0.151255 -0.0283215 0)
(-0.126756 -0.0339682 0)
(-0.100797 -0.0379763 0)
(-0.0744909 -0.0393978 0)
(-0.0477988 -0.037069 0)
(-0.0240155 -0.0346427 0)
(0.0147852 0.0127036 0)
(-0.00741261 0.0142619 0)
(-0.0274366 0.0208413 0)
(-0.0503928 0.0285008 0)
(-0.076506 0.0363525 0)
(-0.105436 0.0426627 0)
(-0.134649 0.0451512 0)
(-0.161737 0.0431464 0)
(-0.184564 0.037637 0)
(-0.201576 0.0300612 0)
(-0.212271 0.0214813 0)
(-0.216686 0.0124207 0)
(-0.21484 0.00295381 0)
(-0.20716 -0.00602275 0)
(-0.195035 -0.0142554 0)
(-0.179297 -0.0225943 0)
(-0.160256 -0.0310879 0)
(-0.1386 -0.0389193 0)
(-0.115342 -0.0452746 0)
(-0.0914276 -0.049569 0)
(-0.0676454 -0.0511099 0)
(-0.0436931 -0.0498381 0)
(-0.0201578 -0.0506652 0)
(0.00268236 0.0228978 0)
(-0.0143573 0.0261921 0)
(-0.0343315 0.0319024 0)
(-0.0584256 0.0393428 0)
(-0.0856881 0.0469954 0)
(-0.114309 0.0530235 0)
(-0.142642 0.0560077 0)
(-0.168436 0.0538811 0)
(-0.189095 0.0465886 0)
(-0.203159 0.0360678 0)
(-0.210708 0.0242963 0)
(-0.212085 0.0122578 0)
(-0.207448 -2.928e-05 0)
(-0.197406 -0.0113268 0)
(-0.183654 -0.0212567 0)
(-0.166967 -0.031062 0)
(-0.147613 -0.0407917 0)
(-0.126328 -0.0494636 0)
(-0.104069 -0.0562319 0)
(-0.0815649 -0.0606075 0)
(-0.0594275 -0.0621712 0)
(-0.0373052 -0.0619561 0)
(-0.0134525 -0.0635641 0)
(0.00916107 0.0205114 0)
(-0.00675633 0.0382738 0)
(-0.0291224 0.0475292 0)
(-0.0548627 0.0560567 0)
(-0.0861433 0.0634351 0)
(-0.119788 0.0665044 0)
(-0.148716 0.0666238 0)
(-0.171696 0.0617594 0)
(-0.189244 0.0528051 0)
(-0.200705 0.040267 0)
(-0.205563 0.0257364 0)
(-0.204501 0.0108509 0)
(-0.197849 -0.00422522 0)
(-0.186386 -0.0175543 0)
(-0.171844 -0.0288881 0)
(-0.154814 -0.0399287 0)
(-0.135522 -0.0506516 0)
(-0.114788 -0.0599 0)
(-0.093525 -0.0668623 0)
(-0.0722987 -0.0711895 0)
(-0.0517131 -0.0727108 0)
(-0.0313305 -0.073539 0)
(-0.00831939 -0.0739894 0)
(-0.00115323 0.019686 0)
(-0.0102761 0.043568 0)
(-0.0300688 0.0569489 0)
(-0.0516398 0.0701225 0)
(-0.0753731 0.0837952 0)
(-0.102723 0.0899785 0)
(-0.133867 0.083667 0)
(-0.165283 0.0714413 0)
(-0.184396 0.058254 0)
(-0.193539 0.042859 0)
(-0.196443 0.0263631 0)
(-0.194085 0.00924598 0)
(-0.18638 -0.00854459 0)
(-0.174601 -0.0237091 0)
(-0.160189 -0.0363174 0)
(-0.14333 -0.0484526 0)
(-0.124399 -0.0599517 0)
(-0.104456 -0.0695246 0)
(-0.0844161 -0.0764356 0)
(-0.0647717 -0.0804729 0)
(-0.0462152 -0.0815835 0)
(-0.0279834 -0.0828363 0)
(-0.0102226 -0.0830126 0)
(-0.00945124 0.0244741 0)
(-0.0190674 0.0500052 0)
(-0.0378396 0.0645629 0)
(-0.0566013 0.0773488 0)
(-0.0747712 0.0900667 0)
(-0.0930126 0.098892 0)
(-0.113057 0.0999726 0)
(-0.135416 0.0915436 0)
(-0.158933 0.0682605 0)
(-0.177236 0.0451264 0)
(-0.182857 0.0261695 0)
(-0.179913 0.00732257 0)
(-0.17246 -0.0119175 0)
(-0.162266 -0.0282221 0)
(-0.14897 -0.0422072 0)
(-0.132533 -0.0556395 0)
(-0.114117 -0.0678791 0)
(-0.0952466 -0.0776261 0)
(-0.0768383 -0.0843965 0)
(-0.0594127 -0.0881036 0)
(-0.0437705 -0.0885207 0)
(-0.0290084 -0.0890577 0)
(-0.0246891 -0.0898666 0)
(-0.425404 0.0819976 0)
(-0.415111 -0.0133778 0)
(-0.222123 -0.0814892 0)
(0.0625383 -0.115884 0)
(0.304608 -0.0808976 0)
(0.431226 -0.0420885 0)
(0.48809 -0.0188108 0)
(0.524457 -0.00877567 0)
(0.545847 -0.00523494 0)
(0.556545 -0.00210933 0)
(0.558375 0.00106931 0)
(0.552771 0.00176653 0)
(0.54779 -0.000520954 0)
(0.529844 0.019507 0)
(0.492475 0.109861 0)
(-0.231414 0.0601287 0)
(-0.389553 -0.0281921 0)
(-0.416917 -0.0339541 0)
(-0.197402 -0.136447 0)
(-0.266238 0.202854 0)
(-0.0392444 -0.0297213 0)
(0.195703 -0.16207 0)
(0.316819 -0.155699 0)
(0.394545 -0.100452 0)
(0.449209 -0.0566698 0)
(0.485264 -0.0312212 0)
(0.513026 -0.018252 0)
(0.534065 -0.0117699 0)
(0.548384 -0.00600862 0)
(0.555279 0.000277098 0)
(0.552803 0.0043998 0)
(0.540853 0.00823695 0)
(0.521577 0.0413994 0)
(0.496127 0.146004 0)
(0.236097 0.28202 0)
(-0.0809851 0.0943154 0)
(-0.277632 -0.0120321 0)
(-0.00437224 -0.204646 0)
(-0.113604 0.22256 0)
(0.249902 -0.149852 0)
(0.321848 -0.201239 0)
(0.358465 -0.17751 0)
(0.398893 -0.120112 0)
(0.436821 -0.0684783 0)
(0.47003 -0.0388064 0)
(0.497181 -0.0252619 0)
(0.518947 -0.0174778 0)
(0.533982 -0.00970542 0)
(0.540418 -0.000563198 0)
(0.533742 0.00743058 0)
(0.509436 0.0167859 0)
(0.47909 0.0618235 0)
(0.448056 0.175733 0)
(0.368693 0.356027 0)
(0.215302 0.202598 0)
(-0.0920717 0.0114791 0)
(0.141748 -0.23628 0)
(0.204883 0.188253 0)
(0.320596 -0.197804 0)
(0.348666 -0.215117 0)
(0.357335 -0.186596 0)
(0.378428 -0.12974 0)
(0.405692 -0.0772609 0)
(0.439052 -0.0471521 0)
(0.468637 -0.0339073 0)
(0.491268 -0.023547 0)
(0.506628 -0.0126562 0)
(0.512095 0.000715311 0)
(0.499549 0.0140241 0)
(0.459986 0.0259278 0)
(0.421481 0.0798465 0)
(0.384056 0.214898 0)
(0.289313 0.371157 0)
(0.258817 0.265272 0)
(0.123427 0.0559425 0)
(0.192759 -0.186704 0)
(0.330713 -0.0444847 0)
(0.325663 -0.206169 0)
(0.34127 -0.217407 0)
(0.334026 -0.189139 0)
(0.33999 -0.135159 0)
(0.354453 -0.0904801 0)
(0.373684 -0.0658136 0)
(0.399058 -0.0500493 0)
(0.419686 -0.0359392 0)
(0.434142 -0.0197463 0)
(0.4398 0.00218713 0)
(0.432789 0.0311188 0)
(0.402016 0.046782 0)
(0.358302 0.0977987 0)
(0.323432 0.247174 0)
(0.242148 0.362781 0)
(0.262736 0.27033 0)
(0.2043 0.0789573 0)
(0.206906 -0.121932 0)
(0.274356 -0.159215 0)
(0.286949 -0.207947 0)
(0.299158 -0.211951 0)
(0.276461 -0.187353 0)
(0.272623 -0.141001 0)
(0.287426 -0.0993688 0)
(0.309302 -0.0735427 0)
(0.333893 -0.0576628 0)
(0.355071 -0.0421451 0)
(0.370774 -0.0234381 0)
(0.37846 0.00140836 0)
(0.37708 0.0335471 0)
(0.357165 0.0675354 0)
(0.29751 0.116737 0)
(0.27909 0.268066 0)
(0.263033 0.353308 0)
(0.280653 0.274622 0)
(0.228094 0.110159 0)
(0.192357 -0.0371495 0)
(0.206499 -0.248874 0)
(0.207276 -0.218627 0)
(0.208393 -0.209909 0)
(0.199502 -0.183894 0)
(0.203555 -0.143437 0)
(0.220822 -0.107196 0)
(0.245302 -0.0833833 0)
(0.271507 -0.0672185 0)
(0.295048 -0.0500592 0)
(0.313455 -0.0285165 0)
(0.323716 -0.000364463 0)
(0.325644 0.0355214 0)
(0.313764 0.0770614 0)
(0.266283 0.144221 0)
(0.247909 0.273714 0)
(0.267006 0.346463 0)
(0.277243 0.28144 0)
(0.211902 0.141851 0)
(0.157047 0.0447204 0)
(0.126646 -0.319551 0)
(0.0957281 -0.230329 0)
(0.121676 -0.208905 0)
(0.123669 -0.184458 0)
(0.134179 -0.148383 0)
(0.154063 -0.115972 0)
(0.180572 -0.093802 0)
(0.208648 -0.0772898 0)
(0.234563 -0.0586567 0)
(0.255991 -0.0347035 0)
(0.270085 -0.00346368 0)
(0.275879 0.0363343 0)
(0.269501 0.0840706 0)
(0.240183 0.154756 0)
(0.217801 0.272979 0)
(0.250111 0.343303 0)
(0.251129 0.290272 0)
(0.162596 0.170851 0)
(0.111664 0.102367 0)
(-0.0176921 0.0383462 0)
(-0.0334937 0.0628694 0)
(-0.0529827 0.0775474 0)
(-0.0695333 0.0890707 0)
(-0.0824973 0.099452 0)
(-0.0918491 0.106625 0)
(-0.0993394 0.107753 0)
(-0.106738 0.101577 0)
(-0.115992 0.0859503 0)
(-0.126713 0.0613912 0)
(-0.138226 0.0295047 0)
(-0.1462 0.00299692 0)
(-0.147466 -0.0184992 0)
(-0.142073 -0.0356796 0)
(-0.130164 -0.0511517 0)
(-0.114241 -0.0662398 0)
(-0.0973256 -0.079262 0)
(-0.0808913 -0.0889927 0)
(-0.0656867 -0.0953813 0)
(-0.0527477 -0.0984703 0)
(-0.043692 -0.0972903 0)
(-0.0395188 -0.0948267 0)
(-0.0693835 -0.0969591 0)
(-0.0246551 0.0674735 0)
(-0.0458981 0.0856389 0)
(-0.0677847 0.0960608 0)
(-0.0842928 0.103337 0)
(-0.0952858 0.108753 0)
(-0.100633 0.111211 0)
(-0.101343 0.108697 0)
(-0.0988752 0.099975 0)
(-0.0951599 0.0844005 0)
(-0.0914705 0.0634288 0)
(-0.08829 0.0379762 0)
(-0.085118 0.0100078 0)
(-0.0807203 -0.0195635 0)
(-0.0747915 -0.0471166 0)
(-0.0674962 -0.0694085 0)
(-0.0589328 -0.0862515 0)
(-0.0493691 -0.0984517 0)
(-0.0398487 -0.106591 0)
(-0.0322541 -0.110497 0)
(-0.0292049 -0.108806 0)
(-0.0319612 -0.0992385 0)
(-0.0394334 -0.0857664 0)
(-0.0516591 -0.0797549 0)
(-0.0264649 0.105252 0)
(-0.0515366 0.113612 0)
(-0.075834 0.117076 0)
(-0.0932122 0.117934 0)
(-0.103851 0.116714 0)
(-0.107604 0.112881 0)
(-0.105059 0.105062 0)
(-0.0972614 0.0923917 0)
(-0.0858994 0.0747919 0)
(-0.0728163 0.0530765 0)
(-0.0593659 0.0279528 0)
(-0.046102 0.000825018 0)
(-0.0332691 -0.0266468 0)
(-0.0209243 -0.052621 0)
(-0.00873424 -0.0755019 0)
(0.00307309 -0.0939581 0)
(0.0133712 -0.10651 0)
(0.0201855 -0.111919 0)
(0.0203782 -0.108979 0)
(0.00988331 -0.096845 0)
(-0.0139457 -0.0771994 0)
(-0.0504167 -0.0581049 0)
(-0.0957814 -0.0540921 0)
(-0.0244489 0.13803 0)
(-0.0494049 0.141135 0)
(-0.0763641 0.137421 0)
(-0.0952988 0.131028 0)
(-0.106301 0.122426 0)
(-0.109056 0.111519 0)
(-0.104165 0.0972833 0)
(-0.0927618 0.0793156 0)
(-0.0766953 0.0581598 0)
(-0.0581629 0.0345284 0)
(-0.0386939 0.00872483 0)
(-0.0191542 -0.0178144 0)
(-0.000708738 -0.0437739 0)
(0.0161478 -0.0679283 0)
(0.0313766 -0.0886607 0)
(0.0447177 -0.104126 0)
(0.0546687 -0.112454 0)
(0.0582465 -0.111921 0)
(0.050649 -0.100661 0)
(0.0258054 -0.0769838 0)
(-0.0211764 -0.0420537 0)
(-0.101565 -0.0068512 0)
(-0.238305 0.0246684 0)
(-0.0221394 0.161848 0)
(-0.0405165 0.161238 0)
(-0.0698005 0.152195 0)
(-0.0905342 0.139922 0)
(-0.10179 0.125054 0)
(-0.102843 0.108222 0)
(-0.094836 0.0885332 0)
(-0.0800183 0.0661763 0)
(-0.0611309 0.0422785 0)
(-0.0408548 0.0172055 0)
(-0.0195464 -0.00855356 0)
(0.0022717 -0.0339562 0)
(0.0226579 -0.0581784 0)
(0.0407275 -0.0806021 0)
(0.0562326 -0.0996618 0)
(0.0684529 -0.113024 0)
(0.0755778 -0.117949 0)
(0.0734532 -0.110583 0)
(0.0544166 -0.0868272 0)
(0.0113906 -0.0428015 0)
(-0.0628613 0.0207407 0)
(-0.19781 0.0812393 0)
(-0.616164 0.100411 0)
(-0.0229472 0.182868 0)
(-0.0199116 0.180755 0)
(-0.0532784 0.167049 0)
(-0.0754437 0.149834 0)
(-0.0867594 0.129984 0)
(-0.0859663 0.10885 0)
(-0.0751052 0.0844562 0)
(-0.0580118 0.0579769 0)
(-0.0378815 0.0312933 0)
(-0.0166589 0.00364646 0)
(0.00455419 -0.0219527 0)
(0.0254058 -0.0463307 0)
(0.0444201 -0.0684108 0)
(0.0603587 -0.0885564 0)
(0.0723935 -0.104692 0)
(0.0785334 -0.114092 0)
(0.0740027 -0.118893 0)
(0.056245 -0.108945 0)
(0.0143502 -0.0778952 0)
(-0.0667582 -0.0184126 0)
(-0.229667 0.0493389 0)
(-0.71825 0.248854 0)
(-1.45875 1.248 0)
(-0.117799 0.229044 0)
(-0.0148309 0.210072 0)
(-0.0467496 0.207277 0)
(-0.0458368 0.181357 0)
(-0.0506946 0.140398 0)
(-0.050919 0.102581 0)
(-0.0434793 0.0683533 0)
(-0.029936 0.036677 0)
(-0.0126775 0.00596293 0)
(0.00708231 -0.0181752 0)
(0.0269959 -0.0428324 0)
(0.0448091 -0.0666343 0)
(0.0588925 -0.0890173 0)
(0.0660261 -0.109817 0)
(0.0583759 -0.127527 0)
(0.0023084 -0.120653 0)
(-0.0657043 -0.0887185 0)
(-0.166075 -0.0138721 0)
(-0.321703 0.115445 0)
(-0.55467 0.370321 0)
(-0.853782 0.834737 0)
(-1.18625 1.38361 0)
(-1.35397 1.76751 0)
(-0.0134247 0.280409 0)
(0.00555095 0.212955 0)
(-0.0162157 0.23441 0)
(-0.0116896 0.20074 0)
(-0.0142179 0.149426 0)
(-0.0176073 0.0917168 0)
(-0.0206978 0.0357666 0)
(-0.021425 -0.00837878 0)
(-0.0197976 -0.0406987 0)
(-0.0172353 -0.0721696 0)
(-0.0155756 -0.102452 0)
(-0.0173627 -0.122778 0)
(-0.0259817 -0.128648 0)
(-0.0462908 -0.114941 0)
(-0.0841085 -0.0753674 0)
(-0.150879 -0.0232344 0)
(-0.255341 0.0418397 0)
(-0.400328 0.14032 0)
(-0.588594 0.294037 0)
(-0.811865 0.529362 0)
(-1.01903 0.853109 0)
(-1.14795 1.1685 0)
(-1.09565 1.22679 0)
(0.0122363 0.247301 0)
(0.0186943 0.201278 0)
(0.0162585 0.202407 0)
(0.025247 0.177411 0)
(0.0274105 0.1427 0)
(0.0255457 0.104198 0)
(0.0198475 0.066165 0)
(0.00975358 0.031885 0)
(-0.00473097 0.000747634 0)
(-0.0200141 -0.027559 0)
(-0.0365387 -0.0515437 0)
(-0.0583683 -0.066781 0)
(-0.088431 -0.0684016 0)
(-0.130464 -0.0497373 0)
(-0.18863 -0.0028871 0)
(-0.268619 0.0721526 0)
(-0.376201 0.171951 0)
(-0.514727 0.306645 0)
(-0.678334 0.486523 0)
(-0.848682 0.716274 0)
(-0.972815 0.961793 0)
(-1.00443 1.12864 0)
(-0.915576 1.04086 0)
(0.0183552 0.226268 0)
(0.0280779 0.201337 0)
(0.0369578 0.192765 0)
(0.0483063 0.170161 0)
(0.0530752 0.140911 0)
(0.0514314 0.108381 0)
(0.0432005 0.0746235 0)
(0.0287131 0.0419613 0)
(0.00962949 0.0127703 0)
(-0.0137247 -0.0107497 0)
(-0.0422448 -0.0276502 0)
(-0.0772624 -0.0340389 0)
(-0.120743 -0.024527 0)
(-0.174868 0.00815811 0)
(-0.240921 0.0706781 0)
(-0.320105 0.164295 0)
(-0.415633 0.28778 0)
(-0.527301 0.44275 0)
(-0.646498 0.629607 0)
(-0.755807 0.839358 0)
(-0.82392 1.02734 0)
(-0.820497 1.11599 0)
(-0.751134 0.992888 0)
(0.0182716 0.201702 0)
(0.0327387 0.19051 0)
(0.046607 0.180732 0)
(0.0584427 0.162418 0)
(0.0640405 0.139068 0)
(0.0627866 0.112907 0)
(0.0544436 0.0857665 0)
(0.0393297 0.0596726 0)
(0.0182998 0.0365792 0)
(-0.00870646 0.0179258 0)
(-0.0422095 0.00699445 0)
(-0.0825992 0.00821408 0)
(-0.130665 0.0270007 0)
(-0.186837 0.0696944 0)
(-0.250509 0.141944 0)
(-0.320655 0.245745 0)
(-0.396894 0.379333 0)
(-0.476789 0.539513 0)
(-0.552371 0.719246 0)
(-0.609902 0.901426 0)
(-0.635716 1.04574 0)
(-0.616272 1.08625 0)
(-0.561582 0.958386 0)
(0.0156856 0.176959 0)
(0.0320292 0.173758 0)
(0.0473321 0.166422 0)
(0.0589613 0.153431 0)
(0.0648603 0.13659 0)
(0.0643074 0.117386 0)
(0.0569966 0.0973199 0)
(0.0429591 0.078052 0)
(0.0224694 0.0613652 0)
(-0.00452677 0.0492602 0)
(-0.0382057 0.0451783 0)
(-0.0783236 0.0534179 0)
(-0.124727 0.0790034 0)
(-0.176588 0.127641 0)
(-0.232062 0.204316 0)
(-0.288623 0.310763 0)
(-0.343745 0.444575 0)
(-0.393924 0.599806 0)
(-0.432926 0.765588 0)
(-0.4519 0.92174 0)
(-0.444459 1.03268 0)
(-0.412335 1.04953 0)
(-0.365231 0.926903 0)
(0.0125701 0.155342 0)
(0.0281838 0.156714 0)
(0.0427363 0.152644 0)
(0.0535931 0.144583 0)
(0.0595207 0.133622 0)
(0.059785 0.120812 0)
(0.0539952 0.107351 0)
(0.0419783 0.0946542 0)
(0.0237364 0.0844357 0)
(-0.000758495 0.0788881 0)
(-0.0314704 0.0812164 0)
(-0.0676868 0.0953489 0)
(-0.108617 0.125782 0)
(-0.152651 0.177408 0)
(-0.197185 0.254361 0)
(-0.238873 0.357977 0)
(-0.274223 0.485482 0)
(-0.299499 0.6298 0)
(-0.310205 0.778766 0)
(-0.301551 0.91269 0)
(-0.271809 1.00142 0)
(-0.227184 1.00761 0)
(-0.182623 0.901616 0)
(0.009636 0.137824 0)
(0.023151 0.141562 0)
(0.0358519 0.140404 0)
(0.0455023 0.136424 0)
(0.0511891 0.130357 0)
(0.052192 0.122994 0)
(0.048065 0.115319 0)
(0.03853 0.108565 0)
(0.0234696 0.104317 0)
(0.00289776 0.104667 0)
(-0.0230141 0.112487 0)
(-0.0533009 0.131182 0)
(-0.0867706 0.16461 0)
(-0.121411 0.21682 0)
(-0.154293 0.291122 0)
(-0.181794 0.388437 0)
(-0.200191 0.505922 0)
(-0.206011 0.636423 0)
(-0.196136 0.768007 0)
(-0.168528 0.88291 0)
(-0.124283 0.956537 0)
(-0.0708866 0.960872 0)
(-0.0233309 0.875396 0)
(0.00707304 0.124189 0)
(0.0180489 0.12892 0)
(0.0285434 0.12997 0)
(0.0367921 0.129143 0)
(0.042042 0.126948 0)
(0.0436241 0.124006 0)
(0.0410898 0.121139 0)
(0.0341325 0.119423 0)
(0.0226011 0.12027 0)
(0.006554 0.125544 0)
(-0.0137317 0.137718 0)
(-0.0372258 0.159631 0)
(-0.0625339 0.194476 0)
(-0.0875204 0.245494 0)
(-0.10925 0.315261 0)
(-0.124195 0.404367 0)
(-0.128811 0.510133 0)
(-0.120096 0.625935 0)
(-0.0959619 0.740882 0)
(-0.0558852 0.839593 0)
(-0.00220664 0.902245 0)
(0.0574051 0.907419 0)
(0.109076 0.841695 0)
(0.00493315 0.114009 0)
(0.0134303 0.118874 0)
(0.0217661 0.121393 0)
(0.028612 0.122836 0)
(0.0333293 0.123542 0)
(0.035332 0.124003 0)
(0.0342134 0.124913 0)
(0.029694 0.127201 0)
(0.0216437 0.132093 0)
(0.0101542 0.141183 0)
(-0.00439114 0.156511 0)
(-0.0210489 0.180414 0)
(-0.038352 0.215405 0)
(-0.0542391 0.264014 0)
(-0.06597 0.328191 0)
(-0.0703283 0.408285 0)
(-0.0641487 0.501926 0)
(-0.0449338 0.60332 0)
(-0.0112407 0.703027 0)
(0.0369602 0.788133 0)
(0.096201 0.841925 0)
(0.15921 0.849363 0)
(0.214512 0.801355 0)
(0.00320905 0.106756 0)
(0.0095155 0.111215 0)
(0.0159219 0.114554 0)
(0.0214771 0.117495 0)
(0.0256447 0.120235 0)
(0.0279377 0.123162 0)
(0.0280182 0.126856 0)
(0.0256656 0.13211 0)
(0.0208024 0.139967 0)
(0.0135571 0.151755 0)
(0.00436038 0.1691 0)
(-0.00593263 0.193904 0)
(-0.0159235 0.228059 0)
(-0.0237355 0.273479 0)
(-0.026934 0.331599 0)
(-0.0227216 0.402602 0)
(-0.00837748 0.484528 0)
(0.0183573 0.572734 0)
(0.0583436 0.658541 0)
(0.111 0.731355 0)
(0.172949 0.778543 0)
(0.237508 0.788663 0)
(0.295493 0.755248 0)
(0.00186402 0.101897 0)
(0.00633781 0.105601 0)
(0.0111072 0.109237 0)
(0.0155349 0.113038 0)
(0.0191816 0.117079 0)
(0.0216627 0.121653 0)
(0.0227187 0.127238 0)
(0.0221997 0.134502 0)
(0.020091 0.144314 0)
(0.0165634 0.157762 0)
(0.0120497 0.17614 0)
(0.00734369 0.200885 0)
(0.0036631 0.233459 0)
(0.00266228 0.275264 0)
(0.00644261 0.327325 0)
(0.0173886 0.389699 0)
(0.0378111 0.460705 0)
(0.0695608 0.536342 0)
(0.113293 0.609809 0)
(0.168052 0.672382 0)
(0.230648 0.714206 0)
(0.29535 0.726597 0)
(0.354964 0.704692 0)
(0.000833443 0.0989319 0)
(0.0038375 0.101668 0)
(0.00726439 0.105201 0)
(0.0107394 0.109355 0)
(0.0139138 0.114097 0)
(0.0165001 0.119633 0)
(0.0183154 0.126349 0)
(0.0192783 0.134793 0)
(0.0194331 0.145678 0)
(0.0189895 0.159884 0)
(0.0183758 0.178429 0)
(0.0183036 0.202405 0)
(0.0198186 0.232886 0)
(0.0243279 0.270847 0)
(0.0335946 0.31696 0)
(0.0496143 0.371181 0)
(0.074328 0.432152 0)
(0.109226 0.49665 0)
(0.154756 0.559273 0)
(0.209883 0.613033 0)
(0.271737 0.650251 0)
(0.335568 0.664232 0)
(0.395813 0.651127 0)
(7.60493e-05 0.0973955 0)
(0.00191977 0.0990841 0)
(0.00426909 0.102218 0)
(0.00695512 0.106335 0)
(0.00970881 0.111302 0)
(0.0123293 0.117248 0)
(0.0147017 0.124472 0)
(0.0168035 0.133412 0)
(0.018727 0.144643 0)
(0.0207099 0.158866 0)
(0.0231714 0.176875 0)
(0.0267504 0.199494 0)
(0.0323389 0.227498 0)
(0.0411059 0.261537 0)
(0.0544957 0.302004 0)
(0.0741396 0.348766 0)
(0.10163 0.400726 0)
(0.138158 0.455356 0)
(0.184034 0.508458 0)
(0.238289 0.554546 0)
(0.298452 0.587632 0)
(0.360658 0.602475 0)
(0.420625 0.595883 0)
(-0.000452334 0.0969427 0)
(0.000485959 0.0975377 0)
(0.00197186 0.100082 0)
(0.00401484 0.103874 0)
(0.00639493 0.108703 0)
(0.00898649 0.114629 0)
(0.0117316 0.121872 0)
(0.014655 0.130772 0)
(0.0178833 0.141782 0)
(0.0216694 0.15545 0)
(0.0264179 0.172389 0)
(0.0327055 0.193219 0)
(0.0412966 0.218493 0)
(0.0531543 0.248627 0)
(0.0694391 0.283806 0)
(0.091451 0.323824 0)
(0.120462 0.367782 0)
(0.157421 0.413737 0)
(0.202558 0.458493 0)
(0.255045 0.497822 0)
(0.312832 0.527069 0)
(0.37281 0.542076 0)
(0.431688 0.540126 0)
(-0.000860111 0.0973033 0)
(-0.000574131 0.096787 0)
(0.000243672 0.0986215 0)
(0.00175732 0.101887 0)
(0.0038003 0.10631 0)
(0.00630565 0.111894 0)
(0.00925977 0.118788 0)
(0.0127218 0.127247 0)
(0.0168401 0.137616 0)
(0.0218711 0.150315 0)
(0.0281977 0.165808 0)
(0.0363406 0.184559 0)
(0.0469603 0.206962 0)
(0.0608535 0.233272 0)
(0.0789455 0.263536 0)
(0.102251 0.297497 0)
(0.131761 0.334406 0)
(0.168219 0.372781 0)
(0.211811 0.410226 0)
(0.261874 0.44354 0)
(0.316761 0.46913 0)
(0.374004 0.483685 0)
(0.431077 0.484864 0)
(-0.001153 0.0982372 0)
(-0.00133791 0.0966564 0)
(-0.00103704 0.0976988 0)
(3.74187e-05 0.100301 0)
(0.00177076 0.104135 0)
(0.00413916 0.109149 0)
(0.00716035 0.115433 0)
(0.010917 0.123166 0)
(0.0155681 0.132603 0)
(0.0213639 0.144054 0)
(0.0286594 0.157865 0)
(0.0379213 0.174376 0)
(0.0497232 0.193866 0)
(0.0647317 0.216485 0)
(0.0836888 0.242203 0)
(0.10738 0.270739 0)
(0.136562 0.301463 0)
(0.171803 0.333235 0)
(0.213256 0.364279 0)
(0.260418 0.392206 0)
(0.312002 0.414275 0)
(0.366077 0.427865 0)
(0.420714 0.430965 0)
(-0.00134759 0.0995821 0)
(-0.00187669 0.0969841 0)
(-0.00197465 0.0972015 0)
(-0.00126039 0.0990637 0)
(0.000181682 0.102189 0)
(0.00236675 0.106484 0)
(0.00533556 0.111984 0)
(0.00918244 0.118806 0)
(0.0140688 0.127128 0)
(0.0202309 0.13717 0)
(0.0279915 0.149179 0)
(0.0377637 0.163399 0)
(0.050045 0.180021 0)
(0.0653988 0.199133 0)
(0.0844294 0.220664 0)
(0.107751 0.244343 0)
(0.135934 0.269636 0)
(0.169406 0.295661 0)
(0.208288 0.3211 0)
(0.252209 0.344192 0)
(0.300187 0.362875 0)
(0.35074 0.375099 0)
(0.402405 0.379165 0)
(-0.00146559 0.101206 0)
(-0.00224046 0.097649 0)
(-0.00264659 0.0970449 0)
(-0.00223344 0.0981337 0)
(-0.00106462 0.100486 0)
(0.000898634 0.103974 0)
(0.003716 0.108589 0)
(0.00748774 0.114395 0)
(0.0123694 0.121505 0)
(0.0185785 0.130068 0)
(0.0264025 0.140251 0)
(0.0362018 0.152218 0)
(0.0484047 0.166093 0)
(0.0634891 0.181923 0)
(0.0819553 0.199625 0)
(0.104293 0.218955 0)
(0.13094 0.23947 0)
(0.162215 0.260482 0)
(0.19821 0.281009 0)
(0.238653 0.299761 0)
(0.282813 0.315211 0)
(0.329565 0.325781 0)
(0.377821 0.330072 0)
(-0.00152036 0.103004 0)
(-0.00246641 0.0985611 0)
(-0.00310956 0.0971625 0)
(-0.00295246 0.0974777 0)
(-0.00204389 0.0990378 0)
(-0.00033057 0.101681 0)
(0.00225853 0.105366 0)
(0.00582572 0.110113 0)
(0.0105161 0.115985 0)
(0.0165253 0.12307 0)
(0.0241045 0.131471 0)
(0.0335636 0.141288 0)
(0.0452666 0.152596 0)
(0.059617 0.165407 0)
(0.0770331 0.179641 0)
(0.0979155 0.19509 0)
(0.12261 0.211394 0)
(0.15136 0.22802 0)
(0.184236 0.244234 0)
(0.221042 0.259094 0)
(0.261237 0.271484 0)
(0.303988 0.280217 0)
(0.348496 0.28417 0)
(-0.00152129 0.104892 0)
(-0.00258034 0.0996496 0)
(-0.00340462 0.097503 0)
(-0.00346819 0.0970697 0)
(-0.00280925 0.0978485 0)
(-0.00136444 0.09965 0)
(0.000939802 0.102404 0)
(0.00420604 0.106099 0)
(0.00856643 0.110754 0)
(0.014193 0.116413 0)
(0.0213018 0.123128 0)
(0.0301549 0.130949 0)
(0.041057 0.139906 0)
(0.0543453 0.14999 0)
(0.0703691 0.161122 0)
(0.0894609 0.173131 0)
(0.111904 0.185731 0)
(0.137894 0.198515 0)
(0.167492 0.210936 0)
(0.200559 0.222311 0)
(0.236704 0.231833 0)
(0.275315 0.23863 0)
(0.315825 0.241834 0)
(-0.0014758 0.1068 0)
(-0.00260202 0.100858 0)
(-0.00356124 0.0980254 0)
(-0.00381617 0.0968885 0)
(-0.00339608 0.096921 0)
(-0.00223097 0.0979123 0)
(-0.000248225 0.0997678 0)
(0.00264982 0.102451 0)
(0.00658263 0.105949 0)
(0.0116991 0.11027 0)
(0.0181819 0.115427 0)
(0.0262489 0.121431 0)
(0.0361514 0.12828 0)
(0.0481667 0.135941 0)
(0.0625832 0.144339 0)
(0.0796777 0.153331 0)
(0.099687 0.162696 0)
(0.122777 0.172126 0)
(0.149009 0.181218 0)
(0.178292 0.189481 0)
(0.210347 0.196342 0)
(0.24474 0.201178 0)
(0.281079 0.203344 0)
(-0.00139003 0.108668 0)
(-0.00254562 0.102139 0)
(-0.00360111 0.0986955 0)
(-0.00402154 0.0969146 0)
(-0.00382771 0.0962533 0)
(-0.0029457 0.0964856 0)
(-0.0013049 0.0974987 0)
(0.00118332 0.0992344 0)
(0.00462662 0.10166 0)
(0.00915142 0.104755 0)
(0.0149101 0.108503 0)
(0.0220812 0.112885 0)
(0.0308681 0.117873 0)
(0.0414949 0.123419 0)
(0.0541957 0.129443 0)
(0.0691978 0.135827 0)
(0.0866998 0.142398 0)
(0.106847 0.148924 0)
(0.129702 0.155114 0)
(0.155215 0.160619 0)
(0.183198 0.165042 0)
(0.213351 0.167955 0)
(0.245417 0.168899 0)
(-0.00126965 0.110446 0)
(-0.00242406 0.103454 0)
(-0.00354152 0.0994832 0)
(-0.00410321 0.0971286 0)
(-0.00412035 0.0958381 0)
(-0.00351685 0.0953764 0)
(-0.00222489 0.095618 0)
(-0.00016585 0.096489 0)
(0.00275505 0.0979409 0)
(0.00664441 0.0999335 0)
(0.0116272 0.10243 0)
(0.0178475 0.105389 0)
(0.0254674 0.108763 0)
(0.0346643 0.11249 0)
(0.045624 0.116488 0)
(0.0585294 0.120653 0)
(0.0735437 0.124845 0)
(0.0907923 0.128892 0)
(0.11034 0.132584 0)
(0.13217 0.135678 0)
(0.156161 0.137907 0)
(0.182117 0.13899 0)
(0.209886 0.13862 0)
(-0.00112038 0.112091 0)
(-0.00224883 0.104767 0)
(-0.0033985 0.100361 0)
(-0.00407791 0.09751 0)
(-0.00428746 0.0956629 0)
(-0.00395011 0.0945805 0)
(-0.00300167 0.0941307 0)
(-0.00137273 0.0942291 0)
(0.00101655 0.094815 0)
(0.00425662 0.0958361 0)
(0.00844774 0.0972402 0)
(0.0137044 0.0989713 0)
(0.0201537 0.100967 0)
(0.0279334 0.103154 0)
(0.0371876 0.105451 0)
(0.048059 0.107758 0)
(0.0606779 0.109962 0)
(0.0751487 0.11193 0)
(0.0915337 0.113511 0)
(0.109836 0.114538 0)
(0.129987 0.114839 0)
(0.151865 0.114238 0)
(0.175392 0.11255 0)
(-0.000949096 0.11357 0)
(-0.0020345 0.106051 0)
(-0.0031901 0.101304 0)
(-0.00396385 0.0980368 0)
(-0.00434354 0.0957092 0)
(-0.00425245 0.0940842 0)
(-0.00363099 0.0930276 0)
(-0.0024187 0.0924499 0)
(-0.000549976 0.0922821 0)
(0.0020496 0.0924633 0)
(0.00546019 0.0929316 0)
(0.00977104 0.0936204 0)
(0.0150801 0.0944577 0)
(0.0214924 0.0953643 0)
(0.0291169 0.0962548 0)
(0.0380616 0.0970365 0)
(0.0484264 0.0976106 0)
(0.0602941 0.0978715 0)
(0.0737187 0.0977085 0)
(0.0887137 0.0970089 0)
(0.105244 0.0956638 0)
(0.12324 0.0935739 0)
(0.142675 0.0906401 0)
(-0.000765243 0.11486 0)
(-0.00179907 0.107284 0)
(-0.00293972 0.10229 0)
(-0.00378429 0.0986852 0)
(-0.00430764 0.0959531 0)
(-0.0044354 0.0938646 0)
(-0.00411412 0.0922878 0)
(-0.00329282 0.0911317 0)
(-0.00191842 0.0903229 0)
(6.69461e-05 0.0897942 0)
(0.00272758 0.0894773 0)
(0.00613138 0.0892993 0)
(0.0103527 0.0891818 0)
(0.0154702 0.0890417 0)
(0.0215642 0.0887922 0)
(0.0287143 0.0883448 0)
(0.0369939 0.0876109 0)
(0.0464647 0.0865031 0)
(0.0571695 0.0849378 0)
(0.0691234 0.0828377 0)
(0.0823102 0.0801368 0)
(0.0966918 0.0767853 0)
(0.112269 0.0727427 0)
(-0.000582854 0.115952 0)
(-0.00156903 0.108454 0)
(-0.00267934 0.103298 0)
(-0.00357047 0.0994287 0)
(-0.00420603 0.0963643 0)
(-0.00451767 0.09389 0)
(-0.0044606 0.0918794 0)
(-0.00399432 0.0902426 0)
(-0.00307764 0.088904 0)
(-0.0016666 0.0877922 0)
(0.000286951 0.0868346 0)
(0.00283579 0.0859537 0)
(0.00603459 0.0850679 0)
(0.00994135 0.0840919 0)
(0.0146146 0.0829388 0)
(0.0201113 0.0815236 0)
(0.0264838 0.0797649 0)
(0.0337757 0.0775883 0)
(0.0420178 0.0749279 0)
(0.051222 0.0717297 0)
(0.0613798 0.0679556 0)
(0.0724691 0.0635862 0)
(0.0845024 0.0586176 0)
(-0.000422969 0.116862 0)
(-0.00138066 0.10956 0)
(-0.00245235 0.104311 0)
(-0.00336373 0.100237 0)
(-0.00407405 0.0969062 0)
(-0.00452727 0.0941207 0)
(-0.00469078 0.0917619 0)
(-0.00453579 0.0897413 0)
(-0.00403266 0.0879823 0)
(-0.00314934 0.0864107 0)
(-0.00185083 0.0849501 0)
(-9.88499e-05 0.0835205 0)
(0.00214834 0.0820372 0)
(0.00493233 0.0804146 0)
(0.00829554 0.0785666 0)
(0.0122789 0.076411 0)
(0.0169193 0.0738726 0)
(0.0222471 0.0708858 0)
(0.0282834 0.0673974 0)
(0.0350357 0.0633694 0)
(0.0424977 0.0587815 0)
(0.0506528 0.0536336 0)
(0.0595125 0.047943 0)
(-0.000320682 0.117638 0)
(-0.00128587 0.110618 0)
(-0.0023147 0.105312 0)
(-0.00321498 0.101076 0)
(-0.00395591 0.0975348 0)
(-0.0045025 0.09451 0)
(-0.00483811 0.0918881 0)
(-0.00494651 0.0895807 0)
(-0.00480888 0.0875096 0)
(-0.00440354 0.0855979 0)
(-0.0037059 0.0837664 0)
(-0.00268861 0.0819322 0)
(-0.00132184 0.0800095 0)
(0.000425831 0.0779112 0)
(0.00258643 0.0755518 0)
(0.00518994 0.0728524 0)
(0.00826416 0.0697423 0)
(0.0118323 0.0661627 0)
(0.0159104 0.0620697 0)
(0.0205041 0.0574372 0)
(0.025608 0.0522584 0)
(0.031207 0.0465469 0)
(0.037305 0.0403344 0)
(-0.000338346 0.118384 0)
(-0.00134896 0.111657 0)
(-0.00232964 0.10628 0)
(-0.00317922 0.101902 0)
(-0.0039014 0.0982005 0)
(-0.00449135 0.0950076 0)
(-0.00495068 0.0922085 0)
(-0.00527519 0.0897121 0)
(-0.00545549 0.0874364 0)
(-0.00547849 0.0853018 0)
(-0.00532793 0.0832259 0)
(-0.00498465 0.0811232 0)
(-0.00442678 0.0789059 0)
(-0.00363022 0.0764858 0)
(-0.0025694 0.0737777 0)
(-0.00121843 0.0707037 0)
(0.000447745 0.0671957 0)
(0.00245156 0.0631994 0)
(0.00480965 0.0586792 0)
(0.00753132 0.0536187 0)
(0.0106161 0.048023 0)
(0.0140517 0.0419201 0)
(0.017834 0.0353568 0)
(-0.000579023 0.119265 0)
(-0.00163463 0.112705 0)
(-0.00255118 0.107185 0)
(-0.00330258 0.102666 0)
(-0.00395821 0.0988524 0)
(-0.004548 0.0955646 0)
(-0.00509012 0.0926764 0)
(-0.00558973 0.0900885 0)
(-0.00604485 0.0877142 0)
(-0.00644916 0.0854699 0)
(-0.0067929 0.0832702 0)
(-0.00706287 0.0810265 0)
(-0.00724225 0.0786479 0)
(-0.00731057 0.0760436 0)
(-0.00724409 0.073127 0)
(-0.00701643 0.0698192 0)
(-0.00659983 0.0660533 0)
(-0.00596677 0.0617784 0)
(-0.00509214 0.0569633 0)
(-0.00395556 0.0515996 0)
(-0.00254467 0.0457046 0)
(-0.000860184 0.0393233 0)
(0.00109369 0.0325249 0)
(-0.00117736 0.120513 0)
(-0.00217048 0.113759 0)
(-0.00299559 0.107972 0)
(-0.00360455 0.103317 0)
(-0.00416159 0.0994463 0)
(-0.00472568 0.0961404 0)
(-0.00532478 0.0932497 0)
(-0.00596932 0.090664 0)
(-0.00666252 0.0882907 0)
(-0.00740342 0.0860423 0)
(-0.00818722 0.0838295 0)
(-0.00900476 0.0815599 0)
(-0.00984175 0.0791383 0)
(-0.0106782 0.0764694 0)
(-0.0114885 0.0734625 0)
(-0.0122417 0.0700354 0)