/*--------------------------------*- C++ -*----------------------------------*\
  =========                 |
  \\      /  F ield         | OpenFOAM: The Open Source CFD Toolbox
   \\    /   O peration     | Website:  https://openfoam.org
    \\  /    A nd           | Version:  13
     \\/     M anipulation  |
\*---------------------------------------------------------------------------*/
FoamFile
{
    format      ascii;
    class       volScalarField;
    location    "1.9";
    object      alpha.air;
}
// * * * * * * * * * * * * * * * * * * * * * * * * * * * * * * * * * * * * * //

dimensions      [];

internalField   nonuniform List<scalar> 
2268
(
1.83502e-13
2.80776e-13
3.03919e-13
2.1329e-13
1.46841e-13
8.45749e-14
4.28132e-14
2.12815e-14
1.13024e-14
6.2871e-15
3.69102e-15
3.02993e-15
4.31114e-15
1.05915e-14
2.57091e-14
2.67466e-14
2.34083e-14
5.26684e-14
1.33271e-13
9.24891e-14
1.33027e-13
2.10665e-13
3.67654e-13
7.40721e-13
1.37928e-12
1.35175e-12
1.14006e-12
8.48042e-13
5.47056e-13
3.07051e-13
1.58854e-13
8.62178e-14
5.12418e-14
3.87892e-14
4.86644e-14
1.2852e-13
4.29925e-13
1.12747e-12
6.55351e-13
5.21203e-13
1.69508e-12
6.53589e-12
3.43028e-12
1.20145e-12
1.16947e-10
3.34088e-11
2.06863e-12
3.34905e-12
2.54862e-12
2.53653e-12
1.927e-12
1.2225e-12
7.20845e-13
4.09113e-13
2.50358e-13
1.8948e-13
2.28421e-13
5.31097e-13
1.97678e-12
6.91434e-12
2.06883e-11
4.92863e-11
6.86062e-11
1.71125e-10
3.15625e-10
7.2195e-10
1.69405e-09
3.63006e-09
1.36113e-09
6.01709e-12
8.57402e-12
8.39264e-12
6.99758e-12
5.57825e-12
3.97928e-12
2.66524e-12
1.62855e-12
1.06971e-12
9.31551e-13
1.26477e-12
3.3997e-12
1.17924e-11
3.75278e-11
1.1376e-10
2.92689e-10
6.1349e-10
1.01394e-09
1.49347e-09
3.11476e-09
8.1897e-09
1.502e-08
6.44913e-09
1.78032e-11
2.80161e-11
2.85715e-11
2.43204e-11
1.93748e-11
1.50699e-11
1.0638e-11
7.42486e-12
5.33294e-12
5.07081e-12
7.31222e-12
1.32618e-11
3.18094e-11
8.23368e-11
2.46349e-10
5.49546e-10
8.94687e-10
1.04525e-09
1.0966e-09
1.1032e-09
1.16812e-09
1.12779e-09
1.41892e-09
5.32567e-11
7.01348e-11
7.52925e-11
7.23424e-11
6.30991e-11
5.76013e-11
5.1968e-11
4.07583e-11
3.18546e-11
2.82249e-11
2.80228e-11
3.19947e-11
4.78533e-11
9.96077e-11
1.36203e-10
1.65769e-10
1.87188e-10
2.02158e-10
2.05679e-06
2.17847e-05
7.02165e-05
0.000134544
0.000168689
8.42599e-11
1.28878e-10
1.43749e-10
1.52603e-10
1.57408e-10
1.60067e-10
1.61357e-10
1.62232e-10
1.51056e-10
1.26856e-10
1.23503e-10
1.5008e-10
2.33546e-10
8.25811e-10
6.86962e-09
6.60074e-08
5.52895e-07
6.39214e-06
6.0489e-05
0.000228982
0.000592549
0.00115528
0.00176637
6.38684e-10
3.04178e-10
2.99545e-10
3.05876e-10
3.67767e-10
4.14863e-10
4.16634e-10
4.21609e-10
3.95542e-10
3.85043e-10
4.2022e-10
6.42419e-10
1.40944e-09
7.51696e-09
5.52403e-08
4.31216e-07
3.26192e-06
2.04713e-05
9.13602e-05
0.000231606
0.000466377
0.000736949
0.00163325
0.000328962
0.000329789
0.00315373
0.0214113
0.0333318
0.0651895
0.0735582
0.073483
0.0471728
0.0403631
0.0474503
0.0828235
0.116962
0.0926063
0.0227899
0.0149346
0.0149075
0.0149108
0.0149112
0.00476818
0.00549005
0.00261809
0.000339371
0.00033842
0.00033935
0.00698196
0.0106891
0.034693
0.0470107
0.0439201
0.0431829
0.106722
0.107959
0.0507281
0.0148591
0.0148862
0.0266451
0.014911
0.0167879
0.0180383
0.0197819
0.0138865
0.0060091
0.00272275
2.74418e-05
6.10448e-07
0.0323554
0.190535
0.222552
0.135056
0.115288
0.227456
0.307353
0.221948
0.19378
0.194444
0.071938
0.015629
0.0155965
0.0216304
0.0265855
0.0245353
0.0153055
0.000816844
7.0886e-07
5.2472e-07
0.36963
0.567327
0.558379
0.506822
0.475724
0.477581
0.476132
0.477119
0.442778
0.169821
0.0215502
0.0164145
0.0167131
0.0269264
0.026971
0.0189101
0.000980502
5.23862e-07
5.52381e-07
0.20548
0.564998
0.568639
0.568475
0.554475
0.483179
0.340138
0.382708
0.306636
0.12594
0.0660323
0.0536961
0.0166641
0.0188749
0.0254702
0.00620426
0.000863409
0.00395911
5.24011e-07
0.0356127
0.322763
0.552881
0.568469
0.568349
0.323497
0.0245296
0.0255266
0.0116589
0.00698325
0.067419
0.0792307
0.0513345
0.0104221
0.0104026
0.0195304
0.0705878
0.0227496
7.07562e-07
0.00452206
0.022593
0.0992143
0.277188
0.2727
0.0653657
-2.31149e-09
-2.1048e-12
-2.92735e-20
9.06083e-21
0.0657277
0.0945523
0.079421
0.0206647
0.0172107
0.157788
0.139014
0.0167388
2.81802e-05
9.03332e-08
7.39233e-08
4.55104e-08
4.8929e-09
3.99076e-08
-4.14567e-08
3.13398e-05
5.20991e-06
-1.06429e-23
-1.45133e-06
2.38419e-09
1.63805e-09
8.01741e-10
7.10063e-10
9.15495e-10
1.38856e-09
2.2329e-09
2.34212e-09
2.12868e-09
1.86315e-09
2.00192e-09
2.39295e-09
3.39809e-09
1.2732e-08
3.11996e-08
1.16009e-07
7.65955e-07
4.96267e-06
2.73725e-05
3.12152e-05
3.04251e-05
3.2549e-05
0.00226799
2.0105e-09
1.32736e-09
6.6551e-10
5.88734e-10
7.06229e-10
1.34367e-09
3.21251e-09
5.18378e-09
5.95665e-09
7.34321e-09
9.84314e-09
1.16533e-08
1.30708e-08
3.80631e-08
6.06835e-08
9.96384e-08
1.25326e-07
2.31819e-07
0.000427768
0.0106265
0.0283557
0.0511512
0.0747601
4.4087e-10
4.36443e-10
4.4087e-10
4.36443e-10
4.35432e-10
4.35763e-10
6.63866e-10
6.46769e-10
7.34419e-10
6.89361e-10
5.36262e-09
1.02292e-08
4.12074e-08
0.000417033
0.00562073
0.0138268
0.0251453
0.0450637
0.0864033
0.134076
0.165472
0.154193
0.118127
0.00532892
0.00698757
0.00888893
0.0034411
0.00157386
5.01785e-05
7.6902e-09
0.000172429
0.00672079
0.0158178
0.0266261
0.0413712
0.0652012
0.10254
0.145625
0.142059
0.119467
0.13236
0.168411
0.168419
0.168438
0.114174
0.0158714
0.193688
0.0751664
0.0105674
0.00250986
0.00162212
0.020453
0.126939
0.178649
0.17899
0.177891
0.18226
0.201204
0.203053
0.202728
0.196968
0.157367
0.0809598
0.0431875
0.0705681
0.0798617
0.0266638
0.00474953
3.10845e-06
0.206505
0.0529045
0.00877738
0.00400786
0.00168064
0.0218235
0.126365
0.135382
0.0758663
0.0588445
0.0588514
0.0670714
0.042391
0.020777
0.0201482
0.0201655
0.020128
0.0149284
0.00696445
0.000217649
2.74831e-06
1.193e-06
1.10556e-06
0.137353
0.0529397
0.0185923
0.0187559
0.0195741
0.0228655
0.030491
0.0425857
0.0613224
0.0860593
0.12085
0.178968
0.240375
0.294761
0.3499
0.405969
0.442533
0.433159
0.373276
0.269476
0.139793
0.0322904
1.45932e-06
0.415563
0.428591
0.467837
0.483214
0.500715
0.55149
0.615375
0.68385
0.757641
0.828398
0.886362
0.928973
0.960106
0.990295
0.993981
0.989468
0.988092
0.986678
0.972662
0.939448
0.870407
0.763921
0.611201
0.979157
0.959527
0.949726
0.961696
0.995236
0.999998
1
1
1
1
1
0.999999
0.999999
0.999999
0.999999
0.999999
0.999999
0.999999
0.999999
0.999999
0.999998
0.999998
0.999998
0.999999
0.999999
0.999999
0.999986
0.999029
0.999649
1
1
1
1
0.999954
0.999916
0.99996
0.999998
1
1
1
1
1
1
1
1
1
0.999999
0.99999
0.999998
0.999809
0.999992
0.999999
1
1
0.999996
0.999913
0.999825
0.999825
0.999913
0.999998
1
0.999999
0.999999
0.999999
1
1
1
1
1
0.999999
0.999988
0.999997
1
0.999999
1
1
1
0.999959
0.999827
0.999825
0.999825
0.99996
0.999997
0.999997
0.999997
0.999998
0.999999
0.999999
0.999999
1
1
1
0.999999
0.999999
1
1
1
1
1
1
0.999986
0.999867
0.999827
0.999933
0.999997
0.999997
0.999997
0.999997
0.999998
0.999999
0.999999
1
1
1
1
0.999999
0.999999
1
1
1
1
1
1
0.999999
0.999999
0.999988
0.999999
0.999999
0.999997
0.999998
0.999999
1
1
1
1
1
1
1
1
1
1
1
1
1
1
1
1
1
1
1
0.999999
0.999999
1
1
1
1
1
1
1
1
1
1
1
1
1
1
1
1
1
1
1
1
0.999999
0.999999
0.999999
1
1
1
1
1
1
1
1
1
1
1
1
1
1
1
1
1
1
1
1
0.999999
0.999999
1
1
1
1
1
1
1
1
1
1
1
1
1
1
1
1
1
1
1
1
1
1
1
1
1
1
1
1
1
1
1
1
1
1
1
1
1
1
1
1
1
1
1
1
1
1
1
1
1
1
1
1
1
1
1
1
1
1
1
1
1
1
1
1
1
1
1
1
1
1
1
1
1
1
1
1
1
1
1
1
1
1
1
1
1
1
1
1
1
1
1
1
1
1
1
1
1
1
1
1
1
1
1
1
1
1
1
1
1
1
1
1
1
1
1
1
1
1
1
1
1
1
1
1
1
1
1
1
1
1
1
1
1
1
1
1
1
1
1
1
1
1
1
1
1
1
1
1
1
1
1
1
1
1
1
1
1
1
1
1
1
1
1
1
1
1
1
1
1
1
1
1
1
1
1
1
1
1
1
1
1
1
1
1
1
1
1
1
1
1
1
1
1
1
1
1
1
1
1
1
1
1
1
1
1
1
1
1
1
1
1
1
1
1
1
1
1
1
1
1
1
1
1
1
1
1
1
1
1
1
1
1
1
1
1
1
1
1
1
1
1
1
1
1
1
1
1
1
1
1
1
1
1
1
1
1
1
1
1
1
1
1
1
1
1
1
1
1
1
1
1
1
1
1
1
1
1
1
1
1
1
1
1
1
1
1
1
1
1
1
1
1
1
1
1
1
1
1
1
1
1
1
1
1
1
1
1
1
1
1
1
1
1
1
1
1
1
1
1
1
1
1
1
1
1
1
1
1
1
1
1
1
1
1
1
1
1
1
1
1
1
1
1
1
1
1
1
1
1
1
1
1
1
1
1
1
1
1
1
1
1
1
1
1
1
1
1
1
1
1
1
1
1
1
1
1
1
1
1
1
1
1
1
1
1
1
1
1
1
1
1
1
1
1
1
1
1
1
1
1
1
1
1
1
1
1
1
1
1
1
1
1
1
1
1
1
1
1
1
1
1
1
1
1
1
1
1
1
1
1
1
1
1
1
1
1
1
1
1
1
1
1
1
1
1
1
1
1
1
1
1
1
1
1
1
1
1
1
1
1
1
1
1
1
1
1
1
1
1
1
1
1
1
1
1
1
1
1
1
1
1
1
1
1
1
1
1
1
1
1
1
1
1
1
1
1
1
1
1
1
1
1
1
1
1
1
1
1
1
1
1
1
1
1
1
1
1
1
1
1
1
1
1
1
1
1
1
1
1
1
1
1
1
1
1
1
1
1
1
1
1
1
1
1
1
1
1
1
1
1
1
1
1
1
1
1
1
1
1
1
1
1
1
1
1
1
1
1
1
1
1
1
1
1
1
1
1
1
1
1
1
1
1
1
1
0.0131414
0.0131467
0.00476443
0.00865891
0.0581636
0.00784416
0.00878618
0.100344
0.0109961
0.00893394
0.034749
0.125821
0.000105536
0.0144676
0.0342276
0.0300144
0.00018994
0.00265524
0.00298331
1.80027e-19
4.90653e-06
2.11582e-07
2.67534e-09
2.34506e-09
5.60238e-07
1.31351e-07
7.90462e-08
2.951e-08
0.453068
0.220145
1.59566e-06
1.15506e-06
0.996609
0.972249
0.90447
0.804976
0.999999
1
0.999998
0.999998
1
1
1
1
1
1
1
1
1
1
1
1
1
1
1
1
1
1
1
1
1
1
1
1
1
1
1
1
1
1
1
1
1
1
1
1
1
1
1
1
1
1
1
1
1
1
1
1
1
1
1
1
1
1
1
1
1
1
1
1
1
1
1
1
1
1
1
1
1
1
1
1
1
1
1
1
1
1
1
1
1
1
1
1
1
1
1
1
1
1
1
1
1
1
1
1
1
1
1
1
1
1
1
1
1
1
1
1
1
1
1
1
1
1
1
1
1
1
1
1
1
1
1
1
1
1
1
1
0.0795732
0.168535
0.116478
0.103262
0.167805
0.175283
0.155583
0.0143582
0.000419095
4.99216e-05
4.50648e-06
9.50032e-05
0.000121152
4.6984e-05
4.78195e-05
4.54234e-05
-6.75322e-07
0.00368724
0.0776547
0.180884
0.186106
0.186153
0.18607
0.186089
0.123624
0.103446
0.120021
0.0143062
0.00332687
0.00530582
0.0035599
0.00136875
0.000626971
0.000456544
0.000215188
1.78965e-09
0.012544
0.0984443
0.153647
0.117961
0.186104
0.166057
0.0265489
0.00947201
0.139579
0.167267
0.167465
0.0852409
0.0268621
0.00458556
0.00159231
4.60189e-05
0.000133905
0.000385712
0.000256848
0.00916943
0.07589
0.00984375
0.0134184
0.0290344
0.0129409
6.36291e-05
6.39777e-05
0.0754572
0.167409
0.16682
0.100527
0.000799199
3.23576e-05
2.47859e-05
8.20547e-05
0.000216028
0.00039033
0.000308784
0.000547103
0.00176257
7.3167e-09
2.42891e-08
7.81548e-21
-1.87179e-24
2.70943e-06
2.04196e-05
0.0144475
0.0394797
0.0248851
1.11864e-06
2.05166e-05
5.32509e-05
2.28756e-05
2.12907e-05
0.000246633
0.000393626
0.000187878
1.45807e-05
2.15046e-05
9.25603e-09
1.89216e-08
9.52912e-24
9.68238e-06
5.30247e-05
5.05476e-05
2.76285e-13
-5.50591e-10
7.7267e-08
4.35079e-07
2.02865e-05
5.24976e-05
2.2626e-05
3.37479e-07
3.4047e-07
3.93543e-07
7.45171e-05
0.00334764
0.00806914
4.9651e-09
5.41541e-09
5.19019e-09
3.55656e-09
-9.66222e-14
-2.55266e-13
5.76643e-14
8.69992e-08
4.78787e-07
1.55672e-06
4.4057e-07
1.50574e-07
3.26025e-07
2.99507e-07
2.96981e-07
3.32335e-07
0.000881095
0.0209274
0.0271459
4.50543e-07
2.21511e-24
1.29469e-22
2.54188e-20
-2.6945e-20
7.49455e-20
6.78248e-09
5.01565e-08
2.64826e-07
1.88064e-07
1.16419e-07
1.11059e-07
1.17831e-08
6.52655e-09
5.87089e-08
1.44891e-07
0.00105775
0.0172845
0.0268126
0.689442
0.530964
0.260164
0.0734582
0.0704279
0.0804657
0.0243684
0.00361611
3.03336e-08
7.56663e-08
1.84416e-08
3.16474e-10
6.52655e-09
1.89464e-10
1.42614e-17
-1.02858e-09
-7.52831e-06
-7.18433e-05
0.00457486
0.999998
0.99895
0.986058
0.985678
0.971504
0.798902
0.611023
0.513864
0.400957
0.259056
0.18006
0.122608
0.0927049
0.0856192
0.0848285
0.129402
0.25677
0.443174
0.542449
1
1
0.999999
1
1
1
1
1
1
0.980084
0.924381
0.875965
0.849862
0.843663
0.847575
0.913602
0.98795
0.988656
0.992963
1
1
1
1
1
1
1
1
1
0.999998
0.99999
0.99996
0.999858
0.999634
0.999427
0.999984
1
0.999999
0.999998
1
1
1
1
1
1
1
0.999988
0.999897
0.999906
0.999992
0.999984
0.999756
0.99946
0.999462
0.999727
0.999946
0.999997
0.999997
1
1
1
1
1
1
1
0.999928
0.999077
0.999025
0.999672
0.999996
0.99955
0.998287
0.998245
0.999034
0.999906
0.999997
0.999999
1
1
1
1
1
1
1
0.999767
0.998993
0.998993
0.999383
0.999998
0.999922
0.998899
0.99889
0.999526
0.999946
0.999998
1
1
1
1
1
1
1
1
1
0.999744
0.999426
0.999847
0.999999
0.999999
1
1
1
1
1
1
1
1
1
1
1
1
0.999998
0.999998
1
1
1
0.999999
0.999998
1
1
1
1
1
0.999999
1
1
1
1
1
1
0.999998
0.999998
1
1
1
0.999998
0.999998
0.999999
1
1
1
1
0.999999
1
1
1
1
1
1
1
1
1
1
1
0.999999
0.999999
0.999999
1
1
1
0.999999
0.999999
1
1
1
1
1
1
1
1
1
1
1
1
1
1
1
1
1
1
0.999999
1
1
1
1
1
1
1
1
1
1
1
1
1
1
1
1
1
1
1
1
1
1
1
1
1
1
1
1
1
1
1
1
1
1
1
1
1
1
1
1
1
1
1
1
1
1
1
1
1
1
1
1
1
1
1
1
1
1
1
1
1
1
1
1
1
1
1
1
1
1
1
1
1
1
1
1
1
1
1
1
1
1
1
1
1
1
1
1
1
1
1
1
1
1
1
1
1
1
1
1
1
1
1
1
1
1
1
1
1
1
1
1
1
1
1
1
1
1
1
1
1
1
1
1
1
1
1
1
1
1
1
1
1
1
1
1
1
1
1
1
1
1
1
1
1
1
1
1
1
1
1
1
1
1
1
1
1
1
1
1
1
1
1
1
1
1
1
1
1
1
1
1
1
1
1
1
1
1
1
1
1
1
1
1
1
1
1
1
1
1
1
1
1
1
1
1
1
1
1
1
1
1
1
1
1
1
1
1
1
1
1
1
1
1
1
1
1
1
1
1
1
1
1
1
1
1
1
1
1
1
1
1
1
1
1
1
1
1
1
1
1
1
1
1
1
1
1
1
1
1
1
1
1
1
1
1
1
1
1
1
1
1
1
1
1
1
1
1
1
1
1
1
1
1
1
1
1
1
1
1
1
1
1
1
1
1
1
1
1
1
1
1
1
1
1
1
1
1
1
1
1
1
1
1
1
1
1
1
1
1
1
1
1
1
1
1
1
1
1
1
1
1
1
1
1
1
1
1
1
1
1
1
1
1
1
1
1
1
1
1
1
1
1
1
1
1
1
1
1
1
1
1
1
1
1
1
1
1
1
1
1
1
1
1
1
1
1
1
1
1
1
1
1
1
1
1
1
1
1
1
1
1
1
1
1
1
1
1
1
1
1
1
1
1
1
1
1
1
1
1
1
1
1
1
1
1
1
1
1
1
1
1
1
1
1
1
1
1
)
;

boundaryField
{
    leftWall
    {
        type            alphaContactAngle;
        contactAngleProperties 
        {
            mercury         
            {
                theta0          90;
            }
            water           
            {
                theta0          90;
            }
            oil             
            {
                theta0          90;
            }
        }
        value           nonuniform List<scalar> 
50
(
1.83502e-13
7.40721e-13
2.06863e-12
6.01709e-12
1.78032e-11
5.32567e-11
8.42599e-11
6.38684e-10
2.38419e-09
2.0105e-09
4.4087e-10
0.00532892
0.193688
0.206505
0.137353
0.415563
0.979157
0.999999
0.999999
0.999999
0.999999
0.999999
1
1
1
1
1
1
1
1
1
1
1
1
1
1
1
1
1
1
1
1
1
1
1
1
1
1
1
1
)
;
    }
    rightWall
    {
        type            alphaContactAngle;
        contactAngleProperties 
        {
            mercury         
            {
                theta0          90;
            }
            water           
            {
                theta0          90;
            }
            oil             
            {
                theta0          90;
            }
        }
        value           nonuniform List<scalar> 
50
(
0.0149112
0.014911
0.071938
0.169821
0.12594
0.00698325
9.06083e-21
-1.45133e-06
0.0776547
0.0984443
0.07589
0.00176257
2.15046e-05
0.00806914
0.0271459
0.0268126
0.00457486
0.542449
0.992963
0.999998
0.999997
0.999999
1
1
0.999999
0.999999
0.999999
0.999999
1
1
1
1
1
1
1
1
1
1
1
1
1
1
1
1
1
1
1
1
1
1
)
;
    }
    lowerWall
    {
        type            alphaContactAngle;
        contactAngleProperties 
        {
            mercury         
            {
                theta0          90;
            }
            water           
            {
                theta0          90;
            }
            oil             
            {
                theta0          90;
            }
        }
        value           nonuniform List<scalar> 
62
(
1.83502e-13
2.80776e-13
3.03919e-13
2.1329e-13
1.46841e-13
8.45749e-14
4.28132e-14
2.12815e-14
1.13024e-14
6.2871e-15
3.69102e-15
3.02993e-15
4.31114e-15
1.05915e-14
2.57091e-14
2.67466e-14
2.34083e-14
5.26684e-14
1.33271e-13
9.24891e-14
1.33027e-13
2.10665e-13
3.67654e-13
3.67654e-13
3.34088e-11
1.36113e-09
6.44913e-09
1.41892e-09
0.000168689
0.00176637
0.00163325
0.0131414
0.0131467
0.00476443
0.00865891
0.000328962
0.00476818
0.0167879
0.015629
0.0215502
0.0660323
0.067419
0.0657277
0.000328962
0.000329789
0.00315373
0.0214113
0.0333318
0.0651895
0.0735582
0.073483
0.0471728
0.0403631
0.0474503
0.0828235
0.116962
0.0926063
0.0227899
0.0149346
0.0149075
0.0149108
0.0149112
)
;
    }
    atmosphere
    {
        type            inletOutlet;
        inletValue      uniform 1;
        value           nonuniform List<scalar> 
46
(
1
1
1
1
1
1
1
1
1
1
1
1
1
1
1
1
1
1
1
1
1
1
1
1
1
1
1
1
1
1
1
1
1
1
1
1
1
1
1
1
1
1
1
1
1
1
)
;
    }
    defaultFaces
    {
        type            empty;
    }
}


// ************************************************************************* //
