/*--------------------------------*- C++ -*----------------------------------*\
  =========                 |
  \\      /  F ield         | OpenFOAM: The Open Source CFD Toolbox
   \\    /   O peration     | Website:  https://openfoam.org
    \\  /    A nd           | Version:  13
     \\/     M anipulation  |
\*---------------------------------------------------------------------------*/
FoamFile
{
    format      ascii;
    class       volScalarField;
    location    "1.9";
    object      alpha.oil;
}
// * * * * * * * * * * * * * * * * * * * * * * * * * * * * * * * * * * * * * //

dimensions      [];

internalField   nonuniform List<scalar> 
2268
(
1.00575e-14
6.88811e-14
2.75046e-13
8.39e-13
2.16249e-12
5.14442e-12
1.1637e-11
2.49571e-11
4.91485e-11
9.51028e-11
1.88557e-10
3.63293e-10
7.4655e-10
1.53868e-09
3.03683e-09
7.02818e-09
1.49519e-08
2.18279e-08
3.1028e-08
0.000158175
0.00049682
0.000567232
0.000567294
4.137e-15
1.90133e-14
1.52016e-13
9.79887e-13
2.56496e-12
6.37989e-12
1.71181e-11
3.62356e-11
7.51764e-11
1.50591e-10
3.01307e-10
5.92021e-10
1.15156e-09
2.2979e-09
4.90563e-09
1.08359e-08
2.38974e-08
4.91453e-08
5.39361e-08
1.11802e-08
1.15266e-08
8.44419e-05
0.000142463
1.82823e-15
4.88602e-15
6.03409e-14
9.62618e-13
3.13397e-12
8.17394e-12
1.95396e-11
4.04299e-11
7.76962e-11
1.54261e-10
3.14309e-10
5.85492e-10
1.15137e-09
2.12025e-09
3.82331e-09
6.34922e-09
9.25386e-09
1.13726e-08
1.22087e-08
1.17179e-08
1.21806e-08
1.21161e-08
2.21732e-08
1.84559e-15
5.10078e-15
2.80898e-14
4.54469e-13
2.89053e-12
7.474e-12
1.62657e-11
5.19543e-11
1.14428e-10
2.40694e-10
4.81841e-10
9.30883e-10
1.77257e-09
3.1712e-09
5.31905e-09
7.72936e-09
8.82211e-09
6.18158e-09
5.8318e-09
6.44017e-09
1.03653e-08
1.87203e-08
1.72928e-08
6.06185e-14
3.12155e-13
5.05999e-13
6.84039e-13
1.43426e-12
4.60142e-12
1.40646e-11
3.18861e-11
6.52404e-11
2.0468e-10
5.76549e-10
1.20866e-09
2.56135e-09
4.55079e-09
8.83215e-09
1.48477e-08
2.54407e-08
2.66435e-08
5.94073e-08
1.34978e-08
4.27667e-09
4.30309e-09
5.00652e-08
1.48315e-12
5.93379e-12
9.24759e-12
9.6808e-12
7.18353e-12
6.0535e-12
1.15341e-11
3.81752e-11
1.0518e-10
2.24837e-10
5.46543e-10
1.17792e-09
2.47384e-09
3.9972e-09
4.14623e-09
6.0401e-10
3.27469e-07
1.6619e-06
2.42473e-06
1.91452e-06
1.11098e-06
1.06277e-05
3.16845e-05
1.49364e-12
1.6574e-11
3.3183e-11
3.87357e-11
2.75535e-11
1.87332e-11
1.63908e-11
1.869e-11
2.43957e-11
6.36605e-11
1.95705e-10
3.35855e-10
3.87996e-10
4.34936e-10
7.61137e-10
7.12752e-10
4.57588e-07
2.50718e-06
3.42825e-06
3.62774e-06
1.35363e-05
4.76974e-05
6.75298e-05
2.55734e-11
1.02887e-10
9.4901e-11
1.00317e-10
6.47792e-11
4.63603e-11
5.53333e-11
4.97802e-11
4.77547e-11
7.06631e-11
1.55111e-10
2.95731e-10
4.76867e-10
1.02927e-09
5.12074e-09
3.43466e-08
1.62047e-07
3.17589e-07
8.5166e-07
3.74255e-06
1.70453e-05
2.35845e-05
3.88665e-05
0.119766
0.120466
0.0981158
0.0377911
0.0286029
0.028461
0.196377
0.320342
0.348552
0.354975
0.357669
0.329344
0.184236
0.0566394
0.103591
0.164676
0.236588
0.263796
0.256466
0.416161
0.415932
0.366793
0.200267
0.0512145
0.0284794
0.0505102
0.0811674
0.0911863
0.112592
0.180253
0.20722
0.108639
0.0560455
0.0766
0.160207
0.253185
0.263358
0.367493
0.437102
0.393065
0.58781
0.659978
0.530183
0.183489
0.00435171
5.20924e-10
5.38977e-11
7.3264e-11
0.00700395
0.16236
0.194589
0.0803096
0.0632113
0.202638
0.310096
0.336298
0.49459
0.0111763
0.00540695
0.0766027
0.517682
0.636228
0.509045
0.0722825
4.02201e-05
0.000125994
3.96815e-10
0.0175012
0.161146
0.239354
0.261393
0.251469
0.260435
0.249678
0.288484
0.504822
0.0114257
0.00537912
0.00569039
0.110963
0.625026
0.597191
0.194114
0.012003
0.00276491
2.51654e-06
0.0976151
0.214458
0.237219
0.259566
0.265466
0.265144
0.200893
0.194625
0.508945
0.0428881
0.0289611
0.00533244
0.00536983
0.429235
0.689503
0.544714
0.0905009
0.000675418
2.66688e-06
0.145337
0.263941
0.266108
0.266044
0.265683
0.265466
0.120026
0.0515898
0.508488
0.0403733
0.0345778
0.0203436
0.00745651
0.415673
0.690741
0.689503
0.174297
-1.07027e-05
0.00163609
0.045821
0.184189
0.259185
0.265711
0.226349
0.0892047
0.0177657
0.0155013
0.449625
0.0314039
0.03239
0.0361665
0.0196235
0.471578
0.695706
0.663907
0.134406
-1.12616e-13
-9.09411e-09
1.40146e-06
5.14175e-05
0.0485958
0.0778576
0.0279617
6.67131e-05
0.00829586
0.0137743
0.111569
4.62006e-09
3.76495e-09
3.03484e-09
2.57972e-09
2.35243e-09
2.0252e-09
9.48534e-10
5.83703e-10
3.55524e-10
2.23808e-10
1.88301e-10
2.61672e-10
5.00669e-10
9.02564e-10
1.83881e-09
5.52662e-09
1.73687e-18
2.50237e-27
-2.82157e-26
2.35875e-07
4.24319e-06
4.57906e-06
4.98752e-06
6.29974e-09
6.21007e-09
5.52225e-09
5.07304e-09
5.35953e-09
5.37903e-09
4.51863e-09
2.32096e-09
1.25796e-09
7.79686e-10
3.79057e-10
4.28558e-10
8.53048e-10
1.00428e-09
1.25366e-09
1.24962e-09
1.54444e-09
-2.36922e-13
-7.20998e-20
-3.9398e-11
-4.48194e-11
0.006959
0.0650125
4.09631e-09
3.57205e-09
3.1761e-09
2.92486e-09
3.13026e-09
3.46965e-09
3.39253e-09
2.39214e-09
1.43954e-09
8.83889e-10
3.16139e-10
-6.45522e-12
-8.76219e-12
-4.61013e-14
-4.03915e-15
-1.5131e-15
0.00038146
0.013284
0.0390668
0.0980909
0.218324
0.442812
0.732739
1.3294e-27
2.44525e-27
-5.02895e-27
-8.51037e-27
3.5144e-28
-1.99503e-27
-3.83083e-13
4.99513e-22
1.91737e-20
1.38234e-19
0.000348158
0.00608861
0.0223496
0.0563611
0.111427
0.213053
0.390138
0.535903
0.612183
0.71486
0.820347
0.884696
0.984129
0.00747286
0.203067
0.346801
0.404033
0.42083
0.355202
0.186501
0.169262
0.212998
0.308274
0.409707
0.487844
0.573568
0.659272
0.742044
0.842633
0.91904
0.956812
0.929432
0.920138
0.973336
0.99525
0.999997
0.482124
0.883136
0.968278
0.977201
0.980329
0.959298
0.842361
0.837812
0.916238
0.941149
0.941149
0.932929
0.957609
0.979223
0.979852
0.979834
0.979872
0.985072
0.993036
0.999782
0.999997
0.999999
0.999999
0.853923
0.941928
0.980895
0.981121
0.980426
0.977134
0.969509
0.957414
0.938678
0.913941
0.87915
0.821032
0.759625
0.705239
0.6501
0.594031
0.557467
0.566841
0.626724
0.730524
0.860207
0.96771
0.999998
0.584234
0.570527
0.53179
0.516786
0.499285
0.44851
0.384625
0.316149
0.242358
0.171602
0.113638
0.071027
0.0398934
0.00970437
0.00601871
0.0105322
0.0119079
0.0133217
0.0273381
0.0605516
0.129593
0.236079
0.388799
0.020843
0.0404729
0.0502671
0.0382889
0.00474945
1.63306e-07
1.97237e-09
1.90902e-17
1.9472e-10
8.41325e-11
4.88748e-11
1.7115e-23
9.67666e-13
1.28111e-07
4.59772e-07
7.31147e-07
1.0122e-06
1.20867e-06
1.38796e-06
1.41728e-06
1.5541e-06
1.61474e-06
1.78478e-06
8.91365e-07
7.99976e-07
6.8968e-07
7.23548e-07
0.000955729
0.000347406
3.39781e-21
8.15906e-08
2.85008e-07
1.02508e-07
4.616e-05
8.22217e-05
3.75989e-05
7.55037e-07
5.95736e-08
4.56794e-10
4.49792e-09
5.09857e-10
1.19816e-08
4.23014e-10
2.52356e-08
4.8373e-10
6.09783e-08
9.63536e-07
9.73922e-06
1.32354e-06
0.000185684
2.31634e-08
2.42634e-08
2.7569e-08
2.01031e-07
3.96884e-06
8.65905e-05
0.000172472
0.000172008
8.40353e-05
2.28996e-08
2.96799e-08
5.61878e-09
2.2373e-08
2.18541e-07
3.16703e-07
2.18805e-07
1.35189e-07
3.54855e-08
3.77839e-08
1.35534e-06
1.23453e-05
2.14995e-06
2.52099e-08
1.79887e-08
3.31703e-08
1.24773e-07
1.64034e-07
4.054e-05
0.000172472
0.000172472
0.000172482
3.66865e-05
2.24612e-08
2.20696e-08
1.49635e-08
6.68503e-08
5.43664e-07
5.25802e-07
4.71848e-07
3.53317e-07
2.26939e-07
9.77203e-08
8.71796e-07
9.84661e-07
3.60543e-07
1.2711e-07
1.25962e-07
1.13892e-07
1.6949e-07
2.78102e-07
1.40525e-05
0.00013288
0.000172472
6.603e-05
4.00433e-08
4.22758e-08
7.61192e-08
2.7616e-08
4.54406e-08
3.30117e-07
4.27441e-07
3.85209e-07
3.52345e-07
2.88313e-07
1.68428e-07
7.15804e-07
7.07127e-07
3.16822e-07
1.3472e-07
1.24571e-07
1.35276e-07
2.46638e-07
4.75682e-07
5.36788e-07
7.74683e-07
1.16039e-05
1.2074e-06
2.1845e-07
1.1639e-07
2.72444e-08
9.53134e-09
1.74344e-08
7.72842e-08
2.30203e-07
1.95119e-07
2.21133e-07
2.04774e-07
1.23443e-07
2.61762e-07
3.84554e-07
1.68503e-07
9.40987e-08
9.09534e-08
1.2419e-07
2.47892e-07
4.52939e-07
3.57881e-07
1.75404e-08
3.60318e-08
2.26426e-07
8.45648e-07
8.80336e-07
4.82782e-09
4.6291e-09
6.76941e-09
1.40015e-08
4.92281e-08
7.07118e-08
9.73665e-08
9.30982e-08
6.81548e-08
7.08816e-08
1.26741e-07
9.90304e-08
7.79904e-08
6.65269e-08
5.43157e-08
3.49808e-08
1.87256e-08
1.68738e-08
2.79094e-08
1.39335e-07
6.58407e-07
1.15716e-06
9.51205e-07
2.48894e-08
4.82575e-09
6.70028e-09
7.85346e-09
1.14134e-08
1.43153e-08
2.05537e-08
2.62561e-08
2.76635e-08
4.91288e-08
9.19526e-08
9.1177e-08
7.17787e-08
5.00748e-08
3.08201e-08
1.86525e-08
1.48426e-08
1.62314e-08
4.37046e-08
2.03955e-07
6.9563e-07
1.09346e-06
3.76882e-07
7.92542e-09
6.89774e-09
1.14593e-08
1.06624e-08
8.66604e-09
6.4729e-09
6.64354e-09
6.99732e-09
8.75127e-09
4.10864e-08
8.36159e-08
8.87746e-08
6.88416e-08
4.29858e-08
2.40739e-08
1.75897e-08
1.68119e-08
2.1366e-08
4.38744e-08
1.0675e-07
1.78244e-07
1.6974e-07
4.4743e-08
1.33996e-08
1.23856e-08
1.18578e-08
1.0983e-08
9.54814e-09
7.21487e-09
4.87139e-09
3.24443e-09
3.1362e-09
3.69979e-08
7.83644e-08
8.68512e-08
6.82658e-08
4.1766e-08
2.45632e-08
1.74683e-08
1.56135e-08
1.59633e-08
1.80403e-08
1.9827e-08
1.55207e-08
1.14809e-08
1.20858e-08
1.66742e-08
1.45131e-08
9.88251e-09
8.85818e-09
8.26373e-09
6.80582e-09
4.89271e-09
3.07276e-09
2.30757e-09
2.91385e-08
6.25831e-08
7.41549e-08
6.3507e-08
4.26745e-08
2.47105e-08
1.58282e-08
1.23031e-08
1.04618e-08
8.55807e-09
6.5076e-09
5.21758e-09
6.42779e-09
9.59988e-09
1.24342e-08
1.09112e-08
7.56625e-09
6.60388e-09
6.347e-09
5.69619e-09
4.51657e-09
3.07933e-09
2.27812e-09
2.02664e-08
4.61328e-08
5.72052e-08
5.21786e-08
4.00149e-08
2.29769e-08
1.32579e-08
9.10218e-09
7.43685e-09
6.42166e-09
5.45515e-09
4.75262e-09
4.73436e-09
5.33743e-09
6.1207e-09
5.94726e-09
5.04934e-09
4.50362e-09
4.46874e-09
4.31859e-09
3.72494e-09
2.82394e-09
2.16889e-09
1.42309e-08
3.27828e-08
4.07805e-08
3.92868e-08
3.21541e-08
2.16384e-08
1.17208e-08
6.85457e-09
5.02873e-09
4.43982e-09
4.1615e-09
3.77907e-09
3.33339e-09
3.05435e-09
3.00878e-09
3.03356e-09
2.9087e-09
2.79287e-09
2.79216e-09
2.84051e-09
2.70262e-09
2.32151e-09
1.86741e-09
8.9731e-09
1.98086e-08
2.49591e-08
2.55374e-08
2.31543e-08
1.78723e-08
1.02686e-08
5.34366e-09
3.38865e-09
2.62353e-09
2.39941e-09
2.37212e-09
2.239e-09
1.98773e-09
1.7711e-09
1.65273e-09
1.55612e-09
1.5842e-09
1.61871e-09
1.68764e-09
1.66147e-09
1.57453e-09
1.37942e-09
5.37031e-09
1.16344e-08
1.40225e-08
1.3791e-08
1.31952e-08
1.24328e-08
8.24616e-09
4.04474e-09
2.28695e-09
1.48791e-09
1.2031e-09
1.18814e-09
1.24062e-09
1.21427e-09
1.09484e-09
9.642e-10
8.95181e-10
8.61364e-10
8.7499e-10
9.12313e-10
9.20667e-10
8.94014e-10
8.46583e-10
2.98753e-09
6.15724e-09
7.4302e-09
7.04349e-09
5.92161e-09
6.34478e-09
5.3027e-09
2.952e-09
1.64983e-09
9.6102e-10
6.43541e-10
5.58465e-10
5.89156e-10
6.12029e-10
5.90326e-10
5.43321e-10
4.86434e-10
4.5356e-10
4.50961e-10
4.5583e-10
4.54687e-10
4.50165e-10
4.33435e-10
1.55186e-09
2.97255e-09
3.4612e-09
3.16902e-09
2.45336e-09
2.66019e-09
2.50374e-09
1.67274e-09
1.01946e-09
5.93175e-10
3.54148e-10
2.66896e-10
2.51769e-10
2.70055e-10
2.77176e-10
2.62508e-10
2.47133e-10
2.30122e-10
2.20951e-10
2.1068e-10
2.10215e-10
2.04077e-10
1.91377e-10
7.30178e-10
1.288e-09
1.43849e-09
1.27549e-09
9.15931e-10
9.43947e-10
9.88256e-10
7.49802e-10
5.06621e-10
3.1714e-10
1.89193e-10
1.22589e-10
1.00842e-10
1.02608e-10
1.13087e-10
1.16579e-10
1.12471e-10
1.05461e-10
1.00979e-10
9.59069e-11
9.10338e-11
8.77349e-11
8.17813e-11
3.00835e-10
4.90229e-10
5.25047e-10
4.52957e-10
3.12817e-10
2.99433e-10
3.2403e-10
2.70881e-10
1.97068e-10
1.32605e-10
8.58543e-11
5.56778e-11
4.08408e-11
3.72874e-11
4.11258e-11
4.4688e-11
4.52445e-11
4.34024e-11
4.13104e-11
3.9303e-11
3.62373e-11
3.31584e-11
3.03222e-11
1.05042e-10
1.60056e-10
1.64868e-10
1.38869e-10
9.38518e-11
8.39969e-11
9.05735e-11
8.13358e-11
6.23926e-11
4.43964e-11
3.04067e-11
2.0353e-11
1.48701e-11
1.29081e-11
1.33024e-11
1.49165e-11
1.60125e-11
1.55312e-11
1.50817e-11
1.42177e-11
1.2655e-11
1.15265e-11
1.04759e-11
3.04893e-11
4.39569e-11
4.35232e-11
3.57842e-11
2.37659e-11
2.01504e-11
2.14448e-11
2.0506e-11
1.62882e-11
1.20063e-11
8.59006e-12
6.08873e-12
4.4862e-12
3.88981e-12
3.95101e-12
4.39645e-12
4.80707e-12
4.96425e-12
4.88545e-12
4.71262e-12
4.18343e-12
3.46931e-12
3.00984e-12
7.1587e-12
9.77204e-12
9.41591e-12
7.54076e-12
4.91334e-12
4.00123e-12
4.23547e-12
4.3438e-12
3.54981e-12
2.6909e-12
1.99048e-12
1.46949e-12
1.14345e-12
9.90476e-13
1.04246e-12
1.186e-12
1.32536e-12
1.38389e-12
1.37075e-12
1.33307e-12
1.17342e-12
9.47585e-13
7.5443e-13
1.32161e-12
1.70531e-12
1.62567e-12
1.26592e-12
8.08085e-13
6.42179e-13
6.9117e-13
7.63879e-13
6.49247e-13
5.06251e-13
3.84471e-13
2.92963e-13
2.36407e-13
2.2126e-13
2.33081e-13
2.71155e-13
3.03385e-13
3.28972e-13
3.29108e-13
3.16785e-13
2.87769e-13
2.05429e-13
1.56072e-13
1.80989e-13
2.28168e-13
2.15353e-13
1.62657e-13
1.01836e-13
8.04875e-14
9.0344e-14
1.07565e-13
9.59768e-14
7.68716e-14
5.98554e-14
4.80378e-14
4.21085e-14
4.2234e-14
4.76052e-14
5.53111e-14
6.40965e-14
6.77583e-14
6.84458e-14
6.44504e-14
5.39009e-14
4.10509e-14
2.8352e-14
1.82033e-14
2.31118e-14
2.1282e-14
1.56439e-14
9.70459e-15
7.85861e-15
9.51861e-15
1.24476e-14
1.17721e-14
9.8961e-15
8.14002e-15
6.36883e-15
6.20695e-15
6.82742e-15
8.17629e-15
1.03932e-14
1.16851e-14
1.22347e-14
1.2134e-14
1.1448e-14
9.47061e-15
6.39517e-15
4.2149e-15
8.92791e-16
1.62841e-15
1.43312e-15
1.0351e-15
6.83349e-16
5.93359e-16
8.03224e-16
9.53366e-16
9.95051e-16
8.83955e-16
7.71679e-16
8.34002e-16
8.98334e-16
1.07287e-15
1.33726e-15
1.55585e-15
1.92695e-15
2.04392e-15
1.95576e-15
1.75689e-15
1.32373e-15
8.8755e-16
5.80305e-16
5.09661e-17
7.65867e-17
6.46464e-17
4.71947e-17
2.5749e-17
2.6187e-17
4.28455e-17
8.13904e-17
9.43334e-17
9.5145e-17
9.00507e-17
9.95517e-17
1.20343e-16
1.55939e-16
2.04303e-16
2.54631e-16
2.9145e-16
2.98419e-16
2.62799e-16
2.26266e-16
1.62933e-16
1.08373e-16
9.38678e-17
1.49072e-18
1.60333e-18
1.2755e-18
1.03433e-18
1.33788e-18
1.58232e-18
3.0412e-18
5.01123e-18
6.88836e-18
8.33862e-18
8.97806e-18
1.1061e-17
1.46861e-17
2.03439e-17
2.74988e-17
3.45872e-17
3.87712e-17
3.88723e-17
3.33278e-17
2.52281e-17
1.76914e-17
1.50241e-17
2.66728e-17
3.21992e-20
5.18479e-20
4.20614e-20
3.8802e-20
4.17557e-20
6.58913e-20
1.56617e-19
2.84652e-19
4.86783e-19
7.05761e-19
8.74563e-19
1.19399e-18
1.73318e-18
2.54313e-18
3.50801e-18
4.38548e-18
4.7618e-18
4.3476e-18
3.61202e-18
2.75908e-18
2.39387e-18
3.63552e-18
1.24787e-17
4.5936e-22
7.20264e-22
6.90476e-22
7.74073e-22
9.15097e-22
2.10306e-21
7.22762e-21
1.54535e-20
3.30603e-20
5.63952e-20
7.93104e-20
1.20495e-19
1.89484e-19
2.90741e-19
4.05809e-19
4.99148e-19
5.27743e-19
4.7785e-19
3.96562e-19
3.74966e-19
5.28414e-19
1.35894e-18
7.43331e-18
3.27247e-24
5.18709e-24
7.36252e-24
1.1687e-23
2.00001e-23
7.19776e-23
3.02265e-22
7.51401e-22
2.07855e-21
4.15928e-21
6.62188e-21
1.13054e-20
1.93163e-20
3.10946e-20
4.42358e-20
5.45938e-20
5.83313e-20
5.34166e-20
5.62408e-20
8.10832e-20
1.85329e-19
8.26875e-19
5.25105e-18
5.74654e-27
1.33589e-26
4.40674e-26
1.4258e-25
4.9899e-25
2.50572e-24
1.17723e-23
3.41392e-23
1.23846e-22
2.89463e-22
5.28328e-22
1.02598e-21
1.92905e-21
3.30851e-21
4.9042e-21
6.34223e-21
7.38479e-21
8.39328e-21
1.1369e-20
2.42075e-20
9.5909e-20
5.08015e-19
3.44775e-18
7.77846e-30
4.68623e-30
1.53217e-28
1.81575e-27
1.14587e-26
7.94466e-26
4.49359e-25
1.62262e-24
7.40284e-24
1.99576e-23
4.27077e-23
9.54166e-23
1.99858e-22
3.7101e-22
5.97468e-22
8.44221e-22
1.11818e-21
1.52325e-21
2.59751e-21
8.05861e-21
3.94203e-20
2.24096e-19
1.64286e-18
5.45537e-06
0.0203262
0.0854526
0.119121
0.192541
0.467701
0.741227
0.792474
0.984231
0.991066
0.965251
0.874176
0.999894
0.985532
0.965772
0.969986
0.99981
0.997345
0.997017
1
0.999995
1
1
1
0.999999
1
1
1
0.546932
0.779855
0.999998
0.999999
0.00339082
0.0277506
0.0955304
0.195024
6.4954e-07
4.41356e-07
2.02726e-06
2.37169e-06
4.03937e-08
4.52223e-08
4.09808e-08
5.25102e-08
9.689e-08
9.26948e-08
7.47709e-08
7.64843e-08
1.13994e-07
1.05243e-07
8.96778e-08
8.71371e-08
1.06215e-07
1.11681e-07
8.15127e-08
7.67664e-08
6.54238e-08
4.721e-08
5.27898e-08
5.54644e-08
2.90288e-08
2.44802e-08
2.33325e-08
3.07445e-08
9.95371e-09
4.30881e-09
7.99051e-09
1.33188e-08
3.19282e-09
2.07302e-09
2.99993e-09
5.04851e-09
1.85217e-09
1.42782e-09
1.53759e-09
2.16566e-09
1.79555e-09
1.37055e-09
1.26989e-09
1.36564e-09
1.68499e-09
1.35611e-09
1.16975e-09
1.12034e-09
1.51206e-09
1.2259e-09
1.09215e-09
9.87967e-10
1.17269e-09
1.03344e-09
9.17997e-10
8.33991e-10
7.64024e-10
6.77669e-10
6.33063e-10
5.94464e-10
3.97498e-10
3.74928e-10
3.58852e-10
3.38999e-10
1.77413e-10
1.55702e-10
1.55511e-10
1.54033e-10
7.13602e-11
6.46992e-11
6.22588e-11
5.93718e-11
2.60053e-11
2.06708e-11
2.06433e-11
1.97686e-11
8.77723e-12
7.03026e-12
6.47796e-12
5.68863e-12
2.5334e-12
1.98845e-12
1.76246e-12
1.47178e-12
6.29653e-13
4.9343e-13
4.09206e-13
3.25785e-13
1.33215e-13
1.01431e-13
7.9931e-14
6.18078e-14
2.32748e-14
1.73789e-14
1.32476e-14
1.00205e-14
3.38868e-15
2.59665e-15
2.06603e-15
1.78e-15
4.89991e-16
4.35706e-16
4.44808e-16
5.41239e-16
1.0058e-16
1.18467e-16
1.68663e-16
2.77119e-16
3.7384e-17
5.61326e-17
9.81191e-17
2.08875e-16
1.96566e-17
3.39266e-17
7.87352e-17
2.17909e-16
1.29201e-17
2.80495e-17
8.3892e-17
2.66407e-16
1.02774e-17
2.86477e-17
1.00823e-16
3.18756e-16
7.83561e-18
2.81208e-17
1.02794e-16
3.20726e-16
5.89814e-18
2.05528e-17
6.71345e-17
1.86249e-16
0.250299
0.261498
0.0402597
0.0168426
0.258007
0.706814
0.598829
0.061497
-5.30407e-09
1.6092e-06
-1.34619e-20
2.70414e-22
5.2274e-22
1.92284e-05
4.04718e-05
3.15477e-05
9.10985e-05
0.000132752
0.0120573
0.806037
0.633
0.0955052
0.0506178
0.542698
0.856996
0.67322
0.00934794
2.94998e-14
-7.37797e-09
-8.4911e-19
8.23899e-06
0.00408728
0.0216136
0.00848383
3.12898e-05
0.164784
0.523406
0.565307
0.842304
0.825306
0.622813
0.678924
0.961171
0.990036
0.776349
0.215625
0.0240446
0.0872946
0.241868
0.428849
0.543864
0.691266
0.779873
0.791216
0.899212
0.987522
0.913343
0.990141
0.986232
0.970375
0.9868
0.999934
0.999931
0.915299
0.739966
0.684783
0.802743
0.999043
0.999967
0.999974
0.999909
0.999735
0.999408
0.999431
0.997793
0.991255
1
1
0.999995
0.999956
0.999932
0.99993
0.985542
0.96044
0.974951
0.999961
0.999977
0.999947
0.999976
0.999976
0.999741
0.999552
0.999733
0.998187
0.993316
1
1
0.999998
0.999968
0.999923
0.99994
0.999998
1
0.999999
0.999999
0.999976
0.999947
0.999977
1
1
1
0.999925
0.995316
0.986612
1
1
0.999999
0.999997
0.999992
0.99999
1
1
0.999999
0.999998
0.999999
1
1
1
1
1
0.999069
0.978501
0.972094
0.999999
0.999999
0.999999
0.999998
0.999997
0.999997
0.999999
1
0.999999
1
1
1
1
0.999999
1
1
0.998915
0.982438
0.972547
0.310558
0.469035
0.739836
0.926541
0.929572
0.919534
0.975631
0.996384
1
1
1
1
0.999999
0.999999
0.999998
0.99992
0.998063
0.993768
0.987812
2.12221e-06
0.0010501
0.0139415
0.0143225
0.0284961
0.201098
0.388977
0.486136
0.599043
0.740944
0.81994
0.877392
0.907295
0.914381
0.915171
0.866556
0.726162
0.537097
0.437699
3.61151e-07
3.26953e-07
1.04581e-06
4.72841e-07
4.49952e-07
4.17302e-07
3.16516e-07
-2.2176e-11
4.49404e-08
0.0199155
0.0756182
0.124022
0.150078
0.156222
0.152136
0.078952
-5.70973e-18
7.159e-14
-1.8061e-09
7.32525e-08
7.09848e-08
7.50904e-08
1.26906e-07
1.89892e-07
2.72992e-07
3.57951e-07
3.96903e-07
1.61452e-09
6.55028e-12
1.96876e-11
1.58828e-21
4.28105e-13
1.91975e-08
6.78832e-08
3.12137e-08
-6.74179e-09
1.05179e-06
1.61917e-06
8.12167e-08
8.46601e-08
9.57342e-08
1.8167e-07
2.93754e-07
2.31894e-07
3.79907e-07
1.17119e-05
0.000102552
9.43067e-05
8.30713e-06
1.16562e-05
0.000200111
0.000529641
0.000538429
0.000273458
5.37273e-05
3.11562e-06
2.52151e-06
7.25281e-08
7.19429e-08
9.02002e-08
1.9616e-07
3.1606e-07
2.74617e-07
1.24393e-07
7.17678e-05
0.000923047
0.000975409
0.000328298
3.89372e-06
0.000449684
0.00171253
0.00175521
0.000966329
9.37555e-05
2.97671e-06
1.08073e-06
5.48654e-08
5.49203e-08
7.77652e-08
2.02888e-07
3.21003e-07
2.53494e-07
1.24652e-07
0.000232512
0.00100661
0.00100695
0.000616521
2.04258e-06
7.7211e-05
0.00110075
0.0011097
0.000474072
5.3625e-05
1.38177e-06
4.57138e-07
3.50485e-08
4.00486e-08
6.59219e-08
1.63045e-07
2.83446e-07
2.45552e-07
1.37787e-07
1.61643e-07
0.000256215
0.000574289
0.000152763
8.37163e-07
3.36516e-07
1.24851e-07
6.02057e-08
6.00456e-08
6.04828e-08
2.84343e-07
4.71447e-07
1.93913e-08
2.6904e-08
4.98236e-08
9.55199e-08
1.19124e-07
2.22869e-07
1.79889e-06
1.60385e-06
1.80297e-07
6.15802e-08
6.5208e-08
1.1062e-06
2.00982e-06
4.53877e-07
7.40084e-08
5.99436e-08
7.19017e-08
1.15687e-07
5.91667e-07
8.5584e-09
1.40021e-08
2.92303e-08
4.97973e-08
5.71251e-08
5.96828e-08
1.52628e-06
1.6073e-06
2.59603e-07
7.64091e-08
1.11585e-07
2.16328e-06
2.29519e-06
9.6817e-07
1.10026e-07
6.23672e-08
1.11978e-07
4.0147e-07
8.2741e-07
3.57837e-09
6.8416e-09
1.32165e-08
2.57517e-08
3.57149e-08
5.5111e-08
1.51003e-07
1.32138e-07
1.04313e-07
6.56074e-08
6.73962e-08
6.24437e-07
1.07425e-06
6.24818e-07
1.15701e-07
6.68545e-08
1.46448e-07
4.99887e-07
7.99538e-07
1.8598e-09
3.03748e-09
6.10666e-09
1.35213e-08
2.12843e-08
3.36771e-08
3.87244e-08
5.01301e-08
5.68944e-08
7.42971e-08
1.15379e-07
2.84733e-08
1.87531e-08
2.01188e-08
3.33079e-08
6.49921e-08
1.32746e-07
2.59607e-07
6.41816e-07
1.20637e-09
1.49818e-09
2.85416e-09
5.24368e-09
9.72602e-09
1.52617e-08
2.15689e-08
2.87624e-08
3.51346e-08
4.37236e-08
4.59412e-08
2.86521e-08
1.89092e-08
2.0347e-08
3.51438e-08
5.62506e-08
7.70215e-08
6.13324e-08
6.42602e-08
9.18391e-10
8.98344e-10
1.22108e-09
1.97194e-09
3.28033e-09
5.51336e-09
8.23402e-09
1.27641e-08
1.53687e-08
1.69834e-08
1.42674e-08
1.31909e-08
1.42977e-08
1.74314e-08
2.42617e-08
3.00184e-08
3.17163e-08
2.0161e-08
1.35982e-08
7.4384e-10
6.14342e-10
5.90129e-10
7.67662e-10
1.32094e-09
2.06075e-09
2.98582e-09
4.00262e-09
5.23096e-09
5.80189e-09
5.97864e-09
6.24844e-09
6.90158e-09
9.56695e-09
1.12308e-08
1.83824e-08
1.69019e-08
1.38728e-08
1.37819e-08
5.39555e-10
4.37878e-10
3.60464e-10
3.50667e-10
4.48513e-10
6.44693e-10
9.46187e-10
1.27615e-09
1.63208e-09
1.99087e-09
2.42722e-09
3.03824e-09
4.09556e-09
5.46746e-09
8.48527e-09
1.02588e-08
1.24852e-08
1.43034e-08
1.37395e-08
3.15962e-10
2.65106e-10
2.15748e-10
1.89243e-10
2.01889e-10
2.59095e-10
3.59984e-10
5.28706e-10
7.58335e-10
1.04992e-09
1.44308e-09
2.04974e-09
2.92496e-09
4.31396e-09
6.42733e-09
1.06311e-08
1.62071e-08
1.75108e-08
1.91498e-08
1.47346e-10
1.27764e-10
1.06913e-10
9.62317e-11
1.01204e-10
1.2483e-10
1.78569e-10
2.748e-10
4.31971e-10
6.69759e-10
1.0225e-09
1.54023e-09
2.39095e-09
3.82307e-09
6.35379e-09
1.11857e-08
2.25453e-08
3.73776e-08
2.63141e-08
5.6368e-11
4.92459e-11
4.24361e-11
4.11569e-11
4.71183e-11
6.55391e-11
1.04226e-10
1.74519e-10
2.97294e-10
4.96579e-10
8.11674e-10
1.30526e-09
2.1058e-09
3.53583e-09
6.14745e-09
1.33829e-08
3.05577e-08
5.16382e-08
4.43542e-08
1.82996e-11
1.55452e-11
1.39087e-11
1.52454e-11
2.14033e-11
3.6314e-11
6.65019e-11
1.23455e-10
2.24474e-10
4.01333e-10
6.93421e-10
1.16627e-09
1.94743e-09
3.25245e-09
6.29168e-09
1.52301e-08
3.67557e-08
1.01276e-07
5.0264e-08
5.07746e-12
4.2157e-12
4.06326e-12
5.62746e-12
1.0964e-11
2.25463e-11
4.65252e-11
9.35688e-11
1.81886e-10
3.45122e-10
6.25563e-10
1.09897e-09
1.855e-09
3.11336e-09
6.07152e-09
1.70158e-08
4.83438e-08
1.03945e-07
5.98086e-08
1.1747e-12
1.04529e-12
1.38273e-12
2.76883e-12
6.46482e-12
1.58447e-11
3.51785e-11
7.51254e-11
1.56498e-10
3.11463e-10
5.9345e-10
1.08288e-09
1.86276e-09
3.11158e-09
6.278e-09
1.88524e-08
5.66093e-08
1.05762e-07
5.80783e-08
2.4399e-13
2.78096e-13
6.56237e-13
1.78489e-12
4.60567e-12
1.18804e-11
2.84254e-11
6.4374e-11
1.39633e-10
2.90173e-10
5.91095e-10
1.11888e-09
1.95131e-09
3.21268e-09
6.08115e-09
2.08699e-08
7.1888e-08
1.05451e-07
5.63383e-08
4.7981e-14
1.02198e-13
3.93095e-13
1.27805e-12
3.69739e-12
9.6105e-12
2.36267e-11
5.6391e-11
1.29597e-10
2.84768e-10
5.99452e-10
1.1806e-09
2.11777e-09
3.50579e-09
6.89808e-09
2.23921e-08
7.93844e-08
1.05762e-07
4.60425e-08
1.22801e-14
5.66326e-14
2.69764e-13
9.53454e-13
2.9631e-12
8.03555e-12
2.05905e-11
5.1961e-11
1.23866e-10
2.84052e-10
6.22534e-10
1.26058e-09
2.30844e-09
3.99608e-09
6.94575e-09
2.30629e-08
7.55406e-08
9.8999e-08
3.7332e-08
7.03774e-15
4.52474e-14
2.17182e-13
7.86622e-13
2.42143e-12
6.95672e-12
1.86089e-11
4.84065e-11
1.21946e-10
2.90144e-10
6.52528e-10
1.32768e-09
2.51342e-09
4.33124e-09
8.29147e-09
2.13308e-08
5.53335e-08
6.14142e-08
1.95755e-08
6.13961e-15
4.18159e-14
1.91672e-13
6.80737e-13
2.14785e-12
6.27576e-12
1.79424e-11
4.76464e-11
1.21367e-10
2.95617e-10
6.67817e-10
1.38213e-09
2.64293e-09
4.59082e-09
7.74863e-09
1.83349e-08
2.67635e-08
2.02119e-08
1.18213e-08
5.55635e-15
3.6277e-14
1.60909e-13
5.8763e-13
1.94206e-12
5.86648e-12
1.69149e-11
4.57622e-11
1.17308e-10
2.88852e-10
6.63939e-10
1.35655e-09
2.59703e-09
4.41025e-09
7.22308e-09
1.32168e-08
1.45109e-08
1.06703e-08
5.08291e-09
5.14437e-15
3.15686e-14
1.37077e-13
5.15535e-13
1.71296e-12
5.33546e-12
1.53159e-11
4.14465e-11
1.08138e-10
2.66068e-10
6.04845e-10
1.23688e-09
2.36199e-09
3.90027e-09
5.66745e-09
9.19646e-09
6.17293e-09
4.19552e-09
2.76019e-09
4.84487e-15
2.70497e-14
1.15541e-13
4.2849e-13
1.43766e-12
4.40662e-12
1.29423e-11
3.48228e-11
9.00054e-11
2.21575e-10
5.04271e-10
1.02511e-09
1.91384e-09
3.08228e-09
4.15629e-09
5.29019e-09
3.65425e-09
1.87515e-09
1.28885e-09
4.20335e-15
2.14112e-14
8.92333e-14
3.18265e-13
1.06179e-12
3.26113e-12
9.38793e-12
2.54729e-11
6.59574e-11
1.62397e-10
3.67547e-10
7.43289e-10
1.3759e-09
2.20863e-09
2.73524e-09
3.03148e-09
1.75968e-09
8.02481e-10
5.49806e-10
3.30663e-15
1.45608e-14
5.55534e-14
1.91572e-13
6.14751e-13
1.86521e-12
5.47788e-12
1.51581e-11
3.95198e-11
9.87989e-11
2.28857e-10
4.69006e-10
8.43635e-10
1.34818e-09
1.68674e-09
1.7025e-09
8.69048e-10
3.32073e-10
3.00795e-10
1.90789e-15
7.37904e-15
2.59492e-14
8.52193e-14
2.72851e-13
8.47164e-13
2.53073e-12
7.273e-12
1.96634e-11
5.0771e-11
1.20382e-10
2.53286e-10
4.63948e-10
7.51215e-10
9.41073e-10
8.76848e-10
3.82342e-10
1.74916e-10
1.57887e-10
6.05209e-16
2.01931e-15
6.5253e-15
2.00721e-14
7.01018e-14
2.44998e-13
8.02074e-13
2.47732e-12
7.24745e-12
1.97504e-11
4.90207e-11
1.08289e-10
2.03156e-10
3.41668e-10
4.47503e-10
4.00551e-10
1.85812e-10
8.65495e-11
6.58222e-11
)
;

boundaryField
{
    leftWall
    {
        type            alphaContactAngle;
        contactAngleProperties 
        {
            mercury         
            {
                theta0          90;
            }
            air             
            {
                theta0          90;
            }
            water           
            {
                theta0          90;
            }
        }
        value           nonuniform List<scalar> 
50
(
1.00575e-14
4.137e-15
1.82823e-15
1.84559e-15
6.06185e-14
1.48315e-12
1.49364e-12
2.55734e-11
4.62006e-09
6.29974e-09
4.09631e-09
1.3294e-27
0.00747286
0.482124
0.853923
0.584234
0.020843
8.91365e-07
9.63536e-07
1.35534e-06
8.71796e-07
7.15804e-07
2.61762e-07
7.08816e-08
4.91288e-08
4.10864e-08
3.69979e-08
2.91385e-08
2.02664e-08
1.42309e-08
8.9731e-09
5.37031e-09
2.98753e-09
1.55186e-09
7.30178e-10
3.00835e-10
1.05042e-10
3.04893e-11
7.1587e-12
1.32161e-12
1.80989e-13
1.82033e-14
8.92791e-16
5.09661e-17
1.49072e-18
3.21992e-20
4.5936e-22
3.27247e-24
5.74654e-27
7.77846e-30
)
;
    }
    rightWall
    {
        type            alphaContactAngle;
        contactAngleProperties 
        {
            mercury         
            {
                theta0          90;
            }
            air             
            {
                theta0          90;
            }
            water           
            {
                theta0          90;
            }
        }
        value           nonuniform List<scalar> 
50
(
0.256466
0.367493
0.49459
0.504822
0.508945
0.508488
0.449625
0.111569
0.0120573
0.565307
0.913343
0.991255
0.993316
0.986612
0.972094
0.972547
0.987812
0.437699
-1.8061e-09
1.61917e-06
2.52151e-06
1.08073e-06
4.57138e-07
4.71447e-07
5.91667e-07
8.2741e-07
7.99538e-07
6.41816e-07
6.42602e-08
1.35982e-08
1.37819e-08
1.37395e-08
1.91498e-08
2.63141e-08
4.43542e-08
5.0264e-08
5.98086e-08
5.80783e-08
5.63383e-08
4.60425e-08
3.7332e-08
1.95755e-08
1.18213e-08
5.08291e-09
2.76019e-09
1.28885e-09
5.49806e-10
3.00795e-10
1.57887e-10
6.58222e-11
)
;
    }
    lowerWall
    {
        type            alphaContactAngle;
        contactAngleProperties 
        {
            mercury         
            {
                theta0          90;
            }
            air             
            {
                theta0          90;
            }
            water           
            {
                theta0          90;
            }
        }
        value           nonuniform List<scalar> 
62
(
1.00575e-14
6.88811e-14
2.75046e-13
8.39e-13
2.16249e-12
5.14442e-12
1.1637e-11
2.49571e-11
4.91485e-11
9.51028e-11
1.88557e-10
3.63293e-10
7.4655e-10
1.53868e-09
3.03683e-09
7.02818e-09
1.49519e-08
2.18279e-08
3.1028e-08
0.000158175
0.00049682
0.000567232
0.000567294
0.000567294
0.000142463
2.21732e-08
1.72928e-08
5.00652e-08
3.16845e-05
6.75298e-05
3.88665e-05
5.45537e-06
0.0203262
0.0854526
0.119121
0.119766
0.416161
0.437102
0.0111763
0.0114257
0.0428881
0.0403733
0.0314039
0.119766
0.120466
0.0981158
0.0377911
0.0286029
0.028461
0.196377
0.320342
0.348552
0.354975
0.357669
0.329344
0.184236
0.0566394
0.103591
0.164676
0.236588
0.263796
0.256466
)
;
    }
    atmosphere
    {
        type            inletOutlet;
        inletValue      uniform 0;
        value           nonuniform List<scalar> 
46
(
0
0
1.53217e-28
1.81575e-27
1.14587e-26
7.94466e-26
4.49359e-25
1.62262e-24
7.40283e-24
1.99576e-23
4.27077e-23
9.54166e-23
1.99858e-22
3.7101e-22
5.97468e-22
8.44221e-22
1.11818e-21
1.52325e-21
2.59751e-21
8.05861e-21
3.94203e-20
2.24096e-19
1.64286e-18
5.89814e-18
2.05528e-17
0
0
0
0
0
0
0
0
0
0
0
0
0
0
0
0
0
0
0
0
0
)
;
    }
    defaultFaces
    {
        type            empty;
    }
}


// ************************************************************************* //
