/*--------------------------------*- C++ -*----------------------------------*\
  =========                 |
  \\      /  F ield         | OpenFOAM: The Open Source CFD Toolbox
   \\    /   O peration     | Website:  https://openfoam.org
    \\  /    A nd           | Version:  13
     \\/     M anipulation  |
\*---------------------------------------------------------------------------*/
FoamFile
{
    format      ascii;
    class       volScalarField;
    location    "1.9";
    object      alpha.water;
}
// * * * * * * * * * * * * * * * * * * * * * * * * * * * * * * * * * * * * * //

dimensions      [];

internalField   nonuniform List<scalar> 
2268
(
4.72714e-11
8.58444e-11
1.05115e-10
1.06738e-10
1.10774e-10
1.17132e-10
1.23866e-10
1.30122e-10
1.35806e-10
1.42528e-10
1.54761e-10
1.73192e-10
2.04514e-10
2.50861e-10
3.14734e-10
4.16106e-10
5.56835e-10
8.09191e-10
1.2798e-09
2.19626e-09
2.68907e-09
2.77887e-09
2.77887e-09
1.2689e-10
2.88528e-10
2.6428e-10
2.55243e-10
2.68264e-10
3.01062e-10
3.47538e-10
3.88424e-10
4.28135e-10
4.59287e-10
4.84177e-10
5.00925e-10
5.13799e-10
5.35264e-10
5.75552e-10
6.53379e-10
7.9915e-10
1.03183e-09
1.42171e-09
1.96945e-09
2.5427e-09
2.66554e-09
2.33806e-09
3.23394e-10
5.23389e-10
3.64165e-10
3.20069e-10
3.3709e-10
3.9561e-10
4.86105e-10
5.98689e-10
7.21955e-10
8.69918e-10
9.83599e-10
1.04527e-09
1.07454e-09
9.92095e-10
8.75381e-10
8.49947e-10
8.70342e-10
1.04577e-09
1.21954e-09
1.58097e-09
1.79017e-09
1.68127e-09
1.05472e-09
3.25614e-10
3.75184e-10
2.66129e-10
2.68121e-10
2.67327e-10
3.12785e-10
3.97168e-10
5.1659e-10
6.49646e-10
8.22961e-10
9.93242e-10
1.08825e-09
1.11877e-09
1.11512e-09
8.98623e-10
8.39698e-10
6.52241e-10
9.68595e-10
5.60884e-10
4.83933e-10
3.90984e-10
3.38286e-10
1.34379e-09
2.67142e-10
2.66021e-10
2.68567e-10
2.66021e-10
2.68567e-10
2.66021e-10
2.68598e-10
2.67046e-10
2.90177e-10
3.04516e-10
4.19454e-10
-1.08231e-11
1.39768e-10
-1.43376e-11
-1.10329e-11
-1.13118e-11
-9.10731e-12
-1.43513e-11
-2.19812e-14
-1.28747e-12
1.16201e-20
-1.28045e-19
-5.44672e-13
3.96124e-09
9.25157e-08
1.16165e-07
9.91979e-08
7.88307e-08
3.85315e-08
3.70031e-10
1.12278e-09
4.98651e-09
-1.36717e-13
0.000102166
0.00107279
0.00425051
0.0111261
0.023142
0.0412338
0.0660801
0.0965353
0.128656
0.161812
0.197377
0.238182
0.270805
0.126674
0.221502
0.277873
0.309502
0.331468
0.346232
0.358014
0.369485
0.382188
0.396548
0.431779
0.479638
0.538095
0.603685
0.669971
0.732729
0.79009
0.839193
0.878404
0.909452
0.936311
0.961215
0.981938
0.873418
0.938747
0.961101
0.970074
0.975065
0.977593
0.979223
0.981615
0.987159
0.999288
1
1
1
1
1
1
0.999997
0.999979
0.999908
0.999765
0.999517
0.999239
0.998328
0.0105064
0.0105974
0.0216487
0.0633915
0.0607976
0.0386495
0.023328
0.00293685
0.000856244
0.000854464
0.000854525
0.000827118
0.0770673
0.119931
0.123039
0.0711988
0.0148381
0.0163928
0.0186814
0.064367
0.0717661
0.0311745
0.0585689
0.144954
0.16493
0.10982
0.0752984
0.0412096
0.00753314
0.00095082
0.00177896
0.0338992
0.0853593
0.122176
0.0767692
0.0129401
0.0117974
0.0168985
0.446425
0.488007
0.290441
0.130363
0.184215
0.421857
0.480297
0.370977
0.238553
0.0570232
0.0114467
0.00120813
0.00104372
0.00925399
0.0213486
0.0166921
0.00972383
0.00926915
0.0105521
0.792388
0.797487
0.79917
0.372457
0.223399
0.337401
0.816223
0.927791
0.911335
0.451273
0.107445
0.00246061
0.00102536
0.00102616
0.00113484
0.00119686
0.00257047
0.0375923
0.0557844
0.842396
0.80648
0.800838
0.733795
0.227469
0.288719
0.763742
0.982022
0.992177
0.793781
0.310207
0.0323972
0.00102268
0.00102318
0.034993
0.185241
0.290872
0.396673
0.219778
0.883558
0.87912
0.82182
0.82862
0.425539
0.213224
0.359519
0.857838
0.992351
0.963527
0.5319
0.178013
0.0992623
0.0733535
0.364774
0.696194
0.845006
0.909683
0.468314
0.883575
0.883461
0.883486
0.882592
0.481923
0.198786
0.145001
0.713854
0.990135
0.993265
0.931586
0.716597
0.463627
0.46159
0.708285
0.910795
0.982234
0.984499
0.550335
0.879461
0.868832
0.882602
0.882696
0.463466
0.0849367
0.102197
0.775399
0.996096
0.99982
0.99987
0.999857
0.951379
0.92214
0.972031
0.999895
0.991684
0.986198
0.888433
1
1
1
1
1
1
1
1
1
1
1
1
1
1
1
1
0.999999
0.999995
0.999973
0.999969
0.999965
0.999963
0.997715
1
1
1
1
1
1
1
1
1
1
1
1
1
1
1
1
1
1
0.999572
0.989374
0.971644
0.94189
0.860227
1
1
1
1
1
1
1
1
1
1
1
1
1
0.999583
0.994379
0.986173
0.974473
0.941652
0.87453
0.767833
0.616204
0.402995
0.149134
0.994671
0.993012
0.991111
0.996559
0.998426
0.99995
1
0.999828
0.993279
0.984182
0.973026
0.95254
0.912449
0.841099
0.742949
0.644888
0.490394
0.331737
0.219406
0.116721
0.011215
0.00112965
-3.00347e-19
0.798839
0.721767
0.642632
0.593457
0.577548
0.624345
0.68656
0.652088
0.608012
0.513835
0.408033
0.310952
0.223379
0.138001
0.0609872
4.5088e-19
-1.54734e-20
-9.27597e-29
-2.2477e-20
-2.03856e-19
-4.91734e-20
-1.03302e-13
1.14194e-09
0.31137
0.0639596
0.0229443
0.0187916
0.0179907
0.0188788
0.0312742
0.0268055
0.00789595
6.14446e-06
3.90215e-11
3.63162e-26
3.98313e-26
8.15024e-19
8.97998e-24
1.11355e-30
-5.7585e-22
5.31637e-10
3.35264e-09
1.03971e-08
7.43503e-10
5.81141e-09
1.76077e-08
0.00872337
0.00513228
0.000512449
0.000123199
-1.23879e-13
-1.82246e-23
7.7597e-26
1.86762e-25
-4.45782e-25
6.32804e-26
5.91748e-09
1.93855e-20
-1.57715e-25
1.58177e-08
1.66466e-08
7.6281e-09
1.31899e-10
1.47391e-09
6.57158e-08
7.1709e-08
2.91491e-08
1.10313e-09
8.54609e-08
0.000202938
0.00088171
0.000372709
2.92813e-07
3.86024e-07
4.67674e-08
2.69559e-08
3.14456e-07
4.47227e-07
4.49757e-07
2.95692e-07
9.70333e-08
2.89653e-07
8.03068e-07
3.15272e-07
5.97996e-08
1.07294e-08
1.25533e-08
6.24582e-08
7.2753e-08
3.44712e-08
1.06829e-09
1.21344e-07
-1.13206e-08
-5.24597e-10
6.61431e-06
1.47604e-05
1.49942e-05
1.5372e-06
2.40781e-07
9.13293e-08
7.91462e-08
6.53842e-08
1.56657e-07
5.4755e-07
8.83694e-07
9.90301e-07
4.19589e-07
5.93552e-08
1.34008e-08
1.41324e-08
1.72188e-08
4.47781e-08
1.96925e-08
1.12054e-09
6.91134e-08
-4.87372e-08
-7.12484e-10
4.85667e-07
1.37616e-05
1.48266e-05
3.68275e-06
2.39061e-08
2.10822e-08
2.0849e-09
1.50838e-09
2.10547e-07
1.31209e-06
2.52976e-06
8.31449e-07
2.54921e-07
1.43993e-08
1.38483e-08
4.34944e-08
3.59823e-08
8.56386e-09
5.40567e-09
4.34814e-09
1.97371e-08
-4.28905e-08
2.58149e-08
1.95155e-07
5.04978e-06
7.59014e-06
1.03724e-06
7.92033e-08
1.03365e-10
1.00347e-10
4.1585e-08
2.25779e-06
3.07687e-06
3.07862e-06
1.91974e-06
4.59082e-07
1.23339e-06
9.62744e-07
3.79442e-07
9.77539e-08
1.84166e-08
5.85985e-09
4.29597e-09
8.53121e-09
-1.57998e-08
3.35847e-08
4.23157e-07
4.14675e-07
8.63317e-07
9.85045e-08
4.65121e-10
4.42067e-10
1.03365e-10
2.03302e-07
2.18306e-06
2.81187e-06
3.07838e-06
3.07839e-06
2.52025e-06
2.67031e-06
2.42898e-06
5.24305e-07
1.43813e-07
3.02773e-08
5.58352e-09
2.81701e-09
2.65532e-09
1.20693e-08
9.81338e-09
8.27654e-09
9.99085e-09
6.44485e-08
8.41279e-09
4.70136e-10
4.57473e-10
1.64217e-10
1.6382e-10
6.92713e-08
1.38123e-06
3.07421e-06
3.07831e-06
3.0415e-06
2.93749e-06
1.5683e-06
3.43114e-07
8.97772e-08
3.42369e-08
2.77873e-08
6.38877e-09
3.79709e-09
3.24748e-08
2.15024e-08
1.09089e-08
1.08036e-08
5.57159e-09
1.7633e-09
4.59226e-10
3.8357e-10
3.55568e-10
3.526e-10
3.68438e-10
2.22965e-07
1.23805e-06
2.65919e-06
1.65604e-06
8.94015e-07
2.8452e-07
1.58652e-07
5.53532e-08
3.06399e-08
3.1845e-08
3.02072e-08
1.35193e-08
3.20461e-08
1.19141e-08
1.24647e-08
1.04128e-08
6.97998e-09
1.35323e-09
7.12768e-10
3.68058e-10
3.02366e-10
3.17955e-10
4.5137e-10
9.2923e-10
1.39938e-08
1.61028e-07
2.21305e-07
1.008e-07
5.82652e-08
4.88243e-08
3.12041e-08
2.65141e-08
3.02129e-08
2.73415e-08
1.44583e-08
1.80722e-08
7.51846e-09
6.98322e-09
5.99359e-09
3.94311e-09
2.43748e-09
1.35306e-09
7.75304e-10
6.95488e-10
1.36293e-09
3.05578e-09
4.07108e-09
3.59679e-09
3.35517e-09
1.91415e-08
1.25709e-08
1.8027e-08
2.35113e-08
1.94547e-08
1.86067e-08
1.96678e-08
1.78836e-08
1.1465e-08
1.88604e-08
6.0736e-09
3.4584e-09
3.79657e-09
3.01981e-09
2.30995e-09
1.56883e-09
1.07686e-09
9.81633e-10
2.01897e-09
4.78306e-09
6.59749e-09
5.59309e-09
3.2989e-09
5.89871e-09
1.12563e-08
1.15924e-08
1.04445e-08
1.00841e-08
1.02401e-08
1.24282e-08
1.153e-08
8.6155e-09
1.97423e-08
6.09624e-09
2.45298e-09
2.94815e-09
2.67413e-09
2.18118e-09
1.67464e-09
1.22092e-09
1.00291e-09
1.51102e-09
2.98309e-09
4.60573e-09
4.46601e-09
3.10987e-09
5.33741e-09
8.41099e-09
7.95588e-09
5.8729e-09
4.59821e-09
4.99262e-09
6.88931e-09
6.55746e-09
5.9492e-09
1.97798e-08
6.41115e-09
2.39962e-09
2.69063e-09
2.50711e-09
2.12701e-09
1.70311e-09
1.28215e-09
8.5735e-10
4.77849e-10
4.23399e-10
4.92921e-10
1.0127e-09
1.70318e-09
2.98577e-09
3.7426e-09
4.11684e-09
3.0989e-09
2.13482e-09
2.09863e-09
3.14297e-09
3.72937e-09
3.85228e-09
1.9624e-08
6.73015e-09
2.40309e-09
2.4277e-09
2.26446e-09
1.94853e-09
1.64797e-09
1.25645e-09
8.3506e-10
4.87248e-10
2.79083e-10
2.13324e-10
3.0332e-10
5.8368e-10
1.00813e-09
1.44065e-09
1.58617e-09
1.27727e-09
9.28032e-10
8.80387e-10
1.51505e-09
2.09564e-09
2.34772e-09
1.82987e-08
7.93391e-09
2.54655e-09
2.22878e-09
2.02779e-09
1.72313e-09
1.46768e-09
1.18423e-09
8.56318e-10
5.45969e-10
3.17236e-10
1.83115e-10
1.35266e-10
1.56565e-10
2.34631e-10
3.73336e-10
4.48929e-10
4.15307e-10
3.4888e-10
3.40226e-10
5.97723e-10
1.00477e-09
1.29531e-09
1.65717e-08
8.49954e-09
3.3474e-09
2.0505e-09
1.7728e-09
1.43277e-09
1.18716e-09
9.85226e-10
7.73248e-10
5.44499e-10
3.32329e-10
1.82082e-10
1.07817e-10
7.9412e-11
7.94572e-11
1.0471e-10
1.21347e-10
1.29072e-10
1.19196e-10
1.21708e-10
2.00439e-10
3.87665e-10
5.68319e-10
1.43125e-08
8.1347e-09
3.80221e-09
1.99436e-09
1.55464e-09
1.15499e-09
9.08894e-10
7.38881e-10
6.06611e-10
4.73002e-10
3.20808e-10
1.77644e-10
9.81834e-11
5.71565e-11
4.08374e-11
3.8639e-11
4.01491e-11
4.5622e-11
4.60627e-11
4.78508e-11
6.04092e-11
1.12609e-10
1.90015e-10
1.22265e-08
7.29031e-09
3.73931e-09
1.91951e-09
1.33136e-09
9.12609e-10
6.66667e-10
5.07714e-10
4.10846e-10
3.36828e-10
2.59756e-10
1.71046e-10
8.58041e-11
4.92234e-11
2.85689e-11
1.99711e-11
1.83019e-11
1.91121e-11
2.07334e-11
2.19927e-11
2.39904e-11
3.12557e-11
5.08565e-11
1.02902e-08
6.19479e-09
3.42256e-09
1.70366e-09
1.06447e-09
6.64549e-10
4.61073e-10
3.37961e-10
2.61906e-10
2.14306e-10
1.7324e-10
1.31972e-10
7.56172e-11
4.2521e-11
2.22145e-11
1.29349e-11
9.29625e-12
8.81722e-12
9.64222e-12
1.04317e-11
1.08891e-11
1.19992e-11
1.49386e-11
8.49834e-09
5.01418e-09
2.83587e-09
1.39727e-09
8.03413e-10
4.63741e-10
2.8214e-10
2.03868e-10
1.50549e-10
1.19e-10
9.75893e-11
7.8464e-11
5.79811e-11
3.18105e-11
1.69728e-11
8.67298e-12
5.12868e-12
4.30492e-12
4.35072e-12
4.59911e-12
4.93065e-12
5.12113e-12
5.3652e-12
6.52679e-09
3.756e-09
2.11023e-09
1.056e-09
5.64298e-10
3.09516e-10
1.60149e-10
1.10948e-10
7.98889e-11
6.06031e-11
4.81164e-11
3.8793e-11
3.03934e-11
2.10604e-11
1.10782e-11
5.69942e-12
2.81542e-12
2.05133e-12
1.91208e-12
1.99342e-12
2.08e-12
2.16338e-12
2.19447e-12
4.46607e-09
2.51593e-09
1.38678e-09
6.98518e-10
3.54707e-10
1.83867e-10
8.81701e-11
5.1875e-11
3.61573e-11
2.70295e-11
2.13868e-11
1.71829e-11
1.36071e-11
1.02592e-11
6.35495e-12
3.12777e-12
1.42115e-12
9.2852e-13
7.88897e-13
7.95782e-13
8.09428e-13
8.13144e-13
8.07751e-13
2.62543e-09
1.45615e-09
7.81053e-10
3.88589e-10
1.89273e-10
9.27939e-11
4.29549e-11
2.16079e-11
1.41376e-11
1.04039e-11
8.09087e-12
6.37614e-12
5.11615e-12
4.0277e-12
2.79133e-12
1.54323e-12
6.36544e-13
3.68794e-13
2.97803e-13
2.86536e-13
2.81363e-13
2.84351e-13
2.83146e-13
1.30919e-09
7.08914e-10
3.65052e-10
1.76625e-10
8.25548e-11
3.83713e-11
1.72576e-11
7.80513e-12
4.72855e-12
3.37707e-12
2.59387e-12
2.05238e-12
1.61424e-12
1.28806e-12
9.58151e-13
5.65342e-13
2.57083e-13
1.21336e-13
9.98026e-14
9.66507e-14
9.3837e-14
8.73965e-14
8.41228e-14
5.15166e-10
2.70429e-10
1.35415e-10
6.33885e-11
2.84383e-11
1.25851e-11
5.51954e-12
2.34666e-12
1.33776e-12
9.26372e-13
7.01799e-13
5.51332e-13
4.38781e-13
3.42512e-13
2.65421e-13
1.60391e-13
8.03563e-14
3.67948e-14
2.94304e-14
2.85532e-14
2.72629e-14
2.46628e-14
2.1931e-14
1.54782e-10
7.85708e-11
3.85267e-11
1.74612e-11
7.54974e-12
3.2149e-12
1.38603e-12
5.82018e-13
3.16385e-13
2.12069e-13
1.58484e-13
1.23226e-13
9.7296e-14
7.83971e-14
5.71969e-14
3.47261e-14
1.79221e-14
9.2185e-15
7.38422e-15
7.24065e-15
7.06402e-15
5.61967e-15
4.77783e-15
3.22412e-11
1.6724e-11
7.99635e-12
3.51761e-12
1.4802e-12
6.18067e-13
2.66692e-13
1.14437e-13
6.04343e-14
3.90087e-14
2.86505e-14
2.24749e-14
1.82035e-14
1.46323e-14
1.04074e-14
6.21349e-15
3.3406e-15
1.9087e-15
1.65062e-15
1.59828e-15
1.43481e-15
1.1971e-15
9.05754e-16
4.88977e-12
2.62954e-12
1.2136e-12
5.23666e-13
2.1914e-13
9.2527e-14
4.10467e-14
1.86641e-14
9.71557e-15
6.11555e-15
4.51564e-15
3.30211e-15
2.74171e-15
2.15569e-15
1.48388e-15
9.50146e-16
5.15839e-16
3.47617e-16
3.19864e-16
3.09663e-16
2.72835e-16
1.99643e-16
1.39786e-16
3.86777e-13
2.66905e-13
1.18192e-13
5.10931e-14
2.37486e-14
1.07237e-14
5.05099e-15
2.13431e-15
1.12547e-15
6.80891e-16
4.95255e-16
4.55226e-16
3.80175e-16
2.90872e-16
1.94588e-16
1.06194e-16
7.40933e-17
6.08495e-17
5.61894e-17
5.18513e-17
4.13192e-17
2.9147e-17
1.83834e-17
3.19901e-14
1.85989e-14
8.33266e-15
3.85104e-15
1.67543e-15
8.52331e-16
4.35132e-16
2.55757e-16
1.38182e-16
8.59331e-17
6.34911e-17
5.45709e-17
4.53332e-17
3.41352e-17
2.23627e-17
1.39209e-17
1.06221e-17
9.39944e-18
8.18747e-18
7.2211e-18
5.36602e-18
3.40605e-18
2.12759e-18
1.83789e-15
7.86075e-16
3.7208e-16
2.11764e-16
1.49775e-16
8.23879e-17
4.48246e-17
2.38401e-17
1.35523e-17
8.73589e-18
6.64752e-18
5.66295e-18
4.64323e-18
3.42168e-18
2.2773e-18
1.6405e-18
1.41932e-18
1.304e-18
1.11073e-18
8.40162e-19
5.50721e-19
3.36235e-19
1.72675e-19
9.02971e-17
4.37378e-17
2.34606e-17
1.50723e-17
9.9535e-18
6.33339e-18
3.69891e-18
2.07711e-18
1.24377e-18
8.17923e-19
6.40765e-19
5.41976e-19
4.38049e-19
3.23319e-19
2.34039e-19
1.9633e-19
1.79522e-19
1.54451e-19
1.23098e-19
8.35005e-20
5.20933e-20
2.41953e-20
6.22856e-21
3.19567e-18
1.55148e-18
1.07984e-18
8.30734e-19
5.51062e-19
3.92204e-19
2.74723e-19
1.66057e-19
1.02744e-19
6.81087e-20
5.48878e-20
4.6369e-20
3.74836e-20
2.89954e-20
2.38608e-20
2.20987e-20
2.03747e-20
1.69281e-20
1.1828e-20
7.44149e-21
3.47213e-21
8.13894e-22
1.26287e-22
8.69731e-20
4.83463e-20
3.7937e-20
3.86132e-20
3.51806e-20
2.68072e-20
1.86909e-20
1.13188e-20
7.40187e-21
4.9625e-21
4.12079e-21
3.53942e-21
2.9772e-21
2.56827e-21
2.41941e-21
2.35752e-21
2.12693e-21
1.57364e-21
1.0204e-21
4.78525e-22
1.31149e-22
2.05788e-23
1.81672e-24
2.51136e-21
1.58141e-21
1.54532e-21
2.05071e-21
2.15268e-21
1.70244e-21
1.17267e-21
7.05583e-22
4.73939e-22
3.22451e-22
2.78553e-22
2.51629e-22
2.34056e-22
2.34073e-22
2.42866e-22
2.3782e-22
2.04704e-22
1.45438e-22
7.22945e-23
2.28045e-23
4.25973e-24
3.14073e-25
1.118e-26
8.30317e-23
4.81289e-23
5.75377e-23
1.14937e-22
1.23421e-22
9.9095e-23
6.83725e-23
4.16963e-23
2.73552e-23
1.91329e-23
1.75709e-23
1.751e-23
1.89034e-23
2.15612e-23
2.36072e-23
2.24776e-23
1.80724e-23
1.12255e-23
4.27205e-24
9.61089e-25
1.08051e-25
4.00064e-27
6.77777e-29
0.972943
0.945861
0.852228
0.812675
0.749296
0.524455
0.249987
0.107182
0.0047726
-6.36651e-16
-9.10055e-20
3.31065e-06
4.59567e-21
-5.85448e-14
-1.42137e-14
-4.23345e-24
-2.68265e-38
-8.4694e-26
1.2802e-08
5.83621e-08
1.46511e-08
8.82071e-08
1.63241e-07
1.84719e-07
2.6824e-07
2.43214e-07
2.49606e-07
2.42045e-07
3.09837e-07
2.52366e-07
-1.98566e-09
7.23894e-08
3.02906e-07
1.13723e-07
2.2226e-10
1.93735e-10
1.04043e-07
4.01475e-08
1.82434e-10
1.67781e-10
7.46522e-09
3.96122e-09
2.15278e-09
5.52854e-10
4.07641e-09
3.4182e-09
3.07205e-09
1.80821e-09
2.32533e-09
2.15373e-09
2.20514e-09
1.80795e-09
7.92113e-09
5.44143e-09
2.99232e-09
2.66809e-09
1.27149e-08
9.9543e-09
7.30087e-09
4.24905e-09
9.98345e-09
1.04852e-08
7.93267e-09
4.38051e-09
7.87743e-09
7.33098e-09
6.54278e-09
4.19177e-09
5.58695e-09
5.15031e-09
4.80243e-09
3.85894e-09
3.70819e-09
3.69351e-09
3.43494e-09
3.12873e-09
2.34789e-09
2.19993e-09
2.29385e-09
2.27597e-09
1.38204e-09
1.42687e-09
1.42394e-09
1.4557e-09
6.91784e-10
6.80656e-10
7.53388e-10
8.14581e-10
2.56996e-10
2.91579e-10
3.28905e-10
3.63212e-10
7.25753e-11
7.16157e-11
9.34182e-11
1.19578e-10
1.86385e-11
1.95678e-11
2.54372e-11
3.13658e-11
5.87302e-12
5.44448e-12
6.56804e-12
7.8784e-12
2.13658e-12
2.09002e-12
2.21304e-12
2.33765e-12
7.61512e-13
6.56369e-13
7.03332e-13
7.25059e-13
2.57792e-13
2.24918e-13
2.20862e-13
2.06535e-13
7.62582e-14
6.47898e-14
6.11436e-14
5.42871e-14
1.96151e-14
1.66096e-14
1.46889e-14
1.23623e-14
4.33194e-15
3.52185e-15
2.95451e-15
2.37861e-15
7.80249e-16
6.13951e-16
4.8495e-16
3.68641e-16
1.14826e-16
8.74158e-17
6.50458e-17
4.75993e-17
1.4373e-17
1.07407e-17
8.37596e-18
4.52643e-18
1.49639e-18
7.92873e-19
3.70755e-19
9.68855e-20
5.71798e-20
1.44533e-20
3.8276e-21
5.0706e-22
4.73879e-22
5.32439e-23
1.26752e-23
9.41533e-25
1.74807e-25
4.43898e-26
1.55155e-26
3.8823e-27
6.66214e-29
2.78488e-28
1.01392e-27
3.21379e-27
6.65479e-29
2.82693e-28
1.02289e-27
3.13526e-27
6.65319e-29
2.0208e-28
6.49871e-28
1.77736e-27
0.622845
0.569265
0.841472
0.874953
0.556206
0.0338847
0.157442
0.894259
0.999571
0.99987
0.999869
0.999779
0.999796
0.999895
0.999895
0.999895
0.999881
0.99615
0.906698
0.0130793
0.180861
0.717977
0.762469
0.257635
2.38938e-06
0.203771
0.861324
0.985683
0.996663
0.994672
0.996413
0.994528
0.977748
0.991055
0.999654
0.835186
0.463657
0.326771
0.00392336
0.055812
0.189501
0.153798
0.0117946
1.27493e-06
0.081575
0.61372
0.808384
0.827444
0.731267
0.566566
0.454544
0.308687
0.219972
0.208146
0.100194
0.00196732
0.00098899
-1.90472e-21
-7.72553e-14
9.28289e-25
-2.85714e-23
2.09189e-06
4.936e-06
0.00924404
0.0921689
0.147636
0.0965059
0.000157855
1.69459e-07
1.41993e-07
1.32949e-07
1.55927e-07
1.43662e-07
1.39573e-06
0.000914177
0.00350139
5.85274e-08
5.54339e-08
3.67479e-06
4.31123e-05
5.99267e-05
4.80118e-05
1.28927e-07
1.23057e-07
1.19039e-07
1.23057e-07
1.8649e-07
1.64054e-07
1.3743e-06
2.29454e-06
1.76006e-06
1.11853e-06
1.63699e-05
0.00172131
0.00595348
1.20776e-07
8.0929e-08
2.28148e-06
2.21363e-05
2.38805e-05
9.15788e-06
1.88594e-06
4.48511e-07
2.97809e-07
3.28027e-07
6.42974e-07
6.00308e-07
3.05956e-08
2.91078e-09
8.52575e-09
3.17427e-08
3.42657e-08
0.00123043
0.00499887
2.19619e-07
1.70631e-07
5.95557e-07
3.35998e-06
8.34036e-06
9.8233e-06
4.31959e-07
7.26539e-08
3.82906e-10
9.10011e-09
6.80373e-08
5.0276e-08
3.08144e-08
5.10028e-08
4.66556e-08
3.38759e-08
2.95729e-05
0.000158819
0.000260173
2.84987e-07
8.721e-07
1.4747e-06
2.03936e-06
3.24702e-06
3.26867e-06
8.39038e-07
5.74591e-11
4.51361e-10
9.91836e-10
1.98686e-09
2.22215e-08
2.47317e-07
3.87273e-07
2.7953e-07
2.09584e-07
1.84465e-05
7.944e-05
0.000146177
1.41573e-08
1.2779e-07
2.53687e-07
4.5965e-07
4.78628e-07
5.15649e-08
1.21096e-11
2.02763e-10
1.78944e-09
2.04661e-09
3.32539e-09
3.87107e-08
3.31248e-07
8.4194e-07
1.31532e-06
5.66865e-05
0.00142401
0.00478376
0.00582767
5.5352e-11
2.15541e-12
-6.99673e-15
2.72601e-12
2.3838e-12
2.75734e-12
5.76211e-11
4.16133e-10
7.39752e-10
6.88707e-10
7.25115e-10
1.21545e-09
1.0149e-09
2.80957e-09
2.68269e-09
0.00326288
0.0134152
0.0152867
0.0154918
2.29862e-10
2.0664e-10
1.35514e-10
8.10225e-11
5.78064e-11
1.5513e-10
6.61838e-10
2.00056e-09
2.75177e-09
9.91891e-08
8.96009e-07
9.46877e-06
4.20834e-05
8.43204e-05
0.000224495
0.00602214
0.00978535
0.00922548
0.00568446
3.33946e-10
3.71016e-10
2.81729e-10
2.00729e-10
1.39955e-10
1.52893e-10
5.11445e-10
1.75521e-09
1.63733e-08
1.4435e-06
6.8448e-06
2.81054e-05
0.000103135
0.00027769
0.000454145
1.31592e-05
9.99431e-10
8.04448e-10
2.62687e-07
6.82437e-10
6.05644e-10
3.85728e-10
2.30029e-10
1.57685e-10
1.21817e-10
8.69368e-11
7.45417e-11
1.95874e-10
1.03584e-10
2.23847e-10
2.69225e-06
2.97865e-05
8.11006e-06
1.75229e-10
2.40557e-19
4.85876e-09
4.69987e-09
1.57261e-09
1.81782e-09
9.20335e-10
4.15402e-10
2.04759e-10
1.15914e-10
9.59094e-11
7.28385e-11
5.97423e-11
3.98451e-11
5.17287e-11
5.7798e-10
2.54943e-09
1.23556e-10
1.79561e-09
1.03124e-09
1.02725e-08
3.23129e-08
2.43772e-08
4.97109e-09
2.24634e-09
9.28268e-10
3.58787e-10
1.24996e-10
8.06313e-11
6.75881e-11
5.97095e-11
6.18271e-11
1.02703e-10
7.23112e-10
1.83461e-10
4.55629e-09
2.8523e-07
5.97967e-08
5.59311e-09
1.54055e-08
2.9918e-08
1.93282e-08
5.88264e-09
2.0985e-09
8.11188e-10
2.64341e-10
8.93863e-11
6.50586e-11
6.3445e-11
7.69673e-11
1.43167e-10
4.59685e-10
1.22228e-09
3.85352e-10
3.10692e-08
1.28426e-07
5.86262e-08
9.28801e-09
4.59401e-09
1.04105e-08
6.38079e-11
2.53467e-09
2.01958e-09
7.05985e-10
1.90141e-10
7.45343e-11
6.81507e-11
9.65968e-11
1.63606e-10
3.75991e-10
8.6634e-10
1.17398e-09
8.83381e-09
4.12333e-08
3.81857e-09
2.54132e-09
2.23339e-09
1.45841e-10
4.75153e-11
7.60891e-11
2.22123e-09
2.20004e-09
7.64612e-10
1.79362e-10
7.62137e-11
8.24822e-11
1.27058e-10
2.09583e-10
4.27871e-10
9.89345e-10
1.11218e-09
8.64254e-09
1.86795e-08
1.53422e-08
4.86275e-09
7.85316e-10
2.79673e-10
4.62582e-11
1.3959e-10
1.9902e-09
2.36333e-09
1.09683e-09
3.03221e-10
9.36725e-11
9.58e-11
1.26009e-10
2.29545e-10
3.66883e-10
6.43133e-10
1.14726e-09
1.76981e-09
2.49277e-09
5.98401e-10
3.64625e-12
3.21841e-12
7.99015e-12
1.78152e-11
1.03317e-10
1.35541e-09
2.0055e-09
1.41272e-09
6.69608e-10
1.92486e-10
1.04031e-10
1.16568e-10
1.69659e-10
2.70508e-10
4.02801e-10
4.66935e-10
3.02555e-10
3.48e-11
5.54723e-12
3.53342e-12
3.19087e-12
4.58685e-12
1.17658e-11
7.24081e-11
6.44779e-10
1.40995e-09
1.21133e-09
8.91989e-10
4.61609e-10
1.57364e-10
1.05196e-10
1.04782e-10
1.25076e-10
1.60206e-10
1.62842e-10
1.23836e-10
6.4403e-11
2.93771e-11
4.76243e-12
2.41909e-12
3.35173e-12
7.36591e-12
3.91535e-11
2.12044e-10
8.46189e-10
8.20146e-10
7.22676e-10
5.4683e-10
3.22658e-10
1.46341e-10
6.80162e-11
5.6691e-11
5.45148e-11
4.75164e-11
3.28818e-11
2.04656e-11
6.03895e-12
1.29788e-12
1.15466e-12
1.40024e-12
2.80293e-12
1.43727e-11
5.07887e-11
4.06132e-10
4.3919e-10
4.30619e-10
3.91658e-10
3.04495e-10
1.92655e-10
9.4522e-11
4.19283e-11
2.37127e-11
1.57274e-11
9.87067e-12
4.70914e-12
1.49371e-12
5.81832e-13
4.35468e-13
5.17055e-13
8.58295e-13
2.93937e-12
1.69562e-11
1.4778e-10
1.79012e-10
2.02972e-10
2.01076e-10
1.84562e-10
1.47957e-10
9.595e-11
4.72124e-11
1.97277e-11
8.57898e-12
3.91158e-12
1.64368e-12
6.45365e-13
2.90467e-13
1.76931e-13
1.39086e-13
1.65032e-13
5.06068e-13
1.78103e-12
4.07162e-11
5.46527e-11
6.83235e-11
7.81133e-11
7.95762e-11
7.47905e-11
6.1338e-11
3.81728e-11
1.74437e-11
6.79581e-12
2.49665e-12
8.71514e-13
3.12771e-13
1.3343e-13
6.12806e-14
4.0366e-14
2.47012e-14
2.54609e-14
9.8088e-14
9.90231e-12
1.33903e-11
1.76859e-11
2.25958e-11
2.54568e-11
2.64709e-11
2.52172e-11
2.01701e-11
1.13121e-11
4.62799e-12
1.57871e-12
4.59606e-13
1.33794e-13
4.78118e-14
1.89341e-14
4.99122e-15
2.63511e-15
2.45515e-15
7.03506e-15
2.5952e-12
3.13291e-12
4.01167e-12
5.01736e-12
5.8668e-12
6.83951e-12
7.4152e-12
6.89955e-12
4.75905e-12
2.2493e-12
7.7741e-13
2.0181e-13
4.60768e-14
1.34318e-14
3.43337e-15
1.01005e-15
1.27795e-15
1.26386e-15
6.87332e-16
7.36598e-13
7.57889e-13
8.3805e-13
9.5482e-13
1.1038e-12
1.35996e-12
1.57432e-12
1.64333e-12
1.33992e-12
7.3234e-13
2.63506e-13
6.24937e-14
1.19486e-14
2.94149e-15
4.75446e-16
4.05097e-16
6.12077e-16
6.69293e-16
3.80589e-16
1.97462e-13
1.78295e-13
1.62737e-13
1.60496e-13
1.71512e-13
2.06424e-13
2.54358e-13
2.85253e-13
2.50888e-13
1.52068e-13
5.56388e-14
1.18201e-14
1.94851e-15
5.05867e-16
1.30652e-16
1.55535e-16
2.73974e-16
3.65608e-16
1.93799e-16
4.59101e-14
3.85782e-14
3.0585e-14
2.23322e-14
1.82691e-14
2.08231e-14
2.7609e-14
3.33942e-14
3.08518e-14
1.97372e-14
6.88687e-15
1.04138e-15
9.97706e-17
5.21939e-17
3.85033e-17
5.7381e-17
1.19559e-16
2.1494e-16
1.10666e-16
9.40497e-15
7.17363e-15
4.66211e-15
2.29693e-15
1.03938e-15
1.01759e-15
1.74975e-15
2.43799e-15
2.3726e-15
1.56109e-15
4.0787e-16
1.8384e-17
5.88251e-19
1.74609e-18
6.56252e-18
2.01055e-17
5.21212e-17
1.16063e-16
7.88486e-17
1.55564e-15
1.07463e-15
4.93543e-16
1.27275e-16
2.25771e-17
2.45394e-17
5.79155e-17
9.20521e-17
9.39239e-17
6.15948e-17
1.04228e-17
2.40188e-19
1.15936e-19
5.08613e-19
2.34922e-18
7.6443e-18
2.3495e-17
6.88859e-17
4.33589e-17
2.3299e-16
9.67651e-17
2.31052e-17
2.69229e-18
2.31213e-19
2.92418e-19
1.20359e-18
2.41079e-18
2.37135e-18
9.12369e-19
5.83351e-20
2.1888e-20
5.01819e-20
2.12351e-19
8.95774e-19
3.89589e-18
1.53154e-17
3.34326e-17
2.50174e-17
2.45653e-17
4.72184e-18
4.28105e-19
2.83446e-20
4.03407e-21
3.54636e-21
1.68539e-20
4.09785e-20
4.23112e-20
1.63001e-20
1.06073e-20
1.83377e-20
3.57777e-20
1.09678e-19
4.98806e-19
2.82903e-18
9.51891e-18
1.69104e-17
1.15993e-17
9.36872e-19
6.94232e-20
3.77184e-21
2.57279e-22
1.47032e-22
1.73041e-22
4.87556e-22
1.24909e-21
2.13164e-21
3.92177e-21
8.44143e-21
1.70485e-20
3.01236e-20
8.1044e-20
4.02232e-19
1.93588e-18
4.92266e-18
7.75829e-18
5.50771e-18
1.01992e-20
3.9855e-22
2.37518e-23
1.39188e-23
2.90247e-23
7.7643e-23
2.16043e-22
5.76643e-22
1.44605e-21
3.46388e-21
7.86078e-21
1.58225e-20
2.7916e-20
7.24295e-20
3.18808e-19
1.19225e-18
2.66468e-18
3.38727e-18
2.20916e-18
4.10461e-23
1.51462e-24
1.74041e-24
6.01798e-24
1.98828e-23
6.16213e-23
1.75879e-22
4.73012e-22
1.21867e-21
2.93516e-21
6.59348e-21
1.33484e-20
2.37656e-20
5.77688e-20
2.1632e-19
6.94289e-19
1.17262e-18
1.36021e-18
8.05933e-19
1.18322e-25
3.02393e-25
1.25782e-24
4.61016e-24
1.52983e-23
4.65034e-23
1.35569e-22
3.6142e-22
9.22574e-22
2.22907e-21
5.01738e-21
1.01563e-20
1.80756e-20
4.12147e-20
1.33871e-19
3.72892e-19
5.61503e-19
4.80679e-19
2.66923e-19
4.39659e-26
2.21137e-25
9.05778e-25
3.16961e-24
1.04078e-23
3.15464e-23
8.95841e-23
2.39879e-22
6.12766e-22
1.48244e-21
3.31413e-21
6.70683e-21
1.21421e-20
2.66123e-20
7.02833e-20
1.89196e-19
2.06125e-19
1.62994e-19
6.90285e-20
3.28544e-26
1.41723e-25
5.2658e-25
1.76823e-24
5.55283e-24
1.65516e-23
4.78533e-23
1.30283e-22
3.34033e-22
8.2142e-22
1.87845e-21
3.84453e-21
6.93262e-21
1.47013e-20
3.32969e-20
8.6993e-20
7.48036e-20
4.29396e-20
2.60204e-20
1.81692e-26
6.83476e-26
2.32986e-25
7.41451e-25
2.31221e-24
7.01229e-24
2.05432e-23
5.78357e-23
1.53349e-22
3.88674e-22
9.06884e-22
1.89711e-21
3.52081e-21
7.30703e-21
1.48605e-20
3.43061e-20
2.08051e-20
1.50426e-20
9.2172e-21
5.63722e-27
1.82327e-26
5.68802e-26
1.68608e-25
5.71027e-25
1.93908e-24
6.19765e-24
1.86666e-23
5.32387e-23
1.41686e-22
3.44295e-22
7.5111e-22
1.4285e-21
2.96774e-21
5.69814e-21
1.15511e-20
7.08019e-21
4.85857e-21
2.55223e-21
)
;

boundaryField
{
    leftWall
    {
        type            alphaContactAngle;
        contactAngleProperties 
        {
            mercury         
            {
                theta0          90;
            }
            air             
            {
                theta0          90;
            }
            oil             
            {
                theta0          90;
            }
        }
        value           nonuniform List<scalar> 
50
(
4.72714e-11
1.2689e-10
3.23394e-10
3.25614e-10
2.67142e-10
3.96124e-09
0.126674
0.873418
1
1
1
0.994671
0.798839
0.31137
0.00872337
0.000202938
-1.13206e-08
-4.87372e-08
-4.28905e-08
-1.57998e-08
1.20693e-08
3.24748e-08
3.20461e-08
1.80722e-08
1.88604e-08
1.97423e-08
1.97798e-08
1.9624e-08
1.82987e-08
1.65717e-08
1.43125e-08
1.22265e-08
1.02902e-08
8.49834e-09
6.52679e-09
4.46607e-09
2.62543e-09
1.30919e-09
5.15166e-10
1.54782e-10
3.22412e-11
4.88977e-12
3.86777e-13
3.19901e-14
1.83789e-15
9.02971e-17
3.19567e-18
8.69731e-20
2.51136e-21
8.30317e-23
)
;
    }
    rightWall
    {
        type            alphaContactAngle;
        contactAngleProperties 
        {
            mercury         
            {
                theta0          90;
            }
            air             
            {
                theta0          90;
            }
            oil             
            {
                theta0          90;
            }
        }
        value           nonuniform List<scalar> 
50
(
0.0186814
0.0168985
0.0105521
0.0557844
0.219778
0.468314
0.550335
0.888433
0.906698
0.326771
0.00098899
0.00350139
0.00595348
0.00499887
0.000260173
0.000146177
0.00582767
0.0154918
0.00568446
2.62687e-07
1.57261e-09
4.97109e-09
5.88264e-09
2.53467e-09
2.22123e-09
1.9902e-09
1.35541e-09
6.44779e-10
2.12044e-10
5.07887e-11
1.69562e-11
1.78103e-12
9.8088e-14
7.03506e-15
6.87332e-16
3.80589e-16
1.93799e-16
1.10666e-16
7.88486e-17
4.33589e-17
2.50174e-17
1.15993e-17
5.50771e-18
2.20916e-18
8.05933e-19
2.66923e-19
6.90285e-20
2.60204e-20
9.2172e-21
2.55223e-21
)
;
    }
    lowerWall
    {
        type            alphaContactAngle;
        contactAngleProperties 
        {
            mercury         
            {
                theta0          90;
            }
            air             
            {
                theta0          90;
            }
            oil             
            {
                theta0          90;
            }
        }
        value           nonuniform List<scalar> 
62
(
4.72714e-11
8.58444e-11
1.05115e-10
1.06738e-10
1.10774e-10
1.17132e-10
1.23866e-10
1.30122e-10
1.35806e-10
1.42528e-10
1.54761e-10
1.73192e-10
2.04514e-10
2.50861e-10
3.14734e-10
4.16106e-10
5.56835e-10
8.09191e-10
1.2798e-09
2.19626e-09
2.68907e-09
2.77887e-09
2.77887e-09
2.77887e-09
2.33806e-09
1.05472e-09
1.34379e-09
-5.44672e-13
0.270805
0.981938
0.998328
0.972943
0.945861
0.852228
0.812675
0.0105064
0.064367
0.446425
0.792388
0.842396
0.883558
0.883575
0.879461
0.0105064
0.0105974
0.0216487
0.0633915
0.0607976
0.0386495
0.023328
0.00293685
0.000856244
0.000854464
0.000854525
0.000827118
0.0770673
0.119931
0.123039
0.0711988
0.0148381
0.0163928
0.0186814
)
;
    }
    atmosphere
    {
        type            inletOutlet;
        inletValue      uniform 0;
        value           nonuniform List<scalar> 
46
(
0
0
5.75377e-23
1.14937e-22
1.23421e-22
9.9095e-23
6.83725e-23
4.16963e-23
2.73552e-23
1.91329e-23
1.75709e-23
1.751e-23
1.89034e-23
2.15612e-23
2.36072e-23
2.24776e-23
1.80724e-23
1.12255e-23
4.27205e-24
9.61089e-25
1.08051e-25
4.00064e-27
6.77778e-29
6.65319e-29
2.0208e-28
0
0
0
0
0
0
0
0
0
0
0
0
0
0
0
0
0
0
0
0
0
)
;
    }
    defaultFaces
    {
        type            empty;
    }
}

