/*--------------------------------*- C++ -*----------------------------------*\
  =========                 |
  \\      /  F ield         | OpenFOAM: The Open Source CFD Toolbox
   \\    /   O peration     | Website:  https://openfoam.org
    \\  /    A nd           | Version:  13
     \\/     M anipulation  |
\*---------------------------------------------------------------------------*/
FoamFile
{
    format      ascii;
    class       volScalarField;
    location    "1.9";
    object      alphas;
}
// * * * * * * * * * * * * * * * * * * * * * * * * * * * * * * * * * * * * * //

dimensions      [];

internalField   nonuniform List<scalar> 
2268
(
2
2
2
2
2
2
2
2
2
2
2
2
2
2
2
2
2
2
2
1.99984
1.9995
1.99943
1.99943
2
2
2
2
2
2
2
2
2
2
2
2
2
2
2
2
2
2
2
2
2
1.99992
1.99986
2
2
2
2
2
2
2
2
2
2
2
2
2
2
2
2
2
2
2
2
2
2
2
2
2
2
2
2
2
2
2
2
2
2
2
2
2
2
2
2
2
2
2
2
2
2
2
2
2
2
2
2
2
2
2
2
2
2
2
2
2
2
2
2
2
2
2
2
2
2
2
2
2
2
2
2
2
2
2
1.9998
1.99785
1.9915
1.97775
1.95372
1.91753
1.86784
1.80693
1.74269
1.67639
1.60531
1.52376
1.45853
1.74665
1.557
1.44425
1.381
1.33706
1.30754
1.28397
1.26103
1.23562
1.2069
1.13644
1.04072
0.923809
0.792629
0.660058
0.534542
0.41982
0.321618
0.243248
0.181322
0.127958
0.0786785
0.0378221
0.253165
0.122505
0.0777987
0.0598528
0.049871
0.0448149
0.0415541
0.036771
0.025682
0.00142431
1.41577e-09
2.22299e-09
4.70438e-09
2.35802e-08
1.70842e-07
1.32799e-06
9.94781e-06
6.17314e-05
0.000274932
0.000698561
0.00141618
0.00223443
0.00493861
1.85955
1.85867
1.86174
1.85684
1.88313
1.95943
1.83053
1.74727
1.69691
1.68368
1.68807
1.75183
1.77859
1.7961
1.67312
1.70786
1.74864
1.71833
1.72108
1.45987
1.44603
1.57348
1.68293
1.65922
1.642
1.73683
1.77892
1.86109
1.91935
1.86177
1.8324
1.93028
1.88119
1.72978
1.70111
1.73582
1.73969
1.61362
0.686835
0.64896
0.851089
1.09318
1.1074
0.97552
1.03508
1.25805
1.55525
2.07649
2.19265
1.97028
1.91861
2.12864
2.20144
1.98593
1.86424
1.83961
1.55624
0.419676
0.415216
0.346687
0.76399
0.941509
0.831458
0.296088
0.144378
0.177205
1.46708
2.33494
2.39231
2.26542
2.21228
2.22384
2.2133
2.2223
2.07911
1.55343
0.325332
0.398075
0.409347
0.448374
0.947008
0.844281
0.279383
0.0239536
0.0128816
0.617915
1.84697
2.28939
2.32921
2.29286
2.14773
1.70451
1.60007
1.31866
1.17744
0.256029
0.266495
0.367691
0.356265
0.745157
0.890254
0.737111
0.197783
0.0146239
0.108556
1.11363
1.93291
2.10384
2.1556
1.32827
0.366675
0.215489
0.140703
0.561866
0.259895
0.27773
0.264019
0.237782
0.630884
0.931218
1.09108
0.420744
0.0197422
0.0163558
0.1136
0.481832
1.09075
1.08381
0.422446
0.0892046
0.0177657
0.0155013
0.449704
0.275402
0.324499
0.27805
0.23565
0.618701
1.29221
1.27071
0.331534
0.00783565
0.000359144
0.000258556
0.000235106
0.0486456
0.0778616
0.0279766
0.000174568
0.00834194
0.0138292
0.111564
2.62017e-07
1.24189e-07
5.0521e-08
3.72618e-08
3.20135e-08
3.45268e-08
3.32426e-08
2.48226e-08
6.74064e-09
5.81835e-09
6.25459e-09
7.50533e-09
1.0775e-08
3.99962e-08
9.61051e-08
3.54753e-07
2.30368e-06
1.48914e-05
8.21178e-05
9.38815e-05
9.55185e-05
0.000102227
0.00683205
1.59903e-08
1.1561e-08
9.45965e-09
9.46969e-09
1.04756e-08
1.31147e-08
1.7128e-08
2.08581e-08
2.34442e-08
2.51739e-08
3.17823e-08
3.64663e-08
4.08054e-08
1.19223e-07
1.86499e-07
3.0526e-07
4.00395e-07
7.11414e-07
0.00128331
0.0318794
0.0850672
0.160413
0.289293
6.35565e-09
6.26965e-09
6.47641e-09
6.67063e-09
7.29475e-09
8.01265e-09
8.61477e-09
7.33964e-09
6.2673e-09
5.14283e-09
1.79376e-08
3.17689e-08
1.24376e-07
0.0012511
0.0168622
0.0414803
0.0758174
0.148475
0.298277
0.500319
0.71474
0.90539
1.08712
0.0159867
0.0209627
0.0266668
0.0103233
0.00472158
0.000150537
2.47547e-08
0.000517288
0.0201624
0.0474534
0.0802263
0.130202
0.217953
0.363982
0.548301
0.63923
0.748541
0.932982
1.11741
1.22012
1.32566
1.22722
1.03174
0.588536
0.428566
0.378503
0.411563
0.425696
0.416561
0.567318
0.705211
0.749968
0.841948
0.956487
1.09146
1.18273
1.26745
1.33295
1.31473
1.16192
1.08638
1.14114
1.15972
1.05333
1.0095
1.00001
1.10164
1.04185
0.99461
0.989224
0.985371
1.02477
1.22146
1.24396
1.14384
1.11768
1.1177
1.13414
1.08478
1.04155
1.0403
1.04033
1.04026
1.02986
1.01393
1.00044
1.00001
1
1
1.26598
1.10075
1.03667
1.03739
1.03915
1.04573
1.06098
1.08517
1.12264
1.17212
1.2417
1.35794
1.48075
1.58952
1.6998
1.81194
1.88507
1.86632
1.74655
1.53895
1.27959
1.06458
1
1.83092
1.8563
1.9353
1.96643
2.00143
2.10298
2.23075
2.3677
2.51528
2.6568
2.77272
2.85795
2.92021
2.98059
2.98796
2.97894
2.97618
2.97336
2.94532
2.8789
2.74081
2.52784
2.2224
2.95831
2.91905
2.89945
2.92338
2.99046
3
3
3
3
3
3
3
3
3
3
3
3
3
3
3
3
3
3
3
3
3
2.99996
2.99804
2.99929
3
3
3
3
2.99991
2.99983
2.99992
3
3
3
3
3
3
3
3
3
3
3
2.99998
3
2.99961
2.99998
3
3
3
2.99999
2.99983
2.99965
2.99965
2.99982
2.99999
3
3
3
3
3
3
3
3
3
3
2.99998
2.99999
3
3
3
3
3
2.99992
2.99965
2.99965
2.99965
2.99992
2.99999
2.99999
2.99999
2.99999
3
3
3
3
3
3
3
3
3
3
3
3
3
3
2.99997
2.99973
2.99965
2.99986
2.99999
2.99999
2.99999
2.99999
3
3
3
3
3
3
3
3
3
3
3
3
3
3
3
3
3
2.99998
3
3
2.99999
2.99999
3
3
3
3
3
3
3
3
3
3
3
3
3
3
3
3
3
3
3
3
3
3
3
3
3
3
3
3
3
3
3
3
3
3
3
3
3
3
3
3
3
3
3
3
3
3
3
3
3
3
3
3
3
3
3
3
3
3
3
3
3
3
3
3
3
3
3
3
3
3
3
3
3
3
3
3
3
3
3
3
3
3
3
3
3
3
3
3
3
3
3
3
3
3
3
3
3
3
3
3
3
3
3
3
3
3
3
3
3
3
3
3
3
3
3
3
3
3
3
3
3
3
3
3
3
3
3
3
3
3
3
3
3
3
3
3
3
3
3
3
3
3
3
3
3
3
3
3
3
3
3
3
3
3
3
3
3
3
3
3
3
3
3
3
3
3
3
3
3
3
3
3
3
3
3
3
3
3
3
3
3
3
3
3
3
3
3
3
3
3
3
3
3
3
3
3
3
3
3
3
3
3
3
3
3
3
3
3
3
3
3
3
3
3
3
3
3
3
3
3
3
3
3
3
3
3
3
3
3
3
3
3
3
3
3
3
3
3
3
3
3
3
3
3
3
3
3
3
3
3
3
3
3
3
3
3
3
3
3
3
3
3
3
3
3
3
3
3
3
3
3
3
3
3
3
3
3
3
3
3
3
3
3
3
3
3
3
3
3
3
3
3
3
3
3
3
3
3
3
3
3
3
3
3
3
3
3
3
3
3
3
3
3
3
3
3
3
3
3
3
3
3
3
3
3
3
3
3
3
3
3
3
3
3
3
3
3
3
3
3
3
3
3
3
3
3
3
3
3
3
3
3
3
3
3
3
3
3
3
3
3
3
3
3
3
3
3
3
3
3
3
3
3
3
3
3
3
3
3
3
3
3
3
3
3
3
3
3
3
3
3
3
3
3
3
3
3
3
3
3
3
3
3
3
3
3
3
3
3
3
3
3
3
3
3
3
3
3
3
3
3
3
3
3
3
3
3
3
3
3
3
3
3
3
3
3
3
3
3
3
3
3
3
3
3
3
3
3
3
3
3
3
3
3
3
3
3
3
3
3
3
3
3
3
3
3
3
3
3
3
3
3
3
3
3
3
3
3
3
3
3
3
3
3
3
3
3
3
3
3
3
3
3
3
3
3
3
3
3
3
3
3
3
3
3
3
3
3
3
3
3
3
3
3
3
3
3
3
3
3
3
3
3
3
3
3
3
3
3
3
3
3
3
3
3
3
3
3
3
3
3
3
3
3
3
3
3
3
3
3
3
3
3
3
3
3
3
3
3
3
3
3
3
3
3
3
3
3
3
3
3
3
3
3
3
3
3
3
3
3
3
3
3
3
3
3
3
3
3
3
3
3
3
3
3
3
3
3
3
3
3
3
3
3
3
3
3
3
3
3
3
3
3
3
3
3
3
3
3
3
3
3
3
3
3
3
3
3
3
3
3
3
3
3
3
3
3
3
3
3
3
3
3
3
3
3
3
3
3
3
3
3
0.0672495
0.101098
0.214857
0.264187
0.367031
0.491233
0.767585
1.09351
1.01722
1.01787
1.0695
1.25164
1.00021
1.02894
1.06846
1.06003
1.00038
1.00531
1.00597
1
1.00001
1
1
1
1
1
1
1
1.90614
1.44029
1
1
2.99322
2.9445
2.80894
2.60995
3
3
3
3
3
3
3
3
3
3
3
3
3
3
3
3
3
3
3
3
3
3
3
3
3
3
3
3
3
3
3
3
3
3
3
3
3
3
3
3
3
3
3
3
3
3
3
3
3
3
3
3
3
3
3
3
3
3
3
3
3
3
3
3
3
3
3
3
3
3
3
3
3
3
3
3
3
3
3
3
3
3
3
3
3
3
3
3
3
3
3
3
3
3
3
3
3
3
3
3
3
3
3
3
3
3
3
3
3
3
3
3
3
3
3
3
3
3
3
3
3
3
3
3
3
3
3
3
3
3
3
3
0.583584
0.768507
0.393275
0.336513
0.797385
1.4007
1.24187
0.164344
0.00127763
0.000308052
0.000266191
0.000537374
0.000529808
0.000238743
0.000217332
0.000223931
0.000146151
0.0112539
0.252202
1.34869
1.19138
0.654694
0.610514
1.12812
1.26662
1.02268
0.388026
0.0429392
0.0100011
0.0159608
0.010726
0.0082245
0.0235183
0.00986267
0.000875014
0.164844
0.561823
0.879595
1.3035
1.18103
1.18429
1.17954
1.04179
1.01943
1.20008
0.724203
0.526653
0.343059
0.322459
0.442605
0.548641
0.691406
0.780317
0.792877
0.900657
1.01771
1.16057
1.0197
1.02719
1.05866
1.02614
1.00013
1.00012
1.14167
1.2431
1.18676
1.10477
1.00144
1.00006
1.00005
1.00017
1.00048
1.00098
1.00088
1.00093
1.0035
1
1
0.999997
0.999958
0.999951
0.999994
1.02891
1.07904
1.04993
1.00004
1.00004
1.00011
1.00004
1.00004
1.0005
1.00084
1.00042
0.998385
0.994799
1
1
0.999998
0.999997
1.00008
1.00009
0.999998
1
1
1
1.00004
1.0001
1.00005
1
1
1
1.00015
1.00557
1.01146
1
1
0.999999
0.999997
0.999992
0.99999
1
1
1
1
1
1
1
1
1
1
1.00175
1.04211
1.05453
1
0.999999
0.999999
0.999998
0.999997
0.999997
0.999999
1
1
1
1
1
1
1
1
1
1.00211
1.03469
1.05397
2.37888
2.06193
1.52033
1.14692
1.14086
1.16093
1.04874
1.00723
1
1
1
1
1
1
0.999999
0.999966
0.999082
0.996593
1.00511
3
2.9979
2.97212
2.97136
2.94301
2.5978
2.22205
2.02773
1.80191
1.51811
1.36012
1.24522
1.18541
1.17124
1.16966
1.25632
1.50378
1.8755
2.07377
3
3
3
3
3
3
3
3
3
2.96017
2.84876
2.75192
2.6997
2.68727
2.69499
2.82261
2.96838
2.9702
2.98159
3
3
3
3
3
3
3
3
3
3
2.99998
2.9999
2.99965
2.99908
2.99852
2.99996
3
3
3
3
3
3
3
3
3
3
2.99998
2.99979
2.99981
2.99998
2.99997
2.9995
2.99891
2.99892
2.99945
2.99989
2.99999
2.99999
3
3
3
3
3
3
3
2.99986
2.99815
2.99805
2.99934
2.99999
2.9991
2.99657
2.99649
2.99807
2.99981
2.99999
3
3
3
3
3
3
3
3
2.99953
2.99799
2.99799
2.99877
3
2.99984
2.9978
2.99778
2.99905
2.99989
3
3
3
3
3
3
3
3
3
3
2.99949
2.99885
2.99969
3
3
3
3
3
3
3
3
3
3
3
3
3
3
3
3
3
3
3
3
3
3
3
3
3
3
3
3
3
3
3
3
3
3
3
3
3
3
3
3
3
3
3
3
3
3
3
3
3
3
3
3
3
3
3
3
3
3
3
3
3
3
3
3
3
3
3
3
3
3
3
3
3
3
3
3
3
3
3
3
3
3
3
3
3
3
3
3
3
3
3
3
3
3
3
3
3
3
3
3
3
3
3
3
3
3
3
3
3
3
3
3
3
3
3
3
3
3
3
3
3
3
3
3
3
3
3
3
3
3
3
3
3
3
3
3
3
3
3
3
3
3
3
3
3
3
3
3
3
3
3
3
3
3
3
3
3
3
3
3
3
3
3
3
3
3
3
3
3
3
3
3
3
3
3
3
3
3
3
3
3
3
3
3
3
3
3
3
3
3
3
3
3
3
3
3
3
3
3
3
3
3
3
3
3
3
3
3
3
3
3
3
3
3
3
3
3
3
3
3
3
3
3
3
3
3
3
3
3
3
3
3
3
3
3
3
3
3
3
3
3
3
3
3
3
3
3
3
3
3
3
3
3
3
3
3
3
3
3
3
3
3
3
3
3
3
3
3
3
3
3
3
3
3
3
3
3
3
3
3
3
3
3
3
3
3
3
3
3
3
3
3
3
3
3
3
3
3
3
3
3
3
3
3
3
3
3
3
3
3
3
3
3
3
3
3
3
3
3
3
3
3
3
3
3
3
3
3
3
3
3
3
3
3
3
3
3
3
3
3
3
3
3
3
3
3
3
3
3
3
3
3
3
3
3
3
3
3
3
3
3
3
3
3
3
3
3
3
3
3
3
3
3
3
3
3
3
3
3
3
3
3
3
3
3
3
3
3
3
3
3
3
3
3
3
3
3
3
3
3
3
3
3
3
3
3
3
3
3
3
3
3
3
3
3
3
3
3
3
3
3
3
3
3
3
3
3
3
3
3
3
3
3
3
3
3
3
3
3
3
3
3
3
3
3
3
3
3
3
3
3
3
3
3
3
3
3
3
3
3
3
3
3
3
3
3
3
3
3
3
3
3
3
3
3
3
3
3
3
3
3
3
3
3
3
3
3
3
3
3
3
3
3
3
3
3
3
3
3
3
3
3
)
;

boundaryField
{
    leftWall
    {
        type            calculated;
        value           nonuniform List<scalar> 
50
(
2
2
2
2
2
2
1.74665
0.253165
2.62017e-07
1.59903e-08
6.35565e-09
0.0159867
0.588536
1.10164
1.26598
1.83092
2.95831
3
3
3
3
3
3
3
3
3
3
3
3
3
3
3
3
3
3
3
3
3
3
3
3
3
3
3
3
3
3
3
3
3
)
;
    }
    rightWall
    {
        type            calculated;
        value           nonuniform List<scalar> 
50
(
1.72108
1.61362
1.55624
1.55343
1.17744
0.561866
0.449704
0.111564
0.252202
0.879595
1.16057
1.0035
0.994799
1.01146
1.05453
1.05397
1.00511
2.07377
2.98159
3
2.99999
3
3
3
3
3
3
3
3
3
3
3
3
3
3
3
3
3
3
3
3
3
3
3
3
3
3
3
3
3
)
;
    }
    lowerWall
    {
        type            calculated;
        value           nonuniform List<scalar> 
62
(
2
2
2
2
2
2
2
2
2
2
2
2
2
2
2
2
2
2
2
1.99984
1.9995
1.99943
1.99943
1.99943
1.99986
2
2
2
1.45853
0.0378221
0.00493861
0.0672495
0.101098
0.214857
0.264187
1.85955
1.45987
0.686835
0.419676
0.325332
0.256029
0.259895
0.275402
1.85955
1.85867
1.86174
1.85684
1.88313
1.95943
1.83053
1.74727
1.69691
1.68368
1.68807
1.75183
1.77859
1.7961
1.67312
1.70786
1.74864
1.71833
1.72108
)
;
    }
    atmosphere
    {
        type            calculated;
        value           nonuniform List<scalar> 
46
(
3
3
3
3
3
3
3
3
3
3
3
3
3
3
3
3
3
3
3
3
3
3
3
3
3
3
3
3
3
3
3
3
3
3
3
3
3
3
3
3
3
3
3
3
3
3
)
;
    }
    defaultFaces
    {
        type            empty;
    }
}


// ************************************************************************* //
