/*--------------------------------*- C++ -*----------------------------------*\
  =========                 |
  \\      /  F ield         | OpenFOAM: The Open Source CFD Toolbox
   \\    /   O peration     | Website:  https://openfoam.org
    \\  /    A nd           | Version:  13
     \\/     M anipulation  |
\*---------------------------------------------------------------------------*/
FoamFile
{
    format      ascii;
    class       volScalarField;
    location    "1.9";
    object      alpha.mercury;
}
// * * * * * * * * * * * * * * * * * * * * * * * * * * * * * * * * * * * * * //

dimensions      [];

internalField   nonuniform List<scalar> 
2268
(
1
1
1
1
1
1
1
1
1
1
1
1
1
1
1
1
1
1
1
0.999842
0.999503
0.999433
0.999433
1
1
1
1
1
1
1
1
1
1
1
1
1
1
1
1
1
1
1
1
1
0.999916
0.999858
1
1
1
1
1
1
1
1
1
1
1
1
1
1
1
1
1
1
1
1
1
1
1
1
1
1
1
1
1
1
1
1
1
1
1
1
1
1
1
1
1
1
1
1
1
1
1
1
1
1
1
1
1
1
1
1
1
1
1
1
1
1
1
1
1
1
1
1
1
1
1
1
1
1
1
1
1
1
1
0.999898
0.998927
0.995749
0.988874
0.976858
0.958766
0.93392
0.903463
0.87134
0.838164
0.802552
0.761673
0.728995
0.873326
0.778498
0.722127
0.690498
0.668532
0.653768
0.641986
0.630515
0.617812
0.603452
0.568221
0.520362
0.461905
0.396315
0.330029
0.267271
0.209909
0.160798
0.121532
0.0903158
0.0630833
0.0375825
0.0162277
0.126582
0.0612526
0.0388994
0.0299264
0.0249355
0.0224074
0.020777
0.0183855
0.012841
0.000712153
7.59885e-23
8.66563e-23
-4.07455e-13
3.26588e-20
3.23445e-20
1.57292e-20
8.03394e-20
6.0013e-20
8.88402e-21
2.52869e-21
-2.44319e-11
-7.03587e-10
5.44521e-24
0.869399
0.868607
0.877082
0.877406
0.877268
0.8677
0.706737
0.603238
0.603419
0.603808
0.594026
0.587005
0.621736
0.730823
0.750581
0.749191
0.733667
0.7049
0.709942
0.514704
0.506812
0.599414
0.740824
0.803493
0.806251
0.832688
0.832845
0.832911
0.832864
0.774876
0.747818
0.750739
0.750636
0.750495
0.748165
0.718989
0.698199
0.600698
0.0996846
0.10089
0.101967
0.195773
0.279593
0.391931
0.515324
0.629022
0.729092
0.752442
0.758998
0.701375
0.689079
0.68298
0.608087
0.558722
0.486401
0.459989
0.42292
0.180807
0.18151
0.102596
0.0832761
0.115838
0.138248
0.110678
0.0721677
0.0885386
0.179097
0.307727
0.278014
0.252799
0.261857
0.269815
0.262236
0.270633
0.231146
0.269573
0.124628
0.171726
0.176759
0.128316
0.120534
0.0951798
0.0411638
0.0059745
0.00505754
0.000736027
0.0271801
0.184506
0.193283
0.184936
0.216362
0.209476
0.125527
0.102067
0.145337
0.00752173
0.0382226
0.156183
0.147135
0.119756
0.091069
0.0949035
0.0477023
0.00697347
0.000857487
5.83566e-07
0.00516462
0.0661609
0.0922541
0.0460465
0.0138098
0.0094416
0.0270684
0.0162142
0.00863219
0.00273036
0.0448359
0.0995296
0.0920014
0.0909433
0.0949083
0.089099
0.00987537
0.000576781
2.00123e-11
2.0843e-12
4.35917e-11
-5.85922e-18
-1.84055e-19
-9.78665e-10
4.70958e-20
7.37702e-16
3.9193e-05
0.0234075
0.00422613
0.00181031
0.0770162
0.0477454
0.0615694
0.094882
0.0734556
0.00387556
0.000179441
0.000128466
9.17758e-05
2.49196e-05
1.94017e-06
7.53932e-06
6.91793e-06
1.52221e-05
2.74314e-05
0
1.25122e-07
5.77547e-08
2.25405e-08
1.6276e-08
1.34573e-08
1.41679e-08
1.27977e-08
8.60626e-09
-4.66958e-13
2.54266e-12
3.02656e-11
3.24082e-11
4.00249e-11
4.48795e-10
3.33747e-10
5.99266e-10
2.90759e-09
1.69982e-09
1.21569e-10
6.6654e-11
6.61828e-11
5.18062e-10
1.15475e-05
1.82954e-09
6.84436e-10
9.70433e-10
1.31523e-09
1.49869e-09
1.85233e-09
1.48593e-09
1.49291e-09
2.15815e-09
1.18231e-09
9.36918e-10
5.38911e-10
3.70014e-10
2.01474e-09
1.59757e-09
2.54761e-09
1.14365e-08
7.97865e-09
1.10851e-09
8.31744e-10
8.45413e-10
1.94062e-10
2.96408e-09
4.68364e-10
6.94133e-10
9.88849e-10
1.21822e-09
1.42909e-09
1.61785e-09
1.61532e-09
1.5036e-09
1.31225e-09
1.09543e-09
7.66785e-10
5.43917e-10
3.81419e-10
3.37296e-10
3.45781e-10
4.58345e-10
7.9095e-10
1.01228e-09
1.41809e-09
1.95259e-09
1.84253e-09
3.12664e-10
1.7414e-08
3.28766e-10
3.89297e-10
5.25271e-10
6.38745e-10
7.29009e-10
8.39821e-10
8.42236e-10
8.07505e-10
7.35489e-10
7.06496e-10
7.19382e-10
7.81428e-10
8.86655e-10
1.00291e-09
1.2155e-09
1.51421e-09
1.78088e-09
2.09828e-09
2.2827e-09
2.28269e-09
1.8527e-09
3.12341e-10
1.85488e-08
3.1788e-10
3.87045e-10
4.66001e-10
5.13268e-10
5.58831e-10
6.09537e-10
6.90208e-10
7.74955e-10
9.18829e-10
1.11706e-09
1.32908e-09
1.52965e-09
1.67956e-09
1.76696e-09
1.80428e-09
1.85752e-09
2.00147e-09
2.1387e-09
2.17916e-09
2.0149e-09
1.60789e-09
7.8681e-10
1.4679e-09
4.31363e-10
5.23787e-10
5.55473e-10
5.88361e-10
6.40445e-10
7.39315e-10
8.97155e-10
1.05292e-09
1.18254e-09
1.28308e-09
1.31491e-09
1.27228e-09
1.14766e-09
9.55832e-10
7.54794e-10
5.93333e-10
5.14875e-10
5.49431e-10
6.41301e-10
6.62451e-10
7.11912e-10
7.04315e-10
8.96767e-10
4.97767e-10
5.16427e-10
4.74545e-10
4.40113e-10
4.31477e-10
4.48885e-10
4.76681e-10
4.59629e-10
4.01562e-10
3.28705e-10
2.46432e-10
1.76803e-10
1.26119e-10
9.17471e-11
6.97582e-11
6.21725e-11
4.71956e-11
4.47203e-11
5.37003e-11
7.13135e-11
1.51565e-10
3.3904e-10
7.67582e-10
5.00479e-10
5.11221e-10
4.86865e-10
3.87492e-10
2.55368e-10
1.71242e-10
1.29642e-10
1.00163e-10
7.87126e-11
6.33012e-11
4.98434e-11
3.97032e-11
3.0582e-11
2.2975e-11
1.66728e-11
1.39374e-11
1.29659e-11
1.23024e-11
1.18672e-11
1.22511e-11
3.66213e-11
1.27356e-10
1.91333e-10
3.54211e-10
3.87407e-10
4.44834e-10
4.34615e-10
3.50563e-10
2.01683e-10
1.60051e-10
1.37204e-10
1.19135e-10
1.04454e-10
9.0354e-11
6.92848e-11
3.9358e-11
2.56015e-11
1.47552e-11
1.02092e-11
8.39916e-12
6.88622e-12
6.57141e-12
6.84447e-12
1.28305e-11
4.73421e-11
6.11649e-11
1.65814e-10
2.51218e-10
4.05058e-10
4.1967e-10
3.6346e-10
2.72487e-10
2.54567e-10
2.40123e-10
2.05158e-10
1.68208e-10
1.32715e-10
9.28604e-11
5.29311e-11
2.40626e-11
1.48641e-11
1.03906e-11
7.16974e-12
5.3771e-12
4.13428e-12
3.79023e-12
5.1704e-12
1.49576e-11
2.38177e-11
9.83947e-11
2.56751e-10
4.36507e-10
4.28065e-10
3.48778e-10
3.26536e-10
3.26094e-10
2.82142e-10
2.41406e-10
2.04603e-10
1.68516e-10
1.14707e-10
6.74662e-11
3.08829e-11
1.83419e-11
1.15619e-11
7.05483e-12
4.47764e-12
3.01252e-12
2.49151e-12
2.38294e-12
4.36399e-12
1.0903e-11
6.96464e-11
2.68845e-10
4.35232e-10
4.36055e-10
4.11351e-10
3.94131e-10
3.28721e-10
2.7484e-10
2.39341e-10
2.03096e-10
1.64406e-10
1.03939e-10
6.00027e-11
3.11532e-11
1.84413e-11
1.1832e-11
6.77741e-12
4.15525e-12
2.77647e-12
1.73281e-12
1.19133e-12
1.15714e-12
2.91983e-12
6.1567e-11
2.75799e-10
4.12947e-10
4.29718e-10
4.04532e-10
3.5318e-10
2.75574e-10
2.45494e-10
2.2022e-10
1.78307e-10
1.40989e-10
8.7824e-11
4.77728e-11
2.96052e-11
1.78998e-11
1.08777e-11
6.08936e-12
3.8195e-12
2.51211e-12
1.54709e-12
9.8317e-13
6.47203e-13
5.88983e-13
6.24461e-11
2.40086e-10
3.53086e-10
3.6183e-10
3.24539e-10
2.60352e-10
2.24145e-10
2.04462e-10
1.72719e-10
1.37075e-10
1.02804e-10
7.19392e-11
4.04645e-11
2.35206e-11
1.44205e-11
8.73511e-12
5.1654e-12
3.26675e-12
2.19123e-12
1.31602e-12
8.35565e-13
5.56498e-13
4.16452e-13
5.87526e-11
1.92469e-10
2.81308e-10
2.8236e-10
2.5459e-10
2.05383e-10
1.73553e-10
1.42976e-10
1.20498e-10
1.05239e-10
8.35232e-11
5.60643e-11
3.05677e-11
1.781e-11
1.16292e-11
7.05551e-12
4.17475e-12
2.39547e-12
1.67432e-12
1.06621e-12
6.80551e-13
4.39453e-13
3.10166e-13
4.26115e-11
1.36519e-10
1.98428e-10
2.00027e-10
1.77465e-10
1.49248e-10
1.21344e-10
1.0039e-10
8.43588e-11
6.80692e-11
5.06115e-11
3.39857e-11
2.32124e-11
1.35929e-11
9.14827e-12
5.07085e-12
2.83779e-12
1.70648e-12
1.27332e-12
8.34499e-13
5.35468e-13
3.41859e-13
2.34384e-13
3.00309e-11
8.62365e-11
1.22469e-10
1.28702e-10
1.15728e-10
9.77195e-11
7.77686e-11
6.08658e-11
4.57923e-11
3.13009e-11
2.43384e-11
1.88262e-11
1.32082e-11
8.58734e-12
5.59794e-12
3.48609e-12
1.87116e-12
1.27437e-12
9.78891e-13
6.48407e-13
4.35547e-13
2.80449e-13
1.89908e-13
2.00944e-11
5.19159e-11
6.8792e-11
7.29534e-11
7.02293e-11
5.98951e-11
4.7751e-11
3.58635e-11
2.10193e-11
1.45919e-11
1.16172e-11
9.58919e-12
7.79626e-12
5.22705e-12
3.07456e-12
2.01076e-12
1.5033e-12
1.0623e-12
7.59699e-13
5.04961e-13
3.52127e-13
2.29735e-13
1.62571e-13
1.40289e-11
3.38618e-11
4.33499e-11
4.65014e-11
4.52626e-11
3.90688e-11
3.01174e-11
2.21484e-11
1.52295e-11
8.8977e-12
6.75449e-12
5.62653e-12
4.24185e-12
2.83609e-12
2.01578e-12
1.40151e-12
1.16849e-12
8.67452e-13
5.98769e-13
3.88779e-13
2.78866e-13
1.92451e-13
1.40777e-13
9.21667e-12
2.13597e-11
2.7513e-11
2.9463e-11
2.85846e-11
2.49177e-11
2.10203e-11
1.54825e-11
1.02995e-11
6.60653e-12
4.40696e-12
3.12653e-12
2.29107e-12
1.77266e-12
1.35704e-12
1.07773e-12
8.83176e-13
6.5957e-13
4.62066e-13
3.02297e-13
2.26217e-13
1.62568e-13
1.20941e-13
5.63919e-12
1.31286e-11
1.69486e-11
1.79715e-11
1.80128e-11
1.65956e-11
1.41879e-11
1.08498e-11
7.36283e-12
4.59289e-12
2.83258e-12
1.85728e-12
1.42376e-12
1.07626e-12
8.58654e-13
6.94501e-13
6.00623e-13
4.63901e-13
3.40174e-13
2.28074e-13
1.75073e-13
1.32445e-13
1.0138e-13
3.43683e-12
7.8964e-12
1.00147e-11
1.05417e-11
1.0436e-11
9.96495e-12
8.9364e-12
7.35364e-12
5.36663e-12
3.44125e-12
2.00225e-12
1.16778e-12
7.97839e-13
6.18121e-13
5.11857e-13
4.20024e-13
3.61724e-13
2.99804e-13
2.2886e-13
1.58033e-13
1.26839e-13
1.00648e-13
7.88376e-14
1.92055e-12
4.25698e-12
5.32781e-12
5.59811e-12
5.57559e-12
5.40792e-12
5.07024e-12
4.53197e-12
3.62464e-12
2.49832e-12
1.47047e-12
7.7432e-13
4.77426e-13
3.35585e-13
2.6817e-13
2.29408e-13
1.96967e-13
1.73688e-13
1.34931e-13
9.71503e-14
8.15956e-14
6.77272e-14
5.48126e-14
1.0106e-12
2.17389e-12
2.59115e-12
2.60616e-12
2.60661e-12
2.61181e-12
2.48036e-12
2.37284e-12
2.1398e-12
1.60439e-12
1.0118e-12
5.54418e-13
2.72854e-13
1.82524e-13
1.34224e-13
1.09156e-13
9.69426e-14
8.56198e-14
7.13736e-14
5.60118e-14
4.77345e-14
3.94905e-14
3.30532e-14
4.91324e-13
1.00514e-12
1.17001e-12
1.12107e-12
1.03024e-12
1.06983e-12
1.05475e-12
1.04677e-12
1.10525e-12
9.52517e-13
6.31635e-13
3.84403e-13
1.78078e-13
1.01164e-13
6.50763e-14
4.98519e-14
4.12952e-14
3.67358e-14
3.30381e-14
2.77569e-14
2.37464e-14
2.00867e-14
1.67872e-14
2.22036e-13
4.23152e-13
4.69381e-13
4.24523e-13
3.74249e-13
3.93521e-13
3.86303e-13
3.80263e-13
4.28509e-13
4.59828e-13
3.37672e-13
2.19002e-13
1.25659e-13
5.6168e-14
3.2113e-14
2.1486e-14
1.71181e-14
1.49685e-14
1.35275e-14
1.15563e-14
1.02847e-14
8.74285e-15
7.18546e-15
9.11551e-14
1.60348e-13
1.68218e-13
1.4332e-13
1.20613e-13
1.27575e-13
1.30106e-13
1.31045e-13
1.44765e-13
1.75699e-13
1.47789e-13
1.04606e-13
6.37984e-14
3.31449e-14
1.50797e-14
9.47843e-15
6.80564e-15
5.69307e-15
5.08394e-15
4.4723e-15
3.89176e-15
3.41483e-15
2.86472e-15
3.29431e-14
5.3749e-14
5.32269e-14
4.30038e-14
3.50361e-14
3.70859e-14
3.91023e-14
4.02104e-14
4.34313e-14
5.5201e-14
5.3198e-14
4.16264e-14
2.78708e-14
1.60703e-14
7.16456e-15
3.723e-15
2.50968e-15
2.03177e-15
1.74441e-15
1.53875e-15
1.32293e-15
1.11853e-15
9.48613e-16
1.01756e-14
1.55713e-14
1.46201e-14
1.13058e-14
9.00877e-15
9.51532e-15
1.04855e-14
1.09797e-14
1.18053e-14
1.51275e-14
1.57644e-14
1.29215e-14
9.47418e-15
6.12133e-15
3.11925e-15
1.4189e-15
8.3411e-16
6.41106e-16
5.41268e-16
4.65376e-16
3.84794e-16
3.31267e-16
2.84513e-16
2.63432e-15
3.81797e-15
3.41252e-15
2.54653e-15
1.99814e-15
2.10268e-15
2.43348e-15
2.62279e-15
2.84627e-15
3.61081e-15
3.99229e-15
3.42104e-15
2.55498e-15
1.76753e-15
1.02714e-15
4.54398e-16
2.48644e-16
1.76175e-16
1.49157e-16
1.2965e-16
1.07603e-16
8.39746e-17
6.93317e-17
5.58305e-16
7.65222e-16
6.59972e-16
4.78818e-16
3.71877e-16
3.90819e-16
4.76291e-16
5.38588e-16
6.01937e-16
7.66203e-16
8.6545e-16
7.50204e-16
5.80847e-16
4.02735e-16
2.54061e-16
1.13138e-16
6.42217e-17
4.33563e-17
3.55673e-17
3.08056e-17
2.50765e-17
1.93125e-17
1.47192e-17
9.43116e-17
1.21463e-16
1.03068e-16
7.32072e-17
5.66079e-17
5.9917e-17
7.74905e-17
9.39078e-17
1.10428e-16
1.43294e-16
1.60149e-16
1.37857e-16
1.06947e-16
7.76804e-17
4.58375e-17
2.12964e-17
1.26213e-17
9.05213e-18
7.02293e-18
6.07474e-18
5.18813e-18
3.51417e-18
2.54742e-18
1.20213e-17
1.49035e-17
1.25372e-17
8.75168e-18
6.78244e-18
7.33146e-18
1.01517e-17
1.33853e-17
1.69145e-17
2.22493e-17
2.40788e-17
2.07365e-17
1.64867e-17
1.20077e-17
6.83259e-18
3.35347e-18
2.17405e-18
1.56721e-18
1.18689e-18
1.0089e-18
7.94298e-19
5.84275e-19
3.8774e-19
1.13747e-18
1.39385e-18
1.15352e-18
7.96927e-19
6.28244e-19
7.12834e-19
1.07808e-18
1.59541e-18
2.20695e-18
2.96992e-18
3.13334e-18
2.42894e-18
1.98077e-18
1.40321e-18
7.81069e-19
4.64117e-19
3.09861e-19
2.27499e-19
1.70515e-19
1.45695e-19
1.15314e-19
7.47705e-20
4.662e-20
5.23137e-20
9.21119e-20
7.36605e-20
5.08383e-20
4.38556e-20
5.46727e-20
9.2256e-20
1.28874e-19
2.03568e-19
2.75199e-19
2.74429e-19
2.75259e-19
2.25401e-19
1.52918e-19
8.59146e-20
4.73053e-20
3.83491e-20
2.91969e-20
2.22464e-20
1.839e-20
1.32541e-20
8.4125e-21
4.72956e-21
2.89632e-21
4.10477e-21
3.18042e-21
2.25679e-21
1.66888e-21
2.52833e-21
5.04453e-21
1.16286e-20
2.08037e-20
2.98015e-20
2.8728e-20
2.61962e-20
2.1194e-20
1.40987e-20
8.35101e-21
5.55362e-21
4.29478e-21
3.24626e-21
2.39609e-21
1.94059e-21
1.30979e-21
7.48988e-22
4.19308e-22
8.03327e-23
7.97864e-23
5.92189e-23
4.82743e-23
8.85021e-23
1.60723e-22
3.67755e-22
7.73237e-22
1.64474e-21
2.53181e-21
2.43344e-21
2.18602e-21
1.71694e-21
1.13971e-21
7.32236e-22
5.35275e-22
4.21549e-22
3.25326e-22
2.44687e-22
1.68514e-22
1.01147e-22
5.57469e-23
2.5618e-23
1.63327e-24
2.49588e-24
1.90166e-24
1.80449e-24
2.89456e-24
7.16688e-24
1.98031e-23
4.78806e-23
1.22079e-22
1.96709e-22
1.91414e-22
1.67963e-22
1.2874e-22
8.82865e-23
6.22688e-23
4.84393e-23
3.80463e-23
2.79284e-23
2.0067e-23
1.24335e-23
7.06702e-24
2.97755e-24
6.50638e-25
2.20434e-26
3.31965e-26
3.0055e-26
3.60971e-26
6.82198e-26
2.45162e-25
9.65376e-25
2.80079e-24
8.27661e-24
1.36572e-23
1.34381e-23
1.16091e-23
8.88532e-24
6.45444e-24
4.90241e-24
3.91131e-24
3.04745e-24
2.19957e-24
1.39802e-24
8.07377e-25
3.4844e-25
7.21078e-26
9.38512e-27
1.49958e-28
2.31525e-28
3.13072e-28
5.55476e-28
1.68439e-27
8.98539e-27
4.27264e-26
1.42178e-25
4.8964e-25
8.24192e-25
8.18686e-25
7.08812e-25
5.60029e-25
4.38123e-25
3.52735e-25
2.8601e-25
2.20387e-25
1.41487e-25
8.7584e-26
3.89961e-26
9.81488e-27
1.22976e-27
4.15222e-28
2.50112e-31
5.79707e-31
1.84478e-30
7.09027e-30
4.64544e-29
3.25649e-28
1.73457e-27
6.42415e-27
2.54207e-26
4.35802e-26
4.3927e-26
3.91112e-26
3.29804e-26
2.79558e-26
2.35956e-26
1.94083e-26
1.47671e-26
9.76908e-27
4.68699e-27
1.4071e-27
2.16821e-28
4.80755e-29
1.75493e-28
3.26673e-34
1.89583e-34
6.2754e-33
9.72272e-32
1.14342e-30
1.03378e-29
6.56464e-29
2.77079e-28
1.18715e-27
2.06026e-27
2.13226e-27
2.00934e-27
1.84623e-27
1.68751e-27
1.48976e-27
1.24792e-27
9.32179e-28
5.71583e-28
2.16168e-28
4.37795e-29
6.13746e-30
1.1657e-29
8.01944e-29
0.01391
0.0206661
0.0575554
0.0595444
3.47678e-11
-1.66269e-11
1.45195e-26
5.30361e-10
6.06189e-08
2.91198e-08
-2.05956e-09
1.20546e-07
6.01848e-08
2.60316e-09
9.86876e-13
1.55173e-09
4.75264e-09
3.81811e-08
1.02744e-07
1.1039e-07
2.28257e-09
2.52568e-08
5.11826e-08
3.33296e-08
1.90505e-09
2.84948e-09
2.10895e-09
3.95547e-09
2.24713e-10
5.18306e-11
2.75491e-11
2.37521e-10
3.04193e-11
2.81363e-11
3.29398e-11
3.74932e-11
2.30782e-11
2.41353e-11
3.51554e-11
4.60597e-11
1.40176e-11
1.44739e-11
2.05769e-11
2.51759e-11
5.59324e-12
7.54441e-12
8.43225e-12
1.07603e-11
7.33493e-13
1.37494e-12
2.00247e-12
3.39684e-12
4.1747e-13
6.01234e-13
9.01342e-13
1.5154e-12
2.8006e-13
2.4047e-13
3.71707e-13
5.65942e-13
1.93632e-13
1.76723e-13
2.3731e-13
4.12633e-13
1.51636e-13
1.35852e-13
2.3756e-13
7.60551e-13
1.2876e-13
1.14519e-13
2.10438e-13
8.43246e-13
1.1052e-13
9.73158e-14
1.3745e-13
6.22597e-13
9.5658e-14
7.80023e-14
9.49629e-14
3.39838e-13
7.89244e-14
6.59335e-14
6.4553e-14
1.36139e-13
6.29219e-14
5.16759e-14
4.72421e-14
5.72276e-14
4.46189e-14
3.90104e-14
3.45946e-14
3.30341e-14
2.74886e-14
2.34154e-14
2.15798e-14
2.01637e-14
1.38228e-14
1.23302e-14
1.14961e-14
1.06445e-14
5.90752e-15
4.81224e-15
4.6645e-15
4.49582e-15
2.23025e-15
1.87728e-15
1.73588e-15
1.60546e-15
7.43539e-16
5.40609e-16
5.21268e-16
4.82291e-16
2.22832e-16
1.65301e-16
1.46485e-16
1.2271e-16
5.57131e-17
4.10674e-17
3.50475e-17
2.77473e-17
1.18349e-17
8.81296e-18
6.9976e-18
5.22604e-18
2.12012e-18
1.54659e-18
1.16136e-18
8.29692e-19
3.10295e-19
2.20245e-19
1.57111e-19
1.05858e-19
3.57871e-20
2.50147e-20
1.68376e-20
1.08996e-20
3.45439e-21
2.36878e-21
1.7003e-21
7.68854e-22
2.72469e-22
1.24821e-22
5.21803e-23
1.1631e-23
6.75637e-24
1.4554e-24
4.1388e-25
6.10016e-26
3.18671e-26
5.65803e-27
5.62577e-27
1.1919e-26
1.00304e-27
1.75729e-27
4.43213e-27
1.34351e-26
5.74012e-28
1.44681e-27
4.95105e-27
1.53931e-26
3.86112e-28
1.3582e-27
4.8764e-27
1.49867e-26
2.83671e-28
9.72781e-28
3.1334e-27
8.54544e-27
0.0472828
0.000701921
0.00179101
0.0049422
0.0179814
0.0840177
0.0881455
0.0298863
1.01754e-05
7.83389e-05
0.000126336
0.000126182
8.31766e-05
3.92814e-05
1.67006e-05
2.80564e-05
2.85393e-05
2.97015e-05
0.0035903
9.94168e-11
3.2586e-05
0.000365052
0.000843202
0.0135778
0.0193783
0.0195629
0.00930723
1.03315e-05
1.02777e-05
2.16865e-05
1.90069e-05
1.5487e-05
1.19182e-05
4.60052e-06
9.90797e-05
2.96293e-05
0.000392634
0.00947766
0.000125403
0.000921081
0.00158222
0.00122178
0.000485933
0.000491194
0.0024972
0.00338863
0.000107145
2.09353e-05
2.54416e-06
7.62945e-10
1.00172e-08
7.53056e-07
2.145e-05
0.000252033
0.000337347
0.00134089
0.00977827
1.481e-05
0.000349831
0.000590629
0.000258654
3.98974e-07
1.75973e-07
2.65029e-07
0.00045621
0.0007611
0.000224175
1.79305e-08
7.14303e-09
1.4801e-06
9.03783e-06
4.92449e-05
0.000201957
0.000258896
0.000745625
0.00348114
5.33216e-08
1.06645e-08
9.3384e-07
1.35997e-06
5.43896e-06
1.24858e-06
1.06623e-05
7.98879e-05
0.000164094
3.78807e-05
1.80574e-06
-1.47564e-09
1.09749e-07
6.46728e-08
1.08219e-05
5.27761e-05
6.28541e-05
7.74432e-05
0.000709122
8.21467e-09
8.36811e-11
1.50401e-10
6.84803e-11
7.00756e-10
5.6753e-14
4.98381e-10
-6.13045e-10
1.59857e-07
1.61266e-07
2.82966e-06
2.7303e-07
9.43264e-09
5.30472e-08
2.73221e-09
1.97043e-09
2.14895e-09
0.000106295
0.000320037
6.29601e-10
6.3227e-10
1.65961e-09
5.8013e-09
7.20295e-09
5.4076e-09
1.29702e-08
2.67913e-07
5.41436e-07
8.24662e-07
6.81405e-07
1.78759e-07
1.26015e-08
2.7765e-08
1.29603e-08
3.31229e-09
2.06238e-05
0.000413135
0.000500194
9.67829e-10
2.58394e-09
4.60428e-09
6.05448e-09
4.2147e-09
2.19503e-09
1.87579e-07
3.44967e-07
3.85181e-07
1.49837e-07
2.41618e-08
3.90974e-08
1.40857e-07
2.00183e-07
1.43891e-07
9.04905e-08
8.77339e-06
0.000197549
0.00049391
2.72738e-10
1.08601e-09
2.21868e-09
2.41781e-09
2.19331e-09
3.46105e-09
9.6605e-08
1.26241e-07
1.52289e-09
8.0224e-12
1.30145e-09
3.06327e-08
2.14507e-07
3.45964e-07
5.62723e-07
2.31671e-05
0.000521014
0.00152041
0.00178545
5.67763e-11
7.96137e-11
1.25719e-10
4.6727e-10
5.03465e-09
6.95665e-09
1.88937e-09
2.10592e-12
8.02346e-12
2.08623e-12
8.02241e-12
2.08623e-12
2.02496e-11
3.92253e-12
9.19146e-09
0.000778715
0.00365264
0.00444205
0.00436023
2.5799e-11
2.18779e-11
2.84777e-11
1.65017e-10
4.35176e-10
4.96782e-10
2.9584e-10
5.72369e-10
6.68925e-10
3.21708e-08
3.03297e-07
3.60398e-06
1.70073e-05
3.07143e-05
6.39613e-05
0.00142344
0.00226493
0.00211882
0.00135301
7.89785e-12
5.46346e-12
4.9198e-12
1.50453e-11
3.4331e-11
8.0206e-11
2.16791e-10
5.04942e-10
5.47066e-09
5.15792e-07
2.67946e-06
1.14341e-05
3.89651e-05
8.85435e-05
0.000118712
3.24316e-06
-1.99789e-07
7.68805e-17
4.31586e-08
4.10962e-12
3.05107e-12
1.87074e-12
3.14653e-12
3.40999e-12
4.7539e-12
7.31263e-12
1.64934e-11
1.45482e-11
2.27303e-12
2.08791e-12
1.81728e-06
1.43202e-05
2.32942e-06
3.5032e-09
1.74583e-19
6.89429e-08
2.79093e-07
1.28219e-07
1.6194e-12
1.25801e-12
7.91888e-13
6.40369e-13
6.32129e-13
7.07174e-13
1.07101e-12
2.86093e-12
3.4249e-12
4.04132e-12
1.13776e-10
1.41213e-10
1.08813e-09
8.98706e-09
4.2683e-08
1.02966e-09
1.83014e-07
2.95708e-07
1.6516e-07
6.34791e-13
6.13558e-13
6.38864e-13
8.29759e-13
1.20801e-12
2.13027e-12
1.93447e-12
1.20517e-11
4.31564e-11
2.35609e-10
8.67513e-11
4.6235e-11
4.24255e-07
3.97186e-07
1.8237e-07
1.0227e-08
4.66121e-08
1.76963e-07
2.53891e-08
6.97499e-13
1.21939e-12
2.55986e-12
5.59374e-12
9.28704e-12
2.18897e-11
7.68701e-11
2.44912e-10
1.38625e-09
3.53128e-09
2.92662e-09
7.15184e-10
1.28767e-07
1.20441e-08
4.725e-08
1.55055e-08
2.74038e-10
6.25307e-11
1.03305e-10
3.1707e-12
7.75282e-12
1.81618e-11
3.89718e-11
7.39551e-11
2.39524e-10
4.35929e-10
6.7672e-10
4.38027e-09
6.59195e-09
9.51105e-09
2.39448e-08
-7.9329e-11
9.45822e-10
1.85282e-10
9.87742e-11
7.43293e-11
2.21151e-10
3.13847e-10
6.2057e-12
1.81188e-11
4.61943e-11
1.03122e-10
2.0548e-10
4.57853e-10
7.23486e-10
1.26719e-09
3.85241e-09
3.63855e-09
1.43969e-08
3.11141e-08
2.46043e-08
7.19667e-09
9.94908e-10
2.49972e-10
8.12739e-11
4.45543e-10
4.20998e-10
5.09371e-12
1.65788e-11
4.34927e-11
1.06259e-10
2.31004e-10
4.31281e-10
8.77529e-10
1.35401e-09
2.33647e-09
3.20199e-09
4.99174e-09
1.20238e-08
7.24287e-09
1.69381e-09
2.49502e-10
3.5878e-11
2.73149e-11
1.96252e-10
1.53535e-10
2.74108e-12
9.30049e-12
2.74346e-11
7.12909e-11
1.61002e-10
3.25257e-10
6.26327e-10
1.04301e-09
1.45228e-09
1.72941e-09
1.3282e-09
1.37695e-10
1.36246e-11
5.04973e-12
4.02633e-12
7.09317e-12
1.49105e-11
2.96481e-11
4.86074e-11
9.86681e-13
3.39894e-12
1.13768e-11
2.97667e-11
7.31294e-11
1.49943e-10
2.75365e-10
4.26203e-10
5.83311e-10
6.45773e-10
5.39151e-10
2.83402e-10
1.2068e-10
1.30593e-11
3.71402e-12
5.29222e-12
8.67182e-12
1.69708e-11
1.56874e-11
2.30497e-13
8.98538e-13
3.20919e-12
8.53776e-12
2.00328e-11
4.32092e-11
7.62499e-11
1.25599e-10
1.60253e-10
1.61387e-10
1.18536e-10
7.12558e-11
1.5531e-11
1.61221e-12
1.52734e-12
2.0454e-12
3.10818e-12
4.20791e-12
3.04053e-12
5.44228e-14
1.67023e-13
5.92268e-13
1.81059e-12
5.05942e-12
1.01475e-11
1.69184e-11
2.44276e-11
3.12182e-11
3.07247e-11
2.40302e-11
1.06819e-11
1.71512e-12
4.21028e-13
4.5087e-13
6.86155e-13
8.97662e-13
8.15028e-13
7.97893e-13
2.05348e-14
3.05612e-14
8.69759e-14
2.66296e-13
7.4041e-13
1.51458e-12
2.53799e-12
3.54657e-12
4.22295e-12
4.16836e-12
3.43075e-12
1.68122e-12
3.10918e-13
1.00048e-13
1.27233e-13
1.51578e-13
1.60704e-13
1.34935e-13
7.46347e-14
9.84537e-15
9.03336e-15
1.34855e-14
3.30307e-14
8.71929e-14
1.85777e-13
2.93103e-13
4.24293e-13
5.33254e-13
5.63694e-13
5.02634e-13
2.7433e-13
5.33002e-14
2.01715e-14
2.31027e-14
3.16514e-14
1.95622e-14
7.22879e-15
3.78314e-15
4.18898e-15
3.50026e-15
3.17858e-15
4.18261e-15
8.32489e-15
1.51668e-14
2.36889e-14
3.4453e-14
4.83932e-14
6.04161e-14
5.87463e-14
3.46465e-14
6.87525e-15
3.01969e-15
3.54263e-15
1.89806e-15
5.51987e-16
2.9215e-16
3.42705e-16
1.47614e-15
1.21749e-15
9.73715e-16
8.05048e-16
8.60025e-16
1.05222e-15
1.45904e-15
2.18072e-15
3.4529e-15
4.91352e-15
5.25336e-15
3.49209e-15
7.92207e-16
3.79119e-16
3.33822e-16
1.27671e-16
1.28211e-16
1.39456e-16
8.48277e-17
4.28143e-16
3.3288e-16
2.56198e-16
1.88217e-16
1.44106e-16
1.23133e-16
1.1065e-16
1.28653e-16
2.01361e-16
3.16048e-16
3.87538e-16
2.87103e-16
8.29716e-17
4.79387e-17
3.03713e-17
3.84025e-17
6.81843e-17
7.98321e-17
4.87381e-17
1.03588e-16
7.47116e-17
5.25357e-17
3.40178e-17
2.4327e-17
1.98807e-17
1.59631e-17
1.14566e-17
1.20548e-17
1.71737e-17
2.23103e-17
1.87522e-17
7.8962e-18
8.04658e-18
9.76013e-18
1.72809e-17
3.3128e-17
4.54202e-17
2.52877e-17
2.00674e-17
1.37097e-17
8.49935e-18
4.28019e-18
2.39311e-18
2.06847e-18
1.91494e-18
1.45496e-18
8.72456e-19
8.97446e-19
1.15986e-18
9.61591e-19
6.86168e-19
1.68739e-18
3.66479e-18
7.26777e-18
1.56736e-17
2.76942e-17
1.49466e-17
3.30731e-18
2.06716e-18
9.80932e-19
3.29447e-19
1.07857e-19
9.57545e-20
1.28485e-19
1.1844e-19
7.38962e-20
5.77291e-20
6.5573e-20
8.0626e-20
1.61179e-19
4.12867e-19
1.16629e-18
3.12345e-18
7.58112e-18
1.56869e-17
1.08993e-17
4.37287e-19
2.43196e-19
7.59067e-20
1.14024e-20
1.81286e-21
2.69467e-21
5.7495e-21
7.86117e-21
1.04158e-20
1.77636e-20
3.41379e-20
6.81625e-20
1.36842e-19
2.85751e-19
6.6925e-19
1.5621e-18
3.88291e-18
9.77647e-18
6.27287e-18
5.36404e-20
1.50885e-20
2.21068e-21
2.01862e-22
2.11381e-22
5.17139e-22
1.34244e-21
3.22853e-21
7.28812e-21
1.60652e-20
3.39883e-20
6.842e-20
1.31968e-19
2.49095e-19
4.64429e-19
1.03596e-18
2.75605e-18
5.14826e-18
3.81043e-18
4.54434e-21
5.53835e-22
4.3136e-23
5.25339e-23
1.47033e-22
4.18853e-22
1.11165e-21
2.84475e-21
6.95124e-21
1.59321e-20
3.44479e-20
6.89096e-20
1.29135e-19
2.23856e-19
3.85848e-19
8.56494e-19
1.90952e-18
2.88145e-18
1.9248e-18
1.2617e-22
9.1163e-24
1.22308e-23
4.01132e-23
1.2571e-22
3.64341e-22
1.02794e-21
2.66907e-21
6.57247e-21
1.51601e-20
3.2984e-20
6.65229e-20
1.19783e-19
2.00957e-19
3.47869e-19
6.85597e-19
1.18569e-18
1.51427e-18
1.01614e-18
1.37326e-24
2.16798e-24
9.08921e-24
3.2912e-23
1.07716e-22
3.21434e-22
9.11445e-22
2.40784e-21
5.9632e-21
1.39748e-20
3.08959e-20
6.15707e-20
1.09812e-19
1.83793e-19
3.04774e-19
5.09608e-19
7.72696e-19
7.92217e-19
4.74597e-19
2.8439e-25
1.70092e-24
7.30717e-24
2.71126e-23
8.87009e-23
2.71566e-22
7.64364e-22
2.01874e-21
5.08476e-21
1.19447e-20
2.61506e-20
5.21135e-20
9.28997e-20
1.53553e-19
2.39028e-19
3.60937e-19
4.31845e-19
3.98909e-19
2.16266e-19
2.5012e-25
1.38046e-24
5.79048e-24
2.103e-23
6.9018e-23
2.07047e-22
5.94203e-22
1.55551e-21
3.88492e-21
9.15939e-21
2.01064e-20
3.99539e-20
7.07595e-20
1.15387e-19
1.70716e-19
2.30529e-19
2.50627e-19
1.90101e-19
9.36892e-20
2.06291e-25
1.0319e-24
4.19331e-24
1.45491e-23
4.72723e-23
1.41482e-22
3.95867e-22
1.04172e-21
2.60644e-21
6.15891e-21
1.34432e-20
2.66796e-20
4.78483e-20
7.78158e-20
1.06308e-19
1.35198e-19
1.21297e-19
8.51825e-20
3.64231e-20
1.55234e-25
6.65385e-25
2.45559e-24
8.18265e-24
2.54457e-23
7.49215e-23
2.13412e-22
5.71191e-22
1.4362e-21
3.45253e-21
7.7148e-21
1.54819e-20
2.7526e-20
4.45306e-20
5.91281e-20
7.26444e-20
5.60045e-20
3.23943e-20
1.87857e-20
8.63825e-26
3.23283e-25
1.09575e-24
3.46281e-24
1.06949e-23
3.20434e-23
9.25011e-23
2.56044e-22
6.66118e-22
1.65202e-21
3.76964e-21
7.73303e-21
1.41016e-20
2.28863e-20
2.95213e-20
3.4462e-20
2.06848e-20
1.47787e-20
9.64446e-21
2.70089e-26
8.70245e-26
2.70191e-25
7.95832e-25
2.66593e-24
8.93601e-24
2.81345e-23
8.3316e-23
2.33262e-22
6.08046e-22
1.44622e-21
3.09456e-21
5.77686e-21
9.62706e-21
1.25883e-20
1.41018e-20
8.58917e-21
6.26745e-21
3.96884e-21
)
;

boundaryField
{
    leftWall
    {
        type            alphaContactAngle;
        contactAngleProperties 
        {
            air             
            {
                theta0          90;
            }
            water           
            {
                theta0          90;
            }
            oil             
            {
                theta0          90;
            }
        }
        value           nonuniform List<scalar> 
50
(
1
1
1
1
1
1
0.873326
0.126582
1.25122e-07
1.82954e-09
4.68364e-10
3.28766e-10
3.1788e-10
4.31363e-10
4.97767e-10
5.00479e-10
3.54211e-10
1.65814e-10
9.83947e-11
6.96464e-11
6.1567e-11
6.24461e-11
5.87526e-11
4.26115e-11
3.00309e-11
2.00944e-11
1.40289e-11
9.21667e-12
5.63919e-12
3.43683e-12
1.92055e-12
1.0106e-12
4.91324e-13
2.22036e-13
9.11551e-14
3.29431e-14
1.01756e-14
2.63432e-15
5.58305e-16
9.43116e-17
1.20213e-17
1.13747e-18
5.23137e-20
2.89632e-21
8.03327e-23
1.63327e-24
2.20434e-26
1.49958e-28
2.50112e-31
3.26673e-34
)
;
    }
    rightWall
    {
        type            alphaContactAngle;
        contactAngleProperties 
        {
            air             
            {
                theta0          90;
            }
            water           
            {
                theta0          90;
            }
            oil             
            {
                theta0          90;
            }
        }
        value           nonuniform List<scalar> 
50
(
0.709942
0.600698
0.42292
0.269573
0.145337
0.0162142
3.9193e-05
0
0.0035903
0.00947766
0.00977827
0.00348114
0.000709122
0.000320037
0.000500194
0.00049391
0.00178545
0.00436023
0.00135301
4.31586e-08
1.28219e-07
1.6516e-07
2.53891e-08
1.03305e-10
3.13847e-10
4.20998e-10
1.53535e-10
4.86074e-11
1.56874e-11
3.04053e-12
7.97893e-13
7.46347e-14
3.78314e-15
3.42705e-16
8.48277e-17
4.87381e-17
2.52877e-17
1.49466e-17
1.08993e-17
6.27287e-18
3.81043e-18
1.9248e-18
1.01614e-18
4.74597e-19
2.16266e-19
9.36892e-20
3.64231e-20
1.87857e-20
9.64446e-21
3.96884e-21
)
;
    }
    lowerWall
    {
        type            alphaContactAngle;
        contactAngleProperties 
        {
            air             
            {
                theta0          90;
            }
            water           
            {
                theta0          90;
            }
            oil             
            {
                theta0          90;
            }
        }
        value           nonuniform List<scalar> 
62
(
1
1
1
1
1
1
1
1
1
1
1
1
1
1
1
1
1
1
1
0.999842
0.999503
0.999433
0.999433
0.999433
0.999858
1
1
1
0.728995
0.0162277
5.44521e-24
0.01391
0.0206661
0.0575554
0.0595444
0.869399
0.514704
0.0996846
0.180807
0.124628
0.00752173
0.00863219
0.0234075
0.869399
0.868607
0.877082
0.877406
0.877268
0.8677
0.706737
0.603238
0.603419
0.603808
0.594026
0.587005
0.621736
0.730823
0.750581
0.749191
0.733667
0.7049
0.709942
)
;
    }
    atmosphere
    {
        type            inletOutlet;
        inletValue      uniform 0;
        value           nonuniform List<scalar> 
46
(
0
0
6.2754e-33
9.72271e-32
1.14342e-30
1.03378e-29
6.56464e-29
2.77079e-28
1.18715e-27
2.06026e-27
2.13226e-27
2.00934e-27
1.84623e-27
1.68751e-27
1.48976e-27
1.24792e-27
9.32179e-28
5.71583e-28
2.16168e-28
4.37795e-29
6.13746e-30
1.1657e-29
8.01944e-29
2.83671e-28
9.72782e-28
0
0
0
0
0
0
0
0
0
0
0
0
0
0
0
0
0
0
0
0
0
)
;
    }
    defaultFaces
    {
        type            empty;
    }
}


// ************************************************************************* //
