/*--------------------------------*- C++ -*----------------------------------*\
  =========                 |
  \\      /  F ield         | OpenFOAM: The Open Source CFD Toolbox
   \\    /   O peration     | Website:  https://openfoam.org
    \\  /    A nd           | Version:  13
     \\/     M anipulation  |
\*---------------------------------------------------------------------------*/
FoamFile
{
    format      ascii;
    class       volScalarField;
    location    "1.9";
    object      epsilon;
}
// * * * * * * * * * * * * * * * * * * * * * * * * * * * * * * * * * * * * * //

dimensions      [0 2 -3 0 0 0 0];

internalField   nonuniform List<scalar> 
2268
(
0.0059697
0.0258607
0.0473294
0.0688107
0.0895321
0.109321
0.128309
0.146764
0.165046
0.183897
0.203998
0.223819
0.242476
0.2594
0.274137
0.285576
0.291368
0.288272
0.272372
0.238448
0.180497
0.0963498
0.0157908
0.0102804
0.0197924
0.0310211
0.0412509
0.0502169
0.0580928
0.0651718
0.0717482
0.078081
0.0845006
0.0913231
0.0982039
0.104867
0.111067
0.116549
0.120871
0.123265
0.122698
0.117925
0.10735
0.0890447
0.0619028
0.0346106
0.01784
0.0207455
0.0291934
0.0369695
0.0436503
0.0494153
0.0545282
0.0592249
0.0636967
0.0681486
0.0727118
0.0772825
0.0817284
0.0859091
0.0896683
0.0927626
0.0948022
0.0952893
0.0936736
0.0893062
0.0813785
0.0692553
0.0639575
0.0255751
0.022677
0.0295548
0.0362702
0.0421156
0.0471951
0.0517175
0.0558675
0.0597931
0.0636433
0.0674787
0.0712618
0.0749212
0.0783741
0.0815312
0.0842636
0.0863786
0.0876691
0.0880014
0.0873767
0.0859872
0.0844844
0.0985938
0.0331332
0.0248004
0.0305902
0.0367608
0.0422907
0.0471765
0.0515625
0.0555867
0.0593674
0.0630207
0.0665791
0.0700327
0.0733442
0.0764677
0.0793647
0.0819919
0.084297
0.0862818
0.0881415
0.0904842
0.0947617
0.104355
0.142407
0.0402818
0.0269459
0.031976
0.0378807
0.0433562
0.0482885
0.0527543
0.0568474
0.0606625
0.0642925
0.0677649
0.0710855
0.0742364
0.0771953
0.079964
0.0825723
0.0850806
0.0876522
0.0907505
0.0955578
0.105096
0.128044
0.206039
0.0465466
0.0290769
0.0336239
0.0394376
0.0450088
0.0501253
0.054796
0.0590697
0.0630188
0.0667215
0.0702093
0.0734958
0.0765736
0.0794344
0.0821144
0.0847119
0.0873843
0.0904152
0.0944644
0.101174
0.115176
0.153792
0.317882
0.0508419
0.0310923
0.0354477
0.0412807
0.0470361
0.0524205
0.0573751
0.0619004
0.0660469
0.0698874
0.073447
0.0767409
0.079768
0.0825262
0.0850858
0.0876178
0.090368
0.0937068
0.0984062
0.10633
0.122981
0.174551
0.565489
0.0247077
0.0691817
0.102889
0.125063
0.151104
0.191887
0.215217
0.236237
0.249278
0.257319
0.254271
0.232836
0.208735
0.182457
0.161388
0.14462
0.126874
0.0915403
0.0162551
0.0424718
0.0630969
0.0753926
0.0808588
0.0873289
0.0975935
0.105476
0.111292
0.114144
0.115242
0.113827
0.108474
0.101673
0.0956534
0.0918359
0.0886067
0.0820635
0.0642878
0.0313695
0.075606
0.0864806
0.0906318
0.087101
0.0867162
0.0905266
0.0942191
0.0956249
0.0951486
0.0944331
0.0929043
0.0899985
0.0862717
0.083075
0.08087
0.0788229
0.0748615
0.0649822
0.059374
0.117928
0.112535
0.110281
0.0994148
0.0941881
0.0953504
0.0968605
0.095567
0.0926397
0.0907631
0.0886487
0.0859966
0.0830162
0.0803219
0.0781631
0.0760683
0.0732455
0.068973
0.0946856
0.171339
0.141365
0.126752
0.111329
0.103738
0.10403
0.103829
0.100642
0.0956168
0.0928774
0.0899004
0.0865896
0.0834181
0.0806107
0.0781873
0.0758621
0.0736716
0.0737435
0.129327
0.248188
0.176398
0.141084
0.120508
0.11241
0.112498
0.110674
0.106214
0.100837
0.097584
0.0937262
0.0894953
0.0855825
0.0823596
0.0795636
0.0770362
0.0753729
0.0793314
0.154517
0.373524
0.217381
0.154342
0.127733
0.119152
0.119101
0.116147
0.110426
0.105728
0.102477
0.0982252
0.093367
0.0887333
0.0849433
0.0817339
0.0790397
0.077905
0.0853052
0.171114
0.588073
0.241664
0.164392
0.133587
0.124264
0.123889
0.120307
0.113918
0.109735
0.106813
0.102363
0.0971849
0.0922215
0.0880018
0.0844049
0.0814934
0.0807704
0.0908188
0.183727
0.0494005
0.0334717
0.037634
0.0434554
0.0494238
0.0551652
0.0605318
0.0654471
0.0699101
0.0739429
0.0776041
0.0809283
0.0839034
0.0865467
0.088975
0.0914555
0.0943488
0.0981181
0.103597
0.112564
0.129333
0.166838
0.275076
0.0556408
0.0389293
0.0415676
0.0463359
0.051442
0.0564839
0.0613252
0.0659132
0.070239
0.0742831
0.0780387
0.0815054
0.0846949
0.0876547
0.0905355
0.0936545
0.0974539
0.102473
0.109496
0.119848
0.135997
0.162999
0.209997
0.0698206
0.0476561
0.0483667
0.0517926
0.0557484
0.0597497
0.0636668
0.0675062
0.071296
0.074994
0.0785661
0.0820068
0.0853519
0.088702
0.0922604
0.0964016
0.101658
0.108667
0.118187
0.131128
0.148603
0.171109
0.197852
0.0869351
0.0585195
0.0572527
0.0594089
0.0622922
0.0653113
0.0683353
0.0714307
0.0746068
0.0778004
0.0810015
0.0842461
0.087637
0.0913675
0.0957568
0.101289
0.108574
0.118293
0.131067
0.146761
0.163848
0.180707
0.194886
0.103431
0.0699979
0.0669807
0.068032
0.0699823
0.0721867
0.0745286
0.0770444
0.0796947
0.0824298
0.0852658
0.0883034
0.0917385
0.0958831
0.101201
0.108345
0.117928
0.130273
0.145195
0.161049
0.176095
0.188814
0.196659
0.115142
0.0799432
0.076021
0.0762835
0.077596
0.079349
0.0813547
0.0835323
0.0858398
0.0882531
0.0908063
0.0936614
0.0971404
0.101698
0.107878
0.116483
0.128153
0.142542
0.158142
0.173039
0.186093
0.195917
0.200495
0.115493
0.0866742
0.0830226
0.0832295
0.0844188
0.0861746
0.0883087
0.0905504
0.0927671
0.0949637
0.0972551
0.0999446
0.103606
0.108973
0.116285
0.126274
0.140078
0.156595
0.172097
0.184993
0.195117
0.201601
0.203157
0.11815
0.092944
0.0897351
0.0898572
0.0909495
0.0930745
0.0957515
0.098379
0.100648
0.102614
0.104586
0.107151
0.111336
0.118812
0.128395
0.139791
0.15655
0.176048
0.189416
0.197765
0.203796
0.207284
0.207175
0.138282
0.103385
0.0981661
0.0970763
0.0978558
0.100802
0.104522
0.107739
0.109972
0.111514
0.112932
0.115148
0.11889
0.124996
0.132755
0.142895
0.157591
0.174284
0.18856
0.200427
0.210719
0.216309
0.214596
0.157954
0.109595
0.102445
0.101029
0.103003
0.1073
0.111242
0.113898
0.115429
0.116173
0.116466
0.117224
0.119041
0.121819
0.126705
0.134675
0.146381
0.160482
0.174811
0.18914
0.202713
0.211248
0.211409
0.182531
0.107543
0.100003
0.099629
0.102009
0.106261
0.109941
0.111995
0.112881
0.113092
0.113087
0.113534
0.11496
0.117543
0.121805
0.128512
0.13808
0.149696
0.162246
0.175278
0.187667
0.196381
0.199364
0.194919
0.108882
0.0989029
0.0976149
0.0991151
0.101996
0.104737
0.106523
0.107507
0.10802
0.108516
0.109489
0.111253
0.113977
0.118001
0.123879
0.131868
0.141433
0.151861
0.162766
0.173139
0.180661
0.184311
0.206584
0.109625
0.0973735
0.0951033
0.0956628
0.0974756
0.0994789
0.101088
0.102278
0.103245
0.104313
0.105829
0.107984
0.110918
0.114879
0.120231
0.127118
0.13517
0.143833
0.152692
0.160933
0.167001
0.170302
0.213986
0.109318
0.0953568
0.092259
0.0921598
0.093294
0.0948271
0.0963186
0.0976787
0.0990129
0.100519
0.102429
0.104875
0.107963
0.111872
0.116839
0.122939
0.12991
0.137299
0.144675
0.151281
0.15616
0.158955
0.213009
0.1071
0.092482
0.0889925
0.0885691
0.0893642
0.0906529
0.0920859
0.0935604
0.0951245
0.0969067
0.0990477
0.101641
0.104773
0.108574
0.11319
0.118662
0.124811
0.131285
0.137658
0.143252
0.147439
0.150023
0.205971
0.103422
0.0889391
0.0853844
0.0848663
0.0855393
0.0867349
0.0881582
0.0897089
0.0914023
0.0933242
0.0955574
0.0981728
0.101241
0.104853
0.109103
0.114013
0.119465
0.125203
0.130862
0.135869
0.139766
0.14245
0.196116
0.0989404
0.0849991
0.0815598
0.0810693
0.081733
0.0829186
0.0843607
0.0859627
0.0877294
0.0897035
0.0919399
0.0944921
0.0974166
0.100779
0.10464
0.109017
0.113835
0.118919
0.123998
0.128611
0.132403
0.135303
0.185994
0.0941168
0.0808434
0.0775978
0.077191
0.0778966
0.0791117
0.0805901
0.0822394
0.0840437
0.0860245
0.0882177
0.0906626
0.0934026
0.0964854
0.0999538
0.103822
0.108048
0.11252
0.117057
0.12131
0.124995
0.128047
0.175874
0.0892588
0.0766653
0.0736136
0.0732893
0.0740427
0.0752968
0.0768141
0.0784985
0.0803221
0.0822906
0.0844241
0.0867492
0.0892973
0.0921029
0.095197
0.0985936
0.102272
0.106165
0.110165
0.11402
0.117504
0.120555
0.165278
0.0842848
0.0724465
0.069608
0.0693694
0.0701702
0.0714609
0.0730121
0.0747247
0.0765608
0.0785128
0.0805878
0.0828011
0.0851729
0.087727
0.0904858
0.0934621
0.0966483
0.100009
0.103481
0.106895
0.110076
0.112967
0.154137
0.0791382
0.068144
0.0655516
0.0654119
0.0662652
0.0675936
0.0691772
0.0709155
0.0727632
0.0747024
0.0767295
0.0788495
0.0810731
0.0834149
0.08589
0.0885089
0.0912709
0.0941583
0.0971376
0.1001
0.102911
0.105531
0.142424
0.073783
0.0637298
0.0614257
0.0614058
0.0623223
0.0636934
0.0653109
0.0670756
0.0689371
0.0708702
0.0728629
0.0749119
0.0770198
0.0791932
0.0814409
0.0837703
0.0861828
0.0886708
0.0912173
0.0937524
0.0961803
0.0984754
0.130139
0.0682075
0.0591975
0.0572289
0.0573539
0.0583473
0.0597684
0.0614235
0.0632165
0.0650952
0.0670292
0.0690007
0.0709999
0.0730229
0.0750701
0.0771447
0.0792504
0.0813886
0.083556
0.0857446
0.0879077
0.0899808
0.0919499
0.117384
0.0624481
0.0545732
0.0529839
0.0532776
0.0543617
0.0558403
0.0575368
0.0593603
0.0612587
0.0631991
0.0651599
0.0671267
0.0690908
0.0710478
0.0729966
0.0749373
0.0768701
0.0787934
0.0807017
0.0825633
0.0843365
0.0860154
0.10442
0.0566144
0.0499265
0.048743
0.0492217
0.0504064
0.0519481
0.0536884
0.0555433
0.0574622
0.0594118
0.0613682
0.0633146
0.065239
0.0671337
0.0689941
0.0708178
0.0726032
0.0743492
0.0760482
0.0776803
0.0792184
0.0806605
0.0918676
0.050918
0.0453736
0.0445899
0.045256
0.0465447
0.0481513
0.0499351
0.0518196
0.0537571
0.055715
0.057669
0.059601
0.0614973
0.0633483
0.0651471
0.0668894
0.0685725
0.0701926
0.0717412
0.0732072
0.0745719
0.0758344
0.0808875
0.0456668
0.0410668
0.0406355
0.0414756
0.0428634
0.044532
0.0463553
0.048264
0.0502143
0.0521754
0.0541238
0.0560414
0.057914
0.0597308
0.061484
0.0631686
0.0647784
0.066308
0.0677516
0.0691013
0.0703432
0.0714762
0.071267
0.040884
0.037113
0.0369993
0.0379989
0.0394763
0.0411962
0.0430483
0.0449705
0.0469232
0.0488779
0.0508127
0.0527102
0.0545565
0.0563406
0.0580538
0.0596896
0.061242
0.0627053
0.064074
0.0653416
0.0664972
0.0675391
0.0632661
0.0367348
0.0336601
0.0338192
0.034956
0.0365075
0.0382654
0.0401321
0.0420528
0.0439922
0.0459251
0.0478317
0.0496964
0.0515061
0.0532505
0.0549207
0.0565098
0.0580115
0.0594201
0.06073
0.0619354
0.0630273
0.0640026
0.057272
0.0334463
0.0308874
0.031253
0.0324914
0.0340917
0.0358657
0.0377261
0.0396245
0.0415303
0.0434218
0.045282
0.0470972
0.048856
0.0505487
0.0521671
0.0537041
0.0551533
0.056509
0.0577655
0.0589171
0.0599557
0.0608776
0.0535765
0.0312324
0.0289709
0.0294573
0.0307482
0.032361
0.03412
0.0359456
0.037795
0.0396422
0.041469
0.0432615
0.0450079
0.0466986
0.0483248
0.049879
0.0513542
0.052744
0.0540425
0.0552438
0.0563419
0.0573295
0.0582016
0.0523358
0.0302565
0.028061
0.0285713
0.0298544
0.0314328
0.0331361
0.0348903
0.0366578
0.038417
0.0401529
0.0418543
0.0435116
0.0451163
0.0466607
0.0481375
0.0495401
0.0508619
0.0520965
0.0532375
0.0542786
0.0552124
0.0560335
0.0536009
0.03064
0.0282847
0.0287152
0.0299187
0.0314028
0.0329984
0.0346357
0.0362821
0.0379195
0.0395362
0.0411229
0.0426711
0.0441734
0.0456225
0.0470112
0.0483325
0.0495795
0.0507449
0.0518215
0.0528019
0.0536786
0.0544455
0.057426
0.0325061
0.0297695
0.030002
0.0310332
0.0323437
0.0337633
0.0352267
0.0367052
0.0381837
0.0396518
0.0411007
0.0425225
0.0439094
0.0452541
0.0465489
0.0477862
0.0489577
0.0500545
0.0510677
0.0519883
0.0528076
0.0535194
0.0639987
0.0360451
0.0326764
0.0325505
0.033276
0.0343004
0.0354525
0.0366702
0.0379262
0.039205
0.040495
0.0417857
0.0430678
0.0443323
0.0455707
0.0467746
0.0479349
0.0490412
0.0500818
0.0510437
0.0519147
0.0526841
0.0533454
0.0737847
0.041577
0.0372248
0.0364876
0.0367008
0.0372761
0.0380382
0.0389215
0.039893
0.0409302
0.0420149
0.0431317
0.0442672
0.0454102
0.0465505
0.0476788
0.0487845
0.0498542
0.0508706
0.051813
0.0526616
0.0534017
0.0540261
0.0876084
0.0496101
0.0437034
0.0419295
0.0413072
0.0412022
0.0414173
0.0418639
0.0424864
0.0432431
0.0441016
0.0450362
0.0460271
0.0470596
0.0481227
0.0492072
0.0503023
0.0513917
0.0524486
0.0534367
0.0543185
0.0550704
0.0556851
0.106822
0.0609508
0.0524914
0.0489503
0.0469954
0.0458987
0.0453823
0.0452871
0.0455034
0.0459518
0.0465742
0.0473289
0.0481874
0.0491317
0.0501518
0.0512426
0.0523986
0.053603
0.0548165
0.0559707
0.0569877
0.0578252
0.058476
0.134351
0.0771858
0.0641823
0.0575572
0.0535152
0.0510355
0.0495976
0.0488745
0.0486511
0.0487837
0.0491765
0.0497666
0.050515
0.0514017
0.0524224
0.0535845
0.0548986
0.0563602
0.0579181
0.0594458
0.0607722
0.0618221
0.0625834
0.180947
0.102753
0.0799126
0.0676424
0.0603984
0.056103
0.0535984
0.0522149
0.0515606
0.0514005
0.0515908
0.052044
0.052711
0.0535724
0.0546355
0.0559315
0.0575075
0.0593989
0.0615636
0.0637847
0.0656919
0.067176
0.0681741
0.330328
0.149814
0.100641
0.0784857
0.0667812
0.0603876
0.0568192
0.0548437
0.0538304
0.0534385
0.0534749
0.0538294
0.0544444
0.0553039
0.0564304
0.0578882
0.0597819
0.0622285
0.0652509
0.0685393
0.0713653
0.073684
0.0751405
1.50653
0.203207
0.116673
0.0866858
0.0710217
0.0629719
0.0586664
0.0563189
0.0550935
0.0545698
0.0545211
0.0548226
0.0554122
0.0562766
0.0574506
0.0590258
0.0611605
0.0640659
0.0678817
0.0722816
0.0761327
0.0797892
0.0819434
0.724725
0.643394
0.667537
0.738414
0.267403
0.28465
0.292806
0.286453
0.215232
0.220497
0.219811
0.213627
0.200002
0.200157
0.197332
0.192314
0.196779
0.19484
0.191271
0.186639
0.198647
0.19583
0.191761
0.186964
0.200196
0.197326
0.193585
0.189144
0.203919
0.200905
0.197347
0.193443
0.211805
0.209331
0.20628
0.203249
0.210302
0.211406
0.213803
0.217155
0.202616
0.207384
0.214667
0.219523
0.187536
0.191206
0.195737
0.199209
0.172556
0.174668
0.177103
0.179229
0.160299
0.161317
0.162481
0.163627
0.151007
0.151545
0.152079
0.152588
0.143507
0.143972
0.144308
0.144522
0.136602
0.137178
0.137554
0.137734
0.129575
0.1303
0.130807
0.131094
0.12221
0.123046
0.123681
0.124112
0.11463
0.11551
0.116224
0.116768
0.107102
0.107962
0.108694
0.109293
0.0998922
0.100685
0.101383
0.10198
0.0931877
0.093891
0.0945213
0.0950761
0.087079
0.0876885
0.0882406
0.0887328
0.0815745
0.0821003
0.0825776
0.0830048
0.0766309
0.0770897
0.0775053
0.077876
0.0721867
0.0725964
0.0729656
0.073293
0.0681888
0.0685642
0.0689011
0.0691977
0.064609
0.0649605
0.0652746
0.0655501
0.0614497
0.0617825
0.0620795
0.0623391
0.0587424
0.0590581
0.0593392
0.0595846
0.0565418
0.056839
0.0571035
0.0573337
0.0549187
0.0551955
0.055441
0.0556539
0.0539558
0.0542105
0.0544354
0.0546293
0.0537464
0.0539794
0.0541836
0.0543583
0.0543979
0.0546122
0.0547985
0.054956
0.0560401
0.0562421
0.0564154
0.0565604
0.0588343
0.059034
0.0592027
0.0593425
0.0629802
0.063198
0.0633799
0.063529
0.0687013
0.0690045
0.0692611
0.0694647
0.0761088
0.0768201
0.0774115
0.0778214
0.0843099
0.0875617
0.0893355
0.0901933
0.345065
0.22223
0.171096
0.140537
0.130495
0.129231
0.125118
0.118575
0.114956
0.112717
0.108385
0.102908
0.0976707
0.0930995
0.0889692
0.0856363
0.0853126
0.0978242
0.196881
0.242171
0.197431
0.167768
0.145503
0.137177
0.135261
0.130589
0.124276
0.121026
0.11898
0.115086
0.109978
0.104702
0.099703
0.0949825
0.0908428
0.0899807
0.100966
0.18574
0.198885
0.179446
0.162922
0.148648
0.142361
0.140038
0.135634
0.129961
0.126497
0.123998
0.120229
0.115468
0.110331
0.105244
0.100217
0.0956908
0.0948205
0.104542
0.17018
0.183419
0.171371
0.160409
0.150646
0.145574
0.143073
0.139586
0.134941
0.131053
0.12775
0.123726
0.119069
0.114134
0.109315
0.104783
0.101269
0.101682
0.110517
0.15958
0.179225
0.169139
0.159959
0.152249
0.14767
0.144909
0.141715
0.137676
0.133563
0.129611
0.125466
0.121212
0.117109
0.113487
0.110642
0.109274
0.110911
0.117851
0.152282
0.179689
0.170029
0.161394
0.154376
0.149717
0.146482
0.143126
0.139205
0.135118
0.131141
0.127371
0.123979
0.121169
0.119177
0.11823
0.118662
0.120558
0.124422
0.147115
0.182341
0.173043
0.164647
0.157744
0.152829
0.149183
0.145632
0.141761
0.137853
0.134191
0.130988
0.128447
0.126724
0.125921
0.126031
0.126916
0.128112
0.128676
0.142019
0.187451
0.178583
0.170262
0.163328
0.158206
0.154243
0.150508
0.146645
0.142891
0.139494
0.136654
0.134529
0.133224
0.132731
0.132785
0.132773
0.131762
0.12874
0.13504
0.19802
0.188818
0.180062
0.172911
0.167328
0.162783
0.158799
0.154851
0.150985
0.14743
0.144348
0.141791
0.139851
0.138548
0.137509
0.135788
0.132211
0.126128
0.133659
0.217062
0.205761
0.195505
0.188245
0.181487
0.175683
0.171486
0.16727
0.162799
0.15849
0.154642
0.150985
0.147541
0.144591
0.141926
0.138607
0.133683
0.127284
0.143035
0.220099
0.214283
0.210752
0.207099
0.200017
0.193085
0.189109
0.184515
0.17878
0.172793
0.167851
0.162905
0.157713
0.153097
0.149117
0.144947
0.140385
0.137238
0.168211
0.201459
0.201811
0.205266
0.208048
0.205984
0.202862
0.201484
0.199503
0.195853
0.188878
0.182679
0.176703
0.169768
0.16362
0.158614
0.153793
0.150859
0.152302
0.212038
0.181544
0.182964
0.185778
0.188915
0.189598
0.190814
0.193073
0.193562
0.190936
0.187718
0.184311
0.178215
0.169085
0.16053
0.15393
0.148147
0.14512
0.151991
0.253874
0.165234
0.166352
0.167778
0.169609
0.170961
0.172603
0.174622
0.174209
0.17199
0.170684
0.169852
0.167961
0.158792
0.147543
0.139766
0.134201
0.130729
0.141679
0.281802
0.153352
0.153678
0.153841
0.154269
0.154768
0.155472
0.156169
0.155432
0.153481
0.152065
0.151212
0.148842
0.142233
0.133944
0.127238
0.121825
0.119647
0.135421
0.291225
0.144751
0.144427
0.143744
0.143148
0.142686
0.142324
0.141888
0.140934
0.139504
0.138053
0.136391
0.133478
0.128874
0.123792
0.118605
0.11356
0.112087
0.128866
0.284193
0.137826
0.137267
0.136248
0.135177
0.134168
0.133205
0.132211
0.131089
0.129763
0.128103
0.125928
0.123022
0.119636
0.11615
0.112039
0.107565
0.106318
0.122028
0.271951
0.131331
0.130925
0.13
0.128926
0.127824
0.126714
0.125554
0.12431
0.12283
0.120946
0.118579
0.115897
0.113135
0.110193
0.106479
0.102326
0.100878
0.11439
0.254341
0.124605
0.124568
0.123989
0.123194
0.122286
0.121288
0.120172
0.118865
0.117256
0.115242
0.112882
0.110377
0.107807
0.104888
0.101157
0.0969514
0.0948553
0.105452
0.230317
0.117495
0.117855
0.117689
0.117262
0.116649
0.11586
0.11486
0.113582
0.11195
0.109938
0.107639
0.105185
0.102542
0.099412
0.0954636
0.0910018
0.0880742
0.0955855
0.202452
0.11016
0.110822
0.110997
0.110892
0.110547
0.109956
0.109078
0.10787
0.10629
0.104341
0.102095
0.0996088
0.096797
0.0934112
0.0892372
0.0845401
0.0809378
0.0858335
0.175162
0.102882
0.103701
0.104087
0.104189
0.10402
0.103561
0.102771
0.101632
0.100117
0.0982353
0.0960213
0.0934809
0.0905222
0.0869667
0.082697
0.0779603
0.0740821
0.0772929
0.152319
0.0959332
0.0967758
0.0972385
0.0974247
0.0973289
0.0969242
0.0961738
0.0950755
0.09361
0.0917779
0.089588
0.0870221
0.0840055
0.0804301
0.0762606
0.0717556
0.06808
0.0706786
0.135916
0.0894989
0.0902749
0.0907149
0.0908906
0.0907862
0.0903734
0.0896213
0.0885369
0.0871016
0.0853101
0.0831582
0.0806245
0.0776627
0.0742268
0.0703508
0.0663262
0.0632557
0.0661356
0.125803
0.0836672
0.0843336
0.0846971
0.0848085
0.0846494
0.0841935
0.0834201
0.0823357
0.0809246
0.0791801
0.0770961
0.0746603
0.0718563
0.0686885
0.0652471
0.0618626
0.059631
0.0633315
0.120513
0.0784435
0.0789955
0.0792678
0.0792989
0.0790716
0.0785615
0.0777706
0.0766898
0.0753114
0.073632
0.0716505
0.0693679
0.0667942
0.0639717
0.0610316
0.0583385
0.0570015
0.0617108
0.118204
0.0737855
0.0742402
0.0744323
0.0743922
0.0741072
0.0735605
0.0727599
0.0716961
0.0703664
0.0687726
0.0669214
0.0648266
0.0625184
0.0600649
0.0576242
0.0555848
0.0550703
0.0607407
0.117395
0.0696363
0.0700192
0.0701526
0.0700622
0.0697393
0.0691786
0.0683851
0.0673545
0.0660891
0.0645962
0.0628897
0.0609941
0.0589531
0.0568509
0.0548614
0.0533869
0.0535598
0.0600279
0.117029
0.0659517
0.066286
0.0663826
0.0662631
0.0659227
0.0653679
0.0645971
0.0636124
0.0624205
0.0610338
0.0594722
0.0577673
0.0559717
0.0541785
0.0525699
0.0515542
0.0522661
0.0593368
0.116541
0.0627139
0.0630159
0.0630915
0.0629592
0.0626199
0.0620803
0.0613408
0.0604068
0.0592888
0.0580029
0.0565734
0.0550369
0.0534509
0.0519133
0.0506099
0.0499505
0.0510645
0.0585473
0.115598
0.0599367
0.0602142
0.060277
0.06014
0.0598102
0.0592895
0.0585817
0.0576948
0.0566418
0.0554416
0.0541217
0.0527217
0.051302
0.049963
0.0488917
0.0484961
0.0498941
0.057621
0.114137
0.0576622
0.0579167
0.057968
0.05783
0.0575077
0.0570026
0.05632
0.0554693
0.0544653
0.0533286
0.0520885
0.0507866
0.0494851
0.0482858
0.0473759
0.04716
0.0487389
0.0565626
0.11213
0.0559562
0.056185
0.056223
0.0560813
0.055761
0.0552642
0.0545962
0.053767
0.0527918
0.0516922
0.0504981
0.0492518
0.0480164
0.0468946
0.0460739
0.0459547
0.0476184
0.055411
0.109707
0.0549026
0.0551034
0.0551256
0.0549756
0.0546523
0.0541565
0.0534928
0.0526707
0.0517051
0.0506169
0.0494352
0.0482014
0.0469783
0.0458681
0.0450578
0.0449447
0.0465908
0.0542296
0.106986
0.0546022
0.0547754
0.0547818
0.0546234
0.0542965
0.0537994
0.0531354
0.0523125
0.0513441
0.050249
0.0490537
0.0477965
0.0465367
0.0453734
0.0444902
0.0442792
0.0457854
0.0531408
0.104312
0.0551739
0.0553251
0.0553229
0.0551652
0.0548435
0.0543531
0.0536948
0.0528754
0.0519058
0.0508018
0.049585
0.048288
0.0469632
0.0457015
0.0446766
0.0442666
0.0454912
0.0524035
0.10221
0.0567597
0.0569021
0.0569105
0.0567764
0.0564831
0.056021
0.0553897
0.0545951
0.0536466
0.0525559
0.0513394
0.0500225
0.0486485
0.0472976
0.0461281
0.0454927
0.0463589
0.0526957
0.102012
0.059535
0.0596917
0.0597455
0.059677
0.0594525
0.059056
0.0584888
0.0577592
0.0568767
0.0558507
0.0546933
0.0534246
0.0520831
0.0507465
0.0495762
0.0489271
0.0497291
0.0558432
0.10706
0.0637351
0.0639379
0.0640887
0.0641497
0.0640498
0.0637669
0.0633115
0.0627004
0.061947
0.0610612
0.060054
0.0589455
0.0577812
0.056665
0.0558329
0.0558114
0.0578402
0.0662658
0.126855
0.0697322
0.0700149
0.070316
0.0705776
0.0706546
0.0705255
0.0702244
0.0697846
0.0692264
0.0685622
0.0678048
0.0669798
0.066151
0.0654832
0.0654009
0.0669861
0.0730432
0.0923561
0.189242
0.0782601
0.0786196
0.0790526
0.0795158
0.0797549
0.0797716
0.0796351
0.0793946
0.0790747
0.0786885
0.0782496
0.0777857
0.0773704
0.077213
0.0779317
0.0814303
0.094151
0.143525
0.405455
0.0908083
0.0910752
0.0913796
0.0917573
0.0919541
0.0920076
0.091985
0.0919211
0.0918302
0.0917195
0.0915964
0.0914759
0.0913983
0.0914867
0.0921602
0.0950441
0.107901
0.189621
1.45315
)
;

boundaryField
{
    leftWall
    {
        type            epsilonWallFunction;
        value           nonuniform List<scalar> 
50
(
0.0059697
0.0102804
0.01784
0.0255751
0.0331332
0.0402818
0.0465466
0.0508419
0.0494005
0.0556408
0.0698206
0.0869351
0.103431
0.115142
0.115493
0.11815
0.138282
0.157954
0.182531
0.194919
0.206584
0.213986
0.213009
0.205971
0.196116
0.185994
0.175874
0.165278
0.154137
0.142424
0.130139
0.117384
0.10442
0.0918676
0.0808875
0.071267
0.0632661
0.057272
0.0535765
0.0523358
0.0536009
0.057426
0.0639987
0.0737847
0.0876084
0.106822
0.134351
0.180947
0.330328
1.50653
)
;
    }
    rightWall
    {
        type            epsilonWallFunction;
        value           nonuniform List<scalar> 
50
(
0.0162551
0.0313695
0.059374
0.0946856
0.129327
0.154517
0.171114
0.183727
0.196881
0.18574
0.17018
0.15958
0.152282
0.147115
0.142019
0.13504
0.133659
0.143035
0.168211
0.212038
0.253874
0.281802
0.291225
0.284193
0.271951
0.254341
0.230317
0.202452
0.175162
0.152319
0.135916
0.125803
0.120513
0.118204
0.117395
0.117029
0.116541
0.115598
0.114137
0.11213
0.109707
0.106986
0.104312
0.10221
0.102012
0.10706
0.126855
0.189242
0.405455
1.45315
)
;
    }
    lowerWall
    {
        type            epsilonWallFunction;
        value           nonuniform List<scalar> 
62
(
0.0059697
0.0258607
0.0473294
0.0688107
0.0895321
0.109321
0.128309
0.146764
0.165046
0.183897
0.203998
0.223819
0.242476
0.2594
0.274137
0.285576
0.291368
0.288272
0.272372
0.238448
0.180497
0.0963498
0.0157908
0.0157908
0.0346106
0.0639575
0.0985938
0.142407
0.206039
0.317882
0.565489
0.724725
0.643394
0.667537
0.738414
0.0247077
0.0424718
0.075606
0.117928
0.171339
0.248188
0.373524
0.588073
0.0247077
0.0691817
0.102889
0.125063
0.151104
0.191887
0.215217
0.236237
0.249278
0.257319
0.254271
0.232836
0.208735
0.182457
0.161388
0.14462
0.126874
0.0915403
0.0162551
)
;
    }
    atmosphere
    {
        type            inletOutlet;
        inletValue      uniform 0.1;
        value           nonuniform List<scalar> 
46
(
0.1
0.1
0.1
0.0866858
0.0710217
0.0629719
0.0586664
0.0563189
0.0550935
0.0545698
0.0545211
0.0548226
0.0554122
0.0562766
0.0574506
0.0590258
0.0611605
0.0640659
0.0678817
0.0722816
0.0761327
0.0797892
0.0819434
0.0843099
0.1
0.1
0.1
0.1
0.1
0.1
0.1
0.1
0.1
0.1
0.1
0.1
0.1
0.1
0.1
0.1
0.1
0.1
0.1
0.1
0.1
0.1
)
;
    }
    defaultFaces
    {
        type            empty;
    }
}


// ************************************************************************* //
