/*--------------------------------*- C++ -*----------------------------------*\
  =========                 |
  \\      /  F ield         | OpenFOAM: The Open Source CFD Toolbox
   \\    /   O peration     | Website:  https://openfoam.org
    \\  /    A nd           | Version:  13
     \\/     M anipulation  |
\*---------------------------------------------------------------------------*/
FoamFile
{
    format      ascii;
    class       volScalarField;
    location    "1.9";
    object      k;
}
// * * * * * * * * * * * * * * * * * * * * * * * * * * * * * * * * * * * * * //

dimensions      [0 2 -2 0 0 0 0];

internalField   nonuniform List<scalar> 
2268
(
0.00125873
0.00335136
0.00500687
0.00642056
0.00765171
0.00874582
0.00973993
0.0106643
0.0115464
0.0124297
0.0133275
0.0141746
0.0149427
0.0156171
0.0161868
0.0166148
0.0168192
0.0166835
0.0160531
0.0146856
0.0122001
0.00802884
0.00238752
0.00299764
0.00783277
0.0112533
0.0141422
0.0166541
0.0189004
0.0209608
0.0228936
0.0247452
0.0265584
0.0283054
0.0299593
0.0314802
0.0328326
0.0339777
0.0348376
0.0352665
0.0350513
0.0338916
0.031323
0.0266331
0.0188639
0.00664416
0.00433748
0.010803
0.0150986
0.0186991
0.021823
0.0246138
0.027171
0.0295647
0.0318471
0.0340598
0.0361766
0.0381705
0.0399985
0.0416191
0.0429842
0.0440054
0.0445257
0.0443118
0.0430276
0.0401447
0.034815
0.0256982
0.0100117
0.005518
0.0131443
0.0180238
0.0221138
0.0256811
0.0288778
0.031808
0.0345436
0.0371381
0.0396296
0.0419949
0.0442083
0.0462289
0.0480144
0.0495153
0.0506455
0.0512544
0.0511157
0.0498964
0.0470585
0.0416663
0.0319346
0.0133483
0.00655447
0.0150694
0.0204273
0.0249338
0.0288977
0.032466
0.0357373
0.0387805
0.0416499
0.0443764
0.0469458
0.0493341
0.0515043
0.053416
0.0550232
0.05625
0.0569629
0.0569563
0.0559213
0.0533431
0.0482393
0.0383477
0.0170287
0.00745624
0.0166689
0.0224784
0.0273809
0.0317297
0.0356624
0.0392676
0.042608
0.0457364
0.048682
0.0514374
0.0539824
0.0562835
0.0583031
0.0600022
0.0613218
0.062153
0.062319
0.0615481
0.0593777
0.0548502
0.0453438
0.0217502
0.00820305
0.0179948
0.0242639
0.0295634
0.034297
0.0385954
0.0425359
0.0461728
0.0495564
0.0527181
0.0556547
0.058349
0.0607706
0.0628849
0.0646634
0.0660705
0.0670287
0.0673937
0.0669387
0.0652779
0.0615831
0.0532791
0.0290128
0.00870376
0.0190336
0.0258057
0.0315127
0.0366341
0.0413014
0.0455808
0.049517
0.053158
0.0565414
0.0596591
0.0624952
0.0650228
0.0672105
0.069045
0.0705225
0.0716035
0.0721791
0.0720709
0.0709816
0.0682954
0.0621336
0.0426392
0.00318604
0.00636455
0.00834258
0.00955817
0.0108592
0.0127826
0.013846
0.0146744
0.0151696
0.0154863
0.0153799
0.0145351
0.0135221
0.0123343
0.0113065
0.0104414
0.00953274
0.00769827
0.00249086
0.00808069
0.0157158
0.0201169
0.0224833
0.0250146
0.0284361
0.0310135
0.0322574
0.03254
0.0325648
0.0321842
0.0309171
0.0291221
0.0269347
0.0247941
0.0229455
0.0210829
0.0175411
0.00674468
0.0118127
0.0227218
0.0288931
0.0312816
0.034018
0.0380062
0.0410965
0.0422551
0.0421083
0.0417792
0.0410965
0.0396659
0.0375969
0.0351128
0.0326106
0.0302626
0.0277404
0.0232602
0.0102324
0.0157812
0.0289807
0.0375209
0.0398043
0.0421946
0.0464076
0.0496613
0.0504984
0.0497385
0.0490296
0.0479589
0.0462781
0.0439826
0.0412661
0.0384777
0.0356868
0.0325669
0.0274286
0.0138688
0.0201848
0.0353393
0.0455808
0.0482175
0.0503444
0.054643
0.0577393
0.0581861
0.0567427
0.0556746
0.0541379
0.0520323
0.0494259
0.0464633
0.0433907
0.0401783
0.0364863
0.0308061
0.0170543
0.0258536
0.0422091
0.0534014
0.056031
0.058109
0.0623244
0.0649506
0.0649978
0.0633611
0.062013
0.0600172
0.057402
0.0543579
0.0510947
0.0477024
0.0440922
0.0398936
0.0338773
0.0192337
0.0340824
0.0506181
0.0614363
0.0633228
0.0651954
0.0691318
0.0712017
0.0707022
0.0691897
0.0677162
0.0654219
0.0624025
0.0589289
0.0553062
0.0515634
0.0475688
0.0429422
0.0366764
0.0205965
0.0464794
0.0608205
0.0695809
0.0702389
0.0716147
0.0751036
0.0766267
0.0756712
0.0742114
0.0727192
0.070188
0.0668684
0.0630996
0.0591481
0.0550461
0.0506425
0.0455891
0.0390131
0.0216
0.00855092
0.0199881
0.027511
0.0338142
0.0394787
0.044662
0.0494248
0.0537956
0.057809
0.0614851
0.0648382
0.0678658
0.0705396
0.0728409
0.0747812
0.0764063
0.0777364
0.078718
0.0792429
0.0791325
0.0780556
0.0752755
0.0684293
0.00914288
0.0214967
0.0295367
0.036094
0.0418912
0.0471751
0.0520549
0.0565885
0.0608112
0.0647208
0.0683213
0.0716083
0.0745779
0.0772368
0.0796262
0.0818326
0.0839356
0.0859501
0.0878271
0.0894513
0.0906366
0.0911498
0.0908277
0.0105573
0.024176
0.0325169
0.0391365
0.0448741
0.0500407
0.0547917
0.0592348
0.0634317
0.0673763
0.0710706
0.0745218
0.077753
0.0808121
0.0837809
0.0867885
0.0899671
0.0933865
0.097017
0.100685
0.104105
0.106863
0.108746
0.0121823
0.0272504
0.0360251
0.0427729
0.0485012
0.0535842
0.0582195
0.062564
0.0666803
0.0705694
0.0742558
0.0777821
0.0812215
0.0846835
0.0883195
0.0923158
0.0968291
0.101918
0.10747
0.11291
0.117302
0.12012
0.121204
0.013661
0.0301346
0.0394259
0.0464289
0.0522768
0.0574124
0.0620758
0.0664253
0.0705165
0.0743751
0.0780534
0.0816443
0.0852861
0.089163
0.0935041
0.0985696
0.104481
0.111067
0.117806
0.123686
0.128007
0.130533
0.131004
0.0146728
0.0323519
0.0421256
0.0495531
0.0557303
0.0611527
0.0660545
0.0705521
0.0747198
0.0786167
0.0823216
0.0859779
0.0898067
0.0940753
0.0990507
0.105042
0.112128
0.11977
0.126898
0.132597
0.1366
0.138783
0.138929
0.0147088
0.0326299
0.0436928
0.0519884
0.0587785
0.0647227
0.0700835
0.074914
0.0792671
0.0832357
0.0869587
0.0906691
0.0947292
0.099548
0.105211
0.111968
0.120096
0.128642
0.135665
0.140604
0.143732
0.14512
0.14466
0.0149851
0.0335603
0.0456673
0.054638
0.061958
0.0685296
0.0744865
0.0797543
0.0843211
0.0883206
0.0920025
0.0957528
0.100163
0.106079
0.112857
0.120232
0.129554
0.139126
0.145028
0.148121
0.149885
0.150504
0.149733
0.0166899
0.0376879
0.049465
0.0583349
0.0658792
0.0731255
0.0797818
0.0854968
0.0901801
0.0940716
0.0975465
0.101153
0.105322
0.110492
0.116313
0.12302
0.131304
0.139656
0.146139
0.151021
0.154902
0.156653
0.155351
0.0182968
0.0395218
0.0526689
0.0619297
0.0701026
0.0778582
0.0846304
0.0901446
0.0945215
0.0980099
0.100879
0.103669
0.106738
0.11011
0.114382
0.119952
0.126876
0.134277
0.141141
0.147496
0.153142
0.156378
0.155975
0.0202127
0.0429977
0.0553306
0.0643576
0.0722146
0.0796504
0.0860636
0.0911363
0.0950775
0.0981807
0.100758
0.103223
0.105919
0.109016
0.112826
0.117675
0.123591
0.129997
0.136319
0.142399
0.147819
0.151364
0.152361
0.0211763
0.0450559
0.0571243
0.0657687
0.0730465
0.0796444
0.0853951
0.0901103
0.0939109
0.0970111
0.0997009
0.102298
0.105041
0.108092
0.11167
0.116024
0.121164
0.126696
0.132219
0.137567
0.142325
0.145545
0.146975
0.0220033
0.0460977
0.0579651
0.0662716
0.0730345
0.0789844
0.0842002
0.0886366
0.0923753
0.0955761
0.0984562
0.10125
0.104125
0.107219
0.110699
0.114735
0.119323
0.124186
0.129001
0.133565
0.13753
0.140259
0.141628
0.0225029
0.0464791
0.0581017
0.0661044
0.0724949
0.0780033
0.0828441
0.0870714
0.0907657
0.0940525
0.0970865
0.100037
0.10303
0.106175
0.109597
0.11341
0.117608
0.121991
0.126288
0.130276
0.133619
0.135928
0.137137
0.0224238
0.046176
0.0575744
0.0653613
0.0715149
0.0767509
0.0813495
0.085427
0.0890751
0.0924
0.0955225
0.0985629
0.101618
0.104776
0.108131
0.11176
0.115654
0.119676
0.123608
0.127221
0.130202
0.132293
0.133473
0.0219229
0.0453402
0.0565283
0.0641556
0.0701568
0.0752281
0.0796751
0.083648
0.0872495
0.0905753
0.0937264
0.0967921
0.0998504
0.102973
0.106231
0.109676
0.113304
0.117021
0.120663
0.124026
0.126831
0.128884
0.130192
0.0212098
0.0441325
0.0551005
0.0625903
0.0684804
0.0734443
0.0777929
0.0816911
0.0852476
0.0885558
0.0916971
0.0947443
0.0977616
0.100808
0.103939
0.107192
0.110568
0.114004
0.117386
0.120551
0.123264
0.125367
0.126866
0.0204588
0.0426749
0.053389
0.0607391
0.0665325
0.0714156
0.0756943
0.0795384
0.083059
0.0863404
0.0894535
0.0924594
0.0954119
0.0983599
0.101347
0.104404
0.107535
0.110702
0.113829
0.116802
0.119428
0.121574
0.123238
0.019707
0.0410945
0.0515027
0.0586869
0.0643741
0.0691806
0.0734014
0.0772024
0.0806906
0.0839438
0.0870236
0.0899815
0.0928624
0.0957064
0.0985487
0.101415
0.104313
0.107223
0.110097
0.11286
0.115366
0.117499
0.119248
0.0189067
0.0394074
0.0494766
0.0564738
0.0620435
0.0667709
0.0709368
0.0746996
0.0781599
0.0813881
0.0844375
0.0873511
0.0901655
0.092913
0.0956221
0.0983145
0.101
0.10367
0.106298
0.108837
0.111181
0.113234
0.114979
0.0180477
0.0376163
0.0473222
0.0541181
0.0595629
0.0642096
0.068323
0.0720521
0.0754897
0.0786989
0.081725
0.0846033
0.087363
0.0900297
0.0926256
0.0951688
0.0976695
0.100127
0.102526
0.104841
0.106997
0.108916
0.110584
0.0171234
0.0357227
0.0450494
0.0516366
0.056954
0.0615211
0.0655857
0.0692861
0.0727069
0.0759038
0.0789152
0.0817694
0.0844891
0.0870939
0.0896006
0.0920237
0.0943726
0.0966498
0.0988488
0.100955
0.102918
0.104677
0.106224
0.0161281
0.0337312
0.0426719
0.0490506
0.0542432
0.0587352
0.0627562
0.0664335
0.0698435
0.0730349
0.0760397
0.0788805
0.0815746
0.0841362
0.0865779
0.0889103
0.0911414
0.0932749
0.0953088
0.0972358
0.0990197
0.100618
0.102027
0.0150626
0.0316557
0.040214
0.0463911
0.0514667
0.0558906
0.0598747
0.0635349
0.0669395
0.0701309
0.0731357
0.0759719
0.0786522
0.0811868
0.0835844
0.0858527
0.0879978
0.0900233
0.0919296
0.093712
0.0953451
0.0968004
0.0980763
0.0139399
0.0295256
0.0377154
0.0437045
0.0486743
0.0530395
0.0569941
0.0606427
0.0640462
0.0672411
0.0702499
0.0730867
0.075761
0.07828
0.0806496
0.082875
0.0849605
0.0869094
0.0887229
0.0903953
0.091911
0.0932505
0.0944139
0.0128049
0.0273912
0.0352368
0.0410563
0.0459341
0.0502509
0.054183
0.0578243
0.0612285
0.0644275
0.0674404
0.0702789
0.0729501
0.0754593
0.0778104
0.0800072
0.0820527
0.0839494
0.085697
0.0872899
0.0887199
0.0899731
0.0910499
0.0117693
0.0253296
0.0328614
0.0385325
0.0433333
0.0476116
0.0515275
0.0551631
0.0585663
0.0617658
0.0647785
0.0676145
0.0702799
0.0727788
0.0751143
0.0772891
0.079306
0.0811646
0.082864
0.0844016
0.0857717
0.0869644
0.0879792
0.0108237
0.023459
0.0307127
0.0362568
0.0409928
0.0452368
0.0491333
0.0527575
0.0561525
0.0593437
0.0623466
0.0651706
0.0678216
0.0703035
0.072619
0.0747702
0.0767587
0.0785847
0.0802473
0.0817447
0.0830725
0.0842229
0.0851951
0.0100035
0.0218849
0.028909
0.0343497
0.0390322
0.0432446
0.047118
0.0507214
0.0540945
0.0572615
0.0602375
0.0630325
0.0656531
0.0681037
0.0703873
0.0725061
0.0744615
0.0762537
0.0778821
0.079345
0.0806389
0.0817573
0.0826985
0.00936474
0.0207117
0.0275674
0.032931
0.0375695
0.0417489
0.0455901
0.0491579
0.0524904
0.0556122
0.0585396
0.0612841
0.0638537
0.0662539
0.0684888
0.0705611
0.0724724
0.074223
0.0758124
0.0772388
0.0784992
0.0795879
0.0805024
0.0089582
0.0200233
0.026786
0.0321029
0.0367061
0.0408476
0.0446429
0.0481551
0.0514238
0.0544754
0.057329
0.0599981
0.0624931
0.0648212
0.0669877
0.0689962
0.0708485
0.0725453
0.074086
0.0754687
0.0766904
0.0777458
0.0786317
0.00881757
0.0198728
0.0266316
0.0319379
0.0365151
0.0406116
0.0443432
0.0477762
0.0509542
0.0539079
0.05666
0.0592276
0.0616234
0.0638569
0.0659348
0.0678614
0.0696391
0.0712686
0.0727492
0.0740786
0.0752534
0.0762686
0.0771205
0.00895517
0.0202831
0.0271398
0.0324771
0.0370379
0.0410792
0.0447258
0.0480525
0.0511103
0.0539365
0.0565592
0.0589992
0.0612726
0.0633906
0.0653615
0.0671904
0.06888
0.0704307
0.0718411
0.0731085
0.0742288
0.0751966
0.0760079
0.00937062
0.021264
0.0283288
0.0337393
0.0382884
0.0422583
0.0457925
0.048981
0.0518865
0.0545551
0.057021
0.0593097
0.0614401
0.0634257
0.0652758
0.066996
0.0685891
0.0700547
0.0713903
0.0725916
0.0736532
0.0745692
0.0753353
0.0100649
0.022831
0.0302141
0.0357297
0.0402577
0.0441264
0.0475106
0.0505228
0.0532411
0.0557218
0.0580058
0.0601231
0.062095
0.0639369
0.065659
0.0672673
0.068764
0.0701475
0.0714128
0.0725527
0.0735592
0.0744249
0.0751453
0.011055
0.0250186
0.0328157
0.0384414
0.0429112
0.0466266
0.0498089
0.0525992
0.0550931
0.0573572
0.0594381
0.061369
0.0631735
0.0648682
0.066464
0.0679673
0.0693797
0.0706975
0.0719116
0.0730089
0.0739758
0.0748022
0.0754834
0.0123785
0.0278834
0.0361609
0.0418507
0.0461783
0.0496566
0.0525677
0.0550843
0.0573174
0.0593406
0.0612037
0.0629413
0.0645778
0.0661307
0.0676123
0.06903
0.0703855
0.0716726
0.0728755
0.0739703
0.0749318
0.0757436
0.0764012
0.0141024
0.0315459
0.0403153
0.045923
0.0499448
0.0530574
0.0556104
0.0577997
0.0597416
0.0615091
0.0631499
0.0646971
0.0661748
0.0676013
0.0689913
0.0703557
0.0716988
0.0730135
0.0742747
0.0754384
0.0764554
0.0772972
0.077959
0.0164099
0.0364068
0.0455172
0.050651
0.0540521
0.0566066
0.0586998
0.0605149
0.0621495
0.0636616
0.0650896
0.0664615
0.0677994
0.0691233
0.0704526
0.0718056
0.0731955
0.0746199
0.0760446
0.0773916
0.0785628
0.0795093
0.0802223
0.0200841
0.0439557
0.0525195
0.0561091
0.0582848
0.060009
0.0615409
0.062958
0.0642942
0.065573
0.0668148
0.0680389
0.0692649
0.0705149
0.0718158
0.0731993
0.0746969
0.0763244
0.0780465
0.0797368
0.0812066
0.0823835
0.0832285
0.0305815
0.0590097
0.0630895
0.0623307
0.0622641
0.062865
0.0637891
0.0648373
0.0659234
0.0670184
0.0681193
0.0692352
0.0703829
0.0715874
0.0728844
0.0743228
0.0759621
0.0778538
0.0799848
0.0821809
0.0841157
0.0857313
0.0868441
0.0842275
0.0895725
0.0799649
0.0683619
0.0651253
0.0646179
0.0650727
0.065878
0.0668144
0.067805
0.0688283
0.0698859
0.0709928
0.072176
0.0734776
0.0749602
0.0767084
0.0788132
0.0813032
0.0839912
0.0864251
0.0886919
0.0902032
0.0505346
0.0465622
0.047732
0.051084
0.0901289
0.0904101
0.0913586
0.092258
0.109075
0.108703
0.107816
0.106546
0.120502
0.119515
0.118108
0.116514
0.129636
0.128313
0.1267
0.124973
0.13735
0.135888
0.134113
0.132194
0.14295
0.141572
0.139938
0.138089
0.148037
0.146644
0.145095
0.143445
0.153806
0.152623
0.151312
0.150064
0.155268
0.155622
0.156545
0.157846
0.153644
0.155601
0.15855
0.160424
0.148325
0.149869
0.151729
0.153084
0.142561
0.143438
0.144427
0.145244
0.137653
0.138034
0.138464
0.138863
0.133835
0.133996
0.134137
0.134249
0.130618
0.130757
0.130813
0.13079
0.127453
0.127666
0.127755
0.127726
0.123989
0.124303
0.124478
0.124517
0.120117
0.120517
0.120783
0.120915
0.115904
0.116358
0.116693
0.116908
0.111508
0.111981
0.112353
0.112623
0.107105
0.107569
0.107947
0.108241
0.102841
0.103278
0.103642
0.103934
0.0988187
0.0992203
0.099559
0.0998343
0.0950905
0.0954584
0.0957692
0.0960227
0.0916739
0.0920141
0.0923011
0.0925344
0.0885653
0.0888859
0.0891556
0.0893739
0.0857558
0.0860639
0.0863229
0.0865319
0.083242
0.0835424
0.0837951
0.0839993
0.081032
0.0813266
0.081575
0.0817763
0.0791466
0.0794347
0.0796782
0.0798765
0.0776171
0.0778961
0.0781327
0.078326
0.0764816
0.0767486
0.0769753
0.0771608
0.0757823
0.0760346
0.0762489
0.0764242
0.0755643
0.0758006
0.076001
0.0761649
0.0758764
0.0760975
0.0762845
0.076437
0.0767746
0.0769836
0.0771596
0.077303
0.0783255
0.0785288
0.078699
0.0788377
0.0806067
0.0808189
0.0809961
0.0811404
0.0836948
0.0839612
0.0841858
0.0843654
0.087589
0.0880996
0.0885176
0.0888147
0.0917725
0.0936666
0.0946812
0.0951844
0.0679949
0.0766751
0.0811104
0.0800774
0.0807125
0.0831953
0.0838189
0.082364
0.080953
0.0795022
0.0767461
0.0730225
0.0688849
0.0645405
0.0598877
0.0547998
0.0490419
0.0417589
0.0226378
0.0927947
0.0922886
0.0934711
0.0915346
0.09142
0.0925999
0.0920427
0.089978
0.0882987
0.086537
0.0835384
0.0795458
0.0749783
0.0699979
0.0645399
0.0583433
0.0513269
0.042415
0.021825
0.104596
0.103519
0.103059
0.101039
0.10034
0.100382
0.0990352
0.0965181
0.0942441
0.0918375
0.0884171
0.0840814
0.0790658
0.0735013
0.0672472
0.0600203
0.0518005
0.0412147
0.0205565
0.114262
0.112379
0.110772
0.108521
0.107194
0.106329
0.104588
0.101833
0.0988467
0.0956054
0.0915668
0.0867415
0.0812398
0.0751502
0.0683461
0.0606377
0.0519479
0.0405714
0.0196452
0.122461
0.119656
0.117052
0.114391
0.112425
0.110767
0.108511
0.105434
0.101837
0.0978227
0.0932178
0.0880159
0.0822666
0.0760023
0.0691199
0.0614347
0.0525102
0.0403492
0.018991
0.129355
0.125824
0.122483
0.119326
0.116705
0.114301
0.11146
0.107948
0.103902
0.099414
0.0944838
0.0891239
0.0833391
0.0770991
0.070267
0.0625627
0.0532537
0.0402835
0.0185138
0.135241
0.131358
0.127551
0.123933
0.120753
0.117752
0.114418
0.110536
0.106185
0.101445
0.0963484
0.0909057
0.0850801
0.0787734
0.0717695
0.0636683
0.0536815
0.039962
0.0180509
0.140865
0.136903
0.132804
0.128858
0.125281
0.121837
0.118123
0.113954
0.109391
0.104488
0.099261
0.0936847
0.0876804
0.0810966
0.0736394
0.0647991
0.0537721
0.0390609
0.0174446
0.147848
0.143629
0.139182
0.134989
0.131041
0.127158
0.123148
0.118765
0.113994
0.108878
0.103414
0.0975255
0.0911067
0.0840002
0.0758847
0.0661706
0.0540576
0.0382997
0.0173816
0.157646
0.152461
0.147355
0.143102
0.138613
0.134129
0.129955
0.125393
0.120325
0.114867
0.109081
0.102771
0.0957792
0.0880065
0.0791702
0.0686419
0.0555802
0.0387457
0.0182967
0.160403
0.157385
0.155043
0.15228
0.147701
0.142807
0.138761
0.134072
0.128538
0.122458
0.116306
0.109612
0.102088
0.0937637
0.0843737
0.0731904
0.0592558
0.0412042
0.0205202
0.153796
0.153426
0.154109
0.15404
0.151558
0.148304
0.145421
0.141882
0.137323
0.131019
0.124506
0.117599
0.109652
0.100958
0.0912518
0.0795336
0.0649859
0.0452582
0.0240037
0.146022
0.146193
0.146775
0.147128
0.146061
0.144877
0.143725
0.141481
0.137623
0.133074
0.12795
0.121282
0.112919
0.103878
0.094187
0.0828268
0.0690325
0.0510986
0.0269683
0.139354
0.139432
0.139491
0.139476
0.138968
0.138294
0.137415
0.135159
0.131813
0.128407
0.124669
0.119993
0.112003
0.102478
0.0930876
0.0827761
0.0700858
0.054111
0.0287924
0.134365
0.134087
0.133593
0.133038
0.132306
0.131436
0.13027
0.128159
0.125191
0.122062
0.118719
0.114273
0.107627
0.0996209
0.0911423
0.0814695
0.069751
0.0549399
0.0293588
0.130659
0.130069
0.12917
0.128164
0.127052
0.125798
0.12428
0.122251
0.119704
0.116786
0.113364
0.108976
0.10341
0.0969864
0.0894539
0.0802819
0.0691489
0.0548665
0.0289488
0.12754
0.126833
0.125761
0.124525
0.123169
0.121668
0.119958
0.117947
0.115561
0.112685
0.109194
0.104974
0.100086
0.0945131
0.0876636
0.0790077
0.0683198
0.0542787
0.0282011
0.124423
0.123799
0.122769
0.121527
0.120125
0.11856
0.116789
0.114758
0.112352
0.109439
0.105943
0.101912
0.0973852
0.092151
0.0856251
0.0773333
0.0669603
0.0530389
0.0270413
0.120979
0.120562
0.119715
0.118613
0.117306
0.115795
0.114046
0.11199
0.109535
0.106584
0.103127
0.099218
0.094822
0.0896547
0.0832209
0.0750934
0.0648683
0.0510131
0.0253766
0.117128
0.116949
0.116333
0.115432
0.11428
0.112874
0.111178
0.109132
0.106662
0.103715
0.100299
0.0964304
0.0920203
0.0867876
0.080321
0.0722334
0.0620657
0.0483097
0.0233536
0.112956
0.112976
0.112571
0.11186
0.110861
0.109564
0.107931
0.105916
0.103467
0.10055
0.0971636
0.0932877
0.0888071
0.0834715
0.076944
0.0688734
0.0587838
0.0452451
0.021265
0.108632
0.108782
0.108527
0.107957
0.107075
0.105863
0.104285
0.102309
0.0998942
0.0970138
0.093649
0.0897547
0.0852109
0.0798057
0.0732636
0.0652711
0.055364
0.0422077
0.0194129
0.104336
0.104544
0.104372
0.103883
0.103071
0.101911
0.100371
0.0984289
0.0960507
0.0932073
0.0898676
0.0859736
0.0814133
0.0760119
0.0695456
0.061739
0.0521549
0.0395447
0.0180034
0.100217
0.100429
0.100285
0.0998271
0.0990426
0.0979064
0.096389
0.0944751
0.0921325
0.0893305
0.0860316
0.0821751
0.0776627
0.0723533
0.0660645
0.0585571
0.049422
0.0374692
0.0170841
0.096372
0.0965588
0.0964075
0.0959492
0.0951672
0.0940376
0.0925364
0.0906493
0.0883465
0.0855975
0.0823635
0.078588
0.0741882
0.0690503
0.0630247
0.0559005
0.0472882
0.0360205
0.0165729
0.0928502
0.0930021
0.0928311
0.0923595
0.0915709
0.0904421
0.0889615
0.0871073
0.0848544
0.0821746
0.0790318
0.0753765
0.0711399
0.0662293
0.0605183
0.0538139
0.0457323
0.0350968
0.0163296
0.0896638
0.0897855
0.0895967
0.089114
0.0883229
0.0872045
0.0857503
0.0839389
0.0817487
0.0791544
0.0761241
0.0726156
0.0685716
0.0639139
0.05853
0.0522347
0.0446381
0.034533
0.0162277
0.0868053
0.0869081
0.086711
0.0862268
0.0854434
0.084348
0.0829305
0.0811728
0.0790563
0.0765589
0.0736531
0.0703028
0.0664586
0.0620511
0.0569748
0.0510446
0.0438578
0.0341709
0.0161729
0.0842642
0.0843595
0.0841649
0.0836904
0.0829257
0.0818645
0.0804932
0.0787973
0.0767607
0.0743643
0.0715841
0.0683882
0.0647325
0.0605521
0.0557435
0.0501184
0.0432597
0.0338925
0.0161124
0.0820371
0.0821327
0.0819488
0.0814927
0.0807574
0.079736
0.0784162
0.0767851
0.0748285
0.0725293
0.0698659
0.0668092
0.0633178
0.0593287
0.0547386
0.0493548
0.0427489
0.0336238
0.0160146
0.0801339
0.0802328
0.0800634
0.0796303
0.0789291
0.0779502
0.0766826
0.0751143
0.0732322
0.0710201
0.0684577
0.065517
0.0621578
0.0583181
0.0538938
0.0486895
0.04227
0.0333272
0.0158719
0.0785775
0.0786789
0.0785241
0.0781159
0.0774483
0.076511
0.075293
0.0737823
0.0719657
0.0698271
0.0673459
0.0644942
0.0612318
0.0574963
0.0531838
0.0480983
0.0418036
0.032992
0.0156807
0.0774028
0.0775036
0.0773614
0.076977
0.0763414
0.0754435
0.0742715
0.0728127
0.0710526
0.0689741
0.0665551
0.063766
0.0605649
0.0568883
0.0526319
0.0476015
0.0413661
0.0326309
0.0154518
0.0766532
0.0767504
0.0766193
0.0762571
0.0756527
0.0747937
0.0736667
0.0722573
0.0705493
0.0685229
0.0661532
0.0634068
0.0602377
0.0565786
0.0523223
0.0472764
0.0410195
0.0322831
0.0151964
0.0763788
0.0764714
0.0763517
0.0760135
0.0754438
0.0746279
0.0735505
0.0721955
0.0705442
0.0685735
0.0662537
0.0635456
0.0603956
0.0567269
0.0524233
0.0472864
0.0409017
0.0320377
0.0149489
0.0766364
0.0767269
0.0766231
0.0763165
0.0757912
0.07503
0.0740159
0.0727312
0.071155
0.0692607
0.0670134
0.0643661
0.0612537
0.0575834
0.053217
0.0479307
0.0412917
0.0320892
0.0147661
0.0774912
0.0775862
0.0775095
0.0772498
0.0767869
0.0761008
0.0751739
0.0739882
0.0725221
0.0707467
0.068623
0.0660965
0.0630895
0.059488
0.0551178
0.0496973
0.0427113
0.0328688
0.0147903
0.0790217
0.0791331
0.0791018
0.0789132
0.0785391
0.0779568
0.0771501
0.076104
0.0747988
0.0732066
0.0712873
0.0689832
0.0662087
0.062832
0.058639
0.0532612
0.0460045
0.0352493
0.0153626
0.081334
0.0814778
0.0815155
0.0814292
0.0811757
0.0807294
0.0800805
0.0792212
0.0781379
0.0768075
0.0751943
0.0732454
0.0708792
0.0679632
0.0642655
0.0593398
0.0522418
0.0406615
0.0173321
0.0845997
0.0847909
0.0849154
0.084958
0.084849
0.0845633
0.0841041
0.0834757
0.0826734
0.0816824
0.0804773
0.0790186
0.0772443
0.0750506
0.0722408
0.068382
0.0623662
0.0509184
0.022682
0.0891466
0.0893754
0.0895634
0.0897184
0.0897392
0.0896106
0.0893531
0.0889821
0.0885015
0.0879053
0.0871806
0.0863067
0.0852523
0.0839663
0.0823515
0.0801645
0.0765941
0.0681647
0.0373476
0.0955704
0.0957297
0.0958545
0.0959863
0.0960392
0.0960165
0.0959404
0.0958235
0.0956703
0.0954805
0.0952515
0.0949796
0.09466
0.0942897
0.0938743
0.0934479
0.0931066
0.0928664
0.0867785
)
;

boundaryField
{
    leftWall
    {
        type            kqRWallFunction;
        value           nonuniform List<scalar> 
50
(
0.00125873
0.00299764
0.00433748
0.005518
0.00655447
0.00745624
0.00820305
0.00870376
0.00855092
0.00914288
0.0105573
0.0121823
0.013661
0.0146728
0.0147088
0.0149851
0.0166899
0.0182968
0.0202127
0.0211763
0.0220033
0.0225029
0.0224238
0.0219229
0.0212098
0.0204588
0.019707
0.0189067
0.0180477
0.0171234
0.0161281
0.0150626
0.0139399
0.0128049
0.0117693
0.0108237
0.0100035
0.00936474
0.0089582
0.00881757
0.00895517
0.00937062
0.0100649
0.011055
0.0123785
0.0141024
0.0164099
0.0200841
0.0305815
0.0842275
)
;
    }
    rightWall
    {
        type            kqRWallFunction;
        value           nonuniform List<scalar> 
50
(
0.00249086
0.00674468
0.0102324
0.0138688
0.0170543
0.0192337
0.0205965
0.0216
0.0226378
0.021825
0.0205565
0.0196452
0.018991
0.0185138
0.0180509
0.0174446
0.0173816
0.0182967
0.0205202
0.0240037
0.0269683
0.0287924
0.0293588
0.0289488
0.0282011
0.0270413
0.0253766
0.0233536
0.021265
0.0194129
0.0180034
0.0170841
0.0165729
0.0163296
0.0162277
0.0161729
0.0161124
0.0160146
0.0158719
0.0156807
0.0154518
0.0151964
0.0149489
0.0147661
0.0147903
0.0153626
0.0173321
0.022682
0.0373476
0.0867785
)
;
    }
    lowerWall
    {
        type            kqRWallFunction;
        value           nonuniform List<scalar> 
62
(
0.00125873
0.00335136
0.00500687
0.00642056
0.00765171
0.00874582
0.00973993
0.0106643
0.0115464
0.0124297
0.0133275
0.0141746
0.0149427
0.0156171
0.0161868
0.0166148
0.0168192
0.0166835
0.0160531
0.0146856
0.0122001
0.00802884
0.00238752
0.00238752
0.00664416
0.0100117
0.0133483
0.0170287
0.0217502
0.0290128
0.0426392
0.0505346
0.0465622
0.047732
0.051084
0.00318604
0.00808069
0.0118127
0.0157812
0.0201848
0.0258536
0.0340824
0.0464794
0.00318604
0.00636455
0.00834258
0.00955817
0.0108592
0.0127826
0.013846
0.0146744
0.0151696
0.0154863
0.0153799
0.0145351
0.0135221
0.0123343
0.0113065
0.0104414
0.00953274
0.00769827
0.00249086
)
;
    }
    atmosphere
    {
        type            inletOutlet;
        inletValue      uniform 0.1;
        value           nonuniform List<scalar> 
46
(
0.1
0.1
0.1
0.0683619
0.0651253
0.0646179
0.0650727
0.065878
0.0668144
0.067805
0.0688283
0.0698859
0.0709928
0.072176
0.0734776
0.0749602
0.0767084
0.0788132
0.0813032
0.0839912
0.0864251
0.0886919
0.0902032
0.0917725
0.1
0.1
0.1
0.1
0.1
0.1
0.1
0.1
0.1
0.1
0.1
0.1
0.1
0.1
0.1
0.1
0.1
0.1
0.1
0.1
0.1
0.1
)
;
    }
    defaultFaces
    {
        type            empty;
    }
}


// ************************************************************************* //
