/*--------------------------------*- C++ -*----------------------------------*\
  =========                 |
  \\      /  F ield         | OpenFOAM: The Open Source CFD Toolbox
   \\    /   O peration     | Website:  https://openfoam.org
    \\  /    A nd           | Version:  13
     \\/     M anipulation  |
\*---------------------------------------------------------------------------*/
FoamFile
{
    format      ascii;
    class       volScalarField;
    location    "1.9";
    object      nut;
}
// * * * * * * * * * * * * * * * * * * * * * * * * * * * * * * * * * * * * * //

dimensions      [0 2 -1 0 0 0 0];

internalField   nonuniform List<scalar> 
2268
(
2.38867e-05
3.90881e-05
4.76699e-05
5.39178e-05
5.88546e-05
6.29707e-05
6.6542e-05
6.97406e-05
7.2699e-05
7.56114e-05
7.83639e-05
8.07923e-05
8.28769e-05
8.46206e-05
8.60198e-05
8.69989e-05
8.73803e-05
8.68992e-05
8.51524e-05
8.14016e-05
7.4216e-05
6.02141e-05
3.24888e-05
7.86669e-05
0.000278981
0.000367406
0.000436359
0.000497088
0.000553432
0.000606735
0.000657444
0.000705795
0.000751253
0.000789589
0.000822577
0.000850511
0.000873507
0.000891505
0.000903689
0.000908086
0.000901182
0.000876638
0.00082256
0.000716932
0.000517363
0.000114792
9.49124e-05
0.000506295
0.0007028
0.000851215
0.000981939
0.00110341
0.00121852
0.00132827
0.00143307
0.00153204
0.00161992
0.00169674
0.00176181
0.00181463
0.00185447
0.00187881
0.00188211
0.00185455
0.00177877
0.00162412
0.0013405
0.000858214
0.000141048
0.000107149
0.000685699
0.000989252
0.00121344
0.00140938
0.00159028
0.00176067
0.00192229
0.00207602
0.0022209
0.00235218
0.00246828
0.00256723
0.00264736
0.00270643
0.00273958
0.00273715
0.00268229
0.00254619
0.00228098
0.0018171
0.0010864
0.000162646
0.000116696
0.000824093
0.00122767
0.00152207
0.00177715
0.00201082
0.00222921
0.002435
0.00262979
0.00281232
0.00297919
0.00312778
0.0032551
0.00335821
0.00343327
0.0034731
0.0034643
0.00338382
0.00319313
0.00283026
0.0022101
0.00126826
0.000183264
0.000124215
0.000928036
0.00142216
0.00178122
0.00208989
0.0023704
0.00263059
0.00287419
0.00310346
0.00331757
0.00351395
0.00368948
0.0038405
0.0039631
0.00405213
0.00409862
0.00408636
0.00398768
0.00375684
0.00332065
0.00257639
0.00144518
0.000206642
0.000130108
0.00100227
0.00157586
0.00199453
0.0023521
0.00267459
0.00297169
0.00324825
0.00350729
0.00374883
0.00397056
0.00416915
0.00434061
0.0044805
0.0045829
0.00463781
0.00462734
0.00452105
0.00426903
0.00379059
0.0029635
0.0016612
0.000238318
0.000134102
0.00104865
0.00169077
0.00216505
0.00256792
0.00292867
0.00325899
0.00356498
0.00385059
0.00411697
0.00436136
0.00458045
0.00477029
0.00492634
0.00504255
0.00510865
0.00510618
0.00500374
0.00475051
0.00426458
0.00341341
0.00199054
0.000289358
3.69753e-05
5.26972e-05
6.08802e-05
6.57454e-05
7.02368e-05
7.66365e-05
8.01706e-05
8.20378e-05
8.3082e-05
8.3882e-05
8.37241e-05
8.16631e-05
7.88376e-05
7.50435e-05
7.12891e-05
6.78472e-05
6.44621e-05
5.82662e-05
3.4352e-05
0.000138369
0.000352297
0.0004831
0.000562645
0.000644868
0.000745697
0.000820712
0.000841466
0.00083488
0.000828188
0.000819001
0.000793073
0.000750733
0.0006826
0.000602458
0.000534776
0.000487474
0.000430754
0.000130514
0.000166105
0.000537291
0.000828991
0.00101111
0.00120104
0.00143607
0.00161329
0.00168047
0.00167717
0.00166356
0.00163612
0.00157341
0.00147461
0.00133568
0.00118351
0.00104569
0.000925145
0.000749333
0.000158709
0.000190066
0.000671695
0.00114892
0.00143434
0.00170122
0.00203282
0.00229157
0.00240154
0.00240343
0.00238369
0.00233512
0.00224136
0.00209721
0.00190808
0.00170474
0.0015068
0.00130321
0.000981681
0.000182827
0.000214012
0.000795092
0.0014752
0.00187951
0.0021989
0.00258317
0.00288979
0.00302761
0.0030306
0.00300364
0.00293416
0.002814
0.00263567
0.0024103
0.00216721
0.00191515
0.0016263
0.00115823
0.000202405
0.000242384
0.000908996
0.00181915
0.00234469
0.0027035
0.00310753
0.00343053
0.00357979
0.00358317
0.00354675
0.00345886
0.00331357
0.0031073
0.00285286
0.002574
0.00227128
0.00190035
0.00130202
0.000215472
0.000279888
0.0010608
0.00220094
0.00282526
0.00321052
0.00361145
0.00392839
0.00407414
0.00407509
0.00402718
0.00392163
0.00375364
0.00352219
0.00324086
0.00292768
0.00257657
0.00213032
0.00141919
0.000223122
0.000330622
0.00137762
0.00265059
0.00332378
0.00371452
0.0040976
0.00439249
0.0045239
0.00451687
0.00445572
0.00433135
0.00414081
0.00388565
0.00357794
0.00323094
0.00283237
0.00231586
0.0015083
0.000228547
0.00013321
0.00107426
0.00180998
0.00236808
0.00283812
0.00325427
0.00363202
0.00397966
0.00430223
0.00460136
0.00487551
0.00512205
0.00533739
0.0055175
0.00565665
0.00574502
0.00576441
0.00568383
0.00545528
0.0050067
0.00423977
0.00305672
0.00153205
0.000135212
0.00106834
0.00188891
0.00253044
0.00307023
0.00354605
0.00397673
0.00437247
0.00473841
0.00507504
0.00538325
0.00566217
0.00591024
0.00612514
0.00630283
0.00643527
0.00650632
0.00648824
0.0063402
0.00600875
0.0054365
0.00458744
0.00353563
0.00014367
0.00110381
0.0019675
0.00266158
0.00325089
0.00377184
0.00424385
0.00467791
0.00507915
0.00544792
0.00578612
0.0060948
0.00637476
0.00662615
0.00684726
0.00703206
0.00716587
0.00722291
0.0071675
0.00695781
0.00656383
0.00600653
0.00537936
0.000153639
0.00114205
0.00204013
0.00277159
0.00339871
0.00395665
0.00446411
0.00493181
0.00536363
0.00576095
0.00612647
0.00646327
0.00677481
0.00706397
0.0073314
0.00757239
0.00777191
0.00790292
0.00793092
0.00781793
0.00755813
0.00718617
0.00678413
0.000162388
0.00116758
0.0020886
0.00285172
0.00351458
0.00410957
0.00465333
0.00515429
0.00561557
0.00603967
0.0064306
0.00679386
0.00713587
0.00746224
0.00777534
0.00807085
0.00833105
0.00852237
0.00860244
0.00854925
0.00837461
0.00812169
0.00785407
0.000168282
0.00117831
0.00210088
0.00289703
0.00360235
0.00424163
0.00482685
0.005363
0.00585364
0.00630293
0.00671668
0.00710323
0.0074724
0.00783215
0.00818515
0.00852521
0.00882969
0.00905727
0.00916439
0.00914465
0.00902428
0.00884791
0.00866418
0.000168595
0.00110556
0.0020695
0.00292266
0.00368333
0.00437499
0.00500577
0.00557799
0.00609586
0.00656604
0.00699771
0.0074029
0.00779516
0.0081844
0.00856732
0.00893553
0.00926675
0.00951105
0.00962502
0.00961798
0.00952919
0.00940166
0.00927066
0.00017105
0.00109062
0.00209166
0.00299006
0.00379871
0.00454118
0.00521498
0.005819
0.00635787
0.00684162
0.00728395
0.00770105
0.00810998
0.00852389
0.00892803
0.00930681
0.00964916
0.00989534
0.00999374
0.00998444
0.00992112
0.00983503
0.00973951
0.000181295
0.00123648
0.00224325
0.00315491
0.00399165
0.0047743
0.00548078
0.00610616
0.00665549
0.00714216
0.00758317
0.00799727
0.00839721
0.0087904
0.00917159
0.00953186
0.00984612
0.0100717
0.0101936
0.0102415
0.0102483
0.0102104
0.0101216
0.000190749
0.0012827
0.00243702
0.00341658
0.00429401
0.00508455
0.00579464
0.00642107
0.00696605
0.00744177
0.00786407
0.0082513
0.0086136
0.00895744
0.00929317
0.00961545
0.00989731
0.0101116
0.010256
0.0103518
0.0104124
0.0104184
0.0103569
0.000201443
0.00154722
0.00275524
0.00374159
0.004601
0.00537335
0.0060635
0.00667463
0.00720734
0.00767123
0.00807961
0.0084464
0.00878293
0.0090996
0.00940571
0.00969772
0.00995602
0.0101602
0.0103081
0.0104119
0.0104789
0.0104999
0.0104796
0.000207057
0.00167798
0.00296944
0.00398809
0.00484509
0.00559716
0.00626629
0.00686035
0.00738307
0.00784116
0.00824415
0.0086021
0.00892572
0.00922597
0.00951115
0.00978003
0.0100197
0.0102145
0.0103605
0.0104642
0.0105296
0.0105529
0.0105482
0.000210921
0.00174458
0.00310552
0.00415625
0.00501828
0.00576009
0.00641413
0.00699468
0.00750886
0.00796289
0.00836354
0.00871822
0.00903636
0.00932801
0.00960047
0.00985404
0.0100805
0.0102686
0.0104128
0.0105151
0.0105777
0.0106019
0.0106004
0.000212978
0.00177856
0.00318617
0.00426279
0.00513235
0.00586969
0.00651378
0.00708408
0.00759077
0.00804065
0.00843942
0.00879304
0.00910964
0.00939756
0.00966305
0.0099074
0.0101257
0.0103099
0.0104543
0.0105579
0.0106217
0.0106485
0.0106482
0.000212454
0.00179178
0.00322585
0.00432047
0.00519701
0.00593261
0.00657008
0.00713247
0.00763244
0.00807782
0.00847421
0.00882725
0.00914363
0.00943018
0.00969218
0.00993137
0.0101451
0.0103277
0.0104742
0.0105818
0.0106506
0.0106832
0.0106875
0.000210006
0.00178894
0.00323357
0.00433844
0.00521972
0.00595439
0.00658709
0.00714317
0.00763719
0.00807801
0.00847173
0.00882385
0.0091401
0.00942611
0.00968632
0.00992269
0.0101339
0.0103164
0.0104659
0.0105792
0.0106555
0.0106965
0.010709
0.000206444
0.00177168
0.00321469
0.00432295
0.00520618
0.00593966
0.00656856
0.00711954
0.00760846
0.0080451
0.00843616
0.00878708
0.00910297
0.00938862
0.00964783
0.00988262
0.0100927
0.0102757
0.0104285
0.010548
0.0106326
0.0106834
0.0107059
0.000202538
0.00174149
0.00317323
0.00427888
0.00516112
0.00589264
0.0065182
0.00706504
0.0075498
0.00798299
0.00837172
0.00872145
0.00903689
0.00932223
0.00958084
0.00981472
0.0100242
0.010208
0.0103638
0.0104892
0.0105818
0.0106423
0.0106749
0.000198739
0.00170278
0.0031139
0.00421083
0.0050889
0.00581739
0.00643982
0.00698334
0.00746496
0.00789558
0.00828258
0.00863143
0.00894657
0.00923179
0.00949011
0.00972353
0.00993277
0.0101173
0.0102757
0.0104059
0.0105055
0.0105744
0.010616
0.000194651
0.00165824
0.00304106
0.00412361
0.00499421
0.00571826
0.00633749
0.00687835
0.00735777
0.00778678
0.00817285
0.00852139
0.00883664
0.00912209
0.0093805
0.00961385
0.0098231
0.0100083
0.0101685
0.0103024
0.0104076
0.0104834
0.0105324
0.000190186
0.0016092
0.00295764
0.0040211
0.00488131
0.00559959
0.00621542
0.00675418
0.00723231
0.00766068
0.0080467
0.00839567
0.00871163
0.00899781
0.00925681
0.0094905
0.00970004
0.00988579
0.0100474
0.010184
0.0102932
0.0103743
0.0104291
0.000185285
0.0015566
0.00286601
0.00390668
0.00475424
0.00546572
0.00607809
0.00661528
0.007093
0.00752171
0.00790861
0.00825881
0.00857617
0.0088637
0.00912382
0.00935835
0.0095685
0.00975491
0.00991757
0.0100559
0.0101681
0.0102532
0.0103124
0.000179888
0.00150132
0.00276837
0.00378369
0.00461712
0.0053213
0.00593041
0.00646669
0.00694488
0.00737487
0.00776353
0.00811575
0.00843519
0.00872468
0.00898648
0.00922233
0.00943349
0.00962074
0.00978433
0.00992403
0.0100383
0.0101262
0.0101887
0.000173953
0.0014442
0.00266696
0.00365568
0.00447455
0.00517161
0.00577805
0.00631424
0.00679378
0.00722592
0.00761712
0.00797202
0.0082941
0.00858604
0.00884997
0.00908757
0.0093001
0.00948843
0.00965302
0.00979377
0.00990952
0.00999957
0.0100646
0.000167485
0.00138584
0.00256418
0.00352682
0.00433197
0.00502291
0.00562771
0.0061648
0.00664657
0.00708157
0.00747586
0.00783385
0.00815888
0.00845351
0.00871979
0.00895936
0.00917349
0.00936311
0.00952879
0.00967042
0.00978738
0.00987913
0.00994611
0.000160632
0.00132615
0.00246281
0.00340224
0.00419602
0.00488269
0.00548732
0.00602638
0.00651112
0.00694943
0.00734702
0.00770814
0.00803602
0.00833319
0.00860168
0.00884312
0.0090588
0.00924971
0.00941635
0.00955877
0.00967677
0.00976996
0.00983864
0.000154121
0.00126444
0.0023666
0.00328845
0.00407469
0.00475971
0.00536597
0.00590801
0.00639611
0.00683773
0.00723835
0.00760211
0.00793224
0.00823131
0.00850138
0.00874413
0.00896094
0.00915263
0.00931984
0.00946289
0.00958175
0.00967616
0.00974633
0.000147946
0.00121146
0.00228746
0.00319762
0.00398003
0.00466542
0.00527395
0.00581909
0.00631033
0.00675465
0.00715739
0.00752269
0.00785388
0.00815362
0.00842408
0.00866701
0.0088838
0.00907547
0.00924272
0.00938597
0.00950533
0.00960063
0.00967201
0.000142355
0.00117342
0.00223457
0.00313996
0.00392253
0.00461025
0.00522168
0.00576944
0.0062626
0.00670797
0.00711093
0.00747578
0.007806
0.00810447
0.00837351
0.008615
0.00883042
0.00902091
0.00918724
0.00932992
0.00944914
0.0095448
0.009617
0.000137813
0.00115432
0.00221439
0.00312291
0.0039097
0.00460133
0.00521561
0.00576484
0.00625804
0.00670219
0.00710288
0.00746471
0.00779146
0.00808625
0.00835164
0.00858968
0.00880198
0.00898975
0.00915388
0.00929491
0.00941308
0.00950837
0.00958082
0.000134806
0.00115534
0.00222894
0.00314875
0.00394366
0.00464039
0.00525699
0.00580607
0.00629704
0.0067373
0.00713291
0.00748888
0.00780939
0.0080979
0.00835723
0.00858964
0.00879687
0.00898024
0.0091407
0.00927883
0.00939491
0.00948896
0.00956099
0.000133703
0.00117474
0.00227474
0.0032131
0.00401957
0.00472236
0.00534065
0.00588792
0.00637436
0.00680808
0.00719579
0.0075431
0.00785469
0.00813439
0.00838534
0.00861001
0.00881032
0.00898766
0.00914304
0.00927705
0.00939001
0.00948195
0.00955288
0.000134654
0.00120843
0.00234371
0.00330587
0.0041266
0.00483635
0.0054559
0.00599999
0.00647989
0.00690472
0.00728204
0.0076182
0.00791845
0.00818713
0.00842768
0.00864283
0.00883464
0.00900459
0.0091537
0.00928258
0.00939154
0.00948064
0.00954987
0.000137616
0.0012519
0.00242621
0.0034148
0.00425158
0.00496908
0.00558967
0.0061295
0.0066012
0.00701511
0.00737988
0.00770275
0.00798966
0.00824547
0.008474
0.00867822
0.00886033
0.00902187
0.00916385
0.00928687
0.00939119
0.00947687
0.00954394
0.000142458
0.00130151
0.00251435
0.00352974
0.00438339
0.00510904
0.0057303
0.00626476
0.00672663
0.00712772
0.00747799
0.00778568
0.00805755
0.00829899
0.00851422
0.00870643
0.00887796
0.00903037
0.00916463
0.00928128
0.0093805
0.00946234
0.00952685
0.000149072
0.00135492
0.00260359
0.00364498
0.00451552
0.00524903
0.00586998
0.00639752
0.00684764
0.00723393
0.00756778
0.00785859
0.00811392
0.00833974
0.00854064
0.00872001
0.00888026
0.00902295
0.00914899
0.0092588
0.00935251
0.0094301
0.00949165
0.00015741
0.00141047
0.00269281
0.0037595
0.00464616
0.00538611
0.00600478
0.00652316
0.00695931
0.00732874
0.0076444
0.00791685
0.00815447
0.00836374
0.00854956
0.00871546
0.00886382
0.00899613
0.00911321
0.00921548
0.00930309
0.00937598
0.00943416
0.000167558
0.00146943
0.00278673
0.00387747
0.00477715
0.00551993
0.00613292
0.00663926
0.00705915
0.00741
0.00770624
0.00795951
0.00817888
0.00837126
0.00854172
0.0086938
0.00882972
0.00895074
0.00905759
0.00915097
0.00923162
0.00929935
0.009354
0.000180391
0.0015455
0.00290522
0.00401162
0.0049135
0.00565071
0.00625251
0.0067435
0.00714538
0.00747691
0.00775369
0.00798812
0.00818981
0.00836593
0.00852157
0.00866004
0.00878314
0.00889159
0.00898596
0.00906794
0.00914052
0.00920312
0.00925494
0.000200629
0.0016923
0.00310649
0.00418881
0.00506207
0.00577681
0.00635943
0.00683204
0.00721553
0.00752878
0.00778782
0.00800546
0.00819157
0.00835339
0.00849587
0.00862184
0.0087322
0.00882655
0.00890482
0.00897105
0.00903468
0.00909304
0.00914465
0.000254808
0.00209188
0.00355945
0.00445508
0.00522472
0.00588997
0.00644527
0.00689868
0.00726598
0.00756443
0.00780967
0.00801451
0.00818886
0.00833989
0.00847225
0.00858809
0.00868694
0.00876624
0.00882413
0.00886838
0.00892297
0.00897735
0.00903336
0.00042381
0.00355347
0.00493253
0.00485203
0.00537466
0.00596763
0.00649606
0.00693537
0.00729259
0.00758252
0.00782008
0.00801793
0.00818589
0.00833105
0.0084578
0.00856766
0.00865879
0.00872596
0.00876406
0.00878379
0.0088298
0.00887292
0.00893661
0.000317137
0.000303273
0.000307176
0.000318063
0.00273403
0.00258444
0.00256544
0.00267422
0.00497489
0.0048231
0.00475947
0.00478261
0.00653429
0.00642271
0.00636211
0.00635316
0.00768623
0.00760511
0.00755353
0.00753133
0.00854707
0.00848649
0.00844165
0.00841218
0.00918659
0.00914138
0.00910416
0.00907334
0.0096722
0.00963348
0.00960099
0.00957333
0.0100521
0.010015
0.00998916
0.00997157
0.0103172
0.0103101
0.0103159
0.0103262
0.0104858
0.0105073
0.0105393
0.0105512
0.0105581
0.0105721
0.0105854
0.0105876
0.0106002
0.0106013
0.0106002
0.0105933
0.0106386
0.0106301
0.0106197
0.0106062
0.0106753
0.0106631
0.0106481
0.0106303
0.0106999
0.010688
0.0106721
0.0106526
0.0107025
0.0106933
0.0106789
0.01066
0.010678
0.0106724
0.010661
0.0106443
0.0106254
0.0106236
0.0106157
0.0106021
0.0105473
0.0105491
0.0105447
0.0105343
0.0104485
0.0104535
0.0104522
0.0104449
0.0103354
0.010343
0.0103444
0.0103397
0.0102145
0.0102243
0.0102279
0.0102255
0.0100927
0.0101042
0.0101096
0.0101092
0.00997614
0.00998909
0.00999612
0.00999739
0.00987029
0.0098845
0.00989293
0.00989566
0.00977941
0.00979475
0.00980441
0.00980847
0.00970636
0.0097227
0.00973348
0.00973875
0.00965238
0.00966958
0.00968133
0.00968769
0.00961692
0.00963478
0.00964736
0.00965467
0.00959744
0.00961576
0.00962897
0.00963711
0.00958931
0.00960788
0.00962157
0.00963041
0.00958596
0.00960461
0.00961865
0.00962809
0.00957943
0.00959802
0.00961231
0.0096223
0.0095615
0.00957989
0.00959431
0.00960475
0.00952517
0.00954318
0.00955755
0.0095683
0.00946627
0.0094837
0.00949784
0.00950873
0.00938466
0.00940152
0.00941542
0.00942637
0.00928499
0.00930174
0.00931577
0.00932706
0.00917646
0.00919436
0.0092094
0.00922161
0.00907207
0.00909317
0.00910955
0.0091225
0.00899061
0.00901774
0.00903121
0.00904065
0.00120585
0.00238094
0.00346064
0.00410649
0.00449292
0.00482029
0.00505365
0.00514903
0.00513072
0.00504672
0.00489085
0.00466343
0.00437247
0.0040268
0.00362809
0.00315604
0.00253726
0.00160433
0.000234265
0.00320013
0.00388261
0.00468692
0.00518253
0.00548334
0.00570547
0.00583868
0.00586311
0.0057979
0.00566463
0.0054575
0.00517811
0.00483236
0.00442287
0.0039469
0.00337236
0.00263501
0.00160363
0.000230804
0.00495077
0.00537462
0.00586723
0.00618108
0.00636495
0.00647598
0.00650809
0.0064513
0.0063193
0.00612166
0.005852
0.00551036
0.00509942
0.00461993
0.00406116
0.0033882
0.00254688
0.00146236
0.000223476
0.00640618
0.00663244
0.00688458
0.00703581
0.00710391
0.00711188
0.00705287
0.00691637
0.00670996
0.00643942
0.00609897
0.00568719
0.00520434
0.00464968
0.00401219
0.00326776
0.00238855
0.00134045
0.000217658
0.0075308
0.00761848
0.0077089
0.00773526
0.00770326
0.0076202
0.00747787
0.00726682
0.00698816
0.00664474
0.00623324
0.00575199
0.00520115
0.00458088
0.00388625
0.0031085
0.00223747
0.00124331
0.000213152
0.0083809
0.0083801
0.00836581
0.00830103
0.00818748
0.00802715
0.00781203
0.00753384
0.00719074
0.00678264
0.00630794
0.00576613
0.00515881
0.00448897
0.00375853
0.00296868
0.00211713
0.00117381
0.00020969
0.00902764
0.0089743
0.00889313
0.00876326
0.00858681
0.00836481
0.00809054
0.00775693
0.00736124
0.00690202
0.00637823
0.00579028
0.00514089
0.00443509
0.00367828
0.00287457
0.00202442
0.00111697
0.000206486
0.0095271
0.00944565
0.00932281
0.00914972
0.00892874
0.00866154
0.00834358
0.00796954
0.00753702
0.00704397
0.00648901
0.00587171
0.00519357
0.0044594
0.00367547
0.00284624
0.00197499
0.00106663
0.000202816
0.00993492
0.00983301
0.00968247
0.00948454
0.00923607
0.00893966
0.00859507
0.0081979
0.00774592
0.00723665
0.00666797
0.00603713
0.00534167
0.00458357
0.00376894
0.00290209
0.00198925
0.0010467
0.000203435
0.0103044
0.010167
0.00999569
0.00979061
0.00952807
0.00921641
0.0088634
0.00846003
0.00800389
0.00749253
0.00692492
0.00629584
0.00559592
0.00482093
0.00397471
0.00305941
0.00207972
0.00106149
0.000210642
0.0105208
0.0104035
0.0102654
0.0100774
0.00981617
0.00950592
0.00916362
0.0087677
0.00831743
0.00781074
0.00725312
0.00663775
0.00594736
0.00516828
0.00429666
0.00332614
0.00225104
0.0011134
0.000225294
0.0105668
0.0104978
0.0104131
0.0102646
0.0100361
0.00975766
0.00944622
0.00908131
0.00866553
0.0081796
0.00763718
0.00704381
0.00637416
0.00560645
0.0047248
0.00370174
0.00251947
0.00121041
0.00024456
0.0105706
0.0105131
0.0104365
0.0103126
0.0101269
0.00989991
0.00962913
0.00930716
0.00892759
0.00849029
0.00799413
0.0074284
0.00678695
0.00604967
0.00518681
0.00416765
0.00295544
0.00154612
0.000257828
0.0105775
0.0105182
0.0104375
0.0103227
0.0101665
0.00997243
0.00973223
0.00943767
0.009092
0.00869413
0.00823554
0.00771515
0.00711012
0.00640601
0.00557987
0.00459511
0.00338166
0.00185998
0.000264761
0.0105956
0.0105295
0.0104409
0.0103257
0.0101793
0.0100005
0.00978
0.00951044
0.0091904
0.00881808
0.00838873
0.00789594
0.00732973
0.0066684
0.00587576
0.00490337
0.00365966
0.002006
0.000266372
0.0106146
0.0105424
0.0104467
0.0103274
0.0101818
0.0100071
0.00979707
0.00954406
0.00924438
0.00889162
0.00848025
0.00800738
0.00746799
0.00683868
0.00607208
0.00510803
0.00383935
0.00210241
0.000265394
0.0106219
0.0105472
0.0104473
0.0103242
0.0101765
0.0100018
0.00979561
0.00955106
0.0092623
0.00892104
0.00852154
0.00806164
0.00753579
0.00692162
0.00617324
0.00522288
0.00395121
0.00217292
0.0002632
0.010609
0.0105355
0.0104347
0.0103097
0.01016
0.00998376
0.00977731
0.0095347
0.00924906
0.00891246
0.00851883
0.00806521
0.0075445
0.00693567
0.006197
0.00526002
0.00400021
0.00221331
0.000258751
0.0105713
0.0105017
0.0104029
0.0102783
0.0101277
0.00994958
0.00974086
0.00949618
0.00920896
0.00887192
0.00847933
0.00802684
0.00750606
0.00689706
0.00616187
0.00523471
0.00399251
0.00222101
0.000251641
0.0105086
0.0104444
0.0103494
0.0102267
0.0100763
0.00989681
0.0096853
0.00943704
0.00914607
0.008806
0.00841126
0.0079564
0.00743201
0.00681897
0.00608224
0.00516023
0.00393637
0.00219745
0.000242453
0.0104241
0.0103656
0.010275
0.0101552
0.0100059
0.00982567
0.00961173
0.00935985
0.00906475
0.00872074
0.0083223
0.00786309
0.0073329
0.00671306
0.00597098
0.0050499
0.00384244
0.00214649
0.000232344
0.0103232
0.01027
0.010184
0.0100675
0.00991979
0.00973946
0.00952386
0.00926909
0.00897044
0.00862268
0.00822018
0.00775593
0.00721901
0.00659109
0.00584156
0.00491825
0.00372378
0.00207437
0.000222675
0.0102127
0.0101643
0.0100826
0.00996934
0.00982366
0.00964392
0.0094276
0.00917106
0.00886995
0.00851931
0.00811333
0.0076444
0.00710109
0.00646528
0.00570797
0.00478086
0.00359595
0.00199128
0.000214626
0.0100996
0.0100554
0.00997777
0.00986781
0.00972449
0.00954607
0.0093301
0.00907305
0.00877085
0.00841864
0.00801038
0.00753799
0.00698965
0.00634743
0.00558355
0.00465283
0.00347523
0.00191054
0.000208802
0.00999055
0.00995006
0.00987634
0.0097698
0.00962926
0.00945294
0.0092384
0.00898221
0.00868041
0.00832814
0.00791916
0.00744501
0.00689362
0.00624725
0.00547903
0.00454618
0.00337501
0.00184384
0.000205119
0.00989126
0.0098543
0.00978436
0.00968141
0.00954414
0.00937076
0.00915866
0.00890459
0.0086046
0.00825376
0.00784563
0.00737149
0.00681914
0.00617099
0.00540085
0.00446762
0.00330219
0.00179645
0.000203029
0.0098063
0.00977272
0.00970655
0.00960741
0.00947389
0.00930412
0.00909539
0.00884451
0.00854749
0.00819929
0.00779331
0.00732064
0.00676899
0.00612087
0.00535051
0.00441778
0.00325639
0.00176698
0.000201887
0.00973865
0.00970836
0.009646
0.00955089
0.00942154
0.00925592
0.00905127
0.00880435
0.0085111
0.00816633
0.00776328
0.00729289
0.00674277
0.00609544
0.00532526
0.00439245
0.00323219
0.00175067
0.000201153
0.00968953
0.00966247
0.00960396
0.00951309
0.00938827
0.00922718
0.0090271
0.00878464
0.00849558
0.00815457
0.00775464
0.00728657
0.00673781
0.00609079
0.00531979
0.00438503
0.00322248
0.00174231
0.000200486
0.00965828
0.0096344
0.0095798
0.00949339
0.00937334
0.00921717
0.00902204
0.00878437
0.00849971
0.00816244
0.00776536
0.00729897
0.00675054
0.0061023
0.00532837
0.00438896
0.00322087
0.00173791
0.000199675
0.00964234
0.0096216
0.00957103
0.00948932
0.00937435
0.00922357
0.00903387
0.00880139
0.00852137
0.00818784
0.00779319
0.00732759
0.00677797
0.00612633
0.00534668
0.00439952
0.00322298
0.00173484
0.000198644
0.00963713
0.00961957
0.00957325
0.00949659
0.0093873
0.00924264
0.00905918
0.00883271
0.00855803
0.00822868
0.00783651
0.00737115
0.00681902
0.00616175
0.00537333
0.00441497
0.00322697
0.00173193
0.000197357
0.00963625
0.00962201
0.00958027
0.00950926
0.00940658
0.0092692
0.00909336
0.00887444
0.0086067
0.00828304
0.0078946
0.00743018
0.00687535
0.00621105
0.0054111
0.00443766
0.00323413
0.00172943
0.000195869
0.00963186
0.00962111
0.00958441
0.00951991
0.00942505
0.00929657
0.0091304
0.00892147
0.00866351
0.0083487
0.00796724
0.00750679
0.00695157
0.0062811
0.00546823
0.00447562
0.00325029
0.00172964
0.000194266
0.00961563
0.0096085
0.00957731
0.00952017
0.00943447
0.0093168
0.00916284
0.00896722
0.00872317
0.00842222
0.00805361
0.00760357
0.00705435
0.00638293
0.0055594
0.00454481
0.00328851
0.00173835
0.000192809
0.00958031
0.00957669
0.00955118
0.00950199
0.00942659
0.00932155
0.00918249
0.00900391
0.00877884
0.0084984
0.00815109
0.00772179
0.00719034
0.00652989
0.0057051
0.00467083
0.00337319
0.00176848
0.000191989
0.00952155
0.00952101
0.0095008
0.00945954
0.00939503
0.00930401
0.00918222
0.0090243
0.0088235
0.00857105
0.00825527
0.00786021
0.00736355
0.00673384
0.00592736
0.00488614
0.00354156
0.00184516
0.000192994
0.0094398
0.00944158
0.00942562
0.00939149
0.0093378
0.0092616
0.00915888
0.00902477
0.00885316
0.00863605
0.00836244
0.00801655
0.00757489
0.00700162
0.00624228
0.00521813
0.0038303
0.0020025
0.0001984
0.00934131
0.00934464
0.00933128
0.00930268
0.00925926
0.00919836
0.00911619
0.00900856
0.00887046
0.00869529
0.00847366
0.00819129
0.00782516
0.00733627
0.00665744
0.00567821
0.00424667
0.00224554
0.000213126
0.00923733
0.00924167
0.00922915
0.00920417
0.00917055
0.00912558
0.00906544
0.00898675
0.00888591
0.00875821
0.00859665
0.0083899
0.00811781
0.00774143
0.00718163
0.00628263
0.00479249
0.00252655
0.000244675
0.00913928
0.00914423
0.00913245
0.00911072
0.0090876
0.00905969
0.00902312
0.00897547
0.00891469
0.00883815
0.00874178
0.0086185
0.00845433
0.00821793
0.00783198
0.00710265
0.00560801
0.00291362
0.000309617
0.0090524
0.009056
0.00904938
0.00903692
0.00902751
0.00901801
0.00900592
0.00899025
0.00897039
0.00894561
0.00891473
0.00887557
0.00882343
0.00874607
0.00860583
0.00826907
0.00723067
0.0040933
0.000466398
)
;

boundaryField
{
    leftWall
    {
        type            nutkWallFunction;
        Cmu             0.09;
        kappa           0.41;
        E               9.8;
        value           nonuniform List<scalar> 
50
(
2.68864e-06
7.92031e-06
9.36986e-06
1.04542e-05
1.13059e-05
1.19889e-05
1.26119e-05
1.44465e-05
1.5364e-05
1.58509e-05
1.69479e-05
1.81122e-05
1.91037e-05
1.97483e-05
1.97695e-05
1.99629e-05
2.20207e-05
1.87895e-05
2.02009e-05
2.08837e-05
2.14525e-05
2.17909e-05
2.17357e-05
2.13944e-05
2.0902e-05
2.03733e-05
1.98328e-05
1.92444e-05
1.85969e-05
1.78802e-05
1.70834e-05
1.61988e-05
1.52272e-05
1.41985e-05
1.32135e-05
1.22698e-05
1.14125e-05
1.07166e-05
1.02594e-05
1.00985e-05
1.0256e-05
1.07231e-05
1.1478e-05
1.25049e-05
1.37985e-05
1.53704e-05
1.73116e-05
2.0105e-05
2.67619e-05
4.88035e-05
)
;
    }
    rightWall
    {
        type            nutkWallFunction;
        Cmu             0.09;
        kappa           0.41;
        E               9.8;
        value           nonuniform List<scalar> 
50
(
3.71164e-06
1.2805e-05
1.56467e-05
1.82761e-05
2.09088e-05
2.41739e-05
2.54279e-05
2.59906e-05
2.64585e-05
2.57571e-05
2.49459e-05
2.47213e-05
2.44653e-05
2.4199e-05
2.39112e-05
2.35388e-05
2.34424e-05
2.3758e-05
2.51623e-05
2.62308e-05
2.82807e-05
2.94716e-05
2.98169e-05
2.95531e-05
2.90715e-05
2.83101e-05
2.71828e-05
2.57545e-05
2.42027e-05
2.27543e-05
2.15987e-05
2.08171e-05
2.03721e-05
2.01576e-05
2.00673e-05
2.00186e-05
1.99647e-05
1.98772e-05
1.97492e-05
1.95765e-05
1.93681e-05
1.91336e-05
1.89042e-05
1.87333e-05
1.8756e-05
1.92863e-05
2.10302e-05
2.52627e-05
3.45416e-05
5.56262e-05
)
;
    }
    lowerWall
    {
        type            nutkWallFunction;
        Cmu             0.09;
        kappa           0.41;
        E               9.8;
        value           nonuniform List<scalar> 
62
(
2.68864e-06
4.21012e-06
5.05599e-06
5.66249e-06
6.13329e-06
6.51796e-06
6.84524e-06
7.13353e-06
7.39618e-06
7.64843e-06
7.89499e-06
8.11944e-06
8.3167e-06
8.4854e-06
8.62482e-06
8.72783e-06
8.77651e-06
8.74422e-06
8.59234e-06
8.25133e-06
7.58393e-06
6.26919e-06
3.6059e-06
3.6059e-06
1.13761e-05
1.37099e-05
1.56285e-05
1.74621e-05
1.98561e-05
2.66194e-05
3.22278e-05
3.45264e-05
3.30604e-05
3.25313e-05
3.34836e-05
4.13038e-06
1.40104e-05
1.82552e-05
2.04524e-05
2.33194e-05
2.80046e-05
3.17401e-05
3.60648e-05
4.13038e-06
5.6632e-06
6.40562e-06
6.81927e-06
7.22421e-06
7.77127e-06
8.10257e-06
8.35675e-06
8.49094e-06
8.57297e-06
8.5488e-06
8.32485e-06
8.05251e-06
7.69847e-06
7.40909e-06
7.13645e-06
6.8394e-06
6.21336e-06
3.71164e-06
)
;
    }
    atmosphere
    {
        type            calculated;
        value           nonuniform List<scalar> 
46
(
0.009
0.009
0.009
0.00485203
0.00537466
0.00596763
0.00649606
0.00693537
0.00729259
0.00758252
0.00782008
0.00801793
0.00818589
0.00833105
0.0084578
0.00856766
0.00865879
0.00872596
0.00876406
0.00878379
0.0088298
0.00887292
0.00893661
0.00899061
0.009
0.009
0.009
0.009
0.009
0.009
0.009
0.009
0.009
0.009
0.009
0.009
0.009
0.009
0.009
0.009
0.009
0.009
0.009
0.009
0.009
0.009
)
;
    }
    defaultFaces
    {
        type            empty;
    }
}


// ************************************************************************* //
