/*--------------------------------*- C++ -*----------------------------------*\
  =========                 |
  \\      /  F ield         | OpenFOAM: The Open Source CFD Toolbox
   \\    /   O peration     | Website:  https://openfoam.org
    \\  /    A nd           | Version:  13
     \\/     M anipulation  |
\*---------------------------------------------------------------------------*/
FoamFile
{
    format      ascii;
    class       volScalarField;
    location    "1.9";
    object      p;
}
// * * * * * * * * * * * * * * * * * * * * * * * * * * * * * * * * * * * * * //

dimensions      [1 -1 -2 0 0 0 0];

internalField   nonuniform List<scalar> 
2268
(
5986.44
5937.2
5885.64
5832.34
5782.02
5736.93
5697.24
5661.85
5628.91
5596.4
5562.31
5525.63
5485.72
5442.66
5397.13
5349.89
5301.45
5251.81
5200.44
5146.76
5092.4
5046.41
5012.05
5200.09
5153.49
5103.98
5051.5
5000.19
4952.88
4910.14
4871.17
4834.26
4797.36
4758.86
4717.95
4674.23
4627.74
4578.89
4528.38
4477.1
4425.68
4374.24
4323.19
4275.06
4239.22
4208.89
4413.09
4365.93
4317.81
4267.13
4215.96
4167.4
4122.27
4080.04
4039.18
3997.74
3954.27
3908.54
3860.36
3809.82
3757.25
3703.45
3649.72
3597.33
3547.24
3500.65
3459.78
3431.6
3405.42
3624.49
3571.9
3523.61
3475.29
3425.71
3377.58
3331.67
3287.58
3243.97
3199.01
3151.21
3101.07
3048.49
2993.75
2937.46
2880.7
2825.06
2772.4
2724.39
2682.3
2646.73
2621.39
2594.75
2832.97
2771.11
2722.26
2676.82
2630.32
2584.39
2539.39
2494.96
2449.98
2402.78
2351.8
2298.02
2241.56
2183.03
2123.65
2064.92
2008.4
1956.17
1910.35
1871.4
1837.32
1809.99
1780.59
2036.82
1958.63
1907.64
1865.03
1823.47
1782.98
1742.82
1702.28
1660.38
1615.71
1566.33
1513.44
1457.72
1400.8
1345.19
1292.93
1245.14
1203.23
1168.33
1139.61
1113.6
1092.42
1067.75
1278.59
1209.63
1175.17
1147.38
1120.99
1095.43
1069.84
1043.66
1016.37
986.187
956.595
927.252
897.745
869.097
842.812
819.731
799.872
783.161
769.281
757.691
747.444
740.931
732.268
836.21
814.765
805.632
794.971
783.139
770.48
757.336
743.998
730.617
716.863
707.037
699.539
693.542
688.936
685.479
682.948
680.928
678.744
675.905
672.577
669.611
668.793
666.876
2157.59
2197.2
2277.84
2408.36
2512.46
2593.93
2628.76
2639.04
2663.55
2683.46
2682.19
2667.07
2665.57
2679.94
2663.9
2624.81
2558.97
2504.74
2472.43
1582.65
1623.36
1669.46
1756.38
1834.89
1915.17
1994.16
2036.96
2065.66
2086.7
2108.33
2110.01
2105.07
2095.62
2073.79
2043.03
1987.92
1947.42
1933.17
1312.41
1350.94
1362.89
1371.68
1390
1423.17
1445.25
1435.65
1428.82
1446.15
1490.76
1517.01
1523.85
1532.04
1535.65
1524.26
1493.41
1468.52
1497.8
1149.18
1191.48
1233.28
1227.64
1205.58
1189.82
1171.18
1126.96
1074.18
1060.79
1073.25
1127.88
1147.39
1159.75
1183
1188.76
1167.15
1158.29
1191.57
962.648
993.813
1067.29
1097.22
1078.87
1069.01
1069.01
1040.55
980.657
951.673
925.983
945.242
968.729
978.074
983.471
987.402
979.443
984.082
992.845
849.796
849.911
888.355
943.014
947.721
963.538
975.034
961.833
914.069
898.811
882.122
858.763
858.049
861.421
861.924
866.401
877.403
881.612
885.117
783.413
770.338
763.478
805.166
823.383
857.537
872.258
864.639
844.785
840.152
834.486
822.049
808.023
802.22
804.845
808.043
813.54
812.501
827.361
712.104
701.977
689.134
696.291
723.018
766.313
777.221
768.807
777.18
778.85
775.233
767.784
761.122
755.419
751.652
750.561
752.591
752.324
769.223
688.113
686.537
683.594
678.071
671.033
663.041
654.511
645.896
637.848
631.276
625.574
620.232
615.216
610.451
605.882
601.518
597.205
592.616
587.581
582.34
577.854
575.511
574.6
563.199
562.573
560.057
555.334
549.014
541.595
533.47
525.161
517.2
509.915
503.198
496.94
491.132
485.751
480.745
476.255
472.086
467.7
462.896
458.163
454.453
453.027
452.819
438.251
438.145
436.235
432.257
426.699
420.019
412.368
404.376
396.596
389.073
381.858
375.022
368.65
362.581
357.027
352.83
349.469
346.502
344.803
345.652
349.48
358.263
369.973
314.346
314.294
312.83
309.264
304.447
298.717
291.432
283.65
276.545
269.385
262.279
255.689
250.204
245.81
242.737
241.837
243.936
247.827
253.745
262.887
275.187
289.309
304.227
204.689
203.61
202.947
200.608
196.852
191.684
185.065
178.895
173.973
169.277
164.972
161.553
159.825
160.133
162.046
165.248
171.596
180.539
190.784
202.589
215.612
227.937
240.448
122.949
123.803
124.201
122.663
119.691
115.379
110.488
106.48
103.333
100.562
98.281
96.6462
96.7494
98.2217
100.592
103.569
107.755
115.294
125.866
138.416
151.576
164.017
175.885
64.6476
66.1321
65.4004
63.3248
60.5328
57.2017
53.7873
50.0146
46.1636
42.7685
39.8656
37.3479
35.3864
34.2258
34.1258
35.0975
37.0932
40.9357
47.5259
57.4127
70.7706
85.9673
102.796
22.5166
22.5975
21.5631
20.1171
18.2112
16.3981
14.4666
12.5807
10.7738
9.09794
7.68498
6.61699
5.76953
4.8471
4.81339
5.24264
5.66071
6.15083
7.32358
9.54774
13.6412
19.4304
27.7292
4.13316
4.56574
4.76521
4.442
3.6954
3.51362
3.51717
3.55503
3.6196
3.7008
3.7832
3.86541
3.93554
3.98296
4.02654
4.09955
4.1964
4.30243
4.42286
4.54471
4.63828
4.6642
4.81769
3.3711
3.35696
3.34372
3.38729
3.45452
3.46289
3.4726
3.49355
3.52408
3.56164
3.6022
3.64558
3.69502
3.75431
3.80764
3.85541
3.90767
3.95347
3.98377
4.0143
4.04667
4.07355
4.13482
3.26185
3.26406
3.26897
3.2817
3.29527
3.31351
3.33337
3.35617
3.38603
3.4223
3.46199
3.50604
3.55348
3.60855
3.66309
3.71693
3.77341
3.82774
3.87257
3.9123
3.9486
3.97543
3.98258
3.15137
3.14849
3.14865
3.15483
3.16868
3.18524
3.20385
3.226
3.25309
3.28568
3.32242
3.36418
3.41107
3.46251
3.51535
3.57041
3.62796
3.68507
3.73894
3.78905
3.83263
3.86591
3.8912
3.04329
3.03895
3.03712
3.04146
3.05176
3.06581
3.08276
3.10286
3.12604
3.15329
3.18633
3.22459
3.26921
3.31708
3.36682
3.41876
3.47289
3.52786
3.58195
3.63391
3.68193
3.72333
3.76324
2.93552
2.93078
2.92855
2.9313
2.93906
2.95059
2.96538
2.9833
3.0041
3.02789
3.05713
3.09269
3.13303
3.1763
3.22194
3.26993
3.32014
3.37175
3.42367
3.47494
3.52442
3.56857
3.61141
2.8272
2.8223
2.81988
2.82167
2.82761
2.83711
2.84992
2.86592
2.88508
2.90759
2.93441
2.96615
3.00204
3.04114
3.08301
3.1275
3.17443
3.22334
3.27347
3.32397
3.37362
3.41842
3.46249
2.71816
2.71333
2.71073
2.71187
2.71662
2.72466
2.73588
2.75025
2.76779
2.78867
2.81336
2.84212
2.87463
2.91036
2.94906
2.99059
3.03482
3.08154
3.13018
3.17988
3.22932
3.27457
3.32021
2.60863
2.60412
2.60147
2.60217
2.60611
2.61306
2.62301
2.63597
2.652
2.67126
2.69398
2.7203
2.75007
2.78306
2.81911
2.85812
2.90007
2.9449
2.99217
3.04101
3.09012
3.13588
3.18313
2.49906
2.49497
2.49245
2.49287
2.49621
2.50233
2.51122
2.52296
2.53764
2.55538
2.57633
2.60057
2.62807
2.65874
2.69249
2.7293
2.76925
2.81237
2.85831
2.90623
2.95491
3.00102
3.04949
2.38975
2.38613
2.38386
2.38414
2.38704
2.39248
2.4005
2.41118
2.42464
2.44098
2.46034
2.48279
2.50834
2.53698
2.5687
2.60355
2.64167
2.68316
2.72777
2.77468
2.82275
2.86889
2.918
2.28083
2.2777
2.27576
2.27603
2.27862
2.28351
2.29078
2.30054
2.31291
2.32799
2.34592
2.36678
2.39061
2.41745
2.44734
2.4804
2.51679
2.55669
2.59993
2.64569
2.6929
2.73869
2.7878
2.17246
2.16985
2.16828
2.1686
2.17096
2.1754
2.18204
2.19098
2.20236
2.21632
2.23296
2.25239
2.27468
2.29989
2.32811
2.35948
2.39422
2.43253
2.4743
2.51874
2.56486
2.60993
2.65857
2.06475
2.06266
2.06147
2.06188
2.06406
2.06813
2.0742
2.08241
2.09292
2.10585
2.12133
2.13947
2.16035
2.18406
2.21072
2.2405
2.27361
2.3103
2.3505
2.39347
2.43825
2.48228
2.52998
1.95777
1.95618
1.95536
1.95586
1.95791
1.96163
1.9672
1.97476
1.98447
1.99647
2.01089
2.02785
2.04744
2.06977
2.09495
2.12317
2.15468
2.18971
2.22823
2.26956
2.31278
2.35546
2.40188
1.85152
1.85042
1.84994
1.85052
1.85244
1.85586
1.86096
1.86793
1.87692
1.88808
1.90154
1.91741
1.9358
1.95681
1.98059
2.0073
2.0372
2.07053
2.10727
2.1468
2.18827
2.22934
2.27408
1.74603
1.74537
1.74518
1.74582
1.74759
1.75072
1.75541
1.76185
1.77018
1.78058
1.79315
1.80802
1.82528
1.84506
1.86747
1.8927
1.92098
1.95257
1.98744
2.02506
2.06461
2.10387
2.1467
1.64125
1.64099
1.64101
1.64166
1.64329
1.64616
1.65048
1.65643
1.66418
1.67387
1.68564
1.69958
1.71579
1.73437
1.75546
1.77922
1.80589
1.83569
1.86864
1.90427
1.94176
1.97906
2.01973
1.53718
1.53723
1.53739
1.53802
1.53949
1.54211
1.54609
1.55161
1.55884
1.56791
1.57893
1.59201
1.60722
1.62467
1.64447
1.66678
1.69182
1.71983
1.75083
1.78437
1.81969
1.85487
1.89326
1.43376
1.43405
1.4343
1.43488
1.43621
1.4386
1.44227
1.44741
1.45417
1.46267
1.47301
1.48527
1.49953
1.51588
1.53442
1.5553
1.57874
1.60495
1.63396
1.66534
1.69838
1.73132
1.76721
1.33095
1.33143
1.33173
1.33227
1.33347
1.33567
1.33908
1.34389
1.35022
1.3582
1.3679
1.37939
1.39274
1.40803
1.42533
1.4448
1.46663
1.49101
1.51798
1.54712
1.57781
1.60841
1.64176
1.22872
1.22932
1.22966
1.23018
1.23129
1.23335
1.23656
1.24108
1.24705
1.25454
1.26365
1.27441
1.28687
1.3011
1.31718
1.33523
1.35543
1.37795
1.40283
1.42969
1.45795
1.48616
1.51686
1.12706
1.12773
1.12811
1.12862
1.1297
1.13166
1.13471
1.139
1.14464
1.1517
1.16024
1.17029
1.18188
1.19507
1.20991
1.22653
1.24507
1.2657
1.28845
1.31298
1.33877
1.3645
1.39251
1.02594
1.02666
1.0271
1.02764
1.02872
1.03063
1.03357
1.03767
1.04302
1.04967
1.05765
1.06699
1.07772
1.08985
1.10345
1.11862
1.13548
1.1542
1.17478
1.19694
1.2202
1.2434
1.26862
0.925352
0.926118
0.926642
0.927262
0.928376
0.930281
0.933149
0.937084
0.942153
0.948394
0.955828
0.964462
0.974304
0.985373
0.997714
1.01141
1.02657
1.04335
1.06175
1.08151
1.10224
1.12288
1.14533
0.825278
0.826103
0.826743
0.827474
0.828665
0.830593
0.833407
0.837189
0.841986
0.847818
0.85469
0.862597
0.871538
0.88152
0.89258
0.904783
0.918239
0.933065
0.949282
0.966666
0.984867
1.00298
1.02265
0.725668
0.726573
0.727362
0.728235
0.729535
0.731511
0.734285
0.737915
0.742428
0.74783
0.754114
0.761266
0.769277
0.77815
0.787909
0.798614
0.810358
0.823248
0.837301
0.85233
0.868044
0.883663
0.90064
0.626448
0.627462
0.628435
0.629486
0.630925
0.632966
0.6357
0.639162
0.643364
0.6483
0.653957
0.660316
0.667364
0.675101
0.683547
0.692751
0.702796
0.713776
0.72571
0.738441
0.751728
0.764923
0.77925
0.527518
0.528693
0.529908
0.531178
0.532786
0.5349
0.537578
0.540838
0.54468
0.549096
0.554071
0.559588
0.565635
0.57221
0.579332
0.587044
0.595415
0.604528
0.614402
0.62491
0.635866
0.646732
0.658549
0.428754
0.430178
0.431739
0.433308
0.435122
0.437304
0.439885
0.442878
0.446287
0.450109
0.454334
0.458952
0.463954
0.469341
0.475131
0.48136
0.488089
0.495386
0.50327
0.511646
0.520365
0.529025
0.538451
0.329945
0.331816
0.33396
0.33597
0.338035
0.340241
0.342641
0.345267
0.348141
0.351273
0.354666
0.358318
0.362228
0.366401
0.370852
0.375611
0.380726
0.386255
0.392215
0.39853
0.405107
0.41165
0.418815
0.230674
0.233524
0.2368
0.239462
0.241763
0.243879
0.245946
0.248055
0.250261
0.252592
0.255065
0.257687
0.260463
0.2634
0.266511
0.269818
0.273355
0.277163
0.281256
0.285579
0.290104
0.294593
0.299521
0.13282
0.135771
0.140645
0.144186
0.146483
0.148265
0.149771
0.151169
0.152555
0.15397
0.155438
0.156974
0.158585
0.16028
0.162066
0.163955
0.165963
0.168107
0.17038
0.172788
0.175329
0.177782
0.180652
0.0428396
0.0404869
0.0452475
0.047718
0.0491042
0.0500698
0.050714
0.0512174
0.0516833
0.0521484
0.0526314
0.0531421
0.0536857
0.0542649
0.0548813
0.0555341
0.0562215
0.0569368
0.0576656
0.0584944
0.0594023
0.0601681
0.0613981
580.086
581.704
586.49
590.478
450.804
449.337
447.953
450.538
378
382.682
387.511
393.033
314.268
320.157
326.205
331.389
250.2
256.237
261.6
265.979
184.429
189.486
194.352
198.914
122.084
131.458
136.027
138.29
38.8969
53.1903
66.5986
71.1635
5.8319
7.45292
11.0223
15.7232
4.26108
4.42043
4.74075
4.99128
4.02531
4.10555
4.20907
4.28192
3.97821
4.08252
4.18909
4.24934
3.85276
3.95605
4.07044
4.15004
3.69892
3.8003
3.91748
4.00775
3.55155
3.65376
3.77284
3.86654
3.41142
3.51476
3.63484
3.72961
3.27563
3.37924
3.49917
3.59385
3.14229
3.24512
3.36367
3.45737
3.00997
3.11104
3.22727
3.31925
2.87807
2.97652
3.08946
3.17914
2.74638
2.84154
2.9506
3.03736
2.61487
2.70625
2.81072
2.89412
2.48332
2.5705
2.67013
2.74981
2.3517
2.4344
2.5288
2.60464
2.22018
2.29822
2.38738
2.45917
2.089
2.1623
2.24597
2.31361
1.95813
2.02662
2.10489
2.16828
1.82761
1.89127
1.96402
2.02319
1.69759
1.7564
1.82376
1.87864
1.56818
1.6222
1.68404
1.73459
1.43925
1.48847
1.54494
1.59114
1.31077
1.35519
1.40623
1.44817
1.18284
1.2225
1.26825
1.30592
1.05567
1.09063
1.13101
1.16443
0.929197
0.959525
0.994716
1.0239
0.803467
0.829263
0.859264
0.884322
0.678568
0.699959
0.724984
0.745949
0.554528
0.571711
0.591808
0.608759
0.431133
0.444291
0.459734
0.472759
0.308229
0.317578
0.328478
0.337707
0.186252
0.19221
0.198622
0.203766
0.0647428
0.0682737
0.0705206
0.0704898
587.149
604.352
599.056
594.905
611.932
631.425
642.846
658.936
678.097
682.003
679.976
674.541
668.909
664.044
660.738
659.047
657.647
656.591
671.187
461.181
488.664
489.518
489.924
494.698
495.384
505.581
530.948
550.216
555.781
555.046
551.181
546.856
542.724
540.465
539.776
538.901
540.153
551.554
401.053
410.1
407.421
410.19
416.951
419.666
420.812
429.336
440.145
444.922
446.715
447.05
446.802
446.514
446.53
447.77
451.504
457.526
463.337
338.23
343.887
344.762
348.76
354.416
357.077
357.052
357.028
362.288
366.571
370.534
374.28
377.267
380.16
382.519
385.002
389.105
392.712
393.065
272.285
279.014
282.903
287.365
292.403
296.328
298.999
301.114
304.777
308.822
312.648
316.015
319.031
321.9
324.569
327.301
330.215
331.528
329.729
206.363
214.484
220.336
225.435
230.431
235.051
239.075
242.452
246.016
249.727
253.455
256.933
260.193
263.342
266.328
269.137
271.427
271.499
268.674
142.743
151.367
158.671
163.854
168.434
173.435
178.152
182.28
186.34
190.364
194.23
197.868
201.263
204.477
207.438
210.015
211.756
211.23
207.953
74.7073
84.9301
95.7892
102.233
105.94
111.195
116.663
121.174
125.62
129.956
134.105
137.875
141.238
144.278
146.881
148.802
149.897
149.183
145.579
20.1617
25.8072
34.4198
39.1393
41.1378
48.7872
56.3524
61.0938
65.7069
70.1387
73.9373
77.2337
80.026
82.4838
84.3879
85.3117
85.4662
83.3162
78.4647
4.81004
4.69867
5.2605
5.29243
6.1458
11.3865
16.0129
18.3344
20.9109
23.8872
26.183
27.7599
28.8947
29.8482
30.6989
31.1594
30.388
28.7446
25.3881
4.34291
4.37663
4.43123
4.4715
4.51609
4.47833
4.40324
4.34844
4.38741
4.75565
5.804
6.51523
6.90188
7.17332
7.31404
6.97461
6.38617
6.73279
6.09191
4.27377
4.26673
4.2634
4.28348
4.30383
4.31004
4.32447
4.35049
4.38179
4.39594
4.31773
4.25414
4.26163
4.33761
4.39807
4.34851
4.39691
4.47489
4.48655
4.19444
4.17718
4.1727
4.18287
4.2001
4.20461
4.21561
4.23907
4.27195
4.30235
4.31512
4.33182
4.3619
4.39771
4.40621
4.40593
4.38454
4.37533
4.3664
4.07595
4.07166
4.07216
4.08429
4.09428
4.10064
4.10559
4.11467
4.14709
4.15426
4.17049
4.17521
4.17834
4.20773
4.22235
4.2187
4.21754
4.22507
4.22974
3.94244
3.94985
3.95701
3.96997
3.98114
3.98864
3.99242
3.99316
3.99741
4.00691
4.01075
4.02007
4.01784
4.01418
4.02277
4.04287
4.07361
4.08915
4.10019
3.80806
3.8219
3.83367
3.84875
3.86161
3.87087
3.87617
3.87526
3.86862
3.87121
3.87989
3.89399
3.8959
3.88814
3.89677
3.92111
3.94765
3.96374
3.97395
3.67338
3.69142
3.70675
3.72404
3.73886
3.75033
3.75785
3.7608
3.75944
3.76177
3.77283
3.78453
3.78931
3.79009
3.79796
3.81281
3.82834
3.83913
3.84753
3.53714
3.55827
3.57642
3.59587
3.61273
3.62631
3.63654
3.64326
3.64779
3.6536
3.6624
3.67087
3.67605
3.67942
3.6856
3.6946
3.70375
3.71144
3.71889
3.39855
3.42208
3.44253
3.46391
3.48264
3.49815
3.51041
3.51994
3.5274
3.53478
3.54254
3.54944
3.55438
3.55819
3.56288
3.56853
3.5744
3.58052
3.58712
3.25747
3.28285
3.30516
3.32815
3.34846
3.36557
3.37944
3.3906
3.3998
3.40789
3.41531
3.42156
3.42626
3.42991
3.43349
3.43729
3.44139
3.44646
3.45197
3.11402
3.14083
3.16459
3.18883
3.21041
3.2288
3.24392
3.25627
3.26649
3.27515
3.28251
3.2885
3.29303
3.29645
3.29932
3.30203
3.30507
3.30927
3.31365
2.96867
2.99642
3.02124
3.0464
3.06891
3.08826
3.10436
3.11763
3.12863
3.13773
3.1452
3.15111
3.15554
3.15878
3.16124
3.16332
3.1657
3.16914
3.1725
2.82177
2.85011
2.87562
2.90135
2.92448
2.94452
2.96135
2.97534
2.98694
2.99647
3.00414
3.01011
3.01455
3.01771
3.01994
3.02167
3.02358
3.02632
3.02892
2.67386
2.70239
2.72824
2.75422
2.77768
2.79813
2.81549
2.83003
2.84212
2.85202
2.85995
2.86609
2.87062
2.87381
2.87595
2.87748
2.87904
2.8812
2.88325
2.52527
2.55369
2.57954
2.60548
2.62901
2.64966
2.66733
2.68226
2.69474
2.70498
2.71318
2.71954
2.72423
2.72751
2.72967
2.73111
2.73241
2.7341
2.73583
2.37646
2.40439
2.42995
2.45557
2.47892
2.49956
2.51736
2.53254
2.54529
2.5558
2.56426
2.57085
2.57574
2.57917
2.58141
2.58282
2.58395
2.58534
2.58687
2.22759
2.25478
2.27977
2.30483
2.32778
2.34821
2.36599
2.38125
2.39416
2.40488
2.41356
2.42037
2.42547
2.42907
2.43143
2.43288
2.43393
2.43514
2.43661
2.07895
2.10511
2.12929
2.15356
2.17592
2.19596
2.21354
2.22875
2.24171
2.25254
2.26139
2.26838
2.27368
2.27747
2.27997
2.2815
2.28255
2.28371
2.28517
1.9306
1.95554
1.9787
2.00199
2.02358
2.04306
2.06029
2.07531
2.08819
2.09906
2.10801
2.11515
2.12062
2.12458
2.12724
2.1289
2.13001
2.13119
2.13271
1.78273
1.80621
1.82816
1.85032
1.87097
1.88974
1.90647
1.92116
1.93387
1.94468
1.95366
1.96091
1.96653
1.97065
1.97348
1.97527
1.97651
1.97778
1.97936
1.6353
1.65723
1.67784
1.69871
1.71828
1.7362
1.75229
1.76652
1.77895
1.78961
1.79857
1.80587
1.81161
1.81589
1.81889
1.82086
1.82224
1.82362
1.82527
1.48846
1.50872
1.52786
1.54733
1.56569
1.58261
1.59793
1.6116
1.62364
1.63407
1.64293
1.65026
1.65609
1.66052
1.6637
1.66584
1.66739
1.66888
1.67055
1.34225
1.3608
1.37838
1.39633
1.41335
1.42916
1.44358
1.45656
1.46812
1.47824
1.48695
1.49425
1.50016
1.50474
1.5081
1.51044
1.51213
1.5137
1.51537
1.19687
1.21361
1.22955
1.24587
1.26145
1.27602
1.28942
1.3016
1.31256
1.32229
1.33078
1.33802
1.34399
1.34873
1.35228
1.3548
1.35664
1.35825
1.35982
1.05237
1.06728
1.08152
1.09613
1.11016
1.12336
1.13561
1.14687
1.15713
1.16636
1.17455
1.18168
1.1877
1.19259
1.19636
1.19909
1.20103
1.20259
1.20401
0.908958
0.921977
0.934434
0.94725
0.959617
0.971346
0.982327
0.99253
1.00195
1.01056
1.01836
1.02529
1.03132
1.03636
1.04037
1.04332
1.04537
1.04682
1.04796
0.766678
0.777787
0.788406
0.799349
0.809965
0.820108
0.829693
0.838702
0.847136
0.854992
0.862252
0.868883
0.874823
0.879981
0.884227
0.887439
0.889581
0.89084
0.891644
0.625652
0.634767
0.643489
0.652493
0.661279
0.669736
0.677803
0.685476
0.692766
0.699684
0.706229
0.712382
0.71809
0.723253
0.727697
0.731162
0.733444
0.734527
0.734947
0.485769
0.492866
0.499634
0.506636
0.51352
0.520201
0.526633
0.532822
0.538791
0.544566
0.550166
0.555594
0.560829
0.56579
0.570291
0.574015
0.576509
0.577498
0.577745
0.34698
0.351978
0.356711
0.361627
0.366524
0.371334
0.376005
0.380546
0.384991
0.389378
0.393741
0.398112
0.40251
0.406916
0.411229
0.415147
0.418112
0.419463
0.420017
0.209164
0.21208
0.214737
0.217523
0.220399
0.22328
0.226101
0.228864
0.231606
0.234368
0.237192
0.240122
0.243212
0.24652
0.250098
0.253929
0.257617
0.259606
0.261997
0.0708089
0.0713848
0.072094
0.072876
0.073742
0.0746431
0.0755289
0.0764025
0.0772818
0.0781885
0.0791464
0.0801823
0.0813309
0.0826434
0.0841985
0.0860939
0.0882546
0.0878215
0.0944631
)
;

boundaryField
{
    leftWall
    {
        type            calculated;
        value           nonuniform List<scalar> 
50
(
5986.44
5200.09
4413.09
3624.49
2832.97
2036.82
1278.59
836.21
688.113
563.199
438.251
314.346
204.689
122.949
64.6476
22.5166
4.13316
3.3711
3.26185
3.15137
3.04329
2.93552
2.8272
2.71816
2.60863
2.49906
2.38975
2.28083
2.17246
2.06475
1.95777
1.85152
1.74603
1.64125
1.53718
1.43376
1.33095
1.22872
1.12706
1.02594
0.925352
0.825278
0.725668
0.626448
0.527518
0.428754
0.329945
0.230674
0.13282
0.0428396
)
;
    }
    rightWall
    {
        type            calculated;
        value           nonuniform List<scalar> 
50
(
2472.43
1933.17
1497.8
1191.57
992.845
885.117
827.361
769.223
671.187
551.554
463.337
393.065
329.729
268.674
207.953
145.579
78.4647
25.3881
6.09191
4.48655
4.3664
4.22974
4.10019
3.97395
3.84753
3.71889
3.58712
3.45197
3.31365
3.1725
3.02892
2.88325
2.73583
2.58687
2.43661
2.28517
2.13271
1.97936
1.82527
1.67055
1.51537
1.35982
1.20401
1.04796
0.891644
0.734947
0.577745
0.420017
0.261997
0.0944631
)
;
    }
    lowerWall
    {
        type            calculated;
        value           nonuniform List<scalar> 
62
(
6384.59
6335.35
6283.79
6230.49
6180.17
6135.08
6095.39
6060
6027.06
5994.55
5960.46
5923.78
5883.87
5840.81
5795.28
5748.04
5699.6
5649.96
5598.59
5544.85
5490.36
5444.34
5409.99
5012.05
4208.89
3405.42
2594.75
1780.59
1067.75
732.268
666.876
652.771
659.051
691.254
695.505
2157.59
1582.65
1312.41
1149.18
962.648
849.796
783.413
712.104
2505.82
2545.12
2629.13
2760.12
2863.95
2940.96
2913.72
2884.02
2908.96
2929.11
2923.99
2905.65
2918.1
2975.29
2967.89
2927.62
2854.99
2789.76
2759.42
)
;
    }
    atmosphere
    {
        type            calculated;
        value           nonuniform List<scalar> 
46
(
-7.6584e-05
-3.09883e-07
0
0
0
0
0
0
0
0
0
0
0
0
0
0
0
0
0
0
0
0
0
0
-7.6814e-07
-2.24201e-06
-3.84583e-06
-7.05601e-06
-2.29144e-05
-4.17303e-05
-6.79212e-05
-0.000112564
-0.00017572
-0.00025166
-0.000333681
-0.00041483
-0.000487816
-0.000545772
-0.000583722
-0.000600903
-0.000603658
-0.000606445
-0.000625375
-0.000671124
-0.000849363
-0.000780438
)
;
    }
    defaultFaces
    {
        type            empty;
    }
}


// ************************************************************************* //
