/*--------------------------------*- C++ -*----------------------------------*\
  =========                 |
  \\      /  F ield         | OpenFOAM: The Open Source CFD Toolbox
   \\    /   O peration     | Website:  https://openfoam.org
    \\  /    A nd           | Version:  13
     \\/     M anipulation  |
\*---------------------------------------------------------------------------*/
FoamFile
{
    format      ascii;
    class       volScalarField;
    location    "1.9";
    object      p_rgh;
}
// * * * * * * * * * * * * * * * * * * * * * * * * * * * * * * * * * * * * * //

dimensions      [1 -1 -2 0 0 0 0];

internalField   nonuniform List<scalar> 
2268
(
6384.59
6335.35
6283.79
6230.49
6180.17
6135.08
6095.39
6060
6027.06
5994.55
5960.46
5923.78
5883.87
5840.81
5795.28
5748.04
5699.6
5649.96
5598.59
5544.85
5490.36
5444.34
5409.99
6394.54
6347.94
6298.43
6245.95
6194.64
6147.33
6104.59
6065.62
6028.71
5991.81
5953.31
5912.4
5868.68
5822.19
5773.34
5722.83
5671.55
5620.13
5568.69
5517.64
5469.51
5433.58
5403.17
6403.84
6356.68
6308.56
6257.88
6206.71
6158.15
6113.02
6070.79
6029.93
5988.49
5945.02
5899.29
5851.11
5800.57
5747.99
5694.2
5640.47
5588.08
5537.99
5491.4
5450.53
5422.35
5396.17
6411.54
6358.95
6310.66
6262.34
6212.76
6164.63
6118.71
6074.63
6031.02
5986.06
5938.26
5888.12
5835.54
5780.8
5724.51
5667.75
5612.11
5559.45
5511.44
5469.35
5433.78
5408.43
5381.8
6416.32
6354.46
6305.61
6260.17
6213.67
6167.74
6122.74
6078.31
6033.33
5986.12
5935.15
5881.37
5824.9
5766.38
5707
5648.27
5591.75
5539.52
5493.7
5454.74
5420.67
5393.34
5363.94
6416.46
6338.28
6287.29
6244.68
6203.12
6162.63
6122.47
6081.92
6040.03
5995.36
5945.57
5888.73
5820.13
5735.32
5630.97
5505.34
5356.77
5191.33
5026.15
4862.86
4692.39
4505.39
4348.16
5847.34
5323.84
5019.17
4839.77
4708.09
4611.76
4529.7
4448.53
4360.35
4261.33
4062.87
3804.12
3494.4
3151.36
2807.34
2483.44
2188.62
1936.5
1734.38
1573.1
1432.18
1303.21
1191.95
1977.75
1594.98
1462.22
1401.93
1362.49
1335.85
1313.69
1287.13
1243.08
1162.24
1148.48
1140.98
1134.98
1130.38
1126.92
1124.39
1122.37
1120.18
1117.31
1113.91
1110.84
1109.9
1107.59
2505.82
2545.12
2629.13
2760.12
2863.95
2940.96
2913.72
2884.02
2908.96
2929.11
2923.99
2905.65
2918.1
2975.29
2967.89
2927.62
2854.99
2789.76
2759.42
2221.49
2253.42
2404.37
2655.27
2809.68
2894.02
3000.69
3041.98
3068.2
3087.15
3041.93
3012.55
3009.59
3002.24
2984.39
2950.53
2859.03
2794.05
2668.38
1608.71
1652.52
1651.87
1829.15
2012.72
2278.98
2542.12
2742.46
2915.37
2952.49
3003.97
2925.42
2910.12
2898.99
2754.04
2653.93
2485.99
2410.38
2377.68
1817.49
1862.21
1691.75
1589.79
1639.98
1697.06
1655.23
1519.23
1508.69
1652.98
1954.96
1919.94
1876.92
1916.79
1961.22
1946.8
1947.76
1840.06
2006.4
1633.87
1823.49
1913.54
1766.07
1653.82
1565.64
1444.51
1323.65
1261.94
1164.61
1118.62
1643.52
1693.17
1675.56
1803.32
1822.29
1533
1480.74
1639.28
1175.73
1306.61
1839.29
1856.53
1679.45
1543.02
1595.23
1463.1
1265.97
1214.49
1077.94
981.91
1223.2
1332.45
1224.79
1195.23
1211.74
1303
1190.04
1173.88
1129.11
1337.46
1659.42
1563.47
1536.45
1550.9
1632.27
1274.71
1223.46
1199.67
1131.48
1035.08
1029.75
1119.15
1173.56
1192.72
1192.12
1124.12
1247.09
1117.94
1097.58
1550.25
1316.85
1325.14
1535.59
1579.47
1240.04
1221.28
1217.38
1209.72
1191.97
1179.69
1186.96
1192.01
1192.28
1190.88
1186.04
1221.58
1220
1217.06
1211.54
1204.5
1196.51
1187.98
1179.36
1171.31
1164.74
1159.04
1153.7
1148.68
1143.92
1139.35
1134.98
1130.67
1126.08
1121.03
1115.79
1111.3
1108.96
1106.93
1221.86
1221.23
1218.72
1214
1207.68
1200.26
1192.13
1183.82
1175.86
1168.58
1161.86
1155.6
1149.79
1144.41
1139.41
1134.92
1130.75
1126.36
1121.28
1109.83
1094.46
1075.74
1040.88
1222.11
1222
1220.09
1216.11
1210.56
1203.88
1196.22
1188.23
1180.45
1172.93
1165.71
1158.88
1152.51
1146.11
1136.48
1125.86
1113.48
1089.86
1045.69
986.072
918.192
847.825
774.146
1218.56
1217
1213.81
1215.19
1212.07
1207.72
1200.48
1192.54
1179.49
1164.07
1146.99
1124.4
1089.88
1036.12
968.894
925.04
867.166
793.095
731.602
694.068
658.403
692.557
751.553
1034.95
1055.18
1046.94
1023.33
1011.8
1021.11
991.712
941.028
913.138
860.308
799.035
735.636
687.668
643.993
609.053
601.155
646.937
675.373
671.487
678.496
718.973
742.608
757.569
763.7
709.993
712.144
710.958
708.868
693.417
635.228
623.412
643.737
646.24
643.952
637.561
651.943
665.921
668.654
671.622
675.829
686.377
701.556
718.01
731.294
743.736
755.604
624.52
677.81
696.128
693.698
690.302
684.861
676.559
665.033
649.171
629.919
604.714
564.941
523.615
487.592
452.146
417.175
395.732
405.584
450.561
526.987
623.476
707.585
745.113
435.223
426.617
397.615
385.089
370.871
333.337
286.462
236.403
182.684
131.231
89.0397
57.9948
35.2449
13.0851
10.4578
14.062
15.4478
16.9325
27.966
53.556
106.22
186.923
302.661
21.6334
37.102
44.8138
35.3281
8.8914
5.05113
5.05256
5.0902
5.15474
5.23592
5.31846
5.40127
5.47192
5.5196
5.56256
5.63523
5.73222
5.8384
5.95897
6.08089
6.17453
6.20046
6.35419
5.03198
5.01784
5.00532
5.07094
5.93111
5.41703
5.13287
5.15387
5.18454
5.22195
5.30101
5.37609
5.39058
5.41653
5.46833
5.51565
5.56792
5.61376
5.64406
5.67454
5.70691
5.73378
5.79512
5.04805
5.0582
5.05592
5.24156
5.09425
5.1008
5.11896
5.14177
5.17498
5.28494
5.40509
5.45018
5.41925
5.39741
5.44935
5.50455
5.56056
5.61403
5.65844
5.69794
5.73414
5.76088
5.76804
5.06324
5.07094
5.06212
5.06626
5.08096
5.09608
5.11459
5.13677
5.20235
5.36111
5.40163
5.4446
5.36254
5.37901
5.43079
5.48612
5.54326
5.5972
5.65033
5.70016
5.74359
5.77674
5.80191
5.08
5.07578
5.07332
5.07742
5.08783
5.10175
5.11874
5.13895
5.17612
5.32409
5.39748
5.33028
5.31131
5.35919
5.40889
5.46056
5.51193
5.56469
5.61836
5.67017
5.71815
5.75944
5.79922
5.09736
5.09259
5.08992
5.09247
5.10021
5.11174
5.12665
5.14481
5.16568
5.18973
5.23065
5.25547
5.29693
5.34317
5.38654
5.43287
5.48176
5.53317
5.58504
5.63621
5.68572
5.72985
5.77257
5.11377
5.10896
5.1063
5.108
5.11393
5.12346
5.1364
5.15264
5.17168
5.19381
5.22065
5.2526
5.28922
5.32871
5.36971
5.41393
5.46076
5.50965
5.55979
5.6103
5.65999
5.70478
5.74879
5.12967
5.12489
5.12225
5.12337
5.1281
5.13612
5.14731
5.16166
5.1792
5.20009
5.22493
5.25431
5.28742
5.3229
5.36052
5.40201
5.44626
5.49299
5.54163
5.59132
5.64078
5.68603
5.73166
5.14532
5.14083
5.13818
5.13885
5.14276
5.14969
5.15962
5.17257
5.18861
5.2079
5.23083
5.25778
5.28805
5.32013
5.35571
5.39473
5.4367
5.48152
5.52879
5.57762
5.62674
5.67249
5.71974
5.16095
5.15687
5.15435
5.15475
5.15805
5.16414
5.17303
5.18477
5.19945
5.21721
5.23825
5.26259
5.29008
5.32058
5.35429
5.39112
5.43106
5.47417
5.52011
5.56803
5.61671
5.66282
5.71129
5.17683
5.17322
5.17095
5.17121
5.17408
5.17949
5.1875
5.19818
5.21163
5.22798
5.24734
5.26978
5.29533
5.32397
5.3557
5.39055
5.42866
5.47015
5.51476
5.56167
5.60973
5.65588
5.70498
5.19309
5.18998
5.18804
5.18829
5.19085
5.19572
5.20298
5.21273
5.22509
5.24017
5.2581
5.27895
5.30279
5.32963
5.35953
5.39258
5.42897
5.46887
5.51211
5.55786
5.60508
5.65087
5.69998
5.2099
5.2073
5.20573
5.20604
5.20838
5.2128
5.21942
5.22835
5.23974
5.25369
5.27033
5.28976
5.31205
5.33726
5.36548
5.39685
5.43159
5.4699
5.51166
5.55611
5.60223
5.64729
5.69593
5.22738
5.22529
5.2241
5.2245
5.22667
5.23072
5.23677
5.24498
5.25548
5.26841
5.28389
5.30203
5.32291
5.34662
5.37328
5.40305
5.43617
5.47286
5.51305
5.55603
5.60081
5.64483
5.69254
5.24557
5.24398
5.24316
5.24366
5.2457
5.24941
5.25497
5.26252
5.27222
5.28422
5.29865
5.3156
5.33519
5.35752
5.3827
5.41092
5.44243
5.47746
5.51598
5.55731
5.60053
5.64321
5.68963
5.26452
5.2634
5.26292
5.2635
5.2654
5.26882
5.27392
5.28088
5.28987
5.30102
5.31448
5.33035
5.34874
5.36976
5.39353
5.42024
5.45014
5.48347
5.52021
5.55975
5.60121
5.64229
5.68702
5.2842
5.28354
5.28334
5.28397
5.28574
5.28887
5.29356
5.29999
5.30832
5.31871
5.33129
5.34616
5.36342
5.38319
5.4056
5.43083
5.45912
5.4907
5.52557
5.5632
5.60274
5.64201
5.68483
5.30462
5.30434
5.30436
5.305
5.30663
5.3095
5.31381
5.31976
5.32751
5.3372
5.34897
5.36291
5.37912
5.3977
5.41879
5.44256
5.46922
5.49902
5.53198
5.5676
5.60509
5.64239
5.68307
5.32573
5.32577
5.32593
5.32655
5.32802
5.33064
5.33461
5.34013
5.34736
5.35643
5.36746
5.38053
5.39575
5.41319
5.43299
5.45531
5.48035
5.50835
5.53935
5.5729
5.60821
5.6434
5.68178
5.34749
5.34778
5.34803
5.34861
5.34993
5.35232
5.35599
5.36113
5.36789
5.37639
5.38673
5.39899
5.41325
5.4296
5.44814
5.46902
5.49246
5.51867
5.54768
5.57906
5.6121
5.64504
5.68093
5.36987
5.37035
5.37065
5.37119
5.37239
5.37459
5.378
5.3828
5.38914
5.39711
5.40681
5.41831
5.43166
5.44694
5.46425
5.48372
5.50554
5.52993
5.55689
5.58604
5.61672
5.64733
5.68067
5.39284
5.39343
5.39377
5.39428
5.3954
5.39746
5.40067
5.40519
5.41115
5.41865
5.42775
5.43851
5.45098
5.46521
5.48129
5.49934
5.51954
5.54206
5.56694
5.5938
5.62206
5.65027
5.68097
5.41636
5.41703
5.41742
5.41793
5.419
5.42096
5.42401
5.42831
5.43395
5.44101
5.44954
5.45959
5.47118
5.48437
5.49922
5.51583
5.53437
5.55501
5.57775
5.60228
5.62807
5.6538
5.68181
5.44044
5.44116
5.44159
5.44214
5.44321
5.44513
5.44807
5.45217
5.45752
5.46416
5.47215
5.48149
5.49221
5.50435
5.51795
5.53311
5.54998
5.56869
5.58928
5.61144
5.6347
5.6579
5.68312
5.46504
5.46581
5.46633
5.46695
5.46807
5.46997
5.47284
5.47678
5.48184
5.48809
5.49552
5.50415
5.514
5.52507
5.53741
5.5511
5.56626
5.58304
5.60144
5.6212
5.64194
5.66258
5.68502
5.49016
5.49099
5.49163
5.49236
5.49355
5.49548
5.49829
5.50208
5.50687
5.5127
5.51958
5.52748
5.53642
5.54641
5.55747
5.56967
5.58313
5.59795
5.61417
5.63155
5.64975
5.66787
5.68754
5.51575
5.51665
5.51744
5.51832
5.51962
5.52159
5.52437
5.528
5.53251
5.53791
5.5442
5.55135
5.55936
5.56823
5.57799
5.5887
5.60044
5.61333
5.62738
5.64241
5.65813
5.67374
5.69072
5.54172
5.54274
5.54371
5.54476
5.5462
5.54824
5.55098
5.55444
5.55864
5.56358
5.56923
5.57559
5.58264
5.59038
5.59882
5.60803
5.61807
5.62905
5.64099
5.65372
5.667
5.6802
5.69453
5.56799
5.56916
5.57038
5.57165
5.57326
5.57537
5.57805
5.58131
5.58515
5.58957
5.59454
5.60006
5.60611
5.61268
5.6198
5.62751
5.63588
5.645
5.65487
5.66538
5.67634
5.6872
5.69902
5.59442
5.59584
5.5974
5.59897
5.60079
5.60297
5.60555
5.60854
5.61195
5.61577
5.62
5.62462
5.62962
5.63501
5.6408
5.64703
5.65375
5.66105
5.66894
5.67731
5.68603
5.69469
5.70412
5.6208
5.62267
5.62482
5.62683
5.62889
5.6311
5.6335
5.63613
5.639
5.64213
5.64552
5.64918
5.65309
5.65726
5.66171
5.66647
5.67159
5.67711
5.68307
5.68939
5.69597
5.70251
5.70967
5.64673
5.64958
5.65285
5.65552
5.65782
5.65993
5.662
5.66411
5.66631
5.66865
5.67112
5.67374
5.67652
5.67945
5.68256
5.68587
5.68941
5.69322
5.69731
5.70163
5.70616
5.71065
5.71557
5.67407
5.67702
5.68189
5.68543
5.68773
5.68951
5.69102
5.69242
5.6938
5.69522
5.69669
5.69822
5.69983
5.70153
5.70331
5.7052
5.70721
5.70936
5.71163
5.71404
5.71658
5.71903
5.7219
5.70928
5.70693
5.71169
5.71416
5.71555
5.71651
5.71716
5.71766
5.71813
5.71859
5.71907
5.71958
5.72013
5.72071
5.72132
5.72198
5.72266
5.72338
5.72411
5.72494
5.72585
5.72661
5.72784
1199.52
1240.87
1479.31
1485.54
1007.78
948.809
856.725
782.187
767.498
771.116
765.848
735.749
768.746
768.12
765.204
772.299
767.225
771.99
777.185
783.103
764.146
769.206
774.073
778.635
764.401
773.776
778.344
780.608
425.076
603.232
771.512
776.077
9.96467
30.2445
85.7314
166.642
5.92201
6.08108
6.40265
6.65346
5.81077
5.89101
5.99453
6.06738
5.88892
5.99323
6.09977
6.16002
5.88869
5.99197
6.10634
6.18594
5.86004
5.96143
6.07857
6.16883
5.83785
5.94003
6.05911
6.1528
5.82287
5.9262
6.04627
6.14104
5.81225
5.91584
6.03578
6.13046
5.80408
5.90691
6.02546
6.11916
5.79696
5.89802
6.01425
6.10623
5.79024
5.88869
6.00164
6.09131
5.78375
5.8789
5.98796
6.07473
5.77743
5.86881
5.97327
6.05668
5.77107
5.85825
5.95788
6.03756
5.76464
5.84735
5.94175
6.01758
5.75831
5.83635
5.92551
5.9973
5.75233
5.82563
5.9093
5.97694
5.74665
5.81514
5.89341
5.95681
5.74133
5.80499
5.87774
5.93691
5.7365
5.79531
5.86268
5.91755
5.73229
5.78631
5.84815
5.8987
5.72856
5.77777
5.83424
5.88044
5.72526
5.76969
5.82073
5.86267
5.72254
5.76219
5.80794
5.84561
5.72055
5.75551
5.7959
5.82932
5.71928
5.74961
5.7848
5.81398
5.71874
5.74454
5.77454
5.7996
5.71904
5.74043
5.76545
5.78642
5.72019
5.73738
5.75747
5.77442
5.72199
5.73515
5.75059
5.76362
5.72428
5.73363
5.74453
5.75376
5.7275
5.73346
5.73987
5.74501
5.73119
5.73472
5.73696
5.73693
1327.48
982.942
1071.68
1101.88
1107.34
1444.51
1522.82
1368.1
1211.41
1215.97
1214.28
1208.8
1202.87
1197.74
1194.28
1192.67
1191.28
1188.26
1184.05
735.367
816.669
997.25
1016.44
964.234
950.382
1035.9
1184.36
1199.55
1212.34
1210.4
1207.65
1203.4
1193.95
1196.07
1199.1
1143.54
1021.43
1037.48
735.702
787.169
816.985
809.921
808.08
812.906
815.62
1030.98
1084.49
1128.02
1114.77
1059.24
1016.26
959.415
924.838
923.7
886.045
860.333
925.833
788.465
796.469
793.112
800.479
808.918
811.578
781.554
782.91
817.26
822.015
824.769
828.79
831.799
834.756
837.53
841.742
846.557
856.235
889.613
789.408
796.136
800.04
804.528
809.629
813.482
808.809
798.938
811.268
826.454
829.784
833.11
836.143
839.014
841.711
844.933
848.096
850.576
859.475
786.083
794.204
800.057
805.162
810.134
814.747
818.796
822.172
825.738
829.449
833.206
836.627
839.9
843.062
846.048
848.857
851.103
851.601
851.458
785.06
793.684
800.988
806.174
810.756
815.758
820.469
824.602
828.665
832.694
836.559
840.188
843.58
846.794
849.755
852.332
853.872
847.149
841.408
779.622
789.845
800.705
807.149
810.857
816.112
821.581
826.095
830.541
834.873
839.02
842.79
846.155
849.196
851.798
853.718
854.242
845.623
840.806
259.577
386.613
602.652
750.384
754.704
754.664
805.2
825.838
833.219
837.65
841.449
844.746
847.542
850.003
851.912
853.33
864.497
884.962
882.654
6.47201
7.22884
18.4706
18.8181
31.4137
179.646
339.921
422.733
518.848
639.382
707.121
756.294
782.202
789.026
790.532
773.618
737.922
600.482
513.282
6.12864
6.16234
6.21758
6.25734
6.30191
6.26413
6.18894
6.13387
6.17289
24.2852
74.9682
118.898
142.881
149.033
146.586
124.222
80.33
76.1489
50.6956
6.18445
6.17741
6.17408
6.19421
6.21462
6.22091
6.23543
6.26149
6.29257
6.32263
6.31065
6.51393
7.37621
9.06682
10.2439
6.36809
6.30235
6.3865
6.40032
6.23032
6.21307
6.2086
6.21886
6.2362
6.24065
6.2518
6.28677
6.41193
6.43396
6.35936
6.43498
7.05595
7.0522
6.98908
6.71953
6.47683
6.422
6.40829
6.23702
6.23274
6.23325
6.2455
6.25562
6.26193
6.26672
6.35306
7.30344
7.36708
6.68551
6.34042
6.82428
8.21567
8.27731
7.42178
6.48505
6.39798
6.39674
6.2287
6.2361
6.24329
6.25639
6.26769
6.27512
6.27875
6.5446
7.43195
7.44185
7.00028
6.3086
6.40589
7.56853
7.58058
6.87023
6.42248
6.38243
6.3877
6.21949
6.23333
6.24514
6.26033
6.27333
6.28255
6.28772
6.28684
6.58835
6.97374
6.47518
6.30648
6.3122
6.30021
6.30979
6.33308
6.35914
6.37547
6.38591
6.20999
6.22804
6.2434
6.26074
6.27559
6.2872
6.29672
6.29943
6.2964
6.29866
6.30984
6.32344
6.32844
6.32729
6.33464
6.34947
6.36502
6.37586
6.38488
6.19893
6.22006
6.23824
6.25771
6.27459
6.28818
6.30037
6.30721
6.31005
6.31561
6.32487
6.33668
6.3418
6.34275
6.34756
6.35647
6.36568
6.37376
6.38178
6.18553
6.20906
6.22952
6.25092
6.26967
6.28521
6.29762
6.30714
6.3146
6.32197
6.3298
6.33773
6.34311
6.34609
6.35001
6.3556
6.36158
6.36819
6.37521
6.16964
6.19502
6.21733
6.24033
6.26066
6.2778
6.29168
6.30288
6.3121
6.32023
6.32769
6.33377
6.33846
6.3421
6.3457
6.34954
6.35375
6.359
6.36507
6.15138
6.17819
6.20195
6.2262
6.24779
6.26618
6.28132
6.29369
6.30393
6.3126
6.31996
6.32591
6.33042
6.33384
6.33673
6.33948
6.34255
6.34672
6.35111
6.13123
6.15898
6.1838
6.20896
6.23147
6.25083
6.26693
6.28021
6.29121
6.30032
6.30778
6.31369
6.31812
6.32136
6.32383
6.32592
6.3283
6.33172
6.33508
6.10952
6.13786
6.16337
6.1891
6.21223
6.23227
6.24911
6.26309
6.2747
6.28422
6.29189
6.29787
6.30231
6.30547
6.3077
6.30945
6.31136
6.31409
6.31669
6.0868
6.11533
6.14118
6.16716
6.19062
6.21108
6.22843
6.24297
6.25507
6.26497
6.2729
6.27904
6.28357
6.28676
6.28891
6.29044
6.292
6.29417
6.29622
6.06341
6.09183
6.11768
6.14361
6.16715
6.1878
6.20547
6.2204
6.23288
6.24312
6.25132
6.25767
6.26237
6.26566
6.26782
6.26927
6.27057
6.27227
6.274
6.03979
6.06772
6.09328
6.1189
6.14225
6.16289
6.18069
6.19587
6.20862
6.21913
6.2276
6.23418
6.23908
6.24251
6.24475
6.24617
6.24732
6.24874
6.25025
6.01611
6.04331
6.0683
6.09336
6.11631
6.13674
6.15451
6.16978
6.18269
6.19341
6.20209
6.2089
6.214
6.21761
6.21997
6.22143
6.22251
6.22376
6.22521
5.99267
6.01883
6.04301
6.06728
6.08964
6.10968
6.12726
6.14247
6.15543
6.16626
6.17511
6.18211
6.18741
6.19119
6.1937
6.19524
6.19634
6.19762
6.19899
5.96951
5.99445
6.01761
6.04091
6.06249
6.08197
6.0992
6.11422
6.12711
6.13797
6.14692
6.15407
6.15954
6.1635
6.16617
6.16784
6.16902
6.17031
6.17175
5.94683
5.97032
5.99227
6.01443
6.03508
6.05385
6.07058
6.08527
6.09798
6.10879
6.11777
6.12502
6.13064
6.13477
6.1376
6.13942
6.14074
6.14211
6.14359
5.9246
5.94654
5.96714
5.98801
6.00758
6.0255
6.04159
6.05583
6.06825
6.07892
6.08787
6.09518
6.10092
6.1052
6.1082
6.11021
6.1117
6.11315
6.11469
5.90296
5.92322
5.94236
5.96182
5.98018
5.99711
6.01242
6.02609
6.03813
6.04857
6.05743
6.06476
6.07059
6.07503
6.07821
6.08039
6.08206
6.08361
6.08515
5.88194
5.90049
5.91807
5.93602
5.95305
5.96885
5.98327
5.99625
6.00781
6.01794
6.02664
6.03394
6.03986
6.04444
6.0478
6.05018
6.052
6.05362
6.05514
5.86176
5.87849
5.89444
5.91076
5.92634
5.94091
5.9543
5.96649
5.97745
5.98718
5.99567
6.00291
6.00888
6.01362
6.01719
6.01974
6.02165
6.02328
6.02475
5.84245
5.85737
5.8716
5.88621
5.90024
5.91344
5.92569
5.93695
5.94721
5.95644
5.96464
5.97176
5.97778
5.98268
5.98646
5.98922
5.99118
5.99272
5.99412
5.82423
5.83725
5.84971
5.86253
5.87489
5.88662
5.8976
5.90781
5.91722
5.92584
5.93364
5.94057
5.9466
5.95165
5.95567
5.95863
5.96068
5.96212
5.96324
5.80715
5.81826
5.82888
5.83982
5.85044
5.86058
5.87016
5.87917
5.88761
5.89546
5.90272
5.90936
5.9153
5.92046
5.92471
5.92793
5.93007
5.93132
5.93212
5.79132
5.80043
5.80915
5.81816
5.82694
5.8354
5.84347
5.85114
5.85843
5.86535
5.8719
5.87805
5.88376
5.88893
5.89337
5.89684
5.89912
5.9002
5.90061
5.77663
5.78372
5.79049
5.7975
5.80438
5.81106
5.81749
5.82368
5.82965
5.83543
5.84103
5.84646
5.85169
5.85665
5.86116
5.86488
5.86737
5.86836
5.86861
5.76303
5.76803
5.77276
5.77768
5.78258
5.78739
5.79206
5.7966
5.80105
5.80543
5.80979
5.81417
5.81857
5.82297
5.82729
5.83121
5.83417
5.83552
5.83607
5.75041
5.75333
5.75599
5.75877
5.76165
5.76453
5.76735
5.77011
5.77285
5.77562
5.77844
5.78137
5.78446
5.78777
5.79135
5.79518
5.79887
5.80085
5.80325
5.73725
5.73783
5.73854
5.73932
5.74018
5.74109
5.74197
5.74285
5.74372
5.74463
5.74559
5.74663
5.74777
5.74909
5.75064
5.75254
5.7547
5.75426
5.76091
)
;

boundaryField
{
    leftWall
    {
        type            fixedFluxPressure;
        gradient        uniform 0;
        value           nonuniform List<scalar> 
50
(
6384.59
6394.54
6403.84
6411.54
6416.32
6416.46
5847.34
1977.75
1221.58
1221.86
1222.11
1218.56
1034.95
763.7
624.52
435.223
21.6334
5.03198
5.04805
5.06324
5.08
5.09736
5.11377
5.12967
5.14532
5.16095
5.17683
5.19309
5.2099
5.22738
5.24557
5.26452
5.2842
5.30462
5.32573
5.34749
5.36987
5.39284
5.41636
5.44044
5.46504
5.49016
5.51575
5.54172
5.56799
5.59442
5.6208
5.64673
5.67407
5.70928
)
;
    }
    rightWall
    {
        type            fixedFluxPressure;
        gradient        uniform 0;
        value           nonuniform List<scalar> 
50
(
2759.42
2668.38
2377.68
2006.4
1639.28
1190.04
1124.12
1186.04
1184.05
1037.48
925.833
889.613
859.475
851.458
841.408
840.806
882.654
513.282
50.6956
6.40032
6.40829
6.39674
6.3877
6.38591
6.38488
6.38178
6.37521
6.36507
6.35111
6.33508
6.31669
6.29622
6.274
6.25025
6.22521
6.19899
6.17175
6.14359
6.11469
6.08515
6.05514
6.02475
5.99412
5.96324
5.93212
5.90061
5.86861
5.83607
5.80325
5.76091
)
;
    }
    lowerWall
    {
        type            fixedFluxPressure;
        gradient        uniform 0;
        value           nonuniform List<scalar> 
62
(
6384.59
6335.35
6283.79
6230.49
6180.17
6135.08
6095.39
6060
6027.06
5994.55
5960.46
5923.78
5883.87
5840.81
5795.28
5748.04
5699.6
5649.96
5598.59
5544.85
5490.36
5444.34
5409.99
5409.99
5403.17
5396.17
5381.8
5363.94
4348.16
1191.95
1107.59
1199.52
1240.87
1479.31
1485.54
2505.82
2221.49
1608.71
1817.49
1633.87
1175.73
1173.88
1247.09
2505.82
2545.12
2629.13
2760.12
2863.95
2940.96
2913.72
2884.02
2908.96
2929.11
2923.99
2905.65
2918.1
2975.29
2967.89
2927.62
2854.99
2789.76
2759.42
)
;
    }
    atmosphere
    {
        type            prghTotalPressure;
        rho             rho;
        psi             none;
        gamma           1;
        p0              uniform 0;
        value           nonuniform List<scalar> 
46
(
5.72896
5.72904
5.72904
5.72904
5.72904
5.72904
5.72904
5.72904
5.72904
5.72904
5.72904
5.72904
5.72904
5.72904
5.72904
5.72904
5.72904
5.72904
5.72904
5.72904
5.72904
5.72904
5.72904
5.72904
5.72904
5.72904
5.72904
5.72903
5.72902
5.729
5.72897
5.72893
5.72886
5.72879
5.72871
5.72863
5.72855
5.72849
5.72846
5.72844
5.72844
5.72843
5.72841
5.72837
5.72819
5.72826
)
;
        rho             rho;
    }
    defaultFaces
    {
        type            empty;
    }
}


// ************************************************************************* //
