/*--------------------------------*- C++ -*----------------------------------*\
  =========                 |
  \\      /  F ield         | OpenFOAM: The Open Source CFD Toolbox
   \\    /   O peration     | Website:  https://openfoam.org
    \\  /    A nd           | Version:  13
     \\/     M anipulation  |
\*---------------------------------------------------------------------------*/
FoamFile
{
    format      ascii;
    class       volScalarField;
    location    "1.9";
    object      rho;
}
// * * * * * * * * * * * * * * * * * * * * * * * * * * * * * * * * * * * * * //

dimensions      [1 -3 0 0 0 0 0];

internalField   nonuniform List<scalar> 
2268
(
13529
13529
13529
13529
13529
13529
13529
13529
13529
13529
13529
13529
13529
13529
13529
13529
13529
13529
13529
13526.9
13522.5
13521.6
13521.6
13529
13529
13529
13529
13529
13529
13529
13529
13529
13529
13529
13529
13529
13529
13529
13529
13529
13529
13529
13529
13529
13527.9
13527.1
13529
13529
13529
13529
13529
13529
13529
13529
13529
13529
13529
13529
13529
13529
13529
13529
13529
13529
13529
13529
13529
13529
13529
13529
13529
13529
13529
13529
13529
13529
13529
13529
13529
13529
13529
13529
13529
13529
13529
13529
13529
13529
13529
13529
13529
13529
13529
13529
13529
13529
13529
13529
13529
13529
13529
13529
13529
13529
13529
13529
13529
13529
13529
13529
13529
13529
13529
13529
13529
13529
13529
13529
13529
13529
13529
13529
13529
13529
13529
13527.7
13515.6
13475.7
13389.6
13239.1
13012.4
12701.1
12319.5
11917
11501.3
11055.1
10542.9
10133.4
11941.9
10753.8
10047.5
9651.25
9376.04
9191.06
9043.44
8899.72
8740.57
8560.65
8119.24
7519.62
6787.2
5965.42
5134.93
4348.64
3629.95
3014.63
2522.61
2131.34
1789.77
1469.69
1201.52
2585.95
1767.43
1487.37
1374.95
1312.42
1280.74
1260.32
1230.35
1160.88
1008.92
1000
1000
1000
1000
1000
1000
999.997
999.979
999.908
999.767
999.526
999.252
998.349
11832.5
11822.2
11936.7
11952.7
11943.7
11792.1
9683.03
8324.38
8338.84
8347.3
8216.31
8107.18
8580.76
10035.7
10329.5
10289.4
10058.9
9684.9
9751.73
7235.88
7136.39
8324.05
10181.3
11041
11086.9
11400.5
11383.5
11355.3
11331.7
10574.4
10222.7
10245.1
10268.9
10314
10278.8
9866.75
9589.44
8327.5
2013.63
2049.5
1963.87
3108.97
4231.92
5816.04
7454.29
8881.02
10102.5
10237
10283.7
9571.43
9421
9289.67
8280.07
7677.18
6745.48
6400.8
5979.6
3244.12
3255.85
2225.52
1757.97
2108.7
2462.3
2349.72
1904.17
2109.24
2874.65
4280
3844.84
3541.32
3674.86
3777.68
3679.68
3789.28
3309.45
3955.42
2534.22
3132.47
3195.07
2525.29
2170.72
1875.02
1417.71
1068.85
1061.98
803.946
727.299
2636.37
2735.13
2633.36
3095.37
3152.15
2089.95
1875.15
2440.65
1006.83
1410.77
2937.51
2821.91
2260.36
1790.05
1915.83
1548.46
1087.03
975.165
604.899
380.409
1127.98
1455.05
1120.9
1015.78
1032.78
1301.7
941.928
1020.61
937.768
1500.29
2232.87
1934.46
1774.55
1773.84
2006.45
1123.73
1001.89
954.519
808.791
593.497
594.718
821.525
955.398
991.117
992.249
775.678
1211.91
942.296
925.257
1934.48
1345.22
1265.92
1717.95
1836.4
1048.53
1002.25
1001.61
1001.12
976.014
961.095
986.114
1000.02
996.038
993.457
944.217
1000
1000
1000
1000
1000
1000
1000
1000
1000
1000
1000
1000
1000
1000
1000
1000
999.999
999.995
999.973
999.969
999.967
999.965
997.876
1000
1000
1000
1000
1000
1000
1000
1000
1000
1000
1000
1000
1000
1000
1000
1000
1000
1000
999.573
989.384
971.673
945.42
892.808
1000
1000
1000
1000
1000
1000
1000
1000
1000
1000
1000
1000
1000
999.583
994.385
986.187
974.689
948.339
894.15
817.012
725.531
624.555
515.622
994.676
993.019
991.12
996.562
998.428
999.95
1000
999.828
993.286
984.198
973.226
955.626
923.689
869.382
798.808
751.557
685.583
599.821
525.666
474.319
421.557
443.592
492.08
802.77
823.375
816.043
795.476
787.965
801.966
779.937
736.898
714.69
668.15
613.069
555.075
510.366
467.839
432.206
421.474
459.601
478.449
464.787
460.149
486.695
497.63
499.998
552.639
505.58
507.092
507.396
508.157
498.549
452.581
445.847
466.091
470.64
470.633
466.531
478.847
489.632
489.946
489.937
489.956
492.551
496.525
499.891
499.999
499.999
499.999
435.822
476.149
490.979
490.702
490.233
488.59
484.785
478.75
469.4
457.056
439.696
410.695
380.053
352.914
325.4
297.422
279.176
283.853
313.735
365.531
430.243
483.887
499.999
292.735
286.574
266.736
258.877
250.144
224.806
192.928
158.759
121.937
86.6297
57.7054
36.4426
20.9071
5.84328
4.00365
6.25563
6.94204
7.64753
14.6418
31.2153
65.667
118.803
195.011
11.4007
21.196
26.0899
20.1209
3.38496
1.00162
1.00024
1.00009
1.00008
1.00007
1.00016
1.00055
1.00088
1.00105
1.00065
1.00042
1.00052
1.00062
1.00071
1.00075
1.0008
1.00081
1.00096
1.0004
1.0004
1.00083
1.01411
1.49173
1.17704
1.00003
1.00007
1.00015
1.00005
1.02325
1.04234
1.02129
1.00121
1.00028
1.00001
1.00002
1.00004
1.00004
1.00001
1.00002
1
1.00005
1.00044
1.00489
1.00086
1.09771
1.0076
1.00105
1.0001
1.0001
1.00198
1.04325
1.08832
1.08891
1.04501
1.00193
1.00047
1.00124
1.00097
1.00049
1.00026
1.00013
1.00007
1.00002
1.00003
1.00066
1.0062
1.0015
1.00043
1.00088
1.00012
1.00007
1.00009
1.02023
1.08627
1.08825
1.08888
1.02138
1.00309
1.00253
1.00268
1.00246
1.0008
1.00041
1.00027
1.00018
1.00012
1.00005
1.00045
1.0005
1.00019
1.00008
1.00013
1.00007
1.00009
1.00014
1.00702
1.06631
1.08613
1.03433
1.00309
1.0031
1.00308
1.00295
1.00159
1.00051
1.0003
1.00023
1.0002
1.00015
1.00009
1.00039
1.00038
1.00017
1.00008
1.00007
1.00007
1.00013
1.00024
1.00027
1.00039
1.00579
1.00083
1.00135
1.00271
1.00167
1.0009
1.00029
1.0002
1.00017
1.00013
1.00014
1.00013
1.00008
1.00016
1.00021
1.0001
1.00006
1.00006
1.00007
1.00013
1.00023
1.00018
1.00001
1.00002
1.00011
1.00044
1.0006
1.00022
1.0001
1.00006
1.00006
1.00006
1.00006
1.00008
1.00007
1.00005
1.00005
1.00007
1.00006
1.00005
1.00004
1.00003
1.00002
1.00001
1.00001
1.00002
1.00007
1.00033
1.00058
1.00048
1.00003
1.00002
1.00002
1.00003
1.00003
1.00003
1.00003
1.00003
1.00003
1.00004
1.00005
1.00005
1.00004
1.00003
1.00002
1.00001
1.00001
1.00001
1.00002
1.00011
1.00035
1.00055
1.00019
1.00001
1.00001
1.00002
1.00002
1.00001
1.00001
1.00002
1.00002
1.00001
1.00004
1.00005
1.00005
1.00004
1.00003
1.00002
1.00001
1.00001
1.00001
1.00002
1.00006
1.00009
1.00009
1.00003
1.00001
1.00001
1.00001
1.00001
1.00001
1.00001
1.00001
1.00001
1.00001
1.00004
1.00005
1.00005
1.00004
1.00002
1.00001
1.00001
1.00001
1.00001
1.00001
1.00001
1.00001
1.00001
1.00001
1.00001
1.00001
1.00001
1.00001
1.00001
1.00001
1.00001
1.00001
1.00001
1.00003
1.00004
1.00004
1.00003
1.00002
1.00001
1.00001
1.00001
1.00001
1
1
1
1
1.00001
1.00001
1.00001
1.00001
1
1
1
1
1
1
1.00003
1.00003
1.00003
1.00003
1.00002
1.00001
1.00001
1.00001
1
1
1
1
1
1
1
1
1
1
1
1
1
1
1
1.00002
1.00002
1.00002
1.00002
1.00002
1.00001
1.00001
1
1
1
1
1
1
1
1
1
1
1
1
1
1
1
1
1.00002
1.00002
1.00002
1.00001
1.00001
1.00001
1.00001
1
1
1
1
1
1
1
1
1
1
1
1
1
1
1
1
1.00001
1.00001
1.00001
1.00001
1.00001
1.00001
1
1
1
1
1
1
1
1
1
1
1
1
1
1
1
1
1
1.00001
1.00001
1.00001
1.00001
1
1
1
1
1
1
1
1
1
1
1
1
1
1
1
1
1
1
1
1.00001
1.00001
1
1
1
1
1
1
1
1
1
1
1
1
1
1
1
1
1
1
1
1
1
1.00001
1
1
1
1
1
1
1
1
1
1
1
1
1
1
1
1
1
1
1
1
1
1
1
1
1
1
1
1
1
1
1
1
1
1
1
1
1
1
1
1
1
1
1
1
1
1
1
1
1
1
1
1
1
1
1
1
1
1
1
1
1
1
1
1
1
1
1
1
1
1
1
1
1
1
1
1
1
1
1
1
1
1
1
1
1
1
1
1
1
1
1
1
1
1
1
1
1
1
1
1
1
1
1
1
1
1
1
1
1
1
1
1
1
1
1
1
1
1
1
1
1
1
1
1
1
1
1
1
1
1
1
1
1
1
1
1
1
1
1
1
1
1
1
1
1
1
1
1
1
1
1
1
1
1
1
1
1
1
1
1
1
1
1
1
1
1
1
1
1
1
1
1
1
1
1
1
1
1
1
1
1
1
1
1
1
1
1
1
1
1
1
1
1
1
1
1
1
1
1
1
1
1
1
1
1
1
1
1
1
1
1
1
1
1
1
1
1
1
1
1
1
1
1
1
1
1
1
1
1
1
1
1
1
1
1
1
1
1
1
1
1
1
1
1
1
1
1
1
1
1
1
1
1
1
1
1
1
1
1
1
1
1
1
1
1
1
1
1
1
1
1
1
1
1
1
1
1
1
1
1
1
1
1
1
1
1
1
1
1
1
1
1
1
1
1
1
1
1
1
1
1
1
1
1
1
1
1
1
1
1
1
1
1
1
1
1
1
1
1
1
1
1
1
1
1
1
1
1
1
1
1
1
1
1
1
1
1
1
1
1
1
1
1
1
1
1
1
1
1
1
1
1
1
1
1
1
1
1
1
1
1
1
1
1
1
1
1
1161.15
1235.63
1673.63
1677.82
845.624
758.313
620.609
503.519
496.9
495.542
482.66
437.219
499.948
492.781
482.92
485.023
499.905
498.676
498.513
500.001
499.998
500
500.001
500.001
500
500
500
500
273.919
390.148
499.999
499.999
2.69232
14.8477
48.6697
98.3171
1.00043
1.00026
1.00101
1.00118
1.00003
1.00003
1.00002
1.00003
1.00005
1.00005
1.00004
1.00004
1.00006
1.00005
1.00005
1.00005
1.00006
1.00006
1.00004
1.00004
1.00005
1.00003
1.00003
1.00003
1.00002
1.00002
1.00002
1.00002
1.00001
1.00001
1.00001
1.00001
1.00001
1.00001
1.00001
1.00001
1
1
1
1
1
1
1
1
1
1
1
1
1
1
1
1
1
1
1
1
1
1
1
1
1
1
1
1
1
1
1
1
1
1
1
1
1
1
1
1
1
1
1
1
1
1
1
1
1
1
1
1
1
1
1
1
1
1
1
1
1
1
1
1
1
1
1
1
1
1
1
1
1
1
1
1
1
1
1
1
1
1
1
1
1
1
1
1
1
1
1
1
1
1
1
1
1387.76
709.679
885.948
950.341
928.648
1524.14
1649.53
1329.35
999.709
1000.93
1001.58
1001.49
1000.92
1000.44
1000.14
1000.29
1000.31
996.622
961.377
416.278
497.988
770.854
799.372
712.865
690.792
805.152
992.035
985.838
996.805
994.971
996.678
996.783
988.716
995.36
1001.01
917.979
730.685
737.746
426.926
481.044
522.499
509.955
498.981
501.674
503.674
767.544
822.023
871.459
852.263
780.995
726.477
654.33
610.199
607.164
554.364
513.879
590.027
495.281
497.862
493.207
496.912
499.974
499.973
466.972
468.491
500.491
501.011
499.68
499.984
500.007
500.077
500.534
502.437
503.22
509.899
546.227
500.001
500
500.014
500.039
500.099
500.03
492.93
481.341
489.72
500.493
500.013
499.973
499.991
499.991
500.019
500.492
500.733
501.862
512.205
500
500
500.001
500.006
499.985
499.979
500.001
500
500.002
500.002
500.027
499.978
499.989
500.001
500
500
499.963
500.33
502.643
500
500
500
500.002
500.004
500.005
500
500.003
500.007
500.01
500.009
500.002
500
500
500
500
499.844
495.019
493.101
500
500
500.001
500.001
500.002
500.002
500.003
500.004
500.005
500.002
500
500
500.002
500.003
500.002
500.001
499.596
493.989
493.129
155.968
235.049
370.178
463.345
464.857
459.848
487.841
498.197
500
500
500
500
500.003
500.005
500.008
500.33
507.504
522.237
523.894
1.00106
1.524
7.95683
8.14691
15.2196
101.348
195.1
243.582
299.922
370.731
410.15
438.818
453.74
457.276
457.671
447.206
426.169
344.375
293.873
1.00018
1.00016
1.00052
1.00024
1.00023
1.00022
1.00016
1.00001
1.00003
10.9384
38.7385
62.9451
76.1613
79.4547
78.0055
65.6695
41.4156
38.8796
24.9823
1.00004
1.00004
1.00004
1.00006
1.0001
1.00014
1.00018
1.00021
1.00009
1.00842
1.04309
1.18276
1.63015
2.47524
3.05966
1.05704
0.997295
1.00053
1.00165
1.00004
1.00004
1.00005
1.00009
1.00015
1.00012
1.00019
1.00584
1.05117
1.04706
1.00415
1.03309
1.32334
1.30391
1.26872
1.13646
1.02775
1.00533
1.00299
1.00004
1.00004
1.00005
1.0001
1.00016
1.00014
1.00006
1.03581
1.4606
1.48673
1.16382
1.00195
1.22441
1.85468
1.87643
1.48222
1.04929
1.00551
1.00278
1.00003
1.00003
1.00004
1.0001
1.00016
1.00013
1.00006
1.11602
1.5023
1.50247
1.30765
1.00102
1.04455
1.55471
1.55621
1.23672
1.02742
1.0031
1.00058
1.00002
1.00002
1.00003
1.00008
1.00014
1.00012
1.00007
1.00008
1.12787
1.28662
1.07627
1.00046
1.00204
1.00028
1.00068
1.00024
1.00004
1.00014
1.00024
1.00001
1.00001
1.00003
1.00005
1.00006
1.00011
1.0009
1.00081
1.00015
1.00012
1.00017
1.00092
1.00101
1.00024
1.00004
1.00003
1.00004
1.00006
1.0003
1.00001
1.00001
1.00002
1.00003
1.00003
1.00004
1.00077
1.00082
1.00018
1.00009
1.00026
1.00152
1.00149
1.00059
1.00007
1.00003
1.00006
1.00021
1.00042
1
1
1.00001
1.00001
1.00002
1.00003
1.00009
1.00008
1.00008
1.00008
1.0001
1.00048
1.00063
1.00033
1.00006
1.00003
1.00007
1.00025
1.0004
1
1
1
1.00001
1.00001
1.00002
1.00003
1.00004
1.00005
1.00006
1.00008
1.00002
1.00001
1.00001
1.00002
1.00003
1.00007
1.00013
1.00032
1
1
1
1
1.00001
1.00001
1.00001
1.00002
1.00003
1.00003
1.00003
1.00002
1.00001
1.00001
1.00002
1.00003
1.00004
1.00003
1.00003
1
1
1
1
1
1
1.00001
1.00001
1.00001
1.00001
1.00001
1.00001
1.00001
1.00001
1.00001
1.00002
1.00002
1.00001
1.00001
1
1
1
1
1
1
1
1
1
1
1
1
1
1
1.00001
1.00001
1.00001
1.00001
1.00001
1
1
1
1
1
1
1
1
1
1
1
1
1
1
1
1.00001
1.00001
1.00001
1.00001
1
1
1
1
1
1
1
1
1
1
1
1
1
1
1
1.00001
1.00001
1.00001
1.00001
1
1
1
1
1
1
1
1
1
1
1
1
1
1
1
1.00001
1.00001
1.00002
1.00001
1
1
1
1
1
1
1
1
1
1
1
1
1
1
1
1.00001
1.00002
1.00003
1.00002
1
1
1
1
1
1
1
1
1
1
1
1
1
1
1
1.00001
1.00002
1.00005
1.00003
1
1
1
1
1
1
1
1
1
1
1
1
1
1
1
1.00001
1.00002
1.00005
1.00003
1
1
1
1
1
1
1
1
1
1
1
1
1
1
1
1.00001
1.00003
1.00005
1.00003
1
1
1
1
1
1
1
1
1
1
1
1
1
1
1
1.00001
1.00004
1.00005
1.00003
1
1
1
1
1
1
1
1
1
1
1
1
1
1
1
1.00001
1.00004
1.00005
1.00002
1
1
1
1
1
1
1
1
1
1
1
1
1
1
1
1.00001
1.00004
1.00005
1.00002
1
1
1
1
1
1
1
1
1
1
1
1
1
1
1
1.00001
1.00003
1.00003
1.00001
1
1
1
1
1
1
1
1
1
1
1
1
1
1
1
1.00001
1.00001
1.00001
1.00001
1
1
1
1
1
1
1
1
1
1
1
1
1
1
1
1.00001
1.00001
1.00001
1
1
1
1
1
1
1
1
1
1
1
1
1
1
1
1
1
1
1
1
1
1
1
1
1
1
1
1
1
1
1
1
1
1
1
1
1
1
1
1
1
1
1
1
1
1
1
1
1
1
1
1
1
1
1
1
1
1
1
1
1
1
1
1
1
1
1
1
1
1
1
1
1
1
1
1
1
1
1
1
1
1
1
1
1
1
1
1
1
1
1
1
1
1
1
1
1
1
1
1
1
1
1
1
1
1
1
1
1
1
1
1
1
1
1
)
;

boundaryField
{
    leftWall
    {
        type            calculated;
        value           nonuniform List<scalar> 
50
(
13529
13529
13529
13529
13529
13529
11941.9
2585.95
1000
1000
1000
994.676
802.77
552.639
435.822
292.735
11.4007
1.0004
1.00044
1.00066
1.00045
1.00039
1.00016
1.00005
1.00004
1.00004
1.00004
1.00003
1.00003
1.00002
1.00002
1.00001
1.00001
1.00001
1.00001
1
1
1
1
1
1
1
1
1
1
1
1
1
1
1
)
;
    }
    rightWall
    {
        type            calculated;
        value           nonuniform List<scalar> 
50
(
9751.73
8327.5
5979.6
3955.42
2440.65
941.928
775.678
944.217
961.377
737.746
590.027
546.227
512.205
502.643
493.101
493.129
523.894
293.873
24.9823
1.00165
1.00299
1.00278
1.00058
1.00024
1.0003
1.00042
1.0004
1.00032
1.00003
1.00001
1.00001
1.00001
1.00001
1.00001
1.00002
1.00003
1.00003
1.00003
1.00003
1.00002
1.00002
1.00001
1.00001
1
1
1
1
1
1
1
)
;
    }
    lowerWall
    {
        type            calculated;
        value           nonuniform List<scalar> 
62
(
13529
13529
13529
13529
13529
13529
13529
13529
13529
13529
13529
13529
13529
13529
13529
13529
13529
13529
13529
13526.9
13522.5
13521.6
13521.6
13521.6
13527.1
13529
13529
13529
10133.4
1201.52
998.349
1161.15
1235.63
1673.63
1677.82
11832.5
7235.88
2013.63
3244.12
2534.22
1006.83
1020.61
1211.91
11832.5
11822.2
11936.7
11952.7
11943.7
11792.1
9683.03
8324.38
8338.84
8347.3
8216.31
8107.18
8580.76
10035.7
10329.5
10289.4
10058.9
9684.9
9751.73
)
;
    }
    atmosphere
    {
        type            calculated;
        value           nonuniform List<scalar> 
46
(
1
1
1
1
1
1
1
1
1
1
1
1
1
1
1
1
1
1
1
1
1
1
1
1
1
1
1
1
1
1
1
1
1
1
1
1
1
1
1
1
1
1
1
1
1
1
)
;
    }
    defaultFaces
    {
        type            empty;
    }
}


// ************************************************************************* //
