/*--------------------------------*- C++ -*----------------------------------*\
  =========                 |
  \\      /  F ield         | OpenFOAM: The Open Source CFD Toolbox
   \\    /   O peration     | Website:  https://openfoam.org
    \\  /    A nd           | Version:  13
     \\/     M anipulation  |
\*---------------------------------------------------------------------------*/
FoamFile
{
    format      ascii;
    class       volScalarField;
    location    "200";
    object      p;
}
// * * * * * * * * * * * * * * * * * * * * * * * * * * * * * * * * * * * * * //

dimensions      [0 2 -2 0 0 0 0];

internalField   nonuniform List<scalar> 
10720
(
-87.0631
-160.9
-248.055
-333.335
-411.665
-491.541
-561.949
-620.738
-671.753
-711.394
-741.629
-763.763
-778.562
-787.229
-790.23
-787.116
-778.798
-763.938
-743.675
-716.636
-683.849
-644.512
-600.852
-553.773
-506.771
-464.92
-427.21
-390.063
-353.201
-316.848
-280.823
-244.988
-209.238
-173.346
-137.06
-99.2775
-59.6431
-12.1918
35.3741
-12.3865
55.4456
128.56
197.257
256.364
301.889
330.175
340.927
340.054
328.877
308.961
285.799
262.288
239.45
217.971
197.713
178.764
160.711
143.303
126.043
108.887
91.5138
74.0184
56.7995
41.7551
29.9547
20.3447
12.5367
6.53388
2.39275
0.0162416
-0.701816
0.158684
2.60088
6.6358
12.681
21.2889
36.1893
61.2599
25.3452
-30.8492
-93.6246
-160.125
-228.281
-297.915
-365.364
-428.526
-486.772
-538.323
-582.854
-620.346
-650.864
-674.483
-691.123
-700.492
-703.19
-698.792
-687.845
-669.736
-645.02
-613.426
-576.631
-535.779
-493.949
-455.448
-419.82
-384.277
-348.652
-313.261
-278.015
-242.811
-207.571
-172.086
-136.115
-98.5739
-59.1238
-11.7718
35.1018
75.9966
124.447
172.978
220.113
261.977
295.961
319.079
330.124
330.432
321.269
305.25
285.734
264.826
243.638
222.931
202.965
183.9
165.584
147.841
130.349
113.018
95.6385
78.2947
61.395
46.4168
34.2766
24.2517
16.0156
9.59065
5.03158
2.26798
1.20188
1.75095
3.91728
7.72159
13.5851
22.0514
36.8595
60.9411
41.6533
-8.64972
-65.0837
-127.212
-191.464
-257.164
-322.717
-385.429
-443.726
-496.618
-542.868
-582.168
-614.336
-639.305
-657.263
-668.409
-672.977
-670.782
-662.013
-646.438
-624.355
-595.818
-562.083
-524.428
-485.402
-448.534
-413.937
-379.455
-344.772
-310.167
-275.579
-240.914
-206.107
-170.966
-135.263
-97.9341
-58.6572
-11.4965
34.866
87.137
131.526
175.843
218.072
254.842
284.542
305.137
315.968
317.736
311.291
298.545
281.779
262.831
242.973
223.08
203.612
184.798
166.632
148.993
131.652
114.485
97.3536
80.3219
63.7634
48.8494
36.4757
26.2335
17.8102
11.2073
6.4703
3.53848
2.31398
2.71648
4.74964
8.44281
14.2185
22.6175
37.3029
60.3994
66.2764
23.954
-24.2411
-77.1618
-132.616
-190.529
-249.235
-306.907
-362.213
-414.015
-461.175
-503.021
-539.069
-569.024
-592.662
-609.981
-620.747
-624.682
-621.732
-611.777
-594.988
-571.574
-542.548
-509.237
-473.843
-439.38
-406.435
-373.424
-339.97
-306.36
-272.596
-238.608
-204.348
-169.647
-134.287
-97.2372
-58.1977
-11.3532
34.4666
104.241
140.841
177.654
213.363
244.858
270.898
289.659
300.403
303.414
299.225
289.304
275.354
258.861
240.989
222.585
204.164
186.027
168.287
150.91
133.764
116.761
99.8248
83.0301
66.7272
51.8785
39.328
28.8728
20.2256
13.3813
8.39041
5.20446
3.73716
3.91768
5.7551
9.28618
14.9323
23.2216
37.7093
59.825
74.3001
36.6885
-6.35435
-53.9305
-103.925
-156.741
-210.98
-264.995
-317.762
-368.123
-414.928
-457.384
-494.819
-526.703
-552.646
-572.416
-585.646
-592.221
-592.006
-584.986
-571.271
-551.14
-525.425
-495.381
-462.904
-430.506
-398.998
-367.267
-334.931
-302.262
-269.311
-236.017
-202.343
-168.127
-133.166
-96.4539
-57.7198
-11.2983
33.8334
108.129
140.568
173.282
205.014
233.022
256.47
273.887
284.549
288.519
286.21
278.726
267.346
253.225
237.359
220.542
203.305
186.009
168.852
151.887
135.068
118.35
101.707
85.224
69.2298
54.5234
41.8767
31.2498
22.4132
15.364
10.1564
6.75503
5.08398
5.07827
6.74858
10.1369
15.6626
23.8367
38.0961
59.2171
79.4076
46.0679
7.70548
-34.685
-79.2569
-126.718
-175.768
-225.095
-273.947
-321.266
-366.066
-407.582
-445.071
-477.895
-505.557
-527.653
-543.809
-553.778
-557.284
-554.18
-544.465
-528.373
-506.578
-480.227
-450.971
-420.933
-391.084
-360.753
-329.619
-297.946
-265.836
-233.258
-200.189
-166.483
-131.949
-95.6164
-57.2459
-11.3593
32.9728
109.393
138.03
167.104
195.502
220.696
242.073
258.413
268.951
273.623
272.809
267.339
258.202
246.293
232.433
217.325
201.468
185.236
168.875
152.506
136.155
119.826
103.539
87.3984
71.7174
57.176
44.4765
33.7038
24.6966
17.4537
12.0324
8.41137
6.52557
6.31783
7.80388
11.0325
16.4206
24.4589
38.4449
58.5559
80.4837
50.4069
15.7016
-22.6767
-62.953
-106.073
-150.873
-196.208
-241.569
-286.01
-328.678
-368.877
-405.846
-438.903
-467.475
-491.046
-509.136
-521.352
-527.36
-526.972
-520.174
-507.186
-488.577
-465.363
-438.968
-411.158
-382.949
-354.014
-324.098
-293.445
-262.199
-230.357
-197.912
-164.737
-130.657
-94.7383
-56.7874
-11.5458
31.8951
107.564
133.341
159.644
185.437
208.406
228.113
243.551
253.916
259.089
259.445
255.619
248.39
238.463
226.498
213.088
198.677
183.619
168.186
152.542
136.771
120.926
105.067
89.3187
73.9828
59.6501
46.9608
36.0892
26.9428
19.5287
13.9087
10.0774
7.983
7.57673
8.87981
11.9472
17.1905
25.078
38.7474
57.8472
79.72
52.4121
20.8311
-14.065
-50.5922
-89.828
-130.701
-172.213
-214.032
-255.349
-295.423
-333.673
-369.393
-401.913
-430.626
-454.965
-474.373
-488.425
-496.741
-499.037
-495.202
-485.372
-469.991
-449.926
-426.399
-400.894
-374.429
-346.955
-318.31
-288.726
-258.385
-227.313
-195.52
-162.9
-129.298
-93.8259
-56.3452
-11.8497
30.6136
104.344
127.728
151.718
175.352
196.479
214.796
229.438
239.589
245.11
246.363
243.857
238.227
230.032
219.801
208.021
195.065
181.253
166.854
152.052
136.971
121.703
106.344
91.0393
76.0798
61.9951
49.3702
38.442
29.1846
21.6196
15.8149
11.7813
9.48137
8.87558
9.99139
12.8901
17.9765
25.6943
39.0028
57.0964
77.6064
52.6036
23.6511
-8.31569
-41.6734
-77.566
-115.023
-153.142
-191.736
-230.099
-267.608
-303.79
-338.003
-369.621
-398.048
-422.688
-442.951
-458.347
-468.439
-472.866
-471.453
-464.286
-451.718
-434.48
-413.608
-390.332
-365.618
-339.622
-312.273
-283.793
-254.39
-224.121
-193.013
-160.978
-127.881
-92.8861
-55.9167
-12.256
29.1526
100.185
121.592
143.657
165.482
185.048
202.191
216.12
226.022
231.774
233.71
232.26
227.952
221.247
212.564
202.302
190.759
178.213
164.907
151.028
136.722
122.113
107.323
92.5119
77.9673
64.1722
51.6665
40.7285
31.3939
23.703
17.7319
13.5075
11.0081
10.2047
11.1314
13.8561
18.7747
26.3038
39.2098
56.3044
74.7185
51.6923
25.0071
-4.42059
-35.0315
-67.9963
-102.412
-137.463
-173.069
-208.604
-243.559
-277.554
-310.018
-340.401
-368.136
-392.625
-413.281
-429.573
-441.042
-447.29
-448.048
-443.335
-433.397
-418.833
-400.506
-379.429
-356.494
-332.005
-305.98
-278.639
-250.208
-220.777
-190.387
-158.968
-126.409
-91.9254
-55.5027
-12.7541
27.5438
95.548
115.269
135.693
155.966
174.194
190.314
203.595
213.227
219.116
221.567
220.956
217.734
212.292
204.972
196.092
185.888
174.587
162.399
149.498
136.037
122.155
107.995
93.729
79.6387
66.175
53.841
42.9412
33.5645
25.7745
19.6565
15.2541
12.5623
11.5637
12.2994
14.8446
19.5835
26.9045
39.3684
55.4732
71.3555
50.0373
25.319
-1.90291
-30.1209
-60.5202
-92.2505
-124.571
-157.458
-190.371
-222.893
-254.729
-285.377
-314.356
-341.151
-365.196
-385.91
-402.757
-415.234
-422.936
-425.509
-422.911
-415.308
-403.171
-387.211
-368.251
-347.091
-324.12
-299.439
-273.265
-245.839
-217.277
-187.638
-156.869
-124.881
-90.9466
-55.1073
-13.338
25.8115
90.6732
108.945
127.947
146.875
163.936
179.153
191.834
201.185
207.137
209.973
210.023
207.69
203.314
197.175
189.535
180.574
170.468
159.39
147.494
134.924
121.825
108.349
94.6748
81.0779
67.9875
55.876
45.0629
35.6819
27.8217
21.579
17.0137
14.1384
12.9488
13.4927
15.853
20.4007
27.494
39.4789
54.606
67.7365
47.9158
24.9264
-0.354881
-26.4716
-54.603
-83.9434
-113.809
-144.229
-174.722
-204.945
-234.676
-263.483
-290.957
-316.635
-339.993
-360.48
-377.567
-390.731
-399.572
-403.67
-402.921
-397.411
-387.498
-373.749
-356.826
-337.423
-315.978
-292.655
-267.673
-241.282
-213.62
-184.763
-154.678
-123.296
-89.9514
-54.7348
-14.006
23.9713
85.733
102.738
120.497
138.239
154.272
168.677
180.797
189.864
195.82
198.936
199.509
197.901
194.416
189.295
182.753
174.925
165.945
155.947
145.057
133.404
121.128
108.381
95.3407
82.2762
69.5993
57.7586
47.0803
37.7341
29.8346
23.4911
18.78
15.7319
14.3564
14.7086
16.8792
21.2237
28.0698
39.5422
53.7058
64.0059
45.5067
24.0506
0.489466
-23.7671
-49.8827
-77.0911
-104.753
-132.937
-161.215
-189.296
-217.022
-244.021
-269.952
-294.411
-316.922
-336.972
-354.05
-367.633
-377.322
-382.666
-383.489
-379.815
-371.901
-360.191
-345.201
-327.52
-307.595
-285.636
-261.867
-236.536
-209.804
-181.762
-152.395
-121.654
-88.9405
-54.3883
-14.7549
22.0321
80.8301
96.7237
113.375
130.06
145.177
158.847
170.441
179.222
185.141
188.454
189.436
188.418
185.677
181.427
175.847
169.04
161.103
152.137
142.235
131.506
120.076
108.091
95.7202
83.2247
71
59.4757
48.9791
39.7081
31.8016
25.3834
20.5456
17.337
15.7823
15.9437
17.9201
22.05
28.6296
39.5593
52.7764
60.2598
42.9383
22.8536
0.829967
-21.7667
-46.0798
-71.3779
-97.0542
-123.214
-149.465
-175.561
-201.394
-226.649
-251.04
-274.226
-295.781
-315.23
-332.095
-345.867
-356.146
-362.482
-364.628
-362.551
-356.427
-346.585
-333.418
-317.409
-298.988
-278.395
-255.851
-231.604
-205.83
-178.634
-150.017
-119.955
-87.9141
-54.0708
-15.5807
20.0021
76.037
90.938
106.602
122.334
136.629
149.623
160.721
169.22
175.067
178.515
179.815
179.275
177.154
173.644
168.902
163.006
156.024
148.026
139.079
129.263
118.689
107.486
95.8134
83.9185
72.1817
61.0163
50.7468
41.5914
33.7117
27.246
22.3024
18.9475
17.2216
17.1943
18.9728
22.8768
29.1713
39.5324
51.8212
56.5623
40.3005
21.45
0.810761
-20.2968
-42.9902
-66.5651
-90.4516
-114.771
-139.166
-163.43
-187.493
-211.087
-233.979
-255.875
-276.405
-295.139
-311.633
-325.407
-336.057
-343.154
-346.388
-345.682
-341.138
-332.992
-321.527
-307.126
-290.181
-270.944
-249.633
-226.49
-201.698
-175.377
-147.545
-118.199
-86.8725
-53.7824
-16.4793
17.8904
71.3983
85.4066
100.178
115.048
128.595
140.965
151.595
159.814
165.566
169.098
170.643
170.488
168.883
166.003
161.987
156.897
150.779
143.68
135.639
126.713
116.988
106.578
95.6242
84.3557
73.1381
62.3705
52.371
43.3715
35.5531
29.0689
24.0419
20.5564
18.6689
18.456
20.0335
23.7012
29.6925
39.4633
50.8445
52.9569
37.6561
19.9237
0.538691
-19.2253
-40.4525
-62.4678
-84.7327
-107.379
-130.077
-152.654
-175.069
-197.093
-218.537
-239.158
-258.629
-276.569
-292.574
-306.193
-317.026
-324.679
-328.791
-329.244
-326.081
-319.46
-309.572
-296.704
-281.198
-263.3
-243.222
-221.197
-197.411
-171.994
-144.98
-116.386
-85.8156
-53.5234
-17.4441
15.7061
66.9406
80.1413
94.1001
108.184
121.045
132.836
143.025
150.967
156.607
160.182
161.914
162.071
160.892
158.544
155.155
150.773
145.433
139.157
131.967
123.894
115.003
105.384
95.1588
84.537
73.8666
63.5312
53.8414
45.0368
37.3144
30.8414
25.7551
22.1564
20.1181
19.7242
21.0982
24.5198
30.1913
39.3546
49.8506
49.4737
35.0474
18.3338
0.0926289
-18.4524
-38.3463
-58.9459
-79.7348
-100.855
-122.003
-143.028
-163.91
-184.46
-204.523
-223.899
-242.305
-259.404
-274.832
-288.173
-299.037
-307.06
-311.86
-313.278
-311.308
-306.045
-297.602
-286.181
-272.065
-255.482
-236.632
-215.733
-192.972
-168.484
-142.32
-114.515
-84.7436
-53.2923
-18.4683
13.4587
62.6792
75.1453
88.36
101.721
113.951
125.202
134.972
142.643
148.155
151.744
153.614
154.021
153.197
151.3
148.449
144.688
140.04
134.515
128.113
120.849
112.763
103.924
94.4297
84.4674
74.3656
64.4927
55.1487
46.5763
38.9846
32.5531
27.4325
23.7395
21.5627
20.9935
22.1628
25.3294
30.6657
39.2092
48.8437
46.1307
32.5049
16.7275
-0.469319
-17.8993
-36.5789
-55.8847
-75.3283
-95.054
-114.781
-134.375
-153.841
-173.011
-191.768
-209.943
-227.294
-243.528
-258.317
-271.281
-282.051
-290.288
-295.606
-297.811
-296.858
-292.792
-285.663
-275.596
-262.812
-247.512
-229.877
-210.108
-188.386
-164.852
-139.568
-112.589
-83.6554
-53.0877
-19.5434
11.1602
58.622
70.415
82.9451
95.6382
107.283
118.028
127.401
134.805
140.183
143.759
145.731
146.337
145.807
144.291
141.902
138.683
134.649
129.799
124.124
117.618
110.302
102.221
93.452
84.1548
74.6374
65.2517
56.2856
47.9803
40.5529
34.1934
29.0645
25.2972
22.9954
22.2582
23.2222
26.1266
31.1139
39.0303
47.8291
42.9384
30.0499
15.1335
-1.10035
-17.5105
-35.0748
-53.1964
-71.4066
-89.8562
-108.278
-126.557
-144.71
-162.596
-180.12
-197.146
-213.467
-228.829
-242.94
-255.457
-266.033
-274.348
-280.037
-282.868
-282.769
-279.746
-273.801
-264.989
-253.471
-239.413
-222.973
-204.332
-183.661
-161.1
-136.725
-110.607
-82.5511
-52.9071
-20.6605
8.82233
54.7713
65.944
77.8406
89.9151
101.013
111.284
120.278
127.423
132.659
136.205
138.246
139.012
138.724
137.529
135.538
132.79
129.298
125.056
120.042
114.24
107.652
100.302
92.2421
83.6092
74.6868
65.8078
57.2467
49.2403
42.0093
35.7519
30.6411
26.8207
24.4087
23.5119
24.2716
26.9075
31.5346
38.821
46.8117
39.9031
27.6966
13.576
-1.769
-17.239
-33.7784
-50.8098
-67.889
-85.1656
-102.387
-119.452
-136.391
-153.079
-169.445
-185.38
-200.707
-215.205
-228.618
-240.635
-250.938
-259.222
-265.151
-268.466
-269.071
-266.947
-262.057
-254.399
-244.075
-231.211
-215.939
-198.418
-178.804
-157.235
-133.794
-108.57
-81.4294
-52.7471
-21.8102
6.45736
51.1255
61.7245
73.0327
84.5316
95.1173
104.94
113.575
120.467
125.557
129.057
131.145
132.036
131.948
131.026
129.376
127.037
124.022
120.321
115.907
110.753
104.846
98.1923
90.8215
82.8449
74.5208
66.162
58.0285
50.3491
43.3447
37.2187
32.1524
28.3009
25.7944
24.748
25.3054
27.6687
31.9263
38.5849
45.7963
37.0262
25.453
12.0719
-2.44903
-17.0509
-32.643
-48.67
-64.7069
-80.9028
-97.019
-112.965
-128.779
-144.356
-159.638
-174.539
-188.912
-202.564
-215.27
-226.752
-236.721
-244.884
-250.942
-254.615
-255.791
-254.432
-250.472
-243.865
-234.657
-222.933
-208.797
-192.381
-173.825
-153.261
-130.778
-106.479
-80.2889
-52.6034
-22.982
4.07883
47.6821
57.7471
68.5065
79.4672
89.5726
98.9713
107.263
113.911
118.853
122.296
124.409
125.4
125.477
124.785
123.426
121.443
118.846
115.627
111.753
107.192
101.917
95.9209
89.2122
81.8772
74.1484
66.3181
58.6296
51.3014
44.551
38.5843
33.5887
29.7284
27.1444
25.9594
26.3181
28.4063
32.2879
38.3256
44.7882
34.3077
23.3245
10.6317
-3.12213
-16.9187
-31.6335
-46.7306
-61.8051
-77.0016
-92.0977
-107.01
-121.785
-136.327
-150.596
-164.525
-177.986
-190.817
-202.819
-213.746
-223.334
-231.307
-237.399
-241.321
-242.947
-242.23
-239.083
-233.424
-225.252
-214.608
-201.569
-186.238
-168.736
-149.186
-127.682
-104.336
-79.1282
-52.4712
-24.1646
1.70094
44.4347
54.0016
64.2471
74.7031
84.3563
93.3547
101.319
107.729
112.522
115.9
118.024
119.09
119.304
118.807
117.698
116.023
113.793
110.999
107.611
103.587
98.8962
93.515
87.4364
80.723
73.5817
66.2824
59.0508
52.0934
45.6215
39.8402
34.9407
31.0939
28.4501
27.1385
27.3038
29.1164
32.6184
38.0462
43.7923
31.7454
21.3127
9.26366
-3.77409
-16.8232
-30.7213
-44.9561
-59.1387
-73.4117
-87.5624
-101.519
-115.329
-128.911
-142.234
-155.249
-167.846
-179.885
-191.196
-201.558
-210.733
-218.461
-224.507
-228.584
-230.557
-230.368
-227.923
-223.112
-215.892
-206.266
-194.279
-180.007
-163.551
-145.02
-124.51
-102.142
-77.9451
-52.3447
-25.3478
-0.663045
41.3764
50.4786
60.2416
70.2221
79.4491
88.0677
95.719
101.898
106.542
109.85
111.971
113.095
113.422
113.09
112.196
110.787
108.879
106.461
103.504
99.9673
95.8108
91.0016
85.5179
79.4015
72.8341
66.0625
59.295
52.7233
46.5507
40.9787
36.1994
32.3884
29.7028
28.2779
28.2564
29.7953
32.917
37.7503
42.8133
29.3351
19.4183
7.97233
-4.39516
-16.7467
-29.8844
-43.3168
-56.6713
-70.0868
-83.3633
-96.4333
-109.349
-122.037
-134.479
-146.635
-158.414
-169.698
-180.333
-190.128
-198.869
-206.313
-212.248
-216.401
-218.628
-218.867
-217.022
-212.962
-206.61
-197.937
-186.952
-173.709
-158.282
-140.771
-121.268
-99.8999
-76.7378
-52.2171
-26.5195
-2.99843
38.5008
47.1662
56.476
66.0086
74.8324
83.0894
90.4409
96.3957
100.894
104.126
106.236
107.402
107.822
107.629
106.919
105.743
104.115
102.029
99.4573
96.3576
92.6873
88.4061
83.4801
77.9323
71.9204
65.6685
59.3663
53.1913
47.335
41.9931
37.3565
33.6029
30.8938
29.3695
29.1698
30.439
33.1831
37.4408
41.8556
27.0719
17.6403
6.76066
-4.97839
-16.6769
-29.1048
-41.7883
-54.3719
-66.9911
-79.4552
-91.7025
-103.787
-115.645
-127.265
-138.617
-149.625
-160.187
-170.17
-179.405
-187.698
-194.83
-200.603
-204.764
-207.166
-207.744
-206.404
-203.004
-197.439
-189.649
-179.616
-167.364
-152.949
-136.452
-117.962
-97.6109
-75.5033
-52.0817
-27.6681
-5.29125
35.8
44.0551
52.937
62.0456
70.4873
78.4005
85.4654
91.2047
95.5588
98.7124
100.802
101.999
102.495
102.42
101.869
100.893
99.5107
97.7173
95.4867
92.7788
89.5493
85.7522
81.345
76.3349
70.8563
65.1115
59.2718
53.4988
47.9718
42.8783
38.4048
34.729
32.0149
30.4059
30.0379
31.0439
33.416
37.1205
40.9233
24.9507
15.9761
5.62949
-5.51899
-16.6055
-28.3686
-40.3524
-52.2168
-64.0941
-75.8022
-87.2854
-98.5977
-109.683
-120.536
-131.136
-141.417
-151.293
-160.651
-169.336
-177.178
-183.976
-189.549
-193.664
-196.173
-197.012
-196.092
-193.266
-188.408
-181.432
-172.294
-160.994
-147.566
-132.073
-114.6
-95.2768
-74.2401
-51.9301
-28.7816
-7.52747
33.2665
41.1345
49.6119
58.3186
66.398
73.9839
80.7736
86.3052
90.5181
93.5914
95.6552
96.8733
97.4313
97.4563
97.0423
96.2404
95.0721
93.5354
91.6072
89.2492
86.4171
83.0616
79.134
74.6281
69.658
64.4039
59.0191
53.6495
48.4606
43.6299
39.3377
35.759
33.058
31.3793
30.8545
31.6061
33.6151
36.7918
40.0199
22.9663
14.4222
4.579
-6.01355
-16.525
-27.6643
-38.993
-50.1853
-61.3702
-72.3734
-83.1455
-93.7393
-104.105
-114.243
-124.139
-133.737
-142.965
-151.723
-159.874
-167.268
-173.72
-179.062
-183.088
-185.646
-186.678
-186.103
-183.772
-179.544
-173.313
-165.013
-154.623
-142.152
-127.648
-111.189
-92.9021
-72.9447
-51.755
-29.8501
-9.69373
30.8922
38.3945
46.489
54.8149
62.5494
69.8236
76.3495
81.6803
85.7552
88.7474
90.7807
92.0115
92.6198
92.73
92.434
91.7837
90.8027
89.4917
87.8305
85.7839
83.3085
80.3541
76.8673
72.832
68.3426
63.5591
58.6175
53.6483
48.8024
44.2456
40.1499
36.686
34.0154
32.2826
31.6138
32.122
33.78
36.4567
39.1481
21.1124
12.9757
3.60735
-6.45985
-16.4307
-26.9835
-37.6972
-48.2613
-58.7984
-69.1443
-79.2532
-89.1782
-98.8736
-108.345
-117.583
-126.539
-135.154
-143.34
-150.976
-157.928
-164.028
-169.118
-173.021
-175.582
-176.749
-176.451
-174.542
-170.872
-165.319
-157.8
-148.272
-136.725
-123.192
-107.738
-90.488
-71.6154
-51.5494
-30.8612
-11.7772
28.6692
35.8258
43.5575
51.521
58.9273
65.9044
72.177
77.3141
81.2544
84.1654
86.1651
87.4021
88.0515
88.2339
88.0396
87.5211
86.7036
85.5907
84.1653
82.3951
80.2389
77.6472
74.5638
70.9641
66.9261
62.5906
58.0773
53.5014
48.9994
44.7241
40.8377
37.5037
34.8801
33.1089
32.3101
32.5881
33.91
36.1168
38.3103
19.383
11.632
2.71319
-6.85753
-16.3189
-26.32
-36.4555
-46.4298
-56.3608
-66.0926
-75.5818
-84.883
-93.9539
-102.803
-111.425
-119.78
-127.818
-135.46
-142.602
-149.12
-154.867
-159.695
-163.445
-165.972
-167.226
-167.146
-165.594
-162.414
-157.475
-150.679
-141.964
-131.305
-118.717
-104.256
-88.0391
-70.2496
-51.3031
-31.8055
-13.7649
26.5902
33.4188
40.8059
48.4245
55.5183
62.2114
68.2415
73.1914
77.0009
79.8314
81.7948
83.0327
83.7153
83.9594
83.8526
83.4488
82.7743
81.8352
80.6176
79.0925
77.2214
74.956
72.2394
69.0411
65.4243
61.5123
57.4095
53.2168
49.0557
45.0657
41.398
38.2077
35.6461
33.8519
32.9381
33.0011
34.0047
35.7732
37.5076
17.7724
10.3867
1.8942
-7.20686
-16.1871
-25.6675
-35.2591
-44.6793
-54.042
-63.1986
-72.1094
-80.8277
-89.3157
-97.5835
-105.63
-113.422
-120.916
-128.044
-134.712
-140.812
-146.209
-150.766
-154.345
-156.807
-158.107
-158.196
-156.943
-154.191
-149.803
-143.672
-135.721
-125.911
-114.239
-100.752
-85.559
-68.8451
-51.0105
-32.6719
-15.6456
24.6476
31.1645
38.2243
45.5146
52.3099
58.7316
64.5292
69.2986
72.9811
75.7317
77.6571
78.8921
79.6005
79.8974
79.8666
79.5626
79.0134
78.2265
77.1917
75.8834
74.266
72.2933
69.9091
67.0789
63.8527
60.3382
56.6258
52.8026
48.9761
45.2722
41.8298
38.7938
36.3082
34.506
33.4929
33.3579
34.0632
35.4263
36.7407
16.2744
9.23567
1.14742
-7.50838
-16.034
-25.0229
-34.1018
-43.001
-51.8301
-60.4479
-68.8172
-76.9908
-84.9344
-92.6593
-100.168
-107.433
-114.415
-121.057
-127.274
-132.971
-138.024
-142.308
-145.703
-148.076
-149.389
-149.603
-148.597
-146.217
-142.324
-136.802
-129.565
-120.56
-109.772
-97.2363
-83.0516
-67.4006
-50.664
-33.4524
-17.41
22.8341
29.0551
35.803
42.7804
49.2906
55.4526
61.0266
65.623
69.1822
71.8543
73.7401
74.9685
75.6977
76.0389
76.074
75.8571
75.4175
74.7641
73.8902
72.7734
71.3813
69.6703
67.5861
65.0913
62.2255
59.0817
55.7377
52.2682
48.7671
45.3466
42.1328
39.2598
36.8623
35.0664
33.9704
33.6556
34.0848
35.0763
36.0093
14.8834
8.17412
0.469987
-7.76348
-15.8589
-24.3832
-32.9782
-41.3872
-49.715
-57.8269
-65.6894
-73.3532
-80.7877
-88.0052
-95.0112
-101.782
-108.284
-114.467
-120.257
-125.566
-130.286
-134.299
-137.5
-139.766
-141.066
-141.37
-140.566
-138.507
-135.054
-130.087
-123.515
-115.271
-105.332
-93.719
-80.5215
-65.9155
-50.2571
-34.1387
-19.0496
21.1426
27.0823
33.533
40.2113
46.4493
52.3628
57.7223
62.1517
65.5915
68.1865
70.0323
71.2516
71.9968
72.3755
72.4675
72.3267
71.9826
71.4467
70.7141
69.766
68.5735
67.0959
65.2815
63.0913
60.556
57.7559
54.7573
51.6234
48.4358
45.293
42.3086
39.6046
37.3055
35.5294
34.3669
33.8918
34.0687
34.7227
35.3123
13.5934
7.19751
-0.141287
-7.97374
-15.6615
-23.7461
-31.884
-39.8305
-47.6865
-55.3235
-62.711
-69.8977
-76.8562
-83.5999
-90.1354
-96.4431
-102.495
-108.246
-113.631
-118.571
-122.968
-126.714
-129.717
-131.865
-133.132
-133.495
-132.854
-131.071
-128.008
-123.547
-117.589
-110.062
-100.932
-90.2101
-77.9739
-64.3883
-49.7848
-34.7237
-20.5563
19.5666
25.2382
31.4056
37.7981
43.7758
49.4512
54.605
58.8732
62.1977
64.7174
66.5227
67.7303
68.4874
68.8982
69.0394
68.9649
68.7046
68.2712
67.6629
66.8635
65.8473
64.5774
63.0045
61.0899
58.8563
56.3727
53.6957
50.8783
47.9899
45.1169
42.3596
39.8282
37.6362
35.8921
34.6796
34.0641
34.0138
34.3646
34.6481
12.3988
6.30138
-0.689747
-8.14104
-15.4422
-23.1104
-30.816
-38.3264
-45.7376
-52.9282
-59.8697
-66.6095
-73.1223
-79.4228
-85.5189
-91.3937
-97.0234
-102.369
-107.371
-111.96
-116.046
-119.533
-122.337
-124.358
-125.576
-125.974
-125.465
-123.917
-121.2
-117.195
-111.803
-104.948
-96.586
-86.7197
-75.4138
-62.8205
-49.2421
-35.2017
-21.9246
18.0996
23.5157
29.4125
35.532
41.2605
46.7078
51.6636
55.7769
58.9897
61.4355
63.2002
64.3946
65.16
65.5977
65.7818
65.7651
65.5779
65.2346
64.7351
64.0664
63.206
62.1201
60.7629
59.0964
57.1372
54.944
52.5644
50.0429
47.4381
44.8244
42.2897
39.9322
37.8537
36.153
34.9062
34.171
33.9192
34.0008
34.014
11.2944
5.48118
-1.17875
-8.26754
-15.2018
-22.4753
-29.7721
-36.8703
-43.8626
-50.633
-57.1557
-63.4765
-69.5723
-75.4579
-81.1426
-86.6124
-91.8467
-96.811
-101.453
-105.709
-109.499
-112.735
-115.342
-117.233
-118.389
-118.803
-118.397
-117.05
-114.637
-111.045
-106.174
-99.9444
-92.3077
-83.2578
-72.847
-61.2125
-48.6267
-35.5689
-23.1496
16.7351
21.9074
27.5458
33.4041
38.894
44.1226
48.8883
52.8523
55.9571
58.3308
60.0552
61.2344
62.0057
62.4661
62.687
62.7205
62.5974
62.3329
61.9286
61.3747
60.6513
59.7283
58.5633
57.1194
55.4084
53.4798
51.374
49.1273
46.7891
44.4225
42.1039
39.9192
37.959
36.3115
35.0455
34.211
33.784
33.6296
33.407
10.2748
4.73264
-1.61174
-8.35546
-14.9412
-21.8403
-28.7495
-35.4585
-42.0557
-48.4304
-54.5596
-60.4873
-66.1921
-71.6898
-76.99
-82.0809
-86.9448
-91.5516
-95.8543
-99.7961
-103.305
-106.3
-108.715
-110.473
-111.56
-111.975
-111.65
-110.473
-108.329
-105.107
-100.712
-95.0639
-88.1088
-79.8338
-70.2796
-59.5662
-47.9367
-35.8219
-24.2285
15.4673
20.407
25.7983
31.4066
36.668
41.6867
46.2695
50.0895
53.09
55.3935
57.0777
58.2409
59.0152
59.4942
59.747
59.8243
59.7572
59.5614
59.2406
58.7872
58.1842
57.4048
56.4104
55.1657
53.6782
51.9899
50.1344
48.1414
46.0519
43.919
41.8079
39.7932
37.954
36.3682
35.0972
34.1835
33.6071
33.249
32.8236
9.33495
4.05145
-1.9921
-8.40726
-14.6617
-21.2054
-27.7477
-34.0885
-40.3125
-46.3146
-52.0735
-57.6322
-62.9707
-68.105
-73.0455
-77.7823
-82.2998
-86.5718
-90.5563
-94.2023
-97.4444
-100.21
-102.438
-104.065
-105.078
-105.483
-105.219
-104.187
-102.278
-99.389
-95.4289
-90.3179
-84.0003
-76.457
-67.7172
-57.8844
-47.1709
-35.9593
-25.1595
14.2907
19.008
24.163
29.5319
34.5742
39.3912
43.7982
47.4796
50.3791
52.6142
54.2584
55.4047
56.1799
56.6743
56.9542
57.0695
57.0511
56.9154
56.6675
56.302
55.8045
55.1516
54.3082
53.241
51.954
50.4827
48.855
47.0948
45.2356
43.3218
41.4084
39.559
37.842
36.3249
35.0617
34.0882
33.3877
32.8569
32.2599
8.4701
3.43353
-2.3231
-8.42509
-14.3646
-20.5708
-26.7652
-32.7575
-38.6288
-44.2799
-49.6908
-54.9029
-59.898
-64.6921
-69.2962
-73.7015
-77.8954
-81.8543
-85.5405
-88.9082
-91.8991
-94.4464
-96.4968
-97.9943
-98.9308
-99.3163
-99.0999
-98.1898
-96.4871
-93.8973
-90.3326
-85.7164
-79.9922
-73.1357
-65.1664
-56.1706
-46.3306
-35.9807
-25.9423
13.1993
17.7045
22.6329
27.7725
32.6048
37.2283
41.4661
45.0139
47.8155
49.984
51.5885
52.7169
53.4912
53.998
54.301
54.4493
54.4732
54.3897
54.2053
53.9165
53.5116
52.9696
52.2593
51.3498
50.2421
48.9659
47.5443
45.9964
44.3493
42.6393
40.9126
39.2224
37.627
36.1842
34.9404
33.9254
33.1252
32.4511
31.7116
7.67559
2.87465
-2.60797
-8.41147
-14.0515
-19.9367
-25.8012
-31.4637
-37.0021
-42.322
-47.4053
-52.2917
-56.9648
-61.4406
-65.7299
-69.8256
-73.717
-77.3831
-80.7904
-83.8974
-86.6516
-88.9931
-90.8737
-92.2463
-93.106
-93.4667
-93.2848
-92.4785
-90.9575
-88.635
-85.4291
-81.2673
-76.0929
-69.878
-62.6335
-54.4287
-45.4177
-35.8879
-26.5784
12.1883
16.4903
21.2022
26.1218
30.7526
35.1902
39.265
42.6838
45.391
47.4945
49.0597
50.1696
50.941
51.4575
51.7802
51.9567
52.0174
51.9792
51.8501
51.628
51.3036
50.8588
50.2658
49.4958
48.5477
47.4462
46.2102
44.8548
43.4016
41.8801
40.3282
38.7901
37.3144
35.9498
34.7357
33.6961
32.8191
32.0295
31.1747
6.94693
2.37116
-2.84998
-8.36882
-13.7238
-19.3041
-24.8553
-30.2055
-35.4291
-40.4366
-45.2114
-49.792
-54.1631
-58.3407
-62.3357
-66.1422
-69.7512
-73.144
-76.2906
-79.1539
-81.6862
-83.8342
-85.5543
-86.8072
-87.5912
-87.923
-87.7665
-87.0483
-85.6871
-83.6039
-80.7231
-76.9765
-72.3094
-66.6911
-60.1244
-52.6636
-44.4355
-35.6832
-27.0701
11.2526
15.3604
19.8647
24.5734
29.0108
33.2697
37.1877
40.4818
43.0976
45.1377
46.6639
47.7546
48.5217
49.0455
49.3845
49.5853
49.6775
49.6787
49.5973
49.4332
49.1789
48.819
48.3289
47.6818
46.8753
45.9295
44.8599
43.6781
42.4012
41.0527
39.6633
38.2691
36.9101
35.6264
34.4506
33.4016
32.4693
31.5898
30.6448
6.27987
1.91923
-3.05214
-8.2995
-13.3832
-18.6735
-23.9274
-28.9819
-33.9077
-38.6205
-43.1049
-47.398
-51.4858
-55.3841
-59.1039
-62.6402
-65.9856
-69.1236
-72.0272
-74.6629
-76.9881
-78.9547
-80.524
-81.6633
-82.3739
-82.6749
-82.5364
-81.8932
-80.6728
-78.8033
-76.2165
-72.8487
-68.6477
-63.5812
-57.6454
-50.8805
-43.3883
-35.3708
-27.4213
10.3876
14.3094
18.6149
23.1212
27.373
31.4599
35.2266
38.4006
40.9277
42.906
44.3936
45.4646
46.2259
46.7547
47.1072
47.3284
47.4477
47.4827
47.4427
47.3287
47.1352
46.8491
46.4487
45.91
45.2286
44.4209
43.4997
42.4737
41.3561
40.1655
38.9262
37.6672
36.4207
35.2191
34.0888
33.0442
32.0759
31.1302
30.1179
5.67028
1.51537
-3.21744
-8.20581
-13.0311
-18.0458
-23.0173
-27.7916
-32.436
-36.8705
-41.0815
-45.1043
-48.9264
-52.563
-56.0256
-59.3098
-62.4093
-65.3098
-67.987
-70.4109
-72.543
-74.3401
-75.7686
-76.801
-77.4415
-77.711
-77.5851
-77.006
-75.9096
-74.2314
-71.9098
-68.8865
-65.1121
-60.5537
-55.2021
-49.0851
-42.2815
-34.9557
-27.6371
9.58853
13.3324
17.4472
21.7595
25.8328
29.7543
33.3754
36.4332
38.8743
40.7921
42.2416
43.2922
44.0465
44.5783
44.9415
45.1799
45.3224
45.3863
45.3818
45.3109
45.1698
44.9476
44.6255
44.1816
43.6104
42.9249
42.1354
41.2485
40.2742
39.2267
38.1251
36.9921
35.8532
34.7339
33.6549
32.6265
31.6396
30.649
29.5901
5.11439
1.15606
-3.34867
-8.09004
-12.6691
-17.4217
-22.1252
-26.634
-31.012
-35.1839
-39.1372
-42.9061
-46.4788
-49.8707
-53.0927
-56.1416
-59.0122
-61.6917
-64.1582
-66.3852
-68.3376
-69.9774
-71.2746
-72.2072
-72.7814
-73.0196
-72.9023
-72.3787
-71.3917
-69.8846
-67.802
-65.0912
-61.7058
-57.6134
-52.8003
-47.2832
-41.1209
-34.4441
-27.7234
8.85126
12.4247
16.3567
20.4826
24.3845
28.1469
31.6275
34.5729
36.9305
38.7894
40.201
41.2307
41.9767
42.5096
42.8812
43.1338
43.2957
43.3843
43.41
43.3762
43.2802
43.1132
42.859
42.4976
42.0231
41.4452
40.7721
40.0089
39.1627
38.2443
37.2682
36.252
35.2151
34.1772
33.1538
32.1516
31.1614
30.1448
29.0581
4.60845
0.838148
-3.44869
-7.95427
-12.2989
-16.802
-21.251
-25.508
-29.6342
-33.5583
-37.269
-40.799
-44.138
-47.3006
-50.2979
-53.1272
-55.7846
-58.2585
-60.5296
-62.5736
-64.3596
-65.8536
-67.0291
-67.8691
-68.3813
-68.5893
-68.4777
-68.0022
-67.1124
-65.7583
-63.8909
-61.4627
-58.431
-54.764
-50.4449
-45.4809
-39.9134
-33.8431
-27.6872
8.17172
11.5819
15.3386
19.2855
23.0226
26.6317
29.9767
32.8135
35.09
36.8911
38.2653
39.2736
40.0101
40.5426
40.9203
41.1844
41.3625
41.4717
41.5231
41.5207
41.4633
41.3438
41.1483
40.8588
40.4685
39.9849
39.4145
38.7606
38.0285
37.2259
36.3636
35.4548
34.5141
33.5557
32.5908
31.623
30.6427
29.6167
28.5186
4.14897
0.558515
-3.52011
-7.80061
-11.922
-16.1876
-20.395
-24.4134
-28.3014
-31.9914
-35.4735
-38.7791
-41.8988
-44.847
-47.6345
-50.2591
-52.7181
-55.001
-57.0906
-58.9652
-60.5973
-61.9564
-63.0197
-63.7741
-64.2288
-64.4084
-64.3007
-63.8672
-63.0637
-61.8465
-60.1727
-57.9996
-55.2883
-52.0084
-48.1405
-43.6844
-38.6661
-33.1605
-27.5363
7.54603
10.7998
14.3884
18.1634
21.742
25.2035
28.4176
31.1492
33.3468
35.0914
36.4284
37.4148
38.1408
38.6711
39.0529
39.3261
39.5175
39.6439
39.7168
39.7412
39.7166
39.6377
39.4925
39.2652
38.9483
38.547
38.0664
37.5089
36.8778
36.1786
35.419
34.6086
33.7576
32.8763
31.9717
31.0447
30.0853