/*--------------------------------*- C++ -*----------------------------------*\
  =========                 |
  \\      /  F ield         | OpenFOAM: The Open Source CFD Toolbox
   \\    /   O peration     | Website:  https://openfoam.org
    \\  /    A nd           | Version:  13
     \\/     M anipulation  |
\*---------------------------------------------------------------------------*/
FoamFile
{
    format      ascii;
    class       surfaceScalarField;
    location    "200";
    object      phi;
}
// * * * * * * * * * * * * * * * * * * * * * * * * * * * * * * * * * * * * * //

dimensions      [0 3 -1 0 0 0 0];

internalField   nonuniform List<scalar> 
21254
(
-0.240992
0.260513
-0.0195208
0.282482
-0.0219688
0.301301
-0.0188186
0.318072
-0.0167714
0.333937
-0.015865
0.346574
-0.012637
0.356529
-0.00995511
0.364609
-0.00807962
0.369893
-0.00528457
0.373455
-0.00356176
0.375547
-0.00209125
0.376003
-0.000456136
0.375189
0.000813192
0.373059
0.002131
0.369545
0.00351313
0.364937
0.00460797
0.359056
0.00588174
0.352006
0.00704982
0.343653
0.00835326
0.334239
0.00941414
0.32345
0.0107884
0.311871
0.0115788
0.299779
0.0120929
0.288484
0.0112943
0.27919
0.0092939
0.271214
0.00797663
0.263427
0.00778654
0.255514
0.00791321
0.247139
0.00837494
0.238214
0.00892527
0.228711
0.00950238
0.218623
0.0100885
0.207882
0.0107404
0.196251
0.0116315
0.183201
0.0130499
0.167674
0.0155278
0.147318
0.0203563
0.116732
0.0305875
0.0950971
0.021649
-0.217898
-0.0230944
-0.194006
-0.0238921
-0.164568
-0.029438
-0.132209
-0.0323589
-0.0980407
-0.0341683
-0.0626592
-0.0353815
-0.0276443
-0.0350149
0.00487702
-0.0325213
0.034357
-0.0294799
0.0604801
-0.0261232
0.082817
-0.0223368
0.101787
-0.0189702
0.117746
-0.0159585
0.13106
-0.0133148
0.142451
-0.011391
0.152252
-0.00980042
0.160943
-0.00869135
0.168763
-0.00781983
0.176025
-0.00726143
0.182853
-0.00682838
0.18942
-0.00656738
0.195718
-0.00629822
0.20168
-0.00596128
0.206678
-0.00499835
0.210527
-0.00384879
0.213504
-0.0029777
0.215608
-0.00210364
0.216955
-0.0013465
0.217556
-0.000601848
0.217356
0.000200326
0.216259
0.00109683
0.214401
0.00185773
0.211908
0.00249388
0.20884
0.00306735
0.205059
0.00378121
0.200138
0.00492036
0.192902
0.00723618
0.178018
0.0148832
0.155368
0.0226501
-0.219909
0.241477
-0.0410889
0.263529
-0.0440208
0.286544
-0.0418332
0.308005
-0.038233
0.328936
-0.0367954
0.348319
-0.0320196
0.365753
-0.0273899
0.381501
-0.0238274
0.395155
-0.0189383
0.406775
-0.0151812
0.416381
-0.0116973
0.424104
-0.00817996
0.430255
-0.00533734
0.434999
-0.00261287
0.438223
0.000288914
0.439612
0.00321878
0.439091
0.00640327
0.436785
0.00935613
0.432193
0.0129451
0.425609
0.0159982
0.416633
0.0197638
0.405562
0.0226501
0.39239
0.0252648
0.377758
0.0259265
0.362933
0.0241188
0.348361
0.0225482
0.334141
0.0220071
0.320494
0.0215601
0.307243
0.021626
0.294244
0.0219241
0.281292
0.0224552
0.268227
0.0231537
0.2548
0.024167
0.240801
0.0256314
0.225832
0.0280185
0.2089
0.0324612
0.188732
0.0405243
0.156449
0.062872
0.113068
0.0650391
-0.197859
-0.0451446
-0.174231
-0.0475199
-0.146564
-0.0571055
-0.117288
-0.0616349
-0.0861872
-0.0652687
-0.0536976
-0.0678711
-0.0213466
-0.0673659
0.00962695
-0.0634948
0.0380671
-0.0579201
0.0633891
-0.0514451
0.0854994
-0.0444472
0.1047
-0.0381702
0.121428
-0.0326868
0.13591
-0.0277966
0.148583
-0.0240648
0.15975
-0.020967
0.1697
-0.0186417
0.178743
-0.0168624
0.187132
-0.0156506
0.194981
-0.0146775
0.20245
-0.0140365
0.209611
-0.0134583
0.216389
-0.0127393
0.222325
-0.010935
0.227145
-0.00866865
0.231052
-0.00688484
0.234043
-0.00509459
0.236169
-0.00347278
0.237479
-0.00191175
0.238121
-0.000441478
0.238194
0.00102364
0.237639
0.00241241
0.236328
0.00380527
0.234215
0.00517931
0.231246
0.00675025
0.227175
0.00899136
0.221985
0.012426
0.211063
0.0258043
0.19002
0.0436933
-0.213434
0.235178
-0.0628326
0.257077
-0.0659196
0.280705
-0.0654617
0.302309
-0.059836
0.322846
-0.0573329
0.342503
-0.0516764
0.359987
-0.0448737
0.375709
-0.03955
0.389227
-0.0324561
0.400827
-0.026781
0.410539
-0.0214089
0.418527
-0.0161688
0.424621
-0.0114313
0.429298
-0.00728893
0.432302
-0.0027158
0.434377
0.00114386
0.435212
0.00556896
0.435154
0.00941351
0.433876
0.0142235
0.431317
0.0185567
0.427364
0.0237172
0.421846
0.0281683
0.414736
0.0323745
0.40613
0.0345324
0.396547
0.0337023
0.386047
0.0330482
0.37452
0.0335342
0.362111
0.0339689
0.348993
0.0347443
0.335262
0.0356546
0.321067
0.0366501
0.30644
0.037781
0.291324
0.0392832
0.275546
0.0414095
0.258718
0.0448465
0.239846
0.0513335
0.217751
0.0626185
0.184764
0.0958603
0.137162
0.112647
-0.191549
-0.0670298
-0.167557
-0.0715121
-0.138846
-0.0858167
-0.108958
-0.0915229
-0.0777156
-0.0965109
-0.0452714
-0.100315
-0.01324
-0.0993972
0.0167099
-0.0934447
0.0442431
-0.0854533
0.069195
-0.0763971
0.0912639
-0.066516
0.110608
-0.0575145
0.127585
-0.0496633
0.142467
-0.0426794
0.155568
-0.0371655
0.167224
-0.0326223
0.1777
-0.0291179
0.187264
-0.0264262
0.196124
-0.0245107
0.204445
-0.0229985
0.212412
-0.0220036
0.220039
-0.0210854
0.227234
-0.0199346
0.233696
-0.0173973
0.239139
-0.0141113
0.243664
-0.0114099
0.247329
-0.00875978
0.250166
-0.00630982
0.252239
-0.00398501
0.253543
-0.00174465
0.254147
0.000419284
0.254046
0.00251303
0.253263
0.00458825
0.251725
0.00671725
0.249328
0.00914732
0.245688
0.0126321
0.240375
0.017738
0.229693
0.0364863
0.209702
0.0636848
-0.205854
0.228604
-0.0855829
0.251412
-0.0887277
0.276485
-0.0905347
0.299364
-0.0827153
0.321531
-0.0794997
0.342768
-0.0729137
0.362257
-0.0643624
0.379812
-0.0571044
0.395646
-0.0482909
0.409537
-0.0406719
0.421601
-0.0334726
0.431835
-0.0264027
0.44027
-0.0198668
0.446944
-0.0139624
0.452177
-0.0079489
0.4556
-0.00227898
0.457357
0.00381149
0.457206
0.009565
0.455471
0.0159583
0.45203
0.0219975
0.447031
0.0287168
0.440722
0.0344769
0.433234
0.0398627
0.425073
0.0426937
0.416669
0.0421053
0.408081
0.0416368
0.398935
0.0426801
0.389082
0.0438218
0.378341
0.0454849
0.366535
0.0474616
0.353656
0.0495292
0.339693
0.0517438
0.324648
0.0543288
0.308397
0.057661
0.290686
0.0625573
0.270572
0.0714482
0.2468
0.0863912
0.212513
0.130148
0.164244
0.160921
-0.183385
-0.0894985
-0.159282
-0.0956149
-0.130037
-0.115062
-0.100007
-0.121553
-0.0686916
-0.127826
-0.0361368
-0.13287
-0.00417946
-0.131355
0.0254001
-0.123024
0.0524288
-0.112482
0.0769809
-0.100949
0.0987169
-0.088252
0.117876
-0.0766738
0.134869
-0.0666555
0.149933
-0.0577436
0.163386
-0.0506185
0.175452
-0.0446887
0.186422
-0.0400875
0.196473
-0.0364777
0.205837
-0.0338745
0.214652
-0.0318137
0.223031
-0.0303824
0.231039
-0.0290937
0.238617
-0.0275127
0.245446
-0.0242264
0.251285
-0.0199499
0.256194
-0.0163184
0.260216
-0.0127827
0.263402
-0.00949584
0.265784
-0.00636649
0.267418
-0.00337851
0.268332
-0.000495132
0.268552
0.00229289
0.268076
0.00506392
0.266889
0.00790399
0.264871
0.0111651
0.261643
0.0158603
0.256611
0.022769
0.246431
0.0466661
0.226789
0.0833264
-0.201766
0.225335
-0.109152
0.249029
-0.112422
0.275521
-0.117027
0.299172
-0.106366
0.322367
-0.102695
0.344712
-0.0952589
0.365107
-0.0847567
0.383653
-0.0756506
0.400651
-0.0652894
0.415445
-0.0554655
0.428427
-0.0464542
0.439533
-0.0375094
0.449043
-0.0293763
0.456622
-0.0215413
0.46245
-0.0137771
0.466528
-0.00635748
0.469014
0.00132631
0.469945
0.00863339
0.469078
0.016826
0.466674
0.0244011
0.462589
0.0328023
0.45696
0.0401057
0.450024
0.0467985
0.442178
0.0505396
0.433998
0.050286
0.42569
0.049945
0.417108
0.0512614
0.40819
0.0527398
0.398794
0.0548813
0.388751
0.0575046
0.377813
0.0604674
0.36575
0.0638062
0.352347
0.0677313
0.337315
0.0726933
0.320242
0.0796302
0.30025
0.0914407
0.275904
0.110737
0.240906
0.165147
0.192543
0.209288
-0.178255
-0.11301
-0.153446
-0.120424
-0.122959
-0.145549
-0.0921008
-0.152411
-0.0600773
-0.15985
-0.0269044
-0.166043
0.00547381
-0.163733
0.0351055
-0.152656
0.0619594
-0.139336
0.0862611
-0.125251
0.107712
-0.109703
0.126651
-0.0956124
0.14357
-0.0835753
0.158681
-0.0728545
0.172297
-0.0642337
0.184678
-0.0570697
0.196
-0.0514102
0.206448
-0.0469251
0.216213
-0.0436401
0.225435
-0.0410355
0.234206
-0.0391536
0.242567
-0.0374545
0.250482
-0.0354282
0.257678
-0.0314221
0.263894
-0.0261654
0.269161
-0.0215855
0.273512
-0.0171339
0.276999
-0.0129834
0.279651
-0.00901829
0.2815
-0.00522735
0.282586
-0.00158125
0.282963
0.00191585
0.282625
0.00540235
0.281533
0.00899596
0.279635
0.0130631
0.27654
0.0189553
0.271643
0.0276662
0.262009
0.0562993
0.243031
0.102305
-0.198467
0.223053
-0.133738
0.248075
-0.137445
0.275947
-0.144898
0.300809
-0.131227
0.325024
-0.126911
0.348744
-0.118979
0.370108
-0.106121
0.389938
-0.0954807
0.407923
-0.0832741
0.423947
-0.0714888
0.438238
-0.0607455
0.450607
-0.0498789
0.461277
-0.0400462
0.470224
-0.0304879
0.477306
-0.0208596
0.48284
-0.0118911
0.486445
-0.00227887
0.488216
0.0068627
0.488262
0.0167802
0.486406
0.0262567
0.482701
0.0365077
0.477369
0.0454372
0.470565
0.053603
0.462709
0.0583956
0.454317
0.0586779
0.445652
0.0586091
0.436671
0.0602428
0.427387
0.0620238
0.417805
0.0644636
0.407853
0.0674564
0.397461
0.0708605
0.386395
0.0748721
0.374386
0.0797406
0.361003
0.0860764
0.34563
0.0950036
0.32708
0.109991
0.303731
0.134086
0.269363
0.199516
0.221525
0.257129
-0.173988
-0.137489
-0.148362
-0.146049
-0.116567
-0.177344
-0.0845691
-0.18441
-0.0515474
-0.192871
-0.0174466
-0.200144
0.0156406
-0.19682
0.0456158
-0.182631
0.0725665
-0.166287
0.0967972
-0.149481
0.118071
-0.130976
0.136793
-0.114335
0.153561
-0.100343
0.16863
-0.0879238
0.182306
-0.0779094
0.194845
-0.0696087
0.206407
-0.0629726
0.217184
-0.0577022
0.227302
-0.0537576
0.236887
-0.0506208
0.246031
-0.0482975
0.254754
-0.0461782
0.263004
-0.0436778
0.270594
-0.0390124
0.277197
-0.0327685
0.282804
-0.0271923
0.287499
-0.0218291
0.291278
-0.0167618
0.294187
-0.0119276
0.296257
-0.00729717
0.297525
-0.0028498
0.298018
0.00142268
0.297742
0.00567838
0.296712
0.0100256
0.294779
0.0149958
0.29165
0.022084
0.286635
0.0326812
0.277288
0.0656456
0.259014
0.120579
-0.196468
0.222385
-0.159654
0.248445
-0.163505
0.277888
-0.174341
0.304029
-0.157368
0.329505
-0.152387
0.354303
-0.143777
0.376843
-0.128661
0.397527
-0.116164
0.416565
-0.102312
0.433532
-0.0884557
0.448658
-0.0758718
0.462084
-0.063305
0.473675
-0.0516366
0.483493
-0.0403058
0.4916
-0.0289672
0.497817
-0.0181081
0.502298
-0.00675961
0.504945
0.0042158
0.505782
0.0159436
0.504744
0.0272941
0.501873
0.039379
0.497231
0.0500794
0.491143
0.0596911
0.483792
0.0657459
0.47569
0.0667808
0.467072
0.0672267
0.457946
0.0693685
0.448346
0.0716239
0.438357
0.0744525
0.427947
0.0778664
0.417124
0.0816832
0.405847
0.0861499
0.393984
0.0916033
0.381203
0.0988569
0.366997
0.109209
0.35016
0.126829
0.328854
0.155392
0.296799
0.231572
0.250509
0.303422
-0.170781
-0.163176
-0.14405
-0.17278
-0.110808
-0.210586
-0.0775012
-0.217716
-0.04328
-0.227092
-0.00793806
-0.235486
0.0261199
-0.230878
0.0567516
-0.213263
0.0840499
-0.193585
0.108435
-0.173866
0.129637
-0.152179
0.148209
-0.132907
0.164828
-0.116962
0.179791
-0.102886
0.193432
-0.0915513
0.206038
-0.0822145
0.217775
-0.0747097
0.228784
-0.0687112
0.239197
-0.0641706
0.249106
-0.060529
0.258579
-0.0577709
0.267631
-0.0552301
0.276237
-0.0522844
0.284153
-0.0469281
0.291149
-0.0397642
0.297146
-0.0331902
0.302167
-0.0268494
0.306259
-0.0208542
0.309425
-0.0150936
0.311726
-0.00959839
0.313163
-0.00428601
0.313791
0.00079412
0.313619
0.00585057
0.312594
0.0110513
0.31066
0.0169294
0.307437
0.025307
0.302236
0.0378826
0.292969
0.0749123
0.275316
0.138231
-0.195196
0.222448
-0.186906
0.249944
-0.191001
0.281072
-0.20547
0.308414
-0.18471
0.335182
-0.179155
0.361234
-0.16983
0.384795
-0.152221
0.406694
-0.138063
0.426549
-0.122167
0.444453
-0.10636
0.460632
-0.0920512
0.474922
-0.0775946
0.487396
-0.0641108
0.498172
-0.0510821
0.507182
-0.0379773
0.514381
-0.0253069
0.519796
-0.0121746
0.523356
0.000656154
0.524973
0.0143266
0.524651
0.027616
0.522475
0.0415544
0.518448
0.0541067
0.512811
0.0653287
0.505917
0.0726398
0.498091
0.0746062
0.489594
0.0757244
0.48048
0.0784818
0.470755
0.0813494
0.460463
0.0847447
0.449667
0.0886618
0.43832
0.093031
0.426468
0.0980014
0.414022
0.10405
0.400883
0.111996
0.386661
0.123431
0.370511
0.14298
0.350919
0.174984
0.32208
0.260412
0.278544
0.346962
-0.168279
-0.190094
-0.14039
-0.200668
-0.105433
-0.245544
-0.0706063
-0.252542
-0.0349595
-0.262739
0.00175263
-0.272198
0.0370321
-0.266157
0.0685324
-0.244763
0.0963682
-0.221421
0.121046
-0.198545
0.142328
-0.173461
0.160821
-0.1514
0.177313
-0.133453
0.192148
-0.117721
0.205707
-0.105111
0.218335
-0.0948418
0.230145
-0.08652
0.241318
-0.0798838
0.251948
-0.0748015
0.262129
-0.0707091
0.271887
-0.067529
0.281265
-0.0646089
0.2902
-0.0612191
0.298484
-0.0552118
0.305849
-0.0471296
0.312214
-0.0395547
0.317589
-0.0322242
0.322002
-0.0252676
0.325447
-0.0185386
0.327966
-0.0121179
0.329606
-0.00592576
0.330368
3.18454e-05
0.330284
0.00593476
0.329307
0.0120279
0.327325
0.0189112
0.32401
0.028622
0.318637
0.0432552
0.309368
0.0841808
0.292325
0.155273
-0.194771
0.223391
-0.215525
0.252335
-0.219945
0.285163
-0.238297
0.313897
-0.213444
0.342138
-0.207395
0.36955
-0.197242
0.394334
-0.177005
0.41712
-0.160849
0.438093
-0.143139
0.456834
-0.125101
0.473724
-0.108941
0.488833
-0.0927044
0.502175
-0.0774527
0.513758
-0.0626645
0.523582
-0.0478017
0.53167
-0.0333949
0.537887
-0.0183914
0.542188
-0.00364459
0.544561
0.0119535
0.54496
0.0272169
0.543465
0.0430492
0.540117
0.0574552
0.535083
0.0703626
0.528677
0.0790454
0.521231
0.0820522
0.512952
0.0840042
0.503892
0.087542
0.494124
0.0911167
0.483711
0.0951576
0.472644
0.099729
0.460933
0.104742
0.448581
0.110353
0.435534
0.117097
0.421675
0.125854
0.406786
0.13832
0.390229
0.159537
0.371117
0.194096
0.345085
0.286444
0.304748
0.387301
-0.166362
-0.218503
-0.13712
-0.229911
-0.100387
-0.282277
-0.0640006
-0.288928
-0.0266996
-0.30004
0.0115887
-0.310486
0.0483323
-0.302901
0.0808834
-0.277314
0.109442
-0.249979
0.13459
-0.223693
0.156072
-0.194943
0.174592
-0.16992
0.19101
-0.149871
0.20573
-0.132441
0.219188
-0.11857
0.231747
-0.1074
0.24359
-0.0983631
0.254851
-0.0911457
0.265637
-0.0855871
0.276035
-0.0811066
0.286076
-0.0775708
0.295726
-0.0742589
0.304968
-0.0704608
0.313604
-0.063848
0.321359
-0.0548849
0.328077
-0.0462725
0.333809
-0.037956
0.338525
-0.0299834
0.342271
-0.0222848
0.345044
-0.0148911
0.346873
-0.00775493
0.347794
-0.000889199
0.347796
0.00593324
0.346863
0.0129608
0.34488
0.0208945
0.341489
0.0320127
0.335928
0.0488164
0.326677
0.0934321
0.310236
0.171714
-0.194788
0.225022
-0.245759
0.255517
-0.250439
0.29024
-0.273021
0.320433
-0.243637
0.349963
-0.236925
0.378852
-0.226131
0.40481
-0.202963
0.428739
-0.184779
0.4507
-0.1651
0.470323
-0.144723
0.488071
-0.12669
0.504061
-0.108694
0.518111
-0.0915032
0.530415
-0.0749676
0.541105
-0.058492
0.5499
-0.0421905
0.556897
-0.0253879
0.561953
-0.00870112
0.565126
0.00878085
0.566314
0.0260295
0.565433
0.0439294
0.562736
0.0601526
0.558283
0.0748159
0.552382
0.084946
0.54529
0.0891443
0.53718
0.092114
0.528228
0.0964945
0.518478
0.100867
0.507926
0.10571
0.496679
0.110976
0.484689
0.116732
0.471932
0.123111
0.458369
0.130661
0.443878
0.140345
0.428235
0.153964
0.410822
0.176951
0.391103
0.213815
0.366568
0.31098
0.329004
0.424867
-0.165009
-0.248282
-0.134301
-0.26062
-0.0956062
-0.320972
-0.05736
-0.327174
-0.0183772
-0.339023
0.0217476
-0.350611
0.0600217
-0.341175
0.0938141
-0.311106
0.123267
-0.279432
0.149055
-0.24948
0.17086
-0.216748
0.18948
-0.188539
0.205891
-0.166283
0.220522
-0.147072
0.233872
-0.131919
0.246353
-0.119881
0.25816
-0.110171
0.26945
-0.102435
0.28036
-0.0964971
0.290923
-0.0916696
0.301148
-0.0877961
0.311074
-0.0841856
0.320622
-0.0800078
0.329588
-0.0728148
0.337692
-0.0629886
0.344794
-0.0533742
0.350858
-0.0440204
0.355918
-0.0350433
0.359948
-0.0263151
0.362974
-0.0179173
0.36503
-0.00981068
0.366095
-0.00195454
0.366217
0.00581121
0.365341
0.0138366
0.363338
0.0228969
0.359859
0.0354917
0.354177
0.0544983
0.344966
0.102643
0.329102
0.187578
-0.195429
0.227234
-0.277564
0.259307
-0.282512
0.295961
-0.309675
0.327838
-0.275514
0.358986
-0.268074
0.38935
-0.256495
0.416455
-0.230069
0.441616
-0.20994
0.464616
-0.1881
0.485183
-0.16529
0.503725
-0.145232
0.520351
-0.12532
0.535203
-0.106355
0.548353
-0.0881173
0.559633
-0.0697728
0.569206
-0.0517634
0.576924
-0.0331053
0.582769
-0.0145469
0.586603
0.00494756
0.588461
0.0241717
0.5883
0.0440903
0.586181
0.0622712
0.582308
0.0786892
0.576918
0.0903359
0.570227
0.0958356
0.562422
0.0999186
0.55359
0.105327
0.543811
0.110645
0.533211
0.116309
0.521749
0.122438
0.509488
0.128993
0.496401
0.136198
0.482406
0.144656
0.467366
0.155385
0.451022
0.170307
0.432802
0.195171
0.412027
0.23459
0.387809
0.335199
0.352081
0.460597
-0.163974
-0.279737
-0.131758
-0.292835
-0.0909878
-0.361742
-0.0508102
-0.367352
-0.00986237
-0.379971
0.0321292
-0.392602
0.0721676
-0.381213
0.107351
-0.34629
0.137871
-0.309953
0.164373
-0.275982
0.186645
-0.239019
0.205477
-0.207371
0.221958
-0.182763
0.236533
-0.161647
0.249786
-0.145173
0.262168
-0.132262
0.27391
-0.121913
0.285203
-0.113727
0.296141
-0.107435
0.306816
-0.102344
0.317245
-0.0982251
0.327394
-0.0943353
0.337198
-0.0898118
0.346494
-0.0821108
0.354949
-0.0714436
0.362403
-0.060828
0.368835
-0.0504523
0.374218
-0.0404259
0.378564
-0.0306614
0.381852
-0.0212056
0.384108
-0.0120666
0.385368
-0.00321448
0.385598
0.0055816
0.384787
0.0146479
0.382774
0.0249092
0.379245
0.0390215
0.373426
0.0603171
0.364273
0.111796
0.349045
0.202806
-0.196389
0.229995
-0.31117
0.263828
-0.316346
0.302522
-0.348369
0.336002
-0.308993
0.368764
-0.300836
0.400715
-0.288445
0.429331
-0.258684
0.455629
-0.236238
0.479704
-0.212175
0.501177
-0.186763
0.52062
-0.164675
0.538113
-0.142812
0.553582
-0.121825
0.567355
-0.10189
0.579411
-0.081828
0.589671
-0.0620237
0.598048
-0.0414826
0.604528
-0.021026
0.609042
0.000433482
0.61159
0.0216238
0.612105
0.0435754
0.610649
0.0637267
0.607359
0.0819798
0.602467
0.0952279
0.596164
0.102138
0.588634
0.107448
0.579955
0.114006
0.570249
0.120351
0.559556
0.127002
0.547948
0.134046
0.535427
0.141514
0.521984
0.149641
0.507588
0.159052
0.492036
0.170937
0.475078
0.187266
0.456153
0.214096
0.434353
0.25639
0.409706
0.359846
0.375075
0.49523
-0.163296
-0.31283
-0.12935
-0.326781
-0.0864474
-0.404645
-0.0441783
-0.409621
-0.00118644
-0.422963
0.0428557
-0.436644
0.0848361
-0.423194
0.121517
-0.382971
0.15321
-0.341645
0.180615
-0.303387
0.203462
-0.261866
0.222607
-0.226516
0.23919
-0.199346
0.253774
-0.176231
0.266953
-0.158352
0.279241
-0.144551
0.290889
-0.133561
0.302129
-0.124968
0.313095
-0.1184
0.323832
-0.113081
0.33438
-0.108774
0.344711
-0.104666
0.354789
-0.0998899
0.364386
-0.0917072
0.373179
-0.0802372
0.380986
-0.0686345
0.387756
-0.0572227
0.393486
-0.0461556
0.398116
-0.0352915
0.401688
-0.0247772
0.40418
-0.0145588
0.405608
-0.00464313
0.405983
0.00520694
0.405223
0.015407
0.403227
0.0269053
0.399636
0.0426122
0.39371
0.0662426
0.38468
0.120826
0.370108
0.217378
-0.197851
0.233165
-0.346484
0.268861
-0.352041
0.309714
-0.389223
0.34505
-0.344328
0.379567
-0.335353
0.41316
-0.322038
0.443197
-0.288722
0.470834
-0.263875
0.495973
-0.237314
0.518434
-0.209225
0.538715
-0.184955
0.556947
-0.161045
0.573239
-0.138117
0.587719
-0.11637
0.600391
-0.0945004
0.611247
-0.07288
0.620296
-0.0505316
0.627464
-0.0281938
0.632638
-0.00474066
0.635757
0.0185052
0.636901
0.0424313
0.636028
0.0646
0.633302
0.0847061
0.628958
0.0995721
0.623148
0.107948
0.615915
0.11468
0.607441
0.12248
0.59779
0.130003
0.587052
0.13774
0.575307
0.145791
0.562559
0.154262
0.548786
0.163414
0.533945
0.173894
0.517881
0.187001
0.500329
0.204817
0.480752
0.233672
0.458141
0.279002
0.432829
0.385159
0.398852
0.529208
-0.162837
-0.347844
-0.127232
-0.362386
-0.0819614
-0.449916
-0.037502
-0.454081
0.0077354
-0.4682
0.054043
-0.482952
0.0979874
-0.467138
0.136372
-0.421356
0.169363
-0.374637
0.197774
-0.331797
0.221292
-0.285384
0.240836
-0.24606
0.257645
-0.216156
0.272286
-0.190872
0.285423
-0.171488
0.297624
-0.156752
0.309177
-0.145113
0.32034
-0.136132
0.331264
-0.129324
0.342037
-0.123855
0.35267
-0.119407
0.363169
-0.115165
0.373455
-0.110176
0.383344
-0.101596
0.392453
-0.0893463
0.400598
-0.0767793
0.407711
-0.0643361
0.41375
-0.0521942
0.418704
-0.0402459
0.422553
-0.0286265
0.425291
-0.0172965
0.426925
-0.00627741
0.42743
0.00470215
0.426761
0.0160762
0.424769
0.0288972
0.421158
0.046224
0.415153
0.072247
0.406212
0.129768
0.392346
0.231244
-0.199555
0.236816
-0.383745
0.274477
-0.389702
0.317631
-0.432377
0.354858
-0.381555
0.391159
-0.371655
0.426513
-0.357392
0.458101
-0.32031
0.487053
-0.292827
0.513428
-0.263688
0.536888
-0.232685
0.558138
-0.206205
0.577158
-0.180065
0.594163
-0.155122
0.609319
-0.131526
0.622536
-0.107717
0.634075
-0.0844194
0.643746
-0.0602026
0.651507
-0.0359542
0.657332
-0.0105663
0.661115
0.0147226
0.66284
0.0407061
0.662578
0.0648621
0.660427
0.0868568
0.656589
0.10341
0.651199
0.113339
0.644295
0.121584
0.636057
0.130718
0.626528
0.139531
0.615781
0.148487
0.60391
0.157662
0.590927
0.167246
0.576842
0.177499
0.561564
0.189172
0.545009
0.203555
0.526862
0.222966
0.50664
0.253895
0.483274
0.302368
0.457369
0.411064
0.42389
0.562688
-0.162762
-0.384637
-0.125111
-0.400037
-0.0774614
-0.497565
-0.0306248
-0.500917
0.0169241
-0.515749
0.0655625
-0.53159
0.111772
-0.513347
0.151941
-0.461525
0.186404
-0.4091
0.21592
-0.361314
0.240222
-0.309685
0.26024
-0.266079
0.277328
-0.233243
0.292074
-0.205618
0.305196
-0.18461
0.317339
-0.168895
0.328805
-0.156579
0.339862
-0.147189
0.350729
-0.140191
0.361499
-0.134625
0.372188
-0.130096
0.382796
-0.125773
0.393286
-0.120666
0.403428
-0.111737
0.412832
-0.098751
0.421298
-0.0852446
0.428743
-0.071781
0.435122
-0.0585732
0.440388
-0.0455122
0.44452
-0.0327591
0.447501
-0.0202768
0.449327
-0.00810319
0.449989
0.00403987
0.44941
0.0166547
0.447449
0.0308584
0.443811
0.0498617
0.437762
0.0782953
0.428995
0.138534
0.415821
0.244417
-0.201574
0.240943
-0.423113
0.280627
-0.429387
0.326196
-0.477945
0.365379
-0.420739
0.403614
-0.40989
0.440925
-0.394703
0.474041
-0.353426
0.504441
-0.323227
0.532177
-0.291424
0.556743
-0.257251
0.578882
-0.228344
0.598754
-0.199936
0.616392
-0.172761
0.632228
-0.147362
0.6462
-0.12169
0.658308
-0.0965268
0.668582
-0.0704768
0.676914
-0.0442863
0.683228
-0.0168807
0.687581
0.0103696
0.68992
0.0383672
0.690181
0.0646019
0.688586
0.0884517
0.685272
0.106725
0.680351
0.11826
0.673853
0.128082
0.665826
0.138745
0.656435
0.148921
0.645746
0.159176
0.633784
0.169624
0.620609
0.18042
0.606203
0.191905
0.590554
0.204821
0.573486
0.220623
0.554719
0.241732
0.533844
0.274769
0.509834
0.326378
0.483356
0.437542
0.450405
0.59564
-0.162778
-0.423433
-0.12325
-0.439565
-0.0729383
-0.547877
-0.0236179
-0.550238
0.0264219
-0.565789
0.0776281
-0.582797
0.126127
-0.561846
0.168278
-0.503675
0.204263
-0.445085
0.235043
-0.392094
0.2602
-0.334842
0.280821
-0.2867
0.298264
-0.250686
0.313182
-0.220537
0.326354
-0.197782
0.338439
-0.18098
0.349809
-0.167949
0.360788
-0.158168
0.371572
-0.150975
0.382295
-0.145347
0.393001
-0.140803
0.403711
-0.136484
0.414363
-0.131318
0.42473
-0.122104
0.434427
-0.108449
0.443193
-0.0940105
0.450956
-0.0795437
0.457643
-0.0652603
0.46322
-0.0510892
0.467627
-0.037166
0.470868
-0.0235184
0.472922
-0.0101565
0.473727
0.00323457
0.473266
0.017116
0.471353
0.0327715
0.467707
0.0535077
0.461644
0.0843586
0.453024
0.147155
0.440596
0.256845
-0.203962
0.245491
-0.464641
0.287305
-0.471201
0.335388
-0.526029
0.37664
-0.461991
0.416996
-0.450246
0.456263
-0.43397
0.491087
-0.38825
0.523048
-0.355187
0.552081
-0.320458
0.577745
-0.282915
0.600882
-0.25148
0.621632
-0.220687
0.640147
-0.191275
0.656614
-0.163829
0.671176
-0.136251
0.683868
-0.109219
0.694693
-0.0813022
0.703583
-0.053176
0.710545
-0.0238432
0.715419
0.00549648
0.718253
0.0355329
0.719099
0.0637553
0.718003
0.0895479
0.715187
0.109541
0.710705
0.122742
0.704579
0.134207
0.69686
0.146465
0.687639
0.158142
0.67699
0.169825
0.664968
0.181646
0.651634
0.193754
0.636967
0.206572
0.620905
0.220882
0.603343
0.238186
0.584003
0.261073
0.562499
0.296273
0.537822
0.351055
0.510845
0.46452
0.478441
0.628044
-0.163
-0.464395
-0.121325
-0.481239
-0.0683119
-0.600891
-0.0163619
-0.602187
0.0363226
-0.618473
0.0902158
-0.63669
0.141213
-0.612844
0.185436
-0.547898
0.223122
-0.482771
0.255226
-0.424198
0.281376
-0.360992
0.302642
-0.307965
0.320498
-0.268542
0.335654
-0.235693
0.348904
-0.211032
0.360987
-0.193063
0.372278
-0.179241
0.383156
-0.169045
0.39385
-0.161669
0.404517
-0.156015
0.415209
-0.151495
0.425964
-0.147238
0.436754
-0.142108
0.44735
-0.132699
0.457291
-0.11839
0.466334
-0.103053
0.474397
-0.0876069
0.481394
-0.072257
0.487276
-0.0569715
0.491982
-0.0418721
0.49548
-0.0270164
0.497732
-0.0124081
0.498731
0.00223533
0.498376
0.0174711
0.496527
0.0346202
0.492898
0.0571367
0.486838
0.090418
0.478428
0.155564
0.466776
0.268496
-0.206563
0.250311
-0.508389
0.294456
-0.515346
0.345223
-0.576795
0.38871
-0.505478
0.431229
-0.492765
0.472532
-0.475273
0.509215
-0.424933
0.542788
-0.388761
0.573204
-0.350874
0.600103
-0.309815
0.624376
-0.275753
0.645984
-0.242295
0.665265
-0.210556
0.682465
-0.181029
0.697626
-0.151413
0.710919
-0.122511
0.722285
-0.0926678
0.731739
-0.0626304
0.739169
-0.0312733
0.7446
6.59466e-05
0.74794
0.0321928
0.749256
0.0624398
0.748692
0.0901117
0.746352
0.111881
0.74235
0.126743
0.736595
0.139962
0.729166
0.153894
0.720141
0.167167
0.709566
0.180401
0.697536
0.193676
0.684058
0.207231
0.669143
0.221488
0.652727
0.237298
0.634693
0.25622
0.614802
0.280963
0.592629
0.318446
0.567353
0.376331
0.539918
0.491954
0.508032
0.659931
-0.163378
-0.50758
-0.119493
-0.525124
-0.0636113
-0.656773
-0.00882716
-0.656972
0.046631
-0.673931
0.103332
-0.69339
0.157035
-0.666547
0.203443
-0.594306
0.242962
-0.52229
0.276506
-0.457741
0.303704
-0.38819
0.325706
-0.329967
0.344078
-0.286914
0.359517
-0.251133
0.3729
-0.224414
0.385016
-0.205179
0.396263
-0.190487
0.407052
-0.179834
0.417648
-0.172266
0.428228
-0.166595
0.438895
-0.162162
0.449676
-0.158019
0.460573
-0.153005
0.471336
-0.143462
0.481502
-0.128556
0.49082
-0.112372
0.499163
-0.0959502
0.506468
-0.0795617
0.512635
-0.0631388
0.517627
-0.0468643
0.521384
-0.030773
0.52388
-0.0149045
0.525046
0.00106973
0.524812
0.0177053
0.523049
0.0363831
0.519448
0.0607381
0.513455
0.0964106
0.505247
0.163773
0.494352
0.279391
-0.209491
0.255641
-0.554539
0.302227
-0.561933
0.35568
-0.630248
0.401634
-0.551432
0.446322
-0.537452
0.489897
-0.518849
0.52843
-0.463465
0.563721
-0.424051
0.59568
-0.382833
0.62389
-0.338024
0.649147
-0.301011
0.671794
-0.264942
0.691841
-0.230603
0.709758
-0.198946
0.725654
-0.167309
0.739487
-0.136344
0.751431
-0.104611
0.761388
-0.0725877
0.76937
-0.0392555
0.775254
-0.00581815
0.779067
0.0283802
0.780906
0.0606011
0.780759
0.0902582
0.778883
0.113757
0.775295
0.130331
0.769923
0.145334
0.762818
0.161
0.754016
0.175968
0.743595
0.190822
0.731556
0.205715
0.717968
0.220819
0.702821
0.236635
0.686067
0.254052
0.667603
0.274684
0.647129
0.301437
0.624375
0.3412
0.598498
0.402209
0.570589
0.519864
0.539245
0.691276
-0.163964
-0.553107
-0.117697
-0.571391
-0.0587333
-0.715737
-0.0010418
-0.714663
0.05741
-0.732383
0.11712
-0.753101
0.173563
-0.72299
0.222398
-0.643141
0.263823
-0.563716
0.298957
-0.492875
0.327315
-0.416549
0.350143
-0.352795
0.369073
-0.305843
0.384859
-0.266919
0.398429
-0.237984
0.41059
-0.21734
0.421831
-0.201728
0.43253
-0.190534
0.443028
-0.182764
0.453521
-0.177087
0.464132
-0.172773
0.474916
-0.168803
0.485899
-0.163988
0.49682
-0.154383
0.507195
-0.138931
0.516739
-0.121916
0.52534
-0.104551
0.532911
-0.0871325
0.539377
-0.0696055
0.544638
-0.0521254
0.548668
-0.0348025
0.551377
-0.0176142
0.552747
-0.00030011
0.552675
0.0177776
0.550977
0.0380806
0.547469
0.0642458
0.541538
0.102342
0.533607
0.171704
0.523483
0.289515
-0.212651
0.26133
-0.603218
0.310387
-0.61099
0.366908
-0.686769
0.415174
-0.599698
0.462385
-0.584663
0.508228
-0.564691
0.54887
-0.504108
0.585892
-0.461073
0.619436
-0.416377
0.648978
-0.367567
0.675516
-0.327549
0.699093
-0.288519
0.720082
-0.251592
0.738755
-0.217618
0.755281
-0.183835
0.769734
-0.150798
0.782196
-0.117073
0.792636
-0.0830282
0.801051
-0.0476701
0.80742
-0.0121873
0.811727
0.024073
0.813939
0.0583895
0.814242
0.0899554
0.81282
0.115179
0.80965
0.133502
0.804699
0.150285
0.797911
0.167787
0.789333
0.184547
0.779027
0.201128
0.767047
0.217695
0.753384
0.234482
0.73804
0.25198
0.72098
0.271112
0.702089
0.293574
0.681123
0.322403
0.657778
0.364545
0.631343
0.428644
0.603006
0.5482
0.572163
0.722119
-0.164656
-0.601102
-0.115886
-0.620161
-0.0537053
-0.777918
0.00705238
-0.775421
0.0686431
-0.793974
0.131541
-0.815999
0.190988
-0.782437
0.242297
-0.69445
0.285794
-0.607213
0.322582
-0.529662
0.352206
-0.446172
0.375945
-0.376535
0.395503
-0.325401
0.41171
-0.283127
0.425513
-0.251787
0.437783
-0.229609
0.449017
-0.212962
0.459665
-0.201182
0.470069
-0.193168
0.48049
-0.187508
0.491017
-0.1833
0.501799
-0.179585
0.512831
-0.17502
0.523882
-0.165435
0.53444
-0.149488
0.544181
-0.131657
0.553039
-0.113409
0.560869
-0.0949628
0.567585
-0.0763212
0.573144
-0.0576848
0.577421
-0.0390788
0.580374
-0.0205671
0.581919
-0.00184513
0.581998
0.017698
0.58044
0.0396393
0.577001
0.0676848
0.571211
0.108132
0.563534
0.179381
0.554197
0.298852
-0.216103
0.267399
-0.654514
0.319129
-0.66272
0.378703
-0.746343
0.429692
-0.650687
0.479347
-0.634318
0.52772
-0.613064
0.57038
-0.546767
0.609356
-0.50005
0.644598
-0.451618
0.675626
-0.398595
0.703341
-0.355263
0.728071
-0.313249
0.749941
-0.273462
0.769409
-0.237086
0.786579
-0.201004
0.801673
-0.165892
0.814645
-0.130045
0.825572
-0.0939554
0.834493
-0.056591
0.841272
-0.0189665
0.845966
0.019379
0.848607
0.0557488
0.849311
0.0892507
0.848289
0.116201
0.845535
0.136256
0.840937
0.154884
0.834469
0.174255
0.826182
0.192833
0.81605
0.211261
0.804109
0.229636
0.790391
0.248201
0.774901
0.267469
0.757572
0.288442
0.738288
0.312857
0.716839
0.343852
0.692945
0.388439
0.665988
0.455601
0.637244
0.576944
0.606855
0.752509
-0.165463