/*--------------------------------*- C++ -*----------------------------------*\
  =========                 |
  \\      /  F ield         | OpenFOAM: The Open Source CFD Toolbox
   \\    /   O peration     | Website:  https://openfoam.org
    \\  /    A nd           | Version:  13
     \\/     M anipulation  |
\*---------------------------------------------------------------------------*/
FoamFile
{
    format      ascii;
    class       volVectorField;
    location    "200";
    object      U;
}
// * * * * * * * * * * * * * * * * * * * * * * * * * * * * * * * * * * * * * //

dimensions      [0 1 -1 0 0 0 0];

internalField   nonuniform List<vector> 
10720
(
(0.367625 28.4578 1.66113e-17)
(2.18469 30.7324 -1.54032e-17)
(4.44632 32.9183 0)
(7.03349 34.5959 -4.09366e-16)
(9.88301 35.8601 4.58612e-16)
(12.928 36.6679 3.31329e-16)
(16.0114 36.9158 4.54081e-16)
(19.0397 36.6458 0)
(21.935 35.921 0)
(24.6195 34.7806 0)
(27.0646 33.3066 1.17168e-16)
(29.2585 31.589 0)
(31.1729 29.6509 2.36762e-15)
(32.8016 27.5281 0)
(34.1333 25.2509 0)
(35.18 22.866 0)
(35.9294 20.3927 -3.99189e-15)
(36.385 17.883 -5.96769e-15)
(36.5281 15.3612 5.30977e-15)
(36.3694 12.8873 0)
(35.8914 10.4975 4.36669e-15)
(35.131 8.26515 -8.5568e-15)
(34.1358 6.2418 4.26199e-15)
(33.0157 4.49074 -1.27834e-16)
(31.9696 3.05956 0)
(31.083 1.89557 1.69109e-15)
(30.2599 0.910563 2.61701e-17)
(29.4015 0.0631509 -7.41096e-16)
(28.4707 -0.669349 -2.7057e-15)
(27.4636 -1.3016 -9.82335e-15)
(26.3835 -1.84021 4.37853e-15)
(25.2336 -2.2885 7.98363e-15)
(24.012 -2.64753 6.88727e-15)
(22.7099 -2.91784 2.35406e-14)
(21.2805 -3.09513 -9.52375e-15)
(19.6867 -3.17768 -6.73727e-17)
(17.627 -3.11262 2.1991e-17)
(15.2045 -2.89249 3.91745e-15)
(9.7876 -2.29832 1.36912e-14)
(-1.08092 26.0195 9.06454e-19)
(-2.2633 23.2623 -8.96905e-18)
(-3.11072 20.151 4.67094e-17)
(-3.4879 16.5329 -1.38882e-16)
(-3.23948 12.7871 -4.76623e-16)
(-2.32011 9.04698 8.50665e-16)
(-0.793597 5.59063 4.24799e-15)
(1.09797 2.70644 2.57164e-15)
(3.08201 0.334189 0)
(5.28651 -1.73603 0)
(7.56371 -3.29642 2.06645e-15)
(9.68163 -4.31233 7.5535e-16)
(11.5639 -4.9043 -1.25877e-15)
(13.2144 -5.19876 1.03703e-15)
(14.6572 -5.29725 1.71155e-15)
(15.9244 -5.26563 1.10335e-15)
(17.0466 -5.15309 1.40813e-15)
(18.0558 -4.98959 9.34734e-16)
(18.9828 -4.79576 0)
(19.8502 -4.57511 0)
(20.6759 -4.32948 -1.28973e-15)
(21.4712 -4.04873 -5.93491e-17)
(22.2383 -3.71758 8.73242e-16)
(22.9468 -3.30513 -6.0728e-16)
(23.531 -2.80604 2.3619e-17)
(23.9723 -2.25787 0)
(24.2963 -1.68699 1.01743e-16)
(24.5191 -1.10946 0)
(24.6471 -0.536582 0)
(24.6788 0.0202229 1.76087e-17)
(24.5919 0.552709 0)
(24.4002 1.05385 1.31807e-17)
(24.1226 1.51762 -3.45042e-17)
(23.7739 1.93867 -5.19777e-16)
(23.3491 2.3133 5.1875e-16)
(22.838 2.64243 -2.66034e-18)
(22.1153 2.91828 0)
(21.1135 3.10507 5.12357e-15)
(18.2842 3.22808 9.1774e-15)
(7.06826 24.721 -5.70032e-18)
(8.99314 26.4599 -2.50242e-18)
(11.3342 28.0318 0)
(14.0227 29.3329 0)
(16.91 30.303 -1.34629e-16)
(20.0001 30.8817 -3.17558e-16)
(23.175 31.0249 0)
(26.2995 30.7554 0)
(29.3177 30.0849 6.71533e-16)
(32.1408 29.0644 0)
(34.7146 27.7549 2.46591e-15)
(37.0095 26.2045 0)
(39.0184 24.4926 8.81224e-16)
(40.7492 22.6749 -8.68188e-16)
(42.2083 20.771 1.74684e-15)
(43.3644 18.81 -3.49326e-15)
(44.2169 16.804 3.73872e-15)
(44.7556 14.7781 3.42133e-15)
(44.9812 12.7407 3.35068e-15)
(44.8758 10.7227 2.03635e-16)
(44.4402 8.7501 -3.49858e-15)
(43.6656 6.87763 3.32207e-15)
(42.5775 5.14687 -1.87411e-16)
(41.2115 3.61567 0)
(39.6764 2.33589 0)
(38.1201 1.25419 0)
(36.6002 0.293301 1.41147e-16)
(35.1082 -0.556724 -3.15329e-17)
(33.6456 -1.29849 1.98341e-15)
(32.2074 -1.93862 3.76059e-17)
(30.7778 -2.47983 -2.97853e-17)
(29.3392 -2.92466 -8.70601e-17)
(27.8731 -3.27542 4.74124e-15)
(26.364 -3.53447 -7.95681e-15)
(24.7719 -3.70177 -4.32255e-17)
(23.0781 -3.77832 -9.20926e-15)
(21.0238 -3.7239 0)
(18.8298 -3.53726 -1.13313e-15)
(13.536 -2.77936 7.26902e-15)
(5.43735 22.8664 7.26862e-18)
(4.01798 20.8014 -3.9808e-17)
(2.76485 18.3814 -4.99343e-16)
(1.80513 15.6297 6.14725e-16)
(1.31512 12.6415 0)
(1.38095 9.5499 -1.32306e-15)
(2.03071 6.5503 -9.4826e-16)
(3.19011 3.86607 -7.354e-15)
(4.68325 1.52687 2.35117e-15)
(6.42413 -0.417673 -1.77882e-15)
(8.29961 -1.84474 2.23776e-15)
(10.1483 -2.79735 -6.3704e-16)
(11.8821 -3.39301 0)
(13.4683 -3.73098 -4.25337e-16)
(14.8984 -3.8941 5.26278e-17)
(16.1832 -3.93572 -9.48521e-16)
(17.3383 -3.9008 0)
(18.3868 -3.8149 0)
(19.3524 -3.69622 -9.81056e-17)
(20.2576 -3.54253 9.42463e-17)
(21.1178 -3.35213 -1.11453e-15)
(21.9453 -3.1086 -1.20302e-16)
(22.7419 -2.79215 5.28218e-17)
(23.4843 -2.3662 5.87322e-16)
(24.1185 -1.84364 -4.14853e-16)
(24.62 -1.29124 -3.05031e-16)
(25.0044 -0.737753 0)
(25.2848 -0.194217 0)
(25.4645 0.332987 0)
(25.549 0.835029 8.5691e-18)
(25.5674 1.30437 0)
(25.5159 1.73811 0)
(25.3839 2.13523 9.76862e-17)
(25.165 2.4947 1.95456e-16)
(24.8511 2.81814 -4.20478e-16)
(24.4509 3.11081 7.92921e-16)
(23.8631 3.37064 -2.46112e-15)
(23.2741 3.59071 -3.92616e-15)
(21.1791 3.63165 -6.18684e-15)
(8.3629 22.7631 -1.03899e-18)
(9.76256 24.2868 1.87406e-17)
(11.4594 25.7639 -1.53948e-17)
(13.4063 27.1195 -4.29861e-17)
(15.5481 28.2354 -1.76593e-16)
(17.8853 29.087 6.10901e-16)
(20.3431 29.6341 -4.27338e-16)
(22.8452 29.8402 -4.99623e-16)
(25.3367 29.7037 4.45298e-18)
(27.7596 29.2366 -6.49047e-16)
(30.0618 28.4604 6.01883e-16)
(32.2118 27.4046 -1.56328e-15)
(34.182 26.1008 -7.46381e-16)
(35.9588 24.5777 0)
(37.5247 22.8707 -1.78647e-15)
(38.8942 21.005 3.58997e-15)
(40.0724 19.001 0)
(41.0399 16.9025 -6.79835e-15)
(41.7869 14.7394 -3.39922e-15)
(42.2859 12.564 3.96344e-16)
(42.5248 10.4141 -3.92761e-16)
(42.4821 8.35785 -1.78068e-16)
(42.1594 6.4442 -2.53065e-15)
(41.5647 4.73559 1.2715e-15)
(40.7489 3.27688 0)
(39.7894 2.01195 1.11078e-15)
(38.7071 0.871946 -1.312e-16)
(37.4963 -0.14321 0)
(36.1745 -1.03026 1.74429e-15)
(34.7691 -1.79348 3.23776e-15)
(33.3009 -2.4357 -5.70812e-15)
(31.7834 -2.96092 -4.91316e-15)
(30.2194 -3.37426 -1.05535e-16)
(28.6048 -3.68046 -6.98119e-15)
(26.9051 -3.88182 -5.59797e-15)
(25.102 -3.97788 8.0313e-15)
(22.9538 -3.93566 0)
(20.6838 -3.71113 -8.8703e-16)
(15.8072 -3.02608 -1.10682e-14)
(7.21313 21.1547 -1.27023e-17)
(6.2006 19.3924 -5.06176e-17)
(5.34538 17.3141 1.97064e-16)
(4.65147 14.9816 0)
(4.26775 12.4744 3.83137e-16)
(4.24393 9.85848 0)
(4.60951 7.26086 2.71975e-15)
(5.34997 4.84582 1.63744e-15)
(6.41735 2.6948 1.53443e-15)
(7.75269 0.863282 0)
(9.23962 -0.595041 -2.25188e-15)
(10.7617 -1.69367 -4.8255e-16)
(12.2442 -2.48857 2.18363e-15)
(13.6461 -3.0378 0)
(14.948 -3.39401 -1.01638e-15)
(16.1472 -3.60197 -3.06901e-16)
(17.2495 -3.70078 1.26612e-15)
(18.2677 -3.71764 6.56092e-16)
(19.2183 -3.67193 1.80413e-16)
(20.1181 -3.56977 -9.78571e-17)
(20.9793 -3.41422 1.0159e-15)
(21.8108 -3.19726 0)
(22.6126 -2.90572 0)
(23.3654 -2.51785 2.33979e-17)
(24.0255 -2.04691 0)
(24.5693 -1.54127 6.31826e-16)
(25.0071 -1.02039 -8.2978e-18)
(25.3504 -0.492147 -3.94412e-17)
(25.6026 0.0356497 0)
(25.7655 0.552894 -2.34109e-17)
(25.8442 1.05213 3.51113e-17)
(25.8442 1.52687 0)
(25.7677 1.97106 -6.89201e-17)
(25.6148 2.3795 0)
(25.3734 2.75037 0)
(25.0428 3.08446 3.88701e-17)
(24.5111 3.38097 -5.25739e-17)
(23.8996 3.5985 3.92376e-15)
(22.0248 3.63673 1.19704e-14)
(10.9017 20.8574 -1.01748e-17)
(12.1938 22.1574 -6.62991e-18)
(13.7389 23.4207 -6.47201e-18)
(15.5121 24.573 -1.13669e-17)
(17.464 25.5237 0)
(19.6009 26.2545 0)
(21.8653 26.7222 -7.13523e-16)
(24.1949 26.8925 8.5348e-16)
(26.5426 26.7589 0)
(28.8527 26.3246 -1.03096e-15)
(31.0734 25.6045 -1.3048e-15)
(33.1664 24.622 -1.23248e-15)
(35.0975 23.4075 1.46795e-15)
(36.8399 21.9944 1.38402e-15)
(38.3744 20.416 0)
(39.6859 18.7063 2.19535e-15)
(40.7465 16.9078 7.60175e-16)
(41.5466 15.0528 6.12834e-15)
(42.0837 13.1674 3.7126e-16)
(42.3631 11.2802 -3.68138e-16)
(42.3925 9.42245 3.11162e-15)
(42.1872 7.63859 -5.09569e-16)
(41.775 5.96934 2.77423e-15)
(41.192 4.45927 1.15806e-15)
(40.4942 3.14019 -6.85527e-17)
(39.7384 1.97487 -1.00491e-15)
(38.9278 0.908813 7.41863e-18)
(38.0295 -0.0624077 -7.44278e-18)
(37.0242 -0.935212 -1.67126e-15)
(35.9057 -1.71005 -4.42429e-17)
(34.6714 -2.38307 2.79042e-15)
(33.3243 -2.94993 -4.74791e-15)
(31.8689 -3.40787 -3.8339e-15)
(30.3102 -3.75547 -1.93185e-18)
(28.6265 -3.99106 5.09237e-15)
(26.8086 -4.10897 0)
(24.6372 -4.07981 4.17944e-15)
(22.2983 -3.81363 7.68102e-16)
(17.674 -3.1673 4.61575e-15)
(9.81169 19.495 -2.54246e-17)
(8.83052 18.0146 6.57724e-17)
(7.96488 16.2668 2.95162e-16)
(7.23457 14.2894 0)
(6.76686 12.1547 -3.41884e-16)
(6.6003 9.90602 0)
(6.76077 7.6417 -2.1851e-15)
(7.2358 5.49322 -1.01293e-16)
(7.99619 3.53075 1.12167e-15)
(9.00375 1.80713 9.98691e-16)
(10.1741 0.374784 3.58566e-17)
(11.4247 -0.756576 1.68527e-15)
(12.6939 -1.6156 -1.09515e-15)
(13.9374 -2.24222 3.47174e-16)
(15.1273 -2.67637 1.18441e-15)
(16.2506 -2.95765 1.30364e-15)
(17.3038 -3.12056 -1.1682e-15)
(18.2905 -3.19244 5.4295e-18)
(19.2199 -3.19327 0)
(20.1034 -3.13267 1.21401e-15)
(20.9504 -3.01413 5.94144e-17)
(21.7669 -2.83233 -9.11916e-16)
(22.5524 -2.57649 0)
(23.2903 -2.22988 2.21158e-17)
(23.9445 -1.79975 0)
(24.4917 -1.32461 -2.97098e-16)
(24.9378 -0.827297 0)
(25.2929 -0.319618 3.70119e-17)
(25.5608 0.188315 -1.16244e-18)
(25.7441 0.686022 6.53004e-19)
(25.8468 1.16449 -3.18159e-17)
(25.8745 1.61622 -1.04783e-18)
(25.8302 2.03712 0)
(25.7158 2.4247 1.7645e-16)
(25.5217 2.77904 3.29526e-18)
(25.247 3.10013 -8.00826e-16)
(24.7856 3.38859 5.0023e-15)
(24.2279 3.57588 1.19743e-17)
(22.5326 3.60329 0)
(12.4693 19.4018 -1.45492e-17)
(13.5665 20.5529 -6.22987e-19)
(14.8852 21.6933 -1.07984e-17)
(16.3907 22.7594 1.62878e-16)
(18.0409 23.6682 -5.54036e-17)
(19.8574 24.414 -1.94681e-16)
(21.7928 24.9567 3.07671e-16)
(23.7991 25.2605 0)
(25.846 25.3148 1.19521e-15)
(27.8871 25.1124 5.55559e-16)
(29.881 24.6542 0)
(31.7943 23.9504 1.18438e-15)
(33.5933 23.0178 -6.2366e-16)
(35.25 21.8756 1.73418e-15)
(36.7421 20.5464 0)
(38.0489 19.0539 -2.87906e-15)
(39.1582 17.4155 2.7356e-15)
(40.0601 15.6523 -1.67872e-16)
(40.7396 13.7965 0)
(41.1812 11.8925 2.95906e-15)
(41.3752 9.98603 -2.98656e-15)
(41.3207 8.13514 -1.52365e-16)
(41.0354 6.39288 -2.32034e-15)
(40.5548 4.81107 -2.12998e-15)
(39.9391 3.42551 0)
(39.2552 2.20902 0)
(38.5284 1.1099 -2.30176e-16)
(37.7473 0.114865 -2.57734e-17)
(36.903 -0.777798 1.58937e-15)
(35.9889 -1.57271 -4.21889e-17)
(34.9919 -2.2703 4.21244e-17)
(33.8954 -2.8682 4.44527e-15)
(32.6806 -3.36321 0)
(31.3325 -3.75099 1.23836e-14)
(29.818 -4.02573 -4.26406e-17)
(28.1243 -4.17521 0)
(26.0493 -4.17025 -3.20367e-17)
(23.7532 -3.88335 0)
(19.3496 -3.25521 -3.92283e-15)
(11.538 18.2018 2.41375e-17)
(10.6972 16.9104 -1.57055e-16)
(9.93466 15.385 1.73412e-16)
(9.26328 13.6611 2.7829e-16)
(8.79564 11.8056 -1.09879e-15)
(8.5609 9.84169 -1.42343e-15)
(8.59011 7.84421 1.74454e-15)
(8.88174 5.92137 -1.92441e-15)
(9.42149 4.13817 -8.67605e-16)
(10.1841 2.54122 -7.71952e-16)
(11.1077 1.17301 1.48887e-15)
(12.1307 0.0491942 -1.43111e-15)
(13.2047 -0.845317 -6.27508e-16)
(14.2897 -1.53601 6.10531e-16)
(15.3564 -2.04855 -1.32754e-15)
(16.3876 -2.41284 2.43052e-16)
(17.3742 -2.65549 0)
(18.3138 -2.79918 -9.24852e-16)
(19.2096 -2.86126 3.27217e-16)
(20.0681 -2.85217 -1.27028e-15)
(20.8953 -2.7761 0)
(21.6945 -2.63042 7.90314e-16)
(22.4637 -2.40755 6.21521e-16)
(23.1882 -2.09656 -4.72124e-16)
(23.8371 -1.70337 0)
(24.3876 -1.26001 -3.1448e-16)
(24.8413 -0.790198 0)
(25.2059 -0.305932 0)
(25.4849 0.183101 0)
(25.6803 0.666591 3.91008e-17)
(25.7961 1.13546 0)
(25.8372 1.58293 0)
(25.807 2.00382 -1.55022e-16)
(25.708 2.39382 -1.67539e-16)
(25.5321 2.75121 0)
(25.2804 3.07363 -8.33155e-16)
(24.8551 3.36114 6.28707e-17)
(24.3447 3.53084 0)
(22.8404 3.54564 -5.19903e-15)
(13.954 18.1272 1.73865e-17)
(14.9474 19.1469 -1.23813e-17)
(16.1371 20.1637 0)
(17.4901 21.1183 8.12088e-18)
(18.9658 21.9373 -1.33068e-16)
(20.5944 22.621 1.83553e-16)
(22.3348 23.1312 4.54017e-17)
(24.1479 23.4361 -7.67251e-16)
(26.0128 23.5225 -9.3008e-17)
(27.8908 23.3798 1.14059e-15)
(29.7463 23.0039 -4.06625e-16)
(31.5493 22.3985 9.15176e-16)
(33.2664 21.5734 4.57724e-16)
(34.8685 20.5427 3.3177e-16)
(36.33 19.3248 0)
(37.6272 17.9415 -6.24721e-16)
(38.7389 16.4185 -1.37789e-15)
(39.6408 14.7931 -5.09639e-15)
(40.3156 13.0992 1.50271e-15)
(40.7542 11.3679 -1.9074e-15)
(40.9522 9.6338 -2.9878e-16)
(40.9135 7.93831 0)
(40.6542 6.3246 2.07746e-15)
(40.2057 4.83536 1.32334e-16)
(39.6189 3.50322 -5.90812e-17)
(38.9514 2.31531 -8.23146e-16)
(38.2318 1.23397 1.89812e-16)
(37.4598 0.248619 3.97166e-16)
(36.636 -0.639606 -1.48632e-15)
(35.7656 -1.43363 -7.93955e-17)
(34.8478 -2.13501 2.53104e-15)
(33.8745 -2.74302 4.11117e-15)
(32.8285 -3.25593 0)
(31.6859 -3.66984 -1.85871e-17)
(30.3973 -3.97763 -4.63565e-15)
(28.9299 -4.16159 0)
(27.0735 -4.19014 -7.39857e-15)
(24.9668 -3.90438 0)
(20.8582 -3.30692 3.55676e-15)
(13.1023 17.0681 -2.43438e-17)
(12.3295 15.9357 6.41307e-17)
(11.6147 14.5948 0)
(10.9713 13.076 0)
(10.499 11.4424 4.72269e-16)
(10.2177 9.70711 2.36022e-15)
(10.1565 7.92771 0)
(10.32 6.197 -1.40891e-15)
(10.7001 4.57658 -1.35321e-15)
(11.2772 3.10362 1.36115e-15)
(12.0063 1.81225 -5.49141e-17)
(12.8411 0.721031 5.94106e-16)
(13.7448 -0.177124 2.93951e-17)
(14.6842 -0.897788 1.57145e-15)
(15.6318 -1.45653 1.41054e-15)
(16.5697 -1.87478 -1.3242e-15)
(17.4857 -2.17267 1.86557e-16)
(18.3731 -2.36871 -3.46882e-16)
(19.2303 -2.47791 1.6056e-16)
(20.0594 -2.51045 9.33661e-16)
(20.8628 -2.47121 1.20843e-16)
(21.6415 -2.35953 -8.77082e-17)
(22.392 -2.17 -5.29785e-16)
(23.1009 -1.89531 0)
(23.7412 -1.54033 2.20904e-17)
(24.2914 -1.13101 5.85382e-16)
(24.7493 -0.690071 -3.11118e-18)
(25.1203 -0.229969 3.08561e-18)
(25.4071 0.239117 0)
(25.6115 0.706257 -3.67237e-17)
(25.7367 1.16176 0)
(25.7874 1.59777 0)
(25.7666 2.0084 1.42649e-16)
(25.6768 2.38916 2.11957e-16)
(25.5103 2.73811 0)
(25.2682 3.0513 7.75592e-16)
(24.8593 3.32836 -4.64513e-15)
(24.3686 3.4746 2.15584e-17)
(23.019 3.46666 4.75596e-15)
(15.1616 17.0438 -2.46367e-19)
(16.056 17.9588 -1.21023e-17)
(17.1266 18.8785 -2.47576e-18)
(18.3392 19.7476 2.41319e-18)
(19.6532 20.5006 8.97216e-17)
(21.1047 21.1433 0)
(22.6564 21.6419 -3.47135e-16)
(24.2753 21.9673 9.05217e-18)
(25.949 22.1078 -3.436e-16)
(27.6447 22.0511 -6.93817e-16)
(29.3338 21.7899 0)
(30.9922 21.3227 -1.66506e-15)
(32.5894 20.6533 -1.42581e-15)
(34.0981 19.7893 -3.46119e-15)
(35.4932 18.7429 0)
(36.7495 17.5306 -2.12525e-15)
(37.8439 16.1728 -2.22522e-15)
(38.7579 14.6888 2.40514e-15)
(39.4747 13.103 -2.36444e-15)
(39.9788 11.4495 2.18896e-15)
(40.2596 9.76781 2.68614e-16)
(40.3138 8.10569 -2.31244e-15)
(40.1505 6.51133 0)
(39.7943 5.02957 -1.98147e-15)
(39.2867 3.69276 1.1619e-16)
(38.6778 2.49444 8.62036e-16)
(37.9972 1.4042 0)
(37.2502 0.410985 -2.95175e-17)
(36.441 -0.484368 6.32646e-17)
(35.5786 -1.28437 2.43176e-15)
(34.6701 -1.99096 -2.25412e-15)
(33.7182 -2.6043 -3.91547e-15)
(32.7196 -3.12403 3.31959e-15)
(31.665 -3.54858 -6.12605e-17)
(30.5165 -3.87296 4.44398e-15)
(29.2463 -4.07968 6.20938e-15)
(27.6433 -4.13783 3.59417e-15)
(25.838 -3.86508 -1.13433e-17)
(22.1508 -3.31618 -3.60621e-18)
(14.3891 16.0957 9.88353e-18)
(13.6851 15.0881 1.26039e-16)
(13.0217 13.8931 1.73345e-16)
(12.4116 12.5381 -3.24608e-16)
(11.9451 11.0831 -1.2964e-15)
(11.6371 9.53383 4.26873e-16)
(11.5142 7.93474 1.11124e-15)
(11.5862 6.36831 2.89497e-15)
(11.8486 4.89316 1.17e-15)
(12.2847 3.53718 -1.09749e-15)
(12.861 2.32839 -3.78271e-17)
(13.5421 1.28518 -5.32439e-16)
(14.3002 0.403744 0)
(15.1084 -0.325471 -2.58194e-17)
(15.9432 -0.911384 -8.69474e-16)
(16.7878 -1.36885 3.80148e-16)
(17.6294 -1.71219 -3.72734e-16)
(18.4586 -1.95508 0)
(19.2708 -2.10927 5.66037e-16)
(20.0646 -2.1835 -9.884e-16)
(20.8395 -2.18219 0)
(21.5941 -2.10559 7.25418e-16)
(22.3237 -1.95013 0)
(23.0155 -1.71122 -2.76243e-17)
(23.6459 -1.39325 2.73377e-17)
(24.1939 -1.01752 -2.86255e-16)
(24.6546 -0.605259 -5.17898e-18)
(25.0312 -0.169505 -3.14769e-18)
(25.3255 0.279099 8.30817e-19)
(25.5386 0.729379 -4.74238e-17)
(25.6732 1.17121 -6.82699e-17)
(25.7332 1.59647 1.05176e-16)
(25.7213 1.99884 2.951e-18)
(25.6399 2.37304 2.59272e-17)
(25.4813 2.71622 0)
(25.2464 3.02232 1.48425e-17)
(24.8494 3.28982 2.14815e-15)
(24.3695 3.41422 -1.04586e-17)
(23.1369 3.37989 4.35108e-15)
(16.2183 16.0908 3.71111e-18)
(17.038 16.9161 1.80887e-17)
(18.0178 17.7495 0)
(19.1232 18.5389 -2.53254e-17)
(20.3141 19.2252 3.75755e-17)
(21.6291 19.8181 0)
(23.0345 20.2865 -1.29159e-16)
(24.5014 20.6044 9.99286e-16)
(26.0229 20.7614 -1.3753e-15)
(27.572 20.745 4.38793e-16)
(29.1249 20.5462 5.91204e-16)
(30.6623 20.1605 2.12202e-15)
(32.1576 19.5877 1.51449e-15)
(33.5856 18.8306 1.79961e-15)
(34.9217 17.8969 4.73967e-16)
(36.1406 16.7987 1.56296e-15)
(37.2184 15.552 2.13768e-15)
(38.1328 14.1786 2.06184e-15)
(38.8616 12.7085 -1.51438e-15)
(39.3887 11.1725 -4.62936e-15)
(39.7036 9.60486 0)
(39.8037 8.04501 8.48577e-17)
(39.6971 6.53485 1.80031e-15)
(39.4048 5.11421 1.88602e-15)
(38.9614 3.81329 -1.07084e-16)
(38.4084 2.63292 -7.78173e-16)
(37.7734 1.55228 5.57644e-18)
(37.0639 0.563005 -3.95068e-16)
(36.2841 -0.332758 4.15698e-17)
(35.4422 -1.13551 -4.56236e-15)
(34.5454 -1.84605 -7.72528e-18)
(33.5989 -2.46366 -6.15657e-17)
(32.6046 -2.9875 -3.19209e-15)
(31.5635 -3.41595 -6.09485e-17)
(30.454 -3.74517 -4.14996e-15)
(29.2724 -3.95901 -1.18711e-14)
(27.8393 -4.03203 3.40426e-15)
(26.3289 -3.76911 6.51449e-16)
(23.1612 -3.27616 2.85532e-15)
(15.5054 15.2372 -4.55411e-17)
(14.8539 14.3338 -1.71932e-16)
(14.231 13.2603 -1.25914e-16)
(13.6493 12.041 -3.2154e-16)
(13.1908 10.7338 7.24875e-16)
(12.867 9.33875 -5.24895e-17)
(12.7019 7.89112 -2.84616e-15)
(12.7077 6.46628 -9.98342e-16)
(12.882 5.11948 1.38993e-17)
(13.2102 3.87094 0)
(13.6661 2.74434 -9.40288e-16)
(14.2221 1.75667 8.79547e-16)
(14.8568 0.905131 -8.49258e-16)
(15.5493 0.183459 -4.35717e-16)
(16.2803 -0.41297 3.65165e-16)
(17.0352 -0.894297 3.62784e-16)
(17.8018 -1.26988 1.30576e-15)
(18.57 -1.54906 -3.09316e-16)
(19.3333 -1.74045 -5.28833e-16)
(20.0878 -1.85099 0)
(20.8306 -1.88431 -8.06555e-16)
(21.5582 -1.84103 -6.02186e-16)
(22.2649 -1.71867 -1.19367e-17)
(22.938 -1.51459 -6.51384e-17)
(23.5564 -1.23288 -2.15334e-17)
(24.1 -0.890782 3.29679e-16)
(24.5616 -0.507886 -6.44901e-18)
(24.9423 -0.0974963 5.20222e-17)
(25.2428 0.329485 9.37171e-18)
(25.4637 0.76177 4.34599e-17)
(25.6069 1.18889 -1.0221e-17)
(25.6758 1.60223 -2.28293e-16)
(25.6727 1.99484 -2.13468e-16)
(25.5996 2.3608 -2.1178e-16)
(25.4489 2.69647 -9.1794e-18)
(25.2212 2.99397 5.12637e-18)
(24.8359 3.25037 -2.15675e-15)
(24.3678 3.35401 -3.00657e-15)
(23.2329 3.2938 -4.00029e-15)
(17.1321 15.2478 -1.13391e-17)
(17.8877 15.9968 -6.38715e-18)
(18.7897 16.756 -8.62363e-18)
(19.8035 17.4767 -4.03992e-17)
(20.8893 18.1047 6.97943e-17)
(22.0869 18.6526 -1.56247e-16)
(23.365 19.0924 4.91001e-16)
(24.6979 19.4008 0)
(26.0827 19.5697 4.19743e-16)
(27.4962 19.5867 1.07924e-17)
(28.9193 19.4427 -5.07827e-16)
(30.3371 19.1319 -1.95682e-15)
(31.7266 18.6512 -7.91347e-16)
(33.0654 18.0004 0)
(34.3311 17.1832 0)
(35.4992 16.2076 0)
(36.5456 15.0864 0)
(37.4477 13.837 -1.99745e-15)
(38.1852 12.48 1.98159e-15)
(38.7397 11.0429 1.93828e-15)
(39.0981 9.55892 -1.55898e-15)
(39.2544 8.06764 1.36632e-15)
(39.2125 6.61097 -1.40778e-15)
(38.9889 5.22871 -1.02991e-16)
(38.6122 3.95044 -4.68615e-17)
(38.1178 2.78093 7.87873e-16)
(37.5321 1.70595 1.69526e-16)
(36.8654 0.718863 0)
(36.1229 -0.17785 0)
(35.3123 -0.983466 3.82571e-17)
(34.4402 -1.6981 0)
(33.511 -2.3204 3.39919e-15)
(32.5263 -2.84874 -3.02087e-15)
(31.4887 -3.28057 -4.87557e-15)
(30.3822 -3.61176 7.74681e-15)
(29.2174 -3.82486 5.6557e-15)
(27.8477 -3.89961 -3.25205e-15)
(26.5154 -3.6328 -1.2664e-15)
(23.8623 -3.18511 -2.73762e-15)
(16.471 14.4739 0)
(15.8652 13.6577 4.8072e-17)
(15.2786 12.6861 2.40108e-16)
(14.7237 11.5808 -1.03924e-15)
(14.2761 10.3978 9.1555e-16)
(13.9437 9.13264 -7.47969e-16)
(13.7498 7.81381 6.98398e-18)
(13.7073 6.51187 7.57908e-16)
(13.8148 5.27835 8.0658e-16)
(14.0596 4.12778 0)
(14.4205 3.08016 3.90256e-16)
(14.8747 2.15099 -1.19334e-15)
(15.4059 1.33737 1.89553e-15)
(15.9978 0.634551 3.46026e-16)
(16.6347 0.0400504 -7.0486e-16)
(17.3052 -0.452823 -6.57261e-16)
(17.9983 -0.849845 -6.04926e-16)
(18.7043 -1.15682 0)
(19.4161 -1.37931 0)
(20.128 -1.52208 0)
(20.8354 -1.58768 7.5817e-16)
(21.5332 -1.57647 0)
(22.2148 -1.48659 -4.90297e-16)
(22.8677 -1.3166 -6.2777e-17)
(23.4723 -1.07018 -3.79635e-16)
(24.0094 -0.761455 -2.92428e-16)
(24.4701 -0.408141 0)
(24.8535 -0.0235523 -4.34093e-17)
(25.1593 0.381268 -9.95397e-18)
(25.3872 0.794945 1.85889e-18)
(25.5386 1.20673 1.5366e-16)
(25.6161 1.60757 -1.75283e-17)
(25.6217 1.99005 2.07311e-16)
(25.5569 2.34752 -2.48701e-16)
(25.4143 2.67551 0)
(25.1942 2.9643 -1.42338e-17)
(24.8212 3.20937 -3.38257e-17)
(24.3668 3.29413 2.8588e-15)
(23.3218 3.20998 -2.40168e-17)
(17.9354 14.4924 1.38194e-17)
(18.6373 15.175 0)
(19.4739 15.8687 3.82958e-17)
(20.411 16.5279 -3.80196e-18)
(21.4092 17.1023 -3.99448e-17)
(22.5085 17.6067 1.46698e-16)
(23.6796 18.0154 -2.17076e-16)
(24.8988 18.3081 -2.58135e-16)
(26.1664 18.4779 0)
(27.4622 18.5136 -4.39603e-16)
(28.7707 18.4062 -4.6881e-16)
(30.0807 18.1494 4.65297e-16)
(31.3723 17.7385 1.72926e-15)
(32.6268 17.1707 6.89907e-16)
(33.8237 16.4468 -2.0861e-15)
(34.9398 15.5715 -1.49891e-15)
(35.9519 14.5539 1.1779e-15)
(36.8376 13.4081 8.67501e-16)
(37.5753 12.1537 -4.33767e-16)
(38.1451 10.8168 4.32041e-16)
(38.5324 9.42761 1.09622e-15)
(38.7301 8.02106 2.0398e-16)
(38.7397 6.63516 -1.91536e-16)
(38.5742 5.30681 -1.27401e-15)
(38.2567 4.06413 0)
(37.8166 2.91512 -6.6772e-16)
(37.2782 1.85213 -3.18757e-16)
(36.6534 0.871558 -2.94038e-16)
(35.9488 -0.023116 -1.08766e-15)
(35.1719 -0.829687 4.07223e-15)
(34.3294 -1.54723 1.67703e-15)
(33.4254 -2.1737 3.90515e-18)
(32.4608 -2.70661 3.88864e-17)
(31.4368 -3.14235 0)
(30.3374 -3.47582 -3.66009e-15)
(29.1751 -3.68717 0)
(27.8199 -3.75936 0)
(26.5408 -3.47915 6.11441e-16)
(24.2968 -3.05358 4.4376e-18)
(17.3182 13.7873 -4.67772e-17)
(16.7512 13.0457 1.61509e-16)
(16.1964 12.1613 1.07304e-17)
(15.6661 11.1537 2.31245e-16)
(15.2306 10.0765 -8.40125e-16)
(14.8947 8.92222 6.30037e-16)
(14.6811 7.71434 3.59103e-17)
(14.6033 6.52009 -6.32767e-16)
(14.6598 5.38657 -6.23382e-16)
(14.8398 4.32453 -6.6633e-16)
(15.1249 3.35128 -1.32808e-15)
(15.4964 2.48071 0)
(15.9411 1.7092 -6.85188e-16)
(16.4462 1.03249 -2.4461e-17)
(16.9994 0.449373 0)
(17.5919 -0.0450163 -5.80438e-16)
(18.2146 -0.453776 -2.76853e-16)
(18.8589 -0.780104 -2.61258e-16)
(19.5177 -1.02705 9.04738e-16)
(20.1848 -1.19719 8.09825e-16)
(20.8543 -1.29163 -8.44323e-17)
(21.5201 -1.31027 6.30014e-16)
(22.1746 -1.25144 1.26099e-16)
(22.8056 -1.11422 -6.03675e-17)
(23.3947 -0.901938 3.38875e-16)
(23.9232 -0.626168 2.07147e-17)
(24.3812 -0.302593 0)
(24.7658 0.0557458 0)
(25.0757 0.437732 -1.94906e-18)
(25.3099 0.832016 4.93902e-18)
(25.4689 1.22766 -1.6911e-16)
(25.5547 1.61518 -1.70746e-17)
(25.5688 1.98675 2.64596e-16)
(25.5124 2.33496 2.38186e-16)
(25.378 2.65455 1.07428e-17)
(25.1659 2.93408 3.62784e-18)
(24.8061 3.1674 4.00709e-15)
(24.3668 3.23474 -2.73058e-15)
(23.4075 3.12921 2.24144e-17)
(18.6448 13.8101 5.27805e-18)
(19.3001 14.4347 0)
(20.0802 15.0705 -2.55679e-17)
(20.951 15.6748 0)
(21.8736 16.2012 -8.75309e-17)
(22.8882 16.6653 8.48227e-17)
(23.9663 17.0441 1.65573e-16)
(25.0867 17.3194 2.43558e-16)
(26.251 17.4856 0)
(27.4416 17.533 -2.93952e-16)
(28.6462 17.4534 4.80717e-16)
(29.8564 17.2401 -9.84026e-16)
(31.0553 16.8878 -5.49423e-16)
(32.227 16.3924 -5.56894e-16)
(33.3536 15.7523 1.32982e-15)
(34.4139 14.9697 1.43375e-15)
(35.386 14.0507 -1.53118e-15)
(36.2479 13.0064 -1.51804e-15)
(36.9785 11.8525 0)
(37.5579 10.611 3.96902e-16)
(37.97 9.30878 -7.68442e-16)
(38.2055 7.97888 1.89336e-16)
(38.2634 6.65728 4.22922e-18)
(38.1527 5.37923 3.01393e-15)
(37.8919 4.1717 -1.64782e-16)
(37.5048 3.04464 9.98788e-17)
(37.0133 1.99538 2.95998e-16)
(36.4303 1.02307 3.1338e-16)
(35.7634 0.132044 9.40116e-16)
(35.0203 -0.674117 -1.88297e-15)
(34.2082 -1.39346 -1.54442e-15)
(33.3314 -2.02327 -6.05971e-15)
(32.391 -2.5603 5.22172e-15)
(31.3876 -2.99993 -7.39912e-17)
(30.3052 -3.33617 3.423e-15)
(29.1536 -3.54655 -1.07158e-16)
(27.8127 -3.61646 5.97386e-17)
(26.5259 -3.32291 3.92485e-18)
(24.5543 -2.89637 -2.11111e-15)
(18.066 13.165 2.27269e-17)
(17.5332 12.4878 -8.39146e-17)
(17.007 11.6789 1.66522e-16)
(16.4994 10.7558 0)
(16.0767 9.77015 4.91508e-16)
(15.7411 8.7116 0)
(15.5143 7.60065 0)
(15.4105 6.50114 0)
(15.428 5.45634 1.16109e-15)
(15.557 4.47425 -5.75856e-16)
(15.7817 3.57017 6.50443e-16)
(16.0857 2.75659 0)
(16.4582 2.029 0)
(16.889 1.38298 -5.9246e-16)
(17.3683 0.817855 0)
(17.8898 0.329867 5.40844e-16)
(18.4463 -0.0827663 1.26484e-17)
(19.0307 -0.42114 0)
(19.6365 -0.686214 -6.46836e-16)
(20.2574 -0.878802 -9.60164e-16)
(20.8871 -0.998662 -6.69766e-16)
(21.5187 -1.04486 -5.8479e-16)
(22.1444 -1.01544 1.00443e-15)
(22.7521 -0.909627 0)
(23.324 -0.730272 3.39532e-16)
(23.8421 -0.486728 3.16806e-16)
(24.2955 -0.192781 1.20032e-16)
(24.6799 0.13905 0)
(24.9927 0.497718 -9.37957e-18)
(25.2322 0.871959 -5.86943e-17)
(25.3982 1.25076 1.77502e-16)
(25.492 1.62429 -1.65906e-17)
(25.5144 1.98429 -2.42459e-16)
(25.4663 2.32269 2.62806e-16)
(25.3404 2.63336 -2.05088e-18)
(25.1367 2.9033 1.04898e-17)
(24.7908 3.12454 -3.90367e-15)
(24.3678 3.17618 2.55773e-15)
(23.4907 3.05212 6.24267e-15)
(19.276 13.1891 2.17286e-18)
(19.8904 13.7625 -1.53571e-17)
(20.621 14.3468 0)
(21.4341 14.9017 -9.63387e-20)
(22.2914 15.3844 0)
(23.2324 15.8109 0)
(24.2299 16.1606 1.84903e-17)
(25.2639 16.4171 2.10365e-16)
(26.3375 16.5761 4.84228e-16)
(27.4351 16.6291 1.22708e-15)
(28.5465 16.5687 6.90385e-16)
(29.6657 16.3887 7.93431e-16)
(30.7786 16.0833 0)
(31.872 15.6475 1.53328e-15)
(32.9302 15.0784 -5.42358e-16)
(33.9343 14.376 0)
(34.864 13.5439 1.27864e-15)
(35.6983 12.5904 1.45458e-15)
(36.4166 11.5284 0)
(36.9991 10.3771 1.41154e-15)
(37.4283 9.16093 -1.37896e-15)
(37.6939 7.90954 0)
(37.7927 6.65573 -1.63209e-16)
(37.7306 5.43234 3.15996e-17)
(37.5217 4.26493 7.77391e-17)
(37.185 3.1647 1.16444e-15)
(36.7395 2.13298 -3.98216e-18)
(36.1981 1.17182 -3.10089e-17)
(35.5689 0.286808 -2.6102e-17)
(34.8599 -0.517238 5.71178e-17)
(34.0782 -1.23708 1.55644e-15)
(33.2289 -1.86921 5.48504e-15)
(32.3134 -2.40962 4.30803e-17)
(31.3329 -2.85273 -3.98641e-15)
(30.2719 -3.19171 -3.11159e-15)
(29.1387 -3.4018 -4.61036e-15)
(27.8244 -3.46998 -2.69453e-15)
(26.5268 -3.16933 2.15695e-17)
(24.7236 -2.72836 1.96865e-15)
(18.7308 12.5969 -5.32293e-17)
(18.2284 11.9762 -2.01842e-16)
(17.728 11.2333 4.02827e-16)
(17.2416 10.3843 0)
(16.8319 9.47846 8.04068e-16)
(16.4992 8.50367 0)
(16.2642 7.47809 -4.54039e-16)
(16.1412 6.46254 1.82622e-15)
(16.1286 5.49674 -1.41634e-15)
(16.2175 4.58705 0)
(16.3936 3.74688 1.05616e-15)
(16.6424 2.98751 1.02384e-15)
(16.9547 2.30378 0)
(17.322 1.69108 -1.01434e-15)
(17.7368 1.14859 2.46332e-16)
(18.1943 0.672798 -2.46449e-16)
(18.6895 0.262822 2.40634e-16)
(19.2166 -0.081173 4.23991e-16)
(19.7703 -0.35865 -1.50859e-17)
(20.3446 -0.568877 5.16232e-16)
(20.9333 -0.710332 1.53984e-16)
(21.5293 -0.781202 -1.46802e-16)
(22.1247 -0.779148 -4.76828e-16)
(22.7076 -0.70308 4.11289e-16)
(23.2607 -0.555177 -3.01511e-16)
(23.7665 -0.343 -3.21196e-16)
(24.2136 -0.0784348 -1.14184e-16)
(24.5962 0.22673 -1.31722e-18)
(24.9107 0.561639 1.0274e-17)
(25.1546 0.915246 5.61332e-17)
(25.327 1.27651 8.83736e-18)
(25.4282 1.63535 -1.60692e-17)
(25.4588 1.9831 2.97347e-16)
(25.4191 2.31103 -2.69555e-16)
(25.3019 2.6122 1.09778e-17)
(25.107 2.87213 -7.83473e-16)
(24.7758 3.08114 1.89616e-15)
(24.3701 3.11859 0)
(23.5715 2.97846 -5.98535e-15)
(19.8402 12.6206 8.7505e-18)
(20.4185 13.1483 0)
(21.1053 13.6863 0)
(21.8674 14.1967 -2.02315e-17)
(22.6672 14.6398 -1.95377e-17)
(23.5434 15.0318 0)
(24.4699 15.3538 0)
(25.4277 15.5912 -6.95217e-16)
(26.421 15.741 -3.47454e-17)
(27.4356 15.7957 -4.19138e-17)
(28.463 15.7488 -1.59768e-15)
(29.4993 15.5946 -4.15618e-16)
(30.5324 15.3276 7.90227e-16)
(31.5515 14.9422 -6.75158e-17)
(32.5434 14.4346 0)
(33.4912 13.8032 0)
(34.3766 13.0499 -3.5093e-15)
(35.1797 12.1801 -6.42889e-16)
(35.8809 11.2047 6.5705e-16)
(36.4609 10.1389 -1.36955e-15)
(36.9018 9.00466 2.59944e-15)
(37.192 7.82867 1.23036e-15)
(37.3262 6.64104 -1.18999e-15)
(37.3076 5.47248 -1.34195e-15)
(37.1466 4.3471 2.12536e-16)
(36.8578 3.27657 -1.14744e-15)
(36.4572 2.26517 -1.29423e-16)
(35.9573 1.31761 2.88475e-17)
(35.3661 0.44068 -2.88123e-17)
(34.6917 -0.359501 9.68095e-17)
(33.941 -1.07849 -4.00436e-17)
(33.1197 -1.7119 -2.70998e-15)
(32.2295 -2.25485 -1.0273e-16)
(31.2721 -2.70084 1.22003e-16)
(30.2339 -3.04219 0)
(29.1221 -3.25235 4.28781e-15)
(27.8416 -3.31859 2.52384e-15)
(26.5513 -3.01733 0)
(24.8622 -2.55846 0)
(19.3252 12.0754 0)
(18.8498 11.5045 1.81075e-16)
(18.3732 10.82 -6.04755e-16)
(17.9068 10.0364 -2.9505e-16)
(17.51 9.20103 -7.32374e-16)
(17.182 8.30011 0)
(16.9423 7.35042 0)
(16.8054 6.40976 -8.1732e-16)
(16.7697 5.51477 8.57034e-16)
(16.8267 4.67054 0)
(16.9636 3.88907 -4.48035e-16)
(17.1672 3.18077 -4.84109e-16)
(17.4292 2.54005 4.59023e-16)
(17.7425 1.96166 4.76992e-16)
(18.1011 1.4445 -8.86527e-16)
(18.5017 0.985179 0)
(18.9407 0.583019 -2.0152e-16)
(19.4138 0.238886 1.19958e-17)
(19.917 -0.0457678 8.96683e-16)
(20.4451 -0.26905 -1.67237e-16)
(20.9923 -0.428292 1.6041e-16)
(21.5518 -0.520854 -1.23186e-16)
(22.1157 -0.543844 1.74559e-16)
(22.6723 -0.495694 -8.35518e-16)
(23.2051 -0.377712 -2.98125e-16)
(23.6969 -0.195804 2.61022e-16)
(24.1359 0.0398526 -1.60546e-17)
(24.5152 0.31838 0)
(24.8301 0.629277 -9.71177e-18)
(25.0775 0.961761 5.9239e-17)
(25.2555 1.30488 -9.06686e-17)
(25.3638 1.64836 1.59207e-16)
(25.4023 1.98318 -6.0041e-16)
(25.3709 2.30003 6.19661e-16)
(25.2626 2.59112 -9.40637e-18)
(25.077 2.8407 7.42097e-16)
(24.7613 3.03728 3.45718e-17)
(24.3737 3.06223 -7.42921e-17)
(23.6498 2.90869 -5.3696e-15)
(20.347 12.0974 -8.47451e-18)
(20.8929 12.5841 0)
(21.5405 13.0804 0)
(22.2571 13.5504 1.71458e-17)
(23.0059 13.9572 2.0181e-17)