/*--------------------------------*- C++ -*----------------------------------*\
  =========                 |
  \\      /  F ield         | OpenFOAM: The Open Source CFD Toolbox
   \\    /   O peration     | Website:  https://openfoam.org
    \\  /    A nd           | Version:  13
     \\/     M anipulation  |
\*---------------------------------------------------------------------------*/
FoamFile
{
    format      ascii;
    class       volScalarField;
    location    "1.55";
    object      alpha.water;
}
// * * * * * * * * * * * * * * * * * * * * * * * * * * * * * * * * * * * * * //

dimensions      [];

internalField   nonuniform List<scalar> 
2268
(
2.87706e-11
6.05773e-11
9.86682e-11
1.02557e-10
1.0173e-10
1.05098e-10
1.10121e-10
1.16179e-10
1.22401e-10
1.28262e-10
1.33265e-10
1.37076e-10
1.3863e-10
1.40405e-10
1.45139e-10
1.59531e-10
1.95264e-10
2.52288e-10
3.62663e-10
6.93926e-10
1.47993e-09
2.38836e-09
2.64969e-09
7.03474e-11
3.88498e-10
3.59004e-10
3.17851e-10
2.90539e-10
2.88086e-10
3.09317e-10
3.44986e-10
3.85019e-10
4.29561e-10
4.745e-10
5.05631e-10
5.21996e-10
5.09057e-10
4.65314e-10
4.01703e-10
3.88764e-10
4.22241e-10
4.93962e-10
7.96625e-10
1.71278e-09
2.83505e-09
2.95984e-09
6.40506e-10
1.04892e-09
5.73372e-10
4.05154e-10
3.38056e-10
3.16204e-10
3.47789e-10
3.98976e-10
4.70552e-10
5.86217e-10
7.3126e-10
9.0523e-10
1.05558e-09
1.1611e-09
1.18345e-09
1.09506e-09
8.213e-10
6.35865e-10
7.29177e-10
9.1026e-10
1.81087e-09
3.0098e-09
2.97919e-09
2.85078e-10
2.85255e-10
2.84321e-10
2.85242e-10
2.84383e-10
2.83552e-10
2.83876e-10
2.79104e-10
2.83306e-10
2.79116e-10
2.8179e-10
4.78315e-10
8.5748e-10
1.17769e-09
1.50354e-09
1.6648e-09
1.44535e-09
8.80573e-10
8.17365e-10
9.90493e-10
1.5491e-09
2.75059e-09
2.23606e-09
0.176939
0.176455
0.164397
0.139325
0.110968
0.0841608
0.0593623
0.0364864
0.0169372
0.00364611
2.81668e-10
4.39834e-10
2.81699e-10
4.26818e-10
5.34714e-10
6.83836e-10
7.15309e-10
6.29928e-10
7.13114e-10
9.48916e-10
1.55067e-09
2.00599e-09
8.39366e-10
0.947239
0.926004
0.907645
0.883419
0.853246
0.817368
0.772684
0.713861
0.633813
0.523605
0.375296
0.227614
0.109316
0.0278764
0.000369441
6.15012e-10
5.85485e-12
1.02556e-10
1.70795e-10
1.09905e-10
1.83247e-10
4.87743e-10
2.15285e-10
1
1
1
1
1
1
1
1
1
1
1
0.968307
0.86932
0.692641
0.417186
0.126878
2.85437e-08
4.97405e-17
-1.24974e-08
-1.18109e-08
-9.79443e-09
-6.18273e-09
-2.42294e-09
1
1
1
1
1
1
1
1
1
1
1
1
1
1
0.999883
0.934925
0.677705
0.284022
0.0190371
5.57092e-20
-5.32978e-09
-4.76349e-09
-1.87551e-09
0.0201661
0.0357119
0.0461646
0.0246146
0.0043224
0.00270096
0.00238956
0.0017823
0.00120171
0.00852811
0.0683702
0.106868
0.123211
0.123214
0.100803
0.0189794
0.018897
0.018889
0.018889
0.0201884
0.0646156
0.136119
0.115654
0.0447697
0.0168009
0.00225704
0.00148503
0.00117644
0.00237059
0.0116662
0.0218247
0.0411043
0.0887242
0.103069
0.0632063
0.0288478
0.0188999
0.018889
0.0220709
0.072106
0.380848
0.403764
0.280347
0.268204
0.115099
0.00117326
0.00117136
0.00117172
0.00126545
0.00127921
0.00316528
0.0259082
0.0259234
0.0624467
0.102686
0.102704
0.0210006
0.0192097
8.18754e-06
0.263479
0.740128
0.835675
0.870824
0.706866
0.271306
0.09379
0.0287714
0.00125369
0.0246399
0.16123
0.369887
0.387329
0.420976
0.489183
0.371541
0.212748
1.47363e-05
2.42077e-05
0.203725
0.790016
0.996417
0.999741
0.983705
0.805297
0.497577
0.390474
0.234152
0.266215
0.538857
0.795378
0.795327
0.785716
0.788135
0.668307
0.384362
0.0233721
0.000248606
0.114777
0.765837
0.981633
0.999912
0.999881
0.999663
0.985019
0.924902
0.764244
0.706206
0.794363
0.904773
0.90295
0.850846
0.847206
0.736103
0.413262
0.295568
0.0173843
0.000585615
0.496164
0.969064
0.999904
0.999907
0.999538
0.999201
0.9995
0.993176
0.95592
0.964837
0.999751
0.892669
0.414804
0.380584
0.522828
0.390232
0.952554
0.326523
0.000631149
0.0978349
0.855039
0.998578
0.999903
0.999879
0.999822
0.999872
0.999888
0.999892
0.999893
0.999757
0.890537
0.217571
0.00106662
0.270721
0.161815
1
1
1
1
1
1
1
1
1
1
1
1
1
1
1
1
0.999584
0.971548
0.864362
0.685264
0.519489
0.412002
0.276388
1
1
1
1
1
1
1
1
1
1
1
1
1
1
1
1
1
1
1
1
0.999992
0.997568
0.999962
1
1
0.998754
0.999388
0.999987
1
1
1
1
1
1
1
1
1
1
1
1
1
1
1
0.999999
0.999965
0.999968
0.987405
0.916756
0.870758
0.870564
0.890538
0.925606
0.93638
0.928947
0.934544
0.941027
0.931049
0.918079
0.922681
0.945736
0.96685
0.966987
0.961716
0.961244
0.969276
0.975557
0.969483
0.960051
0.939547
0.630941
0.241888
0.128127
0.124283
0.159372
0.222454
0.271211
0.299715
0.292794
0.30326
0.306489
0.314559
0.332271
0.358219
0.401931
0.429923
0.426014
0.422162
0.432505
0.447488
0.422617
0.343105
0.213223
0.134501
9.1592e-13
7.79492e-13
7.20176e-19
-1.23689e-13
6.32437e-27
1.58588e-22
1.55973e-21
9.34285e-22
1.67317e-23
1.09291e-28
2.11062e-28
-1.09155e-27
-6.24124e-27
-1.91831e-15
3.29136e-22
2.52268e-21
-5.681e-25
-3.14958e-14
-3.4067e-14
-2.24379e-23
2.43024e-16
9.05966e-17
0.0376464
1.05779e-12
8.3505e-06
6.40141e-06
-1.93827e-26
3.3428e-09
7.10541e-08
1.32458e-07
9.39533e-08
9.21254e-09
1.09895e-20
4.70202e-16
5.40694e-10
1.65868e-09
9.14957e-09
5.80317e-08
8.473e-08
6.85185e-08
4.3501e-08
4.85698e-08
1.74934e-07
2.85425e-07
3.28862e-07
0.000195647
2.79004e-05
2.88156e-05
9.46835e-06
3.40576e-12
3.31337e-08
3.69613e-07
4.58798e-07
4.60303e-07
2.12016e-07
1.05672e-19
7.58607e-09
1.418e-08
7.13699e-09
8.98991e-09
1.59522e-07
1.66117e-07
1.51274e-07
3.51217e-08
1.60216e-10
2.41543e-07
3.83434e-07
3.69535e-07
1.1393e-21
2.5628e-06
2.87283e-05
7.37646e-06
2.93249e-08
7.56038e-08
2.09735e-07
3.48827e-07
3.89119e-07
3.36127e-07
2.52824e-07
3.14341e-07
5.63045e-08
1.3789e-08
6.63841e-09
2.44048e-08
3.79672e-08
5.23683e-09
2.24224e-10
2.03088e-10
1.5241e-10
1.61781e-10
1.5241e-10
-2.51647e-08
3.2766e-24
1.22471e-05
9.70251e-06
6.52936e-07
1.05644e-08
3.7768e-10
3.78899e-10
3.69201e-10
1.0355e-07
5.08831e-07
5.85084e-07
1.07539e-07
2.24982e-08
8.13218e-09
3.94837e-09
3.97219e-09
4.50788e-09
3.0892e-09
1.50018e-09
7.30086e-10
5.13619e-10
3.83969e-10
-7.24436e-08
2.30572e-07
1.12447e-06
2.26741e-06
2.93965e-07
6.61225e-09
3.78903e-10
3.77684e-10
2.19527e-10
1.82931e-07
8.70866e-07
1.34981e-06
2.61724e-07
4.14887e-08
6.05262e-09
3.84565e-09
3.74666e-09
6.46173e-09
6.47881e-09
2.81287e-09
1.11898e-09
7.07237e-10
6.6104e-10
-8.69974e-08
-6.07622e-10
2.82535e-12
2.74177e-07
3.34671e-08
9.37799e-09
1.45447e-09
8.32615e-10
1.24233e-10
4.33464e-07
2.67636e-06
2.68071e-06
1.82258e-06
4.86819e-07
2.46509e-07
2.82015e-07
1.69469e-07
1.69911e-07
2.19235e-08
3.36591e-09
3.64756e-09
1.92253e-09
9.9022e-10
-4.39494e-08
-2.70768e-09
1.88219e-09
3.52676e-08
1.67879e-08
9.59709e-09
1.15812e-09
9.7201e-10
1.29713e-10
4.18961e-07
2.44637e-06
2.71264e-06
2.73485e-06
1.01808e-06
9.11603e-07
1.94176e-06
1.44887e-06
4.34218e-07
3.31725e-08
6.01841e-09
1.83863e-08
1.26251e-08
6.79398e-09
3.6268e-08
3.49185e-08
1.4292e-08
1.75208e-08
1.78801e-08
6.05808e-09
1.0481e-09
6.45332e-10
1.24619e-10
7.26224e-08
1.20432e-06
2.21625e-06
2.72866e-06
1.88758e-06
2.64293e-06
3.04963e-06
2.93308e-06
3.23395e-07
1.72485e-08
2.76965e-08
3.98849e-08
3.32889e-08
1.43176e-08
4.00384e-08
1.5478e-08
1.35522e-08
1.6812e-08
7.21945e-09
3.78834e-09
1.7045e-09
4.40276e-10
2.14186e-10
2.61859e-12
-3.69277e-28
8.66344e-07
2.71398e-06
2.99381e-06
3.04963e-06
3.06958e-06
2.01861e-06
1.79577e-07
2.94231e-08
3.11665e-08
3.93692e-08
3.00361e-08
1.28008e-08
1.84254e-08
1.08003e-08
6.133e-09
5.35715e-09
3.82642e-09
3.64789e-09
2.00443e-09
7.50139e-10
2.99187e-10
1.76687e-10
3.58659e-11
2.50153e-11
5.74262e-07
1.86914e-06
2.17721e-06
1.67737e-06
1.24502e-07
9.59211e-08
3.99004e-08
2.81017e-08
3.28975e-08
2.5046e-08
1.23977e-08
2.09045e-08
1.29406e-08
3.34826e-09
2.93003e-09
3.22348e-09
3.08001e-09
2.17903e-09
1.30159e-09
5.69072e-10
2.89885e-10
2.55169e-10
8.943e-10
-1.96557e-14
7.58757e-17
9.49101e-14
3.25461e-13
1.0954e-08
4.08046e-08
3.42747e-08
1.87858e-08
2.16998e-08
1.88189e-08
1.13158e-08
2.09566e-08
1.21181e-08
3.00739e-09
2.83377e-09
2.98258e-09
2.63013e-09
2.23256e-09
1.6442e-09
8.98817e-10
4.34267e-10
4.74217e-10
3.66252e-09
2.55285e-08
3.98818e-08
6.42869e-10
6.26719e-10
1.14516e-08
2.74384e-08
1.96213e-08
1.02092e-08
8.71836e-09
8.94393e-09
9.30009e-09
1.92768e-08
1.19302e-08
3.45771e-09
2.69189e-09
2.72764e-09
2.47925e-09
2.18203e-09
1.78593e-09
1.1905e-09
6.60208e-10
5.89992e-10
2.45816e-09
5.37573e-09
7.36947e-09
8.2124e-10
2.29205e-09
1.40503e-08
2.12606e-08
1.19539e-08
4.65867e-09
2.10876e-09
3.8695e-09
4.8693e-09
1.70853e-08
1.16606e-08
4.52569e-09
2.54995e-09
2.38686e-09
2.14905e-09
2.02437e-09
1.78212e-09
1.36798e-09
7.69065e-10
3.83582e-10
2.03517e-10
1.3056e-10
1.28247e-10
8.90026e-10
2.32468e-09
3.77648e-09
5.8501e-09
3.8431e-09
2.05371e-09
9.12896e-10
8.67362e-10
1.85472e-09
1.33437e-08
1.03601e-08
5.19585e-09
2.64739e-09
2.11288e-09
1.87642e-09
1.71616e-09
1.59385e-09
1.37155e-09
9.03937e-10
5.32082e-10
2.93838e-10
1.75405e-10
1.26548e-10
1.26554e-10
1.79402e-10
2.50628e-10
6.62119e-10
8.8375e-10
6.68602e-10
3.16832e-10
2.85052e-10
4.65278e-10
1.20188e-08
8.63772e-09
4.98975e-09
2.58717e-09
1.92645e-09
1.51698e-09
1.33652e-09
1.22521e-09
1.12218e-09
9.55651e-10
5.94058e-10
3.23772e-10
1.94246e-10
1.23553e-10
1.01454e-10
1.06187e-10
1.37155e-10
2.00101e-10
2.2666e-10
2.10438e-10
1.36729e-10
1.17482e-10
1.2648e-10
9.63547e-09
6.69552e-09
4.3632e-09
2.26229e-09
1.65792e-09
1.19196e-09
9.84321e-10
8.62281e-10
7.9288e-10
7.1841e-10
6.0153e-10
3.46647e-10
1.87413e-10
1.09716e-10
6.81718e-11
5.40523e-11
5.24766e-11
6.06575e-11
6.55271e-11
6.68005e-11
6.09884e-11
5.47304e-11
5.45301e-11
8.02053e-09
5.09051e-09
3.38819e-09
1.74851e-09
1.23057e-09
8.91638e-10
6.85492e-10
5.69566e-10
5.09018e-10
4.69501e-10
4.22675e-10
3.16061e-10
1.92626e-10
1.0026e-10
5.57193e-11
3.45015e-11
2.68474e-11
2.53204e-11
2.73078e-11
2.88616e-11
2.93952e-11
2.89998e-11
2.8393e-11
5.76715e-09
3.58515e-09
2.37943e-09
1.2811e-09
8.00139e-10
5.5992e-10
4.35265e-10
3.47586e-10
2.98826e-10
2.70931e-10
2.48462e-10
2.10669e-10
1.52206e-10
9.1893e-11
4.7111e-11
2.52369e-11
1.53123e-11
1.26515e-11
1.21799e-11
1.32774e-11
1.41306e-11
1.44861e-11
1.42694e-11
3.99446e-09
2.37311e-09
1.48411e-09
8.25837e-10
4.91678e-10
3.09222e-10
2.30376e-10
1.88929e-10
1.55696e-10
1.38313e-10
1.24715e-10
1.11184e-10
9.35864e-11
6.3698e-11
3.46587e-11
1.82139e-11
9.12388e-12
6.56872e-12
5.78486e-12
5.94162e-12
6.45061e-12
6.5171e-12
6.50939e-12
2.09302e-09
1.30533e-09
8.14917e-10
4.59848e-10
2.65306e-10
1.56561e-10
1.08242e-10
8.82874e-11
7.30172e-11
6.22102e-11
5.60599e-11
4.91048e-11
4.23861e-11
3.26366e-11
2.08202e-11
1.08719e-11
4.8855e-12
3.17732e-12
2.60098e-12
2.53056e-12
2.664e-12
2.79187e-12
2.82184e-12
9.8767e-10
6.25744e-10
3.77878e-10
2.08751e-10
1.16814e-10
6.70574e-11
4.33934e-11
3.30691e-11
2.82452e-11
2.43024e-11
2.16372e-11
1.9004e-11
1.64141e-11
1.35404e-11
9.33444e-12
5.18287e-12
2.22782e-12
1.39569e-12
1.07183e-12
1.03099e-12
1.0499e-12
1.02704e-12
1.0631e-12
3.18328e-10
2.25362e-10
1.34011e-10
7.4755e-11
4.15494e-11
2.36488e-11
1.43232e-11
1.04399e-11
9.16104e-12
7.97544e-12
7.05164e-12
6.19638e-12
5.39199e-12
4.55519e-12
3.32016e-12
1.97449e-12
8.57437e-13
4.89964e-13
3.90556e-13
3.70139e-13
3.64586e-13
3.68652e-13
3.58248e-13
8.91302e-11
6.62787e-11
3.94936e-11
2.14236e-11
1.13052e-11
6.44869e-12
3.85418e-12
2.74529e-12
2.40196e-12
2.12418e-12
1.92474e-12
1.70117e-12
1.48451e-12
1.26018e-12
9.26077e-13
5.74667e-13
2.77335e-13
1.4098e-13
1.19711e-13
1.19978e-13
1.20811e-13
1.09799e-13
1.05028e-13
1.12004e-11
1.17916e-11
8.05141e-12
4.31956e-12
2.32489e-12
1.38733e-12
8.51623e-13
5.9475e-13
5.25016e-13
4.71211e-13
4.29516e-13
3.80845e-13
3.38162e-13
2.87809e-13
2.08514e-13
1.30556e-13
6.90247e-14
3.69381e-14
3.38228e-14
3.38744e-14
3.43869e-14
3.03663e-14
2.56727e-14
1.55653e-12
1.72991e-12
1.17715e-12
7.14431e-13
3.8994e-13
2.36956e-13
1.52844e-13
1.11026e-13
8.97177e-14
8.30612e-14
7.56009e-14
7.01408e-14
6.42119e-14
5.30011e-14
3.82017e-14
2.32927e-14
1.27278e-14
8.49599e-15
8.21742e-15
8.41567e-15
8.39047e-15
6.33444e-15
5.43611e-15
1.65928e-13
2.08046e-13
1.54831e-13
9.37121e-14
5.67904e-14
3.55298e-14
2.31505e-14
1.49495e-14
1.20038e-14
1.10234e-14
1.06789e-14
1.02854e-14
9.44489e-15
7.77749e-15
5.49756e-15
3.38801e-15
2.10886e-15
1.73886e-15
1.77308e-15
1.76772e-15
1.58845e-15
1.27609e-15
8.95635e-16
2.09673e-14
2.384e-14
1.86497e-14
1.21313e-14
7.33316e-15
4.4124e-15
2.8549e-15
1.84836e-15
1.35298e-15
1.33339e-15
1.34446e-15
1.3108e-15
1.1852e-15
9.47189e-16
6.69443e-16
4.37999e-16
3.22877e-16
3.22342e-16
3.26381e-16
3.22195e-16
2.74891e-16
1.87617e-16
1.22539e-16
2.53572e-15
2.83125e-15
2.1757e-15
1.39731e-15
8.25438e-16
4.75458e-16
2.9598e-16
1.93824e-16
1.38318e-16
1.38689e-16
1.4221e-16
1.40709e-16
1.27385e-16
1.01707e-16
7.24368e-17
5.47105e-17
5.39967e-17
5.49323e-17
5.50132e-17
4.94135e-17
3.69073e-17
2.44795e-17
1.43019e-17
2.75385e-16
2.96442e-16
2.19738e-16
1.38488e-16
8.00118e-17
4.6205e-17
2.83373e-17
1.84739e-17
1.30843e-17
1.29744e-17
1.33367e-17
1.31371e-17
1.19211e-17
9.61231e-18
7.49137e-18
7.38049e-18
7.80439e-18
7.93139e-18
7.47428e-18
6.10061e-18
4.31351e-18
2.45928e-18
1.4842e-18
2.73701e-17
2.7315e-17
1.93689e-17
1.19108e-17
6.89222e-18
3.97235e-18
2.37093e-18
1.5112e-18
1.04841e-18
1.02637e-18
1.0686e-18
1.06487e-18
9.86886e-19
8.47195e-19
8.48344e-19
9.27401e-19
1.00829e-18
1.00386e-18
8.66223e-19
6.36265e-19
3.83721e-19
2.28979e-19
7.01716e-20
2.45929e-18
2.28516e-18
1.55389e-18
9.34018e-19
5.33587e-19
3.02554e-19
1.76117e-19
1.0876e-19
7.34041e-20
7.01308e-20
7.45203e-20
7.55047e-20
7.50393e-20
7.96944e-20
9.19452e-20
1.0736e-19
1.15423e-19
1.07177e-19
8.55131e-20
5.68344e-20
3.46183e-20
9.77136e-21
1.2462e-21
1.96883e-19
1.74053e-19
1.14273e-19
6.71387e-20
3.75495e-20
2.08633e-20
1.17842e-20
6.86099e-21
4.44005e-21
4.12177e-21
4.54088e-21
5.13728e-21
5.83789e-21
7.27747e-21
9.34785e-21
1.11743e-20
1.18226e-20
1.0463e-20
7.52397e-21
4.89615e-21
1.57394e-21
2.11172e-22
1.76435e-23
1.46465e-20
1.20069e-20
7.58795e-21
4.34832e-21
2.39396e-21
1.30122e-21
7.08158e-22
3.94777e-22
2.48052e-22
2.33715e-22
2.77647e-22
3.57413e-22
4.98281e-22
7.17561e-22
9.55431e-22
1.12234e-21
1.13809e-21
9.6844e-22
5.93583e-22
2.3266e-22
4.75947e-23
5.66148e-24
4.14884e-25
9.78464e-22
7.3044e-22
4.35175e-22
2.45836e-22
1.33962e-22
7.02578e-23
3.66465e-23
1.90743e-23
1.16017e-23
1.21179e-23
1.70115e-23
2.70073e-23
4.45211e-23
6.84805e-23
9.07758e-23
1.00967e-22
9.74191e-23
7.37516e-23
3.74037e-23
1.12177e-23
1.66214e-24
7.52592e-26
8.24695e-28
4.08629e-23
2.88858e-23
1.90508e-23
1.05936e-23
5.38285e-24
2.82389e-24
1.44668e-24
7.4732e-25
4.41614e-25
5.60092e-25
9.83512e-25
1.87682e-24
3.43786e-24
5.60463e-24
7.76363e-24
8.0379e-24
7.28251e-24
4.92338e-24
2.06192e-24
5.29638e-25
4.79907e-26
1.24785e-27
4.33766e-29
0.283053
0.275361
0.4156
0.942637
0.998644
0.992827
0.993713
0.995722
0.997496
0.950943
0.939589
0.974533
0.829198
0.637021
0.412074
0.424124
0.0884126
2.25129e-09
1.43703e-16
-1.9388e-24
2.43024e-16
1.1577e-07
1.05468e-07
4.69649e-08
5.72497e-07
5.40947e-07
3.12855e-07
6.36108e-08
2.19694e-07
1.00965e-08
8.14987e-10
3.77843e-09
1.54058e-10
1.56074e-10
1.62361e-10
1.69586e-10
3.41806e-10
3.31015e-10
3.28637e-10
3.15964e-10
6.14518e-10
5.42415e-10
5.12971e-10
4.72358e-10
9.52515e-10
9.08548e-10
6.53829e-10
5.37954e-10
4.29878e-09
2.41976e-09
1.55692e-09
1.27263e-09
9.47661e-09
6.31022e-09
5.05916e-09
3.85933e-09
1.04205e-08
8.30119e-09
7.54258e-09
5.42051e-09
9.68188e-09
7.22709e-09
7.23367e-09
6.75474e-09
8.86299e-09
6.47303e-09
6.42466e-09
5.68119e-09
7.37356e-09
6.00842e-09
5.89162e-09
5.04531e-09
4.76186e-09
4.48106e-09
4.29406e-09
4.07096e-09
2.29543e-09
2.47865e-09
2.47583e-09
2.42112e-09
9.14179e-10
1.05929e-09
1.21644e-09
1.30617e-09
2.11622e-10
3.2758e-10
4.23301e-10
4.94261e-10
5.54129e-11
6.25189e-11
8.50847e-11
1.15314e-10
2.7618e-11
2.80069e-11
2.94686e-11
3.10389e-11
1.37156e-11
1.34978e-11
1.35851e-11
1.38176e-11
5.97989e-12
5.77467e-12
5.89111e-12
5.81346e-12
2.63373e-12
2.43879e-12
2.36803e-12
2.24401e-12
9.53072e-13
8.69599e-13
8.55081e-13
7.81667e-13
3.29399e-13
2.88798e-13
2.74229e-13
2.37267e-13
9.12319e-14
7.91693e-14
7.36254e-14
6.05421e-14
2.19264e-14
1.77859e-14
1.59392e-14
1.28395e-14
4.55517e-15
3.37863e-15
2.87455e-15
2.17724e-15
7.04517e-16
5.28024e-16
3.84965e-16
2.82917e-16
9.12612e-17
6.24395e-17
4.48931e-17
3.34837e-17
1.01644e-17
7.56951e-18
3.73641e-18
7.79398e-19
6.2773e-19
1.6347e-19
2.68178e-20
8.70051e-22
3.56009e-21
9.61271e-23
1.57534e-25
1.69279e-26
1.4714e-28
3.44633e-28
1.30746e-27
4.59202e-27
1.47251e-28
4.31181e-28
1.57634e-27
5.3233e-27
1.44708e-28
4.87907e-28
1.76406e-27
5.61139e-27
1.42593e-28
4.6782e-28
1.60554e-27
4.84622e-27
9.1716e-29
2.9573e-28
9.31554e-28
2.47904e-27
0.991771
0.75866
0.0744025
6.28508e-05
0.422316
0.950621
0.999903
0.999903
0.999903
0.999902
0.999744
0.999761
0.999835
0.944626
0.624624
0.0569001
0.000242708
0.00761384
0.0488639
0.990138
0.78207
0.195303
0.000134533
-0.000125869
0.552137
0.928285
0.998708
0.996657
0.99039
0.84536
0.489689
0.307499
0.169037
0.0363502
0.000355905
1.57206e-07
5.84414e-06
0.0302379
0.857313
0.518503
0.0241788
4.79593e-06
8.13807e-06
0.0252646
0.581921
0.820647
0.777348
0.355629
0.0379652
0.000534319
5.94858e-07
-4.60248e-19
3.52244e-13
3.60956e-14
9.80512e-08
1.34832e-08
0.0135197
0.313384
0.0111275
3.22314e-05
8.49376e-05
6.70048e-05
3.10573e-05
0.00713511
0.0811397
0.078806
0.015103
0.000105181
1.0743e-05
3.08927e-07
3.35453e-13
6.3639e-12
4.13285e-13
1.5609e-08
1.20132e-09
0.00513447
-2.25448e-10
4.75908e-08
2.36981e-05
9.83214e-05
0.000119554
8.81329e-05
3.5582e-06
3.64108e-09
2.88198e-10
3.65186e-09
1.04533e-05
8.97277e-06
8.9002e-07
4.11111e-10
3.21222e-10
5.66219e-13
1.32219e-10
9.12067e-11
0.0021524
9.04696e-09
2.3016e-09
3.84091e-10
3.12272e-11
1.61678e-05
3.54178e-05
4.13498e-05
3.5888e-05
7.05372e-06
1.34857e-06
2.17602e-06
1.77078e-06
3.14097e-07
5.68364e-10
2.3038e-09
3.65439e-09
5.67946e-11
1.63222e-07
0.00059531
3.91428e-09
8.51697e-10
4.36549e-10
3.61734e-11
3.88092e-11
3.61624e-11
3.26523e-10
9.78718e-07
8.2485e-07
3.22904e-07
3.69265e-08
1.59813e-09
2.61869e-08
1.48542e-09
8.06055e-09
7.30553e-09
3.20117e-08
8.65908e-07
9.96018e-07
1.9745e-09
9.7678e-10
3.40644e-10
3.88092e-11
2.17922e-09
8.4212e-09
9.38263e-09
1.09491e-10
7.07935e-09
1.13272e-09
1.63491e-09
1.35165e-10
4.0045e-10
9.72388e-10
1.00221e-08
1.17944e-08
1.56759e-08
9.34305e-07
0.00112932
8.32535e-10
8.82288e-10
4.07199e-10
1.66638e-10
1.118e-10
1.09018e-10
1.09545e-10
1.01236e-10
9.32067e-11
5.23313e-11
5.45695e-11
7.03375e-11
2.0841e-10
4.90121e-10
4.90511e-09
4.43403e-09
2.18827e-21
0.000168609
0.0192686
3.02671e-10
2.8649e-10
2.69446e-10
2.38559e-10
1.94251e-10
1.51392e-10
1.2375e-10
1.11792e-10
1.00597e-10
8.03593e-11
5.73226e-11
3.22416e-11
3.03074e-11
1.69262e-11
1.56844e-11
1.69262e-11
2.32025e-13
0.000833435
0.0206505
3.95852e-10
3.35315e-10
2.87564e-10
2.41917e-10
1.88531e-10
1.42907e-10
1.14861e-10
8.2174e-11
6.51158e-11
4.99004e-11
2.67917e-11
1.71381e-11
5.67231e-09
-6.86364e-11
1.69299e-11
5.20048e-07
7.98348e-10
0.00115482
0.0206851
4.59387e-10
3.44597e-10
2.26929e-10
1.51379e-10
1.05501e-10
6.58121e-11
3.88174e-11
3.12948e-11
2.68507e-11
1.72499e-11
1.56943e-11
1.46559e-11
6.36257e-08
1.8254e-06
3.22312e-06
3.22841e-06
1.49751e-06
0.00055116
0.0206532
1.04973e-09
3.50801e-10
1.56801e-10
8.78279e-11
5.17896e-11
3.20713e-11
3.06955e-11
7.92624e-11
1.08538e-10
8.6923e-11
1.44391e-08
2.34483e-07
1.22349e-06
1.97943e-06
1.75714e-06
3.12782e-06
2.57672e-06
1.7384e-07
0.0063216
1.96147e-09
3.28352e-10
1.21298e-10
6.26117e-11
3.59004e-11
2.89295e-11
2.60804e-11
2.59841e-11
2.60922e-11
1.5805e-08
9.55333e-08
4.60085e-07
6.45177e-07
3.16937e-07
1.34186e-09
2.14533e-07
9.47345e-07
1.71834e-07
1.56942e-08
2.36297e-09
2.90073e-10
9.70858e-11
5.01347e-11
4.28922e-11
1.05896e-10
4.09395e-10
2.07391e-09
7.42529e-09
2.44486e-08
6.61484e-08
8.3677e-08
4.914e-11
1.05836e-12
1.59549e-12
1.05847e-12
4.62132e-10
3.16703e-08
1.15835e-08
3.43705e-09
7.61214e-10
1.37882e-10
5.33297e-11
4.89999e-11
1.17891e-10
3.94842e-10
1.1641e-09
3.23398e-09
5.30053e-09
1.97034e-09
1.64289e-12
1.64698e-12
6.29885e-12
2.25665e-11
4.89141e-11
1.37767e-10
9.78842e-10
1.28813e-08
4.70859e-09
2.10457e-09
3.79426e-10
6.36874e-11
4.38479e-11
5.88937e-11
1.33445e-10
3.28984e-10
6.58134e-10
8.1082e-10
3.18614e-10
5.38848e-11
2.56719e-12
8.23036e-12
2.50086e-11
6.29415e-11
1.5187e-10
5.457e-10
5.22684e-09
4.45869e-09
3.19575e-09
1.18578e-09
2.28201e-10
5.08585e-11
3.8614e-11
5.14232e-11
1.03866e-10
2.08575e-10
3.01493e-10
2.02196e-10
8.38589e-11
2.09286e-12
3.66282e-12
8.98919e-12
2.1709e-11
5.08837e-11
1.90176e-10
2.82546e-09
3.64142e-09
2.90477e-09
2.08463e-09
8.84832e-10
2.24443e-10
5.64552e-11
3.30549e-11
3.7366e-11
6.20456e-11
9.58335e-11
9.41651e-11
4.6807e-11
2.20742e-12
1.84697e-12
2.89695e-12
5.91449e-12
1.13604e-11
5.16738e-11
7.11726e-10
2.40176e-09
2.16981e-09
1.81693e-09
1.39989e-09
7.35491e-10
2.25542e-10
6.22429e-11
2.56606e-11
2.27995e-11
2.87039e-11
3.13218e-11
1.87611e-11
1.92177e-12
1.25248e-12
1.08485e-12
1.50403e-12
2.14207e-12
7.2081e-12
4.81241e-11
1.3453e-09
1.34514e-09
1.24247e-09
1.05183e-09
8.34921e-10
5.12352e-10
1.89455e-10
5.42607e-11
1.8995e-11
1.20992e-11
1.02829e-11
6.30581e-12
1.71559e-12
1.0479e-12
6.2037e-13
4.71304e-13
4.68788e-13
3.31137e-13
8.29311e-12
5.76906e-10
6.48182e-10
6.62792e-10
6.36568e-10
5.444e-10
4.63379e-10
2.85891e-10
1.15444e-10
3.63317e-11
1.20261e-11
5.62114e-12
2.98508e-12
1.37459e-12
7.80962e-13
4.04948e-13
2.30199e-13
1.3264e-13
1.13062e-13
1.53777e-13
1.63751e-10
2.251e-10
2.64548e-10
2.78966e-10
2.77158e-10
2.58123e-10
2.24681e-10
1.24029e-10
4.91582e-11
1.71008e-11
5.62057e-12
2.04771e-12
9.08946e-13
4.67244e-13
2.19738e-13
1.09622e-13
6.10165e-14
4.04299e-14
3.13866e-14
4.10527e-11
5.93967e-11
7.96252e-11
9.45329e-11
1.05375e-10
1.10753e-10
1.1123e-10
8.5471e-11
4.19832e-11
1.65365e-11
5.42118e-12
1.52889e-12
4.95532e-13
2.11553e-13
8.6933e-14
2.71355e-14
1.52906e-14
1.38898e-14
1.00747e-14
1.4451e-11
1.64906e-11
2.02367e-11
2.51889e-11
3.08751e-11
3.70595e-11
4.04503e-11
3.91128e-11
2.38017e-11
1.0924e-11
3.73954e-12
9.38248e-13
2.14276e-13
6.51204e-14
2.07668e-14
5.97316e-15
6.97522e-15
6.28977e-15
4.41306e-15
5.77442e-12
5.74616e-12
5.92639e-12
6.60737e-12
8.10786e-12
9.80273e-12
1.15824e-11
1.24858e-11
8.97656e-12
4.67395e-12
1.66762e-12
3.82834e-13
6.25639e-14
1.37001e-14
1.96694e-15
2.65716e-15
3.54823e-15
3.43789e-15
2.13499e-15
2.13146e-12
1.93472e-12
1.7906e-12
1.79522e-12
1.98081e-12
2.40769e-12
2.86106e-12
3.03201e-12
2.34388e-12
1.29324e-12
4.51096e-13
7.6561e-14
7.98856e-15
1.47043e-15
6.42598e-16
1.14493e-15
1.69716e-15
1.82813e-15
1.02593e-15
7.16008e-13
6.10589e-13
5.0162e-13
4.60029e-13
4.64918e-13
5.31044e-13
6.01438e-13
5.86923e-13
4.32213e-13
2.13844e-13
4.59675e-14
1.19484e-15
1.12542e-16
1.10543e-16
2.33085e-16
4.6879e-16
7.77652e-16
8.05179e-16
5.09056e-16
2.02392e-13
1.55771e-13
1.14898e-13
9.73158e-14
8.74152e-14
8.84456e-14
9.1993e-14
7.87685e-14
4.49391e-14
9.34333e-15
2.38872e-16
2.85021e-17
1.38548e-17
3.04407e-17
7.99564e-17
1.86697e-16
3.55054e-16
4.33015e-16
2.23615e-16
4.65885e-14
3.31599e-14
2.39165e-14
1.65259e-14
9.99689e-15
8.53457e-15
8.02736e-15
4.85436e-15
4.47098e-16
1.21935e-17
4.63349e-18
1.81719e-18
2.33852e-18
8.17764e-18
2.73633e-17
7.35483e-17
1.60046e-16
2.33572e-16
1.19347e-16
8.89905e-15
5.71008e-15
3.83567e-15
1.52367e-15
4.82689e-16
2.92189e-16
1.99477e-16
2.64853e-17
1.08655e-19
5.6175e-20
6.97273e-20
9.39796e-20
4.4953e-19
2.31512e-18
9.53954e-18
2.79104e-17
6.91569e-17
1.37284e-16
6.50666e-17
1.30027e-15
8.15024e-16
2.88587e-16
4.74154e-17
6.51259e-18
2.02256e-18
8.86795e-19
3.13985e-21
3.19786e-21
5.82794e-21
1.25562e-20
3.13721e-20
1.43082e-19
7.71817e-19
3.45926e-18
9.77525e-18
3.28578e-17
5.9127e-17
3.7701e-17
1.6905e-16
4.86623e-17
5.74894e-18
6.10991e-19
1.18812e-19
2.2443e-20
1.37544e-21
1.34843e-21
2.51582e-21
5.53028e-21
1.2061e-20
2.50719e-20
6.91639e-20
3.19423e-19
1.34015e-18
5.83393e-18
1.84201e-17
2.98168e-17
1.54419e-17
1.05928e-17
6.78779e-19
5.3309e-20
1.12189e-20
3.31579e-21
7.35587e-22
4.77178e-22
9.97858e-22
2.38389e-21
5.54343e-21
1.21036e-20
2.39421e-20
4.72274e-20
1.55429e-19
7.4566e-19
3.70945e-18
1.02634e-17
1.11732e-17
7.08543e-18
6.64524e-20
3.30021e-21
8.7097e-22
1.58784e-22
1.45879e-22
1.60781e-22
3.46401e-22
8.92214e-22
2.24196e-21
5.29757e-21
1.16993e-20
2.27804e-20
3.81983e-20
1.16323e-19
5.99428e-19
2.30724e-18
4.15497e-18
4.81865e-18
2.15913e-18
3.8128e-23
1.34508e-23
1.18094e-23
1.59222e-23
3.99026e-23
1.09972e-22
3.04642e-22
8.09109e-22
2.04286e-21
4.82144e-21
1.06541e-20
2.07904e-20
3.48329e-20
9.82235e-20
4.11393e-19
1.29025e-18
1.89684e-18
1.4471e-18
7.61141e-19
1.36299e-25
6.40237e-25
2.47229e-24
8.99476e-24
2.94088e-23
8.88556e-23
2.5089e-22
6.68477e-22
1.68448e-21
3.99242e-21
8.72891e-21
1.69426e-20
2.85092e-20
7.09437e-20
2.45949e-19
6.30052e-19
6.79704e-19
5.23723e-19
1.71658e-19
8.76142e-26
4.65648e-25
1.89861e-24
6.8276e-24
2.21214e-23
6.67071e-23
1.87128e-22
4.92558e-22
1.22691e-21
2.89372e-21
6.2708e-21
1.20673e-20
2.03483e-20
4.49468e-20
1.23993e-19
2.82809e-19
2.67382e-19
1.25933e-19
4.85785e-20
6.86735e-26
3.30031e-25
1.30723e-24
4.48617e-24
1.45565e-23
4.3152e-23
1.19807e-22
3.11687e-22
7.67347e-22
1.79658e-21
3.85448e-21
7.41215e-21
1.2438e-20
2.55489e-20
5.76323e-20
1.11096e-19
7.08635e-20
3.69995e-20
8.8879e-21
4.78993e-26
1.99216e-25
7.281e-25
2.38894e-24
7.30251e-24
2.13118e-23
5.93225e-23
1.56444e-22
3.87979e-22
9.12238e-22
1.96823e-21
3.73398e-21
6.23265e-21
1.19949e-20
2.21516e-20
3.59686e-20
2.17381e-20
6.73571e-21
2.70708e-21
2.48226e-26
9.03746e-26
3.03195e-25
9.47704e-25
2.8777e-24
8.38304e-24
2.33933e-23
6.31553e-23
1.59651e-22
3.79936e-22
8.28979e-22
1.61131e-21
2.70107e-21
4.96021e-21
7.87018e-21
1.11952e-20
4.00589e-21
1.97237e-21
1.01487e-21
7.1853e-27
2.26102e-26
6.94321e-26
2.02844e-25
6.73315e-25
2.14532e-24
6.33732e-24
1.82832e-23
4.98325e-23
1.24785e-22
2.82979e-22
5.69819e-22
9.74055e-22
1.72718e-21
2.4374e-21
3.11054e-21
1.1141e-21
6.08318e-22
3.36311e-22
)
;

boundaryField
{
    leftWall
    {
        type            alphaContactAngle;
        contactAngleProperties 
        {
            mercury         
            {
                theta0          90;
            }
            air             
            {
                theta0          90;
            }
            oil             
            {
                theta0          90;
            }
        }
        value           nonuniform List<scalar> 
50
(
2.87706e-11
7.03474e-11
6.40506e-10
2.85078e-10
0.176939
0.947239
1
1
1
1
1
0.987405
0.630941
0.134501
0.0376464
0.000195647
1.1393e-21
-2.51647e-08
-7.24436e-08
-8.69974e-08
-4.39494e-08
3.6268e-08
4.00384e-08
1.84254e-08
2.09045e-08
2.09566e-08
1.92768e-08
1.70853e-08
1.33437e-08
1.20188e-08
9.63547e-09
8.02053e-09
5.76715e-09
3.99446e-09
2.09302e-09
9.8767e-10
3.18328e-10
8.91302e-11
1.12004e-11
1.55653e-12
1.65928e-13
2.09673e-14
2.53572e-15
2.75385e-16
2.73701e-17
2.45929e-18
1.96883e-19
1.46465e-20
9.78464e-22
4.08629e-23
)
;
    }
    rightWall
    {
        type            alphaContactAngle;
        contactAngleProperties 
        {
            mercury         
            {
                theta0          90;
            }
            air             
            {
                theta0          90;
            }
            oil             
            {
                theta0          90;
            }
        }
        value           nonuniform List<scalar> 
50
(
0.018889
0.018889
0.0210006
0.212748
0.384362
0.413262
0.390232
0.161815
0.0488639
0.0302379
0.0135197
0.00513447
0.0021524
0.00059531
9.96018e-07
0.00112932
0.0192686
0.0206505
0.0206851
0.0206532
0.0063216
1.56942e-08
1.15835e-08
1.28813e-08
5.22684e-09
2.82546e-09
7.11726e-10
4.81241e-11
8.29311e-12
1.53777e-13
3.13866e-14
1.00747e-14
4.41306e-15
2.13499e-15
1.02593e-15
5.09056e-16
2.23615e-16
1.19347e-16
6.50666e-17
3.7701e-17
1.54419e-17
7.08543e-18
2.15913e-18
7.61141e-19
1.71658e-19
4.85785e-20
8.8879e-21
2.70708e-21
1.01487e-21
3.36311e-22
)
;
    }
    lowerWall
    {
        type            alphaContactAngle;
        contactAngleProperties 
        {
            mercury         
            {
                theta0          90;
            }
            air             
            {
                theta0          90;
            }
            oil             
            {
                theta0          90;
            }
        }
        value           nonuniform List<scalar> 
62
(
2.87706e-11
6.05773e-11
9.86682e-11
1.02557e-10
1.0173e-10
1.05098e-10
1.10121e-10
1.16179e-10
1.22401e-10
1.28262e-10
1.33265e-10
1.37076e-10
1.3863e-10
1.40405e-10
1.45139e-10
1.59531e-10
1.95264e-10
2.52288e-10
3.62663e-10
6.93926e-10
1.47993e-09
2.38836e-09
2.64969e-09
2.64969e-09
2.95984e-09
2.97919e-09
2.23606e-09
8.39366e-10
2.15285e-10
-2.42294e-09
-1.87551e-09
0.283053
0.275361
0.4156
0.942637
0.0201661
0.0201884
0.0220709
0.0192097
1.47363e-05
0.0233721
0.295568
0.952554
0.0201661
0.0357119
0.0461646
0.0246146
0.0043224
0.00270096
0.00238956
0.0017823
0.00120171
0.00852811
0.0683702
0.106868
0.123211
0.123214
0.100803
0.0189794
0.018897
0.018889
0.018889
)
;
    }
    atmosphere
    {
        type            inletOutlet;
        inletValue      uniform 0;
        value           nonuniform List<scalar> 
46
(
0
0
0
0
0
0
0
0
0
0
0
0
0
0
0
0
0
0
0
0
0
0
0
0
0
0
0
0
0
0
0
0
2.14532e-24
6.33732e-24
1.82832e-23
4.98325e-23
1.24785e-22
2.82979e-22
5.69819e-22
9.74055e-22
1.72718e-21
2.4374e-21
3.11054e-21
1.1141e-21
6.08318e-22
3.36311e-22
)
;
    }
    defaultFaces
    {
        type            empty;
    }
}


// ************************************************************************* //
