/*--------------------------------*- C++ -*----------------------------------*\
  =========                 |
  \\      /  F ield         | OpenFOAM: The Open Source CFD Toolbox
   \\    /   O peration     | Website:  https://openfoam.org
    \\  /    A nd           | Version:  13
     \\/     M anipulation  |
\*---------------------------------------------------------------------------*/
FoamFile
{
    format      ascii;
    class       volScalarField;
    location    "1.55";
    object      alphas;
}
// * * * * * * * * * * * * * * * * * * * * * * * * * * * * * * * * * * * * * //

dimensions      [];

internalField   nonuniform List<scalar> 
2268
(
2
2
2
2
2
2
2
2
2
2
2
2
2
2
2
2
2
2
2
2
1.99999
1.99951
1.99943
2
2
2
2
2
2
2
2
2
2
2
2
2
2
2
2
2
2
2
2
2
1.99985
1.99943
2
2
2
2
2
2
2
2
2
2
2
2
2
2
2
2
2
2
2
2
2
2
1.99977
2
2
2
2
2
2
2
2
2
2
2
2
2
2
2
2
2
2
2
2
2
2
2
1.64612
1.64709
1.67121
1.72135
1.77806
1.83168
1.88128
1.92703
1.96613
1.99271
2
2
2
2
2
2
2
2
2
2
2
2
2
0.105523
0.147992
0.184711
0.233162
0.293508
0.365264
0.454632
0.572278
0.732373
0.95279
1.24941
1.54477
1.78137
1.94425
1.99926
2
2
2
2
2
2
2
2
5.52415e-09
3.76459e-09
2.89332e-09
2.48278e-09
2.40541e-09
2.74663e-09
3.36043e-09
3.2962e-09
2.97087e-09
2.48956e-09
2.03013e-09
0.0633852
0.26136
0.614719
1.16563
1.74624
2
2
2
2
2
2
2
1.52922e-08
1.19114e-08
9.13441e-09
7.9612e-09
7.86663e-09
8.6119e-09
9.64281e-09
8.81372e-09
7.35792e-09
5.56716e-09
4.3986e-09
2.07559e-08
1.69195e-08
1.16499e-08
0.000233679
0.13015
0.64459
1.43196
1.96192
2
2
2.00002
2
1.85884
1.92068
1.93629
1.87126
1.69987
1.69731
1.67417
1.67388
1.67815
1.77986
2.00769
1.87313
1.78675
1.63026
1.62954
1.71114
1.71338
1.72155
1.71233
1.85731
1.78309
1.70087
1.74979
1.84589
1.87431
1.92159
1.98293
2.01147
1.93487
1.99663
2.23241
2.17326
1.93476
1.72805
1.73677
1.80597
1.78563
1.5688
1.85479
1.58709
1.03834
1.12804
1.43927
1.46215
2.0303
2.4339
2.40973
2.12311
2.08473
2.1596
2.26217
2.22299
2.24562
2.02092
1.91694
1.78345
1.5171
1.79175
1.63092
1.15042
0.418278
0.328652
0.258353
0.786441
1.94329
2.13038
2.24808
2.2978
2.20237
1.79446
1.20282
1.15962
1.30686
1.16195
1.14591
1.14918
1.18203
1.18672
1.15269
0.419803
0.00740975
0.000520665
0.0487895
0.53043
1.18042
1.32609
1.76737
1.80317
0.989754
0.274027
0.280373
0.307114
0.30225
0.396775
0.749035
1.06387
1.10438
1.0553
0.396431
0.0388401
0.000176083
0.000265446
0.000674051
0.0280127
0.0916594
0.356748
0.544091
0.29551
0.114136
0.10722
0.153554
0.160963
0.304038
0.78506
0.818511
1.09118
1.11239
0.61798
0.0621131
0.000208239
0.000188166
0.00092255
0.00159699
0.00099857
0.00693499
0.0440803
0.035174
0.000292569
0.107427
0.585212
0.624815
0.584866
0.858653
0.140985
0.916672
1.22353
1.14731
0.243229
0.00286202
0.000232386
0.000245013
0.000353386
0.000250086
0.000191845
0.0001294
0.000138584
0.000434498
0.109861
0.782799
0.99916
0.800336
1.08704
2.27407e-08
1.77297e-08
1.39105e-08
1.62472e-08
1.55415e-08
1.69479e-08
2.01845e-08
1.86279e-08
1.61733e-08
1.37919e-08
1.15213e-08
9.05916e-09
6.30721e-09
4.45787e-09
3.85678e-09
3.19637e-08
0.000832637
0.0569048
0.271275
0.629468
0.961057
1.17604
1.44717
2.05413e-08
1.66318e-08
1.3032e-08
1.76572e-08
3.30237e-08
3.46001e-08
4.65009e-08
4.96312e-08
4.71583e-08
4.92898e-08
5.12112e-08
5.12235e-08
4.7508e-08
3.75172e-08
3.23063e-08
2.49578e-08
4.86997e-08
6.59139e-08
5.59711e-08
3.97071e-07
1.93598e-05
0.00486789
5.22492e-05
1.82243e-08
9.52504e-08
0.00373883
0.00183679
4.03464e-05
4.77838e-08
5.81587e-08
6.2982e-08
7.765e-08
8.17053e-08
1.07104e-07
1.11337e-07
1.25832e-07
1.17248e-07
1.22361e-07
1.06288e-07
1.42614e-07
1.22962e-07
1.62406e-07
2.00331e-07
1.87721e-06
0.000100534
9.04729e-05
0.0377835
0.180519
0.184358
0.147459
0.130771
0.122834
0.159688
0.200953
0.184393
0.168102
0.199521
0.239667
0.228515
0.161667
0.0988931
0.0990375
0.114853
0.116269
0.0921709
0.0733283
0.0915518
0.119457
0.142703
0.897644
0.952642
0.920234
0.894168
0.889992
1.03826
1.13985
1.1126
1.12032
1.12803
1.12893
1.12312
1.10315
1.07887
0.97718
0.956793
1.06777
1.07475
1.03408
0.957141
0.980803
1.10812
1.25747
1.52338
1.0903
1.03516
1.03512
1.03685
1.17953
1.24407
1.18303
1.13106
1.17302
1.21432
1.21979
1.20236
1.16891
1.19211
1.22323
1.1957
1.12773
1.04564
1.0289
1.02144
1.00432
1.00007
1.51989
1.16237
1.23084
1.1342
1.07168
1.03657
1.01536
1.00305
1
1
1
1
1
1
1
1
1
1
1
1
1
1
1
1.99536
2.46091
2.63263
2.51926
2.35613
2.18403
2.02169
1.88279
1.73641
1.58918
1.48632
1.39546
1.31585
1.24776
1.18826
1.13721
1.09848
1.07236
1.05653
1.04764
1.03921
1.04053
1.04873
2.65817
2.84435
2.99991
2.99998
3
3
3
3
3
2.99108
2.94592
2.89466
2.83707
2.7775
2.70958
2.63238
2.55348
2.48311
2.43118
2.39847
2.36612
2.37168
2.40498
2.95955
2.94416
2.9861
2.99997
3
3
3
3
3
3
3
3
3
3
3
3
3
3
3
3
3
3
3
3
2.99349
2.99367
2.99993
3
3
3
3
3
3
2.99998
3
3
3
3
3
3
3
3
3
3
3
3
3
3
2.99928
3
3
3
3
3
2.99999
2.99991
2.99969
2.99992
2.99999
3
3
3
3
3
3
3
3
3
3
3
3
3
3
3
3
3
3
3
2.99965
2.99965
2.99966
2.99996
3
3
2.99999
2.99999
3
3
3
3
3
3
3
3
3
3
3
3
3
3
2.99999
2.99968
2.99965
2.99965
2.99992
2.99999
2.99999
2.99999
2.99999
3
3
3
3
3
3
3
3
3
3
3
3
3
3
2.99999
2.99997
2.99969
2.99965
2.99993
2.99999
2.99999
2.99999
2.99999
3
3
3
3
3
3
3
3
3
3
3
3
3
3
3
3
3
2.99994
2.99998
2.99999
2.99999
2.99999
3
3
3
3
3
3
3
3
3
3
3
3
3
3
3
3
3
3
3
3
2.99999
3
3
3
3
3
3
3
3
3
3
3
3
3
3
3
3
3
3
3
3
3
3
2.99999
3
3
3
3
3
3
3
3
3
3
3
3
3
3
3
3
3
3
3
3
3
3
3
3
3
3
3
3
3
3
3
3
3
3
3
3
3
3
3
3
3
3
3
3
3
3
3
3
3
3
3
3
3
3
3
3
3
3
3
3
3
3
3
3
3
3
3
3
3
3
3
3
3
3
3
3
3
3
3
3
3
3
3
3
3
3
3
3
3
3
3
3
3
3
3
3
3
3
3
3
3
3
3
3
3
3
3
3
3
3
3
3
3
3
3
3
3
3
3
3
3
3
3
3
3
3
3
3
3
3
3
3
3
3
3
3
3
3
3
3
3
3
3
3
3
3
3
3
3
3
3
3
3
3
3
3
3
3
3
3
3
3
3
3
3
3
3
3
3
3
3
3
3
3
3
3
3
3
3
3
3
3
3
3
3
3
3
3
3
3
3
3
3
3
3
3
3
3
3
3
3
3
3
3
3
3
3
3
3
3
3
3
3
3
3
3
3
3
3
3
3
3
3
3
3
3
3
3
3
3
3
3
3
3
3
3
3
3
3
3
3
3
3
3
3
3
3
3
3
3
3
3
3
3
3
3
3
3
3
3
3
3
3
3
3
3
3
3
3
3
3
3
3
3
3
3
3
3
3
3
3
3
3
3
3
3
3
3
3
3
3
3
3
3
3
3
3
3
3
3
3
3
3
3
3
3
3
3
3
3
3
3
3
3
3
3
3
3
3
3
3
3
3
3
3
3
3
3
3
3
3
3
3
3
3
3
3
3
3
3
3
3
3
3
3
3
3
3
3
3
3
3
3
3
3
3
3
3
3
3
3
3
3
3
3
3
3
3
3
3
3
3
3
3
3
3
3
3
3
3
3
3
3
3
3
3
3
3
3
3
3
3
3
3
3
3
3
3
3
3
3
3
3
3
3
3
3
3
3
3
3
3
3
3
3
3
3
3
3
3
3
3
3
3
3
3
3
3
3
3
3
3
3
3
3
3
3
3
3
3
3
3
3
3
3
3
3
3
3
3
3
3
3
3
3
3
3
3
3
3
3
3
3
3
3
3
3
3
3
3
3
3
3
3
3
3
3
3
3
3
3
3
3
3
3
3
3
3
3
3
3
3
3
3
3
3
3
3
3
3
3
3
3
3
3
3
3
3
3
3
3
3
3
3
3
3
3
3
3
3
3
3
3
3
3
3
3
3
3
3
3
3
3
3
3
3
3
3
3
3
3
3
3
3
3
3
3
3
3
3
3
3
3
3
3
3
3
3
3
3
3
1.43369
1.44996
1.16908
0.114715
0.00396077
0.0213922
0.0184856
0.0122862
0.00751679
0.147177
0.181243
0.0764081
0.4226
0.820781
0.980762
0.901379
1.39274
1.46543
1.14897
1.01398
1
1
1
1
0.999999
0.999999
1
1
1.04957
1.04981
1.05255
1.06303
2.40912
2.40439
2.40367
2.4291
3
3
3
3
3
3
3
3
3
3
3
3
3
3
3
3
3
3
3
3
3
3
3
3
3
3
3
3
3
3
3
3
3
3
3
3
3
3
3
3
3
3
3
3
3
3
3
3
3
3
3
3
3
3
3
3
3
3
3
3
3
3
3
3
3
3
3
3
3
3
3
3
3
3
3
3
3
3
3
3
3
3
3
3
3
3
3
3
3
3
3
3
3
3
3
3
3
3
3
3
3
3
3
3
3
3
3
3
3
3
3
3
3
3
3
3
3
3
3
3
3
3
3
3
3
3
3
3
3
3
3
3
0.0213263
0.600553
1.35244
1.31908
0.90916
0.12435
0.000266676
0.000249907
0.000241875
0.000260025
0.000754407
0.000716825
0.000465758
0.0556554
0.375913
0.944112
1.00071
0.994388
1.03033
0.029156
0.647307
1.24134
1.1492
1.32729
0.831871
0.214343
0.00386827
0.0100274
0.0288228
0.162777
0.510407
0.692759
0.831146
0.963914
1.00153
1.00173
0.999987
1.00196
0.426542
0.937216
1.2502
1.00163
1.02256
1.31399
0.78749
0.537972
0.510915
0.681397
0.962036
0.999524
1.00033
1.00019
1.00005
1.00109
1.00125
1
1.00967
1.03315
1.30711
1.04911
0.999986
1.00002
1.00057
1.26869
1.28128
1.24569
1.0104
0.999893
1.00001
1.00033
1.00022
1.00001
1.00015
1.00021
1
1.05262
1.00014
1
0.999976
0.999908
0.999885
0.999913
1.00103
1.04872
1.05773
1.01631
0.999995
0.999993
1.00016
1.00016
1.00001
1
1
1
1.06744
1
1
1
1.00001
0.999994
0.999969
0.999959
0.999964
0.999993
1.00061
1.00009
1
1.00001
1.00003
1.00001
1
1
1
1.06997
1
1
1
1
1
1
1
0.999999
0.999999
1
1
1
1
1
1
1
1
1
1.03691
1.07837
1.10474
1.15652
1.20315
1.24036
1.2796
1.32759
1.27869
1.17245
1.02518
1
1
1
1
1
1
1
1
1.00967
2.48383
2.53737
2.6239
2.69394
2.72742
2.75848
2.76849
2.79965
2.74468
2.56286
2.27606
2.06035
1.80478
1.45783
1.17425
1
1
0.999845
0.986292
3
3
3
3
3
3
3
3
3
3
3
3
2.98353
2.89213
2.7177
2.36602
1.56001
0.999285
0.985114
3
3
3
3
3
3
3
3
3
3
3
2.99999
3
2.99999
2.99999
2.99999
2.95006
2.25871
1.41258
3
3
3
3
3
3
3
2.99966
2.99841
2.99893
2.99988
3
3
2.99974
2.99998
2.99998
2.99996
2.99787
2.87687
3
3
3
3
3
3
2.99978
2.99794
2.99793
2.99793
3
3
2.99847
2.99535
2.99518
2.99621
2.99899
2.99993
2.98103
3
3
3
3
3
3
2.9998
2.99888
2.9985
2.99945
3
2.99993
2.99733
2.99525
2.99635
2.99708
2.99845
3
3
3
3
3
3
3
3
3
3
2.99997
3
2.99999
2.99991
2.99943
2.99945
2.99982
2.99999
2.99972
3
3
3
3
3
3
3
3
3
3
3
3
3
2.99999
3
3
3
3
3
3
3
3
3
3
3
3
3
3
3
3
3
3
3
3
3
3
3
3
3
3
3
3
3
3
3
3
3
3
3
3
3
3
3
3
3
3
3
3
3
3
3
3
3
3
3
3
3
3
3
3
3
3
3
3
3
3
3
3
3
3
3
3
3
3
3
3
3
3
3
3
3
3
3
3
3
3
3
3
3
3
3
3
3
3
3
3
3
3
3
3
3
3
3
3
3
3
3
3
3
3
3
3
3
3
3
3
3
3
3
3
3
3
3
3
3
3
3
3
3
3
3
3
3
3
3
3
3
3
3
3
3
3
3
3
3
3
3
3
3
3
3
3
3
3
3
3
3
3
3
3
3
3
3
3
3
3
3
3
3
3
3
3
3
3
3
3
3
3
3
3
3
3
3
3
3
3
3
3
3
3
3
3
3
3
3
3
3
3
3
3
3
3
3
3
3
3
3
3
3
3
3
3
3
3
3
3
3
3
3
3
3
3
3
3
3
3
3
3
3
3
3
3
3
3
3
3
3
3
3
3
3
3
3
3
3
3
3
3
3
3
3
3
3
3
3
3
3
3
3
3
3
3
3
3
3
3
3
3
3
3
3
3
3
3
3
3
3
3
3
3
3
3
3
3
3
3
3
3
3
3
3
3
3
3
3
3
3
3
3
3
3
3
3
3
3
3
3
3
3
3
3
3
3
3
3
3
3
3
3
3
3
3
3
3
3
3
3
3
3
3
3
3
3
3
3
3
3
3
3
3
3
3
3
3
3
3
3
3
3
3
3
3
3
3
3
3
3
3
3
3
3
3
3
3
3
3
3
3
3
3
3
3
3
3
3
3
3
3
3
3
3
3
3
3
3
3
3
3
3
3
3
3
3
3
3
3
3
3
3
3
3
3
3
3
3
3
3
3
3
3
3
3
3
3
3
3
3
3
3
3
3
3
3
3
3
3
3
3
3
3
3
3
3
3
3
3
3
3
3
3
3
3
3
3
3
3
3
3
3
3
3
3
3
3
3
3
3
3
3
3
3
3
3
3
3
3
3
3
3
3
3
3
3
3
3
3
3
3
3
3
3
3
3
3
3
3
3
3
3
3
3
3
3
3
3
3
3
3
3
3
3
3
3
3
3
)
;

boundaryField
{
    leftWall
    {
        type            calculated;
        value           nonuniform List<scalar> 
50
(
2
2
2
2
1.64612
0.105523
5.52415e-09
1.52922e-08
2.27407e-08
2.05413e-08
1.82243e-08
0.0377835
0.897644
1.52338
1.51989
1.99536
2.65817
2.95955
3
3
3
3
3
3
3
3
3
3
3
3
3
3
3
3
3
3
3
3
3
3
3
3
3
3
3
3
3
3
3
3
)
;
    }
    rightWall
    {
        type            calculated;
        value           nonuniform List<scalar> 
50
(
1.71233
1.5688
1.5171
1.14918
0.749035
0.78506
0.858653
1.08704
1.03033
1.00196
1.00967
1.05262
1.06744
1.06997
1.03691
1.00967
0.986292
0.985114
1.41258
2.87687
2.98103
3
3
3
3
3
3
3
3
3
3
3
3
3
3
3
3
3
3
3
3
3
3
3
3
3
3
3
3
3
)
;
    }
    lowerWall
    {
        type            calculated;
        value           nonuniform List<scalar> 
62
(
2
2
2
2
2
2
2
2
2
2
2
2
2
2
2
2
2
2
2
2
1.99999
1.99951
1.99943
1.99943
1.99943
1.99977
2
2
2
2
2
1.43369
1.44996
1.16908
0.114715
1.85884
1.85731
1.85479
1.79175
1.18203
1.06387
0.818511
0.140985
1.85884
1.92068
1.93629
1.87126
1.69987
1.69731
1.67417
1.67388
1.67815
1.77986
2.00769
1.87313
1.78675
1.63026
1.62954
1.71114
1.71338
1.72155
1.71233
)
;
    }
    atmosphere
    {
        type            calculated;
        value           nonuniform List<scalar> 
46
(
3
3
3
3
3
3
3
3
3
3
3
3
3
3
3
3
3
3
3
3
3
3
3
3
3
3
3
3
3
3
3
3
3
3
3
3
3
3
3
3
3
3
3
3
3
3
)
;
    }
    defaultFaces
    {
        type            empty;
    }
}


// ************************************************************************* //
