/*--------------------------------*- C++ -*----------------------------------*\
  =========                 |
  \\      /  F ield         | OpenFOAM: The Open Source CFD Toolbox
   \\    /   O peration     | Website:  https://openfoam.org
    \\  /    A nd           | Version:  13
     \\/     M anipulation  |
\*---------------------------------------------------------------------------*/
FoamFile
{
    format      ascii;
    class       volScalarField;
    location    "1.55";
    object      alpha.mercury;
}
// * * * * * * * * * * * * * * * * * * * * * * * * * * * * * * * * * * * * * //

dimensions      [];

internalField   nonuniform List<scalar> 
2268
(
1
1
1
1
1
1
1
1
1
1
1
1
1
1
1
1
1
1
1
1
0.999986
0.999514
0.999432
1
1
1
1
1
1
1
1
1
1
1
1
1
1
1
1
1
1
1
1
1
0.999851
0.999432
1
1
1
1
1
1
1
1
1
1
1
1
1
1
1
1
1
1
1
1
1
1
0.99977
1
1
1
1
1
1
1
1
1
1
1
1
1
1
1
1
1
1
1
1
1
1
1
0.823061
0.823545
0.835603
0.860675
0.889032
0.915839
0.940638
0.963514
0.983063
0.996354
1
1
1
1
1
1
1
1
1
1
1
1
1
0.0527613
0.0739959
0.0923553
0.116581
0.146754
0.182632
0.227316
0.286139
0.366187
0.476395
0.624704
0.772386
0.890684
0.972124
0.999631
1
1
1
1
1
1
1
1
4.79153e-12
1.14134e-12
4.79153e-12
1.14134e-12
4.79153e-12
1.51605e-21
1.16382e-21
9.98564e-22
6.47508e-22
5.12354e-22
3.9867e-22
0.0316926
0.13068
0.307359
0.582814
0.873122
1
1
1
1
1
1
1
1.50728e-09
1.68568e-09
1.63629e-09
1.54384e-09
1.49213e-09
1.36574e-09
1.02143e-09
7.27441e-10
4.32826e-10
1.68403e-10
2.92069e-11
8.69624e-09
7.27531e-09
4.98303e-09
0.000116839
0.0650749
0.322295
0.715978
0.980962
0.999996
0.999994
0.999982
0.999997
0.876276
0.876164
0.876277
0.738702
0.546641
0.546411
0.570298
0.579156
0.582831
0.594462
0.668993
0.688594
0.704059
0.703
0.702468
0.70192
0.701734
0.701587
0.701218
0.876203
0.847699
0.836989
0.858147
0.858769
0.84758
0.847502
0.82974
0.804058
0.694552
0.577302
0.584043
0.58509
0.585686
0.561676
0.599899
0.636137
0.63736
0.550031
0.876249
0.656338
0.418982
0.531768
0.719599
0.73016
0.623235
0.482095
0.399543
0.355865
0.365274
0.300812
0.271838
0.255362
0.2797
0.273026
0.257935
0.31428
0.379127
0.809971
0.594202
0.387919
0.155844
0.164322
0.129176
0.0929605
0.107183
0.115477
0.16907
0.194409
0.210514
0.198507
0.164219
0.157747
0.150251
0.126317
0.134335
0.172086
0.180852
0.149275
0.313828
0.184443
0.00333819
0.000256612
9.64876e-05
8.86767e-05
8.83868e-05
8.85793e-05
0.0265429
0.0557749
0.0540837
0.068091
0.0744694
0.0915512
0.0891431
0.0637702
0.0571103
0.0633387
0.0920663
0.142282
0.135014
0.0162603
8.78998e-05
8.8731e-05
0.000336736
0.000785046
0.000361262
6.84104e-07
1.11956e-08
7.517e-11
6.04478e-11
2.03673e-07
0.00163746
0.00450571
0.00207315
0.00608638
0.00157379
0.0539876
0.0906097
0.0982327
0.0268358
7.98422e-05
8.87796e-05
0.000460976
0.000798213
0.000498702
0.000110762
1.17622e-08
1.06763e-05
4.38458e-05
9.52951e-05
1.63293e-05
1.26268e-05
0.00257801
0.01223
0.00143667
0.0159546
0.0673306
0.101535
0.0654203
0.00140442
5.67394e-05
0.000107981
0.000175375
0.000122015
7.97771e-05
2.14362e-05
1.72126e-05
0.000157075
0.000378072
0.000362887
7.33176e-05
0.00321613
0.0122019
1.67211e-09
2.12253e-09
2.38609e-09
2.51285e-09
2.60255e-09
2.60676e-09
2.27522e-09
1.83933e-09
1.3531e-09
8.45373e-10
4.59448e-10
2.26983e-10
1.07503e-10
6.42523e-11
5.39358e-11
1.46772e-08
0.000416317
0.0284524
0.135637
0.314732
0.480474
0.587953
0.723492
5.64149e-10
8.30417e-10
1.28399e-09
1.81065e-09
2.39318e-09
2.76129e-09
2.80201e-09
2.54164e-09
1.99642e-09
1.36544e-09
7.26178e-10
4.51537e-10
2.82307e-10
2.42517e-10
2.04293e-10
5.07697e-10
2.14443e-08
2.96444e-08
5.52049e-09
5.0046e-09
4.50609e-06
0.00242707
6.15667e-08
2.3929e-10
2.81282e-10
3.75504e-10
4.3206e-10
5.11921e-10
7.15832e-10
7.50456e-10
7.11934e-10
6.59405e-10
5.8706e-10
4.6432e-10
3.23061e-10
1.97507e-10
1.15101e-10
8.98851e-11
8.77904e-11
3.69139e-10
6.46569e-09
7.57183e-09
6.07331e-09
5.65831e-09
5.53833e-09
4.08622e-08
2.4143e-10
2.88895e-10
3.39874e-10
3.51609e-10
3.28037e-10
3.07961e-10
3.17296e-10
3.78296e-10
4.85243e-10
5.95633e-10
6.60471e-10
7.28263e-10
8.23641e-10
8.88879e-10
8.811e-10
8.98185e-10
8.43778e-10
7.34115e-10
4.62908e-10
2.86649e-10
2.25874e-09
3.13694e-08
5.30941e-08
3.04162e-10
4.90141e-10
5.37943e-10
5.72923e-10
6.5515e-10
8.01014e-10
9.96953e-10
1.21137e-09
1.47809e-09
1.74829e-09
1.87872e-09
1.9754e-09
2.10647e-09
2.41183e-09
2.90299e-09
3.31944e-09
3.32236e-09
3.15844e-09
2.40386e-09
9.40642e-10
1.855e-10
1.66163e-10
5.60315e-07
4.53313e-10
5.80161e-10
5.83845e-10
6.18183e-10
6.92799e-10
9.18357e-10
1.12273e-09
1.31563e-09
1.54502e-09
1.74759e-09
1.8142e-09
1.81492e-09
1.83726e-09
2.09469e-09
2.70969e-09
3.02698e-09
3.01254e-09
2.66649e-09
2.12862e-09
1.58393e-09
4.13373e-10
1.85443e-10
7.04399e-07
5.05877e-10
5.38302e-10
3.98223e-10
3.49913e-10
3.57329e-10
3.84908e-10
3.84065e-10
3.79552e-10
3.97346e-10
4.22248e-10
4.2859e-10
3.95249e-10
3.78167e-10
3.57102e-10
3.74505e-10
4.76115e-10
4.60795e-10
5.04282e-10
1.20065e-09
2.0181e-09
2.30009e-09
6.7175e-10
1.72374e-10
5.03149e-10
5.43115e-10
3.07411e-10
2.13419e-10
1.70994e-10
1.26025e-10
8.88594e-11
6.50889e-11
5.17537e-11
5.05164e-11
5.58258e-11
5.96722e-11
6.49925e-11
6.72661e-11
6.33458e-11
6.7705e-11
8.58968e-11
9.44915e-11
9.3006e-11
1.01804e-10
1.54877e-10
1.56446e-10
1.56679e-10
4.88781e-10
5.32706e-10
4.18811e-10
2.38027e-10
1.91428e-10
1.48195e-10
9.75519e-11
6.79265e-11
4.08678e-11
2.46749e-11
1.64859e-11
1.33123e-11
1.31161e-11
1.4113e-11
1.86612e-11
2.42592e-11
2.74954e-11
3.09682e-11
3.6916e-11
4.41767e-11
5.20764e-11
7.25562e-11
8.58426e-11
3.8006e-10
4.48985e-10
4.55683e-10
3.96819e-10
3.26631e-10
2.52993e-10
1.95681e-10
1.2696e-10
7.25032e-11
4.01953e-11
1.74424e-11
9.22391e-12
7.42964e-12
6.89012e-12
6.59852e-12
6.10494e-12
5.80155e-12
5.86928e-12
5.57609e-12
5.69533e-12
5.81936e-12
6.09246e-12
6.66442e-12
2.22401e-10
2.92241e-10
4.5436e-10
4.56609e-10
4.27085e-10
3.71367e-10
2.96454e-10
2.37127e-10
1.67063e-10
9.06251e-11
3.66751e-11
1.28548e-11
7.97113e-12
6.64744e-12
5.65156e-12
4.269e-12
3.13235e-12
2.36398e-12
1.86062e-12
1.60976e-12
1.28498e-12
1.06241e-12
1.01849e-12
9.81647e-11
2.02635e-10
4.35683e-10
4.59184e-10
4.48497e-10
4.0815e-10
3.26897e-10
2.78046e-10
2.43309e-10
1.81879e-10
1.11781e-10
4.78346e-11
1.80515e-11
1.23835e-11
8.59937e-12
4.91271e-12
3.10777e-12
2.23571e-12
1.60781e-12
1.1878e-12
8.10669e-13
5.85765e-13
4.4535e-13
4.98342e-11
1.50661e-10
3.41741e-10
4.43891e-10
4.20466e-10
3.59992e-10
2.93809e-10
2.72234e-10
2.53721e-10
2.12222e-10
1.58667e-10
9.73708e-11
4.09633e-11
2.12162e-11
1.30905e-11
7.66881e-12
4.42254e-12
3.0114e-12
1.87214e-12
1.14029e-12
7.24244e-13
4.67217e-13
3.11579e-13
2.70663e-11
1.31316e-10
2.59937e-10
3.75876e-10
3.32382e-10
2.6928e-10
2.46775e-10
2.4952e-10
2.44652e-10
2.15154e-10
1.73142e-10
1.19537e-10
6.88899e-11
3.19418e-11
1.86189e-11
1.28355e-11
6.55834e-12
4.1465e-12
2.68044e-12
1.4848e-12
7.46143e-13
4.29934e-13
2.62164e-13
1.68883e-11
9.54729e-11
2.28238e-10
2.74942e-10
2.45747e-10
2.22416e-10
2.13974e-10
2.04685e-10
1.9743e-10
1.94766e-10
1.71678e-10
1.26586e-10
7.72032e-11
4.02368e-11
2.47262e-11
1.56293e-11
7.89395e-12
4.89089e-12
3.12836e-12
1.65252e-12
8.56841e-13
4.38601e-13
2.36989e-13
1.0528e-11
6.92688e-11
1.44509e-10
1.84391e-10
1.77332e-10
1.69415e-10
1.58741e-10
1.53396e-10
1.48405e-10
1.47823e-10
1.37739e-10
1.15231e-10
7.73739e-11
4.33535e-11
2.62619e-11
1.52296e-11
8.42306e-12
4.89904e-12
2.99125e-12
1.6029e-12
9.31949e-13
5.09066e-13
2.62981e-13
9.83539e-12
3.84025e-11
7.57042e-11
9.1291e-11
1.08029e-10
1.13606e-10
1.0549e-10
9.79744e-11
9.63488e-11
9.4335e-11
9.33784e-11
8.43602e-11
6.64579e-11
3.79118e-11
2.48297e-11
1.41438e-11
8.49204e-12
4.14656e-12
2.47805e-12
1.50166e-12
9.47066e-13
5.42804e-13
3.10673e-13
6.82993e-12
2.35023e-11
4.06491e-11
4.85377e-11
6.35037e-11
6.84745e-11
6.64453e-11
6.09539e-11
5.47101e-11
4.62661e-11
4.63608e-11
4.57835e-11
4.11094e-11
3.0127e-11
1.92563e-11
1.17116e-11
7.36545e-12
3.31467e-12
1.976e-12
1.34069e-12
8.85297e-13
5.26363e-13
3.3506e-13
3.76136e-12
1.37841e-11
2.44032e-11
3.1111e-11
3.95234e-11
4.42837e-11
4.20292e-11
3.66625e-11
2.93336e-11
2.6675e-11
1.99704e-11
1.89171e-11
1.88931e-11
1.95837e-11
1.06587e-11
6.94327e-12
4.49091e-12
2.78414e-12
1.69796e-12
1.12304e-12
7.20213e-13
4.77486e-13
3.21038e-13
2.09422e-12
7.32587e-12
1.3755e-11
1.88979e-11
2.31007e-11
2.57687e-11
2.73418e-11
2.4577e-11
1.94961e-11
1.34972e-11
1.00036e-11
8.83009e-12
8.15518e-12
7.26739e-12
5.90397e-12
3.70441e-12
2.73095e-12
2.29802e-12
1.38612e-12
9.05138e-13
5.6972e-13
3.9025e-13
2.91612e-13
9.26079e-13
3.48498e-12
6.97367e-12
1.01893e-11
1.29699e-11
1.61121e-11
1.70977e-11
1.6105e-11
1.32444e-11
8.94944e-12
6.5445e-12
4.69789e-12
3.50719e-12
2.92434e-12
2.60877e-12
2.46538e-12
1.68993e-12
1.41432e-12
1.01524e-12
7.28656e-13
4.084e-13
3.07102e-13
2.45503e-13
4.38216e-13
1.51564e-12
3.02157e-12
4.68848e-12
6.57458e-12
8.3514e-12
9.76783e-12
9.87104e-12
8.79934e-12
6.86421e-12
4.23985e-12
2.6521e-12
1.82287e-12
1.43982e-12
1.27036e-12
1.04561e-12
9.40572e-13
7.72943e-13
6.3068e-13
5.27298e-13
3.14082e-13
2.18462e-13
1.78204e-13
1.40817e-13
5.51311e-13
1.16009e-12
1.87524e-12
2.85555e-12
3.87118e-12
4.73204e-12
5.36886e-12
5.25129e-12
4.31574e-12
3.12341e-12
1.72096e-12
1.06051e-12
7.78005e-13
6.11151e-13
5.27566e-13
4.59069e-13
3.91884e-13
3.28361e-13
2.92362e-13
2.03228e-13
1.37293e-13
1.11543e-13
4.97982e-14
1.86234e-13
3.76277e-13
6.09937e-13
9.51403e-13
1.65383e-12
1.9943e-12
2.44161e-12
2.81811e-12
2.53068e-12
1.87589e-12
1.1269e-12
6.55095e-13
3.9632e-13
2.84873e-13
2.2383e-13
1.98423e-13
1.75728e-13
1.54802e-13
1.31553e-13
9.98329e-14
7.96304e-14
6.5583e-14
1.35625e-14
5.13937e-14
1.06534e-13
1.75786e-13
2.70183e-13
5.2394e-13
7.73591e-13
8.92635e-13
1.24745e-12
1.31566e-12
1.00891e-12
6.8481e-13
3.82505e-13
2.20766e-13
1.35908e-13
9.61909e-14
7.6423e-14
6.69285e-14
5.86108e-14
5.34681e-14
4.47171e-14
3.76369e-14
3.13951e-14
3.55943e-15
1.28919e-14
2.64704e-14
4.47188e-14
7.59207e-14
1.54131e-13
2.40433e-13
3.01399e-13
4.06264e-13
5.62703e-13
4.59986e-13
3.36647e-13
2.20515e-13
1.15241e-13
6.17303e-14
4.16906e-14
3.03413e-14
2.53155e-14
2.18973e-14
1.97626e-14
1.76828e-14
1.48678e-14
1.28474e-14
5.59331e-16
2.49616e-15
5.64212e-15
9.96667e-15
1.89223e-14
4.43419e-14
7.02243e-14
9.52152e-14
1.25547e-13
1.83446e-13
1.77037e-13
1.36989e-13
9.3519e-14
5.36175e-14
2.75928e-14
1.63603e-14
1.10754e-14
8.92836e-15
7.66409e-15
6.81749e-15
5.98393e-15
5.25469e-15
4.60517e-15
8.57765e-17
4.17387e-16
1.01849e-15
1.9074e-15
4.00226e-15
1.07862e-14
1.82092e-14
2.5499e-14
3.45521e-14
5.23407e-14
5.40914e-14
4.54169e-14
3.33243e-14
2.13711e-14
1.03692e-14
5.69284e-15
3.6692e-15
2.97671e-15
2.4672e-15
2.208e-15
1.9349e-15
1.54935e-15
1.41006e-15
6.32364e-18
4.98609e-17
1.32403e-16
2.87624e-16
7.05832e-16
2.1314e-15
4.18639e-15
5.87451e-15
8.43311e-15
1.30433e-14
1.39156e-14
1.2126e-14
9.39909e-15
6.5085e-15
3.3971e-15
1.71592e-15
1.0903e-15
8.31826e-16
7.15425e-16
6.28564e-16
5.26099e-16
4.51371e-16
3.72058e-16
5.06048e-19
4.55249e-18
1.40357e-17
3.44252e-17
9.3291e-17
3.29576e-16
7.76815e-16
1.1589e-15
1.7304e-15
2.69436e-15
3.02518e-15
2.67617e-15
2.13284e-15
1.52933e-15
8.13122e-16
4.26847e-16
2.78842e-16
2.0698e-16
1.75947e-16
1.59213e-16
1.38583e-16
1.05064e-16
8.51725e-17
8.06672e-21
1.83289e-19
9.30561e-19
2.6475e-18
9.42104e-18
4.03038e-17
1.16438e-16
1.94683e-16
3.11779e-16
4.83124e-16
5.28136e-16
4.71557e-16
3.88974e-16
2.80536e-16
1.48321e-16
8.51931e-17
6.18356e-17
4.48122e-17
3.90428e-17
3.42312e-17
3.03357e-17
2.2614e-17
1.61701e-17
1.84443e-22
5.02935e-21
2.5696e-20
1.4963e-19
7.18417e-19
3.61031e-18
1.36134e-17
2.66508e-17
4.55618e-17
6.98824e-17
7.327e-17
6.83522e-17
5.86088e-17
3.91959e-17
2.19898e-17
1.38193e-17
1.06526e-17
8.25747e-18
7.08272e-18
6.37364e-18
5.61289e-18
3.55284e-18
2.65169e-18
1.12415e-24
5.40876e-23
7.27732e-22
6.06173e-21
5.04284e-20
2.90862e-19
1.02018e-18
2.84021e-18
5.15527e-18
7.13197e-18
7.88088e-18
7.67827e-18
6.49963e-18
4.39219e-18
2.67882e-18
1.92645e-18
1.59386e-18
1.28078e-18
1.09189e-18
9.75671e-19
7.82586e-19
5.53114e-19
3.38581e-19
2.25426e-26
3.62409e-25
2.04747e-23
3.1796e-22
3.08147e-21
1.88523e-20
7.32062e-20
2.1897e-19
4.83814e-19
6.64861e-19
7.50175e-19
7.32047e-19
6.02907e-19
4.07828e-19
2.89177e-19
2.37799e-19
1.97798e-19
1.72045e-19
1.43946e-19
1.29697e-19
1.01337e-19
6.14032e-20
3.52897e-20
6.79581e-28
6.52454e-27
7.19267e-25
1.4259e-23
1.53265e-22
9.2747e-22
4.21904e-21
1.47144e-20
3.65156e-20
5.23429e-20
5.96737e-20
5.81721e-20
4.70934e-20
3.49247e-20
2.8713e-20
2.57327e-20
2.36081e-20
2.0304e-20
1.82234e-20
1.50085e-20
1.02358e-20
6.08422e-21
3.09811e-21
2.02224e-29
1.49328e-28
2.28326e-26
5.31898e-25
6.11415e-24
4.42014e-23
2.23926e-22
8.74244e-22
2.49767e-21
3.64425e-21
4.11376e-21
3.94349e-21
3.30172e-21
2.82895e-21
2.63238e-21
2.51714e-21
2.36965e-21
2.09459e-21
1.82251e-21
1.37923e-21
8.94767e-22
4.55298e-22
2.44804e-22
4.94375e-31
3.16469e-30
5.6795e-28
1.55688e-26
2.05459e-25
1.76515e-24
1.00157e-23
4.21333e-23
1.39557e-22
2.11419e-22
2.39548e-22
2.33824e-22
2.18132e-22
2.183e-22
2.20242e-22
2.20193e-22
2.11038e-22
1.91284e-22
1.54532e-22
1.06371e-22
5.89687e-23
3.20587e-23
7.70091e-24
9.61287e-33
5.43983e-32
1.12969e-29
3.80248e-28
6.03524e-27
5.67463e-26
3.72694e-25
1.74369e-24
6.54913e-24
1.03174e-23
1.20399e-23
1.26777e-23
1.38048e-23
1.53983e-23
1.65239e-23
1.70492e-23
1.65916e-23
1.45191e-23
1.11253e-23
6.99425e-24
3.9767e-24
9.15213e-25
8.44382e-26
1.47906e-34
7.50725e-34
1.87112e-31
8.1829e-30
1.45525e-28
1.54075e-27
1.23601e-26
6.19207e-26
2.54919e-25
4.19166e-25
5.25417e-25
6.58278e-25
7.98558e-25
9.50802e-25
1.08034e-24
1.15868e-24
1.16097e-24
1.00555e-24
7.09099e-25
4.45598e-25
1.24527e-25
1.16777e-26
1.40081e-27
9.96947e-37
7.78572e-36
2.69789e-33
1.66446e-31
3.18477e-30
3.91628e-29
3.8614e-28
2.22185e-27
9.86378e-27
1.6723e-26
2.31776e-26
3.27506e-26
4.49038e-26
5.78408e-26
6.84442e-26
7.59285e-26
7.64951e-26
6.63383e-26
4.14024e-26
1.52418e-26
2.51862e-27
2.61611e-28
4.52731e-28
-7.89233e-38
1.30547e-39
3.61889e-35
3.38096e-33
6.96768e-32
9.51748e-31
1.1155e-29
6.77959e-29
3.16824e-28
5.84374e-28
9.31383e-28
1.52267e-27
2.28162e-27
3.14528e-27
3.91741e-27
4.48281e-27
4.50749e-27
3.68423e-27
1.95424e-27
5.41529e-28
5.90369e-29
4.85993e-29
2.43688e-28
-6.39126e-39
4.03393e-41
4.52106e-37
6.00932e-35
1.30576e-33
1.99443e-32
2.71647e-31
1.85836e-30
8.58556e-30
1.69787e-29
3.03932e-29
5.63615e-29
9.29702e-29
1.45636e-28
2.09319e-28
2.40168e-28
2.40736e-28
1.85537e-28
8.20355e-29
1.83598e-29
4.46414e-30
1.55044e-29
1.10762e-28
0.716293
0.722988
0.583158
0.0567583
4.68693e-08
4.99538e-08
5.69834e-08
0.000309334
4.85092e-08
3.19455e-07
3.18363e-07
7.63063e-08
4.7192e-08
4.66499e-08
5.20108e-06
2.62427e-07
3.05369e-07
1.87199e-07
8.21589e-06
2.42818e-05
8.32148e-07
7.12008e-07
7.4995e-08
2.77242e-08
1.66159e-10
1.72373e-10
1.94916e-10
2.12663e-10
1.60355e-10
1.6093e-10
1.99515e-10
3.00204e-10
9.19004e-11
9.20929e-11
8.77401e-11
8.21947e-11
8.20707e-12
8.97227e-12
9.35176e-12
9.75704e-12
1.08531e-12
1.28486e-12
1.5199e-12
1.47645e-12
3.91864e-13
4.67601e-13
4.14238e-13
3.74973e-13
2.3195e-13
1.90888e-13
1.91926e-13
1.83554e-13
1.74433e-13
1.44316e-13
1.24207e-13
1.12169e-13
1.42696e-13
1.0967e-13
9.04203e-14
8.52917e-14
1.39781e-13
1.02034e-13
8.81085e-14
8.37557e-14
1.72091e-13
1.22244e-13
1.01359e-13
8.80702e-14
2.05586e-13
1.52106e-13
1.24237e-13
9.90979e-14
2.18559e-13
1.66932e-13
1.40622e-13
1.13814e-13
2.06239e-13
1.74424e-13
1.38966e-13
1.1632e-13
1.85533e-13
1.51856e-13
1.31999e-13
1.12213e-13
1.39368e-13
1.25071e-13
1.06682e-13
9.31141e-14
9.1728e-14
7.87354e-14
7.10793e-14
6.34938e-14
4.78786e-14
4.28858e-14
3.88426e-14
3.51954e-14
2.33744e-14
1.94996e-14
1.7712e-14
1.60265e-14
9.14494e-15
7.64576e-15
6.86092e-15
6.09803e-15
3.56815e-15
2.82256e-15
2.4937e-15
2.09526e-15
1.07237e-15
8.59709e-16
7.51647e-16
6.03289e-16
3.00671e-16
2.28806e-16
1.98985e-16
1.49696e-16
6.49481e-17
5.04143e-17
4.24692e-17
3.04721e-17
1.21961e-17
8.73508e-18
7.02716e-18
4.95666e-18
1.99814e-18
1.30561e-18
9.90052e-19
6.54859e-19
2.4159e-19
1.61378e-19
1.03336e-19
6.53695e-20
2.37784e-20
1.44147e-20
9.01258e-21
5.88447e-21
1.98028e-21
1.33449e-21
5.13582e-22
6.24198e-23
7.92003e-23
1.37057e-23
1.5382e-24
5.9406e-26
3.8088e-26
4.64117e-27
9.25697e-27
2.22512e-26
1.51716e-27
3.49787e-27
8.45801e-27
2.34983e-26
1.5097e-27
2.72676e-27
8.01759e-27
2.54969e-26
8.37264e-28
2.47941e-27
8.53318e-27
2.67593e-26
5.7786e-28
2.16421e-27
7.66845e-27
2.31582e-26
4.22405e-28
1.42912e-27
4.49149e-27
1.19165e-26
0.0031844
0.0108495
0.0806452
0.100056
0.101522
0.0227232
2.45432e-05
2.86885e-05
3.90583e-05
2.94588e-05
1.27891e-05
1.20296e-06
3.20428e-05
2.64305e-05
0.000346342
0.000497434
0.000396909
0.00031253
0.00953096
0.000436713
0.0064682
0.0070355
0.0347412
0.0753789
0.0507086
0.000802477
6.07565e-06
4.11234e-06
9.21483e-06
3.66059e-06
7.0991e-07
3.23349e-06
2.69455e-06
8.01886e-05
0.000491477
0.00033335
6.42708e-08
0.00297547
0.00151896
0.00800989
0.0021792
1.06877e-05
-3.26687e-06
0.0123692
0.00838397
8.58734e-05
3.52704e-06
3.97893e-06
1.17862e-06
9.26398e-09
6.94438e-08
6.11797e-06
1.46651e-05
5.39062e-05
4.86151e-05
3.63483e-07
0.00113806
0.000501367
0.00142141
0.00129232
6.31944e-05
4.85448e-06
1.12567e-08
0.000948631
0.00138845
0.00115243
3.30738e-05
9.78833e-09
9.81915e-09
3.3681e-08
1.27922e-06
5.20009e-11
8.13519e-10
-2.9396e-09
2.00816e-07
0.000614582
3.37813e-08
1.84317e-09
2.1553e-09
1.58467e-07
2.70464e-07
5.54499e-08
7.12253e-09
0.000104458
0.000136157
7.46637e-05
5.30629e-06
1.67792e-06
3.14564e-07
2.12273e-09
7.38402e-10
3.68921e-13
2.58321e-07
2.05009e-06
0.00103895
5.5263e-09
2.09011e-09
2.57878e-09
1.31557e-09
1.34159e-08
5.63768e-08
3.1172e-08
-4.39146e-10
1.38688e-08
8.01739e-06
7.40825e-06
2.42829e-06
3.49573e-07
7.55524e-10
7.14634e-10
1.28093e-07
2.29965e-06
1.88502e-06
0.000681923
4.06235e-10
4.21333e-10
1.79536e-09
3.21506e-10
9.20733e-09
5.82279e-08
3.82868e-08
2.96415e-08
1.70959e-07
1.13161e-06
1.08327e-06
4.18727e-07
7.69102e-08
6.4427e-09
7.55645e-10
1.0623e-06
2.81259e-06
1.47925e-06
-1.3069e-05
5.32695e-10
6.01402e-10
4.32711e-10
1.41251e-10
8.25411e-11
7.96192e-11
8.04661e-11
1.24681e-09
1.5284e-08
4.45024e-09
5.00495e-09
-1.90949e-10
2.47183e-09
1.51688e-09
8.39016e-08
1.6885e-06
2.16618e-06
1.01557e-06
0.00232029
8.3396e-11
1.26236e-10
1.71861e-10
1.79622e-10
1.1574e-10
9.04087e-11
8.46601e-11
8.28198e-11
6.05841e-12
6.68153e-12
6.06204e-12
7.39847e-12
4.40954e-11
2.1136e-11
4.15512e-08
1.27485e-06
1.78108e-07
1.30918e-05
0.00556064
8.67904e-12
6.68597e-12
6.22662e-12
8.10531e-12
1.19457e-11
1.42164e-11
1.55716e-11
1.53084e-11
8.864e-12
6.64094e-12
6.68175e-12
5.55728e-11
1.148e-10
2.42192e-11
1.63253e-08
1.16072e-08
8.4289e-09
0.000118132
0.00566116
9.30696e-13
7.33347e-13
6.55201e-13
5.7262e-13
5.17422e-13
5.32261e-13
5.72054e-13
1.07244e-12
2.48766e-12
6.16793e-12
6.36282e-12
1.09212e-10
4.0133e-10
1.6732e-11
2.87835e-11
6.66146e-10
5.16652e-06
0.00053488
0.00566621
2.99571e-13
2.50729e-13
1.9568e-13
1.91152e-13
2.1194e-13
2.50029e-13
3.65058e-13
1.72147e-12
4.00763e-12
6.02171e-12
6.01778e-12
5.96922e-12
1.05324e-09
5.04792e-07
3.21906e-06
1.10401e-05
4.04941e-05
0.000476004
0.00371031
1.70141e-13
1.23693e-13
1.24841e-13
1.41743e-13
2.33111e-13
6.8552e-13
1.39244e-12
2.13809e-12
3.04875e-12
5.34749e-12
6.07987e-10
2.23977e-08
2.43599e-06
8.85304e-06
1.05705e-05
1.71664e-05
5.41653e-05
6.71893e-05
7.66161e-08
1.03576e-13
1.11384e-13
2.12641e-13
6.8478e-13
2.64126e-12
9.36603e-12
3.62843e-12
1.69657e-12
1.70543e-12
3.11555e-09
1.76017e-08
5.37251e-07
3.59945e-06
4.75761e-06
2.27816e-06
4.16478e-06
1.72816e-05
5.87857e-10
3.34738e-10
1.2426e-13
4.72251e-13
2.57468e-12
7.53774e-12
4.19616e-11
2.03865e-10
7.82043e-10
4.25923e-09
1.56977e-08
3.51623e-08
1.70372e-07
3.52648e-07
4.44739e-07
7.71182e-08
1.46106e-12
1.18273e-11
6.09909e-09
2.41986e-08
7.09949e-10
2.68804e-13
1.40544e-12
9.76652e-12
3.00773e-11
1.20143e-10
5.65265e-10
1.94101e-09
4.94794e-09
1.30881e-08
2.42222e-08
3.3924e-08
1.22794e-09
-1.32349e-24
8.85921e-12
2.58928e-11
9.28156e-11
6.61135e-10
1.8836e-08
8.86491e-10
1.0943e-13
1.28129e-12
7.82897e-12
2.58287e-11
8.22382e-11
2.49933e-10
7.22304e-10
1.81982e-09
3.49739e-09
4.39631e-09
2.22422e-09
-5.90844e-27
2.72231e-12
8.90659e-12
3.24087e-11
1.20964e-10
4.40441e-10
7.22118e-10
3.74414e-10
8.83753e-14
1.2929e-13
1.94597e-12
8.04909e-12
2.33852e-11
6.66611e-11
1.85172e-10
4.7478e-10
9.65437e-10
1.29391e-09
5.60348e-10
1.61051e-10
2.76287e-12
6.7806e-12
1.45295e-11
3.14121e-11
1.06507e-10
1.16611e-10
9.07939e-11
8.86542e-14
5.77957e-14
1.1624e-13
1.50525e-12
5.31811e-12
1.47639e-11
4.01667e-11
1.02494e-10
2.21895e-10
3.43574e-10
2.83592e-10
1.16883e-10
1.54781e-12
3.29715e-12
6.12425e-12
9.67688e-12
1.69714e-11
4.9206e-11
1.56111e-11
9.51625e-14
5.49048e-14
3.49326e-14
5.37287e-14
7.85315e-13
2.88777e-12
7.82239e-12
1.91755e-11
4.23331e-11
7.46765e-11
8.35158e-11
4.50242e-11
5.83196e-13
1.16691e-12
2.0892e-12
3.1182e-12
3.72677e-12
7.33172e-12
1.17962e-12
9.02692e-14
5.5791e-14
3.28454e-14
2.2186e-14
3.18822e-14
3.61219e-13
1.33665e-12
3.24174e-12
6.88195e-12
1.27382e-11
1.74859e-11
1.05921e-11
1.7397e-13
3.1617e-13
5.52939e-13
7.58768e-13
8.93695e-13
5.73823e-13
2.38715e-13
7.61165e-14
4.95296e-14
3.06426e-14
1.93293e-14
1.32926e-14
2.44545e-14
1.68801e-13
4.74734e-13
9.90051e-13
1.79144e-12
2.60297e-12
1.85633e-12
4.0318e-14
6.72348e-14
1.18405e-13
1.50536e-13
8.85218e-14
1.28605e-13
1.03484e-14
5.33622e-14
3.65789e-14
2.36251e-14
1.57747e-14
9.33361e-15
7.0007e-15
1.71034e-14
5.83559e-14
1.25405e-13
2.20157e-13
3.09288e-13
2.36097e-13
7.65289e-15
1.15946e-14
2.09265e-14
2.66734e-14
1.56979e-14
6.87651e-15
2.48538e-15
3.0327e-14
2.17283e-14
1.47556e-14
1.0218e-14
6.37635e-15
4.13292e-15
3.34328e-15
6.25965e-15
1.38689e-14
2.39874e-14
3.1873e-14
2.2686e-14
1.38975e-15
1.85696e-15
3.1118e-15
2.5737e-15
1.08067e-15
1.17315e-15
1.01107e-15
1.3954e-14
1.0247e-14
6.77225e-15
5.15569e-15
3.35016e-15
2.22343e-15
1.4991e-15
1.05589e-15
1.4122e-15
2.30234e-15
2.94659e-15
1.82736e-15
2.78543e-16
3.44755e-16
5.30045e-16
3.95522e-16
5.97372e-16
6.43061e-16
4.98663e-16
5.27419e-15
3.84529e-15
2.56725e-15
1.94515e-15
1.4122e-15
9.51577e-16
5.97179e-16
3.22365e-16
1.9534e-16
2.0937e-16
2.4439e-16
1.44333e-16
5.89822e-17
8.49805e-17
1.06905e-16
2.12731e-16
3.39373e-16
3.70897e-16
2.5172e-16
1.75982e-15
1.21926e-15
7.79421e-16
5.84609e-16
4.14883e-16
3.00806e-16
1.9644e-16
1.02347e-16
4.26711e-17
2.22009e-17
1.82839e-17
1.21283e-17
1.05695e-17
2.27381e-17
4.66568e-17
1.0259e-16
1.75867e-16
2.05385e-16
1.24882e-16
4.82283e-16
3.17698e-16
1.85679e-16
1.33888e-16
9.56812e-17
7.0268e-17
4.7112e-17
2.45215e-17
9.01101e-18
2.61649e-18
1.06333e-18
4.87689e-19
1.85879e-18
6.59776e-18
1.95243e-17
4.73953e-17
8.65567e-17
9.60995e-17
6.40297e-17
1.10004e-16
6.66722e-17
3.60025e-17
2.40885e-17
1.51732e-17
1.07954e-17
7.36689e-18
3.70428e-18
1.07888e-18
1.27328e-19
5.06074e-20
1.60971e-19
6.42899e-19
2.45665e-18
8.13113e-18
2.11165e-17
4.25362e-17
5.36534e-17
2.92569e-17
1.9496e-17
1.07797e-17
5.76922e-18
2.93121e-18
1.23973e-18
8.93409e-19
6.38541e-19
2.47298e-19
2.04467e-20
1.80797e-20
3.85536e-20
9.26001e-20
2.84963e-19
1.00276e-18
3.43041e-18
9.38659e-18
2.07705e-17
3.01384e-17
1.61505e-17
2.80184e-18
1.37078e-18
7.04011e-19
1.67872e-19
3.42624e-20
2.7265e-20
1.75306e-20
5.21402e-21
8.53375e-21
1.82488e-20
3.82736e-20
8.15263e-20
1.8586e-19
5.1309e-19
1.5836e-18
4.18941e-18
9.88852e-18
1.84492e-17
9.14458e-18
3.05406e-19
1.46982e-19
3.08439e-20
1.77758e-21
4.3913e-22
8.01034e-22
1.62512e-21
3.85693e-21
8.81885e-21
1.93977e-20
4.06477e-20
8.31988e-20
1.70306e-19
3.62494e-19
8.80929e-19
1.92545e-18
5.22334e-18
8.59206e-18
5.5429e-18
3.02029e-20
4.80551e-21
2.05617e-22
9.79736e-23
2.24526e-22
6.02461e-22
1.55543e-21
3.87575e-21
9.18624e-21
2.06228e-20
4.39135e-20
8.80375e-20
1.68805e-19
3.1456e-19
5.95086e-19
1.37685e-18
3.23261e-18
4.71215e-18
2.48577e-18
1.29908e-21
3.55198e-23
2.2779e-23
6.59551e-23
1.99961e-22
5.64979e-22
1.51864e-21
3.86306e-21
9.41987e-21
2.16229e-20
4.61379e-20
9.10322e-20
1.66288e-19
2.79165e-19
4.79776e-19
1.03971e-18
2.05002e-18
2.0614e-18
1.27123e-18
3.39497e-24
4.04291e-24
1.70866e-23
5.86254e-23
1.80328e-22
5.28381e-22
1.43895e-21
3.74203e-21
9.15562e-21
2.10681e-20
4.53461e-20
8.87174e-20
1.52748e-19
2.49876e-19
4.29842e-19
7.75305e-19
1.05803e-18
1.06702e-18
4.78496e-19
5.35023e-25
3.34168e-24
1.40387e-23
4.90882e-23
1.58253e-22
4.68249e-22
1.30589e-21
3.41322e-21
8.41036e-21
1.93539e-20
4.16339e-20
8.06067e-20
1.36777e-19
2.21743e-19
3.47949e-19
5.34323e-19
6.14928e-19
4.37222e-19
2.1981e-19
4.69544e-25
2.7541e-24
1.11608e-23
4.05441e-23
1.30975e-22
3.91146e-22
1.08797e-21
2.84308e-21
6.99815e-21
1.6169e-20
3.44508e-20
6.58646e-20
1.11174e-19
1.76193e-19
2.52255e-19
3.27336e-19
3.01814e-19
2.14725e-19
7.81676e-20
4.09624e-25
2.15866e-24
8.72845e-24
3.10875e-23
9.9592e-23
2.96276e-22
8.18151e-22
2.11377e-21
5.15041e-21
1.18518e-20
2.50606e-20
4.73809e-20
7.95632e-20
1.21274e-19
1.5753e-19
1.83397e-19
1.53229e-19
7.96329e-20
3.61516e-20
3.2234e-25
1.53808e-24
6.04315e-24
2.056e-23
6.59983e-23
1.93165e-22
5.28382e-22
1.35102e-21
3.25917e-21
7.45555e-21
1.56324e-20
2.95117e-20
4.89917e-20
7.30274e-20
8.85648e-20
9.16473e-20
5.78928e-20
3.51503e-20
1.25883e-20
2.26057e-25
9.34292e-25
3.39131e-24
1.10409e-23
3.34208e-23
9.63583e-23
2.64373e-22
6.85657e-22
1.66833e-21
3.83837e-21
8.10385e-21
1.51026e-20
2.48158e-20
3.62655e-20
4.13067e-20
3.91637e-20
2.44348e-20
1.06449e-20
6.16244e-21
1.17934e-25
4.27177e-25
1.42494e-24
4.42261e-24
1.33012e-23
3.83009e-23
1.05397e-22
2.79958e-22
6.94983e-22
1.62062e-21
3.46359e-21
6.61195e-21
1.0886e-20
1.58276e-20
1.73416e-20
1.581e-20
6.67256e-21
4.46046e-21
3.21951e-21
3.44237e-26
1.07917e-25
3.29786e-25
9.57262e-25
3.14322e-24
9.89377e-24
2.88258e-23
8.18316e-23
2.19181e-22
5.38481e-22
1.19748e-21
2.36912e-21
3.97752e-21
5.82561e-21
6.263e-21
5.6736e-21
2.4628e-21
1.8204e-21
1.38239e-21
)
;

boundaryField
{
    leftWall
    {
        type            alphaContactAngle;
        contactAngleProperties 
        {
            air             
            {
                theta0          90;
            }
            water           
            {
                theta0          90;
            }
            oil             
            {
                theta0          90;
            }
        }
        value           nonuniform List<scalar> 
50
(
1
1
1
1
0.823061
0.0527613
4.79153e-12
1.50728e-09
1.67211e-09
5.64149e-10
2.3929e-10
2.4143e-10
3.04162e-10
4.53313e-10
5.05877e-10
5.03149e-10
4.88781e-10
3.8006e-10
2.22401e-10
9.81647e-11
4.98342e-11
2.70663e-11
1.68883e-11
1.0528e-11
9.83539e-12
6.82993e-12
3.76136e-12
2.09422e-12
9.26079e-13
4.38216e-13
1.40817e-13
4.97982e-14
1.35625e-14
3.55943e-15
5.59331e-16
8.57765e-17
6.32364e-18
5.06048e-19
8.06672e-21
1.84443e-22
1.12415e-24
2.25426e-26
6.79581e-28
2.02224e-29
4.94375e-31
9.61287e-33
1.47906e-34
9.96947e-37
-7.89233e-38
-6.39126e-39
)
;
    }
    rightWall
    {
        type            alphaContactAngle;
        contactAngleProperties 
        {
            air             
            {
                theta0          90;
            }
            water           
            {
                theta0          90;
            }
            oil             
            {
                theta0          90;
            }
        }
        value           nonuniform List<scalar> 
50
(
0.701218
0.550031
0.379127
0.172086
0.0571103
0.00608638
0.01223
0.0122019
0.00953096
0.00297547
0.00113806
0.000614582
0.00103895
0.000681923
-1.3069e-05
0.00232029
0.00556064
0.00566116
0.00566621
0.00371031
7.66161e-08
3.34738e-10
7.09949e-10
8.86491e-10
3.74414e-10
9.07939e-11
1.56111e-11
1.17962e-12
2.38715e-13
1.03484e-14
2.48538e-15
1.01107e-15
4.98663e-16
2.5172e-16
1.24882e-16
6.40297e-17
2.92569e-17
1.61505e-17
9.14458e-18
5.5429e-18
2.48577e-18
1.27123e-18
4.78496e-19
2.1981e-19
7.81676e-20
3.61516e-20
1.25883e-20
6.16244e-21
3.21951e-21
1.38239e-21
)
;
    }
    lowerWall
    {
        type            alphaContactAngle;
        contactAngleProperties 
        {
            air             
            {
                theta0          90;
            }
            water           
            {
                theta0          90;
            }
            oil             
            {
                theta0          90;
            }
        }
        value           nonuniform List<scalar> 
62
(
1
1
1
1
1
1
1
1
1
1
1
1
1
1
1
1
1
1
1
1
0.999986
0.999514
0.999432
0.999432
0.999432
0.99977
1
1
1
1
0.999997
0.716293
0.722988
0.583158
0.0567583
0.876276
0.876203
0.876249
0.809971
0.180852
0.0633387
0.00157379
0.00143667
0.876276
0.876164
0.876277
0.738702
0.546641
0.546411
0.570298
0.579156
0.582831
0.594462
0.668993
0.688594
0.704059
0.703
0.702468
0.70192
0.701734
0.701587
0.701218
)
;
    }
    atmosphere
    {
        type            inletOutlet;
        inletValue      uniform 0;
        value           nonuniform List<scalar> 
46
(
0
0
0
0
0
0
0
0
0
0
0
0
0
0
0
0
0
0
0
0
0
0
0
0
0
0
0
0
0
0
0
0
9.89377e-24
2.88258e-23
8.18316e-23
2.19181e-22
5.38481e-22
1.19748e-21
2.36912e-21
3.97752e-21
5.82562e-21
6.263e-21
5.6736e-21
2.4628e-21
1.8204e-21
1.38239e-21
)
;
    }
    defaultFaces
    {
        type            empty;
    }
}


// ************************************************************************* //
