/*--------------------------------*- C++ -*----------------------------------*\
  =========                 |
  \\      /  F ield         | OpenFOAM: The Open Source CFD Toolbox
   \\    /   O peration     | Website:  https://openfoam.org
    \\  /    A nd           | Version:  13
     \\/     M anipulation  |
\*---------------------------------------------------------------------------*/
FoamFile
{
    format      ascii;
    class       volScalarField;
    location    "1.55";
    object      alpha.air;
}
// * * * * * * * * * * * * * * * * * * * * * * * * * * * * * * * * * * * * * //

dimensions      [];

internalField   nonuniform List<scalar> 
2268
(
1.35745e-13
2.12149e-13
3.17452e-13
2.64306e-13
2.27987e-13
1.85705e-13
1.34351e-13
8.84692e-14
5.20423e-14
2.76606e-14
1.64303e-14
1.02632e-14
6.48195e-15
3.82662e-15
1.94341e-15
8.64127e-16
7.20924e-16
7.59236e-16
1.24615e-15
6.50853e-15
2.75773e-14
2.07233e-14
2.81121e-14
7.68329e-13
1.86105e-12
1.9791e-12
1.65448e-12
1.48596e-12
1.28616e-12
1.01265e-12
7.31488e-13
4.62591e-13
2.53675e-13
1.48472e-13
8.84347e-14
5.86386e-14
3.6054e-14
2.13753e-14
1.10569e-14
7.2241e-15
7.0472e-15
8.29859e-15
2.38431e-14
9.36713e-14
1.34052e-13
2.51272e-13
3.72546e-12
5.68991e-12
5.14309e-12
4.27018e-12
3.73909e-12
3.36624e-12
2.91762e-12
2.30897e-12
1.59125e-12
9.93279e-13
6.15643e-13
3.94285e-13
2.49002e-13
1.8649e-13
1.29139e-13
7.30163e-14
4.24164e-14
3.00845e-14
3.35605e-14
7.89507e-14
3.1144e-13
8.1367e-13
1.72385e-12
1.52471e-11
2.27526e-11
2.44529e-11
2.23511e-11
1.76474e-11
1.30064e-11
9.92505e-12
7.29903e-12
5.08286e-12
3.29376e-12
2.1575e-12
1.4664e-12
8.84481e-13
6.4737e-13
4.80046e-13
3.80591e-13
1.9185e-13
1.28362e-13
1.2084e-13
2.16576e-13
4.79223e-13
1.61538e-12
2.64438e-12
1.19289e-10
1.32933e-10
1.33982e-10
1.23666e-10
1.03605e-10
7.86564e-11
5.66513e-11
4.16819e-11
3.01033e-11
2.13376e-11
1.45741e-11
9.69585e-12
6.16597e-12
4.7903e-12
4.5958e-12
3.72481e-12
1.5951e-12
7.77575e-14
6.44024e-14
6.34601e-14
6.24617e-14
9.0841e-13
6.20247e-13
5.20348e-10
4.12077e-10
3.5104e-10
3.23731e-10
3.1689e-10
3.46888e-10
3.71355e-10
3.45842e-10
3.01453e-10
2.3714e-10
1.46e-10
8.13821e-11
4.9112e-11
2.73436e-11
2.43725e-11
2.41193e-11
2.24399e-11
5.30637e-10
1.93329e-09
1.08015e-09
2.6083e-10
2.11155e-11
1.76269e-12
1.22549e-09
7.72822e-10
5.44997e-10
4.73189e-10
4.98659e-10
6.99243e-10
1.01303e-09
1.0346e-09
9.53353e-10
8.08503e-10
6.60315e-10
4.77473e-10
2.95368e-10
1.63693e-10
1.07032e-10
7.4572e-11
2.26544e-11
1.69958e-09
2.85939e-09
2.39928e-10
1.04315e-11
2.69678e-13
3.75758e-13
2.38623e-09
1.44708e-09
8.06228e-10
6.41708e-10
7.41084e-10
1.28544e-09
2.1978e-09
2.2629e-09
2.05792e-09
1.68812e-09
1.41016e-09
1.08159e-09
7.21197e-10
4.50031e-10
3.26636e-10
2.53823e-10
2.77761e-10
1.17536e-09
8.60675e-11
5.43423e-07
3.01012e-06
1.76275e-05
2.46971e-06
0.0013669
0.0401147
0.053089
0.078584
0.0787745
0.0768009
0.05313
0.0482518
0.0482612
0.0969631
0.203535
0.145703
0.102952
0.0252366
0.013938
0.0141018
0.0152699
0.0194241
0.0149979
0.000647566
2.06111e-06
1.6277e-06
0.00364709
0.0159449
0.0217667
0.0381707
0.0773382
0.104295
0.121344
0.215497
0.335094
0.31464
0.218901
0.134724
0.100037
0.0993401
0.0835836
0.0188288
0.00030706
0.00142679
0.000104612
1.52526e-05
1.02855e-05
9.79017e-05
0.261084
0.476487
0.505681
0.384208
0.360358
0.430035
0.496747
0.496766
0.495921
0.405169
0.380845
0.285938
0.0794883
0.000496875
0.0183609
0.0129885
0.00128098
2.60493e-06
-3.13404e-08
0.200173
0.553706
0.554347
0.55389
0.552325
0.508247
0.378592
0.204242
0.194599
0.288793
0.262407
0.191558
0.09492
0.00059605
0.0187351
0.021293
0.0126881
0.000244454
2.47942e-06
0.0161988
0.167819
0.338952
0.358236
0.487487
0.506804
0.237264
0.000656946
0.000614976
0.00063965
0.000620771
0.0006557
0.0381434
0.0119498
0.00628173
0.0138955
0.0136271
0.00210648
9.44067e-08
2.90284e-05
4.80838e-09
0.00612311
0.00810022
0.0604956
0.125148
0.0449367
0.0094542
0.00508505
0.00138128
0.00183149
0.0190341
0.0961178
0.0562528
0.0272886
0.0111825
0.00795543
0.00217049
1.6185e-05
3.33126e-06
-3.49674e-11
3.52566e-11
4.06683e-22
2.62721e-19
-2.90927e-11
-2.19605e-09
9.81569e-10
2.58877e-12
3.00625e-10
0.00269313
0.0525584
0.118328
0.0460509
0.11362
0.0784129
0.0718063
0.0164241
1.77529e-05
3.92756e-05
7.9945e-06
2.01452e-22
-6.68326e-11
-1.05234e-11
1.25907e-09
7.16101e-06
1.73236e-05
1.02338e-05
3.70579e-06
7.67321e-05
0.0339208
0.118328
3.49356e-09
2.10297e-09
9.11036e-10
1.78793e-09
1.61404e-09
2.41537e-09
4.47945e-09
4.57416e-09
4.25899e-09
3.915e-09
3.46438e-09
2.79728e-09
1.89701e-09
1.21698e-09
1.02244e-09
6.76779e-10
5.64365e-10
4.87959e-10
8.95293e-11
2.20023e-13
3.59615e-05
4.47455e-05
3.21319e-05
3.43725e-09
2.29043e-09
8.99035e-10
2.20231e-09
6.43625e-09
6.87254e-09
1.21873e-08
1.42036e-08
1.39855e-08
1.53075e-08
1.64797e-08
1.66458e-08
1.53263e-08
1.17214e-08
1.00058e-08
7.26385e-09
5.36048e-10
2.15747e-13
2.20045e-13
2.15651e-13
3.4102e-06
4.5649e-06
6.95368e-06
3.53863e-09
2.93633e-08
0.00124627
0.00061226
1.34465e-05
1.40913e-08
1.77956e-08
1.98532e-08
2.47447e-08
2.64005e-08
3.50113e-08
3.65748e-08
4.15474e-08
3.87213e-08
4.05715e-08
3.42404e-08
4.55061e-08
3.4489e-08
4.6823e-08
6.01241e-08
6.17888e-07
3.26403e-05
2.91484e-05
0.0125945
0.0486373
0.0275583
0.00901169
0.0106545
0.0242202
0.0480339
0.0649501
0.0594684
0.0545644
0.065285
0.0788732
0.0755979
0.0537018
0.0328717
0.0330124
0.0382843
0.0387563
0.0307236
0.0244428
0.0305173
0.0397537
0.0411249
0.264292
0.097265
0.0241805
0.00922578
0.024682
0.130356
0.205531
0.206158
0.206555
0.215646
0.21771
0.218841
0.21771
0.218543
0.189556
0.193358
0.246892
0.248455
0.233295
0.202315
0.20171
0.225615
0.235345
0.32894
0.0451484
0.0175784
0.0175602
0.0184234
0.089765
0.122035
0.091517
0.0655281
0.0865116
0.10716
0.109896
0.101179
0.0844558
0.0960537
0.111614
0.0978516
0.0638672
0.0228175
0.0144516
0.0107192
0.00215922
3.57746e-05
0.278768
0.0811851
0.115424
0.0671047
0.0358419
0.0182845
0.00767863
0.00152716
1.37834e-08
5.72945e-09
2.11628e-08
2.65421e-08
4.7614e-08
5.6556e-08
5.27536e-08
8.72965e-10
-1.96834e-19
7.11669e-09
2.11403e-08
1.27201e-08
-3.54488e-20
9.70421e-17
5.12449e-08
0.49778
0.730468
0.816329
0.759635
0.678067
0.592013
0.510844
0.441395
0.368206
0.294588
0.24316
0.19773
0.157926
0.123879
0.094129
0.0686054
0.0492376
0.0361796
0.0282657
0.0238221
0.0196059
0.0202658
0.0243676
0.829083
0.922176
0.999971
0.999993
1
1
1
1
1
0.99554
0.972958
0.947329
0.918533
0.888751
0.854789
0.816188
0.77674
0.741556
0.715592
0.699233
0.683058
0.685839
0.702491
0.979773
0.972078
0.993058
0.99999
0.999999
1
1
1
1
1
0.999999
0.999999
1
1
1
1
1
1
1
1
1
1
1
0.999999
0.996745
0.996835
0.999966
1
1
1
1
0.999999
0.999999
0.999991
0.999999
1
1
1
1
1
1
1
1
1
1
1
0.999999
0.999999
0.999641
1
1
1
1
1
0.999997
0.999954
0.999846
0.999962
0.999997
0.999999
1
1
1
0.999999
0.999999
0.999999
0.999999
1
1
0.999999
0.999999
0.999999
0.999999
1
1
1
1
0.999999
0.999827
0.999825
0.999834
0.999983
0.999999
0.999999
0.999998
0.999998
0.999999
0.999999
0.999999
0.999999
1
1
0.999999
0.999998
0.999999
1
1
1
1
1
0.999994
0.999839
0.999827
0.999826
0.99996
0.999998
0.999997
0.999997
0.999997
0.999999
1
1
1
1
1
1
0.999999
1
1
1
1
1
1
0.999996
0.999984
0.999845
0.999827
0.999966
0.999997
0.999997
0.999997
0.999998
1
1
1
1
1
1
1
1
1
1
1
1
1
1
1
1
1
0.999969
0.99999
0.999997
0.999997
0.999998
1
1
1
1
1
1
1
1
1
1
1
1
1
1
1
1
1
1
1
0.999999
0.999997
0.999999
1
1
1
1
1
1
1
1
1
1
1
1
1
1
1
1
1
1
1
1
0.999999
0.999997
0.999999
1
1
1
1
1
1
1
1
1
1
1
1
1
1
1
1
1
1
1
1
0.999999
0.999999
1
1
1
1
1
1
1
1
1
1
1
1
1
1
1
1
1
1
1
1
1
1
1
1
1
1
1
1
1
1
1
1
1
1
1
1
1
1
1
1
1
1
1
1
1
1
1
1
1
1
1
1
1
1
1
1
1
1
1
1
1
1
1
1
1
1
1
1
1
1
1
1
1
1
1
1
1
1
1
1
1
1
1
1
1
1
1
1
1
1
1
1
1
1
1
1
1
1
1
1
1
1
1
1
1
1
1
1
1
1
1
1
1
1
1
1
1
1
1
1
1
1
1
1
1
1
1
1
1
1
1
1
1
1
1
1
1
1
1
1
1
1
1
1
1
1
1
1
1
1
1
1
1
1
1
1
1
1
1
1
1
1
1
1
1
1
1
1
1
1
1
1
1
1
1
1
1
1
1
1
1
1
1
1
1
1
1
1
1
1
1
1
1
1
1
1
1
1
1
1
1
1
1
1
1
1
1
1
1
1
1
1
1
1
1
1
1
1
1
1
1
1
1
1
1
1
1
1
1
1
1
1
1
1
1
1
1
1
1
1
1
1
1
1
1
1
1
1
1
1
1
1
1
1
1
1
1
1
1
1
1
1
1
1
1
1
1
1
1
1
1
1
1
1
1
1
1
1
1
1
1
1
1
1
1
1
1
1
1
1
1
1
1
1
1
1
1
1
1
1
1
1
1
1
1
1
1
1
1
1
1
1
1
1
1
1
1
1
1
1
1
1
1
1
1
1
1
1
1
1
1
1
1
1
1
1
1
1
1
1
1
1
1
1
1
1
1
1
1
1
1
1
1
1
1
1
1
1
1
1
1
1
1
1
1
1
1
1
1
1
1
1
1
1
1
1
1
1
1
1
1
1
1
1
1
1
1
1
1
1
1
1
1
1
1
1
1
1
1
1
1
1
1
1
1
1
1
1
1
1
1
1
1
1
1
1
1
1
1
1
1
1
1
1
1
1
1
1
1
1
1
1
1
1
1
1
1
1
1
1
1
1
1
1
1
1
1
1
1
1
1
1
1
1
1
1
1
1
1
1
1
1
1
1
1
1
1
1
1
1
1
1
1
1
1
1
1
1
1
1
1
1
1
1
1
1
1
1
1
1
1
1
1
1
1
1
1
1
1
1
1
1
1
1
1
1
1
1
1
1
1
1
1
1
1
1
1
1
1
1
1
1
1
1
1
1
1
1
1
1
1
1
1
1
1
1
1
1
0.000223692
0.00116513
0.000760926
0.000297206
0.00130255
0.00710942
0.00609928
0.00384949
0.00250635
0.0490596
0.0604157
0.0254704
0.125899
0.228901
0.196415
0.162751
0.240576
0.232716
0.0744798
0.00697604
4.11178e-08
7.31147e-13
6.7687e-23
6.4306e-10
2.08706e-16
1.11794e-19
4.1104e-20
-9.84045e-16
0.0247871
0.0249048
0.0262758
0.0315138
0.704561
0.702194
0.701836
0.71455
1
1
1
1
1
1
1
1
1
1
1
1
1
1
1
1
1
1
1
1
1
1
1
1
1
1
1
1
1
1
1
1
1
1
1
1
1
1
1
1
1
1
1
1
1
1
1
1
1
1
1
1
1
1
1
1
1
1
1
1
1
1
1
1
1
1
1
1
1
1
1
1
1
1
1
1
1
1
1
1
1
1
1
1
1
1
1
1
1
1
1
1
1
1
1
1
1
1
1
1
1
1
1
1
1
1
1
1
1
1
1
1
1
1
1
1
1
1
1
1
1
1
1
1
1
1
1
1
1
1
1
1
0.00495625
0.174182
0.173099
0.109544
0.114977
0.026124
7.24937e-05
6.19985e-05
5.27604e-05
6.62975e-05
0.000242943
0.00023814
0.00013449
0.000127258
9.53779e-05
0.000257384
0.000276163
0.000844856
0.0348336
0.00942871
0.211454
0.214805
0.0572991
0.125892
0.16665
0.0709128
0.00128534
0.00333991
0.00960187
0.00406658
4.75201e-05
0.000127765
8.97704e-05
9.19805e-05
0.000696781
0.000697228
-3.75971e-06
0.0146092
0.141168
0.223855
0.1361
0.000810547
0.0112869
0.163444
0.180514
0.179267
0.14413
0.0185108
5.35527e-08
2.91735e-05
0.000162782
8.97732e-05
1.70524e-05
0.000516805
0.000601964
1.64688e-06
0.0110234
0.173015
0.158407
0.0239255
3.67315e-06
4.00814e-05
0.000301269
0.137437
0.180514
0.161672
0.0127362
-8.58629e-07
9.8379e-06
0.000166365
0.000109185
3.12146e-06
7.38576e-05
0.000102978
1.87021e-06
0.0285679
6.99666e-05
1.75775e-08
6.30284e-10
3.26055e-06
2.31392e-06
7.58442e-07
0.00051559
0.0243102
0.0287966
0.00811585
4.28062e-08
9.99773e-09
8.16359e-05
8.05217e-05
5.57124e-06
1.03469e-06
7.59849e-07
6.39387e-08
0.0342754
3.54326e-09
1.61287e-09
1.30422e-07
3.191e-06
5.00083e-06
2.2788e-06
1.28935e-08
2.11312e-09
4.59012e-10
0.000301215
4.31353e-05
1.2583e-06
7.0011e-06
1.53328e-05
5.54839e-06
1.04246e-06
1.17562e-08
5.98621e-08
0.0349413
2.60375e-09
9.76977e-09
1.07793e-08
1.51338e-08
3.65524e-07
1.02549e-06
1.00393e-06
1.09318e-07
2.11312e-09
3.38318e-07
1.84005e-06
8.93727e-07
8.51084e-07
5.73327e-07
1.13455e-06
3.76131e-07
2.8713e-08
8.46962e-08
0.0184644
0.0391834
0.0523684
0.0782588
0.101575
0.120179
0.139802
0.163795
0.139344
0.086227
0.0125922
7.87891e-07
8.097e-07
5.52077e-07
7.7258e-07
6.93938e-07
2.21985e-08
1.01865e-08
1.98849e-07
0.0042408
0.741915
0.768683
0.81195
0.84697
0.863712
0.879239
0.884243
0.899826
0.872339
0.78143
0.638032
0.530173
0.402391
0.228917
0.0871246
2.51212e-07
2.04979e-06
2.39091e-07
-3.33844e-09
1
1
1
1
1
1
1
1
1
0.999999
0.999999
0.999998
0.991764
0.946063
0.858849
0.683012
0.280005
2.84961e-08
5.15745e-05
1
1
1
1
1
1
1
1
1
1
0.999998
0.999997
0.999998
0.999997
0.999996
0.999995
0.975028
0.629664
0.213797
1
1
1
1
0.999999
0.999999
1
0.999831
0.999207
0.999467
0.99994
0.999998
0.999998
0.999873
0.999992
0.999986
0.999958
0.998973
0.946907
1
1
1
0.999999
0.999999
0.999999
0.999892
0.99897
0.998963
0.998967
0.999999
0.999999
0.999235
0.997673
0.997585
0.998099
0.99947
0.999933
0.993678
1
1
1
1
1
1
0.999901
0.999438
0.999251
0.999726
0.999999
0.999967
0.998666
0.997624
0.998176
0.998536
0.999215
0.999999
1
1
1
1
1
0.999999
0.999998
0.999999
0.999998
0.999985
1
0.999997
0.999953
0.999715
0.999726
0.999909
0.999996
0.999859
1
1
1
1
1
1
1
1
1
1
1
1
0.999998
0.999995
1
1
1
1
1
1
1
1
1
1
1
1
1
1
1
1
1
1
1
1
1
1
1
1
0.999999
0.999999
1
1
1
1
1
1
1
1
1
1
1
1
1
1
1
1
0.999999
0.999999
0.999999
1
1
1
1
1
1
1
1
1
1
1
1
1
1
1
1
1
0.999999
0.999999
1
1
1
1
1
1
1
1
1
1
1
1
1
1
1
1
1
1
1
1
1
1
1
1
1
1
1
1
1
1
1
1
1
1
1
1
1
1
1
1
1
1
1
1
1
1
1
1
1
1
1
1
1
1
1
1
1
1
1
1
1
1
1
1
1
1
1
1
1
1
1
1
1
1
1
1
1
1
1
1
1
1
1
1
1
1
1
1
1
1
1
1
1
1
1
1
1
1
1
1
1
1
1
1
1
1
1
1
1
1
1
1
1
1
1
1
1
1
1
1
1
1
1
1
1
1
1
1
1
1
1
1
1
1
1
1
1
1
1
1
1
1
1
1
1
1
1
1
1
1
1
1
1
1
1
1
1
1
1
1
1
1
1
1
1
1
1
1
1
1
1
1
1
1
1
1
1
1
1
1
1
1
1
1
1
1
1
1
1
1
1
1
1
1
1
1
1
1
1
1
1
1
1
1
1
1
1
1
1
1
1
1
1
1
1
1
1
1
1
1
1
1
1
1
1
1
1
1
1
1
1
1
1
1
1
1
1
1
1
1
1
1
1
1
1
1
1
1
1
1
1
1
1
1
1
1
1
1
1
1
1
1
1
1
1
1
1
1
1
1
1
1
1
1
1
1
1
1
1
1
1
1
1
1
1
1
1
1
1
1
1
1
1
1
1
1
1
1
1
1
1
1
1
1
1
1
1
1
1
1
1
1
1
1
1
1
1
1
1
1
1
1
1
1
1
1
1
1
1
1
1
1
1
1
1
1
1
1
1
1
1
1
1
1
1
1
1
1
1
1
1
1
1
1
1
1
1
1
1
1
1
1
1
1
1
1
1
1
1
1
1
1
1
1
1
1
1
1
1
1
1
1
1
1
1
1
1
1
1
1
1
1
1
1
1
1
1
1
1
1
1
1
1
1
1
1
1
1
1
1
1
1
1
1
1
1
1
1
1
1
1
1
1
1
1
1
1
1
1
1
1
1
1
1
1
1
1
)
;

boundaryField
{
    leftWall
    {
        type            alphaContactAngle;
        contactAngleProperties 
        {
            mercury         
            {
                theta0          90;
            }
            water           
            {
                theta0          90;
            }
            oil             
            {
                theta0          90;
            }
        }
        value           nonuniform List<scalar> 
50
(
1.35745e-13
7.68329e-13
3.72546e-12
1.52471e-11
1.19289e-10
5.20348e-10
1.22549e-09
2.38623e-09
3.49356e-09
3.43725e-09
3.53863e-09
0.0125945
0.264292
0.32894
0.278768
0.49778
0.829083
0.979773
0.999999
0.999999
0.999999
0.999999
1
1
1
1
1
1
1
1
1
1
1
1
1
1
1
1
1
1
1
1
1
1
1
1
1
1
1
1
)
;
    }
    rightWall
    {
        type            alphaContactAngle;
        contactAngleProperties 
        {
            mercury         
            {
                theta0          90;
            }
            water           
            {
                theta0          90;
            }
            oil             
            {
                theta0          90;
            }
        }
        value           nonuniform List<scalar> 
50
(
0.0149979
0.0188288
0.0794883
0.09492
0.0381434
0.0961178
0.118328
0.118328
0.0348336
0.0146092
0.0110234
0.0285679
0.0342754
0.0349413
0.0184644
0.0042408
-3.33844e-09
5.15745e-05
0.213797
0.946907
0.993678
1
1
1
0.999999
0.999999
0.999999
1
1
1
1
1
1
1
1
1
1
1
1
1
1
1
1
1
1
1
1
1
1
1
)
;
    }
    lowerWall
    {
        type            alphaContactAngle;
        contactAngleProperties 
        {
            mercury         
            {
                theta0          90;
            }
            water           
            {
                theta0          90;
            }
            oil             
            {
                theta0          90;
            }
        }
        value           nonuniform List<scalar> 
62
(
1.35745e-13
2.12149e-13
3.17452e-13
2.64306e-13
2.27987e-13
1.85705e-13
1.34351e-13
8.84692e-14
5.20423e-14
2.76606e-14
1.64303e-14
1.02632e-14
6.48195e-15
3.82662e-15
1.94341e-15
8.64127e-16
7.20924e-16
7.59236e-16
1.24615e-15
6.50853e-15
2.75773e-14
2.07233e-14
2.81121e-14
2.81121e-14
2.51272e-13
1.72385e-12
2.64438e-12
6.20247e-13
1.76269e-12
3.75758e-13
2.46971e-06
0.000223692
0.00116513
0.000760926
0.000297206
0.0013669
0.000647566
0.00030706
0.000496875
0.00059605
0.0119498
0.0562528
0.0460509
0.0013669
0.0401147
0.053089
0.078584
0.0787745
0.0768009
0.05313
0.0482518
0.0482612
0.0969631
0.203535
0.145703
0.102952
0.0252366
0.013938
0.0141018
0.0152699
0.0194241
0.0149979
)
;
    }
    atmosphere
    {
        type            inletOutlet;
        inletValue      uniform 1;
        value           nonuniform List<scalar> 
46
(
1
1
1
1
1
1
1
1
1
1
1
1
1
1
1
1
1
1
1
1
1
1
1
1
1
1
1
1
1
1
1
1
1
1
1
1
1
1
1
1
1
1
1
1
1
1
)
;
    }
    defaultFaces
    {
        type            empty;
    }
}


// ************************************************************************* //
