/*--------------------------------*- C++ -*----------------------------------*\
  =========                 |
  \\      /  F ield         | OpenFOAM: The Open Source CFD Toolbox
   \\    /   O peration     | Website:  https://openfoam.org
    \\  /    A nd           | Version:  13
     \\/     M anipulation  |
\*---------------------------------------------------------------------------*/
FoamFile
{
    format      ascii;
    class       volScalarField;
    location    "1.55";
    object      epsilon;
}
// * * * * * * * * * * * * * * * * * * * * * * * * * * * * * * * * * * * * * //

dimensions      [0 2 -3 0 0 0 0];

internalField   nonuniform List<scalar> 
2268
(
0.0060352
0.0296156
0.0583773
0.0863673
0.113498
0.139798
0.165099
0.188804
0.210252
0.228847
0.24396
0.255017
0.261744
0.263783
0.260322
0.250295
0.234746
0.215321
0.191743
0.163489
0.127759
0.0804274
0.0253289
0.00939333
0.0204487
0.0336077
0.0465055
0.0588618
0.0706095
0.0816438
0.091787
0.100852
0.108659
0.115033
0.119834
0.122971
0.124354
0.12386
0.121458
0.117922
0.11357
0.107849
0.0995843
0.0859834
0.0643781
0.0452155
0.0159883
0.0225602
0.0326068
0.0425387
0.0519096
0.0606537
0.0687332
0.0760817
0.0826185
0.0882597
0.0929268
0.0965638
0.0991445
0.100659
0.101108
0.10058
0.0994902
0.0979715
0.0956232
0.0914954
0.0838561
0.0724403
0.0782147
0.023601
0.0269874
0.0356796
0.0443036
0.0523233
0.0597039
0.0664605
0.07258
0.0780256
0.0827511
0.0867153
0.0898978
0.0923058
0.0939659
0.0949196
0.0952603
0.0952237
0.0948707
0.0939232
0.0917429
0.0876039
0.0836602
0.114248
0.0324642
0.0330938
0.0408255
0.048529
0.0556222
0.0621015
0.0680154
0.0733768
0.0781658
0.0823514
0.0859102
0.0888403
0.0911702
0.0929502
0.0942368
0.0951063
0.0956881
0.0960231
0.0959578
0.0951897
0.0939545
0.0968308
0.151552
0.042656
0.0408748
0.0475676
0.0543618
0.0606319
0.0663689
0.071626
0.0764193
0.0807283
0.0845249
0.0877961
0.0905508
0.0928298
0.0947057
0.096244
0.0974955
0.0985204
0.0993803
0.100064
0.100614
0.102236
0.112381
0.194283
0.0553001
0.050405
0.055554
0.0613014
0.06677
0.0718516
0.0765574
0.0808862
0.0848076
0.0882938
0.0913407
0.0939575
0.0961916
0.0981495
0.0999077
0.101481
0.102876
0.104214
0.105646
0.10757
0.112199
0.131387
0.260834
0.0712205
0.0613312
0.0643918
0.0689357
0.0736161
0.0781156
0.0823528
0.0862874
0.089872
0.0930758
0.0959127
0.0984155
0.100651
0.10274
0.104762
0.10666
0.108394
0.1102
0.11242
0.115778
0.123318
0.153366
0.45174
0.0627716
0.133494
0.19755
0.244811
0.285261
0.327481
0.37406
0.43029
0.479818
0.496232
0.494859
0.494595
0.484001
0.447094
0.381726
0.300444
0.197961
0.0974081
0.0188346
0.0741701
0.0975161
0.122717
0.147852
0.173175
0.199946
0.229282
0.257091
0.272693
0.271298
0.259012
0.243082
0.226745
0.204743
0.175236
0.140113
0.099628
0.0599902
0.032682
0.10506
0.113103
0.128511
0.145489
0.166007
0.188698
0.212949
0.235303
0.247164
0.242557
0.22759
0.209457
0.191576
0.172048
0.148651
0.121429
0.0913155
0.0630005
0.0553757
0.131894
0.129289
0.144198
0.157076
0.171812
0.192704
0.214585
0.235228
0.248193
0.244504
0.228719
0.208205
0.188408
0.168968
0.147575
0.123098
0.0962268
0.0719835
0.0810335
0.160712
0.145117
0.158343
0.171818
0.180071
0.195099
0.213145
0.231349
0.246077
0.248461
0.236865
0.216019
0.194857
0.174998
0.155049
0.132291
0.106493
0.0835399
0.100969
0.204215
0.164799
0.169911
0.181623
0.188429
0.19348
0.20455
0.21832
0.23138
0.238171
0.234148
0.219465
0.201146
0.183102
0.165557
0.14538
0.120582
0.098152
0.117755
0.279733
0.192341
0.178558
0.185236
0.192605
0.192164
0.196513
0.205464
0.215569
0.222513
0.222394
0.214507
0.202154
0.188775
0.175154
0.159044
0.136438
0.115499
0.149345
0.435609
0.227388
0.184233
0.184383
0.191866
0.191743
0.191962
0.19663
0.203657
0.209632
0.211355
0.207827
0.200728
0.192372
0.183012
0.17034
0.150705
0.13316
0.193978
0.0956866
0.0784114
0.0787869
0.081713
0.0852983
0.0889773
0.0925461
0.0958989
0.0989483
0.101653
0.104052
0.106243
0.108393
0.110661
0.113154
0.115793
0.118363
0.121043
0.124576
0.130089
0.140429
0.167219
0.261896
0.144005
0.10531
0.10089
0.102021
0.104488
0.107202
0.109885
0.112396
0.114603
0.116469
0.118068
0.119555
0.121115
0.122946
0.125209
0.128
0.131336
0.135233
0.140255
0.147326
0.157468
0.17282
0.199388
0.21021
0.135357
0.125028
0.124434
0.125857
0.127618
0.129418
0.131079
0.132403
0.133391
0.134207
0.135067
0.13615
0.137616
0.139593
0.142137
0.145307
0.14923
0.154176
0.160307
0.167484
0.175152
0.182771
0.302617
0.169229
0.151335
0.148117
0.147904
0.148388
0.149217
0.150035
0.150513
0.150726
0.15095
0.151427
0.152296
0.153681
0.155729
0.158527
0.162087
0.166344
0.171108
0.176118
0.181009
0.185348
0.188954
0.435188
0.209921
0.179435
0.17183
0.168999
0.167698
0.167332
0.167227
0.166972
0.166698
0.166706
0.167194
0.168214
0.169849
0.172284
0.175725
0.18011
0.185001
0.189884
0.194467
0.19857
0.201957
0.204636
0.575953
0.250844
0.207687
0.194668
0.187948
0.183922
0.181764
0.18049
0.179658
0.179322
0.179597
0.180529
0.182102
0.184396
0.187627
0.191974
0.197212
0.202711
0.20797
0.2128
0.217116
0.220888
0.224342
0.620224
0.287142
0.243454
0.22322
0.208883
0.199174
0.193435
0.190202
0.188584
0.18822
0.188873
0.190392
0.192728
0.195919
0.200105
0.205325
0.211298
0.217528
0.223648
0.229514
0.235076
0.240374
0.245644
0.530052
0.324646
0.30891
0.273436
0.240464
0.21838
0.205948
0.199236
0.195979
0.195115
0.195998
0.198118
0.201256
0.205382
0.210504
0.216565
0.223308
0.23041
0.237657
0.24498
0.252369
0.259806
0.267264
0.430954
0.341772
0.375105
0.372142
0.292461
0.244086
0.221084
0.209325
0.203409
0.201271
0.202176
0.204904
0.208948
0.214096
0.220284
0.22736
0.235056
0.243168
0.251625
0.260441
0.269649
0.279227
0.289261
0.342627
0.324804
0.342981
0.353379
0.313648
0.258453
0.228714
0.214065
0.206853
0.204282
0.205498
0.20966
0.215206
0.22182
0.229523
0.238114
0.247228
0.256648
0.26641
0.276629
0.28739
0.298724
0.311017
0.360185
0.274937
0.306394
0.319171
0.29493
0.256387
0.229142
0.213658
0.206113
0.203427
0.204423
0.208008
0.213185
0.219717
0.227534
0.236414
0.246106
0.256507
0.26767
0.279684
0.292379
0.305431
0.319284
0.430841
0.261174
0.270499
0.280363
0.264979
0.240486
0.220919
0.208787
0.202953
0.201264
0.202009
0.204378
0.208534
0.214401
0.221822
0.230633
0.240732
0.252061
0.264506
0.277804
0.291389
0.304563
0.317496
0.445348
0.245893
0.238488
0.242445
0.234485
0.221262
0.210003
0.202903
0.199666
0.198938
0.199506
0.201456
0.205139
0.210606
0.217574
0.225849
0.235339
0.245954
0.257467
0.26947
0.281349
0.292538
0.303289
0.406776
0.223035
0.210206
0.21178
0.20967
0.20456
0.199774
0.19673
0.195552
0.195606
0.196395
0.198152
0.201439
0.206311
0.212412
0.219537
0.227601
0.236513
0.246054
0.25584
0.265409
0.274402
0.282894
0.370584
0.204385
0.189422
0.189928
0.191019
0.190753
0.190142
0.189883
0.190228
0.19098
0.191996
0.193666
0.196551
0.200707
0.205811
0.211656
0.218155
0.22522
0.232666
0.240197
0.247483
0.254313
0.260519
0.351014
0.193083
0.175916
0.175133
0.177175
0.179098
0.180674
0.182067
0.183451
0.184829
0.186223
0.187954
0.190498
0.193987
0.198184
0.202905
0.208048
0.213521
0.219172
0.224777
0.230109
0.235018
0.239182
0.339822
0.185539
0.1665
0.164352
0.166161
0.16872
0.17121
0.173468
0.175529
0.177419
0.17921
0.181136
0.183518
0.186515
0.190009
0.193851
0.197938
0.202177
0.206442
0.210564
0.214388
0.217796
0.220408
0.328808
0.17824
0.158218
0.155054
0.156337
0.158894
0.161683
0.164367
0.166866
0.169173
0.171343
0.17352
0.175911
0.178639
0.181658
0.184877
0.188206
0.191561
0.194842
0.197924
0.200702
0.203087
0.204697
0.313381
0.169332
0.14941
0.145785
0.146707
0.149148
0.152038
0.154968
0.157789
0.160453
0.162975
0.165433
0.167941
0.170579
0.17334
0.176174
0.179015
0.181799
0.184449
0.186875
0.189012
0.190796
0.191876
0.29218
0.158235
0.139451
0.135927
0.136791
0.13923
0.142228
0.145369
0.148472
0.151459
0.154311
0.157054
0.159745
0.162427
0.165105
0.167755
0.170339
0.172808
0.175109
0.177183
0.17899
0.18049
0.181367
0.26541
0.145044
0.12829
0.125342
0.126427
0.129034
0.132216
0.135587
0.138964
0.142253
0.145414
0.14844
0.151348
0.154159
0.15688
0.159501
0.161999
0.164346
0.166506
0.168439
0.170127
0.171546
0.172418
0.234184
0.130214
0.11617
0.114137
0.115652
0.118551
0.121981
0.125605
0.12925
0.132821
0.136265
0.139558
0.142695
0.145682
0.148523
0.151213
0.153743
0.156093
0.158244
0.16017
0.161864
0.163314
0.164272
0.200357
0.114515
0.103532
0.102572
0.10461
0.107846
0.111547
0.115421
0.119313
0.123134
0.126827
0.130359
0.133715
0.13689
0.139885
0.142697
0.14532
0.147746
0.149961
0.151949
0.15371
0.155237
0.156315
0.168583
0.0992735
0.0909895
0.0910116
0.0935297
0.0970679
0.101009
0.105093
0.109189
0.11321
0.117104
0.120835
0.124379
0.127728
0.130877
0.133824
0.136565
0.139094
0.141402
0.14348
0.145328
0.146943
0.148138
0.139669
0.0848723
0.0789819
0.0798402
0.0827299
0.0864623
0.0905521
0.0947687
0.0989988
0.103155
0.107189
0.111061
0.114749
0.118236
0.121516
0.124585
0.127437
0.130068
0.132471
0.134639
0.136572
0.138268
0.139567
0.114385
0.0717837
0.0679285
0.0694369
0.0725585
0.0763628
0.0804838
0.0847211
0.0889726
0.0931708
0.0972703
0.101217
0.104988
0.108564
0.111935
0.115092
0.118031
0.120745
0.123228
0.125472
0.127477
0.129241
0.130628
0.0938072
0.0605723
0.0582505
0.0601707
0.0633612
0.0671021
0.0711272
0.0752707
0.079441
0.0835767
0.0876315
0.0915665
0.0953552
0.0989594
0.102369
0.105572
0.10856
0.111327
0.113863
0.116162
0.11822
0.120036
0.121498
0.0784415
0.0516334
0.0502538
0.0523205
0.0554151
0.0589673
0.0627819
0.0667258
0.0707161
0.0746959
0.0786207
0.0824533
0.086163
0.0897235
0.0931169
0.0963139
0.0993086
0.10209
0.104648
0.106975
0.109066
0.110917
0.112437
0.0680347
0.0450375
0.0440351
0.0460056
0.0488676
0.0521388
0.055661
0.0593259
0.063059
0.0668074
0.0705288
0.074187
0.0777505
0.0811926
0.0844909
0.0876261
0.0905821
0.0933365
0.0958818
0.0982065
0.100304
0.102171
0.103733
0.0617561
0.0405332
0.039473
0.0411758
0.0437236
0.0466687
0.0498609
0.0532062
0.0566377
0.060107
0.0635743
0.0670051
0.0703686
0.0736378
0.0767893
0.0798024
0.0826591
0.0853431
0.0878396
0.0901296
0.0922074
0.0940669
0.0956491
0.0586446
0.037696
0.0363131
0.0376713
0.0398866
0.0425123
0.0453806
0.0484049
0.0515251
0.0546975
0.0578861
0.0610588
0.064187
0.0672447
0.0702087
0.0730585
0.0757752
0.0783421
0.0807432
0.082964
0.0849938
0.0868199
0.0883979
0.0579977
0.0361455
0.0343121
0.0353374
0.0372629
0.0396023
0.0421807
0.0449087
0.0477322
0.0506128
0.0535187
0.0564219
0.0592965
0.0621192
0.0648684
0.0675243
0.070069
0.0724857
0.0747588
0.0768735
0.0788179
0.0805821
0.0821288
0.0592747
0.0356575
0.0333662
0.0341209
0.0358146
0.0379195
0.0402459
0.0427073
0.0452555
0.0478575
0.0504866
0.0531192
0.0557333
0.0583084
0.0608254
0.0632666
0.0656154
0.0678559
0.0699734
0.0719536
0.0737841
0.0754553
0.0769353
0.0625418
0.0363167
0.0335891
0.0341358
0.0356393
0.0375323
0.0396224
0.0418293
0.0441115
0.0464417
0.0487977
0.0511599
0.0535096
0.0558294
0.0581028
0.0603143
0.062449
0.0644927
0.0664319
0.068253
0.0699439
0.0714942
0.0728776
0.0686736
0.0386601
0.035402
0.0357005
0.0369668
0.0386033
0.040422
0.04235
0.0443507
0.0463993
0.0484756
0.0505616
0.0526407
0.0546973
0.0567169
0.0586861
0.0605917
0.0624213
0.0641626
0.0658033
0.0673315
0.0687363
0.0699955
0.0795358
0.043743
0.039524
0.0392997
0.0401205
0.0413491
0.0427933
0.0443753
0.0460514
0.0477908
0.0495689
0.0513653
0.0531624
0.054945
0.0566996
0.0584139
0.0600765
0.0616762
0.0632022
0.0646433
0.0659882
0.0672256
0.0683357
0.0980547
0.0531331
0.0468921
0.0454794
0.04542
0.0459692
0.0468748
0.0480125
0.0493046
0.0506976
0.0521527
0.0536414
0.055142
0.0566376
0.0581145
0.059561
0.0609667
0.0623217
0.0636165
0.0648411
0.0659846
0.0670354
0.0679751
0.128863
0.0689528
0.0584813
0.0546429
0.0530303
0.0525501
0.0527385
0.0533397
0.0541981
0.055215
0.0563273
0.0574931
0.0586843
0.0598809
0.0610684
0.0622351
0.0633715
0.0644689
0.0655189
0.0665125
0.0674398
0.068289
0.0690423
0.180951
0.0940819
0.0748892
0.0666906
0.0627551
0.0609653
0.0603461
0.0603876
0.0608088
0.0614503
0.0622191
0.0630596
0.0639371
0.0648293
0.0657208
0.0666004
0.0674594
0.0682903
0.0690861
0.0698391
0.0705407
0.0711794
0.0717383
0.278823
0.13236
0.0952591
0.0804434
0.0738376
0.0708353
0.069559
0.0691583
0.0692208
0.069536
0.0699917
0.0705254
0.0711006
0.0716951
0.0722945
0.0728889
0.0734712
0.0740352
0.0745756
0.0750867
0.0755614
0.0759899
0.0763573
0.525098
0.185272
0.114379
0.0929481
0.0849627
0.0816549
0.0802491
0.0797024
0.0795752
0.0796646
0.0798704
0.0801398
0.0804435
0.0807641
0.081091
0.081417
0.0817372
0.0820477
0.0823451
0.0826258
0.0828854
0.0831172
0.0833102
1.59566
0.212347
0.116674
0.0997141
0.0949356
0.0932276
0.0925364
0.0922512
0.092151
0.0921428
0.0921834
0.0922504
0.0923319
0.092421
0.0925133
0.0926063
0.0926981
0.0927872
0.0928728
0.0929534
0.0930278
0.0930933
0.093146
0.881145
0.789969
0.728199
0.671522
0.240052
0.248852
0.247813
0.239541
0.18931
0.192791
0.194366
0.193793
0.191349
0.19294
0.194323
0.195485
0.206513
0.207983
0.209611
0.211405
0.22707
0.229145
0.231338
0.233654
0.249773
0.25277
0.255778
0.258758
0.272752
0.276722
0.280786
0.284835
0.296921
0.302307
0.307619
0.312672
0.320776
0.327582
0.334331
0.34063
0.331137
0.339883
0.348693
0.356157
0.328179
0.335724
0.343225
0.34942
0.312049
0.317842
0.323338
0.327967
0.289577
0.29376
0.297625
0.300916
0.265139
0.267932
0.270441
0.272571
0.242022
0.243667
0.245064
0.246189
0.221968
0.222812
0.223439
0.223843
0.205497
0.205888
0.20609
0.206103
0.192327
0.19253
0.192581
0.19247
0.181737
0.18192
0.181984
0.181917
0.172844
0.173088
0.173245
0.173296
0.164807
0.165137
0.165402
0.165585
0.156962
0.157372
0.157734
0.15803
0.148883
0.149356
0.149791
0.150171
0.140389
0.140909
0.141395
0.141834
0.131511
0.132066
0.132586
0.133065
0.12243
0.12301
0.123556
0.124063
0.113409
0.114009
0.114574
0.115102
0.104734
0.105349
0.105927
0.10647
0.096667
0.0972899
0.0978756
0.0984266
0.0894171
0.0900393
0.0906247
0.0911756
0.0831306
0.0837414
0.0843165
0.0848573
0.0778987
0.0784862
0.0790391
0.0795587
0.0737808
0.0743313
0.0748481
0.0753323
0.0708172
0.0713169
0.0717837
0.0722179
0.0690562
0.0694914
0.0698945
0.0702644
0.0685775
0.068937
0.0692642
0.069557
0.0695148
0.0697904
0.0700334
0.0702399
0.0720763
0.0722659
0.0724229
0.0725414
0.0765673
0.076677
0.0767564
0.0767977
0.0834117
0.0834581
0.0834814
0.0834737
0.0931705
0.0931789
0.0931784
0.0931648
0.354639
0.231007
0.186517
0.181701
0.188812
0.19207
0.19029
0.189766
0.191988
0.195467
0.198224
0.199199
0.198756
0.197526
0.194191
0.184799
0.16886
0.159716
0.271934
0.209973
0.188483
0.18045
0.182982
0.191239
0.197306
0.196939
0.193966
0.192014
0.191966
0.193561
0.196549
0.200973
0.205827
0.206888
0.199364
0.188577
0.196053
0.409194
0.189922
0.185785
0.185647
0.191429
0.201289
0.208852
0.209272
0.205527
0.201433
0.198785
0.198358
0.20082
0.206479
0.213546
0.217259
0.21397
0.210267
0.233204
0.522854
0.197003
0.198447
0.200733
0.205902
0.214594
0.222212
0.224301
0.221263
0.216375
0.212015
0.20956
0.210362
0.215056
0.222047
0.22751
0.229044
0.232951
0.269594
0.619841
0.214639
0.218292
0.221398
0.225431
0.231426
0.237252
0.239563
0.237503
0.232948
0.227938
0.224265
0.223557
0.226654
0.232581
0.238813
0.244095
0.254736
0.303181
0.707609
0.237703
0.242169
0.245513
0.248578
0.252205
0.255507
0.256486
0.254299
0.249851
0.244737
0.240552
0.238811
0.240414
0.244932
0.251026
0.258505
0.273874
0.331128
0.778328
0.26367
0.268652
0.271988
0.274204
0.275951
0.276951
0.276176
0.273092
0.268218
0.262745
0.258045
0.255389
0.255549
0.258434
0.263576
0.271486
0.288764
0.350465
0.821806
0.291332
0.296986
0.30008
0.301373
0.30154
0.30062
0.298191
0.294014
0.288397
0.282253
0.276857
0.273337
0.272141
0.273071
0.276199
0.282212
0.297782
0.358433
0.829526
0.32037
0.326249
0.328715
0.328893
0.327713
0.32546
0.321841
0.316638
0.310001
0.30284
0.296783
0.292973
0.291091
0.290121
0.290623
0.292672
0.30238
0.355469
0.79751
0.349402
0.354417
0.355372
0.354053
0.35171
0.348768
0.344495
0.338232
0.330412
0.322365
0.317111
0.315566
0.314609
0.310105
0.306626
0.303612
0.304536
0.345778
0.735296
0.365094
0.367589
0.366676
0.364475
0.361896
0.35939
0.355761
0.349326
0.339804
0.329268
0.323945
0.321508
0.318792
0.313161
0.310179
0.311175
0.307082
0.334119
0.670801
0.356188
0.356949
0.354663
0.351457
0.348174
0.345021
0.341394
0.334861
0.324654
0.314256
0.307645
0.302807
0.297377
0.291082
0.287463
0.28608
0.286168
0.316117
0.634581
0.333171
0.333586
0.33067
0.326413
0.321899
0.317574
0.312889
0.305933
0.296837
0.288324
0.282465
0.277544
0.2716
0.265535
0.263497
0.264477
0.267309
0.29307
0.634217
0.304758
0.304964
0.301846
0.296927
0.291466
0.286122
0.280641
0.273782
0.26614
0.259852
0.255979
0.252184
0.245624
0.238373
0.234778
0.232453
0.232319
0.258252
0.50799
0.274973
0.27466
0.271542
0.266586
0.260905
0.255186
0.24943
0.243212
0.237039
0.232509
0.230008
0.226901
0.220347
0.212462
0.207521
0.204068
0.202749
0.230537
0.397017
0.247231
0.246242
0.243212
0.238635
0.233308
0.227801
0.222302
0.216914
0.211987
0.208362
0.205894
0.202608
0.19661
0.189681
0.184882
0.18169
0.181973
0.201768
0.319072
0.223872
0.222303
0.219418
0.215393
0.210722
0.205822
0.200966
0.196405
0.192307
0.188927
0.185938
0.182208
0.177019
0.171614
0.16792
0.166036
0.167417
0.179975
0.261192
0.205587
0.203748
0.201122
0.19771
0.1938
0.189674
0.185587
0.181734
0.178146
0.174803
0.171428
0.167548
0.163135
0.159086
0.15647
0.155422
0.156638
0.16386
0.220895
0.191803
0.190031
0.187795
0.185012
0.181844
0.178474
0.175089
0.17179
0.168546
0.165265
0.161788
0.158024
0.15421
0.150988
0.148931
0.148067
0.148449
0.152075
0.196015
0.18135
0.179871
0.178101
0.175912
0.173392
0.17065
0.167814
0.164916
0.161918
0.158741
0.155331
0.151754
0.1483
0.14541
0.143391
0.142215
0.14184
0.144095
0.183956
0.172938
0.171843
0.170535
0.168858
0.166852
0.16458
0.162118
0.15948
0.156637
0.153549
0.150221
0.146767
0.143438
0.140537
0.138265
0.136654
0.135897
0.138566
0.181019
0.165459
0.164735
0.163824
0.16255
0.16092
0.158967
0.156739
0.154247
0.15148
0.14843
0.145131
0.141698
0.138332
0.135259
0.132659
0.130706
0.12999
0.134136
0.183071
0.158105
0.157692
0.15709
0.156112
0.154744
0.153
0.150915
0.148502
0.145765
0.142719
0.139411
0.135949
0.132495
0.129243
0.126402
0.124304
0.123932
0.12994
0.186791
0.150408
0.150237
0.149862
0.149096
0.147913
0.146318
0.144336
0.141983
0.139277
0.136245
0.132944
0.129475
0.125982
0.122652
0.11974
0.117714
0.117875
0.125701
0.190253
0.142195
0.14221
0.142004
0.1414
0.140363
0.138896
0.137017
0.134747
0.13211
0.129144
0.125912
0.122513
0.119086
0.115826
0.113027
0.111261
0.112049
0.121462
0.192633
0.133526
0.133691
0.13362
0.133152
0.132252
0.130919
0.129171
0.127028
0.124519
0.121691
0.118611
0.115378
0.112135
0.109084
0.106552
0.105177
0.106617
0.117323
0.193702
0.124606
0.124902
0.12495
0.124612
0.123853
0.122675
0.121091
0.119124
0.116805
0.114186
0.111337
0.108359
0.105396
0.102658
0.100491
0.0995709
0.10163
0.113333
0.193447
0.115716
0.116131
0.116292
0.116083
0.115475
0.11447
0.113081
0.111329
0.109249
0.106893
0.104332
0.101669
0.0990464
0.0966782
0.0949167
0.0944561
0.0970595
0.10948
0.191965
0.107145
0.107668
0.107937
0.107857
0.107404
0.106582
0.105404
0.10389
0.102075
0.10001
0.097767
0.0954447
0.093184
0.091196
0.089833
0.0897917
0.0928385
0.105738
0.189379
0.0991492
0.0997665
0.100132
0.100172
0.0998687
0.0992262
0.0982588
0.0969856
0.0954395
0.0936695
0.091744
0.089758
0.0878466
0.0862145
0.0852079
0.0855173
0.0888987
0.102078
0.185936
0.0919282
0.0926177
0.0930619
0.0932044
0.0930323
0.092552
0.0917782
0.0907288
0.0894344
0.0879404
0.0863102
0.0846324
0.0830341
0.0817109
0.0809991
0.0815781
0.0851916
0.0985658
0.182085
0.0856192
0.0863512
0.0868467
0.0870632
0.086993
0.0866445
0.086033
0.0851755
0.0840999
0.0828469
0.081474
0.0800618
0.0787278
0.0776564
0.0771711
0.0779372
0.081679
0.0950371
0.177648
0.0803066
0.0810442
0.0815545
0.0818069
0.0817982
0.0815396
0.0810476
0.0803389
0.0794385
0.0783824
0.0772207
0.0760255
0.0749038
0.0740271
0.0737044
0.0745789
0.0783337
0.0914859
0.172498
0.0760382
0.0767392
0.0772206
0.0774611
0.0774623
0.0772409
0.0768159
0.0762049
0.0754304
0.0745227
0.0735245
0.0724987
0.0715414
0.0708107
0.0705965
0.0715155
0.0752002
0.0880073
0.166979
0.072852
0.0734705
0.073871
0.0740398
0.0739862
0.0737369
0.0733163
0.0727453
0.0720439
0.0712363
0.0703571
0.0694591
0.0686268
0.0680041
0.0678615
0.0687864
0.0723535
0.0847348
0.16138
0.0707986
0.0712857
0.0715454
0.0715689
0.0713774
0.0710157
0.0705235
0.0699276
0.0692446
0.0684906
0.06769
0.0668851
0.0661488
0.065611
0.0655235
0.0664429
0.0698826
0.0818185
0.15612
0.0699657
0.0702723
0.070323
0.0701078
0.0696648
0.0690756
0.0684142
0.067718
0.0669963
0.0662518
0.0654952
0.0647567
0.0640977
0.0636355
0.0636047
0.0645326
0.0678703
0.0793978
0.151462
0.070504
0.0705876
0.070357
0.0697835
0.0689233
0.0679337
0.0669688
0.0660814
0.0652613
0.0644854
0.0637438
0.0630517
0.0624593
0.0620733
0.0621141
0.0630838
0.0663753
0.0775827
0.147724
0.0726557
0.0724966
0.0719257
0.0708512
0.0693208
0.0676364
0.0661671
0.0649764
0.0639969
0.0631541
0.0624045
0.0617438
0.0612109
0.0609048
0.0610368
0.0620905
0.0654101
0.0764249
0.145017
0.0767835
0.0764172
0.0755146
0.0738252
0.0712502
0.0682743
0.0659748
0.0643451
0.0631519
0.0622165
0.0614428
0.0608015
0.0603203
0.0600934
0.0603288
0.0615014
0.064924
0.0758968
0.143457
0.0833908
0.0829578
0.0819241
0.0797586
0.075766
0.0699636
0.0662974
0.0640945
0.0626615
0.0616282
0.0608247
0.0601934
0.0597515
0.0595915
0.0599231
0.0612229
0.0647942
0.0758693
0.142989
0.0931117
0.0928858
0.0922914
0.0906922
0.0861884
0.0724833
0.06684
0.0640718
0.0624503
0.0613477
0.0605222
0.0598936
0.0594727
0.0593512
0.0597423
0.0611285
0.0648198
0.0760512
0.143441
)
;

boundaryField
{
    leftWall
    {
        type            epsilonWallFunction;
        value           nonuniform List<scalar> 
50
(
0.0060352
0.00939333
0.0159883
0.023601
0.0324642
0.042656
0.0553001
0.0712205
0.0956866
0.144005
0.21021
0.302617
0.435188
0.575953
0.620224
0.530052
0.430954
0.342627
0.360185
0.430841
0.445348
0.406776
0.370584
0.351014
0.339822
0.328808
0.313381
0.29218
0.26541
0.234184
0.200357
0.168583
0.139669
0.114385
0.0938072
0.0784415
0.0680347
0.0617561
0.0586446
0.0579977
0.0592747
0.0625418
0.0686736
0.0795358
0.0980547
0.128863
0.180951
0.278823
0.525098
1.59566
)
;
    }
    rightWall
    {
        type            epsilonWallFunction;
        value           nonuniform List<scalar> 
50
(
0.0188346
0.032682
0.0553757
0.0810335
0.100969
0.117755
0.149345
0.193978
0.271934
0.409194
0.522854
0.619841
0.707609
0.778328
0.821806
0.829526
0.79751
0.735296
0.670801
0.634581
0.634217
0.50799
0.397017
0.319072
0.261192
0.220895
0.196015
0.183956
0.181019
0.183071
0.186791
0.190253
0.192633
0.193702
0.193447
0.191965
0.189379
0.185936
0.182085
0.177648
0.172498
0.166979
0.16138
0.15612
0.151462
0.147724
0.145017
0.143457
0.142989
0.143441
)
;
    }
    lowerWall
    {
        type            epsilonWallFunction;
        value           nonuniform List<scalar> 
62
(
0.0060352
0.0296156
0.0583773
0.0863673
0.113498
0.139798
0.165099
0.188804
0.210252
0.228847
0.24396
0.255017
0.261744
0.263783
0.260322
0.250295
0.234746
0.215321
0.191743
0.163489
0.127759
0.0804274
0.0253289
0.0253289
0.0452155
0.0782147
0.114248
0.151552
0.194283
0.260834
0.45174
0.881145
0.789969
0.728199
0.671522
0.0627716
0.0741701
0.10506
0.131894
0.160712
0.204215
0.279733
0.435609
0.0627716
0.133494
0.19755
0.244811
0.285261
0.327481
0.37406
0.43029
0.479818
0.496232
0.494859
0.494595
0.484001
0.447094
0.381726
0.300444
0.197961
0.0974081
0.0188346
)
;
    }
    atmosphere
    {
        type            inletOutlet;
        inletValue      uniform 0.1;
        value           nonuniform List<scalar> 
46
(
0.1
0.1
0.1
0.1
0.1
0.1
0.1
0.1
0.1
0.1
0.1
0.1
0.1
0.1
0.1
0.1
0.1
0.1
0.1
0.1
0.1
0.1
0.1
0.1
0.1
0.1
0.1
0.1
0.1
0.1
0.1
0.1
0.0724833
0.06684
0.0640718
0.0624503
0.0613477
0.0605222
0.0598936
0.0594727
0.0593512
0.0597423
0.0611285
0.0648198
0.0760512
0.143441
)
;
    }
    defaultFaces
    {
        type            empty;
    }
}


// ************************************************************************* //
