/*--------------------------------*- C++ -*----------------------------------*\
  =========                 |
  \\      /  F ield         | OpenFOAM: The Open Source CFD Toolbox
   \\    /   O peration     | Website:  https://openfoam.org
    \\  /    A nd           | Version:  13
     \\/     M anipulation  |
\*---------------------------------------------------------------------------*/
FoamFile
{
    format      ascii;
    class       volScalarField;
    location    "1.55";
    object      p;
}
// * * * * * * * * * * * * * * * * * * * * * * * * * * * * * * * * * * * * * //

dimensions      [1 -1 -2 0 0 0 0];

internalField   nonuniform List<scalar> 
2268
(
4437.2
4448.49
4474.11
4511.04
4555.86
4608.73
4671.47
4746.55
4836.73
4944.57
5071.89
5219.44
5387.53
5575.33
5779.95
5996.45
6218.88
6441.25
6655.69
6851.96
7018.03
7134.3
7204.38
3639.5
3648.8
3672.32
3708.99
3754.11
3807.05
3869.3
3943.51
4032.67
4139.56
4266.26
4413.57
4581.95
4770.81
4977.57
5197.82
5425.84
5655.17
5876.81
6078.34
6247.66
6349.42
6412.27
2840.18
2850.95
2872.27
2907.74
2952.31
3004.74
3066.15
3139.26
3227.24
3333.18
3459.4
3606.6
3775.46
3965.7
4175.1
4399.54
4633.19
4869.41
5097.84
5304.2
5475.15
5569.23
5638.25
2038.81
2052.1
2071.81
2106.23
2149.77
2200.84
2260.58
2331.88
2418.2
2523.14
2649.26
2796.66
2966.51
3159.14
3372.4
3601.8
3840.82
4083.59
4318.44
4529.07
4702.82
4801.17
4885.2
1296.3
1315
1330.98
1356.47
1388.79
1427.82
1475.43
1535.06
1611.15
1709.25
1833.53
1980.67
2151.77
2348.56
2568.11
2804.13
3048.96
3298.63
3540.57
3756.24
3936.73
4047.95
4150.72
913.773
923.199
929.053
936.807
947.274
961.568
980.847
1006.82
1041.91
1089.61
1153.82
1242.16
1368.2
1539.61
1757.97
2004.37
2257.05
2515.17
2765.91
2987.11
3177.59
3308.47
3435.23
834.498
836.539
836.192
835.341
834.842
835.475
837.411
840.547
844.631
849.536
855.949
873.418
914.038
984.665
1092.73
1245.66
1463.02
1734.93
1998.78
2222.56
2422.9
2577.3
2737.99
773.972
776.245
776.387
775.807
775.47
776.006
777.612
780.249
783.7
787.787
792.736
797.829
801.792
805.12
809.288
833.59
919.112
1068.98
1257.08
1470.02
1674.57
1841.05
2066.84
3391.15
3175.11
3008.35
2879.74
2773.25
2679.5
2558.33
2420.23
2297.96
2188.92
2121.1
2091.24
2083.32
2083.93
2087.3
2100.01
2108.44
2122.41
2113.49
2658.49
2447.11
2308.52
2240.3
2219.41
2150.16
2026.76
1883.93
1764.09
1680.04
1622.14
1576.79
1554.23
1547.39
1554.25
1557.32
1557.02
1579.8
1601.21
1940.44
1793.02
1761.74
1672.43
1602.44
1531.67
1438.27
1344.36
1269.41
1245.78
1235.08
1215.54
1203.62
1200.42
1205.66
1195.77
1184.14
1189.6
1218.11
1270.11
1254.65
1387.62
1348.71
1218.86
1140.85
1095.36
1062.88
1028.58
1013.05
998.46
998.933
1002.14
1013.07
1013.44
1009.21
1004.1
983.984
979.057
870.1
938.278
1082.62
1152.92
1083.83
1019.72
988.486
967.135
944.557
919.025
894.552
880.65
877.672
884.384
883.309
875.151
874.756
865.347
857.321
745.223
820.008
893.865
982.911
1000.36
952.46
923.28
906.645
891.716
872.062
849.142
828.732
817.748
810.577
803.561
784.993
783.838
794.279
794.693
682.006
743.518
793.217
859.185
910.975
884.966
858.632
844.107
831.134
814.72
797.147
780.501
768.24
759.407
750.932
734.033
731.428
744.086
750.215
637.863
697.411
722.996
759.714
813.341
811.515
789.564
778.588
768.399
755
740.456
726.559
715.632
707.026
699.319
691.058
692.37
698.965
706.397
678.639
680.783
681.482
681.365
681.353
681.916
683.254
685.411
688.279
691.704
695.557
699.344
702.429
705.21
709.207
713.752
714.745
719.128
758.683
841.113
927.121
992.814
1042.87
548.6
549.616
550.263
550.426
550.73
551.387
552.576
554.426
556.865
559.699
562.745
565.811
568.698
571.442
573.706
574.399
571.882
565.21
552.571
531.619
503.827
475.616
452.329
419.437
417.066
416.789
417.226
417.98
418.85
420.011
421.807
424.191
426.727
429.062
431.428
434.086
436.827
438.974
438.749
435.514
429.587
420.759
410.728
397.947
382.291
364.579
293.999
286.841
285.936
287.02
288.303
289.087
290.729
293.475
296.138
298.693
301.073
303.449
305.915
308.319
310.264
310.072
307.369
303.416
298.125
291.407
282.601
272.871
264.197
190.144
184.777
185.404
187.414
189.121
190.322
192.795
196.431
199.741
202.582
205.347
208.007
210.226
211.752
212.561
212.655
211.893
210.272
207.556
203.607
198.914
194.596
192.571
119.776
114.82
115.284
117.722
120.437
123.174
126.261
129.735
133.419
136.409
139.289
141.886
143.942
145.379
146.006
146.52
146.966
146.34
144.548
141.963
139.786
138.797
139.709
66.6707
56.7984
53.0436
54.1396
56.6282
59.5082
62.5016
65.4808
68.7798
72.374
75.4925
78.0453
79.9826
81.4381
82.7053
83.6343
83.8091
83.1178
81.8206
80.5182
79.4307
78.9546
80.0668
26.8253
18.7026
13.8706
13.761
14.5268
15.3372
16.4436
17.7316
19.2068
20.6556
22.1056
23.4616
24.5971
25.4047
25.9782
26.3419
26.4933
26.4239
26.1592
25.8639
25.7349
25.7044
24.6636
9.01648
7.05904
5.2097
3.8159
3.33073
3.19349
3.16568
3.14704
3.1362
3.11221
3.51117
3.91198
4.31727
4.68102
5.02187
5.34999
5.67428
5.98888
6.2719
6.56205
6.92931
7.22774
7.36088
3.61179
3.78265
3.46134
3.26216
3.18446
3.15964
3.15713
3.16242
3.16243
3.16581
3.15362
3.16247
3.19858
3.2531
3.31426
3.38225
3.46409
3.56435
3.68252
3.81852
3.96759
4.13651
4.30243
2.89995
2.9235
2.99561
3.04154
3.04161
3.02641
3.02347
3.03454
3.05106
3.08679
3.13427
3.19816
3.2746
3.36193
3.45709
3.56003
3.67178
3.79354
3.92572
4.06747
4.21737
4.36948
4.54233
2.79011
2.7739
2.80636
2.87041
2.88733
2.888
2.8923
2.90434
2.9328
2.96336
3.01405
3.06783
3.13372
3.21219
3.30088
3.39925
3.50803
3.62837
3.76071
3.90352
4.054
4.2026
4.3613
2.68445
2.67537
2.69337
2.72808
2.7464
2.75712
2.7677
2.78281
2.8065
2.84404
2.88491
2.93707
3.0001
3.07479
3.1602
3.25596
3.36289
3.48209
3.6139
3.75623
3.90541
4.05195
4.20926
2.58058
2.57409
2.58342
2.60347
2.6201
2.63397
2.64867
2.66718
2.69193
2.72505
2.76875
2.82213
2.88571
2.95907
3.04247
3.13649
3.24204
3.36006
3.49068
3.63168
3.77917
3.9239
4.08108
2.47543
2.47077
2.47494
2.48788
2.50194
2.51651
2.53345
2.55465
2.58139
2.61472
2.65824
2.71249
2.77597
2.8481
2.92946
3.0214
3.12503
3.24135
3.37029
3.50948
3.65499
3.79774
3.95291
2.36983
2.36628
2.36829
2.37707
2.38908
2.40356
2.42155
2.44424
2.47244
2.50685
2.5486
2.60092
2.6637
2.73417
2.81342
2.90307
3.00428
3.11811
3.24449
3.38092
3.52363
3.66357
3.81583
2.26548
2.26224
2.26322
2.2698
2.28038
2.29448
2.31271
2.33587
2.36459
2.39935
2.44113
2.49141
2.55098
2.61893
2.69573
2.78263
2.88086
2.99147
3.11443
3.24724
3.38624
3.52245
3.67112
2.16262
2.15959
2.16016
2.1656
2.17521
2.18878
2.20675
2.22965
2.25803
2.29235
2.33326
2.38179
2.43855
2.50364
2.57755
2.66131
2.75605
2.86285
2.98168
3.11004
3.24449
3.37628
3.52032
2.06159
2.05888
2.05937
2.06419
2.07311
2.08609
2.10348
2.12569
2.15319
2.18643
2.22599
2.27254
2.3267
2.38883
2.45962
2.53991
2.63077
2.73327
2.84735
2.97064
3.0998
3.22648
3.36528
1.96248
1.96024
1.96085
1.96534
1.97372
1.98605
2.00266
2.02394
2.05027
2.0821
2.11995
2.16437
2.21591
2.27508
2.34252
2.41907
2.50574
2.60355
2.71243
2.83009
2.95344
3.07455
3.2072
1.8652
1.86359
1.86447
1.86876
1.87665
1.8883
1.90402
1.9242
1.94922
1.97948
2.01544
2.05762
2.10651
2.16263
2.2266
2.29923
2.38149
2.47432
2.57765
2.68934
2.80651
2.92167
3.04801
1.76963
1.76876
1.76996
1.7741
1.78151
1.79245
1.80722
1.82624
1.84986
1.87846
1.91249
1.95237
1.99858
2.05161
2.11207
2.18069
2.2584
2.34606
2.44362
2.54909
2.65982
2.76889
2.88844
1.67557
1.67547
1.677
1.68096
1.6879
1.69811
1.71192
1.72976
1.75197
1.77891
1.81099
1.84859
1.89214
1.9421
1.99903
2.06362
2.13671
2.21911
2.31076
2.40987
2.51395
2.61667
2.72934
1.58287
1.58343
1.5852
1.58897
1.5954
1.60489
1.61777
1.63447
1.65531
1.68064
1.71081
1.74619
1.78714
1.83409
1.88754
1.94812
2.01659
2.0937
2.17941
2.27204
2.36937
2.46561
2.57093
1.49124
1.49235
1.49427
1.49782
1.50375
1.51253
1.52453
1.54013
1.55966
1.58346
1.61182
1.64506
1.68351
1.72753
1.77758
1.83422
1.89814
1.97
2.04978
2.13598
2.22656
2.31625
2.4144
1.40046
1.40195
1.40394
1.40727
1.41273
1.42084
1.432
1.44656
1.46488
1.48723
1.51387
1.54509
1.58115
1.62236
1.66912
1.72192
1.78138
1.8481
1.92207
2.00195
2.08588
2.16917
2.26011
1.31026
1.31196
1.31396
1.31708
1.32212
1.32964
1.34003
1.35365
1.37083
1.39184
1.41688
1.44619
1.47996
1.51848
1.56208
1.61117
1.66631
1.72805
1.79635
1.87007
1.94751
2.02446
2.10849
1.22047
1.22222
1.22418
1.2271
1.23179
1.23879
1.24851
1.26129
1.27745
1.2972
1.32074
1.34825
1.37988
1.41583
1.45638
1.5019
1.55287
1.60978
1.67263
1.74036
1.81146
1.8822
1.95931
1.13098
1.13267
1.13455
1.1373
1.14168
1.14825
1.15739
1.16945
1.18469
1.2033
1.22543
1.25121
1.28078
1.31428
1.35193
1.39401
1.44096
1.49321
1.55077
1.61271
1.67768
1.74234
1.81288
1.04177
1.04334
1.04511
1.04772
1.05186
1.05806
1.06672
1.07815
1.09257
1.11012
1.13093
1.15507
1.18264
1.21374
1.24856
1.28734
1.33042
1.37819
1.43063
1.48696
1.54596
1.60474
1.66891
0.95287
0.954296
0.955975
0.958454
0.962399
0.968321
0.976587
0.987481
1.00116
1.01773
1.03726
1.0598
1.08541
1.11417
1.14619
1.1817
1.22101
1.26443
1.31194
1.36283
1.41601
1.4689
1.52717
0.864345
0.865634
0.867233
0.869629
0.87344
0.879154
0.887119
0.897541
0.910531
0.926152
0.944438
0.965405
0.989072
1.01548
1.04473
1.077
1.11256
1.15168
1.19437
1.23996
1.28743
1.33421
1.3874
0.776277
0.777469
0.779026
0.781383
0.785125
0.790714
0.798433
0.80842
0.82074
0.835419
0.852454
0.871828
0.89353
0.917579
0.944045
0.973077
1.00491
1.03979
1.07771
1.11811
1.16018
1.20186
1.24783
0.68887
0.689964
0.691499
0.693872
0.697606
0.703111
0.710594
0.720141
0.731775
0.745482
0.761225
0.778961
0.798656
0.820307
0.843966
0.869754
0.897875
0.928554
0.961795
0.997116
1.03381
1.0702
1.10985
0.602246
0.603272
0.604814
0.607209
0.610939
0.616341
0.623562
0.632632
0.643531
0.656205
0.670589
0.686621
0.704249
0.723459
0.744284
0.766829
0.791271
0.817813
0.846463
0.876816
0.908301
0.939457
0.973308
0.516388
0.517386
0.518936
0.521336
0.525027
0.530286
0.537194
0.545726
0.555814
0.567371
0.580312
0.59456
0.610059
0.626786
0.644766
0.664088
0.684909
0.707407
0.731604
0.757163
0.783606
0.809726
0.838018
0.431195
0.432155
0.43369
0.436063
0.439683
0.444758
0.451296
0.45921
0.468391
0.478729
0.490129
0.502511
0.515821
0.530036
0.545178
0.561326
0.578616
0.597209
0.617125
0.638095
0.659759
0.681104
0.704225
0.346543
0.347397
0.348882
0.351227
0.354773
0.359635
0.365734
0.372931
0.381084
0.39008
0.399826
0.410255
0.42132
0.433008
0.44534
0.458387
0.472268
0.487118
0.502966
0.519611
0.536758
0.553656
0.571957
0.262253
0.262985
0.264503
0.266905
0.270431
0.275061
0.280631
0.286966
0.293927
0.301419
0.309374
0.317745
0.326506
0.335652
0.345209
0.355238
0.36584
0.377126
0.389124
0.401675
0.414592
0.427312
0.441109
0.177899
0.178654
0.180698
0.183523
0.187152
0.191481
0.196334
0.201562
0.207078
0.212836
0.218807
0.224976
0.231336
0.237896
0.244683
0.251747
0.259166
0.267025
0.275344
0.284019
0.292902
0.301625
0.311083
0.0932612
0.0940496
0.0979082
0.101774
0.105447
0.109135
0.112851
0.116571
0.120295
0.124039
0.127814
0.131632
0.135503
0.13944
0.14347
0.147628
0.151967
0.156543
0.161366
0.166367
0.17147
0.176503
0.18197
0.0229451
0.0206091
0.0265392
0.0298295
0.0319693
0.0337349
0.0353178
0.0367807
0.0381681
0.0395098
0.0408249
0.0421258
0.0434223
0.0447239
0.0460423
0.0473929
0.0487958
0.0502705
0.0518216
0.0534294
0.055065
0.0567311
0.058616
1018.98
968.144
877.71
750.978
446.346
445.436
454.746
477.639
344.13
337.312
338.418
346.66
260.101
259.642
262.164
266.469
194.664
197.242
200.405
204.645
141.947
143.532
145.364
147.805
82.6548
84.5113
86.2999
87.6434
19.9047
19.0079
20.9603
24.8901
7.46382
8.02846
8.92695
9.57594
4.54156
4.81671
5.10702
5.36525
4.82816
5.09866
5.39099
5.61896
4.61139
4.883
5.19525
5.44883
4.46775
4.74476
5.05787
5.3051
4.34537
4.62351
4.93363
5.17396
4.21513
4.49019
4.79537
5.03003
4.07321
4.34286
4.64136
4.87052
3.92184
4.1844
4.47522
4.69828
3.76322
4.01739
4.29884
4.51532
3.59877
3.84322
4.11466
4.32389
3.43029
3.66398
3.92392
4.12555
3.25965
3.48158
3.72959
3.92275
3.08838
3.298
3.53266
3.71676
2.91681
3.11351
3.33477
3.50922
2.74567
2.92915
3.13619
3.30095
2.57616
2.74624
2.93935
3.09398
2.40941
2.56635
2.74495
2.88921
2.24545
2.38944
2.55411
2.68779
2.08436
2.21581
2.36646
2.48977
1.92637
2.04568
2.18307
2.29597
1.77157
1.87935
2.00352
2.10615
1.61927
1.71597
1.82774
1.9203
1.46907
1.55506
1.65468
1.73761
1.3202
1.3963
1.48456
1.55777
1.17302
1.23964
1.31715
1.38203
1.02757
1.08505
1.15228
1.2087
0.88373
0.932405
0.989523
1.03782
0.741767
0.781979
0.829544
0.869934
0.601918
0.634138
0.672335
0.70507
0.463916
0.488543
0.517951
0.543297
0.327095
0.344485
0.36542
0.383834
0.190913
0.201263
0.214176
0.226234
0.0612409
0.0645544
0.0688246
0.0733514
608.584
625.801
613.99
618.686
648.259
674.998
674.225
672.832
668.866
660.491
649.292
637.588
629.453
624.946
625.04
631.368
638.287
641.931
647.716
483.195
489.85
469.195
462.838
470.718
495.251
519.771
530.869
534.308
531.132
526.186
523.648
524.276
528.798
539.46
555.623
566.436
571.991
578.226
363.312
375.066
378.496
373.165
369.06
378.422
397.367
409.562
416.748
422.572
429.172
438.168
447.224
457.94
471.868
486.796
497.983
506.66
517.052
276.681
290.82
302.353
304.79
306.883
313.407
319.805
325.952
333.639
344.882
358.25
370.061
381.299
393.587
407.196
420.647
432.26
444.053
458.452
212.753
225.332
233.004
236.673
240.395
246.483
254.347
261.368
269.077
278.697
290.632
302.906
315.379
328.414
341.886
355.012
367.708
382.239
399.771
152.352
159.431
164.999
168.706
172.497
177.642
184.038
191.314
199.731
209.935
221.922
234.755
247.933
261.599
275.519
289.243
303.47
320.345
340.049
89.7793
93.5651
97.0459
100.074
103.445
107.488
112.232
118.423
126.981
138.664
152.291
166.265
180.385
194.989
209.572
224.03
239.645
258.197
279.869
32.9375
36.0493
37.2847
38.7853
40.6604
42.4088
44.1956
46.6154
52.4004
63.4218
77.783
92.5537
108.527
126.53
144.057
160.746
177.195
195.899
218.727
10.1142
10.1477
9.97416
9.94675
10.2116
10.4088
10.6434
10.5902
11.7316
15.3344
21.917
28.7807
37.7455
51.6427
68.7262
88.144
111.738
133.547
155.715
5.72982
5.91682
6.04886
6.19022
6.31983
6.44068
6.53975
6.62884
6.67018
6.68088
6.717
6.87928
7.64447
10.5312
15.9451
25.9241
43.8968
66.4848
94.6858
5.83029
5.95274
6.04753
6.13473
6.21194
6.28344
6.35033
6.41114
6.44148
6.43504
6.42455
6.45132
6.54619
6.79633
7.16329
7.44444
9.04158
20.2872
42.3746
5.68348
5.79127
5.88582
5.97494
6.0544
6.12615
6.19305
6.24966
6.27559
6.28373
6.28764
6.31216
6.35255
6.4204
6.48816
6.54847
6.67951
6.80474
11.1157
5.52896
5.63183
5.72117
5.80946
5.88808
5.95646
6.01439
6.0606
6.08265
6.10113
6.12599
6.16056
6.20622
6.25432
6.26987
6.16727
6.06754
6.00663
6.08416
5.38442
5.47737
5.56368
5.64863
5.72296
5.78402
5.82777
5.85541
5.87996
5.90495
5.94289
5.96991
5.98236
5.98491
5.95421
5.85742
5.71948
5.63522
5.6582
5.23371
5.32194
5.40514
5.48686
5.55734
5.61366
5.6527
5.67707
5.70093
5.72897
5.75614
5.76731
5.75261
5.7291
5.70431
5.6438
5.55247
5.48544
5.50882
5.06929
5.1555
5.23689
5.31684
5.38579
5.44124
5.48225
5.51143
5.53578
5.5579
5.57453
5.57811
5.56447
5.54322
5.51788
5.47924
5.42909
5.39133
5.38701
4.89222
4.9777
5.05832
5.13759
5.20641
5.26259
5.3058
5.33808
5.36321
5.3827
5.39472
5.39568
5.38402
5.36342
5.33683
5.30587
5.27337
5.2491
5.2325
4.70462
4.78976
4.8702
4.94939
5.01868
5.07608
5.12153
5.15645
5.18301
5.20212
5.213
5.2138
5.20416
5.1863
5.16376
5.13765
5.11337
5.09728
5.08764
4.50805
4.5931
4.67352
4.75286
4.82284
4.88159
4.92913
4.96649
4.99487
5.01492
5.02647
5.0289
5.02227
5.00843
4.98977
4.96852
4.94774
4.93105
4.91808
4.30463
4.3892
4.46949
4.54892
4.61957
4.67961
4.72903
4.76858
4.79896
4.82064
4.83378
4.83837
4.83487
4.82465
4.80969
4.79198
4.77367
4.75669
4.74198
4.09577
4.17966
4.25947
4.33873
4.40983
4.47097
4.52201
4.5635
4.59585
4.61945
4.63459
4.64156
4.64097
4.63403
4.62234
4.6076
4.59135
4.57504
4.56066
3.88343
3.96598
4.04492
4.12362
4.19479
4.25669
4.30901
4.35214
4.38633
4.41189
4.42917
4.43857
4.44075
4.43679
4.42802
4.41582
4.40144
4.38627
4.37302
3.66871
3.74969
3.8273
3.90498
3.97577
4.03799
4.09118
4.13559
4.17137
4.19877
4.21813
4.22988
4.23467
4.23342
4.22726
4.21739
4.20487
4.19111
4.17942
3.4534
3.53225
3.60807
3.68421
3.75413
3.81615
3.86975
3.91504
3.95209
3.9811
4.00236
4.01628
4.02346
4.02469
4.02095
4.01327
4.00267
3.99063
3.98065
3.23855
3.315
3.38855
3.46265
3.53116
3.59246
3.64597
3.69169
3.72963
3.75993
3.78283
3.79869
3.80802
3.81152
3.81002
3.80449
3.79588
3.7857
3.77753
3.02573
3.09913
3.16993
3.24148
3.30807
3.36812
3.42103
3.46671
3.50512
3.53634
3.56056
3.57807
3.5893
3.59485
3.59546
3.59196
3.58536
3.57717
3.57069
2.8155
2.88557
2.95318
3.0217
3.08586
3.14416
3.19597
3.24114
3.27959
3.31133
3.3365
3.35533
3.36818
3.37555
3.37807
3.37655
3.37189
3.36562
3.36077
2.60881
2.675
2.73902
2.80407
2.86534
2.92142
2.97166
3.01586
3.0539
3.08576
3.1115
3.13131
3.14547
3.15439
3.15864
3.1589
3.1561
3.15168
3.14823
2.40578
2.46787
2.52793
2.58914
2.64713
2.70056
2.74879
2.79159
2.8288
2.86035
2.88629
2.90672
2.92186
2.93205
2.93777
2.93966
2.93855
2.93576
2.93358
2.20679
2.26437
2.32019
2.37725
2.43161
2.48204
2.52787
2.56886
2.60484
2.6357
2.66144
2.68212
2.69792
2.70909
2.71604
2.71931
2.71969
2.71837
2.71724
2.01151
2.06453
2.11591
2.1686
2.21906
2.26616
2.30926
2.34809
2.38246
2.41225
2.43743
2.45801
2.47412
2.48596
2.49387
2.49832
2.49998
2.49985
2.49965
1.81992
1.86832
1.91509
1.96324
2.0096
2.05312
2.0932
2.12956
2.16199
2.19037
2.21463
2.23477
2.25087
2.26308
2.27168
2.27705
2.27975
2.28065
2.28104
1.63158
1.67577
1.71769
1.7612
1.80331
1.84306
1.87987
1.91348
1.94367
1.97032
1.99334
2.01271
2.02849
2.04077
2.04976
2.05579
2.05929
2.06094
2.06183
1.44688
1.4861
1.52356
1.56243
1.6002
1.63603
1.66938
1.7
1.72769
1.75232
1.7738
1.79208
1.8072
1.81923
1.82833
1.83472
1.8388
1.8411
1.84231
1.26527
1.29943
1.33255
1.36685
1.40024
1.43202
1.46175
1.48917
1.51411
1.53644
1.55609
1.57298
1.58714
1.59863
1.60756
1.61415
1.61862
1.62134
1.62282
1.08661
1.11603
1.14471
1.1744
1.20333
1.23096
1.25689
1.28093
1.3029
1.32271
1.34026
1.35551
1.36847
1.37918
1.38773
1.39426
1.39895
1.40199
1.40359
0.910993
0.935919
0.960157
0.985167
1.00953
1.03285
1.05483
1.07529
1.0941
1.11117
1.12642
1.13982
1.15134
1.16105
1.16899
1.17529
1.18
1.18319
1.1849
0.738712
0.759192
0.778984
0.799247
0.818889
0.837668
0.855478
0.87218
0.887659
0.901817
0.914579
0.925906
0.935798
0.944285
0.951428
0.957264
0.96186
0.965145
0.966887
0.569598
0.585797
0.601178
0.616609
0.631297
0.645179
0.658589
0.671369
0.683369
0.694463
0.704569
0.713653
0.721719
0.7288
0.73494
0.740208
0.744571
0.747859
0.74973
0.403416
0.415515
0.42653
0.437063
0.446516
0.454732
0.463582
0.472386
0.480838
0.488766
0.496085
0.502773
0.508849
0.514358
0.519363
0.523901
0.527987
0.53144
0.53355
0.240316
0.248741
0.25549
0.261285
0.265273
0.265498
0.269951
0.27497
0.279912
0.284622
0.289052
0.293212
0.297144
0.300913
0.304598
0.308303
0.312103
0.315853
0.318635
0.0796294
0.0830848
0.0853632
0.0867803
0.0867343
0.0852235
0.0870047
0.0888553
0.0906112
0.0922595
0.0938122
0.0952914
0.0967248
0.0981466
0.0995988
0.10113
0.102801
0.104568
0.106039
)
;

boundaryField
{
    leftWall
    {
        type            calculated;
        value           nonuniform List<scalar> 
50
(
4437.2
3639.5
2840.18
2038.81
1296.3
913.773
834.498
773.972
678.639
548.6
419.437
293.999
190.144
119.776
66.6707
26.8253
9.01648
3.61179
2.89995
2.79011
2.68445
2.58058
2.47543
2.36983
2.26548
2.16262
2.06159
1.96248
1.8652
1.76963
1.67557
1.58287
1.49124
1.40046
1.31026
1.22047
1.13098
1.04177
0.95287
0.864345
0.776277
0.68887
0.602246
0.516388
0.431195
0.346543
0.262253
0.177899
0.0932612
0.0229451
)
;
    }
    rightWall
    {
        type            calculated;
        value           nonuniform List<scalar> 
50
(
2113.49
1601.21
1218.11
979.057
857.321
794.693
750.215
706.397
647.716
578.226
517.052
458.452
399.771
340.049
279.869
218.727
155.715
94.6858
42.3746
11.1157
6.08416
5.6582
5.50882
5.38701
5.2325
5.08764
4.91808
4.74198
4.56066
4.37302
4.17942
3.98065
3.77753
3.57069
3.36077
3.14823
2.93358
2.71724
2.49965
2.28104
2.06183
1.84231
1.62282
1.40359
1.1849
0.966887
0.74973
0.53355
0.318635
0.106039
)
;
    }
    lowerWall
    {
        type            calculated;
        value           nonuniform List<scalar> 
62
(
4835.35
4846.64
4872.26
4909.19
4954.01
5006.88
5069.62
5144.7
5234.88
5342.72
5470.04
5617.59
5785.68
5973.48
6178.1
6394.6
6617.03
6839.4
7053.84
7250.11
7416.18
7532.26
7602.31
7204.38
6412.27
5638.25
4885.2
4150.72
3435.23
2737.99
2066.84
1643.33
1597.68
1397.6
858.061
3391.15
2658.49
1940.44
1270.11
870.1
745.223
682.006
637.863
3742.13
3525.72
3358.96
3176.91
2996.47
2902.64
2790.97
2656.33
2535.46
2430.27
2390.35
2369.41
2368.3
2369.65
2372.65
2383.94
2392.28
2406.13
2397.14
)
;
    }
    atmosphere
    {
        type            calculated;
        value           nonuniform List<scalar> 
46
(
-0.000537486
-0.000981076
-0.000606182
-0.00043035
-0.000340023
-0.000291211
-0.000266299
-0.000256659
-0.000257383
-0.000265355
-0.00027834
-0.000294542
-0.00031238
-0.000330447
-0.000347498
-0.000362536
-0.000374872
-0.000384266
-0.000390727
-0.00039404
-0.000393362
-0.000390637
-0.000376099
-0.000275335
-0.000263845
-0.000264347
-0.00027092
-0.000268464
-0.000233256
-0.000184042
-0.000130489
-0.000108221
-8.95667e-05
-5.53305e-05
-2.08176e-05
-2.155e-06
0
0
0
0
0
0
0
0
0
0
)
;
    }
    defaultFaces
    {
        type            empty;
    }
}


// ************************************************************************* //
