/*--------------------------------*- C++ -*----------------------------------*\
  =========                 |
  \\      /  F ield         | OpenFOAM: The Open Source CFD Toolbox
   \\    /   O peration     | Website:  https://openfoam.org
    \\  /    A nd           | Version:  13
     \\/     M anipulation  |
\*---------------------------------------------------------------------------*/
FoamFile
{
    format      ascii;
    class       volScalarField;
    location    "1.55";
    object      p_rgh;
}
// * * * * * * * * * * * * * * * * * * * * * * * * * * * * * * * * * * * * * //

dimensions      [1 -1 -2 0 0 0 0];

internalField   nonuniform List<scalar> 
2268
(
4835.35
4846.64
4872.26
4909.19
4954.01
5006.88
5069.62
5144.7
5234.88
5342.72
5470.04
5617.59
5785.68
5973.48
6178.1
6394.6
6617.03
6839.4
7053.84
7250.11
7416.18
7532.26
7602.31
4833.95
4843.25
4866.77
4903.44
4948.56
5001.5
5063.75
5137.96
5227.12
5334.01
5460.71
5608.02
5776.4
5965.26
6172.02
6392.27
6620.29
6849.62
7071.26
7272.79
7442.11
7543.69
7606.06
4830.93
4841.7
4863.02
4898.49
4943.06
4995.49
5056.9
5130.01
5217.99
5323.93
5450.15
5597.35
5766.21
5956.45
6165.84
6390.29
6623.94
6860.16
7088.58
7294.95
7465.9
7559.97
7628.55
4825.86
4839.15
4858.86
4893.27
4936.82
4987.89
5047.62
5118.93
5205.25
5310.19
5436.3
5583.71
5753.56
5946.19
6159.45
6388.84
6627.87
6870.64
7105.49
7316.12
7489.87
7588.22
7672.25
4292.48
4312.79
4368.78
4477.47
4603.89
4731.89
4861.79
4997.33
5138.29
5280.5
5416.88
5564.02
5735.12
5931.91
6151.46
6387.48
6632.31
6881.98
7123.92
7339.59
7520.08
7631.3
7734.06
1451.49
1547.04
1627.36
1733.37
1866.22
2026.03
2226.55
2491.11
2850.85
3345.56
4011.3
4698.62
5304.47
5806.19
6136.12
6384.02
6636.7
6894.82
7145.56
7366.75
7557.23
7688.12
7814.88
1217.08
1219.12
1218.77
1217.92
1217.42
1218.06
1219.99
1223.13
1227.21
1232.12
1238.53
1407.91
1923.02
2840.53
4268.95
5813.43
6638.97
6910.88
7174.72
7398.51
7598.85
7753.25
7913.94
1215.41
1217.69
1217.83
1217.25
1216.91
1217.45
1219.05
1221.69
1225.14
1229.23
1234.18
1239.27
1243.23
1246.56
1251.37
1634.95
3143.1
5470.36
7124.03
7442.24
7646.78
7813.19
8039.07
3742.13
3525.72
3358.96
3176.91
2996.47
2902.64
2790.97
2656.33
2535.46
2430.27
2390.35
2369.41
2368.3
2369.65
2372.65
2383.94
2392.28
2406.13
2397.14
3711.4
3469.22
3321.47
3276.52
3252.68
3169.07
3044.21
2879.19
2728.6
2517.89
2321.38
2278.96
2259.36
2259.53
2243.11
2289.91
2329.81
2354.25
2278.07
3695.54
3130.11
2666.59
2795.2
3076.24
3024.81
2696
2307.29
2071.94
1973.48
1982.58
1834.34
1762.12
1729
1780.96
1767.62
1731.81
1852.26
2014.25
3549.04
2950.63
2557.62
1946.11
1848.99
1680.27
1500.11
1424.59
1394.2
1515.87
1566.62
1617.26
1615.64
1573.95
1559.73
1529.16
1469.55
1466.13
1556.1
1626.56
1583.37
2322.21
2024.8
1359.71
1285.44
1249.38
1184.34
1098.39
1056.13
1085.16
1173.83
1236.75
1357.04
1377.97
1427.49
1419.11
1306.26
1232.7
1176.09
1369.21
1672.17
1835.99
1389.35
1276.54
1247.35
1231.73
1215.34
1183.84
1124.94
1084.69
1100.93
1117.36
1110.76
1091.26
1101.54
1080.96
1033.59
926.942
1202.03
1434.14
1633.53
1420.99
1267.92
1241.64
1228.9
1217.54
1199.69
1178.98
1154.65
1144.15
1142.16
1113.46
1004.75
995.07
1038.21
1054.53
1066.95
1056.94
1313.84
1570.19
1595.43
1260.72
1231.3
1220.62
1210.81
1197.11
1182.33
1168.1
1157.15
1149.31
1118.77
961.887
913.73
990.465
1006.95
1212.11
1214.25
1214.95
1214.83
1214.82
1215.38
1216.72
1218.88
1221.75
1225.17
1229.02
1232.81
1235.9
1238.68
1242.67
1247.22
1250.99
1442.77
2198.72
3478.19
4671.97
5456.02
6411.97
1207.26
1208.28
1208.92
1209.09
1209.39
1210.05
1211.24
1213.09
1215.53
1218.36
1221.41
1224.47
1227.36
1230.1
1232.37
1233.06
1230.54
1223.87
1211.23
1190.28
1162.52
1154.3
1110.98
1203.29
1200.92
1199.67
1200.6
1201.83
1202.71
1203.87
1205.66
1208.05
1210.58
1212.92
1215.28
1217.94
1220.68
1222.83
1222.61
1219.37
1213.44
1204.62
1194.58
1181.8
1166.12
1148.41
1191.61
1135.99
1123.74
1133.15
1142.77
1153.34
1149.07
1140.77
1148.46
1156.19
1149.17
1139.49
1145.53
1168.35
1189.34
1189.14
1181.65
1177.27
1179.27
1178.26
1163.94
1145.73
1127.12
897.142
776.788
756.304
764.045
775.92
755.205
744.095
762.147
761.673
765.235
768.605
774.854
786.816
801.33
839.704
852.311
821.898
817.48
827.937
847.724
830.482
772.709
698.505
587.157
668.418
684.834
687.282
689.498
650.96
635.376
656.507
675.227
666.077
657.01
658.025
665.124
676.236
670.153
661.664
670.073
689.109
711.066
713.322
713.304
717.267
719.418
554.47
647.073
621.376
653.445
675.97
690.104
699.897
706.819
711.097
714.691
717.81
720.362
722.3
723.755
725.022
725.951
726.126
725.435
724.138
722.835
721.748
721.272
722.384
381.687
209.749
144.514
184.276
242.418
303.768
361.977
412.123
465.087
518.326
555.956
589.272
618.41
643.169
664.672
682.992
696.769
705.886
711.189
714.019
716.857
716.362
712.436
141.47
68.2077
6.78878
5.36224
4.8658
4.72863
4.70103
4.6826
4.67182
8.06403
25.7602
45.7918
68.2545
91.4304
117.785
147.681
178.221
205.486
225.657
238.478
251.234
249.403
236.781
22.029
28.5752
10.883
4.93848
4.84577
4.81989
4.81735
4.82265
4.82265
4.8262
4.81468
4.82366
4.85898
4.91336
4.97449
5.04248
5.12431
5.22458
5.34274
5.47874
5.62781
5.79673
5.96265
4.68596
7.60931
7.60183
4.85954
4.82756
4.81186
4.80893
4.82017
4.83715
4.87347
4.92867
4.98598
5.06048
5.14742
5.24251
5.34546
5.45721
5.57903
5.71126
5.85305
6.0029
6.15496
6.32783
4.70126
4.68528
5.05943
4.78171
4.79809
4.79871
4.80305
4.81531
4.84659
4.91868
5.07448
5.01691
5.04858
5.12376
5.21196
5.31041
5.41911
5.5399
5.67215
5.81481
5.9651
6.11361
6.27212
4.72091
4.712
4.72984
4.76459
4.78244
4.79306
4.80369
4.81901
4.84344
5.05564
5.10065
5.14466
5.05604
5.11267
5.19786
5.29575
5.40198
5.51966
5.65068
5.79264
5.9418
6.08807
6.24522
4.74253
4.73713
4.74554
4.76499
4.78126
4.79508
4.80986
4.82855
4.85936
5.05987
5.11806
5.17352
5.09232
5.12416
5.20918
5.30414
5.40962
5.52215
5.65204
5.79291
5.94033
6.08502
6.24213
4.76194
4.75778
4.76138
4.77424
4.78824
4.80281
4.81982
4.84108
4.87218
4.91945
5.12088
5.19715
5.1042
5.14122
5.2228
5.31465
5.41583
5.52798
5.6566
5.79574
5.94128
6.084
6.23913
4.78129
4.77778
4.77981
4.78857
4.80057
4.81504
4.83302
4.85572
4.88385
4.91826
4.96032
5.0498
5.08776
5.15116
5.23058
5.3185
5.41597
5.52973
5.65597
5.79237
5.93509
6.07502
6.22725
4.80215
4.79894
4.79994
4.80651
4.81706
4.83112
4.84934
4.87248
4.90119
4.93595
4.97773
5.02801
5.08829
5.15964
5.23337
5.31921
5.41748
5.52817
5.65111
5.78388
5.92288
6.05908
6.20773
4.82449
4.82149
4.82207
4.8275
4.83708
4.85061
4.86856
4.89146
4.91983
4.95414
4.99506
5.0436
5.10112
5.16971
5.24086
5.32309
5.41788
5.52472
5.64352
5.77186
5.9063
6.03809
6.18212
4.84864
4.84596
4.84646
4.85129
4.86018
4.87311
4.89048
4.91269
4.94019
4.97343
5.01298
5.05962
5.11443
5.17714
5.24699
5.32693
5.41781
5.52032
5.63437
5.75763
5.88679
6.01347
6.15227
4.87471
4.87249
4.87311
4.87761
4.88597
4.89827
4.91486
4.93613
4.96246
4.99429
5.03213
5.07655
5.12808
5.18725
5.2547
5.33137
5.41795
5.51575
5.62462
5.74227
5.86562
5.98672
6.11938
4.90261
4.90101
4.9019
4.90619
4.91408
4.92571
4.94141
4.96159
4.9866
5.01685
5.05282
5.09499
5.14388
5.19999
5.26397
5.33661
5.41888
5.5117
5.61502
5.72671
5.84388
5.95904
6.08538
4.93222
4.93135
4.93256
4.9367
4.94412
4.95505
4.96981
4.98881
5.01242
5.04103
5.07505
5.11494
5.16115
5.21418
5.27463
5.34325
5.42096
5.50862
5.60618
5.71165
5.82238
5.93145
6.051
4.96336
4.96325
4.96477
4.96874
4.97568
4.98589
4.99969
5.01752
5.03972
5.06667
5.09874
5.13634
5.17989
5.22986
5.28678
5.35137
5.42446
5.50686
5.59851
5.69762
5.8017
5.90442
6.01709
4.99584
4.99639
4.99816
5.00192
5.00836
5.01785
5.03073
5.04742
5.06826
5.09359
5.12376
5.15913
5.20009
5.24704
5.30048
5.36106
5.42954
5.50665
5.59235
5.68499
5.78231
5.87855
5.98387
5.0294
5.0305
5.03242
5.03596
5.04189
5.05067
5.06268
5.07827
5.0978
5.1216
5.14996
5.1832
5.22165
5.26567
5.31572
5.37236
5.43628
5.50814
5.58791
5.67412
5.7647
5.85439
5.95253
5.0638
5.06529
5.06728
5.0706
5.07606
5.08418
5.09533
5.1099
5.12821
5.15056
5.17721
5.20842
5.24448
5.28569
5.33245
5.38525
5.44471
5.51144
5.5854
5.66528
5.74921
5.8325
5.92344
5.09879
5.10049
5.10249
5.1056
5.11065
5.11817
5.12856
5.14218
5.15936
5.18036
5.20541
5.23471
5.26849
5.30701
5.3506
5.39969
5.45484
5.51657
5.58488
5.6586
5.73603
5.81298
5.89702
5.13419
5.13594
5.1379
5.14082
5.14551
5.15251
5.16223
5.17501
5.19117
5.21092
5.23446
5.26197
5.2936
5.32955
5.3701
5.41562
5.46659
5.5235
5.58635
5.65408
5.72518
5.79592
5.87303
5.16989
5.17158
5.17346
5.17621
5.1806
5.18716
5.1963
5.20836
5.2236
5.24221
5.26434
5.29013
5.31969
5.3532
5.39084
5.43293
5.47987
5.53213
5.58969
5.65162
5.71659
5.78126
5.8518
5.20588
5.20744
5.20922
5.21183
5.21596
5.22217
5.23083
5.24226
5.25668
5.27423
5.29504
5.31918
5.34674
5.37785
5.41267
5.45144
5.49453
5.54229
5.59474
5.65107
5.71007
5.76885
5.83302
5.24217
5.2436
5.24528
5.24776
5.2517
5.25762
5.26589
5.27678
5.29046
5.30703
5.32656
5.34911
5.37472
5.40347
5.4355
5.47101
5.51031
5.55373
5.60125
5.65213
5.70531
5.75821
5.81648
5.27884
5.28013
5.28173
5.28413
5.28794
5.29365
5.30162
5.31204
5.32503
5.34065
5.35894
5.3799
5.40357
5.42998
5.45923
5.4915
5.52706
5.56618
5.60887
5.65446
5.70192
5.74871
5.80189
5.31597
5.31716
5.31872
5.32107
5.32482
5.33041
5.33813
5.34811
5.36043
5.37511
5.39215
5.41152
5.43322
5.45727
5.48374
5.51277
5.5446
5.57948
5.61741
5.65781
5.69987
5.74155
5.78752
5.35376
5.35485
5.35639
5.35876
5.36249
5.368
5.37548
5.38503
5.39666
5.41037
5.42611
5.44385
5.46354
5.48519
5.50885
5.53464
5.56276
5.59344
5.62668
5.662
5.6987
5.73509
5.77474
5.39233
5.39335
5.39489
5.39729
5.40102
5.40642
5.41364
5.42271
5.43361
5.44629
5.46067
5.4767
5.49433
5.51354
5.53437
5.55691
5.58135
5.60789
5.63654
5.6669
5.69838
5.72954
5.76339
5.43166
5.43266
5.43421
5.43661
5.4403
5.44556
5.45247
5.461
5.47109
5.48265
5.49559
5.50984
5.52533
5.54206
5.56004
5.57936
5.60018
5.62268
5.64688
5.67244
5.69888
5.725
5.75329
5.47167
5.47262
5.47416
5.47653
5.48015
5.48523
5.49177
5.49968
5.50886
5.5192
5.5306
5.54298
5.55629
5.57051
5.58565
5.6018
5.61909
5.63768
5.65759
5.67856
5.70023
5.72157
5.74469
5.51221
5.51306
5.51455
5.51689
5.52044
5.5253
5.5314
5.5386
5.54675
5.55574
5.56549
5.57592
5.58698
5.59867
5.611
5.62405
5.63793
5.65278
5.66863
5.68528
5.70242
5.71932
5.73762
5.55311
5.55384
5.55536
5.55776
5.56129
5.56592
5.57149
5.57782
5.58479
5.59228
5.60023
5.6086
5.61736
5.62651
5.63607
5.6461
5.6567
5.66799
5.67998
5.69253
5.70545
5.71817
5.73197
5.59395
5.59471
5.59675
5.59958
5.60321
5.60753
5.61239
5.61762
5.62313
5.62889
5.63486
5.64103
5.64739
5.65395
5.66074
5.6678
5.67522
5.68308
5.6914
5.70007
5.70896
5.71768
5.72714
5.63451
5.6353
5.63916
5.64302
5.64669
5.65038
5.6541
5.65782
5.66154
5.66529
5.66906
5.67288
5.67675
5.68069
5.68472
5.68888
5.69322
5.69779
5.70261
5.70761
5.71272
5.71775
5.72322
5.68939
5.68705
5.69298
5.69627
5.69841
5.70018
5.70176
5.70322
5.70461
5.70595
5.70727
5.70857
5.70987
5.71117
5.71249
5.71384
5.71524
5.71671
5.71826
5.71987
5.72151
5.72317
5.72506
6339.78
6333.17
5308.36
1663.57
1104.13
1099.4
1109.33
1136.28
1126.03
1082.76
1074.97
1110.57
1034.41
899.877
814.952
839.946
633.352
594.265
679.2
718.495
721.679
723.263
725.086
727.525
724.972
726.829
728.617
729.961
707.381
706.402
707.39
707.634
235.298
237.676
238.849
229.759
6.2018
6.47693
6.76728
7.02547
6.61363
6.88411
7.17646
7.40442
6.52221
6.79379
7.10604
7.3596
6.5037
6.78067
7.09378
7.34101
6.50641
6.78454
7.09466
7.33498
6.50135
6.7764
7.08158
7.31624
6.48462
6.75427
7.05276
7.28192
6.45845
6.721
7.01182
7.23488
6.42501
6.67918
6.96063
7.17711
6.38575
6.6302
6.90164
7.11087
6.34247
6.57616
6.8361
7.03772
6.29702
6.51894
6.76696
6.96012
6.25093
6.46056
6.69522
6.87932
6.20456
6.40126
6.62252
6.79697
6.15861
6.3421
6.54913
6.71389
6.1143
6.28438
6.47749
6.63211
6.07274
6.22968
6.40828
6.55254
6.03397
6.17797
6.34263
6.47631
5.99808
6.12953
6.28018
6.40349
5.96529
6.0846
6.22199
6.33488
5.93567
6.04345
6.16763
6.27026
5.90857
6.00527
6.11705
6.2096
5.88357
5.96955
6.06917
6.15211
5.85989
5.93599
6.02425
6.09746
5.83791
5.90453
5.98203
6.04692
5.81765
5.87513
5.94236
5.99878
5.79901
5.84768
5.9048
5.9531
5.78224
5.82245
5.87001
5.9104
5.76758
5.7998
5.838
5.87073
5.75477
5.7794
5.80881
5.83416
5.74315
5.76054
5.78147
5.79989
5.73216
5.74251
5.75542
5.76748
5.72768
5.731
5.73527
5.73979
1160.67
1123.94
1415.02
1551.72
1702.66
1346.28
1207.82
1206.46
1202.56
1194.12
1182.72
1170.94
1163.06
1143.79
1060.76
916.667
907.771
912.643
984.455
1139.26
1062.75
852.621
1071.52
1405.51
1386.81
1138.39
1188.73
1190.81
1183.55
1132.62
1014.24
954.862
913.791
881.42
889.059
898.399
901.325
938.248
1051.54
964.454
748.921
764.887
756.543
842.647
1032.38
1053.88
1057
946.681
835.992
830.294
839.089
849.896
863.939
879.072
890.172
898.591
921.59
801.103
695.382
761.346
760.101
761.478
767.809
726.466
751.918
764.297
800.886
812.823
824.587
835.749
848.078
861.72
875.138
886.739
898.58
909.631
729.84
742.455
750.139
753.847
757.582
763.652
771.206
767.351
773.172
792.637
807.831
820.056
832.465
845.495
859.006
872.134
884.834
899.389
914.318
732.072
739.151
744.719
748.424
752.224
757.382
763.783
771.055
779.455
789.602
801.73
814.511
827.654
841.31
855.236
868.964
883.225
900.093
910.199
732.096
735.882
739.363
742.392
745.762
749.805
754.549
760.741
769.302
781
794.625
808.589
822.703
837.306
851.889
866.364
882.009
900.54
910.132
710.286
704.122
687.144
672.241
661.028
648.972
633.88
653.5
696.654
759.478
782.697
797.468
813.441
831.444
848.972
865.691
882.149
900.832
964.074
209.336
188.866
155.551
128.699
116.14
104.444
100.846
88.8558
111.052
184.289
300.711
390.192
497.035
643.81
769.503
855.681
879.251
901.449
1049.23
7.39004
7.57704
7.70908
7.85044
7.98004
8.10092
8.19997
8.28912
8.33067
8.34158
8.37829
8.54129
16.1277
56.8757
134.542
290.193
642.036
899.841
1064.35
7.61575
7.73818
7.83299
7.92025
7.99768
8.06923
8.13598
8.19669
8.22705
8.22064
8.21144
8.23921
8.33369
8.58409
8.95236
9.23507
33.1955
365.486
894.878
7.59422
7.70195
7.79654
7.88599
7.96578
8.0375
8.1039
8.32119
8.94237
8.70233
8.25557
8.22445
8.26473
8.46666
8.48988
8.7507
9.63961
22.0706
175.736
7.56484
7.66771
7.75715
7.84586
7.92464
7.99288
8.16003
9.14316
9.17175
9.18637
8.16253
8.19815
9.08549
10.8911
11.0407
10.5932
10.0808
9.89318
20.9789
7.54545
7.63843
7.72485
7.80994
7.8844
7.9455
8.09548
8.62216
8.8487
8.362
8.1053
8.18187
9.68403
10.8429
10.1466
9.71415
9.21489
7.798
7.81934
7.51993
7.60818
7.69146
7.7732
7.84462
7.90181
7.94061
7.96617
8.00427
8.0167
8.05081
8.11789
8.37688
8.33037
8.09385
7.93402
7.99996
7.77259
7.79522
7.48069
7.56689
7.64829
7.72825
7.79722
7.85273
7.8938
7.9231
7.94771
7.97058
7.98916
7.99512
7.97587
7.95463
7.92928
7.89065
7.84052
7.80356
7.79875
7.42881
7.51429
7.59491
7.67418
7.74301
7.79921
7.84248
7.87486
7.90012
7.91969
7.93161
7.93229
7.92064
7.90005
7.8735
7.84265
7.81033
7.78653
7.77022
7.36641
7.45154
7.53198
7.61117
7.68047
7.73788
7.78335
7.81833
7.84497
7.86411
7.87488
7.87562
7.86597
7.84816
7.8257
7.79976
7.77588
7.76046
7.75111
7.29503
7.38007
7.46049
7.53983
7.60982
7.66856
7.71611
7.75349
7.78191
7.80199
7.81352
7.81591
7.80927
7.79546
7.77687
7.75578
7.73525
7.71893
7.70658
7.2168
7.30138
7.38166
7.46109
7.53174
7.59178
7.6412
7.68076
7.71114
7.73283
7.74598
7.75056
7.74705
7.73685
7.72192
7.70428
7.68609
7.6693
7.65455
7.13314
7.21702
7.29683
7.37609
7.44719
7.50833
7.55937
7.60086
7.63321
7.65682
7.67196
7.67893
7.67834
7.6714
7.65973
7.64501
7.6288
7.61247
7.59817
7.04599
7.12854
7.20748
7.28617
7.35734
7.41925
7.47157
7.51469
7.54888
7.57445
7.59172
7.60112
7.60331
7.59935
7.59058
7.57839
7.56401
7.54885
7.53559
6.95645
7.03744
7.11505
7.19273
7.26352
7.32574
7.37893
7.42334
7.45912
7.48652
7.50588
7.51763
7.52242
7.52117
7.51502
7.50515
7.49263
7.47887
7.46718
6.86634
6.94519
7.02101
7.09716
7.16707
7.22909
7.28269
7.32798
7.36503
7.39404
7.4153
7.42923
7.43641
7.43764
7.4339
7.42622
7.41563
7.40359
7.39361
6.77669
6.85314
6.92668
7.00079
7.0693
7.1306
7.18411
7.22983
7.26777
7.29807
7.32096
7.33683
7.34616
7.34966
7.34817
7.34264
7.33404
7.32388
7.31569
6.68906
6.76246
6.83326
6.90481
6.9714
7.03145
7.08436
7.13004
7.16845
7.19967
7.22389
7.2414
7.25263
7.25819
7.2588
7.25531
7.24872
7.24055
7.23407
6.60403
6.67409
6.7417
6.81022
6.87438
6.93268
6.98449
7.02967
7.06811
7.09986
7.12503
7.14386
7.15671
7.16408
7.1666
7.16509
7.16048
7.15424
7.14936
6.52253
6.58872
6.65274
6.71779
6.77906
6.83514
6.88538
6.92958
6.96762
6.99948
7.02522
7.04504
7.0592
7.06812
7.07237
7.07265
7.0699
7.06559
7.06204
6.44469
6.50678
6.56685
6.62805
6.68604
6.73948
6.7877
6.8305
6.86771
6.89927
6.9252
6.94563
6.96078
6.97097
6.9767
6.97861
6.97757
6.97489
6.97259
6.3709
6.42847
6.4843
6.54136
6.59572
6.64614
6.69198
6.73297
6.76895
6.79981
6.82555
6.84623
6.86203
6.8732
6.88016
6.88347
6.88395
6.88271
6.88146
6.30081
6.35383
6.40521
6.4579
6.50836
6.55546
6.59856
6.63739
6.67176
6.70156
6.72673
6.74732
6.76343
6.77527
6.78318
6.78769
6.78946
6.78939
6.78905
6.23442
6.28282
6.32958
6.37774
6.4241
6.46762
6.5077
6.54406
6.57649
6.60487
6.62913
6.64927
6.66537
6.67758
6.6862
6.69161
6.69447
6.69539
6.69563
6.17128
6.21546
6.25739
6.30089
6.343
6.38275
6.41957
6.45317
6.48337
6.51001
6.53303
6.55241
6.56818
6.58047
6.58947
6.59556
6.59918
6.60085
6.60158
6.11176
6.15098
6.18845
6.22732
6.26509
6.30092
6.33427
6.36489
6.39258
6.41721
6.43868
6.45697
6.47209
6.48413
6.49324
6.49967
6.50384
6.50607
6.50723
6.05535
6.08951
6.12263
6.15693
6.19032
6.2221
6.25183
6.27925
6.30419
6.32653
6.34617
6.36307
6.37723
6.38872
6.39766
6.40428
6.40875
6.41147
6.41291
6.00189
6.0313
6.05999
6.08967
6.1186
6.14623
6.17217
6.1962
6.21818
6.23798
6.25554
6.27079
6.28375
6.29446
6.30303
6.30957
6.31425
6.31728
6.31888
5.95146
5.97639
6.00063
6.02564
6.05
6.07332
6.0953
6.11576
6.13457
6.15164
6.1669
6.18029
6.19182
6.20153
6.20948
6.21578
6.22048
6.22366
6.22538
5.90438
5.92486
5.94465
5.96491
5.98455
6.00333
6.02114
6.03784
6.05332
6.06748
6.08024
6.09157
6.10147
6.10996
6.1171
6.12294
6.12753
6.13081
6.13255
5.86046
5.87666
5.89204
5.90747
5.92216
5.93604
5.94945
5.96223
5.97423
5.98532
5.99543
6.00451
6.01258
6.01967
6.02581
6.03107
6.03543
6.03872
6.04059
5.81947
5.83157
5.84258
5.85312
5.86257
5.87079
5.87964
5.88844
5.89689
5.90482
5.91214
5.91883
5.92491
5.93041
5.93542
5.93996
5.94404
5.94749
5.9496
5.78156
5.78999
5.79674
5.80253
5.80652
5.80675
5.8112
5.81622
5.82116
5.82587
5.8303
5.83446
5.83839
5.84216
5.84585
5.84955
5.85335
5.8571
5.85988
5.74607
5.74953
5.75181
5.75322
5.75318
5.75167
5.75345
5.7553
5.75705
5.7587
5.76026
5.76173
5.76317
5.76459
5.76604
5.76757
5.76924
5.77101
5.77248
)
;

boundaryField
{
    leftWall
    {
        type            fixedFluxPressure;
        gradient        uniform 0;
        value           nonuniform List<scalar> 
50
(
4835.35
4833.95
4830.93
4825.86
4292.48
1451.49
1217.08
1215.41
1212.11
1207.26
1203.29
1191.61
897.142
587.157
554.47
381.687
141.47
22.029
4.68596
4.70126
4.72091
4.74253
4.76194
4.78129
4.80215
4.82449
4.84864
4.87471
4.90261
4.93222
4.96336
4.99584
5.0294
5.0638
5.09879
5.13419
5.16989
5.20588
5.24217
5.27884
5.31597
5.35376
5.39233
5.43166
5.47167
5.51221
5.55311
5.59395
5.63451
5.68939
)
;
    }
    rightWall
    {
        type            fixedFluxPressure;
        gradient        uniform 0;
        value           nonuniform List<scalar> 
50
(
2397.14
2278.07
2014.25
1556.1
1232.7
1033.59
1054.53
1006.95
984.455
938.248
921.59
909.631
914.318
910.199
910.132
964.074
1049.23
1064.35
894.878
175.736
20.9789
7.81934
7.79522
7.79875
7.77022
7.75111
7.70658
7.65455
7.59817
7.53559
7.46718
7.39361
7.31569
7.23407
7.14936
7.06204
6.97259
6.88146
6.78905
6.69563
6.60158
6.50723
6.41291
6.31888
6.22538
6.13255
6.04059
5.9496
5.85988
5.77248
)
;
    }
    lowerWall
    {
        type            fixedFluxPressure;
        gradient        uniform 0;
        value           nonuniform List<scalar> 
62
(
4835.35
4846.64
4872.26
4909.19
4954.01
5006.88
5069.62
5144.7
5234.88
5342.72
5470.04
5617.59
5785.68
5973.48
6178.1
6394.6
6617.03
6839.4
7053.84
7250.11
7416.18
7532.26
7602.31
7602.31
7606.06
7628.55
7672.25
7734.06
7814.88
7913.94
8039.07
6339.78
6333.17
5308.36
1663.57
3742.13
3711.4
3695.54
3549.04
1626.56
1176.09
926.942
1066.95
3742.13
3525.72
3358.96
3176.91
2996.47
2902.64
2790.97
2656.33
2535.46
2430.27
2390.35
2369.41
2368.3
2369.65
2372.65
2383.94
2392.28
2406.13
2397.14
)
;
    }
    atmosphere
    {
        type            prghTotalPressure;
        rho             rho;
        psi             none;
        gamma           1;
        p0              uniform 0;
        value           nonuniform List<scalar> 
46
(
5.7285
5.72806
5.72843
5.72861
5.7287
5.72875
5.72877
5.72878
5.72878
5.72877
5.72876
5.72875
5.72873
5.72871
5.72869
5.72868
5.72867
5.72866
5.72865
5.72865
5.72865
5.72865
5.72866
5.72876
5.72878
5.72878
5.72877
5.72877
5.72881
5.72886
5.72891
5.72893
5.72895
5.72899
5.72902
5.72904
5.72904
5.72904
5.72904
5.72904
5.72904
5.72904
5.72904
5.72904
5.72904
5.72904
)
;
        rho             rho;
    }
    defaultFaces
    {
        type            empty;
    }
}


// ************************************************************************* //
