/*--------------------------------*- C++ -*----------------------------------*\
  =========                 |
  \\      /  F ield         | OpenFOAM: The Open Source CFD Toolbox
   \\    /   O peration     | Website:  https://openfoam.org
    \\  /    A nd           | Version:  13
     \\/     M anipulation  |
\*---------------------------------------------------------------------------*/
FoamFile
{
    format      ascii;
    class       surfaceScalarField;
    location    "1.55";
    object      phi;
}
// * * * * * * * * * * * * * * * * * * * * * * * * * * * * * * * * * * * * * //

dimensions      [0 3 -1 0 0 0 0];

internalField   nonuniform List<scalar> 
4432
(
-1.29696e-06
1.29696e-06
-1.19562e-06
-1.01344e-07
-7.01246e-07
-4.94372e-07
-2.77219e-07
-4.24027e-07
1.5568e-08
-2.92788e-07
2.14106e-07
-1.9854e-07
3.71864e-07
-1.57759e-07
5.23977e-07
-1.52114e-07
6.89246e-07
-1.6527e-07
8.8018e-07
-1.90936e-07
1.09698e-06
-2.16797e-07
1.32125e-06
-2.24272e-07
1.54605e-06
-2.24805e-07
1.77138e-06
-2.25334e-07
1.96791e-06
-1.96525e-07
2.04692e-06
-7.90055e-08
1.8492e-06
1.97718e-07
1.26188e-06
5.87319e-07
1.9404e-07
1.06784e-06
-1.37732e-06
1.57136e-06
-3.10325e-06
1.72593e-06
-3.64623e-06
5.42975e-07
-3.64623e-06
-3.14135e-07
1.6111e-06
1.71024e-08
-4.3258e-07
3.61554e-07
-8.38822e-07
6.46753e-07
-7.09225e-07
8.51138e-07
-4.97172e-07
9.88789e-07
-3.36189e-07
1.08271e-06
-2.51684e-07
1.15285e-06
-2.2225e-07
1.21318e-06
-2.25598e-07
1.27587e-06
-2.5362e-07
1.34566e-06
-2.8659e-07
1.41278e-06
-2.91387e-07
1.47799e-06
-2.90025e-07
1.55266e-06
-2.99998e-07
1.63236e-06
-2.76232e-07
1.66446e-06
-1.11106e-07
1.54577e-06
3.16406e-07
1.19709e-06
9.36004e-07
5.57508e-07
1.70742e-06
-3.61984e-07
2.49086e-06
-1.33299e-06
2.69694e-06
-1.73409e-06
9.44073e-07
-5.38033e-06
4.52703e-07
1.15839e-06
7.85797e-07
-7.65673e-07
1.00724e-06
-1.06026e-06
1.19996e-06
-9.01951e-07
1.35098e-06
-6.48187e-07
1.45355e-06
-4.38758e-07
1.51312e-06
-3.11253e-07
1.53929e-06
-2.48427e-07
1.54091e-06
-2.27215e-07
1.528e-06
-2.40709e-07
1.50606e-06
-2.64648e-07
1.46803e-06
-2.53365e-07
1.41873e-06
-2.40718e-07
1.37766e-06
-2.58929e-07
1.35774e-06
-2.56312e-07
1.33383e-06
-8.7199e-08
1.24031e-06
4.09932e-07
1.0381e-06
1.13821e-06
6.91919e-07
2.0536e-06
1.91846e-07
2.99093e-06
-3.05459e-07
3.19424e-06
-4.81291e-07
1.1199e-06
-5.86162e-06
1.08377e-06
7.46293e-08
1.31162e-06
-9.9353e-07
1.44728e-06
-1.19592e-06
1.58482e-06
-1.03948e-06
1.70464e-06
-7.68004e-07
1.7872e-06
-5.21323e-07
1.82749e-06
-3.51535e-07
1.82844e-06
-2.49371e-07
1.79435e-06
-1.93129e-07
1.73227e-06
-1.7863e-07
1.64672e-06
-1.79098e-07
1.52921e-06
-1.35856e-07
1.38812e-06
-9.96224e-08
1.24959e-06
-1.20395e-07
1.14058e-06
-1.47306e-07
1.05897e-06
-5.5883e-09
9.67541e-07
5.01359e-07
8.66554e-07
1.2392e-06
7.38434e-07
2.18172e-06
5.46507e-07
3.18285e-06
3.72544e-07
3.3682e-06
2.40482e-07
1.25196e-06
-5.62114e-06
1.37495e-06
-1.30032e-06
1.61468e-06
-1.23326e-06
1.74168e-06
-1.32291e-06
1.85522e-06
-1.15303e-06
1.95642e-06
-8.69198e-07
2.02716e-06
-5.92063e-07
2.05816e-06
-3.82533e-07
2.04836e-06
-2.3957e-07
1.99748e-06
-1.42251e-07
1.90456e-06
-8.57081e-08
1.77799e-06
-5.25223e-08
1.60331e-06
3.88244e-08
1.39219e-06
1.11495e-07
1.17588e-06
9.59164e-08
9.89947e-07
3.86243e-08
8.50303e-07
1.34055e-07
7.45956e-07
6.05706e-07
7.16409e-07
1.26874e-06
7.5486e-07
2.14327e-06
7.82286e-07
3.15543e-06
8.00748e-07
3.34974e-06
6.86392e-07
1.36632e-06
-4.93475e-06
1.23838e-06
-2.5387e-06
1.76162e-06
-1.7565e-06
1.96468e-06
-1.52597e-06
2.06369e-06
-1.25205e-06
2.13841e-06
-9.43907e-07
2.18992e-06
-6.43573e-07
2.2124e-06
-4.05011e-07
2.2058e-06
-2.32969e-07
2.16809e-06
-1.04545e-07
2.08833e-06
-5.95056e-09
1.93698e-06
9.88282e-08
1.71117e-06
2.64641e-07
1.45069e-06
3.71978e-07
1.17007e-06
3.76535e-07
9.196e-07
2.89091e-07
7.29712e-07
3.23942e-07
6.03242e-07
7.32175e-07
6.24584e-07
1.2474e-06
7.97007e-07
1.97084e-06
9.95135e-07
2.9573e-06
1.15956e-06
3.18531e-06
1.04372e-06
1.48217e-06
-3.89103e-06
1.90235e-06
-4.44105e-06
2.65635e-06
-2.5105e-06
2.91633e-06
-1.78595e-06
2.92983e-06
-1.26556e-06
2.86218e-06
-8.76256e-07
2.78153e-06
-5.62919e-07
2.70252e-06
-3.26004e-07
2.62422e-06
-1.54664e-07
2.53182e-06
-1.21464e-08
2.38363e-06
1.42239e-07
2.10082e-06
3.81636e-07
1.78181e-06
5.8365e-07
1.52134e-06
6.32453e-07
1.27284e-06
6.25032e-07
1.00806e-06
5.5387e-07
7.24785e-07
6.07215e-07
5.49272e-07
9.07687e-07
6.37726e-07
1.15895e-06
9.33434e-07
1.67513e-06
1.29202e-06
2.59872e-06
1.6342e-06
2.84312e-06
1.53025e-06
1.58612e-06
-2.36077e-06
2.27424e-06
-6.71529e-06
3.39799e-06
-3.63425e-06
3.81723e-06
-2.20519e-06
3.88454e-06
-1.33286e-06
3.80604e-06
-7.97756e-07
3.69074e-06
-4.47622e-07
3.5877e-06
-2.22964e-07
3.51877e-06
-8.57329e-08
3.47588e-06
3.07367e-08
3.40468e-06
2.13438e-07
3.24448e-06
5.41835e-07
2.93206e-06
8.96065e-07
2.47347e-06
1.09104e-06
1.94226e-06
1.15624e-06
1.32045e-06
1.17568e-06
8.15892e-07
1.11177e-06
7.07184e-07
1.01639e-06
8.51392e-07
1.01474e-06
1.18183e-06
1.34469e-06
1.76611e-06
2.01444e-06
2.48885e-06
2.12038e-06
2.69519e-06
1.37978e-06
3.34418e-07
9.22229e-06
-9.22229e-06
1.19563e-05
-2.73402e-06
1.2888e-05
-9.31656e-07
1.24764e-05
4.11584e-07
1.09427e-05
1.53365e-06
8.54106e-06
2.40166e-06
4.94514e-06
3.59592e-06
1.05454e-06
3.89059e-06
-2.00938e-06
3.06392e-06
-4.88799e-06
2.8786e-06
-6.96858e-06
2.08059e-06
-7.36555e-06
3.96965e-07
-6.5864e-06
-7.79152e-07
-5.24701e-06
-1.3394e-06
-3.91111e-06
-1.3359e-06
-2.29492e-06
-1.61619e-06
-1.19258e-06
-1.10234e-06
-2.5509e-07
-9.3749e-07
-2.55089e-07
8.90957e-06
-1.81318e-05
1.20925e-05
-5.91697e-06
1.25668e-05
-1.40593e-06
1.2145e-05
8.33362e-07
1.11243e-05
2.55438e-06
8.98471e-06
4.54122e-06
5.66505e-06
6.91556e-06
1.93945e-06
7.61616e-06
-1.23327e-06
6.23661e-06
-3.344e-06
4.98931e-06
-4.50912e-06
3.2457e-06
-4.98851e-06
8.76353e-07
-4.60951e-06
-1.15815e-06
-3.65178e-06
-2.29713e-06
-2.3088e-06
-2.67887e-06
-1.20802e-06
-2.71698e-06
-9.91773e-07
-1.31858e-06
-9.83432e-07
-9.45826e-07
-1.23852e-06
6.27072e-06
-2.44026e-05
1.00267e-05
-9.67293e-06
1.29834e-05
-4.36271e-06
1.35213e-05
2.95468e-07
1.24649e-05
3.61085e-06
1.03791e-05
6.62693e-06
7.33771e-06
9.95699e-06
3.84271e-06
1.11112e-05
5.47736e-07
9.53158e-06
-1.52479e-06
7.06183e-06
-2.43181e-06
4.15272e-06
-2.82913e-06
1.27367e-06
-2.60034e-06
-1.38695e-06
-1.88333e-06
-3.01414e-06
-8.20625e-07
-3.74158e-06
-2.05948e-07
-3.33165e-06
-3.67025e-07
-1.1575e-06
-9.27481e-07
-3.85367e-07
-2.16599e-06
3.08341e-06
-2.7486e-05
6.5244e-06
-1.31139e-05
1.17419e-05
-9.58017e-06
1.53623e-05
-3.32493e-06
1.47556e-05
4.21748e-06
1.26489e-05
8.7336e-06
9.88369e-06
1.27222e-05
6.84106e-06
1.41538e-05
3.632e-06
1.27406e-05
1.51755e-06
9.17625e-06
1.46502e-07
5.52376e-06
-3.58008e-07
1.77818e-06
-3.72959e-07
-1.37199e-06
2.25644e-07
-3.61273e-06
7.08121e-07
-4.22405e-06
7.54151e-07
-3.37767e-06
6.73441e-07
-1.07679e-06
5.25563e-07
-2.37485e-07
-1.64043e-06
4.27867e-07
-2.79138e-05
4.31362e-06
-1.69997e-05
9.68774e-06
-1.49543e-05
1.56811e-05
-9.31829e-06
1.81078e-05
1.79078e-06
1.72573e-05
9.58407e-06
1.54749e-05
1.45046e-05
1.33025e-05
1.63261e-05
1.04324e-05
1.56108e-05
7.22612e-06
1.23825e-05
4.70721e-06
8.04268e-06
3.2594e-06
3.22598e-06
2.60892e-06
-7.21512e-07
2.62284e-06
-3.62664e-06
2.42906e-06
-4.03026e-06
1.55417e-06
-2.50278e-06
7.57314e-07
-2.79928e-07
6.97417e-07
-1.77584e-07
-9.42999e-07
-7.40516e-07
-2.71734e-05
4.144e-06
-2.18842e-05
9.01539e-06
-1.98257e-05
1.467e-05
-1.49729e-05
2.00116e-05
-3.5508e-06
2.09542e-05
8.64142e-06
2.00266e-05
1.54323e-05
1.86692e-05
1.76835e-05
1.69786e-05
1.73015e-05
1.46599e-05
1.47012e-05
1.18743e-05
1.08283e-05
9.11784e-06
5.9824e-06
7.21564e-06
1.18069e-06
6.0209e-06
-2.43191e-06
4.90436e-06
-2.91373e-06
2.58402e-06
-1.82439e-07
1.43591e-07
2.16049e-06
-1.84838e-06
1.81439e-06
-2.79141e-06
2.93488e-06
-3.01083e-05
6.47119e-06
-2.54206e-05
1.02184e-05
-2.35729e-05
1.46443e-05
-1.93988e-05
2.02748e-05
-9.18134e-06
2.25975e-05
6.31877e-06
2.26146e-05
1.54151e-05
2.19055e-05
1.83927e-05
2.07716e-05
1.84353e-05
1.90182e-05
1.64546e-05
1.67007e-05
1.31457e-05
1.40755e-05
8.60765e-06
1.17052e-05
3.55098e-06
9.77017e-06
-4.96887e-07
7.80653e-06
-9.50105e-07
4.28895e-06
3.33514e-06
2.96403e-07
6.15303e-06
-2.8767e-06
4.98747e-06
-5.6681e-06
1.24486e-05
-4.25569e-05
1.15128e-05
-2.44849e-05
1.29373e-05
-2.49973e-05
1.55605e-05
-2.2022e-05
1.99832e-05
-1.36041e-05
2.30067e-05
3.29529e-06
2.3922e-05
1.44999e-05
2.39426e-05
1.83721e-05
2.33697e-05
1.90082e-05
2.20539e-05
1.77705e-05
2.00321e-05
1.51674e-05
1.75252e-05
1.11146e-05
1.49518e-05
6.1244e-06
1.24831e-05
1.97173e-06
9.84655e-06
1.68649e-06
5.88513e-06
7.29655e-06
1.48916e-06
1.0549e-05
-1.89024e-06
8.36687e-06
-7.55837e-06
5.35157e-06
-1.20669e-05
8.17131e-06
-6.45399e-06
9.33618e-06
-3.37006e-06
9.6742e-06
-1.67088e-06
9.64161e-06
-7.65165e-07
9.48296e-06
-2.88973e-07
9.34442e-06
-8.44301e-08
9.32633e-06
-6.76552e-08
9.45485e-06
-9.77854e-08
9.67907e-06
-1.0793e-08
9.93831e-06
2.82588e-07
1.01517e-05
6.82708e-07
1.01645e-05
1.07819e-06
9.7634e-06
1.55734e-06
8.65633e-06
2.28274e-06
6.76541e-06
3.0027e-06
4.59522e-06
3.18657e-06
3.26589e-06
2.34407e-06
4.02008e-06
5.9049e-07
6.68063e-06
-6.46101e-07
1.03211e-05
-1.5201e-06
1.50874e-05
-3.38648e-06
-1.04609e-05
2.58827e-05
4.68385e-06
-1.67507e-05
6.63872e-06
-8.40885e-06
7.38979e-06
-4.12113e-06
7.75872e-06
-2.03981e-06
8.01407e-06
-1.02052e-06
8.21925e-06
-4.94161e-07
8.45342e-06
-3.186e-07
8.83023e-06
-4.44474e-07
9.40727e-06
-6.74834e-07
1.01597e-05
-7.63266e-07
1.10308e-05
-5.88455e-07
1.19727e-05
-2.59184e-07
1.29558e-05
9.50237e-08
1.39823e-05
5.30795e-07
1.50193e-05
1.24572e-06
1.59431e-05
2.07895e-06
1.66184e-05
2.5113e-06
1.70285e-05
1.93395e-06
1.7574e-05
4.49841e-08
1.93625e-05
-2.43462e-06
2.33292e-05
-5.48681e-06
3.01352e-05
-1.01925e-05
-1.71852e-05
3.68594e-05
2.6932e-06
-1.94439e-05
2.88145e-06
-8.5971e-06
2.90032e-06
-4.14e-06
3.27417e-06
-2.41366e-06
3.8797e-06
-1.62606e-06
4.55098e-06
-1.16544e-06
5.26525e-06
-1.03287e-06
6.14007e-06
-1.3193e-06
7.24423e-06
-1.779e-06
8.54151e-06
-2.06055e-06
9.95028e-06
-1.99723e-06
1.14739e-05
-1.78285e-06
1.3199e-05
-1.63003e-06
1.52266e-05
-1.49687e-06
1.76291e-05
-1.15679e-06
2.02631e-05
-5.55014e-07
2.30227e-05
-2.48352e-07
2.59891e-05
-1.03238e-06
2.92236e-05
-3.18959e-06
3.31304e-05
-6.34144e-06
3.79475e-05
-1.03039e-05
4.31028e-05
-1.53478e-05
-2.15871e-05
4.75047e-05
-1.56439e-06
-1.78795e-05
-2.95071e-06
-7.21078e-06
-3.23941e-06
-3.85129e-06
-2.63338e-06
-3.01969e-06
-1.56397e-06
-2.69545e-06
-4.78142e-07
-2.25127e-06
6.75166e-07
-2.18617e-06
2.11408e-06
-2.75821e-06
3.73005e-06
-3.39496e-06
5.49532e-06
-3.82582e-06
7.3948e-06
-3.8967e-06
9.48822e-06
-3.87627e-06
1.18501e-05
-3.99193e-06
1.45334e-05
-4.18012e-06
1.76631e-05
-4.28653e-06
2.11871e-05
-4.07905e-06
2.49907e-05
-4.05194e-06
2.9117e-05
-5.15876e-06
3.34812e-05
-7.5538e-06
3.80381e-05
-1.08983e-05
4.25348e-05
-1.48006e-05
4.63926e-05
-1.92056e-05
-2.37704e-05
4.85758e-05
-8.6135e-06
-9.26603e-06
-1.09002e-05
-4.92403e-06
-1.09398e-05
-3.81175e-06
-1.00222e-05
-3.93727e-06
-8.5337e-06
-4.18394e-06
-7.05704e-06
-3.7279e-06
-5.46202e-06
-3.78117e-06
-3.4955e-06
-4.7247e-06
-1.32678e-06
-5.56366e-06
9.59066e-07
-6.11164e-06
3.42516e-06
-6.36279e-06
6.16348e-06
-6.61459e-06
9.18475e-06
-7.0132e-06
1.24695e-05
-7.46494e-06
1.60173e-05
-7.83432e-06
1.99807e-05
-8.04247e-06
2.44493e-05
-8.52059e-06
2.92688e-05
-9.97825e-06
3.41118e-05
-1.23968e-05
3.86765e-05
-1.5463e-05
4.27629e-05
-1.88871e-05
4.59621e-05
-2.24049e-05
-2.55614e-05
4.77531e-05
-1.49866e-05
5.72051e-06
-1.73788e-05
-2.53182e-06
-1.79647e-05
-3.2258e-06
-1.74133e-05
-4.48872e-06
-1.62309e-05
-5.36629e-06
-1.44663e-05
-5.49243e-06
-1.22363e-05
-6.01114e-06
-9.85039e-06
-7.11056e-06
-7.24324e-06
-8.17077e-06
-4.43467e-06
-8.92019e-06
-1.36544e-06
-9.432e-06
1.97042e-06
-9.95045e-06
5.52924e-06
-1.0572e-05
9.311e-06
-1.12467e-05
1.33009e-05
-1.18242e-05
1.76904e-05
-1.2432e-05
2.25885e-05
-1.34187e-05
2.76588e-05
-1.50486e-05
3.25787e-05
-1.73168e-05
3.70814e-05
-1.99657e-05
4.10191e-05
-2.28248e-05
4.42335e-05
-2.56193e-05
-2.81189e-05
4.6791e-05
-1.01666e-05
1.58871e-05
-1.56076e-05
2.90921e-06
-1.96362e-05
8.02751e-07
-2.06617e-05
-3.46321e-06
-2.00805e-05
-5.94744e-06
-1.84421e-05
-7.13077e-06
-1.61457e-05
-8.30756e-06
-1.36086e-05
-9.64763e-06
-1.08724e-05
-1.0907e-05
-7.75678e-06
-1.20358e-05
-4.40164e-06
-1.27871e-05
-8.27229e-07
-1.35249e-05
2.96021e-06
-1.43595e-05
6.9347e-06
-1.52212e-05
1.11997e-05
-1.60893e-05
1.58433e-05
-1.70755e-05
2.07955e-05
-1.83709e-05
2.58518e-05
-2.01049e-05
3.07703e-05
-2.22354e-05
3.5419e-05
-2.46144e-05
3.96573e-05
-2.70631e-05
4.33586e-05
-2.93207e-05
-3.12185e-05
4.64581e-05
5.12529e-06
1.07618e-05
-1.21741e-06
9.2519e-06
-1.46107e-05
1.4196e-05
-1.92227e-05
1.14886e-06
-2.01931e-05
-4.97706e-06
-1.90736e-05
-8.25024e-06
-1.68812e-05
-1.05e-05
-1.43259e-05
-1.22029e-05
-1.15252e-05
-1.37076e-05
-8.5455e-06
-1.50155e-05
-5.26597e-06
-1.60667e-05
-1.69355e-06
-1.70973e-05
2.12396e-06
-1.8177e-05
6.18794e-06
-1.92852e-05
1.05359e-05
-2.04372e-05
1.5196e-05
-2.17356e-05
2.01046e-05
-2.32794e-05
2.51195e-05
-2.51198e-05
3.00778e-05
-2.71937e-05
3.48583e-05
-2.93948e-05
3.94073e-05
-3.1612e-05
4.36687e-05
-3.35821e-05
-3.51653e-05
4.76156e-05
1.88173e-05
-8.05556e-06
2.46542e-05
3.415e-06
9.80106e-06
2.90491e-05
-1.0569e-05
2.15189e-05
-1.77764e-05
2.23034e-06
-1.763e-05
-8.39662e-06
-1.53738e-05
-1.27562e-05
-1.29907e-05
-1.4586e-05
-1.0417e-05
-1.62812e-05
-7.85069e-06
-1.75816e-05
-4.58049e-06
-1.93367e-05
-1.23907e-06
-2.04386e-05
2.47197e-06
-2.18879e-05
6.49796e-06
-2.33111e-05
1.08686e-05
-2.48078e-05
1.55669e-05
-2.64339e-05
2.0493e-05
-2.82055e-05
2.55068e-05
-3.01336e-05
3.04668e-05
-3.21536e-05
3.52468e-05
-3.41748e-05
3.98159e-05
-3.61811e-05
4.40738e-05
-3.78399e-05
-3.88896e-05
4.77981e-05
1.55972e-05
-2.36527e-05
3.00465e-05
-1.10343e-05
3.65679e-05
2.25277e-05
2.34162e-05
3.46706e-05
1.06931e-05
1.49535e-05
4.31825e-06
-2.02169e-06
2.1323e-06
-1.057e-05
1.21723e-06
-1.36706e-05
-5.24455e-07
-1.45392e-05
-2.08646e-06
-1.60192e-05
-2.55869e-06
-1.88641e-05
-4.13103e-07
-2.25838e-05
2.98501e-06
-2.52857e-05
7.01746e-06
-2.73433e-05
1.15066e-05
-2.92967e-05
1.63847e-05
-3.13117e-05
2.15209e-05
-3.33415e-05
2.67113e-05
-3.53237e-05
3.17765e-05
-3.72186e-05
3.65573e-05
-3.89554e-05
4.08555e-05
-4.04793e-05
4.45536e-05
-4.15378e-05
-4.19287e-05
4.7593e-05
1.49401e-06
-2.51467e-05
4.85514e-06
-1.43954e-05
1.14793e-05
1.59036e-05
1.58914e-05
3.02586e-05
1.40528e-05
1.67921e-05
9.8246e-06
2.20657e-06
6.43706e-06
-7.18249e-06
4.38e-06
-1.16135e-05
2.60432e-06
-1.27635e-05
2.26908e-06
-1.56839e-05
3.12741e-06
-1.97223e-05
5.12474e-06
-2.4581e-05
7.74159e-06
-2.79024e-05
1.08252e-05
-3.04267e-05
1.42614e-05
-3.27327e-05
1.78896e-05
-3.49396e-05
2.15152e-05
-3.69668e-05
2.49183e-05
-3.87265e-05
2.78784e-05
-4.01785e-05
3.02384e-05
-4.13154e-05
3.18308e-05
-4.20716e-05
3.25708e-05
-4.22772e-05
-4.08784e-05
3.15218e-05
-4.56017e-06
-2.05864e-05
-1.00662e-05
-8.8893e-06
-4.95258e-06
1.07899e-05
5.00308e-06
2.03029e-05
8.36572e-06
1.34294e-05
7.37301e-06
3.19921e-06
5.00366e-06
-4.81324e-06
3.33236e-06
-9.94243e-06
3.88077e-06
-1.33121e-05
5.1609e-06
-1.69643e-05
7.65686e-06
-2.22185e-05
9.70381e-06
-2.66281e-05
1.14398e-05
-2.96385e-05
1.32892e-05
-3.22762e-05
1.52755e-05
-3.47191e-05
1.72668e-05
-3.69311e-05
1.91022e-05
-3.88023e-05
2.06403e-05
-4.02645e-05
2.17533e-05
-4.12916e-05
2.23206e-05
-4.1883e-05
2.22829e-05
-4.20341e-05
2.15968e-05
-4.15912e-05
-4.01175e-05
2.0837e-05
-7.58826e-06
-1.29981e-05
-1.19269e-05
-4.55063e-06
-8.38178e-06
7.24487e-06
-7.16307e-07
1.26374e-05
3.74082e-06
8.97227e-06
4.7692e-06
2.17077e-06
4.22004e-06
-4.26421e-06
3.71969e-06
-9.44227e-06
4.29263e-06
-1.38853e-05
6.27271e-06
-1.89446e-05
7.90184e-06
-2.38479e-05
9.11606e-06
-2.78426e-05
9.92188e-06
-3.04446e-05
1.06141e-05
-3.29687e-05
1.12412e-05
-3.53464e-05
1.17389e-05
-3.74289e-05
1.20363e-05
-3.90999e-05
1.20773e-05
-4.03056e-05
1.18263e-05
-4.10408e-05
1.12435e-05
-4.13008e-05
1.02936e-05
-4.10845e-05
9.02739e-06
-4.03251e-05
-3.89341e-05
7.84514e-06
-6.34217e-06
-6.65578e-06
-9.80335e-06
-1.08941e-06
-7.56509e-06
5.00662e-06
-2.62071e-06
7.69301e-06
1.06958e-06
5.28195e-06
2.80984e-06
4.30458e-07
3.3646e-06
-4.81905e-06
3.68408e-06
-9.76186e-06
4.34435e-06
-1.45457e-05
5.04944e-06
-1.96498e-05
5.62497e-06
-2.44236e-05
5.85934e-06
-2.80771e-05
5.84094e-06
-3.04264e-05
5.61531e-06
-3.27432e-05
5.22435e-06
-3.49556e-05
4.64416e-06
-3.68488e-05
3.87156e-06
-3.83274e-05
2.91114e-06
-3.93453e-05
1.77809e-06
-3.99079e-05
4.74746e-07
-3.9998e-05
-9.88786e-07
-3.96213e-05
-2.54689e-06
-3.87671e-05
-3.75094e-05
-3.9705e-06
-4.59653e-06
-2.05927e-06
-7.01626e-06
1.33034e-06
-6.05191e-06
4.04227e-06
-3.12339e-06
4.76447e-06
-4.96259e-07
2.6548e-06
1.12638e-06
-1.19221e-06
1.96878e-06
-5.66149e-06
2.45439e-06
-1.02475e-05
2.80259e-06
-1.48939e-05
2.76358e-06
-1.96109e-05
2.39371e-06
-2.40538e-05
1.76514e-06
-2.74486e-05
1.05994e-06
-2.97212e-05
1.94459e-07
-3.18778e-05
-8.76479e-07
-3.38848e-05
-2.13929e-06
-3.55861e-05
-3.57613e-06
-3.68906e-05
-5.15292e-06
-3.77685e-05
-6.84666e-06
-3.82143e-05
-8.6265e-06
-3.82186e-05
-1.04535e-05
-3.77947e-05
-1.22616e-05
-3.69591e-05
-3.5852e-05
-1.39179e-05
-3.44211e-06
1.38294e-06
-5.15295e-06
3.04122e-06
-4.86953e-06
3.75885e-06
-3.30661e-06
3.20154e-06
-1.65646e-06
1.00463e-06
-4.83173e-07
-2.36551e-06
1.89862e-07
-6.33453e-06
4.94415e-07
-1.05521e-05
4.608e-07
-1.48603e-05
-1.16175e-08
-1.91384e-05
-1.00348e-06
-2.30619e-05
-2.23047e-06
-2.62216e-05
-3.42716e-06
-2.85246e-05
-4.74653e-06
-3.05585e-05
-6.25435e-06
-3.2377e-05
-7.94824e-06
-3.38922e-05
-9.79555e-06
-3.50433e-05
-1.17594e-05
-3.58046e-05
-1.38111e-05
-3.61627e-05
-1.59121e-05
-3.6118e-05
-1.80205e-05
-3.56865e-05
-2.00874e-05
-3.48921e-05
-3.38692e-05
-2.20691e-05
-2.75877e-06
4.14169e-06
-4.13529e-06
4.41775e-06
-4.26595e-06
3.88951e-06
-3.5623e-06
2.49787e-06
-2.66853e-06
1.10851e-07
-1.98399e-06
-3.05005e-06
-1.63321e-06
-6.68531e-06
-1.63261e-06
-1.05526e-05
-2.01073e-06
-1.44822e-05
-2.83468e-06
-1.83145e-05
-4.09544e-06
-2.18011e-05
-5.62058e-06
-2.46965e-05
-7.16241e-06
-2.69827e-05
-8.79867e-06
-2.89222e-05
-1.05995e-05
-3.05762e-05
-1.25602e-05
-3.19314e-05
-1.46545e-05
-3.2949e-05
-1.68548e-05
-3.36042e-05
-1.91286e-05
-3.38889e-05
-2.14417e-05
-3.38052e-05
-2.37582e-05
-3.33702e-05
-2.60534e-05
-3.25968e-05
-3.15855e-05
-2.83359e-05
-2.39544e-06
6.53724e-06
-3.62805e-06
5.65039e-06
-4.01035e-06
4.27181e-06
-3.8334e-06
2.32093e-06
-3.47261e-06
-2.49947e-07
-3.20804e-06
-3.31461e-06
-3.18457e-06
-6.70877e-06
-3.47154e-06
-1.02657e-05
-4.11728e-06
-1.38364e-05
-5.16296e-06
-1.72688e-05
-6.57501e-06
-2.0389e-05
-8.21914e-06
-2.30523e-05
-9.96545e-06
-2.52364e-05
-1.18152e-05
-2.70724e-05
-1.37978e-05
-2.85936e-05
-1.5917e-05
-2.98122e-05
-1.81551e-05
-3.07108e-05
-2.04869e-05
-3.12724e-05
-2.28846e-05
-3.14913e-05
-2.53164e-05
-3.13737e-05
-2.77594e-05
-3.09274e-05
-3.02065e-05
-3.01496e-05
-2.91261e-05
-3.26648e-05
-2.12186e-06
8.65905e-06
-3.26928e-06
6.79782e-06
-3.79768e-06
4.80023e-06
-3.93802e-06
2.46126e-06
-3.93549e-06
-2.52472e-07
-3.99063e-06
-3.25947e-06
-4.23685e-06
-6.46254e-06
-4.75381e-06
-9.74866e-06
-5.59076e-06
-1.29994e-05
-6.76648e-06
-1.6093e-05
-8.2504e-06
-1.89051e-05
-9.95857e-06
-2.13441e-05
-1.17988e-05
-2.33962e-05
-1.37612e-05
-2.511e-05
-1.58427e-05
-2.6512e-05
-1.80412e-05
-2.76137e-05
-2.03433e-05
-2.84087e-05
-2.27269e-05
-2.88886e-05
-2.51666e-05
-2.90517e-05
-2.76385e-05
-2.89021e-05
-3.01243e-05
-2.84417e-05
-3.26194e-05
-2.76544e-05
-2.66062e-05
-3.51383e-05
-1.80167e-06
1.04609e-05
-2.83053e-06
7.82673e-06
-3.40971e-06
5.37944e-06
-3.72586e-06
2.77742e-06
-3.95111e-06
-2.7213e-08
-4.22997e-06
-2.9806e-06
-4.67421e-06
-6.01829e-06
-5.35567e-06
-9.06718e-06
-6.31611e-06
-1.2039e-05
-7.56678e-06
-1.48423e-05
-9.08101e-06
-1.73908e-05
-1.08015e-05
-1.96236e-05
-1.26733e-05
-2.15244e-05
-1.46709e-05
-2.31123e-05
-1.67814e-05
-2.44016e-05
-1.89949e-05
-2.54001e-05
-2.12974e-05
-2.61062e-05
-2.36689e-05
-2.6517e-05
-2.60876e-05
-2.66331e-05
-2.85308e-05
-2.64592e-05
-3.09843e-05
-2.59885e-05
-3.34425e-05
-2.51961e-05
-2.41511e-05
-3.58964e-05
-1.36654e-06
1.18274e-05
-2.19856e-06
8.65878e-06
-2.73861e-06
5.91951e-06
-3.12488e-06
3.16372e-06
-3.47784e-06
3.25756e-07
-3.89823e-06
-2.5602e-06
-4.47318e-06
-5.44332e-06
-5.26028e-06
-8.28005e-06
-6.29159e-06
-1.10076e-05
-7.57337e-06
-1.35605e-05
-9.08526e-06
-1.58789e-05
-1.07879e-05
-1.79209e-05
-1.26412e-05
-1.96711e-05
-1.46193e-05
-2.11342e-05
-1.6704e-05
-2.23168e-05
-1.88808e-05
-2.32232e-05
-2.11334e-05
-2.38536e-05
-2.34428e-05
-2.42076e-05
-2.57876e-05
-2.42883e-05
-2.81499e-05
-2.40972e-05
-3.05126e-05
-2.36259e-05
-3.28624e-05
-2.28463e-05
-2.18152e-05
-3.51973e-05
-8.01413e-07
1.2629e-05
-1.34865e-06
9.20608e-06
-1.76776e-06
6.33864e-06
-2.14062e-06
3.53659e-06
-2.54179e-06
7.26937e-07
-3.03494e-06
-2.06703e-06
-3.6818e-06
-4.79644e-06
-4.52403e-06
-7.4378e-06
-5.58363e-06
-9.94801e-06
-6.86289e-06
-1.22812e-05
-8.34539e-06
-1.43964e-05
-1.00022e-05
-1.62641e-05
-1.18027e-05
-1.78707e-05
-1.37221e-05
-1.92148e-05
-1.57406e-05
-2.02983e-05
-1.78408e-05
-2.1123e-05
-2.00052e-05
-2.16892e-05
-2.22147e-05
-2.19981e-05
-2.44505e-05
-2.20525e-05
-2.66925e-05
-2.18555e-05
-2.89237e-05
-2.13948e-05
-3.11287e-05
-2.06413e-05
-1.96538e-05
-3.32891e-05
-1.32642e-07
1.27616e-05
-3.1956e-07
9.39301e-06
-5.52954e-07
6.57206e-06
-8.45364e-07
3.82902e-06
-1.22921e-06
1.11079e-06
-1.73624e-06
-1.55998e-06
-2.40343e-06
-4.12923e-06
-3.25688e-06
-6.58433e-06
-4.30851e-06
-8.89636e-06
-5.55657e-06
-1.10331e-05
-6.98635e-06
-1.29666e-05
-8.57484e-06
-1.46756e-05
-1.02968e-05
-1.61488e-05
-1.21294e-05
-1.73822e-05
-1.40526e-05
-1.83751e-05
-1.6048e-05
-1.91276e-05
-1.80972e-05
-1.964e-05
-2.01817e-05
-1.99135e-05
-2.2282e-05
-1.99523e-05
-2.43802e-05
-1.97576e-05
-2.64568e-05
-1.93184e-05
-2.849e-05
-1.86082e-05
-1.76684e-05
-3.04746e-05
5.87347e-07
1.21744e-05
7.91036e-07
9.18941e-06
7.93946e-07
6.56919e-06
6.38046e-07
3.98495e-06
3.28103e-07
1.42076e-06
-1.41168e-07
-1.09069e-06
-7.82069e-07
-3.48831e-06
-1.6069e-06
-5.75948e-06
-2.61792e-06
-7.88532e-06
-3.809e-06
-9.84204e-06
-5.16507e-06
-1.16105e-05
-6.66616e-06
-1.31745e-05
-8.29018e-06
-1.45247e-05
-1.0016e-05
-1.56564e-05
-1.18239e-05
-1.65672e-05
-1.36953e-05
-1.72562e-05
-1.56118e-05
-1.77234e-05
-1.75552e-05
-1.79701e-05
-1.95076e-05
-1.8e-05
-2.14495e-05
-1.7816e-05
-2.33608e-05
-1.74073e-05
-2.52195e-05
-1.67494e-05
-1.58801e-05
-2.70069e-05
1.23845e-06
1.09359e-05
1.85712e-06
8.57077e-06
2.13248e-06
6.29388e-06
2.15924e-06
3.95821e-06
1.97316e-06
1.60686e-06
1.58885e-06
-7.06373e-07
1.01592e-06
-2.91535e-06
2.55695e-07
-4.99924e-06
-6.8498e-07
-6.94463e-06
-1.79461e-06
-8.73239e-06
-3.05721e-06
-1.03479e-05
-4.4541e-06
-1.17776e-05
-5.9646e-06
-1.30143e-05
-7.56884e-06
-1.40521e-05
-9.2477e-06
-1.48884e-05
-1.09828e-05
-1.55211e-05
-1.27563e-05
-1.59499e-05
-1.45503e-05
-1.61761e-05
-1.63465e-05
-1.62038e-05
-1.81278e-05
-1.6035e-05
-1.9873e-05
-1.56623e-05
-2.15565e-05
-1.50659e-05
-1.42639e-05
-2.31718e-05
1.76093e-06
9.17522e-06
2.76141e-06
7.57037e-06
3.32026e-06
5.73507e-06
3.55961e-06
3.71889e-06
3.53656e-06
1.62994e-06
3.28128e-06
-4.51083e-07
2.81731e-06
-2.45136e-06
2.15695e-06
-4.33886e-06
1.31458e-06
-6.10225e-06
3.08061e-07
-7.72586e-06
-8.43491e-07
-9.19635e-06
-2.12064e-06
-1.05005e-05
-3.50425e-06
-1.16307e-05
-4.97544e-06
-1.2581e-05
-6.51544e-06
-1.33484e-05
-8.1064e-06
-1.39302e-05
-9.73077e-06
-1.43256e-05
-1.13712e-05
-1.45357e-05
-1.30113e-05
-1.45638e-05
-1.46329e-05
-1.44137e-05
-1.62158e-05
-1.40796e-05
-1.77374e-05
-1.35442e-05
-1.28186e-05
-1.91819e-05
2.10458e-06
7.07055e-06
3.42137e-06
6.25361e-06
4.24824e-06
4.90823e-06
4.71055e-06
3.25661e-06
4.87399e-06
1.46652e-06
4.77807e-06
-3.55138e-07
4.45436e-06
-2.12764e-06
3.92511e-06
-3.8096e-06
3.21093e-06
-5.38805e-06
2.33199e-06
-6.84692e-06
1.30866e-06
-8.17302e-06
1.63375e-07
-9.35518e-06
-1.08293e-06
-1.03844e-05
-2.41153e-06
-1.12524e-05
-3.80519e-06
-1.19547e-05
-5.24663e-06
-1.24888e-05
-6.71883e-06
-1.28534e-05
-8.20528e-06
-1.30492e-05
-9.68935e-06
-1.30798e-05
-1.11549e-05
-1.29485e-05
-1.2583e-05
-1.26516e-05
-1.39501e-05
-1.21771e-05
-1.15173e-05
-1.52507e-05
2.2611e-06
4.80967e-06
3.80385e-06
4.71096e-06
4.85811e-06
3.85403e-06
5.53137e-06
2.58339e-06
5.88624e-06
1.11167e-06
5.96458e-06
-4.33452e-07
5.80043e-06
-1.96348e-06
5.42275e-06
-3.4319e-06
4.85665e-06
-4.82195e-06
4.12524e-06
-6.1155e-06
3.25013e-06
-7.29792e-06
2.25229e-06
-8.35735e-06
1.15238e-06
-9.2845e-06
-2.8411e-08
-1.00716e-05
-1.2712e-06
-1.0712e-05
-2.55961e-06
-1.12004e-05
-3.8781e-06
-1.15349e-05
-5.21084e-06
-1.17165e-05
-6.54277e-06
-1.1748e-05
-7.85815e-06
-1.16333e-05
-9.13862e-06
-1.13713e-05
-1.03642e-05
-1.09515e-05
-1.03616e-05
-1.15191e-05
2.2632e-06
2.54641e-06
3.93084e-06
3.04334e-06
5.15054e-06
2.63437e-06
6.00046e-06
1.73349e-06
6.531e-06
5.81152e-07
6.7799e-06
-6.82345e-07
6.77963e-06
-1.96319e-06
6.56221e-06
-3.21448e-06
6.15459e-06
-4.41433e-06
5.58112e-06
-5.54203e-06
4.86425e-06
-6.58106e-06
4.02513e-06
-7.51826e-06
3.08361e-06
-8.343e-06
2.05851e-06
-9.04658e-06
9.68575e-07
-9.62209e-06
-1.67462e-07
-1.00644e-05
-1.33309e-06
-1.03693e-05
-2.51413e-06
-1.05354e-05
-3.69638e-06
-1.05658e-05
-4.86581e-06
-1.04641e-05
-6.00637e-06
-1.02308e-05
-7.09791e-06
-9.86004e-06
-9.32977e-06
-8.12911e-06
2.16115e-06
3.85425e-07
3.85986e-06
1.34468e-06
5.17398e-06
1.32027e-06
6.14988e-06
7.57615e-07
6.82211e-06
-9.1068e-08
7.21951e-06
-1.07974e-06
7.37149e-06
-2.11517e-06
7.30937e-06
-3.15236e-06
7.05912e-06
-4.16409e-06
6.6445e-06
-5.12741e-06
6.08759e-06
-6.02417e-06
5.40905e-06
-6.83974e-06
4.62819e-06
-7.56218e-06
3.76323e-06
-8.18165e-06
2.83137e-06
-8.69026e-06
1.84894e-06
-9.08198e-06
8.32421e-07
-9.35277e-06
-2.01785e-07
-9.50124e-06
-1.2399e-06
-9.52775e-06
-2.26937e-06
-9.4349e-06
-3.27637e-06
-9.22403e-06
-4.2447e-06
-8.89168e-06
-8.42089e-06
-5.15304e-06
1.99363e-06
-1.60838e-06
3.65331e-06
-3.15056e-07
4.9964e-06
-2.28431e-08
6.04274e-06
-2.88736e-07
6.81136e-06
-8.59688e-07
7.32276e-06
-1.59114e-06
7.60279e-06
-2.39519e-06
7.67842e-06
-3.228e-06
7.57278e-06
-4.05845e-06
7.30758e-06
-4.86223e-06
6.90341e-06
-5.62001e-06
6.37964e-06
-6.316e-06
5.75451e-06
-6.93709e-06
5.04519e-06
-7.47237e-06
4.26791e-06
-7.91302e-06
3.43811e-06
-8.25222e-06
2.57062e-06
-8.48531e-06
1.67944e-06
-8.61008e-06
7.78737e-07
-8.62713e-06
-1.17326e-07
-8.53907e-06
-9.9718e-07
-8.34429e-06
-1.85391e-06
-8.03506e-06
-7.62578e-06
-2.64853e-06
1.78982e-06
-3.3982e-06
3.36393e-06
-1.88922e-06
4.68409e-06
-1.34305e-06
5.74898e-06
-1.35365e-06
6.56752e-06
-1.67825e-06
7.15389e-06
-2.17752e-06
7.53012e-06
-2.77143e-06
7.71692e-06
-3.41481e-06
7.73375e-06
-4.07529e-06
7.59957e-06
-4.72807e-06
7.33266e-06
-5.35313e-06
6.95047e-06
-5.93385e-06
6.46956e-06
-6.45621e-06
5.90564e-06
-6.90849e-06
5.27364e-06
-7.28107e-06
4.58786e-06
-7.56648e-06
3.86201e-06
-7.75949e-06
3.10932e-06
-7.85743e-06
2.34252e-06
-7.86041e-06
1.57363e-06
-7.77037e-06
8.23023e-07
-7.59385e-06
1.1993e-07
-7.33193e-06
-6.89315e-06
-6.12246e-07
1.58584e-06
-4.98428e-06
3.04255e-06
-3.34608e-06
4.29587e-06
-2.59645e-06
5.33361e-06
-2.39145e-06
6.15923e-06
-2.50391e-06
6.78292e-06
-2.80123e-06
7.22039e-06
-3.20892e-06
7.48708e-06
-3.68151e-06
7.59876e-06
-4.18699e-06
7.57131e-06
-4.70063e-06
7.42032e-06
-5.20217e-06
7.16088e-06
-5.67443e-06
6.80745e-06
-6.10282e-06
6.37392e-06
-6.475e-06
5.87362e-06
-6.78082e-06
5.31944e-06
-7.01233e-06
4.72378e-06
-7.16387e-06
4.09857e-06
-7.23225e-06
3.45549e-06
-7.21739e-06
2.80578e-06
-7.12086e-06
2.15861e-06
-6.94673e-06
1.51962e-06
-6.69301e-06
-6.29904e-06
9.25944e-07
1.41577e-06
-6.40025e-06
2.72789e-06
-4.65837e-06
3.87595e-06
-3.74462e-06
4.84848e-06
-3.36405e-06
5.64448e-06
-3.29996e-06
6.27003e-06
-3.42681e-06
6.7347e-06
-3.67362e-06
7.0497e-06
-3.99653e-06
7.2273e-06
-4.36461e-06
7.28023e-06
-4.75358e-06
7.22121e-06
-5.14317e-06
7.06273e-06
-5.51599e-06
6.81697e-06
-5.8571e-06
6.49579e-06
-6.15385e-06
6.11075e-06
-6.39582e-06
5.67314e-06
-6.57477e-06
5.19402e-06
-6.68477e-06
4.6842e-06
-6.72245e-06
4.15379e-06
-6.68705e-06
3.6127e-06
-6.5799e-06
3.07111e-06
-6.40525e-06
2.53921e-06
-6.16105e-06
-5.79563e-06
2.03615e-06
1.27159e-06
-7.67211e-06
2.42623e-06
-5.81321e-06
3.44388e-06
-4.76239e-06
4.3224e-06
-4.24265e-06
5.05968e-06
-4.03728e-06
5.65701e-06
-4.02418e-06
6.11947e-06
-4.13609e-06
6.45464e-06
-4.33171e-06
6.67151e-06
-4.58149e-06
6.77971e-06
-4.8618e-06
6.78909e-06
-5.15258e-06
6.70955e-06
-5.43647e-06
6.55094e-06
-5.69851e-06
6.32306e-06
-5.92601e-06
6.03569e-06
-6.10848e-06
5.69852e-06
-6.23763e-06
5.32115e-06
-6.30743e-06
4.91299e-06
-6.31431e-06
4.48344e-06
-6.25753e-06
4.04191e-06
-6.13849e-06
3.59673e-06
-5.96009e-06
3.15854e-06
-5.72291e-06
-5.37324e-06
2.73647e-06
1.13216e-06
-8.80464e-06
2.11832e-06
-6.79961e-06
2.99271e-06
-5.63693e-06
3.76134e-06
-5.01136e-06
4.42043e-06
-4.69643e-06
4.968e-06
-4.57178e-06
5.40593e-06
-4.57405e-06
5.73884e-06
-4.66462e-06
5.97276e-06
-4.81542e-06
6.11445e-06
-5.00351e-06
6.1711e-06
-5.20924e-06
6.15015e-06
-5.41554e-06
6.05929e-06
-5.60767e-06
5.90637e-06
-5.77313e-06
5.69946e-06
-5.90159e-06
5.44668e-06
-5.98487e-06
5.15628e-06
-6.01705e-06
4.83651e-06
-5.99456e-06
4.49544e-06
-5.91649e-06
4.14082e-06
-5.78396e-06
3.78204e-06
-5.60136e-06
3.42766e-06
-5.36843e-06
-5.03075e-06
3.08548e-06
9.69625e-07
-9.77455e-06
1.77541e-06
-7.60563e-06
2.50378e-06
-6.36546e-06
3.15853e-06
-5.66621e-06
3.73104e-06
-5.26901e-06
4.21672e-06
-5.0575e-06
4.61552e-06
-4.97288e-06
4.92991e-06
-4.97904e-06
5.1636e-06
-5.04912e-06
5.32096e-06
-5.16089e-06
5.40688e-06
-5.29519e-06
5.42672e-06
-5.4354e-06
5.38624e-06
-5.56722e-06
5.29162e-06
-5.67854e-06
5.14933e-06
-5.75933e-06
4.96611e-06
-5.80169e-06
4.74887e-06
-5.79982e-06
4.50455e-06
-5.75025e-06
4.24034e-06
-5.6523e-06
3.96363e-06
-5.50732e-06
3.68108e-06
-5.31878e-06
3.40118e-06