/*--------------------------------*- C++ -*----------------------------------*\
  =========                 |
  \\      /  F ield         | OpenFOAM: The Open Source CFD Toolbox
   \\    /   O peration     | Website:  https://openfoam.org
    \\  /    A nd           | Version:  13
     \\/     M anipulation  |
\*---------------------------------------------------------------------------*/
FoamFile
{
    format      ascii;
    class       volScalarField;
    location    "1.55";
    object      rho;
}
// * * * * * * * * * * * * * * * * * * * * * * * * * * * * * * * * * * * * * //

dimensions      [1 -3 0 0 0 0 0];

internalField   nonuniform List<scalar> 
2268
(
13529
13529
13529
13529
13529
13529
13529
13529
13529
13529
13529
13529
13529
13529
13529
13529
13529
13529
13529
13529
13528.8
13522.7
13521.6
13529
13529
13529
13529
13529
13529
13529
13529
13529
13529
13529
13529
13529
13529
13529
13529
13529
13529
13529
13529
13529
13527.1
13521.6
13529
13529
13529
13529
13529
13529
13529
13529
13529
13529
13529
13529
13529
13529
13529
13529
13529
13529
13529
13529
13529
13529
13526
13529
13529
13529
13529
13529
13529
13529
13529
13529
13529
13529
13529
13529
13529
13529
13529
13529
13529
13529
13529
13529
13529
13529
11312.1
11318.2
11469.3
11783.4
12138.7
12474.5
12785.2
13071.9
13316.8
13483.3
13529
13529
13529
13529
13529
13529
13529
13529
13529
13529
13529
13529
13529
1661.05
1927.1
2157.12
2460.64
2838.68
3288.2
3848.04
4585.04
5587.95
6968.76
8826.91
10677.2
12159.4
13179.7
13524.4
13529
13529
13529
13529
13529
13529
13529
13529
1000
1000
1000
1000
1000
1000
1000
1000
1000
1000
1000
1397.08
2637.29
4850.91
8302.08
11939.3
13529
13529
13529
13529
13529
13529
13529
1000
1000
1000
1000
1000
1000
1000
1000
1000
1000
1000
1000
1000
1000
1001.46
1815.32
5038.04
9970.49
13290.5
13528.9
13528.9
13528.8
13529
11926.4
11913.4
11913.6
10097.6
7585.04
7582.21
7905.09
8022.63
8070.22
8201.13
9148.93
9452.42
9683.41
9708.4
9695.9
9647.76
9644.73
9640.73
9638.14
11925.8
11577
11473.2
11736.8
11703.3
11540.7
11524.2
11272.8
10924.6
9489.95
7919.97
7953.19
7986.68
8066.03
7802.38
8297.77
8753.08
8771.9
7666.41
11927.5
9086.76
6149.29
7630.28
10015.8
10147.3
8547.4
6544.03
5453.9
4945.43
5079.97
4205.33
3795.48
3592.18
3909.7
3886.3
3721.93
4503.42
5410.48
11062.5
8232.7
5679.46
2899.92
3058.79
2618.45
1964.73
1755.84
1774.82
2440.8
2757.97
3001.49
2978.04
2722.64
2651.85
2524.01
2259.44
2340.44
2801.11
2856.03
2435.56
4680.11
3291.79
1041.58
1003.21
985.026
820.062
580.803
517.631
719.647
1106.9
1355.69
1784.52
1867.62
2085.36
2055.2
1664.69
1417.24
1330.96
1696.52
2404.25
2635.22
1201.62
1001.1
1001.08
1004.22
999.682
963.116
851.944
790.654
874.758
947.669
948.94
946.068
981.394
885.565
737.968
640.219
1198.48
1675.27
2023.99
1333.09
1000.98
1001.11
1005.78
1010
1006.25
998.031
977.96
982.557
1000.45
947.576
707.615
689.113
768.776
795.415
972.016
814.437
1338.44
1835.98
1771.69
1017.58
1000.67
1001.34
1002.2
1001.53
1000.98
1000.23
1000.17
1001.92
950.189
613.512
501.45
660.337
680.841
1000
1000
1000
1000
1000
1000
1000
1000
1000
1000
1000
1000
1000
1000
1000
1000
1005.22
1356.48
2699.4
4943.28
7019.82
8366.42
10064.5
1000
1000
1000
1000
1000
1000
1000
1000
1000
1000
1000
1000
1000
1000
1000
1000
1000
1000
1000
1000
1000.05
1030.4
999.978
1000
1000
998.755
999.388
999.987
1000
1000
1000
1000
1000
1000
1000
1000
1000
1000
1000
1000
1000
1000
1000
999.999
999.966
999.97
987.418
934.108
921.628
930.785
939.952
950.717
944.221
932.063
937.597
943.286
932.947
919.682
923.617
946.071
967.022
967.021
961.754
961.283
969.307
975.582
969.513
960.189
949.253
683.589
572.409
551.998
557.538
567.37
546.179
533.046
546.985
543.326
544.023
544.608
548.078
557.498
570.057
606.377
618.476
589.808
587.102
599.839
622.789
610.655
558.971
489.182
403.109
477.471
491.228
491.237
490.807
455.207
439.105
454.333
467.302
456.831
446.527
445.162
449.512
457.857
452.069
444.304
451.172
468.13
488.614
492.789
494.651
498.923
499.991
379.718
459.489
442.408
466.518
482.115
490.876
496.168
499.238
500
500
500
500
500
500
500
500
500
500
500
500
500
500
500
251.706
135.511
92.666
120.947
161.644
204.585
245.089
279.744
316.265
353.001
378.663
401.333
421.195
438.184
453.03
465.766
475.431
481.946
485.895
488.113
490.217
489.888
487.841
86.2875
39.8356
1.02871
1.00737
1.00003
1.00008
1.00021
1.00035
1.00039
3.22589
14.4942
27.2829
41.6523
56.5134
73.4604
92.7222
112.407
129.964
142.92
151.083
159.154
157.767
149.457
11.0932
14.9333
4.47026
1.0097
1.00066
1.00001
1
1.00001
1
1.0001
1.00051
1.00058
1.00011
1.00002
1.00001
1
1
1
1
1
1
1
1
1.00033
2.6245
2.57992
1.01825
1.0003
1.00002
1.00003
1.00012
1.00038
1.00071
1.00503
1.00135
1.00026
1.00004
1.00001
1.00001
1.00001
1.00004
1.00007
1.00009
1.00007
1.00004
1.00005
1.00029
1.00041
1.17925
1.00036
1.00008
1.00005
1.00007
1.00019
1.00166
1.0234
1.07841
1.02014
1.00223
1.0005
1.00025
1.00029
1.00024
1.00048
1.00044
1.00035
1.00026
1.00021
1.00011
1.00032
1.00041
1.00033
1.00035
1.00012
1.00007
1.0001
1.0002
1.00056
1.08636
1.08838
1.08438
1.00989
1.00102
1.00091
1.00196
1.00162
1.00087
1.00048
1.0003
1.00029
1.00016
1.00008
1.00044
1.00095
1.00052
1.00024
1.00007
1.00005
1.00009
1.00017
1.00298
1.08044
1.08714
1.08811
1.02111
1.00189
1.00265
1.00308
1.00305
1.00051
1.00017
1.00011
1.00008
1.00006
1.00002
1.00014
1.00036
1.00011
1.00007
1.00005
1.00005
1.00008
1.0001
1.00201
1.00811
1.07718
1.08681
1.01839
1.00303
1.00313
1.00309
1.00202
1.00019
1.00005
1.00003
1.00004
1.00003
1.00001
1.00003
1.00005
1.00006
1.00005
1.00004
1.00004
1.00004
1.00004
1.00001
1.00001
1.00014
1.01555
1.00525
1.00232
1.00239
1.00168
1.00013
1.0001
1.00004
1.00003
1.00003
1.00003
1.00001
1.00004
1.00005
1.00005
1.00005
1.00004
1.00003
1.00002
1.00001
1.00001
1.00001
1.00001
1.00001
1.00029
1.00163
1.00042
1
1.00002
1.00005
1.00004
1.00002
1.00002
1.00002
1.00001
1.00003
1.00005
1.00005
1.00005
1.00004
1.00002
1.00001
1.00001
1.00001
1.00001
1.00001
1.00002
1.0003
1.00161
1.00057
1
1.00002
1.00004
1.00003
1.00002
1.00001
1.00001
1.00001
1.00003
1.00004
1.00004
1.00005
1.00003
1.00002
1.00001
1.00001
1.00001
1.00001
1.00001
1.00004
1.00027
1.00048
1.00014
1.00002
1.00002
1.00003
1.00002
1.00001
1.00001
1.00001
1.00001
1.00002
1.00003
1.00003
1.00004
1.00003
1.00002
1.00001
1.00001
1.00001
1.00001
1.00001
1
1
1
1
1.00005
1.00002
1.00001
1.00001
1.00001
1.00001
1.00001
1
1.00002
1.00002
1.00002
1.00002
1.00003
1.00002
1.00001
1.00001
1.00001
1.00001
1.00001
1
1
1
1
1.00001
1.00001
1.00001
1
1
1
1
1
1.00001
1.00001
1.00001
1.00002
1.00002
1.00002
1.00001
1.00001
1
1
1
1
1
1
1
1
1
1
1
1
1
1
1
1.00001
1.00001
1.00001
1.00001
1.00001
1.00001
1.00001
1
1
1
1
1
1
1
1
1
1
1
1
1
1
1
1
1.00001
1.00001
1.00001
1
1
1.00001
1.00001
1
1
1
1
1
1
1
1
1
1
1
1
1
1
1
1
1.00001
1
1
1
1
1
1
1
1
1
1
1
1
1
1
1
1
1
1
1
1
1
1
1
1
1
1
1
1
1
1
1
1
1
1
1
1
1
1
1
1
1
1
1
1
1
1
1
1
1
1
1
1
1
1
1
1
1
1
1
1
1
1
1
1
1
1
1
1
1
1
1
1
1
1
1
1
1
1
1
1
1
1
1
1
1
1
1
1
1
1
1
1
1
1
1
1
1
1
1
1
1
1
1
1
1
1
1
1
1
1
1
1
1
1
1
1
1
1
1
1
1
1
1
1
1
1
1
1
1
1
1
1
1
1
1
1
1
1
1
1
1
1
1
1
1
1
1
1
1
1
1
1
1
1
1
1
1
1
1
1
1
1
1
1
1
1
1
1
1
1
1
1
1
1
1
1
1
1
1
1
1
1
1
1
1
1
1
1
1
1
1
1
1
1
1
1
1
1
1
1
1
1
1
1
1
1
1
1
1
1
1
1
1
1
1
1
1
1
1
1
1
1
1
1
1
1
1
1
1
1
1
1
1
1
1
1
1
1
1
1
1
1
1
1
1
1
1
1
1
1
1
1
1
1
1
1
1
1
1
1
1
1
1
1
1
1
1
1
1
1
1
1
1
1
1
1
1
1
1
1
1
1
1
1
1
1
1
1
1
1
1
1
1
1
1
1
1
1
1
1
1
1
1
1
1
1
1
1
1
1
1
1
1
1
1
1
1
1
1
1
1
1
1
1
1
1
1
1
1
1
1
1
1
1
1
1
1
1
1
1
1
1
1
1
1
1
1
1
1
1
1
1
1
1
1
1
1
1
1
1
1
1
1
1
1
1
1
1
1
1
1
1
1
1
1
1
1
1
1
1
1
1
1
1
1
1
1
1
1
1
1
1
1
1
1
1
1
1
1
1
1
1
1
1
1
1
1
1
1
1
1
1
1
9974
10056.9
8305.39
1710.67
998.673
992.866
993.814
999.97
997.498
950.995
939.651
974.558
851.776
704.289
608.094
630.853
424.163
383.877
462.942
496.835
500.011
500.009
500.001
500
500
500
500
500
487.631
487.573
486.888
484.275
148.424
149.605
149.784
143.44
1.00001
1
1.00002
1
1.00003
1.00002
1.00003
1.00003
1.00011
1.0001
1.00009
1.00009
1.00007
1.00005
1.00005
1.00005
1.00002
1.00002
1.00001
1.00001
1.00001
1.00001
1.00001
1.00001
1.00001
1.00001
1.00001
1.00001
1.00001
1.00001
1.00001
1.00001
1.00001
1.00001
1.00001
1.00001
1.00001
1.00001
1.00001
1
1
1
1
1
1
1
1
1
1
1
1
1
1
1
1
1
1
1
1
1
1
1
1
1
1
1
1
1
1
1
1
1
1
1
1
1
1
1
1
1
1
1
1
1
1
1
1
1
1
1
1
1
1
1
1
1
1
1
1
1
1
1
1
1
1
1
1
1
1
1
1
1
1
1
1
1
1
1
1
1
1
1
1
1
1
1
1
1
1
1
1
1
1034.9
933.771
1501.55
1749
1976.51
1258.34
1000.24
1000.29
1000.43
1000.3
999.918
999.777
1000.27
972.594
816.777
534.803
505.155
507.457
631.229
996.054
869.793
582.129
924.118
1419.23
1353.59
939.212
998.792
996.715
990.524
920.699
744.83
653.728
584.509
519.174
506.234
503.995
500.006
546.596
878.004
751.909
472.568
499.737
494.329
592.232
810.119
821.988
816.799
668.629
518.998
500.253
499.92
500.035
500.183
500.444
500.333
500.004
516.087
576.89
445.038
504.915
500.864
500.077
499.865
447.346
468.583
473.744
501.627
500.053
500.001
499.918
499.962
499.998
499.963
499.949
500.002
496.319
499.966
500
500.012
500.05
500.062
500.044
499.745
489.23
487.405
496.923
500.074
500.026
499.964
499.96
499.997
499.999
500.003
500.027
497.509
500
500
500
499.998
500.006
500.017
500.021
500.018
500.004
499.955
500.076
500.032
500.001
499.992
499.997
500.001
500.03
500.025
491.747
500
500
500
500
500
500
500
500.001
500.003
500.015
500.013
500.005
500.001
500
499.999
500.014
500.037
500.02
490.616
480.447
473.868
460.949
449.314
440.031
430.239
418.266
430.467
456.973
493.717
500
500
500
500
500.001
500.022
500.028
500.014
528.68
129.784
116.427
94.8368
77.3619
69.0075
61.26
58.7628
50.9866
64.7028
110.067
181.622
235.444
299.207
385.771
456.525
500.016
500.001
500.255
582.084
1
1
1
1
1
1.00001
1.00001
1.00004
1.00017
1.00029
1.00065
1.00108
5.10971
27.9147
71.4345
159.177
360.277
501.956
584.059
1.00003
1.00002
1.00003
1.00006
1.00018
1.00021
1.00013
1.00008
1.00009
1.0001
1.00083
1.00139
1.00117
1.00131
1.00205
1.00292
13.5285
193.344
477.483
1.00007
1.00004
1.00006
1.00023
1.0004
1.00039
1.00013
1.08423
1.39578
1.26588
1.03
1.00088
1.00082
1.071
1.04768
1.15263
1.5493
7.99005
86.1614
1.00004
1.00003
1.00009
1.00029
1.00037
1.0003
1.05395
1.51418
1.51739
1.51549
1.00036
1.00088
1.41432
2.27761
2.34348
2.17404
1.97135
1.9091
7.31639
1.00001
1.00003
1.00008
1.00015
1.00021
1.00022
1.04938
1.28031
1.37378
1.137
1.00065
1.02358
1.71295
2.24802
1.94004
1.7847
1.6175
1.00083
1.00007
1.00001
1.00002
1.00005
1.00007
1.00048
1.00086
1.00075
1.00127
1.0075
1.00067
1.00371
1.02817
1.14788
1.13781
1.0452
1.00176
1.07055
1.00042
1.00009
1.00001
1.00001
1.00001
1.00001
1.00002
1.00004
1.00007
1.00012
1.00023
1.00054
1.00135
1.00233
1.00001
1.00001
1.00001
1.00001
1.00002
1.00035
1.00014
1.00001
1
1
1
1.00001
1.00002
1.00004
1.00008
1.00013
1.00016
1.00012
1.00001
1.00001
1.00002
1.00004
1.00008
1.00015
1.00034
1.00045
1
1
1
1
1
1.00001
1.00002
1.00004
1.00007
1.00008
1.00004
1.00002
1.00002
1.00003
1.00006
1.00013
1.00028
1.00053
1.00063
1
1
1
1
1
1
1.00001
1.00001
1.00002
1.00003
1.00003
1.00002
1.00001
1.00002
1.00005
1.0001
1.00019
1.00033
1.00055
1
1
1
1
1
1
1
1
1.00001
1.00001
1.00001
1.00001
1.00001
1.00001
1.00002
1.00005
1.00009
1.00015
1.00014
1
1
1
1
1
1
1
1
1
1
1
1
1
1.00001
1.00001
1.00002
1.00003
1.00002
1.00005
1
1
1
1
1
1
1
1
1
1
1
1
1
1
1
1.00001
1.00001
1.00001
1.00001
1
1
1
1
1
1
1
1
1
1
1
1
1
1
1
1
1.00001
1.00001
1.00001
1
1
1
1
1
1
1
1
1
1
1
1
1
1
1
1
1.00001
1.00001
1.00001
1
1
1
1
1
1
1
1
1
1
1
1
1
1
1
1
1.00001
1.00001
1.00001
1
1
1
1
1
1
1
1
1
1
1
1
1
1
1
1.00001
1.00001
1.00001
1.00001
1
1
1
1
1
1
1
1
1
1
1
1
1
1
1
1.00001
1.00002
1.00003
1.00002
1
1
1
1
1
1
1
1
1
1
1
1
1
1
1
1.00001
1.00002
1.00005
1.00002
1
1
1
1
1
1
1
1
1
1
1
1
1
1
1
1.00001
1.00003
1.00005
1.00002
1
1
1
1
1
1
1
1
1
1
1
1
1
1
1
1.00001
1.00004
1.00006
1.00003
1
1
1
1
1
1
1
1
1
1
1
1
1
1
1
1.00001
1.00004
1.00006
1.00002
1
1
1
1
1
1
1
1
1
1
1
1
1
1
1
1.00002
1.00005
1.00006
1.00002
1
1
1
1
1
1
1
1
1
1
1
1
1
1
1.00001
1.00002
1.00004
1.00005
1.00001
1
1
1
1
1
1
1
1
1
1
1
1
1
1
1.00001
1.00001
1.00003
1.00002
1.00001
1
1
1
1
1
1
1
1
1
1
1
1
1
1
1.00001
1.00001
1.00001
1.00001
1
1
1
1
1
1
1
1
1
1
1
1
1
1
1
1
1.00001
1.00001
1
1
1
1
1
1
1
1
1
1
1
1
1
1
1
1
1
1
1
1
1
1
1
1
1
1
1
1
1
1
1
1
1
1
1
1
1
1
1
1
1
1
1
1
1
1
1
1
1
1
1
1
1
1
1
1
1
1
1
1
1
1
1
1
1
1
1
1
1
1
1
1
1
1
1
1
1
1
1
1
1
1
1
1
1
1
1
1
1
1
1
1
1
1
1
1
1
1
1
1
1
1
1
1
1
1
1
1
1
1
1
1
1
1
1
1
)
;

boundaryField
{
    leftWall
    {
        type            calculated;
        value           nonuniform List<scalar> 
50
(
13529
13529
13529
13529
11312.1
1661.05
1000
1000
1000
1000
1000
987.418
683.589
403.109
379.718
251.706
86.2875
11.0932
1.00033
1.00029
1.00032
1.00044
1.00014
1.00003
1.00004
1.00003
1.00003
1.00002
1.00002
1.00001
1.00001
1.00001
1.00001
1
1
1
1
1
1
1
1
1
1
1
1
1
1
1
1
1
)
;
    }
    rightWall
    {
        type            calculated;
        value           nonuniform List<scalar> 
50
(
9638.14
7666.41
5410.48
2801.11
1417.24
737.968
795.415
680.841
631.229
546.596
516.087
496.319
497.509
491.747
490.616
528.68
582.084
584.059
477.483
86.1614
7.31639
1.00007
1.00009
1.00014
1.00045
1.00063
1.00055
1.00014
1.00005
1.00001
1.00001
1.00001
1.00001
1.00001
1.00002
1.00002
1.00002
1.00003
1.00002
1.00002
1.00001
1.00001
1
1
1
1
1
1
1
1
)
;
    }
    lowerWall
    {
        type            calculated;
        value           nonuniform List<scalar> 
62
(
13529
13529
13529
13529
13529
13529
13529
13529
13529
13529
13529
13529
13529
13529
13529
13529
13529
13529
13529
13529
13528.8
13522.7
13521.6
13521.6
13521.6
13526
13529
13529
13529
13529
13529
9974
10056.9
8305.39
1710.67
11926.4
11925.8
11927.5
11062.5
2856.03
1330.96
640.219
972.016
11926.4
11913.4
11913.6
10097.6
7585.04
7582.21
7905.09
8022.63
8070.22
8201.13
9148.93
9452.42
9683.41
9708.4
9695.9
9647.76
9644.73
9640.73
9638.14
)
;
    }
    atmosphere
    {
        type            calculated;
        value           nonuniform List<scalar> 
46
(
1
1
1
1
1
1
1
1
1
1
1
1
1
1
1
1
1
1
1
1
1
1
1
1
1
1
1
1
1
1
1
1
1
1
1
1
1
1
1
1
1
1
1
1
1
1
)
;
    }
    defaultFaces
    {
        type            empty;
    }
}


// ************************************************************************* //
