/*--------------------------------*- C++ -*----------------------------------*\
  =========                 |
  \\      /  F ield         | OpenFOAM: The Open Source CFD Toolbox
   \\    /   O peration     | Website:  https://openfoam.org
    \\  /    A nd           | Version:  13
     \\/     M anipulation  |
\*---------------------------------------------------------------------------*/
FoamFile
{
    format      ascii;
    class       volVectorField;
    location    "1.55";
    object      U;
}
// * * * * * * * * * * * * * * * * * * * * * * * * * * * * * * * * * * * * * //

dimensions      [0 1 -1 0 0 0 0];

internalField   nonuniform List<vector> 
2268
(
(-0.012619 0.0044903 0)
(-0.0164591 -0.000482174 0)
(-0.0103692 -0.0028192 0)
(-0.00520393 -0.00241555 0)
(-0.0012576 -0.0017426 0)
(0.00135309 -0.00131835 0)
(0.0032971 -0.00120082 0)
(0.00503187 -0.00126855 0)
(0.0068379 -0.00142227 0)
(0.00889187 -0.00161351 0)
(0.0112755 -0.00177035 0)
(0.0138652 -0.00180886 0)
(0.0164992 -0.00176825 0)
(0.0191719 -0.00165431 0)
(0.0217648 -0.00131615 0)
(0.023704 -0.000508391 0)
(0.0234908 0.00106714 0)
(0.019467 0.00319005 0)
(0.0104852 0.00576877 0)
(-0.00451917 0.00855021 0)
(-0.0252372 0.00985337 0)
(-0.0461977 0.00342984 0)
(-0.031868 -0.0151182 0)
(-0.00521786 0.00915792 0)
(-0.00208807 -0.00112621 0)
(0.00259397 -0.00361511 0)
(0.00602415 -0.0031218 0)
(0.00873936 -0.00216503 0)
(0.0105903 -0.00144581 0)
(0.0118424 -0.00110298 0)
(0.0127425 -0.0010239 0)
(0.0134655 -0.00109657 0)
(0.0141609 -0.0012794 0)
(0.0149467 -0.00147967 0)
(0.0157656 -0.00154896 0)
(0.0165264 -0.0015763 0)
(0.0173379 -0.00162398 0)
(0.0183055 -0.00146786 0)
(0.0192177 -0.000620447 0)
(0.0190558 0.00145785 0)
(0.0166564 0.00443077 0)
(0.0112964 0.00808478 0)
(0.0022465 0.0117684 0)
(-0.00911344 0.0127061 0)
(-0.0226833 0.0039287 0)
(-0.014237 -0.0266433 0)
(0.00359868 0.00869053 0)
(0.00725092 -0.00311869 0)
(0.0105157 -0.00516787 0)
(0.0127444 -0.004426 0)
(0.014699 -0.0031581 0)
(0.0161092 -0.002141 0)
(0.0169993 -0.00155956 0)
(0.0174661 -0.00131066 0)
(0.017605 -0.00126997 0)
(0.0175282 -0.00139762 0)
(0.017347 -0.00156997 0)
(0.0170249 -0.00155987 0)
(0.0165013 -0.0015339 0)
(0.0159461 -0.00162039 0)
(0.0156082 -0.00154446 0)
(0.0155392 -0.000607914 0)
(0.0150768 0.00196566 0)
(0.0135233 0.00572742 0)
(0.0106003 0.0104165 0)
(0.00570368 0.0151431 0)
(9.26593e-05 0.0161863 0)
(-0.00825864 0.0055869 0)
(-0.00114593 -0.0314413 0)
(0.0123649 0.0044058 0)
(0.0136365 -0.00485091 0)
(0.0159095 -0.00625277 0)
(0.0173675 -0.00538896 0)
(0.0188686 -0.00396051 0)
(0.020028 -0.00271782 0)
(0.0207189 -0.0019041 0)
(0.0209435 -0.00144854 0)
(0.0207417 -0.00122884 0)
(0.0201894 -0.00121133 0)
(0.0193646 -0.00126071 0)
(0.0182135 -0.00110607 0)
(0.016697 -0.00097094 0)
(0.0150336 -0.00109284 0)
(0.0135734 -0.00117131 0)
(0.0125861 -0.000311634 0)
(0.0116941 0.00244839 0)
(0.0106217 0.00650414 0)
(0.00950865 0.0116311 0)
(0.00769049 0.0169288 0)
(0.00580553 0.0179327 0)
(0.00107835 0.00642757 0)
(0.00769161 -0.0315172 0)
(0.0171525 -0.00439364 0)
(0.0167845 -0.00672331 0)
(0.0193498 -0.00710566 0)
(0.0205582 -0.00611654 0)
(0.0218125 -0.00459308 0)
(0.0228178 -0.00320337 0)
(0.023402 -0.00221711 0)
(0.023516 -0.00158509 0)
(0.0231676 -0.00118047 0)
(0.0223911 -0.000962945 0)
(0.0211639 -0.000815255 0)
(0.0194172 -0.000401131 0)
(0.0171721 -5.91431e-05 0)
(0.0146578 -0.00011079 0)
(0.0122761 -0.000311696 0)
(0.0104394 0.000310137 0)
(0.00902716 0.00297757 0)
(0.00819744 0.00684312 0)
(0.0084696 0.0118437 0)
(0.00896726 0.0173508 0)
(0.00963643 0.0183721 0)
(0.00726002 0.0071393 0)
(0.0131576 -0.0288579 0)
(0.0152477 -0.007397 0)
(0.0174887 -0.00674656 0)
(0.0217865 -0.00700425 0)
(0.0230525 -0.00615574 0)
(0.024031 -0.0046776 0)
(0.0247705 -0.00319761 0)
(0.0251959 -0.00206547 0)
(0.0252769 -0.00129924 0)
(0.0250354 -0.000795645 0)
(0.0244403 -0.000530321 0)
(0.0231501 -0.000351138 0)
(0.0209194 0.000210393 0)
(0.0181116 0.000749408 0)
(0.0150441 0.000927036 0)
(0.0119569 0.000777342 0)
(0.00932687 0.00121224 0)
(0.00733997 0.00360444 0)
(0.00660122 0.00680166 0)
(0.00796857 0.0111611 0)
(0.0102838 0.016672 0)
(0.0129708 0.0178853 0)
(0.0124137 0.00796826 0)
(0.0173342 -0.0245788 0)
(0.020298 -0.0177412 0)
(0.0268922 -0.0105988 0)
(0.0327163 -0.00853361 0)
(0.0336392 -0.00667237 0)
(0.0331226 -0.00491437 0)
(0.0322262 -0.00323378 0)
(0.0313143 -0.00185672 0)
(0.0304302 -0.000820037 0)
(0.0295061 -1.12522e-05 0)
(0.0282559 0.000627016 0)
(0.0255871 0.00134716 0)
(0.0219709 0.002179 0)
(0.0188357 0.00258723 0)
(0.0160782 0.00247335 0)
(0.0131609 0.00185396 0)
(0.00978332 0.002106 0)
(0.0070038 0.00425163 0)
(0.00631874 0.00650317 0)
(0.00863006 0.00984708 0)
(0.012508 0.0150525 0)
(0.0173435 0.0164575 0)
(0.0190125 0.00886422 0)
(0.0234316 -0.0171932 0)
(0.0218957 -0.0312767 0)
(0.0342667 -0.0167818 0)
(0.0423272 -0.0108418 0)
(0.0444661 -0.00705738 0)
(0.0440685 -0.00458839 0)
(0.0428041 -0.00279847 0)
(0.0414826 -0.00152304 0)
(0.0404776 -0.000632581 0)
(0.0398954 0.000162508 0)
(0.03943 0.00126058 0)
(0.0384379 0.00306709 0)
(0.0358017 0.00462318 0)
(0.0310579 0.00494885 0)
(0.025278 0.00467351 0)
(0.0179376 0.00397246 0)
(0.0111129 0.00407954 0)
(0.00854361 0.00544074 0)
(0.00862304 0.00650348 0)
(0.0111153 0.00893809 0)
(0.0163657 0.0131355 0)
(0.0244451 0.0141154 0)
(0.0303483 0.0087161 0)
(0.0423854 -0.00178722 0)
(0.0445296 -0.0258949 0)
(0.138712 -0.00799193 0)
(0.14111 -0.00421002 0)
(0.149534 0.000399179 0)
(0.13904 0.00671717 0)
(0.114232 0.0112835 0)
(0.0779018 0.0169845 0)
(0.0324583 0.017902 0)
(-0.00753167 0.0138158 0)
(-0.0406965 0.0129116 0)
(-0.0712298 0.0089179 0)
(-0.0845692 0.000774625 0)
(-0.0810409 -0.00448498 0)
(-0.0680617 -0.00671919 0)
(-0.0526752 -0.0062443 0)
(-0.0348448 -0.00811777 0)
(-0.0190754 -0.00667254 0)
(-0.00526133 -0.0052213 0)
(-0.00257012 -0.00139669 0)
(0.0462763 -0.070329 0)
(0.134429 -0.0213069 0)
(0.144159 -0.00350874 0)
(0.145871 0.00426957 0)
(0.13615 0.0112101 0)
(0.117383 0.0189855 0)
(0.085241 0.0276582 0)
(0.0426652 0.0292311 0)
(0.00101624 0.0231684 0)
(-0.0284385 0.019283 0)
(-0.0469788 0.0132508 0)
(-0.056814 0.00327998 0)
(-0.056676 -0.00490671 0)
(-0.0481754 -0.00926387 0)
(-0.0339305 -0.0104838 0)
(-0.0189232 -0.0112415 0)
(-0.0108138 -0.00645257 0)
(-0.0101175 -0.00458968 0)
(-0.00945648 -0.0020639 0)
(0.0208132 -0.107021 0)
(0.105045 -0.0399315 0)
(0.134212 -0.0118573 0)
(0.157797 0.00584306 0)
(0.152307 0.0161971 0)
(0.132737 0.0265469 0)
(0.102944 0.0385075 0)
(0.0637847 0.0422255 0)
(0.0220601 0.0355002 0)
(-0.00851756 0.027885 0)
(-0.0248357 0.0172776 0)
(-0.0318192 0.00479536 0)
(-0.0327952 -0.00631002 0)
(-0.0265407 -0.012733 0)
(-0.0150235 -0.0154586 0)
(-0.00449113 -0.0147328 0)
(-0.00154878 -0.00604545 0)
(-0.00746139 -0.00347505 0)
(-0.00831025 -0.00893564 0)
(-0.00519591 -0.125712 0)
(0.0644586 -0.055829 0)
(0.102547 -0.0338418 0)
(0.16211 -0.00409968 0)
(0.178493 0.0199148 0)
(0.159636 0.0343459 0)
(0.130629 0.0513877 0)
(0.0961855 0.0587925 0)
(0.0580068 0.052003 0)
(0.0269635 0.038032 0)
(0.00659516 0.0220598 0)
(-0.00239635 0.00656711 0)
(-0.00605038 -0.00747173 0)
(-0.00123367 -0.0167908 0)
(0.00607493 -0.0198927 0)
(0.0097191 -0.0168458 0)
(0.00870063 -0.00565159 0)
(0.00350378 -0.00175584 0)
(0.01069 -0.0109568 0)
(-0.0219205 -0.133655 0)
(0.0294207 -0.0699314 0)
(0.0814922 -0.0587764 0)
(0.145156 -0.0310768 0)
(0.201329 0.0191362 0)
(0.208796 0.0481401 0)
(0.189041 0.0702894 0)
(0.165896 0.0774383 0)
(0.138193 0.0709001 0)
(0.0993581 0.0515892 0)
(0.0642105 0.0316267 0)
(0.0435098 0.0108444 0)
(0.031516 -0.00593137 0)
(0.0295379 -0.0181574 0)
(0.0302717 -0.0209995 0)
(0.0239133 -0.0154267 0)
(0.0130231 -0.00436926 0)
(0.00327146 -0.00150366 0)
(0.010381 -0.00381513 0)
(-0.0230258 -0.13517 0)
(0.0180032 -0.0960098 0)
(0.0765102 -0.0838287 0)
(0.135575 -0.0583506 0)
(0.202256 -0.00310218 0)
(0.24298 0.0477671 0)
(0.236967 0.0754033 0)
(0.221783 0.0854272 0)
(0.205435 0.082925 0)
(0.181911 0.0684493 0)
(0.152023 0.0466905 0)
(0.118013 0.0217527 0)
(0.0910535 -0.000148701 0)
(0.0741527 -0.0162328 0)
(0.0646443 -0.0182301 0)
(0.0437169 -0.00848477 0)
(0.0157488 0.00251255 0)
(-0.010072 0.00217035 0)
(-0.031297 -0.00561164 0)
(0.0450254 -0.145632 0)
(0.0479356 -0.117397 0)
(0.0961883 -0.108247 0)
(0.140159 -0.0853902 0)
(0.201225 -0.0325058 0)
(0.252822 0.0378485 0)
(0.262061 0.076135 0)
(0.255547 0.0882584 0)
(0.245185 0.0871993 0)
(0.228735 0.0760315 0)
(0.205285 0.0591133 0)
(0.175569 0.0358937 0)
(0.14594 0.011328 0)
(0.121577 -0.00785566 0)
(0.102784 -0.0102229 0)
(0.0715868 0.00664972 0)
(0.0258084 0.0186653 0)
(-0.0156391 0.0153867 0)
(-0.0483198 -0.0220788 0)
(0.20219 -0.180277 0)
(0.116815 -0.123343 0)
(0.136562 -0.120664 0)
(0.159155 -0.10291 0)
(0.203125 -0.0575645 0)
(0.24944 0.0230845 0)
(0.272326 0.0736536 0)
(0.275166 0.0901263 0)
(0.271971 0.0916104 0)
(0.2613 0.0837013 0)
(0.242015 0.0688752 0)
(0.215055 0.0481704 0)
(0.185163 0.0235973 0)
(0.156258 0.00349362 0)
(0.129236 0.00148995 0)
(0.0932014 0.0252816 0)
(0.0414809 0.0403614 0)
(-0.00538614 0.0312601 0)
(-0.0316994 -0.0361193 0)
(0.023481 -0.0507291 0)
(0.0388422 -0.0273817 0)
(0.0480328 -0.0150394 0)
(0.0515579 -0.00789757 0)
(0.0520706 -0.00391417 0)
(0.0513585 -0.00167731 0)
(0.0504224 -0.00052113 0)
(0.0499233 -5.55681e-05 0)
(0.0502355 0.000290572 0)
(0.0512971 0.00121501 0)
(0.0527406 0.00323916 0)
(0.0541024 0.00560964 0)
(0.0547408 0.00778815 0)
(0.0539651 0.0100508 0)
(0.0510445 0.0125528 0)
(0.0428431 0.0124637 0)
(0.0284049 0.00935746 0)
(0.0179052 0.00708537 0)
(0.0179856 0.00703468 0)
(0.0282835 0.00874088 0)
(0.0446516 0.00839189 0)
(0.0655229 0.004022 0)
(0.104103 -0.00948326 0)
(0.0195587 -0.082402 0)
(0.0330731 -0.0422082 0)
(0.038125 -0.0211674 0)
(0.0407983 -0.0102171 0)
(0.0424028 -0.00455344 0)
(0.0435652 -0.00165528 0)
(0.0446207 -0.00055456 0)
(0.0461502 -0.000805196 0)
(0.0486975 -0.00147976 0)
(0.0523324 -0.00146354 0)
(0.0567722 -0.000160146 0)
(0.0616725 0.00194603 0)
(0.0668387 0.00425842 0)
(0.0722988 0.00725453 0)
(0.0780875 0.0118393 0)
(0.0835256 0.0170047 0)
(0.0878622 0.0195936 0)
(0.0910235 0.0143617 0)
(0.0922282 0.00163847 0)
(0.0961557 -0.0101492 0)
(0.110253 -0.0190442 0)
(0.139285 -0.0351753 0)
(0.181471 -0.0829943 0)
(0.00847549 -0.103278 0)
(0.0166545 -0.0482758 0)
(0.0151568 -0.0232981 0)
(0.016215 -0.0122865 0)
(0.0190414 -0.00705533 0)
(0.0225567 -0.00428041 0)
(0.0261848 -0.00341927 0)
(0.0303598 -0.00448228 0)
(0.0356797 -0.00634459 0)
(0.0421668 -0.007382 0)
(0.0494509 -0.00676998 0)
(0.0572857 -0.00525728 0)
(0.0659255 -0.00379557 0)
(0.0759347 -0.00205803 0)
(0.0878852 0.000948908 0)
(0.101483 0.00521578 0)
(0.115954 0.00768716 0)
(0.131247 0.00417487 0)
(0.147539 -0.00697346 0)
(0.166241 -0.0245954 0)
(0.189562 -0.0479325 0)
(0.217596 -0.0777378 0)
(0.246722 -0.114446 0)
(-0.0118154 -0.104665 0)
(-0.0114488 -0.0464029 0)
(-0.0174251 -0.0235153 0)
(-0.016357 -0.0154238 0)
(-0.0115952 -0.0119155 0)
(-0.00561741 -0.00926515 0)
(0.00039079 -0.00849283 0)
(0.00722763 -0.0106305 0)
(0.0154774 -0.0135217 0)
(0.0245753 -0.0154007 0)
(0.0343546 -0.0153726 0)
(0.044994 -0.0147082 0)
(0.0568889 -0.0145504 0)
(0.0704195 -0.0146684 0)
(0.085944 -0.014013 0)
(0.103718 -0.0117794 0)
(0.123426 -0.0106381 0)
(0.144868 -0.0153851 0)
(0.167753 -0.0274901 0)
(0.191714 -0.0453136 0)
(0.216364 -0.0671358 0)
(0.239789 -0.0930732 0)
(0.257688 -0.12111 0)
(-0.0497278 -0.0789884 0)
(-0.054181 -0.0349254 0)
(-0.0594067 -0.0203555 0)
(-0.0568726 -0.0179756 0)
(-0.0502974 -0.0174325 0)
(-0.0421423 -0.0145307 0)
(-0.0337125 -0.0141923 0)
(-0.0242211 -0.0182056 0)
(-0.0132147 -0.0221835 0)
(-0.00118501 -0.0247628 0)
(0.0114832 -0.0255316 0)
(0.0254025 -0.0260518 0)
(0.0408263 -0.0274216 0)
(0.0577662 -0.0292304 0)
(0.0760674 -0.0305249 0)
(0.0959025 -0.0302982 0)
(0.118574 -0.0313331 0)
(0.14395 -0.0384281 0)
(0.170264 -0.0518748 0)
(0.195734 -0.0695448 0)
(0.219112 -0.0896126 0)
(0.239334 -0.11139 0)
(0.253201 -0.132735 0)
(-0.0914225 -0.0114364 0)
(-0.0868799 -0.0212204 0)
(-0.0954948 -0.019309 0)
(-0.0958858 -0.0232176 0)
(-0.0910851 -0.0263002 0)
(-0.0830186 -0.0253338 0)
(-0.0720812 -0.0269772 0)
(-0.0594299 -0.0326507 0)
(-0.0461065 -0.037715 0)
(-0.0316547 -0.040987 0)
(-0.015899 -0.0428138 0)
(0.00131359 -0.044777 0)
(0.0198758 -0.0474854 0)
(0.0395176 -0.0504159 0)
(0.0601687 -0.0527964 0)
(0.0825918 -0.0550084 0)
(0.107672 -0.0592338 0)
(0.13482 -0.0677969 0)
(0.161906 -0.0804816 0)
(0.187413 -0.0958926 0)
(0.210378 -0.112873 0)
(0.229709 -0.129707 0)
(0.245118 -0.144254 0)
(-0.0701159 0.0578607 0)
(-0.066749 0.000271958 0)
(-0.0972166 -0.0122782 0)
(-0.110156 -0.0249059 0)
(-0.110979 -0.0325201 0)
(-0.104437 -0.0360308 0)
(-0.0933748 -0.0404872 0)
(-0.0800452 -0.0468829 0)
(-0.0660738 -0.0531326 0)
(-0.0503463 -0.0585309 0)
(-0.0328636 -0.0623799 0)
(-0.0143716 -0.0660491 0)
(0.00543256 -0.0701433 0)
(0.0262373 -0.0744715 0)
(0.048255 -0.0787012 0)
(0.0721022 -0.0833312 0)
(0.097994 -0.0896113 0)
(0.125131 -0.0986364 0)
(0.152179 -0.110373 0)
(0.178048 -0.123781 0)
(0.202024 -0.137771 0)
(0.223363 -0.150834 0)
(0.241858 -0.161765 0)
(0.00136082 0.0978305 0)
(0.0313951 0.0298105 0)
(-0.0484967 0.0153933 0)
(-0.0953623 -0.0152872 0)
(-0.109625 -0.0320738 0)
(-0.107433 -0.0403639 0)
(-0.0971016 -0.0479897 0)
(-0.0841089 -0.0559687 0)
(-0.0695431 -0.0634877 0)
(-0.0541513 -0.0696929 0)
(-0.0375311 -0.074415 0)
(-0.0189474 -0.0792193 0)
(0.000802958 -0.0846021 0)
(0.0219559 -0.0901828 0)
(0.0444477 -0.0959466 0)
(0.0686453 -0.102478 0)
(0.0944738 -0.110533 0)
(0.121321 -0.120522 0)
(0.14826 -0.132065 0)
(0.174537 -0.144456 0)
(0.199653 -0.156933 0)
(0.223657 -0.168259 0)
(0.246291 -0.178949 0)
(0.0444794 0.0583452 0)
(0.131134 0.0556053 0)
(0.112144 0.0877682 0)
(-0.0113863 -0.0104613 0)
(-0.0882629 -0.0358129 0)
(-0.0990309 -0.0399056 0)
(-0.0892774 -0.0468532 0)
(-0.0757191 -0.0548134 0)
(-0.0636469 -0.0626414 0)
(-0.0496793 -0.0727481 0)
(-0.0330787 -0.0806845 0)
(-0.0160903 -0.0883666 0)
(0.00287421 -0.0956089 0)
(0.0236174 -0.102642 0)
(0.0461109 -0.10975 0)
(0.0705407 -0.117514 0)
(0.0965599 -0.126364 0)
(0.123428 -0.136441 0)
(0.150328 -0.147413 0)
(0.176656 -0.158797 0)
(0.201788 -0.170163 0)
(0.225646 -0.180018 0)
(0.247288 -0.185878 0)
(0.0697778 -0.127786 0)
(0.113161 -0.00841853 0)
(0.179944 0.207487 0)
(0.183363 0.238267 0)
(0.0891078 0.0718337 0)
(0.0337692 -0.0415724 0)
(0.0156465 -0.0888451 0)
(0.00906768 -0.102203 0)
(0.00376031 -0.113921 0)
(-0.00825089 -0.104858 0)
(-0.0172139 -0.112105 0)
(-0.0100428 -0.110606 0)
(0.00613114 -0.113419 0)
(0.0262479 -0.117028 0)
(0.0490974 -0.121563 0)
(0.0743468 -0.127263 0)
(0.101508 -0.134486 0)
(0.129527 -0.143389 0)
(0.157205 -0.15353 0)
(0.183925 -0.164267 0)
(0.208436 -0.17517 0)
(0.230277 -0.184929 0)
(0.246829 -0.193274 0)
(0.018622 -0.161276 0)
(0.00192455 -0.0814129 0)
(0.0592974 0.125364 0)
(0.0784988 0.195153 0)
(0.0804766 0.0911567 0)
(0.0636928 0.0033727 0)
(0.042029 -0.0491464 0)
(0.0280257 -0.0696867 0)
(0.0176401 -0.0658888 0)
(0.0111463 -0.0958682 0)
(0.0129732 -0.11278 0)
(0.0211579 -0.149803 0)
(0.0341439 -0.174683 0)
(0.049319 -0.19282 0)
(0.0669322 -0.209138 0)
(0.0860922 -0.22488 0)
(0.105854 -0.239154 0)
(0.125036 -0.251276 0)
(0.142394 -0.26118 0)
(0.156808 -0.268813 0)
(0.168105 -0.274091 0)
(0.172456 -0.275895 0)
(0.163068 -0.269565 0)
(-0.0185217 -0.136757 0)
(-0.0533177 -0.0784755 0)
(-0.0401553 0.0692841 0)
(0.00514092 0.135675 0)
(0.0396882 0.0834481 0)
(0.045119 0.0179777 0)
(0.0331498 -0.0298761 0)
(0.0199652 -0.0575051 0)
(0.0172347 -0.0736874 0)
(0.0229013 -0.0832273 0)
(0.0341983 -0.116593 0)
(0.0471622 -0.141906 0)
(0.0569311 -0.15927 0)
(0.0662279 -0.173296 0)
(0.0765402 -0.186317 0)
(0.0873974 -0.198431 0)
(0.0978529 -0.209064 0)
(0.107126 -0.217713 0)
(0.114478 -0.224221 0)
(0.119169 -0.22862 0)
(0.121103 -0.230836 0)
(0.117227 -0.229498 0)
(0.103824 -0.220602 0)
(-0.039165 -0.0843561 0)
(-0.0619635 -0.0375818 0)
(-0.0568355 0.0451913 0)
(-0.0227023 0.0864944 0)
(0.0128137 0.0610764 0)
(0.0255108 0.0165947 0)
(0.0246444 -0.0219588 0)
(0.0200168 -0.050153 0)
(0.0196526 -0.0725008 0)
(0.0276365 -0.0999101 0)
(0.0386579 -0.125636 0)
(0.0463606 -0.147505 0)
(0.0513999 -0.162222 0)
(0.0552921 -0.176214 0)
(0.0587636 -0.189272 0)
(0.0618523 -0.200869 0)
(0.0640589 -0.210351 0)
(0.065086 -0.217444 0)
(0.0646698 -0.222058 0)
(0.0625014 -0.224163 0)
(0.0588266 -0.22373 0)
(0.0506827 -0.220113 0)
(0.0339648 -0.212133 0)
(-0.0302681 -0.0514498 0)
(-0.0506012 -0.0130164 0)
(-0.0494776 0.0303464 0)
(-0.0269027 0.05271 0)
(-0.00165549 0.0376024 0)
(0.0123313 0.00738564 0)
(0.0172181 -0.0235496 0)
(0.0185591 -0.0510011 0)
(0.0208522 -0.0764681 0)
(0.0253693 -0.103988 0)
(0.0290434 -0.13022 0)
(0.0312779 -0.150686 0)
(0.031753 -0.164028 0)
(0.0309612 -0.177109 0)
(0.0293216 -0.189613 0)
(0.0267018 -0.200392 0)
(0.0230741 -0.208876 0)
(0.0184538 -0.214807 0)
(0.0129343 -0.218199 0)
(0.0064054 -0.218979 0)
(-0.000718445 -0.217129 0)
(-0.0110428 -0.212533 0)
(-0.0291167 -0.205396 0)
(-0.0210246 -0.0226343 0)
(-0.0360904 0.00111131 0)
(-0.0372695 0.0233532 0)
(-0.0248703 0.0316105 0)
(-0.00851654 0.0201232 0)
(0.0028578 -0.00250142 0)
(0.00893135 -0.0283194 0)
(0.0120672 -0.0540726 0)
(0.0142028 -0.0798652 0)
(0.0153309 -0.10691 0)
(0.0143265 -0.131889 0)
(0.0115039 -0.150666 0)
(0.00771654 -0.163031 0)
(0.00359627 -0.175068 0)
(-0.00160881 -0.186442 0)
(-0.00787753 -0.196126 0)
(-0.0151593 -0.20361 0)
(-0.0232256 -0.208674 0)
(-0.0319369 -0.211332 0)
(-0.0413034 -0.2115 0)
(-0.0507253 -0.209243 0)
(-0.0626168 -0.204576 0)
(-0.0814477 -0.198326 0)
(-0.0161599 -0.000952722 0)
(-0.0260933 0.011927 0)
(-0.0284008 0.0202181 0)
(-0.0223546 0.0201322 0)
(-0.0128672 0.00876766 0)
(-0.00509641 -0.0102387 0)
(-0.000246024 -0.0327599 0)
(0.00223286 -0.0565221 0)
(0.00303093 -0.0807914 0)
(0.00174257 -0.105166 0)
(-0.00232837 -0.127842 0)
(-0.00838853 -0.145645 0)
(-0.0150623 -0.157826 0)
(-0.0218067 -0.169053 0)
(-0.0292921 -0.179306 0)
(-0.0379236 -0.187955 0)
(-0.0474643 -0.194551 0)
(-0.0576776 -0.198956 0)
(-0.0683847 -0.2011 0)
(-0.0796154 -0.200969 0)
(-0.090618 -0.198638 0)
(-0.103911 -0.194279 0)
(-0.123818 -0.188636 0)
(-0.0136389 0.0147401 0)
(-0.0203991 0.0200333 0)
(-0.0235287 0.0200985 0)
(-0.0213996 0.0145134 0)
(-0.0165935 0.0021991 0)
(-0.0121076 -0.0152161 0)
(-0.00926862 -0.0355929 0)
(-0.00829187 -0.0573847 0)
(-0.00924525 -0.0796131 0)
(-0.0124702 -0.101451 0)
(-0.0181678 -0.121387 0)
(-0.0258759 -0.137687 0)
(-0.0342268 -0.150163 0)
(-0.0426624 -0.160835 0)
(-0.0518798 -0.170182 0)
(-0.0619862 -0.17789 0)
(-0.072902 -0.183723 0)
(-0.084399 -0.187528 0)
(-0.09635 -0.189256 0)
(-0.10873 -0.188909 0)
(-0.120851 -0.186589 0)
(-0.135263 -0.182404 0)
(-0.15611 -0.176986 0)
(-0.0122904 0.028703 0)
(-0.0174425 0.0270945 0)
(-0.0211468 0.021686 0)
(-0.0213586 0.0124646 0)
(-0.0195996 -0.000935236 0)
(-0.0176805 -0.0176524 0)
(-0.0167871 -0.0365417 0)
(-0.0174214 -0.0565305 0)
(-0.0198594 -0.0767453 0)
(-0.0244047 -0.0962654 0)
(-0.0311371 -0.114003 0)
(-0.0394911 -0.12902 0)
(-0.048673 -0.141064 0)
(-0.0583136 -0.151292 0)
(-0.0685775 -0.159831 0)
(-0.0796061 -0.166749 0)
(-0.0913201 -0.171895 0)
(-0.103553 -0.175167 0)
(-0.11618 -0.176519 0)
(-0.129225 -0.175978 0)
(-0.141953 -0.173616 0)
(-0.157085 -0.169462 0)
(-0.178508 -0.163989 0)
(-0.0110231 0.0410435 0)
(-0.0153864 0.0336046 0)
(-0.0194118 0.024308 0)
(-0.0209811 0.0125872 0)
(-0.0211475 -0.00172061 0)
(-0.0210826 -0.0180806 0)
(-0.0217633 -0.0358383 0)
(-0.0237319 -0.0542569 0)
(-0.0273206 -0.0726117 0)
(-0.0327359 -0.0901671 0)
(-0.0399606 -0.106115 0)
(-0.0486485 -0.119838 0)
(-0.0582399 -0.13131 0)
(-0.0684502 -0.140884 0)
(-0.0793105 -0.148757 0)
(-0.0908167 -0.154994 0)
(-0.10291 -0.159544 0)
(-0.115448 -0.16234 0)
(-0.128332 -0.163362 0)
(-0.141572 -0.162641 0)
(-0.154546 -0.160202 0)
(-0.169863 -0.155986 0)
(-0.191192 -0.150385 0)
(-0.00937361 0.0517821 0)
(-0.0130881 0.0396017 0)
(-0.0170509 0.0274424 0)
(-0.0192876 0.0139839 0)
(-0.0206015 -0.000968213 0)
(-0.0217928 -0.0170571 0)
(-0.0236169 -0.0338744 0)
(-0.0265682 -0.0509294 0)
(-0.0309426 -0.0676687 0)
(-0.0368918 -0.0835221 0)
(-0.0443751 -0.0979415 0)
(-0.0531361 -0.110531 0)
(-0.0628315 -0.121191 0)
(-0.0732414 -0.130102 0)
(-0.0842865 -0.137353 0)
(-0.0959132 -0.143004 0)
(-0.108046 -0.147038 0)
(-0.120551 -0.149427 0)
(-0.133339 -0.15017 0)
(-0.146463 -0.149293 0)
(-0.159253 -0.146777 0)
(-0.174337 -0.142504 0)
(-0.195138 -0.136835 0)
(-0.00713631 0.0605375 0)
(-0.00997074 0.0447681 0)
(-0.0134351 0.0305961 0)
(-0.0157938 0.0160114 0)
(-0.0176777 0.000713535 0)
(-0.0196402 -0.015067 0)
(-0.0222127 -0.0310362 0)
(-0.0258132 -0.0468896 0)
(-0.0306714 -0.0622268 0)
(-0.0368928 -0.0766328 0)
(-0.044435 -0.089725 0)
(-0.0531186 -0.101236 0)
(-0.0627078 -0.11108 0)
(-0.0730217 -0.119306 0)
(-0.0839519 -0.125967 0)
(-0.0954147 -0.131093 0)
(-0.107315 -0.134684 0)
(-0.11952 -0.136734 0)
(-0.131953 -0.137255 0)
(-0.144637 -0.13626 0)
(-0.157015 -0.133706 0)
(-0.171478 -0.129446 0)
(-0.191273 -0.123813 0)
(-0.00429217 0.0666459 0)
(-0.00590508 0.0486301 0)
(-0.00843441 0.0333015 0)
(-0.0104674 0.0181685 0)
(-0.0124708 0.00284876 0)
(-0.0148071 -0.0125143 0)
(-0.0177873 -0.0276635 0)
(-0.0217447 -0.0424282 0)
(-0.0268355 -0.0565309 0)
(-0.0331249 -0.0696792 0)
(-0.0405703 -0.0816101 0)
(-0.0490381 -0.0921372 0)
(-0.0583556 -0.101181 0)
(-0.0683714 -0.108745 0)
(-0.0789695 -0.114848 0)
(-0.0900511 -0.119506 0)
(-0.10151 -0.122721 0)
(-0.113214 -0.124498 0)
(-0.125083 -0.124851 0)
(-0.13717 -0.123793 0)
(-0.148873 -0.121267 0)
(-0.162496 -0.117104 0)
(-0.181187 -0.111637 0)
(-0.000958249 0.0694681 0)
(-0.00105858 0.0507231 0)
(-0.00230706 0.0351484 0)
(-0.00365334 0.0200466 0)
(-0.00541361 0.00504749 0)
(-0.00778459 -0.00974155 0)
(-0.010877 -0.0240517 0)
(-0.0149347 -0.0377962 0)
(-0.0200426 -0.0507873 0)
(-0.0262274 -0.0628225 0)
(-0.0334413 -0.0737212 0)
(-0.0415758 -0.0833516 0)
(-0.0504945 -0.0916465 0)
(-0.060066 -0.0985888 0)
(-0.0701765 -0.10418 0)
(-0.0807216 -0.108423 0)
(-0.0915907 -0.111322 0)
(-0.102653 -0.112884 0)
(-0.113834 -0.113127 0)
(-0.125151 -0.112062 0)
(-0.136105 -0.109624 0)
(-0.148734 -0.105665 0)
(-0.166089 -0.100447 0)
(0.00242808 0.0683317 0)
(0.00407466 0.0507497 0)
(0.00439235 0.0358395 0)
(0.00401851 0.021326 0)
(0.00280474 0.0069838 0)
(0.000700172 -0.00705473 0)
(-0.00224325 -0.020472 0)
(-0.00616727 -0.0332211 0)
(-0.0110979 -0.0451805 0)
(-0.0170231 -0.0562074 0)
(-0.0238834 -0.0661766 0)
(-0.0315808 -0.074991 0)
(-0.0399987 -0.0825953 0)
(-0.0490194 -0.0889646 0)
(-0.0585334 -0.0940906 0)
(-0.0684363 -0.0979701 0)
(-0.0786177 -0.100604 0)
(-0.0889489 -0.102 0)
(-0.0993533 -0.10218 0)
(-0.109867 -0.101154 0)
(-0.119966 -0.098863 0)
(-0.131563 -0.0951626 0)
(-0.147644 -0.0902823 0)
(0.00547851 0.063346 0)
(0.0088913 0.0485282 0)
(0.0109421 0.0351282 0)
(0.0117636 0.021735 0)
(0.0113551 0.0083937 0)
(0.00979542 -0.00467632 0)
(0.00723054 -0.0171348 0)
(0.00365229 -0.0288996 0)
(-0.000924805 -0.0398847 0)
(-0.00644397 -0.0499732 0)
(-0.0128353 -0.0590864 0)
(-0.02 -0.0671506 0)
(-0.0278316 -0.0741191 0)
(-0.03622 -0.0799631 0)
(-0.0450607 -0.0846681 0)
(-0.054251 -0.0882266 0)
(-0.0636826 -0.0906375 0)
(-0.0732319 -0.0919084 0)
(-0.0828283 -0.0920608 0)
(-0.0924721 -0.0911061 0)
(-0.101736 -0.0889936 0)
(-0.1123 -0.085611 0)
(-0.127016 -0.0810954 0)
(0.00779703 0.055062 0)
(0.0128483 0.0440904 0)
(0.0166386 0.032869 0)
(0.0187689 0.0210404 0)
(0.0193527 0.00899743 0)
(0.0185702 -0.00290207 0)
(0.0166195 -0.0142872 0)
(0.0135939 -0.0250153 0)
(0.00954122 -0.0350261 0)
(0.00455611 -0.0442324 0)
(-0.00126347 -0.0525564 0)
(-0.00780481 -0.0599204 0)
(-0.0149743 -0.0662953 0)
(-0.0226642 -0.071652 0)
(-0.0307742 -0.0759725 0)
(-0.0392043 -0.0792444 0)
(-0.0478495 -0.081464 0)
(-0.0565913 -0.0826384 0)
(-0.0653544 -0.0827877 0)
(-0.0741586 -0.0819262 0)
(-0.0825723 -0.0800217 0)
(-0.0921335 -0.0769638 0)
(-0.105665 -0.0728478 0)
(0.00916749 0.0443447 0)
(0.0156027 0.0377063 0)
(0.0209558 0.0290773 0)
(0.0243904 0.019137 0)
(0.0260644 0.00863197 0)
(0.0262071 -0.0019285 0)
(0.0250444 -0.0121319 0)
(0.0227385 -0.0217749 0)
(0.0193769 -0.0307961 0)
(0.0150769 -0.0391131 0)
(0.00994334 -0.046657 0)
(0.00409383 -0.0533664 0)
(-0.00235429 -0.0591911 0)
(-0.00928874 -0.0640899 0)
(-0.0166234 -0.0680496 0)
(-0.0242588 -0.0710569 0)
(-0.0320944 -0.0731058 0)
(-0.0400168 -0.0742007 0)
(-0.0479577 -0.0743602 0)
(-0.0559099 -0.0736036 0)
(-0.0635203 -0.0719038 0)
(-0.0721403 -0.06919 0)
(-0.0844375 -0.0654549 0)
(0.00960159 0.0322521 0)
(0.0170516 0.0298251 0)
(0.0236446 0.0239115 0)
(0.0282502 0.0160283 0)
(0.0310033 0.00721697 0)
(0.0321273 -0.00188024 0)
(0.0318546 -0.0108053 0)
(0.0303773 -0.019313 0)
(0.0278154 -0.0273255 0)
(0.0243054 -0.0347518 0)
(0.0199665 -0.0415185 0)
(0.0149133 -0.0475652 0)
(0.00925325 -0.0528434 0)
(0.00310147 -0.0573114 0)
(-0.00343055 -0.0609339 0)
(-0.0102467 -0.0636898 0)
(-0.0172598 -0.0655751 0)
(-0.0243609 -0.0665945 0)
(-0.0314804 -0.0667651 0)
(-0.0386247 -0.0661066 0)
(-0.0454508 -0.0646075 0)
(-0.0531768 -0.0622023 0)
(-0.0643803 -0.0588446 0)
(0.0093335 0.0197909 0)
(0.017358 0.0210033 0)
(0.024763 0.017668 0)
(0.0302906 0.0118476 0)
(0.0339951 0.00478364 0)
(0.0360509 -0.00278912 0)
(0.0366783 -0.0103737 0)
(0.0360671 -0.0177104 0)
(0.0343587 -0.0246965 0)
(0.0316967 -0.0312273 0)
(0.0282057 -0.0372186 0)
(0.0240026 -0.0426035 0)
(0.0191966 -0.0473291 0)
(0.0138918 -0.0513515 0)
(0.00818548 -0.0546337 0)
(0.00218243 -0.0571478 0)
(-0.00400989 -0.0588752 0)
(-0.0102929 -0.0598153 0)
(-0.0166122 -0.0599858 0)
(-0.0229522 -0.0594073 0)
(-0.0290308 -0.0580774 0)
(-0.0359355 -0.0559587 0)
(-0.0460057 -0.0529399 0)
(0.00865566 0.00776312 0)
(0.016827 0.0118131 0)
(0.0246048 0.0107351 0)
(0.0307309 0.00684312 0)
(0.0351624 0.00148019 0)
(0.0380026 -0.00457887 0)
(0.0394452 -0.0108143 0)
(0.0396586 -0.016977 0)
(0.03879 -0.0229353 0)
(0.0369772 -0.0285704 0)
(0.0343424 -0.0337884 0)
(0.031 -0.0385139 0)
(0.0270569 -0.0426859 0)
(0.0226136 -0.0462544 0)
(0.0177652 -0.0491803 0)
(0.0126027 -0.0514329 0)
(0.00721874 -0.0529894 0)
(0.0017206 -0.0538424 0)
(-0.00381523 -0.0540008 0)
(-0.00939205 -0.0534815 0)
(-0.0147528 -0.0522936 0)
(-0.0208653 -0.0503968 0)
(-0.0299486 -0.0477173 0)
(0.00775007 -0.00357855 0)
(0.0157499 0.00268141 0)
(0.023531 0.00349054 0)
(0.0299301 0.00131276 0)
(0.0348167 -0.00247692 0)
(0.0382305 -0.00708885 0)
(0.0403324 -0.012023 0)
(0.0412604 -0.0170472 0)
(0.0411526 -0.0220016 0)
(0.040131 -0.0267573 0)
(0.0383087 -0.0312122 0)
(0.0357931 -0.035284 0)
(0.0326846 -0.0389047 0)
(0.0290783 -0.042018 0)
(0.0250636 -0.0445784 0)
(0.0207269 -0.0465516 0)
(0.0161555 -0.0479145 0)
(0.0114427 -0.0486564 0)
(0.0066485 -0.0487784 0)
(0.00180035 -0.0482966 0)
(-0.00286471 -0.047206 0)
(-0.00829325 -0.0454988 0)
(-0.0163447 -0.0431279 0)
(0.00673626 -0.013858 0)
(0.0143525 -0.00613175 0)
(0.0218737 -0.00377556 0)
(0.0282618 -0.00446073 0)
(0.0333363 -0.00682946 0)
(0.0370974 -0.0101063 0)
(0.0396649 -0.0138399 0)
(0.0411531 -0.0177952 0)
(0.0416763 -0.0217961 0)
(0.041338 -0.0257089 0)
(0.0402383 -0.0294265 0)
(0.0384731 -0.0328613 0)
(0.0361337 -0.0359395 0)
(0.0333064 -0.0385997 0)
(0.0300737 -0.0407921 0)
(0.026515 -0.0424774 0)
(0.0227111 -0.043629 0)
(0.0187477 -0.0442337 0)
(0.0146842 -0.044294 0)
(0.010547 -0.0438212 0)
(0.00653463 -0.0428286 0)
(0.00172169 -0.041297 0)
(-0.00540681 -0.0390245 0)
(0.00578026 -0.0230276 0)
(0.0128829 -0.0143804 0)
(0.0199273 -0.0107878 0)
(0.0260623 -0.0101973 0)
(0.0310869 -0.0113185 0)
(0.0349776 -0.0134145 0)
(0.0378124 -0.0160786 0)
(0.0396846 -0.0190586 0)
(0.0406809 -0.0221789 0)
(0.040887 -0.0253051 0)
(0.0403879 -0.0283281 0)
(0.0392661 -0.0311563 0)
(0.0376006 -0.0337121 0)
(0.0354678 -0.0359303 0)
(0.0329406 -0.0377571 0)
(0.0300904 -0.0391508 0)
(0.0269902 -0.0400815 0)
(0.023718 -0.0405333 0)
(0.0203248 -0.0405062 0)
(0.0168342 -0.0400093 0)
(0.0134341 -0.039075 0)
(0.00935854 -0.0376881 0)
(0.0031797 -0.0354574 0)
(0.00505066 -0.0310186 0)
(0.0115405 -0.0218443 0)
(0.0179142 -0.0172931 0)
(0.0235915 -0.0156504 0)
(0.0283663 -0.0157229 0)
(0.0321864 -0.0168215 0)
(0.0351041 -0.0185497 0)
(0.0371835 -0.0206636 0)
(0.0384903 -0.0229931 0)
(0.0390927 -0.0254055 0)
(0.0390594 -0.0277911 0)
(0.0384584 -0.0300565 0)
(0.0373557 -0.0321215 0)
(0.0358159 -0.0339184 0)
(0.033902 -0.0353913 0)
(0.0316761 -0.0364963 0)
(0.0292029 -0.0372019 0)
(0.026551 -0.03749 0)
(0.0237703 -0.0373581 0)
(0.0208748 -0.0368132 0)
(0.0180272 -0.0358782 0)
(0.0146504 -0.0345457 0)
(0.0093279 -0.0324993 0)
(0.00450897 -0.0381804 0)
(0.0103235 -0.0284607 0)
(0.0159037 -0.0231265 0)
(0.0209804 -0.020653 0)
(0.0253474 -0.0198817 0)
(0.028938 -0.0201485 0)
(0.0317783 -0.0210804 0)
(0.0339098 -0.0224476 0)
(0.0353798 -0.024087 0)
(0.0362393 -0.0258693 0)
(0.0365413 -0.0276855 0)
(0.0363388 -0.0294417 0)
(0.0356847 -0.0310569 0)
(0.0346319 -0.0324623 0)
(0.0332329 -0.0336011 0)
(0.031541 -0.0344287 0)
(0.0296117 -0.0349123 0)
(0.0275058 -0.0350331 0)
(0.0252645 -0.0347866 0)
(0.0229075 -0.0341805 0)
(0.0205852 -0.0332324 0)
(0.0177782 -0.0319415 0)
(0.0133116 -0.0300229 0)
(0.00408707 -0.0446451 0)
(0.00909102 -0.0342324 0)
(0.0138247 -0.0282313 0)
(0.0182278 -0.025104 0)
(0.0220915 -0.0236636 0)
(0.0253413 -0.0232571 0)
(0.0279852 -0.0235327 0)
(0.030048 -0.0242749 0)
(0.0315608 -0.0253291 0)
(0.0325592 -0.0265699 0)
(0.033081 -0.0278902 0)
(0.0331655 -0.0291968 0)
(0.0328533 -0.0304094 0)
(0.032186 -0.0314597 0)
(0.0312067 -0.0322913 0)
(0.0299593 -0.0328595 0)
(0.0284915 -0.0331317 0)
(0.026855 -0.0330886 0)
(0.0250881 -0.0327254 0)
(0.0232051 -0.0320492 0)
(0.0213302 -0.0310799 0)
(0.019065 -0.0298164 0)
(0.0153402 -0.0279725 0)
(0.00360336 -0.0503402 0)
(0.00767595 -0.0390742 0)
(0.0115492 -0.0325546 0)
(0.0152677 -0.0289465 0)
(0.0185946 -0.026996 0)
(0.0214469 -0.0260606 0)
(0.0238212 -0.02581 0)
(0.0257312 -0.0260439 0)
(0.0271962 -0.026615 0)
(0.0282387 -0.0274021 0)
(0.0288838 -0.0283006 0)
(0.029159 -0.0292196 0)