/*--------------------------------*- C++ -*----------------------------------*\
  =========                 |
  \\      /  F ield         | OpenFOAM: The Open Source CFD Toolbox
   \\    /   O peration     | Website:  https://openfoam.org
    \\  /    A nd           | Version:  13
     \\/     M anipulation  |
\*---------------------------------------------------------------------------*/
FoamFile
{
    format      ascii;
    class       volScalarField;
    location    "300";
    object      nut;
}
// * * * * * * * * * * * * * * * * * * * * * * * * * * * * * * * * * * * * * //

dimensions      [0 2 -1 0 0 0 0];

internalField   nonuniform List<scalar> 
10720
(
0.0918098
0.0963369
0.101424
0.106941
0.113207
0.120228
0.128146
0.136818
0.1462
0.155957
0.165614
0.174747
0.182536
0.188537
0.192674
0.195122
0.196087
0.195848
0.194528
0.192318
0.189201
0.185257
0.180527
0.175233
0.169779
0.164442
0.159219
0.153972
0.148606
0.143117
0.137502
0.131731
0.12577
0.119575
0.112973
0.105856
0.0971552
0.0874732
0.0650841
0.0874735
0.0827854
0.0776696
0.0713461
0.0637846
0.0543442
0.0430505
0.0369928
0.0346884
0.0393046
0.0460806
0.0517558
0.0565493
0.0609513
0.065234
0.0694831
0.0736779
0.0777622
0.0816816
0.0854209
0.0889936
0.0924274
0.0957516
0.0989644
0.101878
0.10427
0.106117
0.107467
0.108379
0.108878
0.109025
0.108949
0.10865
0.108069
0.107116
0.105775
0.103593
0.10103
0.0912349
0.100288
0.0998794
0.0991839
0.0982227
0.0971919
0.0960199
0.0947883
0.0936078
0.0925984
0.0926789
0.0938096
0.0957217
0.0984998
0.102241
0.106936
0.112428
0.118635
0.125303
0.132281
0.139215
0.145971
0.152122
0.157361
0.161086
0.162828
0.162688
0.16109
0.158365
0.154843
0.150783
0.14638
0.141771
0.137059
0.132341
0.12772
0.123332
0.119343
0.116294
0.110539
0.100706
0.100804
0.10105
0.100812
0.100335
0.0995374
0.0981739
0.0958917
0.0929704
0.089323
0.085249
0.0811053
0.0770316
0.0730671
0.0693482
0.0659391
0.0628924
0.0602296
0.0579669
0.0560906
0.05459
0.0534438
0.0526278
0.0521047
0.0518481
0.0518189
0.0519512
0.0521777
0.0524436
0.0529186
0.0546223
0.0575633
0.061022
0.0643723
0.0672966
0.0698519
0.0719939
0.0759171
0.0792734
0.121575
0.121409
0.121034
0.120452
0.119777
0.118902
0.117825
0.116605
0.115191
0.113614
0.111936
0.110313
0.108886
0.107753
0.106909
0.106196
0.105639
0.105283
0.105063
0.104438
0.104343
0.104953
0.106461
0.108073
0.113624
0.12049
0.127211
0.133102
0.137898
0.141507
0.143963
0.145391
0.145974
0.1459
0.145353
0.144418
0.143392
0.141496
0.140554
0.121735
0.121678
0.121666
0.121398
0.120937
0.120252
0.119269
0.117953
0.116301
0.11429
0.111917
0.109249
0.106329
0.103173
0.0998745
0.0964773
0.0930444
0.0896214
0.0862613
0.0829782
0.0798004
0.0767248
0.0737619
0.0708195
0.067849
0.0649127
0.0620511
0.0593056
0.0567053
0.0542923
0.052068
0.050678
0.0507975
0.0520649
0.0539975
0.0564046
0.0591488
0.0622654
0.0672903
0.128697
0.128592
0.128388
0.128079
0.127705
0.127225
0.12663
0.125944
0.125132
0.124205
0.123158
0.121982
0.120675
0.119247
0.117737
0.116099
0.114239
0.112195
0.109966
0.10753
0.104952
0.102418
0.100131
0.0980989
0.0968874
0.0967598
0.0975862
0.101301
0.107225
0.114083
0.121182
0.128086
0.134494
0.140251
0.145354
0.149843
0.154017
0.157022
0.159634
0.128773
0.128764
0.128748
0.128606
0.128369
0.128004
0.127473
0.126751
0.125832
0.124696
0.123339
0.121774
0.120005
0.118023
0.115861
0.113531
0.111061
0.108478
0.105816
0.103092
0.100334
0.0975501
0.0947374
0.0918124
0.0887105
0.0854779
0.0821446
0.0787472
0.0753184
0.0718923
0.0684913
0.0651532
0.0620051
0.0592227
0.056742
0.0558828
0.0564787
0.0575435
0.0606823
0.132287
0.132219
0.132083
0.131886
0.131649
0.131343
0.130967
0.13053
0.130015
0.129423
0.128752
0.12799
0.127132
0.126169
0.125087
0.123878
0.122511
0.120953
0.119159
0.11711
0.114767
0.112142
0.109272
0.106267
0.103281
0.100816
0.0987188
0.0967547
0.0957891
0.0959591
0.0992252
0.105026
0.112358
0.120744
0.129798
0.139253
0.149066
0.15919
0.168379
0.132336
0.132327
0.132316
0.132222
0.132072
0.131836
0.131493
0.131036
0.130462
0.129761
0.128928
0.127965
0.12687
0.125631
0.12426
0.122752
0.121116
0.119357
0.11749
0.11552
0.113459
0.111309
0.109062
0.106651
0.104017
0.101183
0.0981659
0.094985
0.0916618
0.0882192
0.0846819
0.0810714
0.0774115
0.0737467
0.0700842
0.0665558
0.0634337
0.0604358
0.059611
0.134341
0.134292
0.134203
0.134071
0.133908
0.133698
0.133443
0.133144
0.132793
0.132389
0.13193
0.131408
0.130819
0.130155
0.129404
0.128557
0.127597
0.126507
0.125252
0.123808
0.12213
0.120188
0.117945
0.115411
0.112674
0.109842
0.106977
0.104021
0.101175
0.0986082
0.0965463
0.0957719
0.0966227
0.101628
0.109444
0.11984
0.13265
0.148939
0.166832
0.134371
0.134364
0.134354
0.134288
0.134186
0.134023
0.133784
0.13347
0.133081
0.132612
0.132057
0.13142
0.130699
0.129883
0.128978
0.127977
0.126881
0.125689
0.124405
0.123027
0.121558
0.119993
0.11832
0.116487
0.114441
0.112186
0.109722
0.107054
0.104189
0.101134
0.0979037
0.0945127
0.0909751
0.0873068
0.0835187
0.0795682
0.0754824
0.0708622
0.0646056
0.135653
0.135618
0.135553
0.135456
0.135339
0.135187
0.135003
0.134788
0.134536
0.134247
0.133919
0.133545
0.133124
0.132648
0.132108
0.131499
0.130805
0.130016
0.129109
0.128067
0.126858
0.125459
0.123838
0.121975
0.119896
0.117606
0.115101
0.11239
0.109489
0.106458
0.103296
0.10033
0.0975947
0.0961867
0.0968917
0.10267
0.113074
0.130688
0.156081
0.135673
0.135666
0.135655
0.135606
0.135532
0.135412
0.135236
0.135007
0.134726
0.134391
0.133999
0.133553
0.13305
0.132485
0.131858
0.131165
0.130404
0.129573
0.128672
0.127697
0.126648
0.125516
0.12429
0.12293
0.121391
0.119668
0.117752
0.115636
0.113315
0.110784
0.108042
0.105094
0.101941
0.098588
0.0950343
0.0912363
0.0870998
0.0825057
0.0737904
0.136553
0.136527
0.136478
0.136406
0.136317
0.136203
0.136064
0.135902
0.135713
0.135496
0.135251
0.134972
0.134656
0.1343
0.133896
0.133438
0.132917
0.132324
0.131643
0.130861
0.129958
0.128919
0.127722
0.126351
0.124811
0.123093
0.121164
0.119006
0.116593
0.113922
0.110985
0.107832
0.104471
0.101129
0.0981038
0.0966845
0.100112
0.112038
0.139411
0.136567
0.13656
0.136549
0.136509
0.136453
0.136362
0.136226
0.136051
0.135839
0.135589
0.135299
0.134972
0.134606
0.134197
0.133746
0.133247
0.132699
0.1321
0.131449
0.130741
0.129975
0.129143
0.128235
0.12722
0.126065
0.124761
0.123296
0.121657
0.119833
0.117811
0.115581
0.113136
0.110467
0.107566
0.10442
0.100989
0.0971143
0.0929252
0.0839287
0.137205
0.137184
0.137146
0.13709
0.13702
0.136931
0.136822
0.136697
0.136551
0.136384
0.136195
0.135981
0.13574
0.135468
0.13516
0.134811
0.134414
0.133962
0.133443
0.132847
0.132157
0.131361
0.130443
0.129396
0.128223
0.126914
0.125439
0.123769
0.121879
0.119738
0.117316
0.114584
0.111531
0.108155
0.104469
0.10064
0.0978393
0.100354
0.122244
0.137215
0.137207
0.137196
0.137162
0.137119
0.137046
0.136939
0.1368
0.136634
0.136441
0.136219
0.13597
0.135694
0.135388
0.135052
0.134682
0.134276
0.133832
0.133348
0.13282
0.132247
0.131623
0.130937
0.130168
0.12929
0.128294
0.12717
0.125905
0.124484
0.122893
0.121116
0.119139
0.116948
0.114525
0.111846
0.108874
0.105415
0.101709
0.093335
0.137696
0.137679
0.137649
0.137603
0.137546
0.137474
0.137388
0.137287
0.137171
0.137039
0.136889
0.13672
0.13653
0.136316
0.136073
0.135799
0.135487
0.135131
0.134724
0.134259
0.133722
0.133104
0.132393
0.13158
0.130669
0.129651
0.128503
0.127202
0.125723
0.124034
0.1221
0.119886
0.117346
0.114422
0.111072
0.10712
0.102826
0.0979443
0.109717
0.137703
0.137695
0.137683
0.137654
0.137619
0.13756
0.137473
0.13736
0.137227
0.137073
0.136898
0.136704
0.136489
0.136254
0.135996
0.135714
0.135405
0.135068
0.1347
0.134299
0.133862
0.133383
0.132855
0.132262
0.131583
0.130812
0.12994
0.128954
0.127842
0.12659
0.125182
0.123601
0.121829
0.119846
0.11762
0.115115
0.112131
0.108932
0.101505
0.138077
0.138063
0.138037
0.137999
0.137953
0.137894
0.137822
0.137741
0.137646
0.137539
0.137418
0.137283
0.13713
0.136958
0.136765
0.136546
0.136298
0.136015
0.135692
0.135322
0.134895
0.134404
0.13384
0.133197
0.132477
0.131671
0.130762
0.129732
0.12856
0.12722
0.12568
0.123902
0.121841
0.119435
0.116613
0.113154
0.109108
0.102595
0.104401
0.138083
0.138075
0.138063
0.138036
0.138007
0.137959
0.137886
0.137792
0.137683
0.137558
0.137417
0.137261
0.137091
0.136905
0.136703
0.136483
0.136243
0.135982
0.135697
0.135385
0.135045
0.134672
0.13426
0.133794
0.133262
0.132656
0.131969
0.131192
0.130313
0.12932
0.1282
0.126935
0.125509
0.123899
0.122073
0.119997
0.117478
0.114775
0.108384
0.138381
0.138368
0.138346
0.138314
0.138275
0.138225
0.138166
0.138098
0.138019
0.137931
0.137832
0.13772
0.137595
0.137455
0.137297
0.137119
0.136917
0.136688
0.136426
0.136127
0.135783
0.135388
0.134936
0.134421
0.133844
0.133198
0.132468
0.131641
0.1307
0.129623
0.128385
0.126954
0.125288
0.123328
0.121005
0.118114
0.114657
0.10891
0.104394
0.138385
0.138378
0.138365
0.138341
0.138316
0.138276
0.138214
0.138135
0.138044
0.13794
0.137824
0.137697
0.137559
0.137409
0.137248
0.137073
0.136883
0.136677
0.136452
0.136206
0.135938
0.135643
0.135315
0.134945
0.134521
0.134038
0.133491
0.13287
0.132168
0.131373
0.130474
0.129457
0.128305
0.126998
0.125507
0.123799
0.121701
0.119452
0.114071
0.138627
0.138616
0.138597
0.138569
0.138536
0.138493
0.138442
0.138385
0.138319
0.138245
0.138162
0.13807
0.137966
0.13785
0.137719
0.137573
0.137406
0.137218
0.137003
0.136758
0.136476
0.136154
0.135785
0.135367
0.134899
0.134375
0.133783
0.133111
0.132346
0.131471
0.130465
0.129302
0.127947
0.12635
0.124448
0.122067
0.119161
0.114578
0.107667
0.138631
0.138624
0.138612
0.138589
0.138568
0.138533
0.138479
0.138412
0.138335
0.138247
0.13815
0.138045
0.137931
0.137809
0.137678
0.137537
0.137384
0.137219
0.137039
0.136842
0.136627
0.13639
0.136127
0.135828
0.135487
0.135098
0.134656
0.134155
0.133588
0.132945
0.132217
0.131392
0.130455
0.12939
0.12817
0.126767
0.125029
0.123168
0.118709
0.13883
0.13882
0.138803
0.138779
0.13875
0.138713
0.138669
0.13862
0.138564
0.138501
0.138432
0.138353
0.138266
0.138169
0.13806
0.137937
0.137798
0.137641
0.137462
0.137259
0.137026
0.136759
0.136456
0.136112
0.135728
0.135299
0.134813
0.134263
0.133635
0.132917
0.132091
0.131136
0.130025
0.128714
0.127151
0.125202
0.122746
0.119246
0.112113
0.138835
0.138828
0.138816
0.138794
0.138775
0.138745
0.138699
0.13864
0.138574
0.138499
0.138417
0.138328
0.138233
0.138132
0.138024
0.137908
0.137784
0.13765
0.137504
0.137345
0.13717
0.136978
0.136764
0.136521
0.136242
0.135925
0.135566
0.135157
0.134694
0.134169
0.133574
0.132899
0.132132
0.131259
0.130255
0.129099
0.127659
0.126121
0.122463
0.139001
0.138991
0.138976
0.138955
0.138929
0.138896
0.138859
0.138816
0.138768
0.138714
0.138654
0.138588
0.138514
0.138431
0.138339
0.138235
0.138118
0.137986
0.137836
0.137665
0.13747
0.137248
0.136995
0.136709
0.136391
0.136035
0.135634
0.135178
0.134659
0.134065
0.133382
0.132591
0.131671
0.130587
0.129293
0.127693
0.125617
0.122933
0.116529
0.139005
0.138999
0.138987
0.138966
0.138949
0.138922
0.138882
0.138831
0.138773
0.138708
0.138638
0.138563
0.138482
0.138397
0.138307
0.138212
0.138109
0.137998
0.137879
0.137748
0.137606
0.137448
0.137272
0.137072
0.136843
0.136582
0.136287
0.135951
0.13557
0.135137
0.134647
0.13409
0.133457
0.132735
0.131905
0.130947
0.129753
0.128475
0.125489
0.139145
0.139136
0.139122
0.139103
0.13908
0.139051
0.139018
0.138981
0.138939
0.138893
0.138841
0.138784
0.138721
0.13865
0.138571
0.138483
0.138383
0.138271
0.138143
0.137999
0.137834
0.137647
0.137434
0.137195
0.136929
0.136632
0.136296
0.135916
0.135483
0.134988
0.134418
0.13376
0.132993
0.132089
0.131009
0.129686
0.127935
0.125822
0.120422
0.139149
0.139144
0.139132
0.139113
0.139097
0.139073
0.139037
0.138992
0.138941
0.138885
0.138824
0.138759
0.138691
0.138619
0.138543
0.138463
0.138377
0.138285
0.138186
0.138078
0.13796
0.13783
0.137684
0.137518
0.137328
0.137112
0.136866
0.136588
0.136272
0.135913
0.135506
0.135043
0.134517
0.133917
0.133226
0.132428
0.131433
0.130366
0.127932
0.139268
0.13926
0.139247
0.13923
0.139209
0.139184
0.139154
0.139122
0.139085
0.139045
0.139
0.138951
0.138896
0.138835
0.138767
0.138691
0.138605
0.138509
0.1384
0.138277
0.138136
0.137977
0.137797
0.137595
0.137371
0.137121
0.136839
0.136519
0.136155
0.135739
0.135261
0.134709
0.134065
0.133308
0.132401
0.131297
0.129822
0.12811
0.123678
0.139273
0.139268
0.139257
0.139238
0.139224
0.139202
0.13917
0.13913
0.139085
0.139035
0.138982
0.138926
0.138867
0.138805
0.138741
0.138673
0.138601
0.138524
0.138441
0.138351
0.138253
0.138144
0.138022
0.137884
0.137725
0.137544
0.137339
0.137106
0.136842
0.136543
0.136203
0.135816
0.135376
0.134873
0.134295
0.133626
0.132793
0.131898
0.129911
0.139375
0.139367
0.139355
0.139339
0.13932
0.139298
0.139272
0.139243
0.139211
0.139176
0.139136
0.139093
0.139045
0.138992
0.138933
0.138867
0.138793
0.13871
0.138616
0.13851
0.13839
0.138254
0.1381
0.137928
0.137738
0.137526
0.137287
0.137016
0.136709
0.136357
0.135953
0.135487
0.134944
0.134306
0.133541
0.132614
0.13137
0.12995
0.126345
0.13938
0.139376
0.139365
0.139347
0.139333
0.139313
0.139284
0.139249
0.139209
0.139165
0.139118
0.139069
0.139018
0.138964
0.138909
0.138851
0.13879
0.138725
0.138656
0.13858
0.138497
0.138406
0.138303
0.138187
0.138053
0.137901
0.137728
0.137533
0.137311
0.137059
0.136773
0.136448
0.136078
0.135655
0.135167
0.134604
0.133904
0.133149
0.131523
0.139468
0.139461
0.139449
0.139434
0.139417
0.139397
0.139374
0.139349
0.13932
0.139289
0.139254
0.139216
0.139174
0.139128
0.139076
0.139019
0.138954
0.138882
0.138801
0.138709
0.138605
0.138488
0.138356
0.138209
0.138046
0.137865
0.137662
0.137431
0.137169
0.136871
0.136528
0.136132
0.135671
0.13513
0.134483
0.133699
0.132649
0.131454
0.12852
0.139473
0.139469
0.139459
0.139442
0.139429
0.13941
0.139384
0.139352
0.139316
0.139277
0.139236
0.139193
0.139148
0.139101
0.139054
0.139004
0.138952
0.138897
0.138837
0.138773
0.138703
0.138626
0.138539
0.13844
0.138327
0.138198
0.138052
0.137887
0.137699
0.137487
0.137245
0.13697
0.136657
0.136299
0.135887
0.13541
0.134819
0.134179
0.132845
0.13955
0.139542
0.139531
0.139517
0.139502
0.139484
0.139464
0.139441
0.139415
0.139388
0.139357
0.139323
0.139286
0.139245
0.1392
0.13915
0.139093
0.13903
0.138959
0.138879
0.138789
0.138688
0.138574
0.138447
0.138307
0.138152
0.137977
0.13778
0.137556
0.137301
0.137008
0.13667
0.136278
0.135817
0.135266
0.1346
0.133713
0.132698
0.1303
0.139554
0.139551
0.139542
0.139525
0.139512
0.139495
0.139472
0.139443
0.139411
0.139376
0.139339
0.1393
0.139261
0.13922
0.139179
0.139136
0.139091
0.139044
0.138993
0.138938
0.138879
0.138813
0.138739
0.138655
0.138558
0.138448
0.138324
0.138184
0.138024
0.137844
0.137638
0.137405
0.137139
0.136835
0.136485
0.136079
0.135579
0.135033
0.133935
0.139622
0.139614
0.139603
0.139591
0.139577
0.139561
0.139542
0.139522
0.139499
0.139474
0.139447
0.139417
0.139384
0.139348
0.139309
0.139264
0.139215
0.13916
0.139097
0.139027
0.138949
0.13886
0.138761
0.138651
0.138531
0.138397
0.138246
0.138076
0.137884
0.137664
0.137413
0.137124
0.136788
0.136394
0.135923
0.135355
0.134603
0.133736
0.131778
0.139626
0.139624
0.139615
0.139598
0.139586
0.139571
0.139549
0.139523
0.139494
0.139462
0.139429
0.139395
0.13936
0.139324
0.139288
0.139251
0.139212
0.139171
0.139127
0.13908
0.139029
0.138973
0.138909
0.138837
0.138754
0.138661
0.138554
0.138434
0.138298
0.138144
0.137969
0.13777
0.137543
0.137284
0.136985
0.136639
0.136213
0.135747
0.13484
0.139685
0.139678
0.139667
0.139656
0.139644
0.139629
0.139612
0.139594
0.139573
0.139551
0.139527
0.1395
0.139471
0.13944
0.139404
0.139365
0.139322
0.139273
0.139218
0.139157
0.139088
0.13901
0.138924
0.138828
0.138724
0.138608
0.138477
0.13833
0.138164
0.137974
0.137758
0.137508
0.137219
0.136881
0.136477
0.13599
0.135351
0.134605
0.13303
0.13969
0.139688
0.13968
0.139664
0.139652
0.139637
0.139617
0.139593
0.139567
0.139539
0.139509
0.139478
0.139447
0.139416
0.139384
0.139351
0.139317
0.139282
0.139244
0.139203
0.139159
0.139111
0.139056
0.138994
0.138923
0.138842
0.138751
0.138648
0.138531
0.138399
0.138249
0.138079
0.137885
0.137663
0.137407
0.13711
0.136746
0.136346
0.135595
0.139742
0.139735
0.139725
0.139714
0.139703
0.139689
0.139674
0.139658
0.139639
0.13962
0.139598
0.139575
0.139549
0.139521
0.13949
0.139455
0.139417
0.139374
0.139326
0.139272
0.139211
0.139143
0.139067
0.138983
0.138892
0.138791
0.138677
0.138549
0.138405
0.138241
0.138053
0.137837
0.137588
0.137295
0.136948
0.136529
0.135985
0.135336
0.134082
0.139747
0.139746
0.139737
0.139722
0.13971
0.139697
0.139678
0.139656
0.139633
0.139607
0.13958
0.139552
0.139525
0.139497
0.139468
0.13944
0.13941
0.139379
0.139346
0.139311
0.139272
0.13923
0.139183
0.139129
0.139068
0.138998
0.138919
0.13883
0.13873
0.138617
0.138488
0.138341
0.138175
0.137984
0.137764
0.13751
0.137198
0.136854
0.136228
0.139793
0.139786
0.139776
0.139767
0.139756
0.139744
0.13973
0.139715
0.139699
0.139681
0.139662
0.139642
0.139619
0.139594
0.139567
0.139536
0.139502
0.139464
0.139421
0.139374
0.13932
0.13926
0.139193
0.139119
0.139039
0.138951
0.138852
0.13874
0.138614
0.138471
0.138308
0.138121
0.137904
0.137651
0.137351
0.136989
0.136525
0.135958
0.134956
0.139797
0.139797
0.139789
0.139774
0.139763
0.13975
0.139733
0.139713
0.139691
0.139668
0.139643
0.139618
0.139593
0.139568
0.139543
0.139518
0.139491
0.139464
0.139435
0.139405
0.139371
0.139335
0.139294
0.139247
0.139193
0.139133
0.139065
0.138988
0.138901
0.138803
0.138692
0.138566
0.138422
0.138258
0.138069
0.13785
0.137582
0.137285
0.136761
0.139838
0.139831
0.139822
0.139813
0.139804
0.139792
0.13978
0.139767
0.139753
0.139737
0.139721
0.139703
0.139683
0.139661
0.139636
0.139609
0.139579
0.139545
0.139507
0.139465
0.139417
0.139364
0.139305
0.13924
0.13917
0.139092
0.139005
0.138907
0.138797
0.138672
0.13853
0.138366
0.138178
0.137958
0.137697
0.137384
0.136986
0.13649
0.135681
0.139843
0.139843
0.139836
0.139821
0.13981
0.139798
0.139782
0.139764
0.139744
0.139722
0.1397
0.139677
0.139655
0.139632
0.13961
0.139587
0.139564
0.13954
0.139514
0.139487
0.139458
0.139426
0.139391
0.13935
0.139303
0.13925
0.139191
0.139125
0.139049
0.138965
0.138869
0.138759
0.138635
0.138494
0.13833
0.138141
0.13791
0.137653
0.137213
0.139879
0.139872
0.139864
0.139856
0.139847
0.139836
0.139825
0.139814
0.139802
0.139788
0.139774
0.139758
0.139741
0.139721
0.1397
0.139676
0.139649
0.139619
0.139585
0.139547
0.139504
0.139457
0.139405
0.139348
0.139286
0.139217
0.139141
0.139055
0.138958
0.138848
0.138723
0.138581
0.138416
0.138224
0.137998
0.137725
0.137383
0.13695
0.136288
0.139884
0.139885
0.139878
0.139863
0.139852
0.139841
0.139826
0.139809
0.139791
0.139771
0.139751
0.13973
0.139709
0.139689
0.139669
0.139649
0.139628
0.139607
0.139584
0.139561
0.139535
0.139507
0.139476
0.13944
0.139399
0.139353
0.139302
0.139244
0.139178
0.139105
0.139021
0.138927
0.138819
0.138697
0.138555
0.138391
0.138192
0.137969
0.137598
0.139916
0.13991
0.139902
0.139894
0.139886
0.139876
0.139867
0.139857
0.139847
0.139836
0.139823
0.139809
0.139794
0.139777
0.139758
0.139736
0.139712
0.139685
0.139655
0.139621
0.139583
0.139541
0.139494
0.139444
0.139389
0.139329
0.139261
0.139185
0.1391
0.139004
0.138894
0.138769
0.138624
0.138457
0.138259
0.138021
0.137728
0.137349
0.136802
0.139921
0.139922
0.139916
0.139901
0.13989
0.13988
0.139866
0.13985
0.139833
0.139815
0.139796
0.139777
0.139759
0.13974
0.139722
0.139704
0.139685
0.139666
0.139647
0.139626
0.139603
0.139579
0.139551
0.13952
0.139484
0.139444
0.139399
0.139348
0.139291
0.139227
0.139155
0.139072
0.138979
0.138873
0.13875
0.138608
0.138435
0.138242
0.137928
0.13995
0.139943
0.139936
0.139929
0.139921
0.139913
0.139905
0.139897
0.139889
0.139879
0.139869
0.139857
0.139843
0.139827
0.13981
0.139791
0.139769
0.139745
0.139718
0.139687
0.139654
0.139616
0.139575
0.13953
0.139481
0.139428
0.139368
0.139301
0.139226
0.139141
0.139045
0.138934
0.138808
0.138661
0.138488
0.138279
0.138031
0.137699
0.137243
0.139955
0.139957
0.13995
0.139936
0.139925
0.139915
0.139902
0.139888
0.139872
0.139855
0.139837
0.13982
0.139803
0.139786
0.13977
0.139753
0.139737
0.13972
0.139702
0.139684
0.139664
0.139642
0.139618
0.139591
0.139559
0.139524
0.139484
0.13944
0.13939
0.139334
0.139271
0.1392
0.139118
0.139026
0.138919
0.138796
0.138647
0.138478
0.138211
0.13998
0.139974
0.139967
0.13996
0.139953
0.139947
0.139941
0.139935
0.139928
0.13992
0.13991
0.1399
0.139887
0.139874
0.139858
0.139841
0.139821
0.1398
0.139775
0.139748
0.139718
0.139684
0.139647
0.139607
0.139564
0.139516
0.139464
0.139405
0.139338
0.139263
0.139178
0.139081
0.13897
0.13884
0.138689
0.138505
0.138301
0.13801
0.137625
0.139986
0.139988
0.139982
0.139967
0.139957
0.139947
0.139935
0.139922
0.139907
0.139891
0.139875
0.139858
0.139843
0.139827
0.139812
0.139798
0.139783
0.139768
0.139752
0.139736
0.139719
0.139699
0.139678
0.139654
0.139626
0.139595
0.13956
0.139521
0.139478
0.139429
0.139374
0.139311
0.139241
0.13916
0.139067
0.13896
0.13883
0.138684
0.138456
0.140008
0.140002
0.139995
0.139989
0.139983
0.139979
0.139974
0.13997
0.139964
0.139957
0.139949
0.139939
0.139928
0.139916
0.139902
0.139887
0.139869
0.13985
0.139828
0.139803
0.139776
0.139746
0.139713
0.139677
0.139639
0.139597
0.13955
0.139497
0.139438
0.139372
0.139297
0.139211
0.139113
0.138999
0.138867
0.138703
0.138538
0.138285
0.13796
0.140013
0.140016
0.14001
0.139996
0.139985
0.139976
0.139965
0.139953
0.139939
0.139924
0.139908
0.139893
0.139879
0.139865
0.139851
0.139838
0.139825
0.139811
0.139798
0.139783
0.139768
0.139751
0.139732
0.13971
0.139686
0.139658
0.139628
0.139594
0.139556
0.139513
0.139465
0.13941
0.139348
0.139278
0.139197
0.139103
0.138991
0.138863
0.138668
0.140033
0.140027
0.140021
0.140015
0.140011
0.140008
0.140006
0.140002
0.139998
0.139991
0.139984
0.139976
0.139966
0.139955
0.139943
0.139929
0.139914
0.139896
0.139877
0.139855
0.13983
0.139803
0.139773
0.139741
0.139707
0.139669
0.139628
0.139581
0.139528
0.139469
0.139403
0.139327
0.13924
0.13914
0.139025
0.138881
0.138746
0.138527
0.138253
0.140039
0.140042
0.140036
0.140022
0.140012
0.140003
0.139993
0.139981
0.139967
0.139953
0.139939
0.139925
0.139912
0.139899
0.139886
0.139874
0.139863
0.139851
0.139838
0.139826
0.139812
0.139797
0.13978
0.139761
0.13974
0.139715
0.139689
0.139658
0.139625
0.139587
0.139545
0.139497
0.139443
0.139381
0.139311
0.139229
0.139132
0.13902
0.138854
0.140056
0.140051
0.140044
0.14004
0.140038
0.140036
0.140035
0.140032
0.140028
0.140023
0.140017
0.14001
0.140001
0.139992
0.139981
0.139969
0.139955
0.139939
0.139922
0.139902
0.13988
0.139856
0.139829
0.1398
0.13977
0.139736
0.139699
0.139657
0.13961
0.139558
0.139498
0.139431
0.139354
0.139265
0.139166
0.139044
0.138931
0.13874
0.13851
0.140062
0.140065
0.14006
0.140045
0.140036
0.140027
0.140018
0.140006
0.139993
0.13998
0.139966
0.139953
0.139941
0.13993
0.139919
0.139908
0.139897
0.139887
0.139876
0.139864
0.139852
0.139839
0.139824
0.139807
0.139788
0.139767
0.139743
0.139716
0.139687
0.139654
0.139616
0.139575
0.139527
0.139473
0.139411
0.13934
0.139255
0.139158
0.139015
0.140078
0.140072
0.140066
0.140063
0.140062
0.140063
0.140062
0.14006
0.140057
0.140053
0.140048
0.140041
0.140034
0.140026
0.140017
0.140006
0.139994
0.13998
0.139964
0.139946
0.139926
0.139904
0.139881
0.139855
0.139827
0.139797
0.139764
0.139726
0.139685
0.139638
0.139585
0.139525
0.139457
0.139378
0.139295
0.139194
0.139099
0.13893
0.138734
0.140083
0.140087
0.140082
0.140067
0.140057
0.14005
0.140041
0.140029
0.140017
0.140004
0.139991
0.13998
0.139969
0.139958
0.139948
0.139938
0.139929
0.139919
0.13991
0.1399
0.139889
0.139877
0.139864
0.139849
0.139832
0.139813
0.139792
0.139768
0.139742
0.139713
0.13968
0.139643
0.139602
0.139554
0.1395
0.139438
0.139364
0.139279
0.139157
0.140097
0.140092
0.140086
0.140085
0.140086
0.140088
0.140087
0.140086
0.140084
0.14008
0.140077
0.140072
0.140066
0.140059
0.14005
0.140041
0.14003
0.140017
0.140003
0.139987
0.139969
0.13995
0.139928
0.139905
0.13988
0.139853
0.139823
0.13979
0.139753
0.139711
0.139664
0.13961
0.13955
0.139483
0.139414
0.13933
0.13925
0.139101
0.138934
0.140102
0.140107
0.140102
0.140087
0.140077
0.14007
0.140061
0.14005
0.140038
0.140026
0.140015
0.140004
0.139994
0.139984
0.139975
0.139966
0.139958
0.139949
0.139941
0.139932
0.139922
0.139912
0.1399
0.139887
0.139871
0.139854
0.139836
0.139815
0.139792
0.139766
0.139737
0.139705
0.139668
0.139627
0.139579
0.139525
0.13946
0.139386
0.139281
0.140115
0.14011
0.140104
0.140106
0.140109
0.14011
0.140111
0.14011
0.140109
0.140107
0.140104
0.1401
0.140095
0.140089
0.140082
0.140074
0.140064
0.140053
0.14004
0.140026
0.14001
0.139992
0.139972
0.139951
0.139929
0.139905
0.139878
0.139848
0.139815
0.139777
0.139735
0.139688
0.139636
0.13958
0.139522
0.139452
0.139384
0.139255
0.139111
0.140119
0.140125
0.14012
0.140105
0.140096
0.140089
0.14008
0.140069
0.140058
0.140046
0.140036
0.140026
0.140017
0.140008
0.14
0.139992
0.139985
0.139977
0.139969
0.139961
0.139953
0.139943
0.139933
0.139921
0.139907
0.139892
0.139875
0.139857
0.139837
0.139814
0.139788
0.13976
0.139728
0.139692
0.13965
0.139602
0.139546
0.139481
0.139391
0.140131
0.140126
0.140122
0.140126
0.14013
0.140131
0.140132
0.140133
0.140133
0.140132
0.14013
0.140127
0.140123
0.140118
0.140112
0.140104
0.140096
0.140086
0.140075
0.140062
0.140047
0.140031
0.140014
0.139995
0.139975
0.139953
0.139929
0.139902
0.139872
0.139839
0.139801
0.13976
0.139717
0.13967
0.139621
0.139562
0.139504
0.139393
0.13927
0.140135
0.140142
0.140137
0.140121
0.140113
0.140106
0.140097
0.140086
0.140075
0.140065
0.140055
0.140046
0.140038
0.14003
0.140023
0.140016
0.140009
0.140002
0.139995
0.139988
0.13998
0.139972
0.139963
0.139952
0.13994
0.139927
0.139912
0.139896
0.139878
0.139858
0.139836
0.139811
0.139783
0.139751
0.139715
0.139673
0.139624
0.139566
0.139488
0.140146
0.140141
0.140138
0.140145
0.140149
0.14015
0.140153
0.140155
0.140155
0.140155
0.140154
0.140152
0.140149
0.140145
0.14014
0.140134
0.140126
0.140118
0.140108
0.140097
0.140084
0.14007
0.140054
0.140037
0.140019
0.139999
0.139977
0.139953
0.139926
0.139896
0.139864
0.139829
0.139794
0.139755
0.139713
0.139662
0.139612
0.139518
0.139414
0.14015
0.140156
0.140152
0.140136
0.140128
0.140122
0.140113
0.140102
0.140091
0.140082
0.140073
0.140065
0.140058
0.140051
0.140044
0.140038
0.140032
0.140025
0.140019
0.140013
0.140006
0.139999
0.13999
0.139981
0.139971
0.13996
0.139947
0.139934
0.139919
0.139902
0.139883
0.139861
0.139837
0.139809
0.139777
0.13974
0.139696
0.139645
0.13958
0.14016
0.140155
0.140153
0.140163
0.140166
0.140168
0.140172
0.140174
0.140175
0.140176
0.140176
0.140175
0.140173
0.14017
0.140166
0.140161
0.140156
0.140149
0.140142
0.140133
0.140122
0.140111
0.140097
0.140083
0.140067
0.140049
0.140029
0.140006
0.139982
0.139956
0.139928
0.139899
0.139868
0.139834
0.139797
0.139753
0.139709
0.139631
0.139542
0.140163
0.140169
0.140165
0.140149
0.140142
0.140136
0.140127
0.140116
0.140106
0.140098
0.14009
0.140083
0.140076
0.14007
0.140064
0.140058
0.140052
0.140047
0.140041
0.140036
0.14003
0.140024
0.140018
0.140011
0.140003
0.139994
0.139984
0.139973
0.13996
0.139946
0.139929
0.139911
0.13989
0.139865
0.139837
0.139804
0.139766
0.139719
0.13967
0.140172
0.140167
0.140168
0.140178
0.14018
0.140182
0.140186
0.140188
0.14019
0.140191
0.140191
0.140191
0.14019
0.140189
0.140187
0.140185
0.140182
0.140178
0.140173
0.140168
0.140162
0.140154
0.140146
0.140136
0.140124
0.14011
0.140094
0.140075
0.140053
0.14003
0.140004
0.139976
0.139946
0.139914
0.139879
0.139838
0.139798
0.139732
0.139657
0.140174
0.140177
0.140174
0.140161
0.140155
0.140149
0.140139
0.140129
0.14012
0.140113
0.140106
0.140099
0.140093
0.140087
0.140082
0.140077
0.140072
0.140067
0.140063
0.140059
0.140054
0.14005
0.140046
0.140041
0.140036
0.140029
0.140021
0.140012
0.140002
0.13999
0.139977
0.139961
0.139943
0.139922
0.139898
0.139869
0.139835
0.139791
0.139754
0.140182
0.140178
0.14018
0.140187
0.140189
0.140192
0.140195
0.140197
0.140198
0.1402
0.140201
0.140201
0.140202
0.140201
0.140201
0.1402
0.140199
0.140197
0.140194
0.140192
0.140188
0.140184
0.140179
0.140174
0.140167
0.140159
0.140148
0.140136
0.140121
0.140103
0.140082
0.140058
0.14003
0.139998
0.139964
0.139924
0.139884
0.139826
0.139761
0.140181
0.140183
0.140179
0.14017
0.140164
0.140158
0.14015
0.14014
0.140133
0.140126
0.14012
0.140114
0.140108
0.140103
0.140099
0.140095
0.140091
0.140087
0.140084
0.140081
0.140078
0.140076
0.140074
0.140071
0.140068
0.140062
0.140056
0.140049
0.140041
0.140032
0.140022
0.14001
0.139996
0.139979
0.139958
0.139933
0.139903
0.139863
0.139834
0.140187
0.140186
0.140188
0.140193
0.140195
0.140198
0.1402
0.140203
0.140205
0.140206
0.140208
0.140209
0.140209
0.14021
0.14021
0.14021
0.140209
0.140209
0.140208
0.140206
0.140204
0.140202
0.140199
0.140196
0.140193
0.140188
0.140182
0.140175
0.140167
0.140156
0.140143
0.140126
0.140105
0.140079
0.140049
0.140012
0.139973
0.139918
0.139857
0.140186
0.140186
0.140182
0.140175
0.140169
0.140164
0.140158
0.14015
0.140144
0.140138
0.140132
0.140127
0.140122
0.140118
0.140114
0.140111
0.140108
0.140106
0.140104
0.140102
0.1401
0.140098
0.140097
0.140095
0.140092
0.140087
0.140083
0.140077
0.140071
0.140065
0.140057
0.140049
0.140039
0.140027
0.140012
0.139992
0.139969
0.139933
0.139909
0.14019
0.14019
0.140192
0.140197
0.140199
0.140202
0.140205
0.140207
0.140209
0.140211
0.140212
0.140214
0.140215
0.140216
0.140216
0.140217
0.140217
0.140217
0.140217
0.140216
0.140215
0.140214
0.140213
0.140211
0.140209
0.140206
0.140203
0.140199
0.140194
0.140188
0.140181
0.140172
0.140159
0.140142
0.140121
0.140092
0.140059
0.140009
0.139953
0.140189
0.140188
0.140185
0.140177
0.140172
0.140167
0.140162
0.140156
0.140151
0.140146
0.140141
0.140137
0.140133
0.140129
0.140126
0.140124
0.140121
0.140119
0.140117
0.140115
0.140114
0.140112
0.14011
0.140108
0.140106
0.140102
0.140099
0.140095
0.14009
0.140085
0.14008
0.140074
0.140067
0.140059
0.140049
0.140036
0.140022
0.139993
0.139975
0.140192
0.140193
0.140195
0.140199
0.140202