/*--------------------------------*- C++ -*----------------------------------*\
  =========                 |
  \\      /  F ield         | OpenFOAM: The Open Source CFD Toolbox
   \\    /   O peration     | Website:  https://openfoam.org
    \\  /    A nd           | Version:  13
     \\/     M anipulation  |
\*---------------------------------------------------------------------------*/
FoamFile
{
    format      ascii;
    class       volScalarField;
    location    "300";
    object      p;
}
// * * * * * * * * * * * * * * * * * * * * * * * * * * * * * * * * * * * * * //

dimensions      [0 2 -2 0 0 0 0];

internalField   nonuniform List<scalar> 
10720
(
-90.247
-164.302
-251.705
-337.166
-415.586
-495.532
-565.942
-624.67
-675.591
-715.1
-745.181
-767.14
-781.773
-790.285
-793.126
-789.842
-781.353
-766.322
-745.893
-718.688
-685.738
-646.238
-602.42
-555.187
-508.044
-466.073
-428.261
-391.019
-354.068
-317.633
-281.531
-245.622
-209.804
-173.846
-137.494
-99.6439
-59.9326
-12.3676
35.3614
-15.2872
52.8152
126.309
195.424
254.962
300.947
329.716
340.797
340.171
329.282
309.535
286.461
263.01
240.203
218.729
198.463
179.499
161.429
144.001
126.723
109.55
92.1611
74.6517
57.419
42.3562
30.5314
20.8956
13.0616
7.03265
2.86587
0.464422
-0.277642
0.560257
2.98162
6.99806
13.0274
21.6236
36.5145
61.5862
23.2907
-33.0787
-96.0279
-162.684
-230.973
-300.718
-368.245
-431.451
-489.712
-541.249
-585.74
-623.179
-653.631
-677.163
-693.698
-702.954
-705.535
-701.014
-689.937
-671.692
-646.837
-615.099
-578.16
-537.166
-495.202
-456.586
-420.857
-385.221
-349.509
-314.038
-278.716
-243.44
-208.132
-172.582
-136.546
-98.9375
-59.4109
-11.9464
35.0917
74.1142
122.746
171.487
218.868
260.998
295.275
318.708
330.025
330.574
321.621
305.74
286.312
265.468
244.319
223.629
203.665
184.596
166.27
148.513
131.008
113.663
96.27
78.9133
62.0003
47.0047
34.842
24.793
16.5324
10.0828
5.49922
2.71149
1.62221
2.14943
4.29553
8.08181
13.9298
22.3844
37.1828
61.2662
39.8044
-10.6589
-67.2526
-129.543
-193.938
-259.754
-325.4
-388.175
-446.502
-499.395
-545.619
-584.87
-616.962
-641.841
-659.701
-670.745
-675.205
-672.895
-664.006
-648.306
-626.096
-597.428
-563.56
-525.776
-486.628
-449.651
-414.958
-380.387
-345.62
-310.935
-276.273
-241.537
-206.663
-171.458
-135.691
-98.2951
-58.9421
-11.67
34.8527
85.4485
130.022
174.551
217.015
254.031
283.989
304.844
315.901
317.873
311.606
298.992
282.321
263.439
243.625
223.756
204.296
185.481
167.308
149.658
132.303
115.123
97.9783
80.9335
64.3612
49.4302
37.0352
26.7698
18.3226
11.6957
6.93461
3.97911
2.73187
3.11288
5.12613
8.8015
14.5618
22.9491
37.6247
60.7214
64.8174
22.3649
-25.9664
-79.0229
-134.602
-192.626
-251.425
-309.172
-364.53
-416.362
-463.529
-505.363
-541.381
-571.292
-594.878
-612.134
-622.82
-626.665
-623.617
-613.555
-596.654
-573.122
-543.976
-510.546
-475.038
-440.473
-407.436
-374.338
-340.804
-307.117
-273.282
-239.224
-204.899
-170.134
-134.712
-97.5949
-58.48
-11.5257
34.4484
102.908
139.646
176.619
212.511
244.201
270.451
289.428
300.365
303.551
299.516
289.715
275.855
259.427
241.6
223.223
204.815
186.682
168.938
151.554
134.398
117.383
100.436
83.629
67.3131
52.4485
39.8783
29.4011
20.7312
13.8639
8.84989
5.64115
4.15184
4.31145
6.12941
9.64301
15.2739
23.5516
38.0294
60.1431
73.0404
35.311
-7.85577
-55.5592
-105.673
-158.598
-212.934
-267.032
-319.862
-370.267
-417.098
-459.559
-496.981
-528.835
-554.735
-574.447
-587.607
-594.102
-593.797
-586.682
-572.865
-552.628
-526.804
-496.651
-464.068
-431.573
-399.977
-368.164
-335.75
-303.007
-269.986
-236.625
-202.887
-168.609
-133.586
-96.8078
-57.9991
-11.4701
33.8108
106.985
139.549
172.407
204.299
232.478
256.108
273.706
284.534
288.659
286.482
279.108
267.813
253.755
237.935
221.149
203.93
186.642
169.485
152.515
135.689
118.961
102.307
85.8127
69.8059
55.0842
42.419
31.7712
22.9129
15.8415
10.6116
7.18804
5.49552
5.46937
7.12061
10.4917
16.0024
24.165
38.4142
59.5314
78.3367
44.8946
6.42239
-36.0806
-80.759
-128.32
-177.462
-226.87
-275.787
-323.156
-367.991
-409.525
-447.016
-479.827
-507.463
-529.521
-545.629
-555.538
-558.973
-555.789
-545.987
-529.801
-507.908
-481.458
-452.104
-421.975
-392.042
-361.632
-330.423
-298.678
-266.501
-233.857
-200.726
-166.959
-132.364
-95.9663
-57.5219
-11.5304
32.9462
108.422
137.165
166.363
194.9
220.241
241.776
258.273
268.957
273.764
273.068
267.697
258.638
246.79
232.977
217.9
202.064
185.843
169.486
153.115
136.759
120.422
104.126
87.9748
72.282
57.7263
45.0095
34.2172
25.1894
17.9254
12.4825
8.84014
6.93357
6.70596
8.17342
11.3853
16.7586
24.7853
38.7609
58.8663
79.5516
49.3823
14.5774
-23.9038
-64.278
-107.492
-152.38
-197.793
-243.222
-287.718
-330.428
-370.654
-407.637
-440.694
-469.253
-492.798
-510.849
-523.016
-528.963
-528.505
-521.63
-508.557
-489.86
-466.556
-440.07
-412.174
-383.886
-354.875
-324.886
-294.164
-262.853
-230.947
-198.441
-165.206
-131.066
-95.0837
-57.0599
-11.7163
31.8643
106.721
132.594
159.006
184.923
208.022
227.869
243.444
253.939
259.232
259.692
255.955
248.8
238.931
227.011
213.635
199.245
184.201
168.775
153.133
137.358
121.507
105.64
89.8831
74.536
60.19
47.4846
36.5947
27.4288
19.9944
14.3538
10.5019
8.38739
7.96183
9.24676
12.2976
17.5264
25.4024
39.0611
58.1535
78.9043
51.5134
19.8422
-15.1471
-51.7633
-91.0857
-132.041
-173.627
-215.512
-256.884
-297.003
-335.285
-371.026
-403.554
-432.264
-456.587
-475.968
-489.983
-498.251
-500.489
-496.588
-486.685
-471.225
-451.079
-427.469
-401.884
-375.343
-347.798
-319.084
-289.433
-259.028
-227.894
-196.042
-163.362
-129.701
-94.1667
-56.6142
-12.0197
30.5788
103.608
127.078
151.165
174.91
196.154
214.594
229.36
239.627
245.254
246.6
244.176
238.613
230.473
220.285
208.539
195.607
181.811
167.421
152.623
137.54
122.269
106.904
91.5907
76.6211
62.5242
49.8844
38.9391
29.6633
22.079
16.2547
12.2013
9.88192
9.25744
10.3556
13.2382
18.3103
26.0164
39.3142
57.3987
76.8857
51.8074
22.7724
-9.27965
-42.7189
-78.6915
-116.225
-154.414
-193.072
-231.49
-269.045
-305.263
-339.502
-371.135
-399.566
-424.199
-444.444
-459.813
-469.866
-474.245
-472.774
-465.544
-452.905
-435.593
-414.646
-391.296
-366.511
-340.446
-313.03
-284.487
-255.022
-224.693
-193.527
-161.434
-128.279
-93.2222
-56.182
-12.4256
29.114
99.537
121.021
143.175
165.099
184.772
202.024
216.064
226.072
231.919
233.939
232.563
228.317
221.663
213.023
202.794
191.276
178.746
165.452
151.579
137.274
122.663
107.868
93.0501
78.4964
64.6902
52.1708
41.217
31.8651
24.156
18.1661
13.9227
11.4046
10.5831
11.4927
14.2017
19.1062
26.6236
39.5187
56.6026
74.0778
50.9827
24.2218
-5.28408
-35.9697
-69.0084
-103.495
-138.612
-174.278
-209.867
-244.868
-278.9
-311.393
-341.795
-369.54
-394.029
-414.674
-430.947
-442.387
-448.594
-449.304
-444.536
-434.537
-419.906
-401.511
-380.365
-357.364
-332.809
-306.722
-279.319
-250.829
-221.34
-190.893
-159.418
-126.801
-92.2568
-55.7643
-12.923
27.5016
94.9741
114.765
135.269
155.634
173.958
190.178
203.559
213.286
219.261
221.789
221.245
218.08
212.687
205.406
196.559
186.38
175.097
162.922
150.029
136.571
122.689
108.525
94.2534
80.1552
66.6815
54.3351
43.4207
34.0279
26.2208
20.085
15.6644
12.9546
11.9387
12.6577
15.1875
19.9126
27.222
39.6747
55.7672
70.7824
49.4009
24.6129
-2.68101
-30.9678
-61.4354
-93.2318
-125.614
-158.558
-191.522
-224.089
-255.963
-286.641
-315.642
-342.451
-366.502
-387.212
-404.045
-416.5
-424.171
-426.703
-424.058
-416.4
-404.205
-388.183
-369.16
-347.937
-324.905
-300.164
-273.931
-246.448
-217.83
-188.135
-157.312
-125.267
-91.2732
-55.3652
-13.5062
25.7658
90.1614
108.497
127.573
146.585
163.734
179.041
191.813
201.251
207.282
210.187
210.299
208.02
203.688
197.587
189.978
181.042
170.955
159.891
148.004
135.439
122.341
108.864
95.1851
81.5816
68.4823
56.3596
45.5332
36.1373
28.261
22.0014
17.4189
14.5264
13.32
13.8478
16.1932
20.7272
27.8088
39.7824
54.8959
67.2213
47.3422
24.2884
-1.0594
-27.2395
-55.4343
-84.8361
-114.76
-145.233
-175.774
-206.04
-235.809
-264.647
-292.145
-317.84
-341.207
-361.695
-378.774
-391.923
-400.739
-404.804
-404.014
-398.457
-388.492
-374.688
-357.707
-338.246
-316.743
-293.363
-268.325
-241.879
-214.163
-185.252
-155.114
-123.676
-90.2731
-54.989
-14.1735
23.9223
85.2744
102.339
120.165
137.984
154.098
168.586
180.79
189.936
195.965
199.144
199.774
198.215
194.772
189.686
183.174
175.371
166.41
156.427
145.547
133.9
121.627
108.88
95.8366
82.7667
70.0821
58.2315
47.5411
38.1812
30.2667
23.9073
19.1799
16.1153
14.7238
15.0604
17.2164
21.5476
28.382
39.8428
53.9916
63.5407
44.9875
23.4717
-0.151178
-24.4664
-50.6408
-77.9063
-105.621
-133.856
-162.18
-190.302
-218.065
-245.096
-271.051
-295.529
-318.052
-338.106
-355.181
-368.754
-378.425
-383.742
-384.531
-380.816
-372.856
-361.096
-346.053
-328.319
-308.34
-286.328
-262.504
-237.121
-210.337
-182.243
-152.823
-122.028
-89.2571
-54.6387
-14.9218
21.9797
80.4173
96.3653
113.079
129.836
145.028
158.774
170.446
179.299
185.284
188.657
189.691
188.718
186.016
181.799
176.248
169.465
161.547
152.596
142.705
131.983
120.558
108.574
96.2015
83.7017
71.4706
59.9376
49.4302
40.1466
32.2262
25.7931
20.9399
17.7157
16.1456
16.292
18.2543
22.3711
28.939
39.8569
53.0581
59.8381
42.4664
22.3261
0.245183
-22.4059
-46.7736
-72.1248
-97.8511
-124.057
-150.352
-176.488
-202.356
-227.642
-252.058
-275.264
-296.833
-316.289
-333.155
-346.921
-357.187
-363.502
-365.619
-363.507
-357.343
-347.457
-334.242
-318.184
-299.713
-279.069
-256.474
-232.177
-206.352
-179.105
-150.438
-120.323
-88.2256
-54.3173
-15.7467
19.9462
75.6641
90.6155
106.338
122.137
136.5
149.566
160.735
169.301
175.209
178.712
180.06
179.562
177.477
173.999
169.284
163.41
156.447
148.465
139.529
129.723
119.153
107.953
96.2798
84.3819
72.6398
61.4669
51.1878
42.021
34.1285
27.6491
22.6909
19.3212
17.5807
17.5389
19.3037
23.195
29.4777
39.8268
52.0988
56.1787
39.8701
20.9678
0.27517
-20.883
-43.6272
-67.2517
-91.1848
-115.549
-139.984
-164.285
-188.382
-212.005
-234.923
-256.839
-277.385
-296.128
-312.627
-326.398
-337.039
-344.119
-347.33
-346.595
-342.015
-333.83
-322.323
-307.876
-290.885
-271.6
-250.24
-227.049
-202.209
-175.839
-147.958
-118.56
-87.1787
-54.025
-16.6444
17.8312
71.0602
85.1155
99.9409
114.874
128.484
140.92
151.617
159.898
165.707
169.289
170.879
170.764
169.192
166.341
162.35
157.282
151.184
144.099
136.071
127.154
117.436
107.029
96.0755
84.8052
73.5836
62.8097
52.8018
43.7921
35.962
29.465
24.4244
20.925
19.0235
18.7968
20.361
24.0162
29.9958
39.7544
51.118
52.6069
37.2624
19.4815
0.0466532
-19.7645
-41.0392
-63.1007
-85.409
-108.097
-130.833
-153.445
-175.892
-197.945
-219.414
-240.055
-259.543
-277.494
-293.505
-307.124
-317.952
-325.592
-329.686
-330.114
-326.921
-320.265
-310.339
-297.429
-281.88
-263.938
-243.815
-221.743
-197.911
-172.446
-145.384
-116.74
-86.1165
-53.7622
-17.6083
15.6436
66.6331
79.8777
93.8873
108.03
120.95
132.803
143.054
151.053
156.745
160.368
162.142
162.335
161.188
158.868
155.502
151.141
145.819
139.558
132.38
124.317
115.433
105.818
95.595
84.9726
74.2993
63.9588
54.2618
45.4481
37.7152
31.2304
26.1314
22.5196
20.4681
20.061
21.4222
24.8316
30.4913
39.6423
50.12
49.1534
34.6862
17.9272
-0.36063
-18.9497
-38.888
-59.5307
-80.3603
-101.519
-122.703
-143.761
-164.674
-185.251
-205.338
-224.734
-243.157
-260.269
-275.704
-289.047
-299.909
-307.924
-312.709
-314.106
-312.111
-306.817
-298.34
-286.881
-272.726
-256.101
-237.209
-216.266
-193.46
-168.927
-142.717
-114.863
-85.039
-53.5271
-18.6314
13.3929
62.3989
74.9061
88.1684
101.584
113.869
125.178
135.006
142.731
148.292
151.925
153.834
154.274
153.48
151.609
148.78
145.04
140.409
134.898
128.509
121.255
113.176
104.342
94.8508
84.889
74.7853
64.9084
55.5584
46.9781
39.3769
32.9347
27.8024
24.0971
21.9078
21.3261
22.483
25.6378
30.9623
39.4933
49.109
45.837
32.1726
16.3526
-0.887905
-18.3591
-37.0802
-56.4264
-75.908
-95.6698
-115.43
-135.056
-154.55
-173.747
-192.527
-210.721
-228.09
-244.337
-259.134
-272.103
-282.873
-291.104
-296.412
-298.599
-297.624
-293.532
-286.373
-276.272
-263.451
-248.112
-230.437
-210.627
-188.863
-165.285
-139.956
-112.93
-83.9453
-53.3185
-19.7054
11.0912
58.3657
70.1972
82.772
95.5164
107.213
118.013
127.439
134.894
140.317
143.935
145.943
146.581
146.078
144.586
142.219
139.018
135.001
130.166
124.502
118.007
110.699
102.624
93.8581
84.5623
75.0441
65.6556
56.6845
48.3725
40.9366
34.5674
29.4277
25.6491
23.3355
22.5864
23.5386
26.4313
31.407
39.3106
48.0903
42.6683
29.7437
14.7871
-1.48778
-17.9365
-35.5398
-53.6992
-71.945
-90.4284
-108.882
-127.19
-145.37
-163.281
-180.827
-197.872
-214.21
-229.586
-243.707
-256.229
-266.807
-275.12
-280.8
-283.618
-283.5
-280.454
-274.482
-265.64
-254.089
-239.994
-223.517
-204.837
-184.126
-161.524
-137.105
-110.94
-82.8353
-53.1339
-20.8213
8.75025
54.5365
65.7454
77.6842
89.807
100.953
111.275
120.32
127.513
132.791
136.375
138.451
139.246
138.984
137.813
135.841
133.111
129.634
125.406
120.404
114.613
108.033
100.689
92.6333
84.0027
75.0805
66.1997
57.6347
49.6226
42.3842
36.1181
30.9975
27.1666
24.7435
23.8356
24.5838
27.2085
31.824
39.0976
47.0689
39.6542
27.4137
13.2553
-2.12835
-17.6346
-34.2105
-51.2774
-68.3899
-85.6981
-102.95
-120.042
-137.006
-153.718
-170.105
-186.059
-201.402
-215.914
-229.337
-241.361
-251.667
-259.95
-265.874
-269.178
-269.768
-267.624
-262.71
-255.025
-244.67
-231.773
-216.467
-198.909
-179.256
-157.647
-134.165
-108.896
-81.7078
-52.97
-21.9698
6.38227
50.91
61.5431
72.8911
84.4355
95.0673
104.937
113.62
120.557
125.687
129.224
131.343
132.262
132.198
131.298
129.666
127.344
124.343
120.655
116.254
111.11
105.211
98.5639
91.1979
83.2245
74.9014
66.5418
58.4055
50.7214
43.7106
37.5769
32.5017
28.6405
26.1238
25.0669
25.6134
27.9657
32.2118
38.8576
46.0495
36.7965
25.1911
11.7744
-2.78295
-17.4189
-33.0454
-49.1056
-65.1738
-81.3994
-97.5434
-113.516
-129.354
-144.952
-160.254
-175.174
-189.562
-203.228
-215.944
-227.434
-237.407
-245.572
-251.626
-255.291
-256.454
-255.078
-251.097
-244.466
-235.231
-223.477
-209.308
-192.857
-174.265
-153.663
-131.14
-106.798
-80.5614
-52.8222
-23.1402
4.00087
47.4839
57.5811
68.3781
79.3818
89.5305
98.9741
107.311
114.001
118.98
122.458
124.601
125.617
125.718
125.046
123.704
121.736
119.154
115.947
112.085
107.533
102.267
96.2775
89.5743
82.243
74.5161
66.6858
58.9954
51.6635
44.9078
38.9344
33.9308
30.0616
27.4682
26.2733
26.6216
28.6992
32.5695
38.5942
45.0373
34.0953
23.0817
10.3552
-3.43297
-17.2616
-32.0088
-47.1371
-62.241
-77.4654
-92.5875
-107.524
-122.321
-136.885
-151.173
-165.119
-178.595
-191.439
-203.453
-214.388
-223.981
-231.956
-238.046
-241.962
-243.578
-242.846
-239.681
-234.001
-225.803
-215.133
-202.063
-186.7
-169.164
-149.578
-128.035
-104.648
-79.3947
-52.6859
-24.3214
1.62027
44.2521
53.8494
64.1306
74.6272
84.3213
93.3619
101.369
107.818
112.647
116.057
118.209
119.3
119.536
119.057
117.964
116.304
114.087
111.306
107.927
103.914
99.2311
93.8571
87.7843
81.0752
73.9365
66.638
59.4055
52.4453
45.969
40.1819
35.2754
31.4206
28.768
27.4473
27.6027
29.405
32.8958
38.3107
44.0373
31.5486
21.0872
9.00625
-4.0639
-17.1433
-31.0719
-45.3361
-59.5462
-73.8455
-88.0207
-102
-115.831
-129.432
-142.774
-155.806
-168.417
-180.47
-191.791
-202.161
-211.342
-219.074
-225.119
-229.192
-231.156
-230.955
-228.495
-223.664
-216.422
-206.771
-194.756
-180.454
-163.966
-145.4
-124.854
-102.446
-78.2056
-52.5553
-25.5031
-0.746249
41.2079
50.3388
60.1358
70.1546
79.4203
88.0788
95.7701
101.986
106.664
110.002
112.151
113.298
113.645
113.33
112.451
111.056
109.16
106.754
103.808
100.28
96.1315
91.3296
85.852
79.7404
73.1762
66.4062
59.6385
53.0649
46.8888
41.312
36.5264
32.7082
30.0147
28.5812
28.5504
30.0794
33.1902
38.0105
43.0543
29.1526
19.2085
7.73236
-4.66578
-17.0458
-30.2123
-43.6725
-57.0529
-70.4931
-83.7925
-96.8839
-109.82
-122.526
-134.985
-147.157
-158.95
-170.246
-180.893
-190.696
-199.443
-206.891
-212.827
-216.976
-219.197
-219.426
-217.567
-213.49
-207.119
-198.423
-187.413
-174.141
-158.684
-141.141
-121.602
-100.196
-76.9922
-52.4235
-26.6732
-3.084
38.3451
47.0378
56.3797
65.9487
74.809
83.1038
90.4931
96.4835
101.014
104.275
106.41
107.598
108.036
107.859
107.165
106.001
104.384
102.309
99.7474
96.6566
92.9945
88.7205
83.8008
78.2582
72.25
66.0003
59.6987
53.5226
47.6636
42.3177
37.6758
33.9158
31.1995
29.6673
29.4588
30.7185
33.4518
37.6967
42.0926
26.9023
17.4448
6.53663
-5.23142
-16.9569
-29.4119
-42.1217
-54.7296
-67.372
-79.8577
-92.1251
-104.229
-116.104
-127.74
-139.107
-150.128
-160.702
-170.696
-179.94
-188.239
-195.375
-201.15
-205.309
-207.706
-208.275
-206.924
-203.509
-197.927
-190.116
-180.059
-167.781
-153.338
-136.81
-118.287
-97.8992
-75.7515
-52.2839
-27.8201
-5.37898
35.6559
43.9369
52.8493
61.9925
70.4688
78.4177
85.5185
91.2915
95.6759
98.8566
100.97
102.188
102.702
102.642
102.105
101.141
99.7692
97.9858
95.7644
93.065
89.8434
86.0535
81.6527
76.6481
71.1736
65.4316
59.5931
53.8197
48.2909
43.1941
38.7161
35.0348
32.3142
30.6979
30.3217
31.3185
33.6801
37.3719
41.1563
24.793
15.7938
5.42007
-5.75588
-16.8679
-28.6566
-40.6651
-52.5526
-64.4517
-76.1801
-87.6823
-99.0122
-110.113
-120.982
-131.596
-141.89
-151.778
-161.145
-169.839
-177.688
-184.491
-190.066
-194.181
-196.685
-197.517
-196.587
-193.748
-188.874
-181.88
-172.72
-161.397
-147.942
-132.42
-114.915
-95.557
-74.482
-52.128
-28.9318
-7.61712
33.133
41.0256
49.532
58.2716
66.3838
74.0036
80.8273
86.3909
90.6325
93.7315
95.818
97.0555
97.6302
97.6698
97.2685
96.4779
95.3199
93.7926
91.8731
89.5232
86.6988
83.3503
79.4291
74.9289
69.9633
64.7125
59.3294
53.9601
48.7701
43.9369
39.641
36.0575
33.3507
31.6654
31.1329
31.8758
33.8745
37.0388
40.2488
22.8194
14.252
4.38302
-6.2356
-16.7712
-27.9348
-39.2868
-50.5009
-61.7063
-72.7287
-83.5185
-94.1288
-104.51
-114.663
-124.572
-134.182
-143.421
-152.188
-160.348
-167.749
-174.206
-179.55
-183.576
-186.132
-187.158
-186.574
-184.232
-179.99
-173.742
-165.423
-155.01
-142.515
-127.984
-111.494
-93.1742
-73.1803
-51.9486
-29.9983
-9.78512
30.7684
38.2941
46.4162
54.7733
62.5389
69.8454
76.4036
81.7647
85.8669
88.8835
90.9384
92.1875
92.8116
92.9355
92.6515
92.0118
91.0404
89.7382
88.0852
86.0464
83.5783
80.6307
77.1503
73.1207
68.6361
63.8563
58.9169
53.9486
49.1023
44.5438
40.4451
36.977
34.3013
32.5626
31.8866
32.3865
34.0346
36.6991
39.373
20.9755
12.8167
3.42374
-6.6682
-16.6619
-27.2378
-37.9735
-48.5581
-59.1145
-69.4785
-79.6041
-89.5447
-99.2545
-108.74
-117.989
-126.957
-135.583
-143.778
-151.423
-158.381
-164.486
-169.58
-173.483
-176.042
-177.204
-176.899
-174.98
-171.298
-165.73
-158.193
-148.644
-137.075
-123.516
-108.033
-90.7521
-71.8446
-51.7386
-31.0075
-11.8701
28.5542
35.7331
43.491
51.4843
58.9203
65.9279
72.2313
77.3972
81.3634
84.2977
86.3178
87.5721
88.2365
88.4318
88.2487
87.7402
86.9317
85.8271
84.4094
82.6465
80.4972
77.9122
74.8351
71.2412
67.2082
62.8767
58.3661
53.7916
49.2898
45.0133
41.1247
37.7872
35.1591
33.3826
32.5771
32.8473
34.1596
36.3545
38.531
19.2553
11.4831
2.54099
-7.05322
-16.5363
-26.5592
-36.7156
-46.7093
-56.6586
-66.4073
-75.9122
-85.2281
-94.3126
-103.174
-111.808
-120.174
-128.221
-135.873
-143.022
-149.548
-155.3
-160.13
-163.882
-166.408
-167.658
-167.572
-166.012
-162.82
-157.868
-151.055
-142.322
-131.642
-119.029
-104.541
-88.2949
-70.4723
-51.4879
-31.9496
-13.8591
26.4833
33.3332
40.7453
48.3922
55.5141
62.2363
68.2958
73.2732
77.1073
79.9598
81.9426
83.1971
83.8937
84.15
84.0538
83.6593
82.9933
82.0619
80.8516
79.3334
77.4689
75.2099
72.4994
69.307
65.6953
61.7875
57.6878
53.4969
49.3365
45.3461
41.6767
38.4835
35.9181
34.1191
33.1992
33.2548
34.2492
36.0061
37.7242
17.6531
10.2473
1.73256
-7.39085
-16.3917
-25.8928
-35.5041
-44.9426
-54.3226
-63.4952
-72.4208
-81.1529
-89.6536
-97.9333
-105.991
-113.794
-121.297
-128.433
-135.109
-141.215
-146.617
-151.178
-154.759
-157.219
-158.516
-158.6
-157.339
-154.578
-150.178
-144.032
-136.064
-126.234
-114.54
-101.027
-85.8066
-69.0613
-51.1909
-32.8139
-15.7408
24.5481
31.0854
38.169
45.4863
52.3084
58.7577
64.5833
69.3789
73.0849
75.8565
77.8003
79.0509
79.7727
80.0811
80.0602
79.7651
79.2237
78.4441
77.4161
76.1143
74.5032
72.5366
70.1584
67.3339
64.1129
60.6028
56.8937
53.0728
49.2475
45.5436
42.1001
39.0619
36.573
34.7665
33.748
33.606
34.3025
35.6544
36.9532
16.1629
9.10496
0.995551
-7.68149
-16.2266
-25.2352
-34.3328
-43.2493
-52.0947
-60.7277
-69.1109
-77.2975
-85.2531
-92.9891
-100.508
-107.782
-114.774
-121.423
-127.649
-133.351
-138.41
-142.697
-146.094
-148.466
-149.777
-149.987
-148.974
-146.586
-142.681
-137.146
-129.893
-120.87
-110.062
-97.5022
-83.2909
-67.6103
-50.8399
-33.592
-17.506
22.7415
28.9819
35.7525
42.7556
49.2914
55.4798
61.0805
65.7018
69.2834
71.9754
73.8788
75.122
75.864
76.216
76.2605
76.0518
75.6196
74.973
74.1054
72.9947
71.6086
69.9035
67.825
65.3359
62.4753
59.3361
55.9956
52.5287
49.0292
45.6091
42.3947
39.5201
37.1199
35.3202
34.2193
33.898
34.3188
35.2995
36.2176
14.7791
8.05149
0.327196
-7.92649
-16.0405
-24.5834
-33.1962
-41.6216
-49.9648
-58.091
-65.9666
-73.6426
-81.0884
-88.3164
-95.3322
-102.112
-108.623
-114.813
-120.61
-125.925
-130.649
-134.666
-137.869
-140.135
-141.434
-141.734
-140.924
-138.858
-135.394
-130.416
-123.829
-115.569
-105.61
-93.975
-80.7526
-66.1187
-50.4285
-34.2758
-19.146
21.0564
27.0146
33.487
40.1897
46.4522
52.3908
57.7757
62.229
65.69
68.3042
70.1667
71.4001
72.1573
72.5462
72.6471
72.5141
72.1769
71.6473
70.9207
69.9783
68.7914
67.3194
65.5105
63.3259
60.7958
58.0002
55.0053
51.8743
48.6885
45.5467
42.5622
39.857
37.5558
35.7764
34.6095
34.1282
34.2972
34.941
35.5164
13.4957
7.08238
-0.275644
-8.12736
-15.8329
-23.935
-32.0899
-40.0519
-47.9225
-55.5729
-62.9727
-70.171
-77.1401
-83.8936
-90.4383
-96.7546
-102.814
-108.573
-113.964
-118.91
-123.311
-127.061
-130.066
-132.215
-133.48
-133.839
-133.194
-131.404
-128.333
-123.86
-117.889
-110.347
-101.199
-90.4563
-78.1967
-64.585
-49.9516
-34.8584
-20.6529
19.4863
25.1755
31.3636
37.7795
43.7805
49.4799
54.658
58.9489
62.2938
64.8316
66.6529
67.8739
68.6424
69.0629
69.2125
69.1452
68.8915
68.4639
67.8612
67.0671
66.0563
64.7916
63.2241
61.3149
59.0864
56.6074
53.9342
51.1198
48.2336
45.3618
42.6048
40.0728
37.879
36.1322
34.9156
34.2946
34.2368
34.5779
34.8479
12.3073
6.19322
-0.81625
-8.28589
-15.6039
-23.2889
-31.0106
-38.5357
-45.9606
-53.1639
-60.1171
-66.8677
-73.3905
-79.7002
-85.805
-91.6878
-97.325
-102.677
-107.685
-112.28
-116.371
-119.861
-122.667
-124.689
-125.905
-126.301
-125.787
-124.233
-121.508
-117.493
-112.09
-105.22
-96.8416
-86.9562
-75.6285
-63.0107
-49.4042
-35.3337
-22.0212
18.0246
23.4576
29.3742
35.516
41.2667
46.737
51.716
55.851
59.0832
61.5464
63.3263
64.5334
65.3097
65.7566
65.9485
65.9387
65.7576
65.4199
64.9255
64.2619
63.4064
62.3255
60.9734
59.3122
57.358
55.1693
52.7936
50.2753
47.6729
45.0607
42.5267
40.1689
38.0891
36.386
35.1357
34.3954
34.1367
34.209
34.2096
11.2087
5.37951
-1.29793
-8.40421
-15.3545
-22.644
-29.9559
-37.0682
-44.0735
-50.8559
-57.3896
-63.7206
-69.8258
-75.7201
-81.4129
-86.8902
-92.1315
-97.1022
-101.75
-106.011
-109.805
-113.045
-115.654
-117.545
-118.7
-119.112
-118.703
-117.35
-114.93
-111.329
-106.447
-100.204
-92.5522
-83.4846
-73.0535
-61.3961
-48.7841
-35.6981
-23.2459
16.6651
21.8537
27.511
33.3905
38.9016
44.1521
48.94
52.9248
56.0482
58.4384
60.1773
61.3687
62.1503
62.6194
62.8478
62.8877
62.7703
62.511
62.1116
61.5624
60.8436
59.9253
58.7652
57.3263
55.6202
53.6961
51.5942
49.3508
47.0151
44.6503
42.3327
40.1481
38.1869
36.5375
35.2684
34.4293
33.9957
33.8326
33.5983
10.1944
4.63701
-1.72409
-8.48449
-15.0855
-21.9998
-28.9235
-35.6456
-42.2553
-48.6413
-54.7809
-60.7182
-66.4318
-71.9377
-77.2456
-82.3435
-87.2139
-91.8267
-96.1349
-100.081
-103.594
-106.593
-109.01
-110.769
-111.855
-112.268
-111.939
-110.758
-108.607
-105.377
-100.972
-95.3117
-88.3426
-80.0512
-70.4781
-59.7434
-48.0894
-35.9482
-24.3243
15.402
20.3572
25.7665
31.3952
36.6768
41.7165
46.3205
50.1604
53.1786
55.498
57.196
58.3708
59.1549
59.6422
59.902
59.9853
59.9236
59.7327
59.4164
58.9674
58.3687
57.5938
56.604
55.3642
53.8814
52.1975
50.3459
48.3562
46.2694
44.1384
42.0286
40.0142
38.1745
36.5871
35.3134
34.3956
33.8131
33.4469
33.0105
9.25951
3.96146
-2.09805
-8.52913
-14.7981
-21.3563
-27.9123
-34.2656
-40.5013
-46.5142
-52.283
-57.8507
-63.1975
-68.3395
-73.2871
-78.0305
-82.5542
-86.8318
-90.8213
-94.4719
-97.7178
-100.486
-102.717
-104.344
-105.357
-105.759
-105.493
-104.457
-102.541
-99.6453
-95.6761
-90.5541
-84.2235
-76.665
-67.9078
-58.0551
-47.3189
-36.0827
-25.2545
14.2297
18.9618
24.1341
29.5224
34.5841
39.4211
43.8485
47.5489
50.4653
52.7155
54.373
55.5303
56.3149
56.8172
57.1037
57.2247
57.2113
57.0801
56.8365
56.4751
55.9817
55.333
54.4939
53.4314
52.1489
50.6819
49.058
47.3011
45.4448
43.533
41.621
39.7723
38.055
36.5367
35.2712
34.294
33.588
33.0496
32.4423
8.39929
3.34881
-2.42308
-8.54025
-14.4936
-20.7136
-26.921
-32.9253
-38.8077
-44.4689
-49.8891
-55.1097
-60.1126
-64.914
-69.5248
-73.9363
-78.1359
-82.1
-85.791
-89.163
-92.1574
-94.7076
-96.7599
-98.2582
-99.1942
-99.5781
-99.3589
-98.445
-96.737
-94.1405
-90.5675
-85.9412
-80.2051
-73.3345
-65.3492
-56.3349
-46.4738
-36.1011
-26.0364
13.1424
17.6616
22.6066
27.7648
32.6156
37.2583
41.5155
45.0815
47.8994
50.0824
51.6994
52.8384
53.6216
54.1359
54.4452
54.5989
54.6275
54.5482
54.3678
54.0827
53.6817
53.1436
52.4374
51.5324
50.4291
49.1571
47.7392
46.1945
44.5503
42.8425
41.1174
39.4281
37.8327
36.3889
35.1432
34.1249
33.3196
32.6386
31.8896
7.60911
2.79486
-2.70233
-8.52032
-14.1736
-20.072
-25.9488
-31.6226
-37.1716
-42.501
-47.5931
-52.4876
-57.168
-61.6507
-65.9462
-70.0477
-73.9445
-77.6155
-81.0272
-84.1382
-86.8957
-89.2399
-91.1223
-92.4956
-93.3549
-93.7141
-93.5298
-92.72
-91.1942
-88.8656
-85.6521
-81.4811
-76.2957
-70.068
-62.8085
-54.5867
-45.5562
-36.0051
-26.6713
12.1351
16.4506
21.1783
26.1157
30.7642
35.2202
39.3136
42.7498
45.4726
47.59
49.1672
50.2871
51.067
51.5906
51.9193
52.1009
52.1659
52.1318
52.0063
51.7878
51.4669
51.0258
50.4368
49.6709
48.7271
47.6296
46.3972
45.0451
43.5947
42.0755
40.5253
38.9882
37.5128
36.1476
34.9317
33.8892
33.0077
32.2117
31.3481
6.88449
2.29599
-2.93908
-8.47175
-13.8393
-19.4322
-24.9952
-30.3561
-35.5897
-40.6063
-45.3893
-49.9775
-54.3555
-58.5395
-62.5404
-66.3523
-69.9664
-73.3638
-76.5145
-79.3815
-81.9169
-84.0674
-85.7892
-87.0429
-87.8265
-88.1569
-87.9981
-87.2768
-85.9112
-83.8224
-80.9347
-77.1796
-72.5024
-66.8723
-60.2919
-52.8153
-44.5692
-35.7972
-27.1617
11.2029
15.3236
19.843
24.5688
29.0232
33.2996
37.2354
40.5462
43.1769
45.2302
46.768
47.8683
48.6434
49.174
49.5186
49.7242
49.8206
49.8255
49.7476
49.5868
49.3358
48.9793
48.4929
47.8498
47.0474
46.1054
45.0393
43.8607
42.5866
41.2405
39.8528
38.4598
37.1012
35.8171
34.6399
33.5885
32.652
31.7667
30.8137
6.22121
1.84841
-3.13629
-8.39687
-13.4926
-18.7949
-24.0599
-29.1247
-34.0599
-38.7813
-43.2736
-47.5738
-51.6681
-55.5724
-59.2977
-62.8391
-66.1892
-69.3315
-72.2389
-74.878
-77.2062
-79.175
-80.7459
-81.8859
-82.5961
-82.8959
-82.7554
-82.1092
-80.8848
-79.0103
-76.417
-73.0415
-68.8312
-63.7538
-57.8054
-51.026
-43.5173
-35.4815
-27.5113
10.341
14.2753
18.5953
23.1179
27.3859
31.4896
35.2735
38.4635
41.0048
42.9958
44.4944
45.5746
46.3435
46.8788
47.2366
47.4623
47.5856
47.6241
47.5873
47.4764
47.2859
47.003
46.6061
46.0712
45.3936
44.5897
43.6718
42.6489
41.5341
40.3458
39.1083
37.8505
36.6047
35.4029
34.2716
33.2248
32.2528
31.3018
30.2822
5.61517
1.44861
-3.29694
-8.29793
-13.1347
-18.1608
-23.1429
-27.927
-32.5804
-37.023
-41.2414
-45.2709
-49.0991
-52.7414
-56.2091
-59.4981
-62.602
-65.5064
-68.1873
-70.6143
-72.7491
-74.5483
-75.9783
-77.0112
-77.6514
-77.9198
-77.792
-77.2102
-76.1101
-74.4272
-72.0998
-69.0693
-65.2865
-60.7181
-55.355
-49.2246
-42.4057
-35.0631
-27.7254
9.54504
13.3008
17.4295
21.7573
25.8462
29.7838
33.4213
36.4945
38.9492
40.8792
42.3392
43.3986
44.1601
44.6981
45.0664
45.309
45.4552
45.5224
45.5208
45.4528
45.3146
45.0955
44.7766
44.3362
43.7687
43.0867
42.3005
41.4166
40.445
39.3998
38.3
37.1684
36.0302
34.9109
33.8311
32.8008
31.8107
30.8153
29.7498
5.0626
1.09312
-3.42379
-8.17722
-12.7672
-17.5306
-22.2444
-26.7623
-31.1489
-35.3285
-39.2888
-43.064
-46.6425
-50.0397
-53.2665
-56.3199
-59.1946
-61.8777
-64.3476
-66.5775
-68.5324
-70.1742
-71.4726
-72.4058
-72.9796
-73.2167
-73.0977
-72.5716
-71.5812
-70.0698
-67.9819
-65.2646
-61.8714
-57.7698
-52.9461
-47.4168
-41.2404
-34.5482
-27.8099
8.81059
12.3955
16.3408
20.4816
24.3984
28.1762
31.6725
34.6325
37.0032
38.8737
40.2955
41.3335
42.0865
42.6253
43.0017
43.2583
43.4237
43.5153
43.5438
43.5127
43.4194
43.2552
43.004
42.646
42.1749
41.6004
40.9305
40.1701
39.3265
38.4104
37.4361
36.4213
35.3853
34.3475
33.3235
32.3197
31.3267
30.3058
29.2131
4.55978
0.778806
-3.51969
-8.03678
-12.3919
-16.9053
-21.364
-25.6298
-29.7641
-33.6954
-37.4127
-40.9488
-44.2932
-47.4608
-50.4626
-53.2961
-55.9573
-58.4346
-60.7088
-62.7555
-64.5437
-66.0395
-67.2162
-68.0567
-68.5685
-68.7755
-68.6622
-68.1844
-67.2914
-65.9334
-64.0611
-61.6269
-58.588
-54.9127
-50.5838
-45.6087
-40.0283
-33.9438
-27.7718
8.1337
11.5548
15.3243
19.2854
23.0368
26.6607
30.0207
32.8716
35.1606
36.9729
38.3567
39.3731
40.1162
40.6542
41.0365
41.3044
41.4857
41.5979
41.6518
41.652
41.5971
41.4802
41.2875
41.0012
40.6142
40.1338
39.5663
38.9152
38.1855
37.3852
36.5247
35.6174
34.6775
33.7194
32.7541
31.785
30.8022
29.7725
28.669
4.10323
0.502563
-3.58721
-7.87872
-12.01
-16.2855
-20.5021
-24.5289
-28.4246
-32.1215
-35.6099
-38.9211
-42.0459
-44.9987
-47.7905
-50.419
-52.8815
-55.1676
-57.26
-59.1372
-60.7714
-62.1321
-63.1964
-63.9512
-64.4056
-64.5841
-64.4749
-64.0392
-63.2329
-62.012
-60.3336
-58.155
-55.4373
-52.1496
-48.2728
-43.8064
-38.7764
-33.2577
-27.6187
7.5105
10.7747
14.3755
18.1641
21.7565
25.2322
28.4607
31.2057
33.4154
35.1707
36.5168
37.511
38.2433
38.7789
39.165
39.4419
39.6363
39.7654
39.8408
39.8674
39.8452
39.7687
39.6262
39.4018
39.088
38.6898
38.212
37.6571
37.0284
36.3313
35.5735
34.7645
33.9145
33.0336
32.1288
31.2007
30.2392
29.2149
28.1148