/*--------------------------------*- C++ -*----------------------------------*\
  =========                 |
  \\      /  F ield         | OpenFOAM: The Open Source CFD Toolbox
   \\    /   O peration     | Website:  https://openfoam.org
    \\  /    A nd           | Version:  13
     \\/     M anipulation  |
\*---------------------------------------------------------------------------*/
FoamFile
{
    format      ascii;
    class       surfaceScalarField;
    location    "300";
    object      phi;
}
// * * * * * * * * * * * * * * * * * * * * * * * * * * * * * * * * * * * * * //

dimensions      [0 3 -1 0 0 0 0];

internalField   nonuniform List<scalar> 
21254
(
-0.241952
0.261461
-0.0195094
0.283422
-0.0219612
0.302217
-0.0187951
0.318959
-0.0167417
0.334792
-0.0158325
0.347388
-0.0125967
0.3573
-0.00991113
0.365334
-0.00803463
0.370572
-0.00523738
0.374087
-0.00351528
0.376133
-0.00204664
0.376541
-0.000407884
0.375672
0.00086891
0.373489
0.00218344
0.36993
0.00355892
0.365286
0.00464435
0.359376
0.00590945
0.352307
0.00706903
0.343942
0.00836546
0.334521
0.00942075
0.323729
0.0107918
0.312149
0.01158
0.300056
0.0120932
0.288763
0.0112934
0.279472
0.00929069
0.2715
0.00797218
0.263718
0.00778197
0.25581
0.00790837
0.24744
0.00836961
0.238521
0.00891905
0.229026
0.00949479
0.218947
0.0100793
0.208218
0.0107291
0.1966
0.0116175
0.183567
0.0130328
0.16806
0.0155076
0.147725
0.0203351
0.117135
0.0305901
0.0951561
0.0219795
-0.218854
-0.0230973
-0.194964
-0.0238901
-0.165515
-0.0294492
-0.133135
-0.0323801
-0.0989379
-0.034197
-0.0635191
-0.0354189
-0.0284549
-0.0350642
0.0041215
-0.0325764
0.0336375
-0.029516
0.0598104
-0.026173
0.0821954
-0.022385
0.101215
-0.0190199
0.117221
-0.0160058
0.130578
-0.013357
0.142005
-0.0114272
0.151838
-0.00983225
0.160557
-0.00871898
0.1684
-0.00784384
0.175682
-0.00728206
0.182529
-0.00684622
0.189111
-0.0065827
0.195423
-0.00631152
0.201396
-0.00597299
0.206405
-0.00500956
0.210265
-0.0038597
0.213253
-0.00298793
0.215366
-0.00211328
0.216721
-0.00135508
0.217332
-0.000610972
0.217142
0.000190464
0.216053
0.00108901
0.2142
0.00185255
0.211709
0.00249098
0.208643
0.00306641
0.204861
0.00378221
0.199937
0.00492383
0.192691
0.00724568
0.177785
0.0149064
0.155021
0.0227634
-0.220789
0.242365
-0.0410851
0.264422
-0.044019
0.28744
-0.0418123
0.308901
-0.0382028
0.329829
-0.0367606
0.349205
-0.0319733
0.366632
-0.0273373
0.382369
-0.0237719
0.39601
-0.0188781
0.407614
-0.01512
0.417203
-0.0116356
0.424916
-0.00812026
0.431063
-0.00527798
0.435797
-0.00255144
0.439004
0.000352246
0.440367
0.00328159
0.439812
0.0064648
0.437466
0.00941476
0.43283
0.013001
0.426201
0.0160501
0.41718
0.0198124
0.406066
0.0226942
0.392855
0.0253042
0.378189
0.025959
0.363338
0.0241418
0.348747
0.022563
0.334514
0.0220157
0.320859
0.0215633
0.307604
0.0216247
0.294604
0.0219185
0.281654
0.0224452
0.268594
0.0231394
0.255175
0.0241475
0.241187
0.0256059
0.226234
0.0279855
0.209322
0.0324204
0.189182
0.0404749
0.156926
0.0628463
0.11344
0.0654662
-0.198729
-0.0451571
-0.175092
-0.0475273
-0.147413
-0.0571284
-0.118122
-0.061671
-0.0870029
-0.0653158
-0.0544915
-0.0679303
-0.0221166
-0.0674391
0.00888958
-0.0635825
0.0373812
-0.0580075
0.062744
-0.0515359
0.0848926
-0.0445335
0.104127
-0.0382539
0.120887
-0.0327667
0.135401
-0.0278702
0.148104
-0.0241303
0.159297
-0.0210257
0.169272
-0.018694
0.178337
-0.0169087
0.186746
-0.0156912
0.194613
-0.0147133
0.202099
-0.014068
0.209273
-0.013486
0.216064
-0.0127641
0.222013
-0.0109587
0.226845
-0.00869174
0.230764
-0.00690664
0.233766
-0.00511515
0.235903
-0.00349178
0.237221
-0.00192913
0.237869
-0.000457367
0.237948
0.00100952
0.2374
0.00240056
0.236095
0.00379608
0.233988
0.00517327
0.231022
0.00674816
0.226952
0.00899387
0.221758
0.01244
0.210832
0.0258327
0.189721
0.0438735
-0.214273
0.236017
-0.0628291
0.257913
-0.0659152
0.281538
-0.0654365
0.303134
-0.0597994
0.323661
-0.057288
0.343306
-0.051618
0.360775
-0.0448063
0.376481
-0.0394777
0.38998
-0.032377
0.40156
-0.0267
0.411251
-0.021327
0.419218
-0.0160873
0.425291
-0.0113506
0.429949
-0.00720921
0.43294
-0.00263965
0.435007
0.00121461
0.435836
0.00563573
0.435775
0.00947579
0.434493
0.0142834
0.431929
0.0186144
0.427966
0.0237747
0.422435
0.0282253
0.415309
0.032431
0.406682
0.0345853
0.397077
0.0337471
0.386555
0.0330847
0.375008
0.0335633
0.362581
0.0339902
0.349448
0.0347577
0.335706
0.0356598
0.321505
0.0366467
0.306876
0.0377689
0.291761
0.0392616
0.27599
0.0413772
0.259174
0.0448019
0.240318
0.0512763
0.218246
0.0625467
0.185276
0.0958165
0.137698
0.113045
-0.192386
-0.067044
-0.168387
-0.0715264
-0.139665
-0.0858503
-0.109764
-0.0915729
-0.0785036
-0.0965758
-0.0460364
-0.100397
-0.0139799
-0.0994956
0.0159957
-0.0935582
0.043562
-0.0855738
0.0685455
-0.0765194
0.0906472
-0.0666352
0.110023
-0.0576298
0.12703
-0.0497736
0.141942
-0.0427824
0.155071
-0.0372591
0.166753
-0.0327072
0.177253
-0.0291943
0.186838
-0.0264943
0.195718
-0.0245711
0.204057
-0.023052
0.21204
-0.0220506
0.219681
-0.021127
0.226889
-0.019972
0.233363
-0.0174328
0.238817
-0.0141457
0.243352
-0.0114424
0.247028
-0.00879037
0.249874
-0.00633819
0.251956
-0.00401099
0.253267
-0.00176818
0.253878
0.000398501
0.253783
0.00249532
0.253005
0.00457407
0.251471
0.00670716
0.249077
0.0091426
0.245437
0.0126337
0.240121
0.0177557
0.229431
0.0365223
0.209403
0.0639018
-0.206645
0.229399
-0.0855832
0.252209
-0.0887248
0.277282
-0.0905098
0.300161
-0.0826777
0.322324
-0.0794515
0.343556
-0.0728499
0.363038
-0.0642887
0.380584
-0.0570235
0.396409
-0.0482019
0.410289
-0.04058
0.422341
-0.0333787
0.432562
-0.0263082
0.440984
-0.0197731
0.447645
-0.0138703
0.452866
-0.00786004
0.456274
-0.00219322
0.458015
0.00389391
0.457848
0.00964329
0.456098
0.0160329
0.452644
0.0220683
0.447634
0.0287854
0.441316
0.0345431
0.43382
0.0399271
0.425651
0.042754
0.417241
0.0421575
0.408644
0.0416813
0.399489
0.0427183
0.389626
0.0438532
0.378875
0.0455089
0.367058
0.047477
0.35417
0.0495345
0.340201
0.051738
0.325153
0.0543096
0.308904
0.0576264
0.291201
0.0625047
0.2711
0.0713775
0.247347
0.0862993
0.21307
0.130094
0.164865
0.16125
-0.184173
-0.0895159
-0.160065
-0.0956345
-0.130812
-0.115103
-0.100772
-0.121613
-0.0694443
-0.127904
-0.0368715
-0.13297
-0.00489536
-0.131472
0.0247049
-0.123158
0.0517591
-0.112628
0.0763377
-0.101098
0.0981012
-0.0883987
0.117288
-0.0768161
0.134306
-0.0667921
0.149396
-0.0578725
0.162874
-0.0507371
0.174965
-0.0447976
0.185956
-0.0401861
0.196029
-0.0365666
0.205412
-0.0339539
0.214244
-0.0318846
0.222639
-0.0304452
0.230661
-0.0291495
0.238252
-0.0275629
0.245093
-0.024274
0.250943
-0.0199959
0.255863
-0.0163617
0.259896
-0.0128234
0.263091
-0.00953341
0.265481
-0.00640079
0.267122
-0.00340941
0.268043
-0.000522247
0.268268
0.0022699
0.267797
0.00504558
0.266613
0.007891
0.264596
0.011159
0.261368
0.0158625
0.256332
0.0227912
0.246141
0.0467135
0.226471
0.0835717
-0.20253
0.226101
-0.109154
0.249796
-0.112419
0.276288
-0.117002
0.299937
-0.106327
0.32313
-0.102644
0.34547
-0.0951904
0.365859
-0.0846772
0.384397
-0.0755619
0.401387
-0.0651917
0.41617
-0.0553631
0.42914
-0.0463485
0.440234
-0.037402
0.44973
-0.0292693
0.457295
-0.0214352
0.463108
-0.0136733
0.467172
-0.00625688
0.469643
0.00142216
0.470563
0.00872414
0.469683
0.0169124
0.467269
0.0244826
0.463174
0.0328805
0.457537
0.0401801
0.450595
0.0468693
0.442744
0.0506045
0.434561
0.050341
0.426251
0.0499906
0.41767
0.0512998
0.408752
0.0527708
0.399356
0.0549051
0.389313
0.0575205
0.378373
0.0604738
0.36631
0.0638015
0.352907
0.0677123
0.337877
0.0726565
0.32081
0.0795714
0.300829
0.0913587
0.276502
0.110627
0.241512
0.165083
0.193224
0.209539
-0.179016
-0.11303
-0.154202
-0.120449
-0.123708
-0.145597
-0.0928401
-0.15248
-0.0608051
-0.159939
-0.0276188
-0.166156
0.00477816
-0.163869
0.03443
-0.15281
0.061302
-0.1395
0.0856249
-0.125421
0.107098
-0.109872
0.12606
-0.0957774
0.143002
-0.0837345
0.158136
-0.0730061
0.171773
-0.0643746
0.184176
-0.0572003
0.19552
-0.0515298
0.205987
-0.0470339
0.215771
-0.043738
0.22501
-0.0411234
0.233797
-0.0392321
0.242172
-0.0375246
0.250101
-0.0354916
0.257309
-0.031482
0.263536
-0.0262231
0.268814
-0.0216397
0.273175
-0.0171847
0.276672
-0.0130303
0.279332
-0.00906104
0.281189
-0.00526572
0.282281
-0.00161486
0.282664
0.00188755
0.282329
0.00537994
0.28124
0.00898032
0.279343
0.0130562
0.276246
0.018959
0.271344
0.0276936
0.261697
0.0563602
0.242696
0.102573
-0.199204
0.223793
-0.133743
0.248818
-0.137444
0.27669
-0.144874
0.301551
-0.131188
0.325766
-0.126858
0.349483
-0.118908
0.370844
-0.106038
0.390669
-0.0953874
0.408648
-0.0831705
0.424664
-0.0713795
0.438948
-0.0606319
0.451308
-0.0497623
0.461968
-0.0399293
0.470904
-0.0303714
0.477976
-0.0207446
0.483498
-0.0117796
0.487091
-0.00217092
0.488849
0.00696608
0.488882
0.0168795
0.487014
0.0263511
0.483296
0.0365983
0.477953
0.0455229
0.471139
0.0536838
0.463275
0.0584686
0.454877
0.0587387
0.446209
0.0586579
0.437227
0.0602818
0.427945
0.0620532
0.418367
0.0644837
0.40842
0.0674671
0.398033
0.0708605
0.386974
0.0748604
0.374973
0.079714
0.361598
0.0860311
0.346236
0.094934
0.327699
0.109895
0.304371
0.133955
0.270016
0.199438
0.222243
0.257311
-0.174722
-0.137512
-0.149093
-0.146078
-0.117291
-0.177399
-0.0852848
-0.184487
-0.0522531
-0.192971
-0.0181402
-0.200269
0.0149622
-0.196971
0.0449532
-0.182801
0.07192
-0.166467
0.0961682
-0.149669
0.117461
-0.131165
0.136202
-0.114519
0.152989
-0.100521
0.168077
-0.0880948
0.181773
-0.07807
0.194331
-0.0697588
0.205913
-0.0631114
0.216708
-0.0578295
0.226844
-0.0538732
0.236446
-0.0507254
0.245605
-0.0483914
0.254343
-0.0462626
0.262606
-0.0437546
0.270209
-0.0390849
0.276824
-0.0328381
0.282442
-0.0272578
0.287147
-0.0218901
0.290935
-0.0168182
0.293853
-0.0119789
0.29593
-0.00734304
0.297205
-0.00288979
0.297704
0.00138923
0.297432
0.00565213
0.296404
0.0100077
0.294472
0.0149886
0.291341
0.02209
0.28632
0.0327147
0.276959
0.0657213
0.258665
0.120867
-0.197186
0.223105
-0.159662
0.249167
-0.163506
0.278612
-0.174319
0.304753
-0.157329
0.330228
-0.152334
0.355025
-0.143705
0.377563
-0.128575
0.398242
-0.116067
0.417277
-0.102205
0.434238
-0.088341
0.449358
-0.0757517
0.462777
-0.063181
0.474358
-0.0515112
0.484167
-0.04018
0.492265
-0.0288422
0.498471
-0.0179857
0.50294
-0.00664015
0.505576
0.00433059
0.506401
0.0160541
0.505353
0.0273995
0.502471
0.0394801
0.497819
0.0501752
0.491721
0.059781
0.484363
0.0658269
0.476254
0.066848
0.467632
0.06728
0.458504
0.06941
0.448903
0.0716534
0.438917
0.0744704
0.428511
0.0778723
0.417696
0.0816761
0.406427
0.0861287
0.394576
0.0915652
0.381809
0.0987982
0.367619
0.109124
0.3508
0.126714
0.329519
0.155236
0.297488
0.23147
0.251259
0.30354
-0.171496
-0.163203
-0.144761
-0.172813
-0.111512
-0.210648
-0.0781984
-0.2178
-0.043968
-0.227201
-0.00861517
-0.235622
0.0254553
-0.231042
0.0561006
-0.213447
0.0834129
-0.193779
0.107813
-0.174069
0.129031
-0.152383
0.147619
-0.133107
0.164254
-0.117157
0.179233
-0.103074
0.192892
-0.0917288
0.205515
-0.082382
0.217269
-0.0748658
0.228296
-0.0688556
0.238725
-0.0643028
0.248649
-0.0606496
0.258138
-0.05788
0.267204
-0.0553289
0.275824
-0.0523745
0.283752
-0.0470132
0.29076
-0.0398458
0.296769
-0.0332669
0.3018
-0.026921
0.305902
-0.0209202
0.309077
-0.0151537
0.311386
-0.00965198
0.312829
-0.00433271
0.313463
0.00075521
0.313295
0.00582022
0.312271
0.0110309
0.310338
0.0169217
0.307113
0.0253152
0.301906
0.0379221
0.292624
0.0750027
0.274955
0.138536
-0.195897
0.223152
-0.186917
0.25065
-0.191004
0.281779
-0.205449
0.309122
-0.184672
0.335891
-0.179102
0.361942
-0.169757
0.385501
-0.152134
0.407399
-0.137965
0.42725
-0.122056
0.445151
-0.106241
0.461326
-0.0919267
0.47561
-0.0774651
0.488077
-0.0639791
0.498846
-0.050949
0.507848
-0.0378443
0.515038
-0.0251755
0.520444
-0.0120456
0.523994
0.000780772
0.5256
0.0144475
0.525268
0.0277319
0.523082
0.0416659
0.519045
0.0542123
0.513398
0.0654277
0.506496
0.0727289
0.498664
0.0746802
0.490161
0.0757831
0.481044
0.0785269
0.471317
0.0813806
0.461025
0.0847618
0.450233
0.0886645
0.438891
0.093018
0.427049
0.0979714
0.414614
0.104
0.40149
0.111922
0.387286
0.123328
0.371156
0.142844
0.351593
0.1748
0.322789
0.260274
0.279313
0.347016
-0.168977
-0.190123
-0.141084
-0.200706
-0.106121
-0.245611
-0.0712878
-0.252633
-0.0356335
-0.262855
0.00108905
-0.272345
0.0363805
-0.266333
0.0678919
-0.244958
0.0957396
-0.221627
0.12043
-0.19876
0.141726
-0.173678
0.160232
-0.151613
0.176737
-0.133662
0.191586
-0.117922
0.20516
-0.105303
0.217802
-0.0950244
0.229628
-0.0866917
0.240816
-0.0800437
0.251463
-0.0749492
0.261658
-0.0708449
0.271431
-0.0676528
0.280824
-0.0647217
0.289772
-0.0613227
0.298068
-0.0553098
0.305446
-0.0472234
0.311822
-0.0396429
0.317207
-0.0323065
0.321631
-0.0253434
0.325084
-0.0186075
0.327612
-0.0121794
0.329258
-0.00597915
0.330026
-1.24494e-05
0.329946
0.00590046
0.328971
0.0120053
0.32699
0.0189033
0.323672
0.028633
0.318293
0.0433014
0.309009
0.0842861
0.291952
0.155594
-0.195458
0.22408
-0.215539
0.253027
-0.21995
0.285857
-0.238278
0.314592
-0.213408
0.342834
-0.207343
0.370246
-0.197169
0.39503
-0.176918
0.417815
-0.160749
0.438786
-0.143027
0.457524
-0.12498
0.474411
-0.108813
0.489517
-0.0925708
0.502854
-0.077316
0.51443
-0.0625256
0.524248
-0.0476619
0.532328
-0.0332561
0.538537
-0.0182541
0.542829
-0.00351092
0.545192
0.0120839
0.545582
0.0273424
0.544078
0.04317
0.54072
0.0575698
0.535678
0.07047
0.529265
0.0791419
0.521812
0.0821326
0.513528
0.0840679
0.504464
0.0875906
0.494695
0.0911498
0.484281
0.0951749
0.473216
0.0997298
0.461509
0.104725
0.449164
0.110316
0.436127
0.117037
0.422283
0.125767
0.407411
0.1382
0.390874
0.15938
0.371789
0.193885
0.345798
0.286265
0.30552
0.387294
-0.167046
-0.218535
-0.1378
-0.229952
-0.101061
-0.28235
-0.0646695
-0.289025
-0.0273612
-0.300164
0.0109361
-0.310642
0.0476904
-0.303087
0.0802515
-0.277519
0.108821
-0.250196
0.13398
-0.223919
0.155472
-0.19517
0.174004
-0.170144
0.190433
-0.150091
0.205164
-0.132654
0.218635
-0.118774
0.231207
-0.107595
0.243063
-0.0985481
0.254339
-0.0913197
0.265139
-0.0857491
0.275551
-0.0812566
0.285607
-0.0777086
0.29527
-0.0743854
0.304525
-0.0705777
0.313174
-0.0639588
0.320942
-0.0549908
0.327671
-0.0463723
0.333414
-0.0380491
0.338139
-0.0300692
0.341895
-0.0223627
0.344676
-0.0149607
0.346512
-0.00781536
0.347439
-0.000939269
0.347445
0.00589461
0.346515
0.0129356
0.344532
0.0208862
0.341138
0.0320263
0.335571
0.048869
0.326305
0.0935517
0.309851
0.172048
-0.195464
0.225701
-0.245776
0.256197
-0.250446
0.290923
-0.273004
0.321118
-0.243602
0.350648
-0.236874
0.379538
-0.226059
0.405497
-0.202877
0.429426
-0.184678
0.451386
-0.164987
0.471007
-0.144601
0.488754
-0.12656
0.504741
-0.108558
0.518788
-0.091363
0.531086
-0.0748242
0.541771
-0.0583471
0.550561
-0.0420455
0.55755
-0.0252437
0.562599
-0.00855957
0.565764
0.00891927
0.566943
0.0261635
0.566054
0.0440589
0.563348
0.0602756
0.558887
0.0749313
0.552979
0.0850497
0.54588
0.089231
0.537765
0.0921829
0.528809
0.0965468
0.519057
0.100902
0.508504
0.105727
0.497259
0.110975
0.485273
0.116711
0.472522
0.123068
0.458968
0.130591
0.444489
0.140246
0.428862
0.153827
0.411468
0.176774
0.391772
0.21358
0.367277
0.310761
0.329768
0.424803
-0.165682
-0.248317
-0.134969
-0.260665
-0.0962698
-0.321049
-0.0580179
-0.327277
-0.0190286
-0.339153
0.0211047
-0.350775
0.0593879
-0.341371
0.0931895
-0.311321
0.122652
-0.279658
0.148449
-0.249716
0.170264
-0.216985
0.188893
-0.188772
0.205314
-0.166512
0.219954
-0.147295
0.233314
-0.132134
0.245806
-0.120087
0.257625
-0.110368
0.268927
-0.102621
0.279849
-0.096672
0.290426
-0.0918328
0.300664
-0.0879473
0.310604
-0.0843254
0.320164
-0.0801378
0.329144
-0.0729383
0.33726
-0.0631068
0.344373
-0.0534855
0.350448
-0.0441244
0.355518
-0.0351392
0.359558
-0.0264024
0.362592
-0.0179951
0.364655
-0.00987817
0.365726
-0.00201041
0.365853
0.00576836
0.364979
0.0138091
0.362977
0.0228885
0.359495
0.0355082
0.353806
0.0545577
0.344581
0.102777
0.328705
0.187924
-0.196095
0.227902
-0.277583
0.259978
-0.282522
0.296634
-0.309661
0.328513
-0.275481
0.359663
-0.268024
0.390028
-0.256424
0.417134
-0.229983
0.442296
-0.20984
0.465295
-0.187986
0.485862
-0.165168
0.504403
-0.145101
0.521027
-0.125182
0.535877
-0.106213
0.549024
-0.0879709
0.5603
-0.0696239
0.569868
-0.0516135
0.57758
-0.0329554
0.583419
-0.0143988
0.587246
0.00509312
0.589096
0.0243133
0.588927
0.0442277
0.586801
0.062402
0.58292
0.0788119
0.577524
0.0904462
0.570826
0.0959283
0.563017
0.0999924
0.554181
0.105383
0.5444
0.110683
0.5338
0.116328
0.522339
0.122436
0.510081
0.128969
0.496999
0.136149
0.483012
0.144579
0.467983
0.155275
0.451654
0.170156
0.433452
0.194976
0.412697
0.234336
0.388513
0.334945
0.352832
0.460484
-0.164637
-0.279775
-0.132417
-0.292884
-0.0916422
-0.361825
-0.0514591
-0.36746
-0.010505
-0.380107
0.0314939
-0.392774
0.0715407
-0.381417
0.106733
-0.346513
0.137261
-0.310187
0.163772
-0.276227
0.186051
-0.239264
0.204891
-0.207612
0.221379
-0.183
0.235962
-0.161878
0.249224
-0.145396
0.261615
-0.132478
0.273367
-0.12212
0.28467
-0.113924
0.29562
-0.107622
0.306307
-0.10252
0.316748
-0.0983887
0.326911
-0.0944877
0.336727
-0.0899545
0.346036
-0.0822469
0.354503
-0.071574
0.361968
-0.060951
0.368411
-0.0505672
0.373804
-0.0405319
0.37816
-0.030758
0.381456
-0.0212918
0.38372
-0.0121415
0.384986
-0.00327649
0.38522
0.0055341
0.384412
0.0146175
0.3824
0.0249002
0.378868
0.0390404
0.373043
0.0603828
0.363876
0.111944
0.348638
0.203162
-0.197046
0.230655
-0.311192
0.264491
-0.316358
0.303188
-0.348357
0.336669
-0.308962
0.369434
-0.300788
0.401386
-0.288376
0.430003
-0.2586
0.456302
-0.23614
0.480378
-0.212062
0.501851
-0.186641
0.521294
-0.164544
0.538786
-0.142674
0.554255
-0.121681
0.568026
-0.101742
0.580079
-0.0816764
0.590335
-0.0618702
0.598708
-0.0413282
0.605182
-0.0208725
0.60969
0.000584975
0.612231
0.0217719
0.612739
0.0437196
0.611277
0.0638643
0.60798
0.0821091
0.603082
0.0953445
0.596773
0.102237
0.589239
0.107527
0.580556
0.114066
0.570848
0.120391
0.560154
0.127022
0.548547
0.134043
0.536029
0.141487
0.522591
0.149587
0.508202
0.158967
0.492661
0.170816
0.475716
0.187102
0.456809
0.213883
0.435026
0.256119
0.410408
0.359563
0.375816
0.495076
-0.163951
-0.312871
-0.130002
-0.326833
-0.0870938
-0.404732
-0.0448195
-0.409735
-0.00182185
-0.423105
0.0422269
-0.436823
0.0842152
-0.423406
0.120904
-0.383201
0.152604
-0.341887
0.180016
-0.303639
0.20287
-0.262118
0.222022
-0.226764
0.23861
-0.199589
0.253201
-0.176468
0.266387
-0.158582
0.278682
-0.144774
0.290338
-0.133776
0.301588
-0.125174
0.312563
-0.118597
0.323311
-0.113267
0.333871
-0.108949
0.344214
-0.104831
0.354305
-0.100045
0.363913
-0.0918555
0.372719
-0.0803795
0.380537
-0.0687689
0.387318
-0.0573486
0.393058
-0.0462719
0.397698
-0.0353975
0.401278
-0.024872
0.403777
-0.0146411
0.405212
-0.00471133
0.405591
0.00515485
0.404835
0.0153739
0.402839
0.0268958
0.399246
0.0426339
0.393314
0.0663148
0.384271
0.120986
0.36969
0.217744
-0.198502
0.233819
-0.346509
0.269516
-0.352055
0.310373
-0.389214
0.345711
-0.344301
0.38023
-0.335308
0.413825
-0.321971
0.443864
-0.288639
0.471502
-0.263778
0.496642
-0.237202
0.519105
-0.209104
0.539386
-0.184825
0.557619
-0.160907
0.57391
-0.137973
0.588389
-0.116221
0.60106
-0.094347
0.611914
-0.0727241
0.620959
-0.0503739
0.628123
-0.0280361
0.633292
-0.00458417
0.636405
0.0186589
0.637543
0.0425813
0.636664
0.0647436
0.633932
0.0848413
0.629582
0.0996942
0.623767
0.108052
0.61653
0.114764
0.608052
0.122544
0.598398
0.130045
0.58766
0.13776
0.575915
0.145788
0.56317
0.154232
0.549402
0.163355
0.534568
0.173802
0.518514
0.18687
0.500975
0.20464
0.481414
0.233444
0.458819
0.278714
0.433532
0.38485
0.399588
0.52902
-0.163485
-0.347888
-0.127877
-0.362441
-0.0826012
-0.450008
-0.0381373
-0.454198
0.00710597
-0.468348
0.0534203
-0.483137
0.0973713
-0.467357
0.135762
-0.421593
0.168761
-0.374886
0.197178
-0.332056
0.220701
-0.285642
0.240251
-0.246313
0.257065
-0.216404
0.271711
-0.191114
0.284853
-0.171723
0.297061
-0.156981
0.30862
-0.145335
0.319791
-0.136345
0.330723
-0.129529
0.341506
-0.12405
0.352149
-0.119592
0.362659
-0.11534
0.372957
-0.110343
0.382858
-0.101756
0.391978
-0.0895002
0.400134
-0.076925
0.407259
-0.0644727
0.413307
-0.0523207
0.418271
-0.0403614
0.422129
-0.0287299
0.424875
-0.0173865
0.426515
-0.00635205
0.427025
0.00464508
0.426359
0.0160399
0.424368
0.0288868
0.420754
0.0462478
0.414744
0.072325
0.405791
0.12994
0.391917
0.231617
-0.2002
0.237463
-0.383773
0.275127
-0.389719
0.318284
-0.432371
0.355514
-0.38153
0.391817
-0.371611
0.427173
-0.357327
0.458763
-0.320229
0.487717
-0.292732
0.514094
-0.263579
0.537556
-0.232566
0.558807
-0.206076
0.577828
-0.179927
0.594833
-0.154979
0.609989
-0.131377
0.623205
-0.107563
0.634743
-0.0842621
0.644412
-0.0600426
0.652169
-0.0357935
0.657991
-0.0104059
0.661769
0.0148808
0.66349
0.040861
0.663222
0.0650109
0.661067
0.0869972
0.657223
0.103537
0.651828
0.113447
0.64492
0.121672
0.636678
0.130785
0.627147
0.139576
0.616399
0.148509
0.604529
0.157658
0.591547
0.167214
0.577467
0.177435
0.562195
0.189073
0.545651
0.203415
0.527514
0.222777
0.507308
0.253651
0.483958
0.302063
0.458076
0.410732
0.424626
0.56247
-0.163404
-0.384683
-0.125749
-0.400096
-0.0780955
-0.497662
-0.0312544
-0.501039
0.0162996
-0.515902
0.0649441
-0.531782
0.11116
-0.513572
0.151335
-0.461768
0.185804
-0.409355
0.215326
-0.361578
0.239632
-0.309948
0.259655
-0.266336
0.276747
-0.233496
0.291497
-0.205864
0.304623
-0.184849
0.316771
-0.169128
0.328242
-0.156806
0.339305
-0.147409
0.350179
-0.140403
0.360958
-0.134829
0.371656
-0.130291
0.382274
-0.125959
0.392775
-0.120844
0.402928
-0.111909
0.412344
-0.0989162
0.42082
-0.0854013
0.428276
-0.0719283
0.434665
-0.0587098
0.439941
-0.0456373
0.444082
-0.0328712
0.44707
-0.0203745
0.448902
-0.00818431
0.44957
0.00397785
0.448994
0.0166153
0.447034
0.0308472
0.443394
0.0498879
0.43734
0.0783791
0.428562
0.138717
0.415382
0.244798
-0.202214
0.241585
-0.423144
0.281272
-0.429406
0.326844
-0.477943
0.36603
-0.420716
0.404268
-0.409849
0.441581
-0.39464
0.4747
-0.353348
0.505102
-0.323134
0.532841
-0.291317
0.557408
-0.257134
0.579549
-0.228217
0.599422
-0.199801
0.617062
-0.172618
0.632898
-0.147213
0.646871
-0.121536
0.658978
-0.0963689
0.669251
-0.0703156
0.677581
-0.0441236
0.683892
-0.0167173
0.688242
0.0105312
0.690577
0.0385259
0.690833
0.064755
0.689234
0.0885963
0.685915
0.106856
0.68099
0.118372
0.674488
0.128173
0.666458
0.138816
0.657065
0.148969
0.646375
0.159199
0.634413
0.16962
0.62124
0.180386
0.606838
0.191838
0.591195
0.204716
0.574135
0.220475
0.55538
0.241532
0.534519
0.274512
0.510524
0.326059
0.484067
0.437189
0.451141
0.595396
-0.163415
-0.423482
-0.123884
-0.439627
-0.0735676
-0.547978
-0.024243
-0.550364
0.0258016
-0.565947
0.0770134
-0.582994
0.125518
-0.562077
0.167675
-0.503924
0.203665
-0.445345
0.23445
-0.392363
0.259612
-0.335109
0.280236
-0.286961
0.297682
-0.250942
0.312603
-0.220786
0.325778
-0.198024
0.337866
-0.181217
0.34924
-0.16818
0.360224
-0.158392
0.371014
-0.151193
0.381743
-0.145558
0.392458
-0.141005
0.403178
-0.136678
0.41384
-0.131506
0.424217
-0.122286
0.433925
-0.108625
0.442702
-0.0941778
0.450475
-0.0797013
0.457172
-0.0654069
0.462758
-0.0512236
0.467174
-0.0372867
0.470423
-0.0236238
0.472483
-0.0102443
0.473294
0.00316731
0.472836
0.0170731
0.470924
0.0327591
0.467276
0.0535356
0.461208
0.0844475
0.452578
0.147347
0.440146
0.25723
-0.204598
0.246129
-0.464675
0.287946
-0.471223
0.336032
-0.526029
0.377286
-0.461971
0.417646
-0.450208
0.456916
-0.433911
0.491743
-0.388174
0.523706
-0.355097
0.552741
-0.320353
0.578409
-0.282801
0.601547
-0.251355
0.6223
-0.220554
0.640816
-0.191134
0.657285
-0.163682
0.671848
-0.136098
0.68454
-0.109061
0.695365
-0.0811407
0.704253
-0.0530121
0.711214
-0.023678
0.716085
0.00566053
0.718916
0.0356946
0.719759
0.0639116
0.71866
0.0896959
0.71584
0.109676
0.711354
0.122858
0.705225
0.134302
0.697503
0.146538
0.688279
0.158192
0.677629
0.169849
0.665608
0.181642
0.652275
0.193718
0.637611
0.206502
0.621556
0.220772
0.604002
0.238029
0.584672
0.260862
0.563181
0.296002
0.538518
0.350721
0.51156
0.464148
0.47918
0.627775
-0.163633
-0.464447
-0.121955
-0.481304
-0.0689371
-0.600996
-0.0169831
-0.602318
0.0357058
-0.618636
0.0896043
-0.636892
0.140607
-0.61308
0.184835
-0.548152
0.222526
-0.483036
0.254634
-0.424472
0.280788
-0.361263
0.302057
-0.308229
0.319915
-0.2688
0.335073
-0.235944
0.348325
-0.211275
0.36041
-0.193302
0.371704
-0.179474
0.382585
-0.169273
0.393284
-0.161892
0.403957
-0.156232
0.414656
-0.151705
0.425419
-0.147441
0.436218
-0.142305
0.446824
-0.132891
0.456776
-0.118576
0.465829
-0.103231
0.473902
-0.0877745
0.480908
-0.0724133
0.4868
-0.0571152
0.491515
-0.0420015
0.49502
-0.0271295
0.497279
-0.0125025
0.498283
0.00216287
0.497931
0.0174247
0.496084
0.0346066
0.492453
0.0571664
0.486389
0.0905118
0.47797
0.155765
0.466315
0.268884
-0.207195
0.250945
-0.508426
0.295093
-0.515371
0.345863
-0.576799
0.389353
-0.505461
0.431875
-0.49273
0.473181
-0.475216
0.509867
-0.42486
0.543443
-0.388673
0.573862
-0.350772
0.600764
-0.309703
0.62504
-0.275631
0.646651
-0.242165
0.665935
-0.210418
0.683136
-0.180883
0.698299
-0.151262
0.711593
-0.122355
0.722959
-0.0925068
0.732414
-0.0624664
0.739843
-0.0311072
0.745272
0.000231411
0.74861
0.0323566
0.749923
0.0625985
0.749357
0.0902623
0.747014
0.112019
0.74301
0.126862
0.737252
0.14006
0.729819
0.15397
0.720793
0.167218
0.710216
0.180426
0.698186
0.193672
0.68471
0.207194
0.669798
0.221414
0.653388
0.237182
0.635361
0.256056
0.61548
0.280743
0.593318
0.318164
0.568055
0.375985
0.540638
0.491564
0.508775
0.659638
-0.164007
-0.507635
-0.120119
-0.525192
-0.0642331
-0.656881
-0.00944494
-0.657106
0.0460172
-0.674098
0.102723
-0.693598
0.156432
-0.666789
0.202844
-0.594565
0.242367
-0.522559
0.275914
-0.458019
0.303116
-0.388464
0.32512
-0.330233
0.343493
-0.287173
0.358934
-0.251385
0.372318
-0.224659
0.384435
-0.205419
0.395683
-0.190722
0.406475
-0.180065
0.417075
-0.172492
0.42766
-0.166816
0.438332
-0.162377
0.44912
-0.158229
0.460025
-0.15321
0.470798
-0.143664
0.480973
-0.128751
0.490301
-0.112559
0.498654
-0.0961274
0.505968
-0.0797274
0.512144
-0.0632915
0.517145
-0.0470021
0.520909
-0.0308938
0.523412
-0.0150056
0.524583
0.000991894
0.524353
0.0176552
0.522591
0.0363678
0.518989
0.0607689
0.512992
0.0965083
0.504777
0.163981
0.49388
0.279781
-0.210119
0.256272
-0.554579
0.302861
-0.56196
0.356317
-0.630255
0.402275
-0.551419
0.446965
-0.53742
0.490544
-0.518796
0.52908
-0.463396
0.564374
-0.423967
0.596337
-0.382735
0.62455
-0.337916
0.649811
-0.300892
0.672461
-0.264814
0.69251
-0.230468
0.71043
-0.198803
0.726328
-0.16716
0.740163
-0.13619
0.752108
-0.104452
0.762066
-0.0724245
0.770048
-0.0390896
0.775932
-0.00565209
0.779743
0.0285451
0.781581
0.0607612
0.781432
0.0904106
0.779555
0.113896
0.775965
0.130452
0.77059
0.145435
0.763483
0.161078
0.754679
0.176022
0.744257
0.190848
0.732218
0.205711
0.718631
0.220781
0.703487
0.236559
0.686737
0.253931
0.66828
0.274513
0.647815
0.301208
0.625072
0.340907
0.599207
0.40185
0.571314
0.519458
0.539991
0.690961
-0.16459
-0.553164
-0.11832
-0.571462
-0.059352
-0.715849
-0.00165692
-0.714801
0.0567987
-0.732553
0.116513
-0.753312
0.172961
-0.723236
0.2218
-0.643404
0.263229
-0.563989
0.298366
-0.493156
0.326727
-0.416825
0.349556
-0.353063
0.368487
-0.306104
0.384274
-0.267172
0.397844
-0.238229
0.410005
-0.21758
0.421247
-0.201964
0.431948
-0.190766
0.442448
-0.182992
0.452944
-0.177312
0.463559
-0.172993
0.47435
-0.16902
0.48534
-0.164201
0.496269
-0.154593
0.506653
-0.139136
0.516206
-0.122112
0.524816
-0.104737
0.532396
-0.0873072
0.538871
-0.0697669
0.544141
-0.0522714
0.548178
-0.0349309
0.550894
-0.0177219
0.552269
-0.000383294
0.552201
0.0177238
0.550505
0.0380637
0.546996
0.0642777
0.541061
0.102443
0.533124
0.171917
0.523
0.289906
-0.213276
0.261958
-0.603261
0.311018
-0.61102
0.367543
-0.68678
0.415812
-0.599688
0.463026
-0.584635
0.508872
-0.564642
0.549519
-0.504043
0.586544
-0.460993
0.620091
-0.416282
0.649638
-0.367462
0.676179
-0.327434
0.69976
-0.288395
0.720752
-0.25146
0.739428
-0.217479
0.755957
-0.183689
0.770413
-0.150646
0.782876
-0.116915
0.793318
-0.0828665
0.801734
-0.0475053
0.808103
-0.0120215
0.81241
0.024238
0.814621
0.0585501
0.814923
0.0901086
0.8135
0.115319
0.810328
0.133624
0.805376
0.150387
0.798587
0.167867
0.790007
0.184601
0.7797
0.201155
0.76772
0.217691
0.754058
0.234442
0.738717
0.2519
0.72166
0.270987
0.702776
0.293397
0.681817
0.322167
0.658483
0.364242
0.632058
0.428274
0.603736
0.54778
0.572913
0.721784
-0.165279
-0.601162
-0.116506
-0.620235
-0.0543217
-0.778034
0.00643941
-0.775563
0.0680339
-0.794148
0.130936
-0.816214
0.190387
-0.782687
0.2417
-0.694716
0.2852
-0.607489
0.32199
-0.529946
0.351616
-0.446451
0.375357
-0.376803
0.394915
-0.325662
0.411123
-0.28338
0.424925
-0.252032
0.437195
-0.22985
0.448428
-0.213197
0.459077
-0.201415
0.469482
-0.193397
0.479905
-0.187735
0.490436
-0.183524
0.501223
-0.179806
0.512261
-0.175239
0.52332
-0.165652
0.533885
-0.149701
0.543635
-0.131862
0.552501
-0.113604
0.56034
-0.095146
0.567064
-0.0764909
0.572632
-0.0578389
0.576915
-0.0392145
0.579875
-0.0206814
0.581425
-0.00193379
0.581509
0.0176403
0.579952
0.0396204
0.576513
0.0677171
0.57072
0.108236
0.563038
0.179599
0.553702
0.299241
-0.216726
0.268025
-0.654559
0.319758
-0.662753
0.379335
-0.746357
0.430328
-0.65068
0.479986
-0.634293
0.528363
-0.613019
0.571026
-0.546706
0.610007
-0.499973
0.645252
-0.451528
0.676285
-0.398494
0.704003
-0.355152
0.728737
-0.313129
0.750611
-0.273334
0.770083
-0.236951
0.787256
-0.200861
0.802353
-0.165743
0.815327
-0.12989
0.826257
-0.093796
0.83518
-0.056428
0.84196
-0.0188019
0.846655
0.0195433
0.849296
0.0559091
0.850001
0.0894039
0.848978
0.116342
0.846224
0.136378
0.841624
0.154987
0.835155
0.174336
0.826867
0.192889
0.816734
0.211289
0.804794
0.229631
0.791076
0.24816
0.775589
0.267388
0.758263
0.288313
0.738985
0.312675
0.717543
0.343608
0.693658
0.388127
0.66671
0.455222
0.637979
0.576511
0.607608
0.752154
-0.166083
-0.651804