/*--------------------------------*- C++ -*----------------------------------*\
  =========                 |
  \\      /  F ield         | OpenFOAM: The Open Source CFD Toolbox
   \\    /   O peration     | Website:  https://openfoam.org
    \\  /    A nd           | Version:  13
     \\/     M anipulation  |
\*---------------------------------------------------------------------------*/
FoamFile
{
    format      ascii;
    class       volVectorField;
    location    "300";
    object      U;
}
// * * * * * * * * * * * * * * * * * * * * * * * * * * * * * * * * * * * * * //

dimensions      [0 1 -1 0 0 0 0];

internalField   nonuniform List<vector> 
10720
(
(0.351659 28.5666 1.69961e-17)
(2.17576 30.8411 -1.57647e-17)
(4.4448 33.0261 0)
(7.03927 34.701 -4.12561e-16)
(9.89567 35.961 4.62183e-16)
(12.947 36.7638 3.33375e-16)
(16.0357 37.0057 4.563e-16)
(19.0685 36.7289 0)
(21.9673 35.997 0)
(24.6544 34.8494 0)
(27.1013 33.368 1.17468e-16)
(29.2963 31.6439 0)
(31.2101 29.6977 2.37382e-15)
(32.8377 27.567 0)
(34.1683 25.2821 0)
(35.2139 22.8901 0)
(35.9624 20.4109 -4.00099e-15)
(36.4173 17.8963 -5.98046e-15)
(36.5599 15.3705 5.32059e-15)
(36.4009 12.8936 0)
(35.9228 10.5017 4.3747e-15)
(35.1624 8.26781 -8.57147e-15)
(34.1672 6.24346 4.26883e-15)
(33.047 4.49173 -1.28032e-16)
(32.0012 3.06012 0)
(31.115 1.89575 1.6934e-15)
(30.2925 0.910317 2.62044e-17)
(29.4346 0.0623888 -7.42019e-16)
(28.5044 -0.670711 -2.70896e-15)
(27.4979 -1.30363 -9.83485e-15)
(26.4185 -1.84296 4.38357e-15)
(25.2695 -2.29201 7.99278e-15)
(24.0489 -2.65182 6.89531e-15)
(22.7482 -2.92296 2.35696e-14)
(21.3204 -3.10114 -9.53687e-15)
(19.7286 -3.18467 -6.74673e-17)
(17.671 -3.12066 2.20819e-17)
(15.2504 -2.90174 3.96442e-15)
(9.83168 -2.30451 1.36461e-14)
(-1.10369 26.1274 1.11433e-18)
(-2.29323 23.3684 -8.50664e-18)
(-3.14818 20.2541 4.5669e-17)
(-3.53286 16.631 -1.36666e-16)
(-3.29178 12.8794 -4.69951e-16)
(-2.3786 9.13117 8.40492e-16)
(-0.854134 5.66297 4.18842e-15)
(1.04042 2.768 2.56777e-15)
(3.02281 0.39753 0)
(5.2237 -1.6788 0)
(7.50312 -3.2494 2.08556e-15)
(9.62479 -4.2739 7.6146e-16)
(11.5102 -4.87232 -1.26777e-15)
(13.1637 -5.17197 1.04408e-15)
(14.6094 -5.27474 1.72274e-15)
(15.8795 -5.24661 1.11039e-15)
(17.0042 -5.13692 1.41738e-15)
(18.0157 -4.97579 9.40982e-16)
(18.9447 -4.78393 0)
(19.8139 -4.56496 0)
(20.6411 -4.32077 -1.29974e-15)
(21.4378 -4.04129 -5.98986e-17)
(22.2061 -3.7113 8.81935e-16)
(22.9158 -3.29995 -6.14735e-16)
(23.501 -2.80193 2.35822e-17)
(23.9434 -2.25473 0)
(24.2685 -1.68475 1.04619e-16)
(24.4923 -1.10802 0)
(24.6211 -0.535845 0)
(24.654 0.0203176 1.98834e-17)
(24.5682 0.552203 0)
(24.3773 1.0528 5.15063e-18)
(24.1001 1.51608 -4.91901e-17)
(23.7517 1.9367 -5.89617e-16)
(23.3269 2.31096 5.45383e-16)
(22.8156 2.6397 -2.76233e-18)
(22.0924 2.91512 0)
(21.089 3.10131 5.17536e-15)
(18.257 3.22264 9.23809e-15)
(7.07829 24.8161 -5.48492e-18)
(9.01036 26.5548 -2.75647e-18)
(11.3592 28.1254 0)
(14.0557 29.424 0)
(16.9505 30.3907 -1.35683e-16)
(20.0477 30.9652 -3.19545e-16)
(23.2291 31.1034 0)
(26.3591 30.8284 0)
(29.3819 30.1521 6.74299e-16)
(32.2086 29.1257 0)
(34.7851 27.8105 2.47347e-15)
(37.0815 26.2543 0)
(39.0922 24.5389 8.83159e-16)
(40.8244 22.7179 -8.7012e-16)
(42.2836 20.8106 1.74987e-15)
(43.4387 18.8458 -3.4988e-15)
(44.2894 16.8358 3.74419e-15)
(44.8256 14.8058 3.42615e-15)
(45.0479 12.7641 3.35523e-15)
(44.9388 10.742 2.03898e-16)
(44.4992 8.76535 -3.50311e-15)
(43.7206 6.88921 3.32631e-15)
(42.6286 5.15521 -1.87661e-16)
(41.259 3.62131 0)
(39.7209 2.3394 0)
(38.1622 1.25602 0)
(36.6407 0.29374 1.41317e-16)
(35.1477 -0.557463 -3.15701e-17)
(33.6844 -1.30025 1.9857e-15)
(32.2458 -1.94129 3.76482e-17)
(30.8163 -2.48336 -2.98216e-17)
(29.378 -2.929 -8.71722e-17)
(27.9125 -3.28056 4.74712e-15)
(26.4043 -3.54043 -7.96759e-15)
(24.8135 -3.7086 -4.33019e-17)
(23.1215 -3.78611 -9.2275e-15)
(21.0693 -3.73279 0)
(18.8786 -3.54735 -1.14731e-15)
(13.588 -2.78909 7.24432e-15)
(5.44024 22.9611 6.96355e-18)
(4.0136 20.8952 -3.91635e-17)
(2.75213 18.4734 -4.93631e-16)
(1.78381 15.7188 6.07533e-16)
(1.28491 12.7264 0)
(1.34171 9.62877 -1.31253e-15)
(1.98401 6.6208 -9.40552e-16)
(3.13991 3.9289 -7.3443e-15)
(4.6304 1.58386 2.36975e-15)
(6.36814 -0.369903 -1.7915e-15)
(8.24321 -1.80595 2.25149e-15)
(10.093 -2.76543 -6.40651e-16)
(11.8282 -3.36656 0)
(13.4162 -3.70921 -4.27837e-16)
(14.8484 -3.87618 5.24625e-17)
(16.1354 -3.92086 -9.54326e-16)
(17.2928 -3.88837 0)
(18.3434 -3.80441 0)
(19.311 -3.6873 -9.87533e-17)
(20.218 -3.53491 9.4856e-17)
(21.0799 -3.34561 -1.12255e-15)
(21.9088 -3.10309 -1.21272e-16)
(22.7067 -2.78759 5.32735e-17)
(23.4504 -2.36262 5.93748e-16)
(24.0858 -1.84104 -4.20987e-16)
(24.5885 -1.28954 -3.10272e-16)
(24.9742 -0.736833 0)
(25.2557 -0.193994 0)
(25.4365 0.33261 0)
(25.5217 0.834146 8.5599e-18)
(25.5408 1.30304 0)
(25.4899 1.73639 0)
(25.3587 2.13314 1.22526e-16)
(25.1405 2.49227 2.18582e-16)
(24.8271 2.81538 -4.42154e-16)
(24.4271 3.1077 8.134e-16)
(23.8395 3.36712 -2.50033e-15)
(23.2495 3.58652 -3.96413e-15)
(21.1554 3.62652 -6.2246e-15)
(8.36052 22.8489 -9.74812e-19)
(9.76536 24.3725 1.99043e-17)
(11.4678 25.8489 -1.62662e-17)
(13.4205 27.2034 -4.37644e-17)
(15.5679 28.3175 -1.78221e-16)
(17.9105 29.1665 6.15641e-16)
(20.3734 29.7105 -4.30438e-16)
(22.8801 29.9128 -5.02356e-16)
(25.3756 29.7722 4.32662e-18)
(27.8019 29.3007 -6.51852e-16)
(30.107 28.5197 6.03969e-16)
(32.2594 27.4591 -1.56824e-15)
(34.2317 26.1502 -7.4836e-16)
(36.01 24.622 0)
(37.5777 22.9098 -1.79039e-15)
(38.9492 21.0391 3.59658e-15)
(40.1292 19.0303 0)
(41.0982 16.9275 -6.80881e-15)
(41.8463 14.7603 -3.40402e-15)
(42.346 12.5812 3.96836e-16)
(42.585 10.428 -3.93255e-16)
(42.5418 8.36865 -1.78265e-16)
(42.2179 6.45228 -2.53341e-15)
(41.6215 4.74129 1.27285e-15)
(40.8037 3.28058 0)
(39.842 2.01394 1.11189e-15)
(38.7576 0.872429 -1.31331e-16)
(37.5448 -0.144044 0)
(36.2213 -1.03225 1.74601e-15)
(34.8146 -1.79649 3.241e-15)
(33.3454 -2.43963 -5.71398e-15)
(31.8274 -2.96572 -4.91845e-15)
(30.2633 -3.37991 -1.05667e-16)
(28.6491 -3.68696 -6.99022e-15)
(26.9501 -3.88921 -5.60657e-15)
(25.1484 -3.98625 8.04745e-15)
(23.0018 -3.94513 0)
(20.7343 -3.72169 -8.98801e-16)
(15.8591 -3.03541 -1.10351e-14)
(7.20584 21.2401 -1.24614e-17)
(6.18833 19.4768 -5.01071e-17)
(5.32772 17.3968 1.94537e-16)
(4.62806 15.0617 0)
(4.23853 12.5512 3.80321e-16)
(4.20887 9.93073 0)
(4.56913 7.32691 2.69997e-15)
(5.30547 4.90542 1.63488e-15)
(6.36905 2.74834 1.54203e-15)
(7.7017 0.910094 0)
(9.18788 -0.554725 -2.2629e-15)
(10.7104 -1.65892 -4.85012e-16)
(12.1938 -2.45864 2.19429e-15)
(13.597 -3.01213 0)
(14.9005 -3.37202 -1.02171e-15)
(16.1015 -3.58308 -3.08492e-16)
(17.2056 -3.68451 1.27309e-15)
(18.2256 -3.7036 6.59841e-16)
(19.1778 -3.65979 1.81545e-16)
(20.0791 -3.55929 -9.84186e-17)
(20.9418 -3.4052 1.02308e-15)
(21.7745 -3.18957 0)
(22.5775 -2.89928 0)
(23.3313 -2.51262 2.33405e-17)
(23.9924 -2.04285 0)
(24.5372 -1.53825 6.42181e-16)
(24.976 -1.01831 -8.45062e-18)
(25.3202 -0.490916 -4.054e-17)
(25.5734 0.0361163 0)
(25.7371 0.552666 -2.53393e-17)
(25.8166 1.05126 3.86959e-17)
(25.8172 1.52541 0)
(25.7413 1.9691 -8.13463e-17)
(25.5888 2.37708 0)
(25.3479 2.74754 0)
(25.0174 3.08121 3.88249e-17)
(24.4859 3.37724 -5.23177e-17)
(23.8736 3.59413 3.96167e-15)
(21.9991 3.63092 1.20416e-14)
(10.9048 20.9342 -9.98298e-18)
(12.2019 22.2341 -6.28652e-18)
(13.7525 23.4967 -7.12361e-18)
(15.5313 24.6478 -1.18922e-17)
(17.4887 25.5967 0)
(19.6309 26.3249 0)
(21.9005 26.7895 -7.18344e-16)
(24.2349 26.9562 8.58559e-16)
(26.5869 26.8186 0)
(28.9007 26.3799 -1.03533e-15)
(31.1245 25.6553 -1.30953e-15)
(33.2201 24.6681 -1.23653e-15)
(35.1532 23.4492 1.47221e-15)
(36.8971 22.0317 1.3877e-15)
(38.4326 20.4492 0)
(39.7446 18.7359 2.19997e-15)
(40.8051 16.934 7.61576e-16)
(41.6049 15.0757 6.13831e-15)
(42.1416 13.1871 3.71808e-16)
(42.4205 11.2969 -3.68694e-16)
(42.4495 9.43625 3.11582e-15)
(42.2437 7.64969 -5.10234e-16)
(41.8312 5.97796 2.77759e-15)
(41.2478 4.46566 1.15937e-15)
(40.5494 3.14461 -6.86256e-17)
(39.793 1.97754 -1.00593e-15)
(38.9817 0.909856 7.4257e-18)
(38.0824 -0.06287 -7.44968e-18)
(37.0761 -0.93705 -1.67278e-15)
(35.9565 -1.71314 -4.42842e-17)
(34.7212 -2.38729 2.79306e-15)
(33.3732 -2.95516 -4.75263e-15)
(31.9172 -3.41405 -3.83809e-15)
(30.3583 -3.76256 -1.88941e-18)
(28.6749 -3.99907 5.10006e-15)
(26.8579 -4.11797 0)
(24.6877 -4.0899 4.19266e-15)
(22.3509 -3.82472 7.78506e-16)
(17.7267 -3.17691 4.60284e-15)
(9.80981 19.5715 -2.52399e-17)
(8.82353 18.0905 6.48987e-17)
(7.95231 16.3415 2.92528e-16)
(7.21609 14.3623 0)
(6.74247 12.2249 -3.39568e-16)
(6.57015 9.97247 0)
(6.72528 7.70313 -2.17175e-15)
(7.19615 5.54956 -1.01391e-16)
(7.95291 3.58206 1.1257e-15)
(8.95768 1.85268 1.00285e-15)
(10.1266 0.414525 3.61292e-17)
(11.3768 -0.722121 1.69202e-15)
(12.6462 -1.58587 -1.10026e-15)
(13.8903 -2.21672 3.48693e-16)
(15.0813 -2.6546 1.18998e-15)
(16.2059 -2.9391 1.31007e-15)
(17.2606 -3.10474 -1.17426e-15)
(18.2487 -3.17894 5.33324e-18)
(19.1796 -3.18174 0)
(20.0645 -3.12281 1.22132e-15)
(20.9128 -3.00572 5.98277e-17)
(21.7305 -2.82522 -9.18483e-16)
(22.5171 -2.57057 0)
(23.2561 -2.22511 2.20519e-17)
(23.9112 -1.79608 0)
(24.4595 -1.32195 -3.01753e-16)
(24.9065 -0.825547 0)
(25.2625 -0.318694 3.80412e-17)
(25.5312 0.188495 -1.20643e-18)
(25.7152 0.685537 6.81605e-19)
(25.8187 1.16342 -3.50656e-17)
(25.847 1.61463 -1.14812e-18)
(25.8032 2.03505 0)
(25.6891 2.42219 1.87228e-16)
(25.4953 2.7761 3.46082e-18)
(25.2207 3.09675 -8.20526e-16)
(24.7593 3.38466 5.07842e-15)
(24.201 3.5713 1.21149e-17)
(22.5051 3.59688 0)
(12.4704 19.472 -1.43154e-17)
(13.5718 20.6231 -3.34402e-19)
(14.895 21.763 -1.19133e-17)
(16.4052 22.8283 1.67418e-16)
(18.06 23.7359 -5.6502e-17)
(19.8811 24.4799 -1.96736e-16)
(21.8209 25.0204 3.09963e-16)
(23.8313 25.3216 0)
(25.882 25.3729 1.20128e-15)
(27.9264 25.1672 5.57793e-16)
(29.9233 24.7055 0)
(31.839 23.998 1.18844e-15)
(33.64 23.0615 -6.25511e-16)
(35.2983 21.9155 1.73924e-15)
(36.7917 20.5824 0)
(38.0994 19.086 -2.8859e-15)
(39.2095 17.4435 2.74065e-15)
(40.1119 15.6763 -1.6816e-16)
(40.7918 13.8167 0)
(41.2334 11.9091 2.96365e-15)
(41.4274 9.99949 -2.99101e-15)
(41.3727 8.14575 -1.52575e-16)
(41.0871 6.40099 -2.32347e-15)
(40.6063 4.81701 -2.13274e-15)
(39.9905 3.42957 0)
(39.3065 2.21144 0)
(38.5796 1.11081 -2.30421e-16)
(37.7986 0.114356 -2.57996e-17)
(36.9543 -0.779635 1.59092e-15)
(36.0401 -1.5758 -4.22295e-17)
(35.043 -2.27457 4.21639e-17)
(33.9462 -2.87358 4.44976e-15)
(32.7313 -3.36965 0)
(31.3831 -3.75843 1.23993e-14)
(29.8688 -4.03417 -4.26993e-17)
(28.1758 -4.18466 0)
(26.1018 -4.18084 -3.21959e-17)
(23.8077 -3.89485 0)
(19.4038 -3.26562 -3.91164e-15)
(11.5351 18.2718 2.38293e-17)
(10.6902 16.9798 -1.55675e-16)
(9.92304 15.4533 1.7212e-16)
(9.24668 13.7278 2.76913e-16)
(8.77399 11.8701 -1.09225e-15)
(8.53423 9.90304 -1.41624e-15)
(8.55862 7.90148 1.7417e-15)
(8.84613 5.97448 -1.93e-15)
(9.38228 4.18689 -8.7048e-16)
(10.1421 2.58499 -7.74679e-16)
(11.0639 1.21183 1.49408e-15)
(12.0861 0.0833929 -1.43651e-15)
(13.1599 -0.815354 -6.30088e-16)
(14.2451 -1.50991 6.12971e-16)
(15.3124 -2.02592 -1.33348e-15)
(16.3445 -2.39326 2.44023e-16)
(17.3323 -2.63857 0)
(18.2731 -2.78456 -9.29682e-16)
(19.1702 -2.84864 3.28996e-16)
(20.03 -2.8413 -1.27775e-15)
(20.8582 -2.76677 0)
(21.6585 -2.62248 7.95956e-16)
(22.4288 -2.4009 6.26357e-16)
(23.1543 -2.09114 -4.76683e-16)
(23.8041 -1.69913 0)
(24.3556 -1.25685 -3.18697e-16)
(24.8102 -0.788003 0)
(25.1756 -0.304616 0)
(25.4554 0.183623 0)
(25.6515 0.666401 4.07345e-17)
(25.768 1.13463 0)
(25.8097 1.58151 0)
(25.7799 2.00186 -1.65811e-16)
(25.6813 2.39136 -1.77724e-16)
(25.5056 2.74828 0)
(25.2538 3.07022 -8.51524e-16)
(24.8284 3.35713 6.27383e-17)
(24.3174 3.52611 0)
(22.8122 3.53894 -5.22871e-15)
(13.9559 18.1915 1.70521e-17)
(14.9532 19.2111 -1.2138e-17)
(16.1471 20.2275 0)
(17.5045 21.1813 8.05855e-18)
(18.9845 21.9992 -1.35716e-16)
(20.6174 22.6813 1.85518e-16)
(22.3619 23.1896 4.55004e-17)
(24.179 23.492 -7.72501e-16)
(26.0476 23.5757 -9.34333e-17)
(27.9289 23.4299 1.14576e-15)
(29.7874 23.0507 -4.08389e-16)
(31.593 22.4417 9.18469e-16)
(33.3123 21.613 4.59298e-16)
(34.9162 20.5785 3.32851e-16)
(36.3791 19.3569 0)
(37.6774 17.9699 -6.26179e-16)
(38.7897 16.4434 -1.38072e-15)
(39.6919 14.8148 -5.10534e-15)
(40.3667 13.1177 1.50517e-15)
(40.8051 11.3834 -1.9104e-15)
(41.0027 9.64659 -2.9925e-16)
(40.9635 7.94852 0)
(40.7037 6.33247 2.08041e-15)
(40.2547 4.84114 1.3252e-16)
(39.6675 3.50717 -5.91591e-17)
(38.9997 2.31765 -8.24203e-16)
(38.28 1.23483 1.90046e-16)
(37.508 0.248112 3.97639e-16)
(36.6844 -0.641397 -1.48802e-15)
(35.8144 -1.43664 -7.94828e-17)
(34.897 -2.13919 2.53378e-15)
(33.9241 -2.74833 4.11567e-15)
(32.8786 -3.26233 0)
(31.7366 -3.67732 -1.86572e-17)
(30.4486 -3.98619 -4.6432e-15)
(28.982 -4.17125 0)
(27.1266 -4.20099 -7.42345e-15)
(25.022 -3.91611 0)
(20.9137 -3.31811 3.54738e-15)
(13.1004 17.1321 -2.40506e-17)
(12.3238 15.9992 6.35939e-17)
(11.6047 14.6575 0)
(10.9568 13.1374 0)
(10.4798 11.5019 4.69615e-16)
(10.1938 9.76394 2.34901e-15)
(10.1283 7.98121 0)
(10.2878 6.24702 -1.41223e-15)
(10.6644 4.62272 -1.35672e-15)
(11.2388 3.14554 1.365e-15)
(11.966 1.84991 -5.51197e-17)
(12.7996 0.754603 5.9599e-16)
(13.7027 -0.147407 2.93187e-17)
(14.6419 -0.871658 1.57738e-15)
(15.5899 -1.43369 1.41636e-15)
(16.5283 -1.8549 -1.32993e-15)
(17.4452 -2.15543 1.87444e-16)
(18.3335 -2.35379 -3.48571e-16)
(19.1918 -2.46503 1.61362e-16)
(20.022 -2.49937 9.38777e-16)
(20.8264 -2.46173 1.21541e-16)
(21.6061 -2.35149 -8.83331e-17)
(22.3576 -2.16328 -5.33956e-16)
(23.0674 -1.88984 0)
(23.7086 -1.53603 2.23451e-17)
(24.2597 -1.12779 5.92964e-16)
(24.7184 -0.687839 -3.16717e-18)
(25.0902 -0.228623 3.14108e-18)
(25.3778 0.239662 0)
(25.5829 0.706079 -3.82567e-17)
(25.7088 1.16093 0)
(25.76 1.59636 0)
(25.7396 2.00645 1.52615e-16)
(25.6501 2.38671 2.21553e-16)
(25.4838 2.73517 0)
(25.2417 3.04787 7.92634e-16)
(24.8326 3.32431 -4.71065e-15)
(24.3413 3.46977 2.1796e-17)
(22.9907 3.45983 4.78266e-15)
(15.1634 17.1031 -3.07983e-19)
(16.0612 18.018 -1.19013e-17)
(17.1356 18.9374 -3.26328e-18)
(18.352 19.8059 3.18104e-18)
(19.6699 20.558 9.13707e-17)
(21.1253 21.1994 0)
(22.6807 21.6964 -3.50011e-16)
(24.3032 22.0199 9.37667e-18)
(25.9803 22.158 -3.45356e-16)
(27.679 22.0989 -6.97121e-16)
(29.371 21.8349 0)
(31.0318 21.3647 -1.67122e-15)
(32.6311 20.6922 -1.43045e-15)
(34.1416 19.8249 -3.47151e-15)
(35.5381 18.7753 0)
(36.7955 17.5597 -2.13062e-15)
(37.8907 16.1986 -2.23041e-15)
(38.8053 14.7112 2.40939e-15)
(39.5225 13.1222 -2.36841e-15)
(40.0266 11.4656 2.19248e-15)
(40.3074 9.78098 2.69018e-16)
(40.3613 8.11618 -2.31591e-15)
(40.1977 6.51941 0)
(39.841 5.0355 -1.98428e-15)
(39.3331 3.69682 1.16355e-16)
(38.7238 2.49687 8.63218e-16)
(38.043 1.40513 0)
(37.2959 0.41055 -2.95583e-17)
(36.4867 -0.486072 6.3348e-17)
(35.6246 -1.28728 2.43487e-15)
(34.7164 -1.995 -2.25702e-15)
(33.7652 -2.60945 -3.92046e-15)
(32.7673 -3.13027 3.32402e-15)
(31.7136 -3.5559 -6.13952e-17)
(30.5662 -3.8814 4.45185e-15)
(29.2972 -4.08925 6.22358e-15)
(27.6956 -4.14868 3.60682e-15)
(25.8926 -3.87681 -1.1471e-17)
(22.2069 -3.3279 -3.55956e-18)
(14.3875 16.1548 9.76975e-18)
(13.6801 15.1468 1.25191e-16)
(13.0129 13.951 1.72557e-16)
(12.3986 12.5949 -3.22714e-16)
(11.9279 11.1382 -1.29061e-15)
(11.6156 9.58668 4.25063e-16)
(11.4886 7.9848 1.11007e-15)
(11.5569 6.41539 2.90068e-15)
(11.816 4.93685 1.17282e-15)
(12.2494 3.57722 -1.10022e-15)
(12.8237 2.36473 -3.81358e-17)
(13.5035 1.31792 -5.34192e-16)
(14.2607 0.433024 0)
(15.0685 -0.299461 -2.59745e-17)
(15.9033 -0.888418 -8.72866e-16)
(16.7483 -1.34868 3.81765e-16)
(17.5904 -1.69456 -3.74303e-16)
(18.4203 -1.93972 0)
(19.2334 -2.09593 5.68827e-16)
(20.0281 -2.17198 -9.93777e-16)
(20.8039 -2.1723 0)
(21.5594 -2.09717 7.30027e-16)
(22.2899 -1.94308 0)
(22.9825 -1.70544 -2.78745e-17)
(23.6138 -1.38867 2.75843e-17)
(24.1626 -1.01405 -2.89804e-16)
(24.6242 -0.602797 -5.23663e-18)
(25.0016 -0.167957 -3.19948e-18)
(25.2966 0.279821 8.53971e-19)
(25.5104 0.729355 -4.88741e-17)
(25.6455 1.17051 -7.09684e-17)
(25.706 1.59516 1.10128e-16)
(25.6946 1.99697 3.10355e-18)
(25.6135 2.37065 2.58863e-17)
(25.4551 2.71333 0)
(25.2201 3.01891 1.50883e-17)
(24.8229 3.28575 2.17795e-15)
(24.3424 3.40934 -1.04591e-17)
(23.1089 3.373 4.37507e-15)
(16.2202 16.1457 3.66395e-18)
(17.0431 16.9709 1.77666e-17)
(18.0263 17.804 0)
(19.1354 18.5929 -2.5413e-17)
(20.3297 19.2784 3.88518e-17)
(21.6484 19.8701 0)
(23.0572 20.3371 -1.30207e-16)
(24.5274 20.6533 1.00617e-15)
(26.0522 20.8084 -1.3833e-15)
(27.6042 20.7897 4.41386e-16)
(29.1599 20.5883 5.9393e-16)
(30.6997 20.2 2.1301e-15)
(32.197 19.6242 1.51965e-15)
(33.6269 18.8641 1.80516e-15)
(34.9645 17.9273 4.75245e-16)
(36.1846 16.8259 1.56694e-15)
(37.2634 15.5761 2.14278e-15)
(38.1784 14.1996 2.06551e-15)
(38.9076 12.7265 -1.51699e-15)
(39.4347 11.1877 -4.63691e-15)
(39.7496 9.61743 0)
(39.8495 8.05511 8.49832e-17)
(39.7426 6.54269 1.80297e-15)
(39.4498 5.12002 1.88874e-15)
(39.006 3.8173 -1.07239e-16)
(38.4526 2.63532 -7.79268e-16)
(37.8174 1.55323 5.58421e-18)
(37.1077 0.562603 -3.95623e-16)
(36.3278 -0.334405 4.16285e-17)
(35.486 -1.13833 -4.56886e-15)
(34.5894 -1.84997 -7.73309e-18)
(33.6434 -2.46866 -6.16541e-17)
(32.6498 -2.99356 -3.19702e-15)
(31.6096 -3.42306 -6.1086e-17)
(30.5011 -3.75338 -4.15789e-15)
(29.3209 -3.96835 -1.18997e-14)
(27.8893 -4.04264 3.41649e-15)
(26.3814 -3.7806 6.59784e-16)
(23.2165 -3.28808 2.84784e-15)
(15.5042 15.2919 -4.51804e-17)
(14.8496 14.3881 -1.70827e-16)
(14.2232 13.314 -1.25311e-16)
(13.6376 12.0938 -3.20145e-16)
(13.1753 10.785 7.21685e-16)
(12.8475 9.38805 -5.23041e-17)
(12.6785 7.93805 -2.85021e-15)
(12.6809 6.51059 -1.0004e-15)
(12.852 5.16082 1.37143e-17)
(13.1776 3.90912 0)
(13.6316 2.77928 -9.4271e-16)
(14.186 1.78843 8.82053e-16)
(14.8197 0.933799 -8.51897e-16)
(15.5117 0.209159 -4.37165e-16)
(16.2424 -0.390078 3.66534e-16)
(16.9974 -0.87403 3.64128e-16)
(17.7643 -1.25203 1.31118e-15)
(18.533 -1.53343 -3.10643e-16)
(19.297 -1.72683 -5.31395e-16)
(20.0523 -1.83918 0)
(20.7958 -1.87415 -8.11026e-16)
(21.5243 -1.83237 -6.05957e-16)
(22.2317 -1.7114 -1.19546e-17)
(22.9057 -1.50862 -6.56189e-17)
(23.5249 -1.22813 -2.17522e-17)
(24.0692 -0.88716 3.33256e-16)
(24.5316 -0.505287 -6.5467e-18)
(24.9131 -0.0958258 5.2871e-17)
(25.2143 0.330315 9.57121e-18)
(25.4358 0.76184 4.47952e-17)
(25.5796 1.18827 -1.02011e-17)
(25.649 1.60099 -2.38176e-16)
(25.6464 1.99303 -2.22185e-16)
(25.5736 2.35846 -2.2022e-16)
(25.423 2.69361 -9.42699e-18)
(25.1953 2.99057 5.24455e-18)
(24.8098 3.2463 -2.18486e-15)
(24.3411 3.34909 -3.03208e-15)
(23.2053 3.28689 -4.02212e-15)
(17.134 15.2988 -1.11893e-17)
(17.8926 16.0478 -6.22579e-18)
(18.7977 16.8067 -7.53412e-18)
(19.8148 17.5269 -4.48075e-17)
(20.9039 18.1542 7.19179e-17)
(22.1048 18.7011 -1.58361e-16)
(23.3861 19.1397 4.95575e-16)
(24.722 19.4467 0)
(26.1098 19.6138 4.22224e-16)
(27.5261 19.6289 1.06745e-17)
(28.9517 19.4826 -5.10218e-16)
(30.3719 19.1694 -1.96427e-15)
(31.7634 18.6863 -7.93961e-16)
(33.104 18.0328 0)
(34.3712 17.2128 0)
(35.5405 16.2343 0)
(36.5879 15.1102 0)
(37.4907 13.8579 -2.00153e-15)
(38.2287 12.4981 1.98498e-15)
(38.7835 11.0582 1.94147e-15)
(39.142 9.5716 -1.56146e-15)
(39.2981 8.07785 1.36842e-15)
(39.256 6.61892 -1.40989e-15)
(39.0321 5.23462 -1.03146e-16)
(38.6551 3.95453 -4.69285e-17)
(38.1604 2.78341 7.89005e-16)
(37.5744 1.70696 1.69769e-16)
(36.9075 0.718536 0)
(36.1649 -0.179417 0)
(35.3543 -0.98619 3.83215e-17)
(34.4823 -1.70192 0)
(33.5534 -2.32526 3.40465e-15)
(32.5693 -2.85463 -3.02602e-15)
(31.5324 -3.28748 -4.88457e-15)
(30.4268 -3.61973 7.76301e-15)
(29.2633 -3.83392 5.67016e-15)
(27.895 -3.90992 -3.26403e-15)
(26.5648 -3.64393 -1.28263e-15)
(23.9156 -3.19695 -2.73091e-15)
(16.4701 14.5248 0)
(15.8614 13.7082 4.77462e-17)
(15.2716 12.736 2.38924e-16)
(14.7131 11.6299 -1.03473e-15)
(14.2619 10.4456 9.12021e-16)
(13.9259 9.17875 -7.46947e-16)
(13.7284 7.85788 6.76463e-18)
(13.6826 6.55359 7.58852e-16)
(13.7871 5.31746 8.08018e-16)
(14.0295 4.16413 0)
(14.3884 3.11367 3.91249e-16)
(14.841 2.18169 -1.19649e-15)
(15.3711 1.3653 1.90118e-15)
(15.9622 0.659803 3.47178e-16)
(16.5988 0.0627324 -7.0733e-16)
(17.2692 -0.432581 -6.59737e-16)
(17.9624 -0.831891 -6.07371e-16)
(18.6687 -1.14099 0)
(19.381 -1.36544 0)
(20.0935 -1.51001 0)
(20.8015 -1.57726 7.62328e-16)
(21.5001 -1.56756 0)
(22.1824 -1.47908 -4.93478e-16)
(22.836 -1.31041 -6.32199e-17)
(23.4414 -1.06522 -3.82922e-16)
(23.9792 -0.75764 -2.95605e-16)
(24.4407 -0.405366 0)
(24.8247 -0.0217228 -4.41234e-17)
(25.1312 0.38224 -1.01642e-17)
(25.3598 0.79514 1.89986e-18)
(25.5117 1.20622 1.58506e-16)
(25.5898 1.60642 -1.7496e-17)
(25.5958 1.98832 2.15804e-16)
(25.5313 2.34524 -2.56554e-16)
(25.3888 2.6727 0)
(25.1686 2.96093 -1.44519e-17)
(24.7955 3.20531 -3.34622e-17)
(24.3406 3.28919 2.8829e-15)
(23.2947 3.20308 -2.4174e-17)
(17.9374 14.5399 1.37001e-17)
(18.642 15.2225 0)
(19.4816 15.9159 3.6536e-17)
(20.4217 16.5747 -1.91583e-18)
(21.4229 17.1485 -4.09309e-17)
(22.5253 17.652 1.48696e-16)
(23.6993 18.0596 -2.19135e-16)
(24.9214 18.351 -2.6004e-16)
(26.1918 18.5193 0)
(27.4901 18.5532 -4.41694e-16)
(28.8011 18.4438 -4.70755e-16)
(30.1133 18.1849 4.67252e-16)
(31.4069 17.7718 1.73549e-15)
(32.6632 17.2015 6.92023e-16)
(33.8617 16.475 -2.09231e-15)
(34.979 15.597 -1.50295e-15)
(35.9922 14.5768 1.18087e-15)
(36.8787 13.4282 8.69512e-16)
(37.6169 12.1711 -4.3455e-16)
(38.187 10.8316 4.32735e-16)
(38.5744 9.43993 1.09796e-15)
(38.7721 8.03104 2.04308e-16)
(38.7815 6.64298 -1.91822e-16)
(38.6158 5.31267 -1.27591e-15)
(38.298 4.06822 0)
(37.8576 2.91762 -6.68695e-16)
(37.3189 1.85318 -3.19222e-16)
(36.694 0.871285 -2.94469e-16)
(35.9892 -0.0246168 -1.08928e-15)
(35.2123 -0.832333 4.07844e-15)
(34.3699 -1.55095 1.67968e-15)
(33.4661 -2.17845 3.89631e-18)
(32.5019 -2.71236 3.89703e-17)
(31.4785 -3.1491 0)
(30.3799 -3.48359 -3.66832e-15)
(29.2187 -3.69599 0)
(27.8647 -3.76938 0)
(26.5871 -3.48992 6.19261e-16)
(24.3471 -3.06513 4.35885e-18)
(17.3175 13.8347 -4.64085e-17)
(16.7479 13.0928 1.60543e-16)
(16.1901 12.2079 1.06381e-17)
(15.6564 11.1995 2.30173e-16)
(15.2177 10.1212 -8.37322e-16)
(14.8784 8.96543 6.29472e-16)
(14.6613 7.75576 3.62588e-17)
(14.5804 6.55941 -6.33479e-16)
(14.6342 5.42359 -6.24334e-16)
(14.8118 4.35911 -6.67526e-16)
(15.095 3.38336 -1.33109e-15)
(15.4649 2.51029 0)
(15.9084 1.73631 -6.87123e-16)
(16.4127 1.05719 -2.45581e-17)
(16.9654 0.471725 0)
(17.5575 -0.0249174 -5.82501e-16)
(18.1802 -0.435823 -2.77864e-16)
(18.8247 -0.764175 -2.62295e-16)
(19.4838 -1.01301 9.08715e-16)
(20.1514 -1.18492 8.13665e-16)
(20.8214 -1.28099 -8.48931e-17)
(21.4878 -1.30115 6.33532e-16)
(22.1429 -1.24374 1.27015e-16)
(22.7746 -1.10784 -6.07755e-17)
(23.3644 -0.896801 3.41787e-16)
(23.8936 -0.622183 2.0902e-17)
(24.3523 -0.299661 0)
(24.7376 0.0577181 0)
(25.0481 0.438832 -1.9878e-18)
(25.2829 0.832326 5.05144e-18)
(25.4424 1.22725 -1.7378e-16)
(25.5288 1.61412 -1.70403e-17)
(25.5433 1.98509 2.72914e-16)
(25.4871 2.33274 2.4572e-16)
(25.3529 2.65178 1.09627e-17)
(25.1408 2.93075 3.62267e-18)
(24.7807 3.16336 4.0569e-15)
(24.3411 3.22978 -2.75297e-15)
(23.381 3.12234 2.25601e-17)
(18.6469 13.8544 5.22933e-18)
(19.3046 14.479 0)
(20.0875 15.1146 -2.47803e-17)
(20.9611 15.7185 0)
(21.8865 16.2444 -8.91526e-17)
(22.9039 16.7077 8.63997e-17)
(23.9848 17.0855 1.67176e-16)
(25.1079 17.3596 2.45372e-16)
(26.2747 17.5245 0)
(27.4678 17.5703 -2.95601e-16)
(28.6747 17.4889 4.82764e-16)
(29.887 17.2738 -9.87959e-16)
(31.0878 16.9194 -5.51492e-16)
(32.2613 16.4218 -5.588e-16)
(33.3894 15.7794 1.33378e-15)
(34.4509 14.9943 1.43768e-15)
(35.4242 14.0728 -1.53506e-15)
(36.2869 13.026 -1.52162e-15)
(37.0181 11.8696 0)
(37.5979 10.6256 3.97548e-16)
(38.0101 9.32098 -7.69696e-16)
(38.2457 7.9888 1.89661e-16)
(38.3035 6.66509 4.24903e-18)
(38.1927 5.38511 3.01851e-15)
(37.9316 4.17583 -1.6503e-16)
(37.5442 3.0472 1.00029e-16)
(37.0525 1.9965 2.96438e-16)
(36.4694 1.02286 3.13849e-16)
(35.8023 0.130614 9.41543e-16)
(35.0592 -0.676682 -1.8859e-15)
(34.2471 -1.39709 -1.54692e-15)
(33.3706 -2.02792 -6.07003e-15)
(32.4304 -2.56593 5.23132e-15)
(31.4276 -3.00654 -7.41346e-17)
(30.3458 -3.34378 3.431e-15)
(29.1951 -3.55516 -1.07474e-16)
(27.8553 -3.62622 5.99308e-17)
(26.5696 -3.33338 3.84132e-18)
(24.6016 -2.90754 -2.10504e-15)
(18.0655 13.2093 2.25133e-17)
(17.5303 12.5318 -8.34614e-17)
(17.0013 11.7225 1.65756e-16)
(16.4906 10.7987 0)
(16.0648 9.81202 4.89929e-16)
(15.726 8.75217 0)
(15.4961 7.63962 0)
(15.3893 6.53824 0)
(15.4042 5.49139 1.1629e-15)
(15.5309 4.50713 -5.77016e-16)
(15.7538 3.60083 6.5175e-16)
(16.0563 2.78503 0)
(16.4275 2.05523 0)
(16.8574 1.40704 -5.94218e-16)
(17.3361 0.839781 0)
(17.8571 0.349724 5.42726e-16)
(18.4135 -0.0649067 1.27252e-17)
(18.9979 -0.405191 0)
(19.6038 -0.672079 -6.49617e-16)
(20.2251 -0.866379 -9.64615e-16)
(20.8552 -0.987845 -6.73102e-16)
(21.4873 -1.03555 -5.88071e-16)
(22.1136 -1.00755 1.01062e-15)
(22.7219 -0.903061 0)
(23.2944 -0.724955 3.42175e-16)
(23.8131 -0.482571 3.19687e-16)
(24.2672 -0.189688 1.2133e-16)
(24.6522 0.141172 0)
(24.9656 0.498954 -9.528e-18)
(25.2057 0.872392 -5.98291e-17)
(25.3722 1.25046 1.81862e-16)
(25.4665 1.62332 -1.65556e-17)
(25.4893 1.98272 -2.50106e-16)
(25.4415 2.32054 2.69622e-16)
(25.3158 2.63065 -2.04386e-18)
(25.1121 2.9 1.06916e-17)
(24.766 3.12052 -3.95085e-15)
(24.3426 3.17121 2.57865e-15)
(23.4648 3.0453 6.27655e-15)
(19.278 13.2306 2.12419e-18)
(19.8948 13.8039 -1.51948e-17)
(20.628 14.388 0)
(21.4438 14.9426 1.18298e-18)
(22.3036 15.4248 0)
(23.2472 15.8506 0)
(24.2473 16.1995 1.8443e-17)
(25.2838 16.4549 2.11762e-16)
(26.3598 16.6126 4.87182e-16)
(27.4597 16.6642 1.23346e-15)
(28.5732 16.6022 6.93507e-16)
(29.6945 16.4205 7.96617e-16)
(30.8092 16.1133 0)
(31.9043 15.6755 1.53824e-15)
(32.964 15.1042 -5.44067e-16)
(33.9694 14.3996 0)
(34.9002 13.5652 1.28193e-15)
(35.7354 12.6093 1.45807e-15)
(36.4544 11.545 0)
(37.0373 10.3913 1.41394e-15)
(37.4668 9.17285 -1.38123e-15)
(37.7325 7.91929 0)
(37.8313 6.66345 -1.6346e-16)
(37.7691 5.43819 3.16583e-17)
(37.5599 4.26907 7.78595e-17)
(37.223 3.16728 1.1662e-15)
(36.7773 2.13414 -3.98814e-18)
(36.2357 1.17167 -3.10561e-17)
(35.6064 0.285448 -2.61428e-17)
(34.8973 -0.519725 5.72079e-17)
(34.1157 -1.24063 1.55901e-15)
(33.2666 -1.87376 5.49456e-15)
(32.3514 -2.41515 4.31454e-17)
(31.3712 -2.85921 -3.99464e-15)
(30.3109 -3.19917 -3.119e-15)
(29.1784 -3.41022 -4.62373e-15)
(27.8651 -3.4795 -2.7054e-15)
(26.5682 -3.17954 2.17769e-17)
(24.768 -2.73915 1.96309e-15)
(18.7306 12.6384 -5.2861e-17)
(18.2258 12.0174 -2.00838e-16)
(17.7228 11.2742 4.01077e-16)
(17.2336 10.4245 0)
(16.8209 9.51776 8.01778e-16)
(16.4852 8.54182 0)
(16.2472 7.5148 -4.5451e-16)
(16.1214 6.49756 1.82839e-15)
(16.1064 5.52993 -1.41841e-15)
(16.1931 4.61831 0)
(16.3674 3.77615 1.05835e-15)
(16.6148 3.01479 1.02625e-15)
(16.9258 2.32909 0)
(17.2922 1.71443 -1.01723e-15)
(17.7063 1.17001 2.47124e-16)
(18.1633 0.69233 -2.47242e-16)
(18.6582 0.280505 2.41484e-16)
(19.1852 -0.0652826 4.25626e-16)
(19.7389 -0.344484 -1.50863e-17)
(20.3134 -0.556359 5.18553e-16)
(20.9024 -0.69938 1.54839e-16)
(21.4989 -0.771733 -1.47547e-16)
(22.0947 -0.771084 -4.79697e-16)
(22.6781 -0.696345 4.13983e-16)
(23.2317 -0.549693 -3.03847e-16)
(23.7382 -0.33868 -3.24082e-16)
(24.1858 -0.0751869 -1.15416e-16)
(24.569 0.228996 -1.33516e-18)
(24.8841 0.563009 1.04335e-17)
(25.1286 0.9158 5.72173e-17)
(25.3015 1.27632 8.81607e-18)
(25.4032 1.63448 -1.60335e-17)
(25.4341 1.98161 3.04845e-16)
(25.3947 2.30895 -2.76554e-16)
(25.2777 2.60954 1.11781e-17)
(25.0828 2.86887 -7.9574e-16)
(24.7515 3.07714 1.91871e-15)
(24.3454 3.11364 0)
(23.5462 2.9717 -6.01774e-15)
(19.8423 12.6595 8.67476e-18)
(20.4228 13.1872 0)
(21.1119 13.725 0)
(21.8765 14.2351 -2.2603e-17)
(22.6787 14.6776 -1.95219e-17)
(23.5574 15.069 0)
(24.4863 15.3902 0)
(25.4465 15.6267 -7.00421e-16)
(26.4421 15.7754 -3.4982e-17)
(27.4588 15.8288 -4.2155e-17)
(28.4882 15.7805 -1.60486e-15)
(29.5264 15.6247 -4.17228e-16)
(30.5613 15.356 7.93101e-16)
(31.582 14.9688 -6.77534e-17)
(32.5754 14.4592 0)
(33.5244 13.8259 0)
(34.4109 13.0704 -3.51844e-15)
(35.2149 12.1984 -6.44403e-16)
(35.9168 11.2207 6.58435e-16)
(36.4973 10.1527 -1.37191e-15)
(36.9386 9.01635 2.60377e-15)
(37.229 7.83828 1.23236e-15)
(37.3632 6.64869 -1.19189e-15)
(37.3446 5.47831 -1.34404e-15)
(37.1834 4.35125 2.12867e-16)
(36.8944 3.2792 -1.14921e-15)
(36.4937 2.26638 -1.29622e-16)
(35.9936 1.31753 2.88921e-17)
(35.4023 0.43939 -2.88577e-17)
(34.7277 -0.36191 9.69677e-17)
(33.9771 -1.08195 -4.01089e-17)
(33.1559 -1.71636 -2.71478e-15)
(32.2659 -2.26026 -1.02939e-16)
(31.3089 -2.7072 1.22275e-16)
(30.2712 -3.0495 0)
(29.16 -3.26061 4.30045e-15)
(27.8805 -3.32788 2.53416e-15)
(26.5908 -3.02733 0)
(24.9041 -2.56891 0)
(19.3252 12.1142 0)
(18.8476 11.5432 1.80212e-16)
(18.3685 10.8583 -6.02299e-16)
(17.8994 10.0742 -2.94117e-16)
(17.4998 9.23798 -7.31353e-16)
(17.169 8.33602 0)
(16.9265 7.38503 0)
(16.7869 6.44284 -8.18227e-16)
(16.7489 5.54621 8.58264e-16)
(16.8039 4.70024 0)
(16.939 3.91699 -4.48997e-16)
(17.1412 3.20691 -4.85271e-16)
(17.402 2.56442 4.60238e-16)
(17.7144 1.98427 4.78378e-16)
(18.0722 1.46536 -8.89191e-16)
(18.4722 1.00432 0)
(18.9108 0.600451 -2.02249e-16)
(19.3837 0.254649 1.19878e-17)
(19.8868 -0.0316332 9.00252e-16)
(20.4151 -0.256491 -1.68047e-16)
(20.9625 -0.417248 1.61197e-16)
(21.5223 -0.511261 -1.23853e-16)
(22.0865 -0.535637 1.75534e-16)
(22.6436 -0.488807 -8.40849e-16)
(23.1769 -0.372072 -3.0023e-16)
(23.6693 -0.191328 2.632e-16)
(24.1088 0.0432517 -1.61996e-17)
(24.4886 0.32079 0)
(24.8041 0.630781 -9.84294e-18)
(25.052 0.962438 6.01872e-17)
(25.2305 1.3048 -9.2573e-17)
(25.3392 1.64758 1.62992e-16)
(25.3781 1.98177 -6.14809e-16)
(25.3469 2.29802 6.33159e-16)
(25.2388 2.58852 -9.60399e-18)
(25.0533 2.83749 7.53681e-16)
(24.7375 3.03332 3.49023e-17)
(24.3496 3.05728 -7.48758e-17)
(23.6251 2.902 -5.39889e-15)
(20.3491 12.134 -8.41564e-18)
(20.8971 12.6207 0)
(21.5469 13.1168 0)
(22.2659 13.5864 1.81512e-17)
(23.0169 13.9928 2.02589e-17)