/*--------------------------------*- C++ -*----------------------------------*\
  =========                 |
  \\      /  F ield         | OpenFOAM: The Open Source CFD Toolbox
   \\    /   O peration     | Website:  https://openfoam.org
    \\  /    A nd           | Version:  13
     \\/     M anipulation  |
\*---------------------------------------------------------------------------*/
FoamFile
{
    format      ascii;
    class       volScalarField;
    location    "2";
    object      alpha.mercury;
}
// * * * * * * * * * * * * * * * * * * * * * * * * * * * * * * * * * * * * * //

dimensions      [];

internalField   nonuniform List<scalar> 
2268
(
1
1
1
1
1
1
1
1
1
1
1
1
1
1
1
1
1
1
1
0.999823
0.999533
0.999434
0.999433
1
1
1
1
1
1
1
1
1
1
1
1
1
1
1
1
1
1
1
1
1
0.999937
0.999823
1
1
1
1
1
1
1
1
1
1
1
1
1
1
1
1
1
1
1
1
1
1
1
1
1
1
1
1
1
1
1
1
1
1
1
1
1
1
1
1
1
1
1
1
1
1
1
1
1
1
1
1
1
1
1
1
1
1
1
1
1
1
1
1
0.999791
0.999225
0.999143
0.999546
0.999706
1
1
1
1
1
1
1
1
0.998265
0.983382
0.954847
0.915897
0.869832
0.819283
0.766133
0.712222
0.659518
0.601292
0.558994
0.536316
0.534944
0.551235
0.553811
1
1
1
1
0.990301
0.905823
0.792119
0.657537
0.511185
0.372385
0.265795
0.185334
0.124606
0.0786669
0.0439933
0.0179798
6.87643e-08
4.10683e-29
5.75444e-28
-8.62121e-15
4.17456e-27
6.922e-27
2.59919e-23
0.955561
0.876225
0.748194
0.563367
0.344555
0.189971
0.0846288
0.0223542
8.73063e-21
8.5058e-21
1.2912e-20
1.37066e-20
1.10785e-20
5.49515e-21
6.77364e-21
1.552e-20
1.6022e-20
1.6662e-11
1.09405e-12
3.51938e-14
8.32779e-12
1.50886e-07
1.57062e-05
0.870715
0.872978
0.877556
0.877556
0.877556
0.877377
0.815001
0.622329
0.616805
0.623672
0.619058
0.602435
0.59348
0.620337
0.740721
0.751147
0.751226
0.751028
0.74558
0.51895
0.509671
0.561754
0.647855
0.725363
0.759505
0.801351
0.831402
0.831314
0.831852
0.831742
0.768327
0.750033
0.751275
0.751337
0.751259
0.75121
0.751201
0.733961
0.120715
0.113439
0.108211
0.138511
0.206836
0.253877
0.326159
0.415942
0.569337
0.660138
0.687924
0.689583
0.640977
0.6671
0.668737
0.687301
0.736041
0.705267
0.587981
0.179625
0.179662
0.120376
0.1185
0.108846
0.0952363
0.0542972
0.0168873
0.0150926
0.0315976
0.114887
0.253527
0.242291
0.228859
0.2674
0.297978
0.323008
0.414317
0.468972
0.137638
0.163633
0.162222
0.16249
0.119373
0.074292
0.054248
0.0233404
0.00621048
0.000215206
6.21358e-05
0.0268702
0.158089
0.180503
0.18138
0.25589
0.292286
0.233863
0.219872
0.0423539
0.0635553
0.10934
0.110887
0.119787
0.090234
0.0886927
0.0941607
0.0244318
0.00157359
0.000265798
1.10925e-05
0.00394284
0.0536584
0.0775148
0.0698873
0.0747668
0.137373
0.174149
0.00569702
0.00557089
0.0232788
0.0490625
0.0761197
0.0940364
0.0931929
0.0920519
0.0155746
3.13478e-05
3.52496e-05
1.2496e-05
2.54465e-09
1.41196e-12
2.50638e-14
7.19981e-20
1.08728e-18
0.00114358
0.026868
0.0205234
0.00369457
0.008174
0.0264906
0.0364653
0.0825072
0.093676
0.0134468
0.000116263
0.000115957
0.000120553
0.000120129
6.38825e-05
8.16552e-06
4.41688e-06
9.42091e-07
9.46355e-11
5.28585e-07
5.36208e-16
0.128536
0.0705815
0.0284625
0.00561538
9.3599e-10
-3.17133e-12
7.91099e-12
3.30838e-12
7.98503e-11
1.54541e-10
1.91301e-10
1.49215e-10
1.48947e-10
7.3776e-10
6.16945e-10
1.01571e-09
4.54021e-09
3.02226e-09
3.89349e-10
1.36745e-10
2.11683e-11
1.34103e-08
7.13186e-06
7.52557e-09
4.42324e-10
4.25447e-10
4.06755e-10
4.31896e-10
1.47736e-09
1.39833e-09
1.48279e-09
1.93075e-09
1.45037e-09
9.79571e-10
6.4109e-10
4.09169e-10
1.30495e-09
1.31689e-09
2.00189e-09
7.91339e-09
7.40297e-09
1.46648e-09
9.7849e-10
8.25177e-10
8.42215e-10
4.21875e-06
3.9551e-10
3.99117e-10
6.45949e-10
9.70838e-10
1.22097e-09
1.53441e-09
1.58722e-09
1.54961e-09
1.3918e-09
1.17598e-09
9.17562e-10
6.86141e-10
4.89932e-10
4.16273e-10
4.17488e-10
5.02296e-10
8.06783e-10
1.0128e-09
1.51918e-09
1.87026e-09
3.12644e-09
1.57423e-08
2.11422e-08
3.9692e-10
4.51995e-10
5.88762e-10
7.39401e-10
8.15493e-10
9.03853e-10
8.88033e-10
8.49705e-10
7.73257e-10
7.62276e-10
7.68749e-10
8.29619e-10
9.50802e-10
1.05357e-09
1.19907e-09
1.46581e-09
1.77172e-09
2.12261e-09
2.24803e-09
2.91639e-09
8.78353e-09
1.92099e-08
1.20851e-08
3.36892e-10
3.78342e-10
4.61541e-10
5.25116e-10
5.63065e-10
5.89752e-10
6.341e-10
7.00896e-10
8.06185e-10
9.5407e-10
1.14698e-09
1.37031e-09
1.5823e-09
1.72722e-09
1.79576e-09
1.87273e-09
2.06859e-09
2.21867e-09
2.17552e-09
1.54869e-09
1.7683e-09
1.84837e-08
2.70301e-08
4.05954e-10
4.69503e-10
5.22406e-10
5.53144e-10
5.81007e-10
6.52082e-10
7.13817e-10
8.45499e-10
1.00482e-09
1.14123e-09
1.22232e-09
1.27059e-09
1.2774e-09
1.22732e-09
1.14773e-09
1.13478e-09
1.32652e-09
1.5981e-09
1.5842e-09
1.00983e-09
1.09256e-09
2.03844e-08
3.71398e-08
4.93136e-10
5.05095e-10
4.98739e-10
4.67617e-10
4.23427e-10
3.89006e-10
3.90302e-10
4.04768e-10
4.09616e-10
3.94914e-10
3.74618e-10
3.62426e-10
3.52623e-10
3.41808e-10
3.25805e-10
3.24476e-10
3.98292e-10
5.92961e-10
7.68645e-10
8.77158e-10
1.6154e-09
1.37164e-08
2.90372e-08
4.12942e-10
4.53883e-10
4.74408e-10
4.62402e-10
3.97824e-10
2.80426e-10
1.87905e-10
1.38212e-10
1.09176e-10
8.85004e-11
7.18188e-11
5.82883e-11
4.79616e-11
4.26485e-11
4.5606e-11
5.13783e-11
5.84154e-11
9.30698e-11
2.60111e-10
6.85601e-10
1.27973e-09
2.61257e-09
3.89967e-09
1.9641e-10
2.7139e-10
3.79953e-10
4.21856e-10
4.13276e-10
3.18067e-10
2.42319e-10
1.88249e-10
1.47854e-10
1.20645e-10
9.34007e-11
6.85679e-11
4.18789e-11
2.76965e-11
1.54317e-11
1.19104e-11
1.18257e-11
1.28521e-11
5.05611e-11
2.91196e-10
4.76865e-10
3.46338e-10
5.0827e-10
1.05922e-10
2.33247e-10
3.89232e-10
4.17861e-10
3.75138e-10
3.20835e-10
2.82034e-10
2.54148e-10
2.1559e-10
1.66226e-10
1.23416e-10
8.30667e-11
4.38119e-11
2.38492e-11
1.24241e-11
9.81337e-12
9.05634e-12
8.89896e-12
1.78454e-11
5.68434e-11
7.83919e-11
5.24823e-11
4.1339e-11
9.11944e-11
2.86777e-10
4.34112e-10
4.27577e-10
3.63866e-10
3.41275e-10
3.20729e-10
2.72246e-10
2.30875e-10
1.90543e-10
1.47073e-10
9.29876e-11
4.70602e-11
2.18444e-11
1.21883e-11
8.72425e-12
6.95733e-12
6.80019e-12
1.0684e-11
2.2342e-11
3.12019e-11
3.01322e-11
2.99886e-11
8.83178e-11
3.08085e-10
4.27711e-10
4.26635e-10
3.98996e-10
3.69387e-10
2.97585e-10
2.53646e-10
2.20113e-10
1.85396e-10
1.33365e-10
9.19408e-11
4.7054e-11
2.22885e-11
1.30277e-11
8.83907e-12
6.06097e-12
4.79444e-12
4.848e-12
6.32709e-12
1.1549e-11
1.50259e-11
1.76064e-11
8.54439e-11
3.03445e-10
3.89771e-10
3.99057e-10
3.6941e-10
2.91848e-10
2.51217e-10
2.2793e-10
1.95652e-10
1.65016e-10
1.18668e-10
7.61898e-11
4.32562e-11
2.2792e-11
1.46446e-11
9.39679e-12
6.14508e-12
4.11288e-12
3.14832e-12
3.34019e-12
4.93539e-12
7.02423e-12
8.05372e-12
8.16682e-11
2.53249e-10
3.23343e-10
3.13312e-10
2.72756e-10
2.25478e-10
2.05433e-10
1.8459e-10
1.53124e-10
1.22347e-10
9.13792e-11
5.66798e-11
3.6715e-11
2.20633e-11
1.4957e-11
9.6158e-12
6.15649e-12
4.04196e-12
2.6502e-12
1.86457e-12
1.44627e-12
1.68356e-12
1.75289e-12
7.21458e-11
2.09515e-10
2.61173e-10
2.57256e-10
2.1967e-10
1.77361e-10
1.48046e-10
1.26104e-10
1.1674e-10
9.33092e-11
7.19418e-11
4.49742e-11
2.72091e-11
1.97181e-11
1.36394e-11
8.90105e-12
5.62953e-12
3.68578e-12
2.49595e-12
1.68061e-12
1.1668e-12
8.13086e-13
6.75862e-13
5.64897e-11
1.48446e-10
1.8867e-10
1.80896e-10
1.56779e-10
1.30598e-10
1.09809e-10
9.63545e-11
7.93445e-11
6.63646e-11
4.97889e-11
3.33679e-11
2.25995e-11
1.56612e-11
1.04582e-11
7.04363e-12
4.51994e-12
3.04913e-12
2.21816e-12
1.4897e-12
1.00689e-12
6.93712e-13
5.16302e-13
3.96926e-11
9.64817e-11
1.22764e-10
1.20413e-10
1.0433e-10
8.62773e-11
7.01327e-11
5.83624e-11
4.55602e-11
3.48243e-11
2.78097e-11
2.03392e-11
1.66803e-11
1.07908e-11
7.89016e-12
5.09648e-12
3.3371e-12
2.27517e-12
1.72054e-12
1.22746e-12
8.03347e-13
5.50541e-13
3.99603e-13
2.52275e-11
5.71828e-11
7.04759e-11
7.1629e-11
6.56268e-11
5.50548e-11
4.50216e-11
2.95904e-11
1.8648e-11
1.56828e-11
1.36241e-11
1.30572e-11
9.72549e-12
6.87671e-12
4.86488e-12
3.56996e-12
2.31139e-12
1.63721e-12
1.29234e-12
9.37655e-13
6.1968e-13
4.1797e-13
3.07788e-13
1.80342e-11
3.88165e-11
4.68034e-11
4.79018e-11
4.48709e-11
3.64852e-11
2.83711e-11
2.07638e-11
1.24813e-11
9.10547e-12
7.69773e-12
7.15366e-12
5.35993e-12
3.46478e-12
2.72755e-12
2.13833e-12
1.65022e-12
1.2169e-12
9.34401e-13
6.90293e-13
4.75371e-13
3.19412e-13
2.38332e-13
1.21131e-11
2.57096e-11
3.10526e-11
3.17451e-11
2.86559e-11
2.48598e-11
1.97083e-11
1.42215e-11
9.34271e-12
6.37074e-12
4.59568e-12
3.50393e-12
2.65671e-12
2.27866e-12
1.76211e-12
1.37634e-12
1.18261e-12
9.22848e-13
6.75756e-13
4.87789e-13
3.63009e-13
2.5108e-13
1.87454e-13
8.28059e-12
1.6921e-11
2.02465e-11
2.07349e-11
1.9639e-11
1.71898e-11
1.39835e-11
1.02637e-11
6.87997e-12
4.3615e-12
3.02054e-12
2.25646e-12
1.72069e-12
1.43637e-12
1.159e-12
9.5883e-13
8.2456e-13
6.59686e-13
4.93821e-13
3.51631e-13
2.67288e-13
1.97009e-13
1.47034e-13
4.96422e-12
1.06231e-11
1.27843e-11
1.28102e-11
1.22986e-11
1.1217e-11
9.53419e-12
7.32295e-12
5.16844e-12
3.21262e-12
2.00851e-12
1.37446e-12
1.0492e-12
8.57442e-13
7.17196e-13
6.10044e-13
5.42975e-13
4.36586e-13
3.40556e-13
2.43079e-13
1.89989e-13
1.46754e-13
1.13749e-13
3.28961e-12
6.52373e-12
7.5065e-12
7.54126e-12
7.13743e-12
6.64262e-12
5.96816e-12
4.99074e-12
3.64834e-12
2.42521e-12
1.44818e-12
8.62164e-13
6.05586e-13
4.77984e-13
4.04598e-13
3.47445e-13
3.18581e-13
2.70493e-13
2.14411e-13
1.51816e-13
1.24495e-13
1.00565e-13
8.06949e-14
1.66826e-12
3.44751e-12
3.92634e-12
3.87217e-12
3.73131e-12
3.5392e-12
3.2236e-12
2.88124e-12
2.40343e-12
1.70316e-12
1.04333e-12
5.84362e-13
3.44375e-13
2.54133e-13
2.07077e-13
1.78423e-13
1.60679e-13
1.44427e-13
1.18664e-13
8.91678e-14
7.40115e-14
6.07971e-14
5.04329e-14
9.87091e-13
1.85798e-12
2.00537e-12
1.83984e-12
1.69662e-12
1.64062e-12
1.53986e-12
1.48408e-12
1.39103e-12
1.09217e-12
7.04731e-13
4.1434e-13
2.06019e-13
1.35336e-13
9.94948e-14
8.2735e-14
7.13975e-14
6.65015e-14
5.7312e-14
4.62817e-14
3.8635e-14
3.25197e-14
2.70854e-14
4.52516e-13
8.70589e-13
9.44324e-13
8.27454e-13
7.11843e-13
6.95382e-13
6.55411e-13
6.34312e-13
6.56207e-13
6.0176e-13
4.18214e-13
2.62605e-13
1.40876e-13
7.31871e-14
4.72829e-14
3.61002e-14
3.01443e-14
2.71186e-14
2.42003e-14
2.05162e-14
1.73918e-14
1.48725e-14
1.2263e-14
2.3722e-13
3.93088e-13
3.7868e-13
3.18517e-13
2.69764e-13
2.64098e-13
2.47337e-13
2.38772e-13
2.56815e-13
2.72484e-13
2.09528e-13
1.41223e-13
8.28627e-14
4.23792e-14
2.24365e-14
1.48041e-14
1.18316e-14
1.0235e-14
9.17707e-15
7.62064e-15
6.82182e-15
5.72061e-15
4.80243e-15
8.63892e-14
1.53671e-13
1.45964e-13
1.10259e-13
8.63949e-14
8.40604e-14
8.5182e-14
8.25729e-14
8.7887e-14
1.02183e-13
8.81487e-14
6.45813e-14
4.10826e-14
2.27093e-14
1.08844e-14
6.07114e-15
4.41367e-15
3.63083e-15
3.16908e-15
2.73159e-15
2.28606e-15
1.96093e-15
1.63056e-15
3.46756e-14
5.40212e-14
4.88737e-14
3.6263e-14
2.72194e-14
2.60424e-14
2.47098e-14
2.42373e-14
2.52828e-14
3.0656e-14
2.92988e-14
2.30501e-14
1.59558e-14
9.73715e-15
5.10493e-15
2.48192e-15
1.48942e-15
1.18401e-15
9.97313e-16
8.44216e-16
7.00671e-16
5.51682e-16
4.72971e-16
1.19462e-14
1.64606e-14
1.42664e-14
1.01959e-14
7.4168e-15
6.96878e-15
6.98729e-15
6.94866e-15
7.16475e-15
8.67196e-15
8.8643e-15
7.2853e-15
5.27521e-15
3.44268e-15
1.91172e-15
9.40499e-16
4.68978e-16
3.43584e-16
2.81549e-16
2.37682e-16
1.81887e-16
1.46569e-16
1.19772e-16
3.51485e-15
4.34339e-15
3.60686e-15
2.47638e-15
1.75916e-15
1.62761e-15
1.6817e-15
1.71118e-15
1.76714e-15
2.11676e-15
2.26476e-15
1.9133e-15
1.42209e-15
9.60895e-16
5.71785e-16
2.82294e-16
1.33083e-16
8.70747e-17
7.06455e-17
5.4263e-17
4.38733e-17
3.20142e-17
2.54666e-17
7.36046e-16
9.54637e-16
7.562e-16
5.11876e-16
3.58647e-16
3.28581e-16
3.48837e-16
3.67414e-16
3.85747e-16
4.60798e-16
5.02963e-16
4.28483e-16
3.22397e-16
2.21955e-16
1.35315e-16
6.65209e-17
3.1167e-17
1.92881e-17
1.50273e-17
1.18584e-17
8.92879e-18
6.34423e-18
4.62393e-18
1.41902e-16
1.72003e-16
1.31698e-16
8.88646e-17
6.18562e-17
5.66131e-17
6.20775e-17
6.84371e-17
7.4159e-17
8.92671e-17
9.70849e-17
8.23467e-17
6.21166e-17
4.25412e-17
2.56895e-17
1.22286e-17
5.90453e-18
3.68331e-18
2.76365e-18
2.13932e-18
1.54955e-18
1.04696e-18
7.03842e-19
2.02938e-17
2.46428e-17
1.89051e-17
1.26492e-17
8.8086e-18
8.1411e-18
9.28778e-18
1.08263e-17
1.2272e-17
1.50029e-17
1.60025e-17
1.32873e-17
1.01225e-17
6.76687e-18
3.94283e-18
1.83817e-18
9.39765e-19
6.12517e-19
4.28379e-19
3.12164e-19
2.20493e-19
1.46318e-19
8.89033e-20
1.79829e-18
2.77447e-18
2.16063e-18
1.44698e-18
1.02388e-18
9.71182e-19
1.16996e-18
1.44833e-18
1.73823e-18
2.20757e-18
2.28008e-18
1.84229e-18
1.20262e-18
8.1383e-19
5.11151e-19
2.34164e-19
1.31615e-19
8.64088e-20
5.88729e-20
4.2594e-20
2.84901e-20
1.72591e-20
9.2602e-21
1.66124e-19
2.35774e-19
1.91719e-19
1.31488e-19
9.63194e-20
9.55289e-20
1.23675e-19
1.63727e-19
2.14784e-19
2.32659e-19
2.32467e-19
1.8933e-19
1.63324e-19
1.09269e-19
5.86883e-20
2.71289e-20
1.62597e-20
1.0769e-20
7.1062e-21
4.88692e-21
3.04059e-21
1.65482e-21
8.00724e-22
7.04929e-21
1.49558e-20
1.31763e-20
9.45827e-21
7.30913e-21
7.76886e-21
1.12361e-20
1.62432e-20
1.8722e-20
2.99707e-20
2.9063e-20
2.39715e-20
1.79496e-20
1.15432e-20
5.11669e-21
2.95642e-21
1.80047e-21
1.19135e-21
7.59522e-22
4.77118e-22
2.668e-22
1.20071e-22
5.62815e-23
4.68668e-22
7.15442e-22
7.0623e-22
5.39628e-22
4.55516e-22
5.3674e-22
6.51364e-22
1.09381e-21
2.18807e-21
3.04371e-21
2.87969e-21
2.40612e-21
1.76765e-21
1.07474e-21
5.49264e-22
2.95786e-22
1.82428e-22
1.17509e-22
7.13698e-23
3.98638e-23
1.96483e-23
8.17222e-24
1.97324e-24
1.39132e-23
2.51842e-23
2.43582e-23
2.45549e-23
2.38099e-23
3.23238e-23
5.98317e-23
1.09653e-22
1.96051e-22
2.84746e-22
2.64579e-22
2.19233e-22
1.54993e-22
9.09087e-23
4.891e-23
2.67493e-23
1.65522e-23
1.01226e-23
5.82812e-24
2.88479e-24
1.23606e-24
2.94722e-25
4.16634e-26
2.18375e-25
5.95384e-25
7.23746e-25
9.15964e-25
1.06545e-24
1.7385e-24
3.85074e-24
7.97901e-24
1.61286e-23
2.44105e-23
2.23883e-23
1.80779e-23
1.23585e-23
7.17523e-24
3.32165e-24
1.92085e-24
1.40368e-24
8.07287e-25
4.23634e-25
1.84226e-25
5.47236e-26
7.84605e-27
6.93736e-28
1.22582e-27
7.82483e-27
2.00428e-26
2.86224e-26
4.19256e-26
8.50702e-26
2.29709e-25
5.3362e-25
1.2179e-24
1.9051e-24
1.73174e-24
1.36055e-24
9.0826e-25
5.3162e-25
3.06694e-25
1.80294e-25
9.52734e-26
5.20624e-26
2.81641e-26
9.60635e-27
1.84044e-27
1.3599e-28
1.66037e-28
9.75463e-31
3.67926e-29
4.20423e-28
7.78228e-28
1.50988e-27
3.86867e-27
1.26777e-26
3.28272e-26
8.44633e-26
1.3522e-25
1.22145e-25
9.40978e-26
6.21777e-26
3.74314e-26
2.26539e-26
1.38453e-26
8.1627e-27
4.14432e-27
1.65073e-27
4.27235e-28
5.46654e-29
1.38803e-29
7.43878e-29
0.0133653
0.0350543
0.0549299
0.0548688
0.00018312
0.000561409
0.00192099
0.00486839
1.31605e-09
6.29195e-06
1.12464e-09
0.000197866
5.6071e-10
7.222e-10
6.36378e-10
0.000256071
7.17921e-10
4.9616e-10
1.39223e-05
2.25629e-05
3.28212e-08
2.34149e-07
4.56683e-07
1.03253e-09
7.49236e-09
1.22553e-08
1.89338e-08
1.87517e-09
2.84911e-09
2.04606e-09
2.26003e-09
3.0678e-09
1.59119e-09
2.04764e-09
2.42614e-09
2.54434e-09
1.83343e-10
4.95754e-10
5.64699e-10
5.34671e-10
3.76383e-11
4.34104e-11
4.37935e-11
4.17918e-11
1.94389e-11
1.89215e-11
1.79948e-11
1.34792e-11
8.39306e-12
9.2504e-12
9.90475e-12
9.90154e-12
1.78211e-12
2.00212e-12
2.10073e-12
2.86396e-12
6.53482e-13
6.28317e-13
7.84191e-13
1.19704e-12
4.59368e-13
4.1811e-13
4.4093e-13
5.34678e-13
3.45419e-13
3.02764e-13
2.7291e-13
2.89656e-13
2.66559e-13
2.17823e-13
1.93795e-13
1.9404e-13
2.05381e-13
1.78488e-13
1.48115e-13
1.48421e-13
1.64735e-13
1.37476e-13
1.21311e-13
1.19971e-13
1.28553e-13
1.13092e-13
9.38368e-14
9.25536e-14
9.89729e-14
8.35633e-14
7.24739e-14
6.81433e-14
6.98133e-14
6.16e-14
5.11336e-14
4.74626e-14
4.4506e-14
3.83331e-14
3.34093e-14
2.97845e-14
2.38715e-14
2.04331e-14
1.75347e-14
1.60322e-14
1.08323e-14
8.98176e-15
7.96617e-15
7.14113e-15
4.22536e-15
3.26572e-15
2.82919e-15
2.58924e-15
1.4126e-15
1.08839e-15
9.15415e-16
7.99298e-16
4.1366e-16
2.90952e-16
2.42139e-16
2.09684e-16
1.02105e-16
7.61918e-17
6.09378e-17
4.86299e-17
2.14579e-17
1.51664e-17
1.19126e-17
9.25414e-18
3.75762e-18
2.76712e-18
2.06905e-18
1.48388e-18
5.55181e-19
3.79771e-19
2.74864e-19
1.88224e-19
6.504e-20
4.50023e-20
2.97338e-20
1.87922e-20
6.35674e-21
4.00638e-21
2.67338e-21
1.7154e-21
5.04026e-22
3.05643e-22
1.231e-22
3.20862e-23
1.89972e-23
4.93126e-24
1.21117e-24
1.62415e-25
1.51418e-25
1.74279e-26
5.81293e-27
9.3667e-27
5.54356e-28
1.35136e-27
3.45002e-27
1.00419e-26
5.47929e-28
1.18241e-27
3.81929e-27
1.21577e-26
3.28821e-28
1.13657e-27
4.03382e-27
1.25161e-26
2.51704e-28
8.69148e-28
2.82009e-27
7.79481e-27
0.0382884
0.000138979
0.00101983
0.00368669
0.0484131
0.0592758
0.0371341
5.95407e-07
2.4451e-06
6.24788e-05
0.000112435
0.000111826
8.49342e-05
4.25717e-05
1.71608e-05
1.82219e-05
1.75594e-05
8.48484e-06
6.27684e-09
0.00578448
0.000141613
0.000702592
0.00795245
0.00770793
1.90827e-05
0.000718399
0.000947954
5.11853e-06
3.61978e-06
9.10778e-08
1.20505e-06
5.13739e-06
9.02344e-06
8.44506e-06
7.72002e-05
1.73754e-05
8.70202e-06
0.000655059
0.000899209
0.00119873
0.000979045
-4.90314e-10
1.1896e-07
3.39679e-05
0.00069504
0.000722364
5.24967e-06
2.84318e-05
6.93121e-08
1.82322e-07
1.25616e-06
3.91972e-06
6.0565e-05
0.000241075
0.000255276
0.0011363
0.00870824
0.000641104
0.000619788
1.03519e-05
3.96933e-10
5.98512e-08
1.95457e-06
1.57305e-05
0.000104897
0.000129946
2.9862e-05
9.65545e-07
3.54361e-06
1.21389e-05
3.45607e-05
9.14873e-05
0.000124894
0.000234369
0.00295993
0.00903776
1.64613e-05
1.37726e-06
1.58855e-11
4.83431e-07
4.91757e-06
1.2713e-05
1.07405e-05
4.17251e-07
1.24786e-05
3.03937e-07
1.3347e-07
8.18068e-09
7.26717e-09
8.00878e-09
2.17644e-05
6.10029e-05
9.99299e-05
0.00148666
0.00511076
1.30245e-09
1.2153e-09
1.69554e-10
7.51084e-10
6.9587e-09
3.83842e-09
9.74508e-08
2.65045e-08
1.68876e-09
1.95199e-07
2.28656e-07
4.87631e-08
1.13831e-08
1.36314e-08
1.68934e-09
1.73445e-09
2.18056e-07
0.000238681
0.000674149
2.13216e-09
3.62529e-09
2.27338e-09
5.23489e-09
1.58416e-07
2.19819e-07
2.72255e-07
2.57273e-07
6.29222e-08
3.09023e-08
7.49101e-08
5.93467e-08
1.1165e-07
1.1528e-07
6.86545e-08
2.17159e-07
0.000182187
0.000388197
0.000387843
3.37693e-09
3.33835e-09
2.58235e-09
3.30391e-08
2.15184e-07
2.05852e-07
4.76474e-08
2.12098e-12
2.16493e-12
2.12099e-12
2.32526e-12
-6.091e-11
9.4608e-08
5.00163e-07
5.60967e-05
0.000491238
0.000853037
0.000868381
0.000724534
2.51553e-09
2.3056e-09
3.45987e-09
2.01303e-08
2.47234e-08
4.11066e-09
2.12831e-12
7.55642e-12
2.12099e-12
2.25666e-10
8.39858e-07
2.81267e-06
9.26987e-07
2.30868e-07
0.000995591
0.00325965
0.00327449
0.00325964
0.00306853
7.48459e-10
2.08951e-09
2.91718e-09
2.05597e-09
1.25622e-09
2.61756e-09
2.35629e-08
1.47584e-07
6.56728e-07
3.08132e-06
1.91066e-05
5.5791e-05
6.34006e-05
0.000138489
0.00119972
0.00198516
0.00215776
0.00168174
0.00100557
1.10039e-10
2.58968e-10
4.79509e-10
1.76302e-09
9.58643e-09
5.38702e-08
2.5935e-07
1.05886e-06
3.74686e-06
1.14722e-05
2.91787e-05
5.52148e-05
8.05606e-05
7.99346e-05
0
2.43928e-14
5.89562e-09
1.07077e-08
1.46479e-08
1.17982e-11
1.53958e-11
2.54093e-11
4.59191e-11
6.92527e-11
7.59773e-11
2.46889e-13
3.13153e-09
2.9529e-08
1.08214e-06
3.34918e-06
-1.66339e-11
1.46848e-17
-3.78138e-25
2.8877e-09
4.2269e-09
6.473e-08
1.12894e-07
5.02558e-08
7.36985e-12
4.10202e-12
3.39089e-12
4.46912e-12
2.72289e-12
6.89356e-13
2.81353e-13
2.0554e-13
3.89503e-12
1.06334e-22
7.00257e-22
6.83114e-10
2.41664e-08
6.83657e-08
4.00854e-08
1.22679e-08
1.11542e-07
1.32038e-07
2.51186e-08
3.81656e-12
2.60659e-12
1.51172e-12
7.95647e-13
7.23162e-13
8.73857e-13
3.88264e-12
1.14458e-11
1.91612e-10
7.56016e-10
3.32279e-10
1.03692e-08
1.43138e-07
1.43311e-07
8.65827e-08
6.81218e-09
2.6604e-08
6.18394e-08
9.76965e-10
1.93741e-12
1.56636e-12
9.43098e-13
7.72832e-13
9.10741e-13
1.95897e-12
1.75598e-11
6.92885e-11
8.87375e-10
3.20265e-09
4.6324e-09
5.15305e-09
1.1275e-07
9.55031e-08
2.7328e-08
5.55313e-09
1.62245e-10
2.07463e-10
2.01316e-10
8.96799e-13
9.52371e-13
1.01951e-12
1.87522e-12
4.41445e-12
1.74e-11
9.47998e-11
2.3602e-10
1.52501e-09
3.86316e-09
7.07854e-09
1.57672e-08
2.56469e-09
1.42471e-09
1.13297e-09
7.33313e-10
1.62665e-10
1.96013e-10
2.21647e-10
6.13953e-13
1.48137e-12
3.92114e-12
9.77632e-12
2.4412e-11
1.03401e-10
2.86484e-10
5.09539e-10
1.57093e-09
3.06906e-09
6.39253e-09
1.55584e-08
1.21701e-08
6.77292e-09
1.67941e-09
1.97982e-10
4.60635e-11
1.76539e-10
1.99414e-10
9.55891e-13
5.08615e-12
1.50136e-11
3.41218e-11
7.55183e-11
1.69463e-10
4.0231e-10
6.44216e-10
1.23816e-09
1.73193e-09
2.99946e-09
9.36093e-09
1.11577e-08
6.7797e-09
1.62963e-09
2.54002e-10
2.07421e-11
6.01534e-11
1.14903e-10
1.19915e-12
6.79631e-12
2.02728e-11
4.93857e-11
1.09614e-10
1.66297e-10
3.59429e-10
6.94101e-10
1.06301e-09
1.46879e-09
1.74311e-09
1.13108e-09
1.27578e-09
7.40278e-10
1.8951e-10
3.25436e-11
9.29295e-12
2.06978e-11
2.97845e-11
9.4668e-13
5.23377e-12
1.58816e-11
3.86363e-11
8.42137e-11
1.50743e-10
2.58746e-10
4.64716e-10
6.62966e-10
8.45031e-10
8.17847e-10
3.72862e-10
9.04431e-11
2.31631e-11
4.49206e-12
3.32037e-12
5.05841e-12
9.32293e-12
1.00252e-11
5.1341e-13
2.85075e-12
8.5637e-12
2.01246e-11
4.2211e-11
7.97641e-11
1.28878e-10
1.92094e-10
2.67013e-10
3.15172e-10
2.995e-10
2.39605e-10
1.32727e-10
5.66979e-11
6.62315e-12
2.09558e-12
2.4912e-12
3.39412e-12
3.65989e-12
2.30207e-13
9.61565e-13
3.19588e-12
7.17188e-12
1.37408e-11
2.46541e-11
4.03305e-11
5.93418e-11
7.60877e-11
7.81589e-11
6.85617e-11
5.28178e-11
2.42281e-11
3.98538e-12
6.89668e-13
6.0236e-13
8.1766e-13
1.20191e-12
6.5798e-13
8.80867e-14
2.69569e-13
7.22024e-13
1.80792e-12
3.50312e-12
6.05999e-12
9.48507e-12
1.33171e-11
1.66488e-11
1.73278e-11
1.51884e-11
1.08013e-11
4.11103e-12
5.67455e-13
1.64623e-13
2.39168e-13
2.91995e-13
1.39779e-13
2.03295e-13
3.48561e-14
6.41655e-14
1.3263e-13
2.52873e-13
5.54653e-13
9.76238e-13
1.47261e-12
2.03548e-12
2.46165e-12
2.53712e-12
2.34645e-12
1.65112e-12
6.05034e-13
9.06567e-14
5.096e-14
4.77741e-14
2.94913e-14
2.43617e-14
7.91258e-15
1.51775e-14
1.68851e-14
2.24142e-14
3.61816e-14
6.36714e-14
1.20489e-13
1.786e-13
2.4615e-13
3.07668e-13
3.34005e-13
3.20671e-13
2.43823e-13
9.6266e-14
1.65925e-14
1.03379e-14
8.45672e-15
3.91274e-15
1.08585e-15
5.18351e-16
6.26359e-15
5.46612e-15
5.03426e-15
5.19315e-15
7.22939e-15
1.02746e-14
1.48498e-14
2.04906e-14
2.72293e-14
3.34802e-14
3.46793e-14
2.87018e-14
1.18297e-14
2.25715e-15
1.67117e-15
6.081e-16
1.9817e-16
1.33768e-16
1.00067e-16
2.23214e-15
1.80227e-15
1.39045e-15
1.07246e-15
8.70733e-16
8.73152e-16
1.0237e-15
1.3467e-15
1.91991e-15
2.64726e-15
3.01376e-15
2.63679e-15
1.17653e-15
2.86853e-16
1.46708e-16
6.26764e-17
6.77134e-17
8.1202e-17
4.8937e-17
6.58368e-16
4.9991e-16
3.61538e-16
2.55723e-16
1.61357e-16
1.19342e-16
9.49786e-17
9.44668e-17
1.19849e-16
1.72001e-16
2.16647e-16
2.0139e-16
1.00686e-16
3.57206e-17
1.72247e-17
1.93581e-17
3.53117e-17
5.42403e-17
2.88479e-17
1.60983e-16
1.1232e-16
7.35174e-17
4.87075e-17
2.74267e-17
1.91785e-17
1.49349e-17
1.035e-17
8.75491e-18
1.0315e-17
1.28163e-17
1.25366e-17
7.27902e-18
5.19314e-18
6.14276e-18
8.70802e-18
1.77159e-17
2.86226e-17
1.81775e-17
3.24261e-17
2.0413e-17
1.31268e-17
6.12788e-18
2.72379e-18
1.87049e-18
1.6308e-18
1.32944e-18
8.16316e-19
6.30354e-19
7.12849e-19
5.6301e-19
3.72359e-19
6.83708e-19
2.02821e-18
3.80705e-18
8.5408e-18
1.8924e-17
1.17312e-17
5.39277e-18
3.14048e-18
1.65813e-18
5.37881e-19
1.4038e-19
8.23452e-20
9.47398e-20
9.46619e-20
7.26904e-20
4.80956e-20
4.7469e-20
6.48022e-20
1.22456e-19
2.72106e-19
6.77799e-19
1.79594e-18
4.47065e-18
1.05797e-17
8.60181e-18
7.38557e-19
4.0541e-19
1.36408e-19
2.52611e-20
2.53721e-21
2.19223e-21
3.92391e-21
5.90269e-21
8.44919e-21
1.44178e-20
2.82624e-20
5.65425e-20
1.13839e-19
2.24384e-19
4.75551e-19
1.06728e-18
2.69234e-18
7.14344e-18
4.72548e-18
9.04044e-20
3.37065e-20
4.94769e-21
3.79771e-22
2.01368e-22
4.01243e-22
1.0141e-21
2.4608e-21
5.78706e-21
1.3014e-20
2.81721e-20
5.78175e-20
1.11933e-19
2.07801e-19
3.72328e-19
8.3455e-19
2.17226e-18
3.66267e-18
3.02064e-18
8.78406e-21
1.41881e-21
8.93738e-23
5.05283e-23
1.14016e-22
3.23243e-22
8.68007e-22
2.24123e-21
5.53815e-21
1.29591e-20
2.85734e-20
5.85024e-20
1.10497e-19
1.91526e-19
3.25969e-19
7.1381e-19
1.42539e-18
2.29188e-18
1.45028e-18
3.84345e-22
1.89594e-23
1.16328e-23
3.14515e-23
9.7721e-23
2.85312e-22
8.06441e-22
2.11966e-21
5.27336e-21
1.22648e-20
2.71598e-20
5.56231e-20
1.0176e-19
1.7325e-19
3.01487e-19
5.70428e-19
9.74337e-19
1.15684e-18
8.365e-19
4.00179e-24
2.08434e-24
7.10794e-24
2.58976e-23
8.49244e-23
2.55164e-22
7.24733e-22
1.92545e-21
4.81776e-21
1.13981e-20
2.54287e-20
5.15465e-20
9.35791e-20
1.59495e-19
2.62303e-19
4.27577e-19
6.06656e-19
6.67262e-19
3.63103e-19
2.37974e-25
1.35191e-24
5.77008e-24
2.17695e-23
7.12512e-23
2.17719e-22
6.15876e-22
1.62982e-21
4.1121e-21
9.73456e-21
2.1527e-20
4.34815e-20
7.88036e-20
1.31424e-19
2.04558e-19
3.05801e-19
3.78639e-19
3.15837e-19
1.83374e-19
1.99946e-25
1.12466e-24
4.69439e-24
1.72315e-23
5.63013e-23
1.68757e-22
4.81575e-22
1.26361e-21
3.15772e-21
7.4739e-21
1.65108e-20
3.31798e-20
5.97485e-20
9.85189e-20
1.46982e-19
1.94547e-19
2.02416e-19
1.64349e-19
7.16867e-20
1.70732e-25
8.6573e-25
3.4576e-24
1.21745e-23
3.91106e-23
1.16397e-22
3.24601e-22
8.52482e-22
2.12894e-21
5.05121e-21
1.11243e-20
2.22958e-20
4.02516e-20
6.61642e-20
9.00437e-20
1.16883e-19
1.04458e-19
6.67747e-20
3.1093e-20
1.31761e-25
5.773e-25
2.11345e-24
6.98274e-24
2.15362e-23
6.27986e-23
1.77109e-22
4.71596e-22
1.18308e-21
2.8251e-21
6.29571e-21
1.2706e-20
2.31273e-20
3.7717e-20
5.02537e-20
6.22423e-20
4.56018e-20
2.73419e-20
1.63406e-20
7.74178e-26
2.89303e-25
9.67646e-25
3.01255e-24
9.11643e-24
2.69111e-23
7.67011e-23
2.10045e-22
5.43109e-22
1.34872e-21
3.09282e-21
6.37357e-21
1.16062e-20
1.89885e-20
2.46695e-20
2.88622e-20
1.73397e-20
1.25391e-20
8.58246e-21
2.53096e-26
7.99645e-26
2.4359e-25
7.00868e-25
2.28544e-24
7.45951e-24
2.28899e-23
6.61843e-23
1.81504e-22
4.65288e-22
1.09364e-21
2.32461e-21
4.33064e-21
7.22421e-21
9.46598e-21
1.05999e-20
6.31896e-21
4.52096e-21
2.58496e-21
)
;

boundaryField
{
    leftWall
    {
        type            alphaContactAngle;
        contactAngleProperties 
        {
            air             
            {
                theta0          90;
            }
            water           
            {
                theta0          90;
            }
            oil             
            {
                theta0          90;
            }
        }
        value           nonuniform List<scalar> 
50
(
1
1
1
1
1
1
1
0.955561
0.128536
7.52557e-09
3.9551e-10
3.9692e-10
3.36892e-10
4.05954e-10
4.93136e-10
4.12942e-10
1.9641e-10
1.05922e-10
9.11944e-11
8.83178e-11
8.54439e-11
8.16682e-11
7.21458e-11
5.64897e-11
3.96926e-11
2.52275e-11
1.80342e-11
1.21131e-11
8.28059e-12
4.96422e-12
3.28961e-12
1.66826e-12
9.87091e-13
4.52516e-13
2.3722e-13
8.63892e-14
3.46756e-14
1.19462e-14
3.51485e-15
7.36046e-16
1.41902e-16
2.02938e-17
1.79829e-18
1.66124e-19
7.04929e-21
4.68668e-22
1.39132e-23
2.18375e-25
1.22582e-27
9.75463e-31
)
;
    }
    rightWall
    {
        type            alphaContactAngle;
        contactAngleProperties 
        {
            air             
            {
                theta0          90;
            }
            water           
            {
                theta0          90;
            }
            oil             
            {
                theta0          90;
            }
        }
        value           nonuniform List<scalar> 
50
(
0.74558
0.733961
0.587981
0.468972
0.219872
0.174149
0.026868
5.36208e-16
6.27684e-09
0.000655059
0.00870824
0.00903776
0.00511076
0.000674149
0.000387843
0.000724534
0.00306853
0.00100557
1.46479e-08
5.02558e-08
2.51186e-08
9.76965e-10
2.01316e-10
2.21647e-10
1.99414e-10
1.14903e-10
2.97845e-11
1.00252e-11
3.65989e-12
6.5798e-13
2.03295e-13
7.91258e-15
5.18351e-16
1.00067e-16
4.8937e-17
2.88479e-17
1.81775e-17
1.17312e-17
8.60181e-18
4.72548e-18
3.02064e-18
1.45028e-18
8.365e-19
3.63103e-19
1.83374e-19
7.16867e-20
3.1093e-20
1.63406e-20
8.58246e-21
2.58496e-21
)
;
    }
    lowerWall
    {
        type            alphaContactAngle;
        contactAngleProperties 
        {
            air             
            {
                theta0          90;
            }
            water           
            {
                theta0          90;
            }
            oil             
            {
                theta0          90;
            }
        }
        value           nonuniform List<scalar> 
62
(
1
1
1
1
1
1
1
1
1
1
1
1
1
1
1
1
1
1
1
0.999823
0.999533
0.999434
0.999433
0.999433
0.999823
1
1
0.999706
0.553811
2.59919e-23
1.57062e-05
0.0133653
0.0350543
0.0549299
0.0548688
0.870715
0.51895
0.120715
0.179625
0.137638
0.0423539
0.00569702
0.0205234
0.870715
0.872978
0.877556
0.877556
0.877556
0.877377
0.815001
0.622329
0.616805
0.623672
0.619058
0.602435
0.59348
0.620337
0.740721
0.751147
0.751226
0.751028
0.74558
)
;
    }
    atmosphere
    {
        type            inletOutlet;
        inletValue      uniform 0;
        value           nonuniform List<scalar> 
46
(
9.75462e-31
3.67926e-29
4.20422e-28
7.78228e-28
1.50988e-27
3.86867e-27
1.26777e-26
3.28272e-26
8.44633e-26
1.3522e-25
1.22145e-25
9.40977e-26
6.21777e-26
3.74314e-26
2.26539e-26
1.38452e-26
8.1627e-27
4.14432e-27
1.65073e-27
4.27235e-28
5.46654e-29
1.38803e-29
7.43878e-29
2.51704e-28
0
0
0
0
0
0
0
0
0
0
0
0
0
0
0
0
0
0
0
0
0
0
)
;
    }
    defaultFaces
    {
        type            empty;
    }
}


// ************************************************************************* //
