/*--------------------------------*- C++ -*----------------------------------*\
  =========                 |
  \\      /  F ield         | OpenFOAM: The Open Source CFD Toolbox
   \\    /   O peration     | Website:  https://openfoam.org
    \\  /    A nd           | Version:  13
     \\/     M anipulation  |
\*---------------------------------------------------------------------------*/
FoamFile
{
    format      ascii;
    class       volScalarField;
    location    "2";
    object      alpha.air;
}
// * * * * * * * * * * * * * * * * * * * * * * * * * * * * * * * * * * * * * //

dimensions      [];

internalField   nonuniform List<scalar> 
2268
(
1.90279e-13
2.83442e-13
2.77669e-13
1.70269e-13
9.80965e-14
4.75435e-14
2.24325e-14
1.12615e-14
6.69588e-15
5.94783e-15
7.54011e-15
1.47531e-14
3.27565e-14
1.06135e-13
1.70421e-13
1.48634e-13
2.29974e-13
1.58184e-12
1.48995e-12
2.02441e-12
2.74867e-13
2.36488e-13
3.55831e-13
7.25852e-13
1.05412e-12
9.9909e-13
7.59959e-13
5.10298e-13
2.96432e-13
1.57244e-13
8.53142e-14
5.9399e-14
6.3271e-14
1.51861e-13
4.62523e-13
1.43188e-12
3.62054e-12
7.06755e-12
5.54418e-12
1.20604e-11
4.1441e-11
4.30211e-11
6.4838e-11
7.80007e-11
2.93919e-10
1.93882e-11
1.91392e-12
2.62429e-12
1.96197e-12
1.77867e-12
1.10638e-12
6.59436e-13
3.89085e-13
2.75199e-13
2.96513e-13
5.7295e-13
1.6574e-12
4.80896e-12
1.33697e-11
3.43684e-11
7.90003e-11
1.55147e-10
2.72829e-10
4.21903e-10
7.17305e-10
1.48006e-09
3.09292e-09
4.88987e-09
1.27415e-09
4.4044e-12
4.82814e-12
4.66555e-12
3.94453e-12
2.94192e-12
2.09273e-12
1.46776e-12
1.20679e-12
1.38422e-12
2.56236e-12
6.05802e-12
1.59655e-11
4.04977e-11
1.05829e-10
2.31302e-10
4.44099e-10
7.30691e-10
8.54731e-10
1.22729e-09
2.72108e-09
6.62222e-09
1.14083e-08
6.01769e-09
1.25802e-11
1.2767e-11
1.19918e-11
1.12395e-11
1.04406e-11
8.57546e-12
6.74938e-12
5.86488e-12
6.06433e-12
7.74525e-12
1.20978e-11
2.53171e-11
5.96791e-11
1.31642e-10
2.50662e-10
4.0364e-10
5.02606e-10
5.33007e-10
5.47283e-10
5.67512e-10
5.88305e-10
6.11608e-10
6.35848e-10
2.93178e-11
3.58347e-11
3.97619e-11
4.04825e-11
4.12605e-11
4.07824e-11
3.71427e-11
3.26093e-11
3.35803e-11
3.77828e-11
4.77363e-11
7.57387e-11
1.12856e-10
9.75434e-11
8.81197e-11
1.53095e-10
8.74528e-09
1.35359e-06
2.69919e-05
0.000122003
0.000298745
0.000474213
0.000538178
4.87296e-11
7.25868e-11
7.73832e-11
7.80117e-11
8.50527e-11
1.02341e-10
1.24453e-10
1.45308e-10
1.67253e-10
2.39385e-10
3.87264e-10
7.40872e-10
2.06051e-09
9.59725e-09
5.66963e-08
3.49817e-07
2.58463e-06
1.7925e-05
9.40778e-05
0.000300003
0.000701662
0.00128298
0.00156375
1.12421e-10
1.02279e-10
1.31735e-10
1.66948e-10
2.14205e-10
2.61812e-10
3.13384e-10
4.1241e-10
5.80982e-10
8.4404e-10
1.3592e-09
2.6051e-09
7.75344e-09
3.50337e-08
1.75769e-07
9.38373e-07
4.76896e-06
2.09375e-05
4.88456e-05
8.17213e-05
0.000128215
0.000236078
0.000755866
0.000329432
0.000329432
0.00339683
0.0194999
0.0287718
0.0488128
0.0715619
0.0726298
0.0539376
0.0438088
0.043399
0.0576489
0.0859924
0.115243
0.0787015
0.0226769
0.0148764
0.0148465
0.0148111
0.00464149
0.00556185
0.00385199
0.000667196
0.00033963
0.000338833
0.000337955
0.00351253
0.0111612
0.0533357
0.0618635
0.0578113
0.0577653
0.111434
0.0908711
0.0462914
0.0161916
0.0148391
0.014766
0.0165485
0.0180791
0.0203207
0.0206015
0.0119761
0.00573265
0.000785017
7.58899e-08
7.66632e-08
0.0783294
0.266615
0.271584
0.172969
0.160201
0.246764
0.214956
0.0528474
0.014627
0.0147041
0.0155959
0.0156374
0.0212274
0.0269662
0.026964
0.0253304
0.00297855
7.7159e-08
7.02481e-08
0.0562764
0.513998
0.569227
0.569311
0.552099
0.468912
0.462832
0.413868
0.224422
0.0274148
0.015564
0.0155702
0.0155817
0.0244928
0.0269212
0.012512
0.000729577
0.0010379
7.35879e-08
0.0014452
0.318416
0.569226
0.569312
0.56931
0.554759
0.457317
0.458567
0.459837
0.276267
0.0407753
0.0334573
0.0156189
0.0114609
0.0167955
0.0139028
0.036788
0.0178655
0.0004444
0.000302554
0.0614899
0.336664
0.555402
0.569217
0.517966
0.223779
0.321286
0.459558
0.315754
0.0731257
0.0760653
0.0634387
0.0115863
0.0190292
0.0792388
0.0845757
0.0194736
1.48791e-05
0.000999819
3.51698e-05
3.59091e-05
0.0853999
0.222439
0.186511
0.0294288
0.0179283
0.112941
0.0898416
0.0709814
0.0809257
0.0713081
0.0439848
0.127845
0.160958
0.125731
0.00259697
1.7867e-05
2.43069e-05
4.49011e-05
5.73282e-05
4.6707e-09
5.75917e-11
-5.23493e-09
-2.01551e-08
-4.25328e-08
0.000226783
7.77874e-10
1.45174e-09
8.90899e-10
5.6606e-10
5.78224e-10
8.52586e-10
1.34914e-09
2.03165e-09
2.2293e-09
2.29574e-09
2.40831e-09
3.19176e-09
4.04738e-09
4.83978e-09
1.17605e-08
2.49277e-08
6.08095e-08
3.36525e-07
1.85589e-06
2.08114e-06
2.26878e-06
2.45511e-06
1.00816e-05
0.00625144
1.87098e-09
1.1497e-09
4.89484e-10
4.65112e-10
6.28569e-10
1.12099e-09
2.53125e-09
4.53921e-09
5.16729e-09
5.74549e-09
7.42927e-09
8.5305e-09
6.34193e-09
7.41377e-09
8.56509e-09
1.33129e-08
2.05739e-08
1.3542e-06
0.00243638
0.0181986
0.0398021
0.0606276
0.0629005
8.07489e-10
5.5008e-10
4.68734e-10
4.68399e-10
4.48094e-10
4.53641e-10
4.49351e-10
4.56567e-10
4.52376e-10
4.7094e-10
4.56091e-10
4.70675e-10
1.78065e-07
0.00133785
0.0107529
0.0231964
0.0348024
0.0558254
0.103846
0.158473
0.165955
0.140788
0.00494666
4.50376e-10
4.53421e-10
0.00353534
0.00400277
0.00177324
0.000201722
0.000504859
0.00327696
0.012192
0.0222884
0.0345592
0.0499541
0.0697566
0.104444
0.161309
0.159882
0.130832
0.150907
0.168485
0.16848
0.158295
0.0186098
0.00436152
0.127381
0.0814058
0.0187067
0.000809547
0.000750465
0.000220922
0.0119135
0.14815
0.177299
0.177689
0.178009
0.193021
0.202141
0.202196
0.202141
0.181546
0.082849
0.0786063
0.149067
0.104843
0.00914821
0.000269113
0.00542247
0.189085
0.111552
0.0124686
0.00293158
0.00196077
0.00476301
0.0126698
0.117901
0.124027
0.0642427
0.0633302
0.0667855
0.0397206
0.0194744
0.0202283
0.00990402
0.00259196
0.00205142
0.00947379
0.00593734
1.07273e-06
0.000367653
0.00128631
0.165799
0.103278
0.0465883
0.0396065
0.0409864
0.0443975
0.0521699
0.0597439
0.0690366
0.075259
0.0718062
0.0805212
0.0758652
0.0465002
0.0213688
2.17672e-06
1.69543e-06
1.08617e-06
8.48459e-07
8.09146e-07
1.70632e-06
1.62512e-05
-2.15859e-14
0.762412
0.715201
0.680275
0.671162
0.677222
0.695124
0.713711
0.726212
0.741805
0.760934
0.766546
0.746521
0.719282
0.673888
0.588483
0.466735
0.278489
0.0525884
1.48214e-06
1.08927e-06
8.45269e-07
4.04714e-07
-6.97027e-10
1
1
1
0.999994
0.999987
0.99999
0.999995
0.999999
1
1
1
0.999999
0.999998
0.999999
0.999998
0.996945
0.969313
0.858391
0.607864
0.357169
0.17022
0.0623271
0.0500962
0.999999
0.999997
0.999999
0.99998
0.999672
0.999647
0.999969
1
1
1
1
1
0.999999
0.999999
1
1
0.999997
0.999995
0.999994
0.989643
0.940565
0.857782
0.822785
0.999998
0.999992
0.999993
0.999907
0.999996
1
1
1
0.999995
0.999919
0.999852
0.999896
0.999984
1
1
1
1
1
0.999999
0.999998
0.999996
0.999996
0.999998
0.999998
0.999994
0.999999
1
1
1
1
0.999997
0.999884
0.999827
0.999827
0.999827
0.999981
0.999999
1
1
1
1
1
1
1
1
1
0.999999
0.999999
1
1
1
1
1
0.999999
0.999895
0.999827
0.999827
0.999909
0.999994
0.999997
0.999998
0.999999
0.999999
1
1
1
1
1
1
1
1
1
1
1
1
1
1
0.999988
0.999943
0.999942
0.999997
0.999997
0.999997
0.999997
0.999997
0.999998
0.999999
1
1
1
1
1
1
1
1
1
1
1
1
1
1
1
1
1
0.999998
0.999997
0.999998
0.999998
0.999999
0.999999
1
1
1
1
1
1
1
1
1
1
1
1
1
1
1
1
0.999999
0.999999
0.999999
1
1
1
1
1
1
1
1
1
1
1
1
1
1
1
1
1
1
1
0.999999
0.999999
0.999999
1
1
1
1
1
1
1
1
1
1
1
1
1
1
1
1
1
1
1
1
1
0.999999
0.999999
1
1
1
1
1
1
1
1
1
1
1
1
1
1
1
1
1
1
1
1
1
1
1
1
1
1
1
1
1
1
1
1
1
1
1
1
1
1
1
1
1
1
1
1
1
1
1
1
1
1
1
1
1
1
1
1
1
1
1
1
1
1
1
1
1
1
1
1
1
1
1
1
1
1
1
1
1
1
1
1
1
1
1
1
1
1
1
1
1
1
1
1
1
1
1
1
1
1
1
1
1
1
1
1
1
1
1
1
1
1
1
1
1
1
1
1
1
1
1
1
1
1
1
1
1
1
1
1
1
1
1
1
1
1
1
1
1
1
1
1
1
1
1
1
1
1
1
1
1
1
1
1
1
1
1
1
1
1
1
1
1
1
1
1
1
1
1
1
1
1
1
1
1
1
1
1
1
1
1
1
1
1
1
1
1
1
1
1
1
1
1
1
1
1
1
1
1
1
1
1
1
1
1
1
1
1
1
1
1
1
1
1
1
1
1
1
1
1
1
1
1
1
1
1
1
1
1
1
1
1
1
1
1
1
1
1
1
1
1
1
1
1
1
1
1
1
1
1
1
1
1
1
1
1
1
1
1
1
1
1
1
1
1
1
1
1
1
1
1
1
1
1
1
1
1
1
1
1
1
1
1
1
1
1
1
1
1
1
1
1
1
1
1
1
1
1
1
1
1
1
1
1
1
1
1
1
1
1
1
1
1
1
1
1
1
1
1
1
1
1
1
1
1
1
1
1
1
1
1
1
1
1
1
1
1
1
1
1
1
1
1
1
1
1
1
1
1
1
1
1
1
1
1
1
1
1
1
1
1
1
1
1
1
1
1
1
1
1
1
1
1
1
1
1
1
1
1
1
1
1
1
1
1
1
1
1
1
1
1
1
1
1
1
1
1
1
1
1
1
1
1
1
1
1
1
1
1
1
1
1
1
1
1
1
1
1
1
1
1
1
1
1
1
1
1
1
1
1
1
1
1
1
1
1
1
1
1
1
1
1
1
1
1
1
1
1
1
1
1
1
1
1
1
1
1
1
1
1
1
1
1
1
1
1
1
1
1
1
1
1
1
1
1
1
1
1
1
1
1
1
1
1
1
1
1
1
1
1
1
1
1
1
1
1
1
1
1
1
1
1
1
1
1
1
1
1
1
1
1
1
1
1
1
1
1
1
1
1
1
1
1
1
1
1
1
1
1
1
1
1
1
1
1
1
1
1
1
1
1
1
1
1
1
1
1
1
1
1
1
1
1
1
1
1
1
1
1
1
1
1
1
1
0.0155799
0.00977979
0.00997274
0.0310942
0.0182348
0.0335135
0.153757
0.18611
0.0192604
0.164165
0.185504
0.186156
0.0285021
0.114176
0.109038
0.0475486
0.0109643
0.00320508
0.000380268
4.81194e-18
0.000167976
2.23184e-12
-7.12206e-11
1.09993e-10
1.18677e-10
2.0099e-09
4.32626e-09
5.70432e-10
-1.99556e-12
2.95422e-27
-5.65274e-11
5.71496e-27
0.135351
0.167887
0.0858392
0.0387952
0.852614
0.870264
0.858265
0.848941
0.999999
0.999999
0.999999
0.999998
1
1
1
1
1
1
1
1
1
1
1
1
1
1
1
1
1
1
1
1
1
1
1
1
1
1
1
1
1
1
1
1
1
1
1
1
1
1
1
1
1
1
1
1
1
1
1
1
1
1
1
1
1
1
1
1
1
1
1
1
1
1
1
1
1
1
1
1
1
1
1
1
1
1
1
1
1
1
1
1
1
1
1
1
1
1
1
1
1
1
1
1
1
1
1
1
1
1
1
1
1
1
1
1
1
1
1
1
1
1
1
1
1
1
1
1
1
1
1
1
1
1
1
1
0.0913739
0.133325
0.107992
0.16581
0.179283
0.178208
0.131102
0.0040558
0.000122456
0.000992335
0.000936895
0.000595967
0.000288808
0.000112091
5.91929e-05
3.10993e-05
6.77397e-06
4.73892e-05
-2.52121e-07
0.186156
0.186109
0.176418
0.177535
0.125872
0.104244
0.166934
0.106444
0.0395518
0.0139953
0.00466322
0.00210525
0.000958502
0.000487555
0.000442539
0.000189509
8.88275e-06
0.00200742
0.0421935
0.18611
0.186156
0.12393
0.00323415
0.00315849
0.122646
0.167582
0.167579
0.11486
0.00215622
3.61143e-05
0.000268496
0.000328774
0.000116609
0.0001941
0.00031158
0.000321353
0.0195121
0.0858831
0.0473909
0.0211081
0.00212626
1.66302e-05
0.000373703
0.0655415
0.128483
0.0580524
0.000493048
0.000132309
3.29402e-05
4.28611e-06
1.50843e-05
0.000148923
0.000270078
0.000247488
0.00016878
0.0197967
0.0867024
5.92635e-18
-5.51215e-09
2.25213e-07
0.000859904
0.00162467
4.46708e-07
3.12864e-14
1.73254e-09
-1.11295e-15
8.51139e-06
2.54014e-05
1.33551e-06
7.49271e-07
0.000145138
0.000270957
0.000234266
0.000167858
0.00281361
0.0186943
1.82879e-07
1.81792e-05
2.37695e-05
1.04474e-05
5.17099e-09
4.992e-09
1.06756e-07
4.44327e-07
1.23776e-06
8.19431e-06
6.70695e-06
2.33489e-07
4.7491e-08
1.33257e-07
2.46925e-07
0.000117007
0.00146816
0.00195145
0.00212209
4.97172e-08
2.25677e-07
-8.91611e-15
1.7354e-25
1.52871e-08
4.68964e-08
2.32769e-07
1.95609e-07
3.52256e-08
7.39086e-17
2.36461e-17
1.53747e-14
3.17698e-08
4.42548e-08
8.46731e-08
1.7085e-05
0.00986395
0.0219729
0.0210763
-5.73283e-13
3.17089e-15
-6.31475e-20
2.5094e-20
-6.35125e-11
-4.99722e-12
-3.91473e-09
-5.2813e-09
-1.86343e-09
3.65846e-18
1.99066e-19
-1.53997e-14
-3.45392e-11
7.58267e-19
-8.6379e-11
-9.82257e-09
-3.78647e-05
0.00794252
0.0147192
0.0441134
0.0679624
0.169192
0.261737
0.287163
0.299383
0.333814
0.349118
0.32874
0.322954
0.319012
0.308337
0.295115
0.28779
0.332743
0.405268
0.426154
0.43219
0.452907
0.880845
0.954327
0.980828
0.963395
0.957607
0.980877
0.997014
0.999999
0.999803
0.999989
0.999922
0.999168
0.996272
0.997561
0.993529
0.99006
0.989732
0.992123
0.995078
0.999999
1
1
1
1
1
0.999999
0.999996
0.999986
0.999956
0.999881
0.99975
0.999583
0.999601
0.999999
0.999984
1
1
1
1
1
1
1
1
0.999999
0.999993
0.999931
0.999836
0.999903
0.999952
0.999955
0.99941
0.999107
0.999385
0.999864
0.999999
0.999998
0.999999
1
1
1
1
1
0.999999
0.999994
0.999679
0.998996
0.999097
0.999872
0.999978
0.999008
0.998436
0.998468
0.999782
0.999998
0.999999
0.999999
1
1
1
1
1
1
0.999998
0.999841
0.998994
0.998996
0.999422
0.999992
0.99996
0.999541
0.999908
0.999955
0.999997
1
1
1
1
1
1
1
1
1
1
0.999833
0.999538
0.999782
0.999995
0.999999
1
1
1
0.999999
1
0.999999
1
1
1
1
1
1
1
1
1
1
1
0.999999
0.999999
0.999999
1
1
1
1
0.999999
1
1
1
1
1
1
0.999999
0.999999
0.999999
1
1
1
0.999999
0.999999
1
1
1
1
0.999999
1
1
1
1
1
1
1
0.999999
0.999999
1
1
1
0.999999
0.999999
1
1
1
1
0.999999
1
1
1
1
1
1
1
1
1
1
1
1
1
1
1
1
1
1
1
1
1
1
1
1
1
1
1
1
1
1
1
1
1
1
1
1
1
1
1
1
1
1
1
1
1
1
1
1
1
1
1
1
1
1
1
1
1
1
1
1
1
1
1
1
1
1
1
1
1
1
1
1
1
1
1
1
1
1
1
1
1
1
1
1
1
1
1
1
1
1
1
1
1
1
1
1
1
1
1
1
1
1
1
1
1
1
1
1
1
1
1
1
1
1
1
1
1
1
1
1
1
1
1
1
1
1
1
1
1
1
1
1
1
1
1
1
1
1
1
1
1
1
1
1
1
1
1
1
1
1
1
1
1
1
1
1
1
1
1
1
1
1
1
1
1
1
1
1
1
1
1
1
1
1
1
1
1
1
1
1
1
1
1
1
1
1
1
1
1
1
1
1
1
1
1
1
1
1
1
1
1
1
1
1
1
1
1
1
1
1
1
1
1
1
1
1
1
1
1
1
1
1
1
1
1
1
1
1
1
1
1
1
1
1
1
1
1
1
1
1
1
1
1
1
1
1
1
1
1
1
1
1
1
1
1
1
1
1
1
1
1
1
1
1
1
1
1
1
1
1
1
1
1
1
1
1
1
1
1
1
1
1
1
1
1
1
1
1
1
1
1
1
1
1
1
1
1
1
1
1
1
1
1
1
1
1
1
1
1
1
1
1
1
1
1
1
1
1
1
1
1
1
1
1
1
1
1
1
1
1
1
1
1
1
1
1
1
1
1
1
1
1
1
1
1
1
1
1
1
1
1
1
1
1
1
1
1
1
1
1
1
1
1
1
1
1
1
1
1
1
1
1
1
1
1
1
1
1
1
1
1
1
1
1
1
1
1
1
1
1
1
1
1
1
1
1
1
1
1
1
1
1
1
1
1
1
1
1
1
1
1
1
1
1
1
1
1
1
1
1
1
1
1
1
1
1
1
1
1
1
1
1
1
1
1
1
1
1
1
1
1
1
1
1
1
1
1
1
1
1
1
1
1
1
1
1
)
;

boundaryField
{
    leftWall
    {
        type            alphaContactAngle;
        contactAngleProperties 
        {
            mercury         
            {
                theta0          90;
            }
            water           
            {
                theta0          90;
            }
            oil             
            {
                theta0          90;
            }
        }
        value           nonuniform List<scalar> 
50
(
1.90279e-13
7.25852e-13
1.91392e-12
4.4044e-12
1.25802e-11
2.93178e-11
4.87296e-11
1.12421e-10
1.45174e-09
1.87098e-09
8.07489e-10
4.50376e-10
0.127381
0.189085
0.165799
0.762412
1
0.999999
0.999998
0.999998
0.999999
1
1
1
1
1
1
1
1
1
1
1
1
1
1
1
1
1
1
1
1
1
1
1
1
1
1
1
1
1
)
;
    }
    rightWall
    {
        type            alphaContactAngle;
        contactAngleProperties 
        {
            mercury         
            {
                theta0          90;
            }
            water           
            {
                theta0          90;
            }
            oil             
            {
                theta0          90;
            }
        }
        value           nonuniform List<scalar> 
50
(
0.0148111
0.014766
0.0147041
0.0274148
0.276267
0.315754
0.0898416
7.77874e-10
-2.52121e-07
0.0421935
0.0858831
0.0867024
0.0186943
0.00212209
0.0210763
0.0147192
0.452907
0.995078
1
0.999999
0.999999
1
0.999999
0.999999
0.999999
0.999999
1
1
1
1
1
1
1
1
1
1
1
1
1
1
1
1
1
1
1
1
1
1
1
1
)
;
    }
    lowerWall
    {
        type            alphaContactAngle;
        contactAngleProperties 
        {
            mercury         
            {
                theta0          90;
            }
            water           
            {
                theta0          90;
            }
            oil             
            {
                theta0          90;
            }
        }
        value           nonuniform List<scalar> 
62
(
1.90279e-13
2.83442e-13
2.77669e-13
1.70269e-13
9.80965e-14
4.75435e-14
2.24325e-14
1.12615e-14
6.69588e-15
5.94783e-15
7.54011e-15
1.47531e-14
3.27565e-14
1.06135e-13
1.70421e-13
1.48634e-13
2.29974e-13
1.58184e-12
1.48995e-12
2.02441e-12
2.74867e-13
2.36488e-13
3.55831e-13
3.55831e-13
1.93882e-11
1.27415e-09
6.01769e-09
6.35848e-10
0.000538178
0.00156375
0.000755866
0.0155799
0.00977979
0.00997274
0.0310942
0.000329432
0.00464149
0.0165485
0.0155959
0.015564
0.0407753
0.0731257
0.0709814
0.000329432
0.000329432
0.00339683
0.0194999
0.0287718
0.0488128
0.0715619
0.0726298
0.0539376
0.0438088
0.043399
0.0576489
0.0859924
0.115243
0.0787015
0.0226769
0.0148764
0.0148465
0.0148111
)
;
    }
    atmosphere
    {
        type            inletOutlet;
        inletValue      uniform 1;
        value           nonuniform List<scalar> 
46
(
1
1
1
1
1
1
1
1
1
1
1
1
1
1
1
1
1
1
1
1
1
1
1
1
1
1
1
1
1
1
1
1
1
1
1
1
1
1
1
1
1
1
1
1
1
1
)
;
    }
    defaultFaces
    {
        type            empty;
    }
}


// ************************************************************************* //
