/*--------------------------------*- C++ -*----------------------------------*\
  =========                 |
  \\      /  F ield         | OpenFOAM: The Open Source CFD Toolbox
   \\    /   O peration     | Website:  https://openfoam.org
    \\  /    A nd           | Version:  13
     \\/     M anipulation  |
\*---------------------------------------------------------------------------*/
FoamFile
{
    format      ascii;
    class       volScalarField;
    location    "2";
    object      alpha.water;
}
// * * * * * * * * * * * * * * * * * * * * * * * * * * * * * * * * * * * * * //

dimensions      [];

internalField   nonuniform List<scalar> 
2268
(
5.00069e-11
9.02415e-11
1.06253e-10
1.09954e-10
1.16053e-10
1.23119e-10
1.29957e-10
1.37175e-10
1.47429e-10
1.66933e-10
1.88386e-10
2.16679e-10
2.56152e-10
3.17948e-10
3.94808e-10
4.96162e-10
6.31797e-10
9.38675e-10
1.48563e-09
2.28695e-09
2.71277e-09
2.77887e-09
2.77887e-09
1.31929e-10
2.48634e-10
2.21358e-10
2.34512e-10
2.66676e-10
3.13671e-10
3.67278e-10
4.179e-10
4.63838e-10
5.02558e-10
5.4858e-10
5.84068e-10
6.09786e-10
6.26975e-10
6.61365e-10
7.37755e-10
9.07396e-10
1.13561e-09
1.4995e-09
1.99256e-09
2.48612e-09
2.61609e-09
2.36813e-09
3.17644e-10
4.08881e-10
3.28672e-10
3.26406e-10
3.78249e-10
4.64038e-10
5.74388e-10
7.04591e-10
8.51189e-10
1.00163e-09
1.13971e-09
1.20939e-09
1.18712e-09
9.54813e-10
8.72755e-10
8.53892e-10
8.99716e-10
1.05422e-09
1.1241e-09
1.30926e-09
1.41269e-09
1.45515e-09
1.13014e-09
3.34026e-10
3.83887e-10
2.96436e-10
2.9455e-10
3.28541e-10
3.99091e-10
5.05144e-10
6.59006e-10
8.98739e-10
1.35401e-09
1.7034e-09
1.78618e-09
1.58944e-09
8.32552e-10
6.42422e-10
4.63101e-10
3.99209e-10
4.81003e-10
2.57054e-10
2.42992e-10
2.57017e-10
2.42992e-10
2.57017e-10
2.80371e-10
2.54976e-10
2.46448e-10
2.46708e-10
2.57226e-10
2.87681e-10
4.41182e-10
1.41944e-09
6.15746e-09
7.13915e-10
-5.73495e-14
-1.03412e-13
-1.82305e-13
-1.42504e-19
-2.26434e-19
-2.50509e-19
-9.35856e-19
8.79729e-19
0.000207791
0.000774637
0.000857092
0.000453607
0.000292428
2.40868e-10
2.36846e-10
2.40868e-10
2.49088e-10
2.98227e-10
3.78313e-10
6.21368e-10
6.19432e-10
0.0017349
0.0166179
0.0451533
0.0841031
0.130168
0.180717
0.233867
0.287778
0.340481
0.398704
0.440976
0.463559
0.464752
0.448264
0.445606
2.42229e-10
2.14747e-08
4.5567e-08
1.72544e-07
0.00969865
0.0941771
0.207881
0.342463
0.488815
0.627615
0.734205
0.814666
0.875394
0.921333
0.956007
0.98202
0.999997
0.99998
0.999903
0.999695
0.999279
0.998667
0.998382
0.0444388
0.123775
0.251806
0.436633
0.655445
0.810029
0.915371
0.977646
1
1
1
1
1
1
1
0.999999
0.999995
0.999979
0.999951
0.999915
0.999857
0.999757
0.999206
0.0105729
0.0105729
0.0225124
0.0598252
0.0644929
0.0452176
0.0354951
0.00964436
0.000778103
0.000793987
0.000778103
0.000810313
0.000749263
0.0837896
0.120962
0.124015
0.0637806
0.0108996
0.0170725
0.0618276
0.0711551
0.0496957
0.0495103
0.127705
0.205098
0.168213
0.117703
0.0942933
0.0449688
0.00677711
0.000789422
0.000775309
0.040675
0.0986694
0.12331
0.0645464
0.00714714
0.0172785
0.439315
0.514467
0.363981
0.22366
0.163969
0.346498
0.627269
0.584055
0.430662
0.261532
0.0454612
0.0119924
0.00154502
0.00188223
0.0138656
0.0264874
0.0213703
0.006889
0.00841276
0.717165
0.79838
0.812294
0.498701
0.246957
0.271637
0.697861
0.974167
0.983912
0.911951
0.371113
0.111955
0.00101912
0.00101909
0.00102085
0.00102181
0.00102332
0.00151823
0.00181018
0.842003
0.815572
0.816843
0.807639
0.308202
0.222819
0.369626
0.848199
0.985219
0.998042
0.67067
0.251001
0.0240262
0.00109256
0.00196991
0.019064
0.00102125
0.0010951
0.00111867
0.88372
0.883192
0.869653
0.860159
0.420482
0.154921
0.133969
0.611861
0.975124
0.998124
0.905744
0.447996
0.173609
0.10938
0.136848
0.438672
0.339724
0.126317
0.0016096
0.883684
0.883714
0.883707
0.878069
0.341659
0.0851994
0.11122
0.785507
0.984411
0.998969
0.994814
0.946178
0.727301
0.514119
0.545845
0.72983
0.831477
0.822431
0.374345
0.877652
0.883636
0.883717
0.841659
0.202276
0.0168298
0.360866
0.983956
0.999866
0.99986
0.999835
0.999823
0.997326
0.95555
0.945125
0.973174
0.998064
0.999141
0.491513
0.871464
0.929419
0.971537
0.994385
1
1
1
1
1
1
1
1
1
1
1
1
1
0.999998
0.999998
0.999998
0.999996
0.999988
0.99374
1
1
1
1
1
1
1
1
1
1
1
1
1
1
1
1
1
0.999999
0.997564
0.981801
0.960198
0.938532
0.862996
1
1
1
1
1
1
1
1
1
1
1
1
1
0.998662
0.989247
0.976804
0.962987
0.92331
0.854425
0.760643
0.611611
0.257376
0.0389981
1
1
0.996465
0.995997
0.998227
0.999798
0.999495
0.996723
0.987808
0.977712
0.963041
0.937935
0.899981
0.835352
0.736666
0.646451
0.493525
0.350398
0.242187
0.0961061
0.0216485
6.12871e-07
0.000817364
0.872619
0.883469
0.836464
0.752024
0.65474
0.60493
0.639343
0.635124
0.61573
0.541675
0.403688
0.297561
0.222669
0.155661
0.0862765
0.018975
0.00678468
-1.5491e-19
-2.33212e-19
8.28561e-20
1.46558e-13
2.19921e-07
1.15553e-06
0.460882
0.227771
0.0750536
0.0377643
0.0214204
0.0186413
0.0105459
0.0104975
0.00123674
0.000218518
0.00100949
3.49399e-10
6.08917e-19
2.88824e-19
1.69164e-21
4.4884e-20
1.71137e-20
-1.34815e-20
-2.45219e-20
-4.93087e-19
-2.50758e-18
1.23007e-08
5.04265e-09
0.000583523
0.00183514
7.01215e-05
2.33587e-21
4.90485e-25
1.75256e-24
3.94844e-26
-5.68308e-20
-1.36157e-18
-1.34319e-28
1.04674e-05
1.04643e-07
1.53861e-10
-1.05442e-36
4.71643e-25
3.82021e-10
2.00126e-09
6.10255e-09
6.34082e-09
4.03699e-09
6.991e-09
7.68978e-08
1.58093e-07
-8.49928e-09
-4.06347e-10
0.000241914
0.000135974
7.41058e-07
8.09125e-07
5.86413e-07
9.20561e-08
2.69803e-07
4.34507e-07
4.1262e-07
1.28093e-07
6.84894e-09
4.07429e-07
3.60092e-08
2.71409e-09
1.39321e-08
5.3391e-08
5.47852e-08
6.57847e-08
1.33231e-07
2.26752e-07
3.72127e-07
-2.90767e-08
-5.02595e-09
-3.37623e-10
6.18113e-06
1.25584e-05
1.00388e-05
5.03216e-06
1.33078e-06
1.656e-07
1.07437e-07
1.05425e-07
1.01521e-07
7.11043e-09
6.49274e-07
3.37632e-07
3.17032e-09
1.28284e-08
5.81862e-08
5.57144e-08
6.4462e-08
1.8929e-07
2.12556e-07
8.81478e-08
-3.12007e-08
6.79688e-09
-1.46768e-15
4.8982e-06
1.28166e-05
6.79205e-06
1.82352e-07
3.01075e-08
1.21396e-08
4.05676e-09
7.01031e-09
-2.54809e-09
1.44111e-07
6.46059e-07
2.32599e-07
1.56967e-09
5.02244e-09
2.91222e-08
3.17571e-08
2.65059e-08
1.35338e-07
1.58806e-07
4.05694e-09
-1.17699e-08
3.33664e-08
3.91113e-07
2.02873e-06
4.15582e-06
3.21403e-07
3.62338e-08
9.9864e-11
4.28933e-10
1.39576e-07
1.68738e-06
2.96261e-06
2.57494e-06
4.08648e-09
1.27472e-08
2.0093e-09
3.11114e-09
8.1092e-09
1.39889e-08
1.30916e-08
3.99154e-08
5.72926e-08
7.09913e-09
5.04871e-09
4.85992e-08
2.55719e-07
2.45339e-07
1.23827e-08
1.35486e-08
2.09357e-10
1.67328e-10
1.18723e-08
1.30282e-06
2.53957e-06
3.11657e-06
3.12517e-06
6.37734e-07
3.9207e-09
1.59307e-09
8.13513e-08
4.36656e-08
3.55646e-08
8.77331e-09
3.54082e-09
3.0196e-09
4.50052e-09
2.61233e-08
1.36664e-08
6.79035e-09
6.17227e-09
1.13742e-08
3.14756e-10
3.06647e-10
2.29806e-10
9.9492e-11
5.31394e-07
2.07296e-06
3.12518e-06
3.12367e-06
3.12477e-06
1.60976e-06
1.44116e-06
6.3183e-07
1.70211e-07
5.95496e-08
1.77856e-08
5.85716e-09
2.97925e-09
2.9559e-09
2.83765e-08
1.37971e-08
9.08768e-09
5.96282e-09
1.63756e-09
6.24464e-10
3.76389e-10
3.31127e-10
2.05774e-10
3.06021e-09
3.42591e-07
2.63618e-06
3.12477e-06
3.12076e-06
2.83702e-06
2.67482e-06
2.088e-06
3.61231e-07
8.13033e-08
3.0298e-08
8.50491e-09
3.18504e-09
2.9893e-09
2.48359e-08
1.05245e-08
1.02982e-08
8.72641e-09
3.04522e-09
5.77408e-10
4.24897e-10
3.20325e-10
3.05298e-10
3.08799e-10
4.03204e-09
3.04504e-07
2.16367e-06
2.93538e-06
2.30198e-06
1.76157e-06
9.22517e-07
2.85199e-07
7.28226e-08
3.52885e-08
2.80312e-08
1.90269e-08
1.40064e-08
1.67422e-08
6.22106e-09
6.04295e-09
4.74931e-09
3.01289e-09
1.77325e-09
1.01903e-09
7.87973e-10
1.04421e-09
1.22862e-09
1.06759e-09
4.07258e-08
2.80017e-07
4.50779e-07
2.8905e-07
2.27178e-07
1.55486e-07
1.36236e-07
6.69946e-08
2.90449e-08
2.92926e-08
2.82654e-08
2.2999e-08
1.7658e-08
4.49444e-09
3.26147e-09
3.36832e-09
2.5779e-09
1.8659e-09
1.30975e-09
1.16963e-09
1.66537e-09
3.48216e-09
5.15987e-09
6.37566e-09
1.87173e-08
3.22201e-09
1.99951e-08
3.04285e-08
6.12676e-08
5.76452e-08
3.74135e-08
2.2742e-08
2.41087e-08
2.27777e-08
1.83025e-08
1.86738e-08
4.35526e-09
2.30658e-09
2.79519e-09
2.39784e-09
1.88463e-09
1.44741e-09
1.22447e-09
1.58477e-09
2.76722e-09
4.69535e-09
5.37101e-09
2.8149e-09
2.93177e-09
5.4736e-09
1.29483e-08
1.88395e-08
2.26907e-08
1.95557e-08
1.4736e-08
1.58692e-08
1.56134e-08
1.28075e-08
1.89729e-08
4.66519e-09
2.25774e-09
2.60968e-09
2.3253e-09
1.89163e-09
1.47988e-09
1.09107e-09
8.28063e-10
1.02784e-09
1.66436e-09
2.57652e-09
2.64357e-09
2.7785e-09
4.35736e-09
7.43055e-09
9.54196e-09
9.89455e-09
8.49005e-09
7.6495e-09
8.35731e-09
9.2214e-09
7.99128e-09
1.90078e-08
4.98261e-09
2.21666e-09
2.39376e-09
2.14553e-09
1.80747e-09
1.44404e-09
1.0443e-09
6.76278e-10
4.81743e-10
4.35245e-10
5.14418e-10
9.41977e-10
1.67355e-09
2.61227e-09
3.54819e-09
4.49494e-09
4.53923e-09
3.4181e-09
3.29238e-09
4.10627e-09
4.86798e-09
4.60866e-09
1.87541e-08
5.90418e-09
2.20856e-09
2.20516e-09
1.9635e-09
1.65147e-09
1.35929e-09
1.03618e-09
7.08921e-10
4.31269e-10
2.80698e-10
2.33567e-10
3.48795e-10
6.64575e-10
1.09733e-09
1.52092e-09
1.75496e-09
1.68666e-09
1.43504e-09
1.38043e-09
1.72054e-09
2.25252e-09
2.49998e-09
1.70474e-08
7.35451e-09
2.44927e-09
2.0333e-09
1.73427e-09
1.41985e-09
1.17112e-09
9.3229e-10
6.98186e-10
4.5462e-10
2.74327e-10
1.70633e-10
1.51401e-10
2.14148e-10
3.40718e-10
4.96504e-10
6.21199e-10
5.48988e-10
5.05325e-10
4.84836e-10
6.38738e-10
9.37373e-10
1.17455e-09
1.63241e-08
7.66095e-09
3.1025e-09
1.90018e-09
1.53606e-09
1.16458e-09
9.35751e-10
7.60258e-10
5.9343e-10
4.35769e-10
2.79011e-10
1.58422e-10
9.94871e-11
8.34704e-11
9.97243e-11
1.33913e-10
1.75085e-10
1.74949e-10
1.59792e-10
1.56844e-10
2.11431e-10
3.34204e-10
4.61322e-10
1.29974e-08
7.2856e-09
3.35796e-09
1.85274e-09
1.32828e-09
9.41763e-10
7.02384e-10
5.44385e-10
4.43199e-10
3.50374e-10
2.51722e-10
1.55002e-10
8.36694e-11
5.27903e-11
4.04894e-11
4.09612e-11
4.55018e-11
5.18746e-11
5.09816e-11
5.20115e-11
6.58274e-11
1.00998e-10
1.46733e-10
1.19159e-08
6.60245e-09
3.3385e-09
1.71812e-09
1.10688e-09
7.15469e-10
5.04306e-10
3.79488e-10
2.99174e-10
2.43072e-10
1.89912e-10
1.34736e-10
7.34685e-11
4.33319e-11
2.53673e-11
1.82213e-11
1.58542e-11
1.74204e-11
1.83343e-11
1.94003e-11
2.18745e-11
2.89832e-11
4.01191e-11
9.45229e-09
5.59983e-09
3.03995e-09
1.49926e-09
8.83948e-10
5.23697e-10
3.36082e-10
2.43026e-10
1.83891e-10
1.47136e-10
1.1924e-10
9.24632e-11
6.14286e-11
3.4326e-11
1.89003e-11
1.09441e-11
7.57413e-12
7.04355e-12
7.32007e-12
7.80304e-12
8.19924e-12
9.3449e-12
1.11485e-11
8.35405e-09
4.55911e-09
2.46694e-09
1.21485e-09
6.67773e-10
3.7058e-10
2.0476e-10
1.42852e-10
1.0382e-10
8.01995e-11
6.44147e-11
5.15383e-11
3.85442e-11
2.46128e-11
1.32652e-11
7.0216e-12
4.02829e-12
3.16095e-12
3.04713e-12
3.04023e-12
3.27094e-12
3.35791e-12
3.57775e-12
5.63365e-09
3.33002e-09
1.81755e-09
8.92541e-10
4.59327e-10
2.40795e-10
1.22134e-10
7.59015e-11
5.29173e-11
3.95858e-11
3.12807e-11
2.50762e-11
1.95596e-11
1.39572e-11
8.30566e-12
4.14324e-12
2.13014e-12
1.43889e-12
1.2454e-12
1.23183e-12
1.22431e-12
1.24721e-12
1.24016e-12
3.95375e-09
2.20351e-09
1.17256e-09
5.77134e-10
2.85121e-10
1.41924e-10
6.61612e-11
3.53665e-11
2.29363e-11
1.66477e-11
1.2865e-11
1.0155e-11
8.03571e-12
6.12114e-12
4.17194e-12
2.26842e-12
9.77925e-13
6.09328e-13
4.79601e-13
4.47779e-13
4.35991e-13
4.09228e-13
4.09638e-13
2.29645e-09
1.24034e-09
6.47312e-10
3.14607e-10
1.49822e-10
7.06025e-11
3.21944e-11
1.54163e-11
9.18981e-12
6.39385e-12
4.81582e-12
3.75109e-12
2.93933e-12
2.28286e-12
1.62876e-12
9.87663e-13
4.19931e-13
2.22908e-13
1.65621e-13
1.51602e-13
1.36026e-13
1.30285e-13
1.23496e-13
1.16774e-09
5.93172e-10
2.9981e-10
1.40976e-10
6.47534e-11
2.92661e-11
1.29576e-11
5.70882e-12
3.14369e-12
2.08654e-12
1.52995e-12
1.17446e-12
9.08427e-13
7.02371e-13
5.20156e-13
3.29496e-13
1.51452e-13
6.86281e-14
5.09183e-14
4.30182e-14
4.04994e-14
3.49978e-14
3.22318e-14
4.24278e-10
2.24869e-10
1.09661e-10
5.08196e-11
2.26215e-11
9.85635e-12
4.2411e-12
1.79137e-12
9.22528e-13
5.8398e-13
4.16683e-13
3.13728e-13
2.39816e-13
1.84467e-13
1.36486e-13
8.67548e-14
4.16171e-14
1.80975e-14
1.33525e-14
1.16618e-14
1.02774e-14
8.59771e-15
7.26387e-15
1.36531e-10
6.71792e-11
3.19533e-11
1.45442e-11
6.26993e-12
2.65744e-12
1.12185e-12
4.65499e-13
2.29329e-13
1.39076e-13
9.65156e-14
7.13704e-14
5.40887e-14
4.08605e-14
2.95859e-14
1.81427e-14
8.81784e-15
4.03734e-15
3.07299e-15
2.69195e-15
2.29043e-15
1.80205e-15
1.39691e-15
2.95497e-11
1.51739e-11
7.18751e-12
3.19844e-12
1.34902e-12
5.63011e-13
2.36143e-13
9.71611e-14
4.71872e-14
2.76782e-14
1.87567e-14
1.35514e-14
1.03465e-14
7.61117e-15
5.29347e-15
3.1473e-15
1.52012e-15
8.06772e-16
6.09559e-16
5.20334e-16
4.28564e-16
3.25344e-16
2.25317e-16
4.30575e-12
2.59875e-12
1.21074e-12
5.36753e-13
2.27273e-13
9.53294e-14
4.03681e-14
1.68959e-14
8.11335e-15
4.71015e-15
3.12098e-15
2.21651e-15
1.49041e-15
1.1111e-15
8.17877e-16
4.55256e-16
2.30583e-16
1.39095e-16
1.09773e-16
9.32448e-17
7.19765e-17
4.9574e-17
3.03983e-17
5.10324e-13
3.16703e-13
1.52276e-13
6.86662e-14
2.97913e-14
1.28351e-14
5.60769e-15
2.42618e-15
1.19633e-15
5.76852e-16
3.8247e-16
2.79083e-16
2.37122e-16
1.74693e-16
1.12562e-16
5.89942e-17
3.21507e-17
2.21644e-17
1.74885e-17
1.40467e-17
9.98604e-18
6.18143e-18
3.45404e-18
3.44385e-14
2.83031e-14
1.45038e-14
6.80046e-15
3.08255e-15
1.41282e-15
6.63805e-16
3.03761e-16
1.27069e-16
8.33713e-17
5.48574e-17
4.10723e-17
3.11785e-17
2.21352e-17
1.19243e-17
7.20426e-18
4.29151e-18
3.23286e-18
2.48358e-18
1.80137e-18
1.13999e-18
5.95868e-19
3.19925e-19
2.92505e-15
1.8948e-15
1.06345e-15
5.33991e-16
2.69634e-16
1.34802e-16
5.45404e-17
2.75221e-17
1.68393e-17
9.6504e-18
6.42369e-18
4.90324e-18
3.66206e-18
2.48174e-18
1.46579e-18
8.37698e-19
5.56949e-19
4.26117e-19
3.08864e-19
1.9784e-19
1.11149e-19
5.33771e-20
1.52085e-20
1.27268e-16
9.22884e-17
5.09131e-17
3.43703e-17
2.03473e-17
1.14083e-17
6.27571e-18
3.29512e-18
1.76473e-18
1.0238e-18
6.93373e-19
5.28595e-19
3.84254e-19
2.5315e-19
1.54165e-19
9.30876e-20
6.69464e-20
4.95098e-20
3.34555e-20
1.90028e-20
9.22889e-21
2.49871e-21
4.21154e-22
3.02627e-18
3.05754e-18
2.3154e-18
1.93503e-18
1.37225e-18
8.8006e-19
5.42479e-19
3.03527e-19
1.68972e-19
9.98732e-20
6.8443e-20
5.14343e-20
3.68764e-20
2.4173e-20
1.32259e-20
9.08841e-21
7.75884e-21
5.38969e-21
3.24625e-21
1.5902e-21
5.18015e-22
8.63481e-23
5.96025e-24
2.88576e-20
6.01493e-20
9.5172e-20
1.00038e-19
8.71894e-20
6.39956e-20
4.36759e-20
2.56702e-20
1.47982e-20
8.89115e-21
6.15555e-21
4.58748e-21
3.28247e-21
2.20437e-21
1.51051e-21
1.11249e-21
7.56817e-22
4.91561e-22
2.85329e-22
1.05164e-22
2.20863e-23
1.5713e-24
6.37416e-26
1.31142e-22
5.36513e-22
3.26302e-21
5.00307e-21
5.40884e-21
4.48251e-21
3.27257e-21
1.99564e-21
1.18831e-21
7.21954e-22
5.05796e-22
3.79416e-22
2.76209e-22
1.98066e-22
1.50528e-22
1.17913e-22
8.55295e-23
5.05543e-23
2.15666e-23
5.87032e-24
8.14025e-25
3.6806e-26
6.39452e-28
0.970438
0.898376
0.792053
0.743255
0.488561
0.10596
0.00391365
0.0097078
0.0122022
0.00308991
0.000416104
0.00625585
6.22402e-05
2.12797e-06
0.000504648
0.00147685
-2.24139e-12
1.41505e-05
6.64675e-05
4.75492e-05
1.62951e-07
3.82594e-07
1.21989e-08
8.49504e-09
1.57966e-08
1.16593e-08
9.43683e-09
1.16593e-08
5.31609e-07
6.70179e-07
8.69627e-07
1.111e-06
7.06065e-08
2.03462e-07
4.81041e-07
8.42894e-07
-1.3943e-22
5.53523e-10
1.12113e-08
1.76048e-08
8.09967e-19
2.52148e-11
2.84515e-11
3.82227e-11
2.6922e-09
1.18358e-09
3.56936e-10
2.07e-10
3.3182e-09
2.7685e-09
2.10291e-09
1.12679e-09
3.07039e-09
2.967e-09
2.3707e-09
1.76446e-09
1.01213e-08
6.94928e-09
5.22933e-09
4.11458e-09
2.05553e-08
1.46685e-08
1.21746e-08
9.65692e-09
1.63647e-08
1.46332e-08
1.0433e-08
1.06158e-08
1.18988e-08
9.61831e-09
9.01914e-09
9.1177e-09
7.35999e-09
6.94004e-09
6.06439e-09
6.2568e-09
4.46319e-09
3.98672e-09
3.93089e-09
3.84127e-09
2.5111e-09
2.44761e-09
2.28477e-09
2.26057e-09
1.30225e-09
1.23103e-09
1.24384e-09
1.23777e-09
5.60035e-10
5.53878e-10
5.46618e-10
5.84452e-10
1.85457e-10
1.89196e-10
2.02842e-10
2.13434e-10
5.20569e-11
4.91057e-11
5.05954e-11
6.03791e-11
1.33317e-11
1.19416e-11
1.31563e-11
1.51918e-11
3.79632e-12
3.30957e-12
3.44529e-12
3.85592e-12
1.21409e-12
1.08504e-12
1.07226e-12
1.07985e-12
3.93487e-13
3.26052e-13
3.11659e-13
3.03017e-13
1.15274e-13
9.93679e-14
8.95766e-14
8.01419e-14
2.95718e-14
2.39368e-14
2.11158e-14
1.8292e-14
6.4485e-15
5.34041e-15
4.43644e-15
3.56654e-15
1.19363e-15
9.12431e-16
7.28916e-16
5.56394e-16
1.7888e-16
1.35785e-16
9.90966e-17
7.02172e-17
2.27345e-17
1.58859e-17
1.16807e-17
8.31725e-18
2.39392e-18
1.59777e-18
7.57233e-19
2.40577e-19
1.29681e-19
4.07199e-20
1.10912e-20
1.7392e-21
1.73326e-21
2.25592e-22
2.48768e-23
3.10568e-24
6.85233e-26
4.30243e-26
2.50778e-26
6.33589e-27
6.90381e-29
2.28749e-28
7.7708e-28
2.53228e-27
7.16017e-29
2.4655e-28
8.46399e-28
2.61866e-27
6.96651e-29
1.8241e-28
5.85016e-28
1.62103e-27
0.69826
0.819687
0.859242
0.756847
0.170675
0.0239948
0.665504
0.995944
0.999867
0.998945
0.998951
0.999292
0.999626
0.999845
0.999896
0.999895
0.999896
0.999867
0.820708
0.275219
0.742698
0.772749
0.263018
4.64481e-05
0.0895046
0.727521
0.892608
0.95176
0.937225
0.904627
0.885709
0.881021
0.883798
0.949168
0.999679
0.999895
0.997908
0.957074
0.120047
0.206179
0.0845952
4.49657e-05
0.000104339
0.0405249
0.302816
0.404006
0.317788
0.221531
0.147119
0.122711
0.11336
0.111506
0.159524
0.304158
0.427599
0.530464
0.714996
0.00129173
3.383e-08
5.73787e-06
0.000396881
0.00158332
0.00202623
1.75161e-08
1.03793e-08
1.52143e-08
8.91372e-09
3.30929e-14
1.06987e-08
-5.0217e-22
5.05676e-09
8.11495e-20
4.10625e-07
0.000128515
0.00438789
0.0555652
1.22891e-06
2.45854e-05
4.49604e-05
3.36923e-05
8.02893e-08
1.06195e-07
1.07962e-07
6.68067e-08
7.66447e-08
1.75858e-07
2.27528e-07
6.8423e-07
7.4407e-07
5.33639e-07
5.0624e-09
2.54939e-05
0.000169653
0.00081175
0.000855274
1.63082e-06
1.89631e-05
2.13155e-05
7.90037e-06
1.11595e-06
4.2669e-07
2.77638e-07
4.54131e-08
1.60822e-07
1.94315e-07
1.24456e-07
5.70988e-08
7.47725e-08
1.75251e-08
7.40825e-09
8.63958e-09
0.000187188
0.00365046
0.00388427
1.19321e-07
4.4544e-06
7.91228e-06
3.50045e-06
7.10696e-08
2.52353e-12
7.00463e-13
2.08049e-11
1.98718e-11
2.12669e-09
1.08196e-08
9.00197e-08
2.20977e-07
2.40958e-07
2.72305e-07
5.09226e-08
2.65429e-05
0.000922818
0.00203664
1.37703e-06
1.96211e-06
2.06678e-06
8.96708e-07
1.02924e-08
6.96576e-13
1.73562e-10
2.79885e-10
2.65723e-10
2.61675e-10
2.60949e-10
2.93839e-10
1.63843e-07
2.63167e-06
0.000231404
0.00168047
0.00243367
0.00191483
0.00152081
1.07725e-06
3.02597e-07
6.25283e-09
3.67227e-15
7.05433e-15
5.79832e-11
9.97343e-11
1.49822e-10
9.97344e-11
8.42375e-10
2.42464e-06
6.89282e-06
2.18466e-10
4.59307e-10
0.00459247
0.0117695
0.011909
0.0117695
0.0105813
9.56099e-09
3.76541e-25
-5.91467e-14
9.80884e-11
1.35354e-09
1.07158e-08
7.16318e-08
4.03074e-07
1.68978e-06
7.42686e-06
5.89858e-05
0.000173974
0.000186453
0.000617256
0.0052709
0.00795516
0.00811046
0.00619493
0.00391684
6.54795e-11
1.48483e-10
6.30611e-10
4.42937e-09
2.58298e-08
1.41157e-07
6.72197e-07
2.76122e-06
1.00165e-05
3.22092e-05
8.93988e-05
0.000194517
0.00033603
0.000319539
0
1.98762e-16
7.23673e-10
8.18548e-10
1.15295e-09
2.07958e-10
2.44185e-10
1.89401e-10
1.74806e-10
1.84959e-10
1.2732e-10
5.91188e-13
8.6464e-09
7.26592e-08
2.35545e-06
8.3083e-06
0
3.65643e-10
2.83603e-25
3.65644e-10
3.38024e-09
8.23704e-09
8.13335e-09
2.57658e-09
4.43196e-10
4.27437e-10
3.03176e-10
1.97155e-10
1.31424e-10
7.18009e-11
3.21054e-12
2.09085e-13
3.51643e-12
-1.86058e-13
-4.90298e-12
-3.43259e-10
1.77754e-08
1.27992e-08
3.79208e-09
1.28271e-08
1.89755e-08
1.18951e-08
2.98129e-09
1.01049e-09
8.24556e-10
4.88641e-10
2.31174e-10
1.2429e-10
9.15645e-11
6.78422e-11
5.93443e-11
1.5395e-10
5.33965e-10
-7.0902e-14
1.64192e-08
9.53175e-08
5.45353e-08
8.00007e-09
9.04539e-09
1.66458e-08
5.27826e-09
2.94983e-09
2.65333e-09
1.87294e-09
7.22207e-10
2.3644e-10
9.72362e-11
7.45092e-11
6.83747e-11
9.08297e-11
3.06121e-10
8.62277e-10
1.15433e-09
1.79258e-08
8.92023e-08
4.90706e-08
8.07803e-09
2.00648e-09
1.23514e-09
5.65064e-11
2.00323e-09
5.85526e-09
2.25064e-09
6.33522e-10
2.25974e-10
8.06646e-11
6.96508e-11
7.8532e-11
1.4586e-10
4.34038e-10
8.0319e-10
2.49156e-09
1.74004e-08
3.52231e-08
8.59005e-09
3.53089e-09
3.64287e-10
4.49568e-11
7.42951e-11
1.32344e-09
6.80862e-09
1.71354e-09
5.7352e-10
1.77387e-10
8.81219e-11
7.745e-11
1.09743e-10
1.9763e-10
4.47734e-10
6.59448e-10
2.62277e-09
1.19613e-08
6.23253e-09
1.02947e-09
1.98862e-10
1.47179e-10
4.07957e-11
8.13339e-11
1.08885e-09
5.8723e-09
1.85913e-09
6.25367e-10
1.56389e-10
9.70174e-11
8.7179e-11
1.21275e-10
1.89768e-10
3.54514e-10
5.53571e-10
1.24433e-09
8.44056e-10
2.33741e-09
2.15419e-09
5.56359e-10
9.38769e-11
1.33091e-11
5.14127e-11
6.85527e-10
4.63826e-09
2.21029e-09
8.93492e-10
2.53778e-10
9.97272e-11
9.80948e-11
1.21267e-10
1.90606e-10
2.85129e-10
4.32363e-10
5.67258e-10
2.03883e-10
7.0319e-11
3.85401e-11
9.25687e-12
3.19933e-12
5.35184e-12
3.44314e-11
3.22301e-10
3.27457e-09
2.22041e-09
1.32908e-09
6.00345e-10
1.92131e-10
1.1453e-10
1.18176e-10
1.44062e-10
1.88892e-10
2.30358e-10
2.13381e-10
1.23495e-10
4.6185e-11
1.57823e-11
2.92542e-12
2.29568e-12
3.96054e-12
2.00996e-11
1.20564e-10
2.11704e-09
1.74051e-09
1.30839e-09
8.84091e-10
4.62608e-10
1.90656e-10
1.11383e-10
9.52895e-11
9.54427e-11
9.36708e-11
8.1515e-11
6.0389e-11
3.34192e-11
1.47773e-11
2.3387e-12
1.39073e-12
1.93982e-12
7.94792e-12
4.82508e-11
1.22728e-09
1.13019e-09
9.73588e-10
7.68767e-10
5.50136e-10
3.3214e-10
1.62007e-10
7.76909e-11
5.01648e-11
3.38095e-11
2.51829e-11
1.74498e-11
7.89195e-12
1.83441e-12
5.93156e-13
4.75657e-13
6.97141e-13
3.51716e-12
1.08524e-11
6.2687e-10
6.05924e-10
5.58463e-10
4.98253e-10
4.05061e-10
2.96805e-10
1.85146e-10
9.36619e-11
4.18164e-11
1.98656e-11
1.01937e-11
5.26376e-12
2.09782e-12
6.28311e-13
2.22637e-13
2.22156e-13
2.6825e-13
3.75671e-13
4.12264e-12
2.44899e-10
2.61342e-10
2.54887e-10
2.34946e-10
2.12707e-10
1.77561e-10
1.32199e-10
8.22624e-11
4.00078e-11
1.58684e-11
5.97097e-12
2.2114e-12
7.61626e-13
2.65482e-13
1.13678e-13
6.03426e-14
3.09505e-14
7.70621e-14
1.54564e-13
7.51777e-11
8.44696e-11
8.81344e-11
8.74189e-11
8.22705e-11
7.59619e-11
6.49787e-11
4.86773e-11
2.85012e-11
1.22325e-11
4.15455e-12
1.25613e-12
3.62503e-13
1.1717e-13
4.40966e-14
1.63584e-14
5.59463e-15
4.13512e-15
1.09606e-14
1.86346e-11
2.13316e-11
2.26885e-11
2.42216e-11
2.4449e-11
2.38864e-11
2.26604e-11
1.98177e-11
1.41077e-11
7.12408e-12
2.50558e-12
6.74058e-13
1.5771e-13
4.188e-14
1.41045e-14
2.3055e-15
1.26131e-15
1.18027e-15
1.22292e-15
4.37386e-12
4.72827e-12
4.91843e-12
5.27893e-12
5.40947e-12
5.69779e-12
5.94527e-12
5.7737e-12
4.79228e-12
2.86351e-12
1.12023e-12
2.91332e-13
5.63814e-14
1.21038e-14
2.36858e-15
5.37152e-16
6.53015e-16
7.08805e-16
3.78086e-16
1.09807e-12
1.05565e-12
1.00601e-12
9.77579e-13
9.91352e-13
1.09317e-12
1.2112e-12
1.25535e-12
1.1529e-12
7.9556e-13
3.47106e-13
8.91277e-14
1.47751e-14
2.69051e-15
3.76624e-16
2.05319e-16
3.04921e-16
4.44275e-16
2.23173e-16
2.7728e-13
2.36581e-13
1.95543e-13
1.68532e-13
1.5549e-13
1.6677e-13
1.90502e-13
2.09258e-13
2.0022e-13
1.4897e-13
6.91666e-14
1.73215e-14
2.41922e-15
4.31382e-16
9.98937e-17
7.9475e-17
1.39505e-16
2.24019e-16
1.37055e-16
6.42753e-14
4.95078e-14
3.84841e-14
2.57338e-14
1.7395e-14
1.71999e-14
2.01971e-14
2.37098e-14
2.35116e-14
1.83928e-14
8.68066e-15
1.52433e-15
9.71333e-17
1.92308e-17
2.24741e-17
2.81959e-17
6.14072e-17
1.42978e-16
8.55572e-17
1.3041e-14
9.27669e-15
6.24008e-15
3.1091e-15
1.22445e-15
8.68228e-16
1.19621e-15
1.64436e-15
1.73494e-15
1.4176e-15
5.13193e-16
5.35116e-17
9.60731e-19
7.72328e-19
2.81094e-18
9.85507e-18
2.83935e-17
7.55287e-17
6.11823e-17
2.20453e-15
1.4775e-15
7.19379e-16
2.2593e-16
3.62032e-17
2.06862e-17
3.72325e-17
6.02985e-17
6.76532e-17
5.58576e-17
1.60156e-17
9.77942e-19
7.84014e-20
2.53573e-19
1.17393e-18
4.35526e-18
1.50662e-17
4.86605e-17
3.17977e-17
3.30267e-16
1.62599e-16
4.19506e-17
6.07477e-18
3.99757e-19
2.4149e-19
7.25112e-19
1.52e-18
1.73712e-18
9.03712e-19
1.45646e-19
2.13526e-20
3.60299e-20
1.24795e-19
5.34041e-19
2.78649e-18
1.13862e-17
2.25742e-17
1.93051e-17
3.96064e-17
9.65238e-18
1.06975e-18
6.00139e-20
4.4997e-21
3.0151e-21
1.03327e-20
2.57988e-20
3.11423e-20
1.64808e-20
9.59416e-21
1.55472e-20
2.89103e-20
7.9702e-20
3.57302e-19
2.11934e-18
6.44993e-18
1.28726e-17
8.36363e-18
2.33764e-18
1.75609e-19
7.97617e-21
3.71613e-22
1.31848e-22
1.48819e-22
3.5086e-22
8.90306e-22
1.68016e-21
3.16213e-21
6.88735e-21
1.4202e-20
2.56506e-20
6.52534e-20
3.09582e-19
1.43914e-18
3.71119e-18
5.5488e-18
4.36603e-18
3.53523e-20
1.07387e-21
3.1128e-23
1.30654e-23
2.38834e-23
6.19259e-23
1.71342e-22
4.5876e-22
1.16346e-21
2.81195e-21
6.43476e-21
1.32136e-20
2.3833e-20
5.95399e-20
2.46066e-19
9.00981e-19
1.88445e-18
2.71131e-18
1.58257e-18
1.60974e-22
3.01906e-24
1.68325e-24
4.87002e-24
1.59455e-23
4.92873e-23
1.41346e-22
3.80662e-22
9.81643e-22
2.38123e-21
5.40085e-21
1.10973e-20
2.01486e-20
4.721e-20
1.68392e-19
5.32515e-19
9.73202e-19
9.93355e-19
6.51406e-19
2.79366e-25
2.72063e-25
1.02206e-24
3.77338e-24
1.24621e-23
3.78352e-23
1.09626e-22
2.92781e-22
7.4732e-22
1.81166e-21
4.10214e-21
8.40218e-21
1.52339e-20
3.4024e-20
1.06859e-19
2.90218e-19
4.23846e-19
3.95365e-19
1.88399e-19
3.6781e-26
1.85468e-25
7.46254e-25
2.64973e-24
8.6002e-24
2.59131e-23
7.33206e-23
1.95866e-22
4.99144e-22
1.21198e-21
2.73303e-21
5.58663e-21
1.01947e-20
2.214e-20
5.59501e-20
1.54902e-19
1.7003e-19
1.19697e-19
5.58742e-20
2.78756e-26
1.22907e-25
4.52951e-25
1.50783e-24
4.69519e-24
1.38564e-23
3.9654e-23
1.07378e-22
2.74594e-22
6.70451e-22
1.52856e-21
3.14618e-21
5.81316e-21
1.22618e-20
2.6993e-20
7.15351e-20
5.82783e-20
3.49113e-20
2.1534e-20
1.62806e-26
6.11467e-26
2.05672e-25
6.44739e-25
1.96969e-24
5.88448e-24
1.70179e-23
4.73918e-23
1.24864e-22
3.16831e-22
7.42837e-22
1.561e-21
2.89315e-21
6.00495e-21
1.20798e-20
2.79024e-20
1.70038e-20
1.24275e-20
7.86537e-21
5.28212e-27
1.67522e-26
5.12761e-26
1.48473e-25
4.89457e-25
1.61842e-24
5.04134e-24
1.4825e-23
4.14151e-23
1.08388e-22
2.60271e-22
5.6405e-22
1.07056e-21
2.22239e-21
4.26054e-21
8.64198e-21
5.18224e-21
3.49886e-21
1.58813e-21
)
;

boundaryField
{
    leftWall
    {
        type            alphaContactAngle;
        contactAngleProperties 
        {
            mercury         
            {
                theta0          90;
            }
            air             
            {
                theta0          90;
            }
            oil             
            {
                theta0          90;
            }
        }
        value           nonuniform List<scalar> 
50
(
5.00069e-11
1.31929e-10
3.17644e-10
3.34026e-10
2.80371e-10
2.40868e-10
2.42229e-10
0.0444388
0.871464
1
1
1
0.872619
0.460882
0.000583523
-8.49928e-09
-2.90767e-08
-3.12007e-08
-1.17699e-08
5.04871e-09
2.61233e-08
2.83765e-08
2.48359e-08
1.67422e-08
1.7658e-08
1.86738e-08
1.89729e-08
1.90078e-08
1.87541e-08
1.70474e-08
1.63241e-08
1.29974e-08
1.19159e-08
9.45229e-09
8.35405e-09
5.63365e-09
3.95375e-09
2.29645e-09
1.16774e-09
4.24278e-10
1.36531e-10
2.95497e-11
4.30575e-12
5.10324e-13
3.44385e-14
2.92505e-15
1.27268e-16
3.02627e-18
2.88576e-20
1.31142e-22
)
;
    }
    rightWall
    {
        type            alphaContactAngle;
        contactAngleProperties 
        {
            mercury         
            {
                theta0          90;
            }
            air             
            {
                theta0          90;
            }
            oil             
            {
                theta0          90;
            }
        }
        value           nonuniform List<scalar> 
50
(
0.0170725
0.0172785
0.00841276
0.00181018
0.00111867
0.0016096
0.374345
0.491513
0.820708
0.957074
0.714996
0.0555652
0.000855274
0.00388427
0.00203664
0.00152081
0.0105813
0.00391684
1.15295e-09
2.57658e-09
2.98129e-09
2.94983e-09
2.00323e-09
1.32344e-09
1.08885e-09
6.85527e-10
3.22301e-10
1.20564e-10
4.82508e-11
1.08524e-11
4.12264e-12
1.54564e-13
1.09606e-14
1.22292e-15
3.78086e-16
2.23173e-16
1.37055e-16
8.55572e-17
6.11823e-17
3.17977e-17
1.93051e-17
8.36363e-18
4.36603e-18
1.58257e-18
6.51406e-19
1.88399e-19
5.58742e-20
2.1534e-20
7.86537e-21
1.58813e-21
)
;
    }
    lowerWall
    {
        type            alphaContactAngle;
        contactAngleProperties 
        {
            mercury         
            {
                theta0          90;
            }
            air             
            {
                theta0          90;
            }
            oil             
            {
                theta0          90;
            }
        }
        value           nonuniform List<scalar> 
62
(
5.00069e-11
9.02415e-11
1.06253e-10
1.09954e-10
1.16053e-10
1.23119e-10
1.29957e-10
1.37175e-10
1.47429e-10
1.66933e-10
1.88386e-10
2.16679e-10
2.56152e-10
3.17948e-10
3.94808e-10
4.96162e-10
6.31797e-10
9.38675e-10
1.48563e-09
2.28695e-09
2.71277e-09
2.77887e-09
2.77887e-09
2.77887e-09
2.36813e-09
1.13014e-09
2.57017e-10
0.000292428
0.445606
0.998382
0.999206
0.970438
0.898376
0.792053
0.743255
0.0105729
0.0618276
0.439315
0.717165
0.842003
0.88372
0.883684
0.877652
0.0105729
0.0105729
0.0225124
0.0598252
0.0644929
0.0452176
0.0354951
0.00964436
0.000778103
0.000793987
0.000778103
0.000810313
0.000749263
0.0837896
0.120962
0.124015
0.0637806
0.0108996
0.0170725
)
;
    }
    atmosphere
    {
        type            inletOutlet;
        inletValue      uniform 0;
        value           nonuniform List<scalar> 
46
(
1.31142e-22
5.36513e-22
3.26302e-21
5.00307e-21
5.40884e-21
4.48251e-21
3.27257e-21
1.99564e-21
1.18831e-21
7.21954e-22
5.05796e-22
3.79415e-22
2.76209e-22
1.98066e-22
1.50528e-22
1.17913e-22
8.55295e-23
5.05543e-23
2.15666e-23
5.87032e-24
8.14025e-25
3.6806e-26
6.39452e-28
6.96651e-29
0
0
0
0
0
0
0
0
0
0
0
0
0
0
0
0
0
0
0
0
0
0
)
;
    }
    defaultFaces
    {
        type            empty;
    }
}

