/*--------------------------------*- C++ -*----------------------------------*\
  =========                 |
  \\      /  F ield         | OpenFOAM: The Open Source CFD Toolbox
   \\    /   O peration     | Website:  https://openfoam.org
    \\  /    A nd           | Version:  13
     \\/     M anipulation  |
\*---------------------------------------------------------------------------*/
FoamFile
{
    format      ascii;
    class       volScalarField;
    location    "2";
    object      alpha.oil;
}
// * * * * * * * * * * * * * * * * * * * * * * * * * * * * * * * * * * * * * //

dimensions      [];

internalField   nonuniform List<scalar> 
2268
(
1.55281e-14
1.50047e-13
6.97711e-13
2.29066e-12
6.15075e-12
1.44998e-11
3.09621e-11
6.1595e-11
1.16436e-10
2.35644e-10
4.42626e-10
8.29253e-10
1.57324e-09
3.04076e-09
5.8214e-09
1.06602e-08
1.74833e-08
1.91593e-08
1.92357e-08
0.000176623
0.000467235
0.000565585
0.000567207
9.17916e-15
1.07421e-13
7.71492e-13
2.75837e-12
7.57797e-12
1.91482e-11
4.44159e-11
9.18343e-11
1.72271e-10
3.09465e-10
6.31062e-10
1.14624e-09
2.22127e-09
4.18237e-09
7.06384e-09
1.31111e-08
3.20243e-08
4.38111e-08
4.02506e-08
8.79948e-09
9.31594e-09
6.29731e-05
0.000176844
5.18462e-15
6.82801e-14
6.56233e-13
3.52395e-12
9.01965e-12
2.11076e-11
4.41778e-11
8.92573e-11
1.81454e-10
3.5113e-10
6.59961e-10
1.18276e-09
2.06784e-09
3.46708e-09
5.47578e-09
7.44306e-09
8.42379e-09
9.28161e-09
8.74226e-09
8.61402e-09
1.01135e-08
1.04252e-08
1.22827e-08
2.84731e-15
1.34413e-14
4.18099e-13
3.25076e-12
8.34061e-12
2.0598e-11
5.19406e-11
1.20593e-10
2.50747e-10
4.94264e-10
9.33241e-10
1.69573e-09
2.86581e-09
4.81137e-09
7.38812e-09
1.02079e-08
7.73626e-09
8.40802e-09
7.72835e-09
8.36667e-09
8.27502e-09
1.28903e-08
1.41222e-08
4.22296e-14
8.52596e-14
3.40324e-13
1.75476e-12
5.89971e-12
1.53194e-11
3.47747e-11
7.98035e-11
1.87085e-10
4.62473e-10
9.33586e-10
1.8885e-09
3.45368e-09
5.46338e-09
7.6208e-09
2.09718e-08
1.8085e-07
4.89744e-07
7.33931e-07
1.95481e-07
8.36606e-09
2.39737e-07
1.46241e-06
8.29931e-13
1.88493e-12
3.10719e-12
4.15949e-12
6.46646e-12
1.40658e-11
3.60465e-11
6.86493e-11
1.5425e-10
3.3125e-10
7.27995e-10
1.46636e-09
2.30418e-09
2.47817e-09
1.64272e-09
1.60707e-09
9.13233e-07
2.76479e-06
2.96278e-06
2.82476e-06
5.92418e-06
2.69356e-05
4.47947e-05
2.33277e-12
9.61015e-12
1.50647e-11
1.5452e-11
1.31022e-11
1.37111e-11
1.90669e-11
2.45717e-11
4.67732e-11
1.3856e-10
2.58029e-10
3.65405e-10
5.39929e-10
1.43236e-09
3.32121e-09
6.79939e-09
6.98181e-07
1.81059e-06
2.79979e-06
4.59944e-06
1.96362e-05
4.99154e-05
5.42212e-05
1.58812e-12
1.54202e-12
1.57419e-12
1.02403e-11
1.12088e-11
1.32603e-11
3.50461e-11
5.30205e-11
9.32076e-11
1.50108e-10
2.32874e-10
4.01874e-10
8.75278e-10
2.6542e-09
9.8671e-09
2.85546e-08
8.13765e-15
2.37863e-20
-1.1205e-24
2.99791e-06
1.46441e-05
6.67083e-06
2.20525e-05
0.118383
0.11612
0.0965346
0.0431188
0.0291791
0.0285924
0.0779419
0.295396
0.32848
0.331726
0.336765
0.339106
0.319778
0.18063
0.0596159
0.102161
0.170117
0.223226
0.222536
0.414581
0.413612
0.384698
0.301968
0.146592
0.0350578
0.0300979
0.0473826
0.0632318
0.0698434
0.0996177
0.173072
0.191427
0.096616
0.0591228
0.0791391
0.168052
0.226813
0.233995
0.423422
0.354016
0.507487
0.617228
0.617219
0.393893
0.0457869
2.94717e-06
5.38977e-11
5.43146e-11
2.89824e-10
0.0268409
0.184509
0.170817
0.0706336
0.0712564
0.189741
0.273217
0.388902
0.087614
0.00632005
0.0461023
0.355833
0.617233
0.607797
0.244864
0.00894521
0.000995254
0.000174567
2.52009e-06
0.0652918
0.187378
0.218023
0.262667
0.238168
0.262101
0.359743
0.501803
0.00479525
0.00522501
0.00535366
0.00537852
0.545504
0.690377
0.575396
0.127422
0.00857031
0.000297689
0.0108511
0.152903
0.248572
0.249094
0.261891
0.267729
0.248125
0.305205
0.502742
0.0331505
0.019795
0.00538753
0.0174934
0.442936
0.740942
0.740551
0.276113
6.26542e-17
1.15399e-29
0.0325
0.215329
0.267046
0.267745
0.267672
0.267662
0.264223
0.276752
0.508487
0.0374935
0.0346497
0.0295753
0.0612826
0.563192
0.741525
0.711011
0.102967
-6.32788e-17
-7.26322e-15
0.0051157
0.0537731
0.187299
0.263442
0.267644
0.240741
0.150595
0.0634843
0.508946
0.0308432
0.0317434
0.0368009
0.0878654
0.633413
0.739705
0.419727
-3.76335e-09
3.25309e-09
-8.95977e-14
-5.05707e-11
0
0.00261038
0.0444422
0.0548707
0.0268253
0.00193562
0.000632171
0.508487
1.67084e-09
1.22998e-09
1.11161e-09
1.12371e-09
1.28443e-09
1.28355e-09
6.58423e-10
5.0137e-10
3.88702e-10
2.89673e-10
2.2482e-10
3.01423e-10
5.67278e-10
9.3281e-10
1.77247e-09
4.42074e-09
5.82929e-19
8.80469e-22
-1.76703e-34
3.03427e-27
1.44134e-06
1.54983e-06
1.66986e-06
5.34e-09
5.26846e-09
4.65794e-09
4.4087e-09
4.66457e-09
4.76655e-09
4.45826e-09
2.76637e-09
1.47827e-09
9.01281e-10
3.50539e-10
3.05405e-10
5.06167e-10
6.08037e-10
6.50208e-10
3.54237e-10
3.36787e-10
3.34823e-21
-1.55865e-20
-1.6278e-20
-1.55028e-20
0.000840541
0.074099
5.20447e-09
4.25329e-09
3.77812e-09
3.42245e-09
3.46563e-09
3.60812e-09
3.55707e-09
2.88835e-09
1.81887e-09
1.0141e-09
6.84843e-13
-1.31565e-14
-5.78861e-15
-9.89448e-18
-3.79354e-21
-2.06731e-17
0.0022101
0.0208645
0.041729
0.0808843
0.222434
0.601836
0.956055
1.69921e-09
-2.85845e-11
-2.03873e-26
6.65491e-28
9.6012e-27
4.78872e-28
5.67515e-21
4.52849e-21
4.44563e-20
1.74686e-19
0.00239971
0.0121105
0.0302624
0.0602039
0.102025
0.193667
0.375642
0.498695
0.589327
0.735414
0.820056
0.98139
0.994821
2.61442e-10
0.0351256
0.14483
0.247166
0.344509
0.39485
0.348743
0.216726
0.206971
0.280636
0.418303
0.509419
0.57519
0.642144
0.711582
0.799479
0.910366
0.921394
0.850933
0.895157
0.990852
0.999731
0.994576
0.350033
0.660677
0.912478
0.959304
0.976619
0.976596
0.976784
0.871601
0.874736
0.935539
0.93566
0.933214
0.960279
0.980526
0.979772
0.990096
0.997408
0.997949
0.990526
0.994063
0.999999
0.999632
0.998714
0.833618
0.894887
0.953342
0.960393
0.959014
0.955603
0.94783
0.940256
0.930963
0.924741
0.928183
0.919479
0.924135
0.9535
0.978631
0.999998
0.999998
0.999999
0.999999
0.999999
0.999998
0.999984
1
0.237588
0.284799
0.319483
0.328702
0.322777
0.304875
0.286289
0.273788
0.258195
0.239065
0.233453
0.253479
0.280718
0.326112
0.411517
0.533265
0.721511
0.947412
0.999998
0.999999
0.999999
0.999999
1
1.84671e-09
3.73386e-08
-3.97501e-21
2.83328e-19
-6.09123e-09
-3.25823e-08
-6.2017e-11
1.44325e-19
6.7686e-20
2.51636e-08
2.82844e-07
6.09298e-07
1.5711e-06
7.81443e-07
1.21803e-06
0.00305498
0.0306867
0.141609
0.392136
0.642831
0.82978
0.937673
0.949904
9.18801e-07
3.43077e-06
1.25955e-06
1.52935e-05
0.000315508
0.000346293
3.12368e-05
6.01611e-10
-1.62436e-16
2.85941e-10
1.26147e-08
1.88126e-08
1.27925e-06
-2.66987e-24
2.02916e-08
4.94695e-07
2.66416e-06
4.57467e-06
5.79065e-06
0.0103574
0.0594348
0.142217
0.177215
1.95059e-06
7.6197e-06
6.97541e-06
9.1022e-05
3.17532e-08
3.2804e-08
4.68476e-08
1.66203e-07
5.08259e-06
8.06947e-05
0.000146513
0.000101352
1.32547e-05
4.38494e-26
-8.46011e-12
-1.07893e-10
-2.64185e-13
1.02945e-18
7.04266e-07
2.44953e-06
4.0023e-06
4.00433e-06
2.09686e-06
1.6644e-06
5.48208e-06
7.76028e-07
6.57333e-08
4.8944e-08
5.70298e-08
1.06561e-07
2.90314e-06
0.000116054
0.000171818
0.000170955
0.000169865
1.58967e-05
1.99795e-16
1.90796e-11
1.79365e-09
1.75406e-08
2.39327e-08
4.92914e-08
7.19137e-10
-7.04205e-09
1.12689e-08
5.19925e-08
5.36264e-07
6.29786e-07
1.63389e-07
1.00293e-07
1.23614e-07
1.29122e-07
1.15393e-07
6.64307e-07
0.000104732
0.000172836
0.000171355
8.82211e-05
2.48283e-06
1.12935e-12
1.92879e-08
5.31287e-09
7.83827e-08
2.44546e-07
2.20573e-07
1.72814e-07
1.31627e-07
8.33512e-08
6.44228e-08
4.27899e-07
2.52945e-07
1.80896e-07
1.24459e-07
1.43737e-07
2.14572e-07
2.55961e-07
3.79073e-07
1.22316e-05
5.7117e-05
5.81247e-05
2.18152e-07
3.69706e-08
7.9152e-09
2.94015e-08
1.13032e-08
1.07854e-07
3.594e-07
3.45041e-07
2.98423e-07
2.53239e-07
2.19531e-07
1.65083e-07
2.18398e-07
2.53847e-07
1.25464e-07
9.26222e-08
1.23343e-07
2.08302e-07
3.26242e-07
3.54775e-07
1.01783e-07
4.29654e-08
1.10027e-07
6.40846e-08
1.86352e-07
7.62165e-09
1.68639e-08
1.09891e-08
5.49517e-08
2.59789e-07
3.41547e-07
3.01628e-07
2.74403e-07
2.23491e-07
1.74622e-07
7.12913e-08
1.09852e-07
8.87779e-08
7.01599e-08
5.66725e-08
4.36766e-08
4.23617e-08
5.43685e-08
2.94347e-08
3.21851e-08
2.35266e-07
9.18681e-07
1.0024e-06
4.14635e-07
4.65919e-09
6.13801e-09
1.55892e-08
9.02225e-08
2.21729e-07
2.29993e-07
1.90498e-07
1.54597e-07
1.20551e-07
5.52411e-08
9.13105e-08
8.22048e-08
6.01964e-08
3.94652e-08
2.47911e-08
1.82354e-08
1.88228e-08
2.05071e-08
1.10068e-07
6.02344e-07
9.92984e-07
9.95639e-07
4.76957e-07
4.68632e-09
4.65984e-09
1.03063e-08
3.38401e-08
7.96677e-08
9.41182e-08
1.05368e-07
8.44906e-08
6.6938e-08
4.62093e-08
8.46948e-08
8.07761e-08
5.68539e-08
3.41928e-08
2.13606e-08
1.86179e-08
2.34879e-08
3.98898e-08
9.00422e-08
2.84891e-07
6.59911e-07
5.93473e-07
1.15918e-07
4.65984e-09
6.28529e-09
1.01363e-08
1.49485e-08
3.20464e-08
3.17284e-08
3.5553e-08
3.48719e-08
2.89667e-08
4.28103e-08
8.1571e-08
8.02136e-08
5.73462e-08
3.41675e-08
2.12897e-08
1.69707e-08
1.75144e-08
2.25893e-08
3.28759e-08
4.99116e-08
5.14197e-08
4.1496e-08
9.15528e-09
1.10998e-08
1.217e-08
1.08947e-08
1.06688e-08
1.30003e-08
1.22328e-08
1.18027e-08
1.25686e-08
1.07412e-08
3.37874e-08
6.81924e-08
7.23559e-08
5.60623e-08
3.53249e-08
2.09598e-08
1.46209e-08
1.23894e-08
1.19383e-08
1.25218e-08
9.59391e-09
4.81282e-09
5.48922e-09
9.76038e-09
1.30491e-08
1.233e-08
9.55795e-09
8.9252e-09
8.18249e-09
7.39005e-09
6.9528e-09
5.60481e-09
4.58855e-09
2.73127e-08
5.44976e-08
6.0248e-08
4.9942e-08
3.45104e-08
1.96635e-08
1.2183e-08
9.18694e-09
7.9032e-09
6.82192e-09
5.91555e-09
5.00509e-09
5.69332e-09
7.80882e-09
9.60782e-09
9.02232e-09
6.86458e-09
6.46922e-09
6.26931e-09
5.74381e-09
5.03354e-09
3.87238e-09
2.962e-09
1.75783e-08
3.93465e-08
4.67926e-08
4.06472e-08
3.00421e-08
1.88033e-08
1.05808e-08
6.73016e-09
5.5303e-09
4.8446e-09
4.43968e-09
4.08153e-09
4.10416e-09
4.66044e-09
5.32857e-09
5.19548e-09
4.53104e-09
4.16422e-09
4.2462e-09
4.07595e-09
3.71037e-09
3.04734e-09
2.42257e-09
1.37988e-08
2.81916e-08
3.21135e-08
3.01414e-08
2.44695e-08
1.64832e-08
9.28421e-09
5.22684e-09
3.57688e-09
3.09877e-09
2.94091e-09
2.83643e-09
2.71414e-09
2.67042e-09
2.73856e-09
2.66225e-09
2.59954e-09
2.51818e-09
2.55942e-09
2.57238e-09
2.45616e-09
2.18165e-09
1.85116e-09
7.32263e-09
1.57512e-08
1.85439e-08
1.79004e-08
1.6108e-08
1.30653e-08
7.83732e-09
3.89502e-09
2.43324e-09
1.81352e-09
1.6295e-09
1.63084e-09
1.635e-09
1.57874e-09
1.49955e-09
1.41378e-09
1.35115e-09
1.36591e-09
1.39824e-09
1.44176e-09
1.42728e-09
1.33828e-09
1.20436e-09
5.05051e-09
9.8535e-09
1.1032e-08
9.86214e-09
8.57735e-09
7.97505e-09
5.6779e-09
3.06021e-09
1.73267e-09
1.10224e-09
8.51585e-10
8.12693e-10
8.54408e-10
8.61424e-10
8.21986e-10
7.66059e-10
7.0191e-10
6.99816e-10
7.09638e-10
7.31378e-10
7.28131e-10
7.04342e-10
6.5768e-10
2.60342e-09
5.17426e-09
5.98407e-09
5.22765e-09
4.12534e-09
4.08019e-09
3.32956e-09
1.98773e-09
1.1686e-09
6.89787e-10
4.54225e-10
3.83585e-10
3.89256e-10
4.10765e-10
4.09507e-10
3.90734e-10
3.62327e-10
3.45161e-10
3.40626e-10
3.39747e-10
3.31436e-10
3.2468e-10
3.04393e-10
1.56304e-09
2.65164e-09
2.70741e-09
2.33987e-09
1.7708e-09
1.75818e-09
1.57533e-09
1.05903e-09
6.66221e-10
4.02336e-10
2.45443e-10
1.76891e-10
1.61201e-10
1.69185e-10
1.80491e-10
1.73385e-10
1.6906e-10
1.59514e-10
1.54051e-10
1.43543e-10
1.42063e-10
1.33675e-10
1.25717e-10
6.48414e-10
1.16142e-09
1.19044e-09
9.4433e-10
6.50384e-10
6.14833e-10
6.26984e-10
4.66146e-10
3.13969e-10
1.9949e-10
1.24066e-10
8.23422e-11
6.55951e-11
6.39862e-11
6.66767e-11
7.14863e-11
7.05309e-11
6.70324e-11
6.38907e-11
6.02578e-11
5.51143e-11
5.16908e-11
4.70324e-11
2.93867e-10
4.57144e-10
4.49633e-10
3.57263e-10
2.35663e-10
2.07769e-10
1.99095e-10
1.61447e-10
1.15731e-10
7.77394e-11
5.06142e-11
3.3222e-11
2.44723e-11
2.17992e-11
2.33569e-11
2.52662e-11
2.60342e-11
2.49618e-11
2.37684e-11
2.21889e-11
2.00041e-11
1.71065e-11
1.56793e-11
1.11935e-10
1.54823e-10
1.47032e-10
1.1427e-10
7.3493e-11
6.04682e-11
5.92255e-11
5.06271e-11
3.78054e-11
2.63022e-11
1.77049e-11
1.1905e-11
8.58114e-12
7.28302e-12
7.30079e-12
7.85209e-12
8.33806e-12
8.20527e-12
7.86359e-12
7.4433e-12
6.24622e-12
5.39705e-12
4.6499e-12
3.63844e-11
4.51725e-11
4.13149e-11
3.1165e-11
1.96579e-11
1.52885e-11
1.47639e-11
1.32132e-11
1.01972e-11
7.28667e-12
5.04329e-12
3.48631e-12
2.52352e-12
2.09474e-12
2.05298e-12
2.20103e-12
2.37024e-12
2.38469e-12
2.29417e-12
2.04801e-12
1.81215e-12
1.41657e-12
1.17533e-12
8.38221e-12
1.08691e-11
9.52788e-12
7.12769e-12
4.43291e-12
3.30592e-12
3.1404e-12
2.93975e-12
2.33624e-12
1.70644e-12
1.20614e-12
8.51247e-13
6.27696e-13
5.25128e-13
5.11648e-13
5.4918e-13
5.9169e-13
6.02714e-13
5.72774e-13
5.27686e-13
4.38848e-13
3.3368e-13
2.5385e-13
1.76965e-12
2.12669e-12
1.81349e-12
1.34966e-12
8.29103e-13
6.01613e-13
5.68544e-13
5.58049e-13
4.56861e-13
3.40189e-13
2.44313e-13
1.75708e-13
1.33134e-13
1.13428e-13
1.11599e-13
1.19807e-13
1.29159e-13
1.32612e-13
1.25642e-13
1.14123e-13
9.14917e-14
6.58992e-14
4.64382e-14
2.70413e-13
3.28054e-13
2.81442e-13
2.06335e-13
1.25573e-13
8.99777e-14
8.58911e-14
8.88474e-14
7.50502e-14
5.69896e-14
4.1602e-14
3.03132e-14
2.41514e-14
2.12273e-14
2.12061e-14
2.37941e-14
2.55362e-14
2.53318e-14
2.35249e-14
2.03744e-14
1.58262e-14
1.11108e-14
7.13727e-15
2.59493e-14
3.95324e-14
3.43178e-14
2.5025e-14
1.52797e-14
1.10172e-14
1.08384e-14
1.18448e-14
1.03557e-14
8.18977e-15
6.09434e-15
4.53219e-15
3.35096e-15
3.2318e-15
3.73092e-15
4.15909e-15
4.51826e-15
4.40505e-15
3.97738e-15
3.37042e-15
2.46038e-15
1.59022e-15
9.51852e-16
2.47673e-15
3.56486e-15
3.21863e-15
2.38554e-15
1.48465e-15
1.10022e-15
1.13836e-15
1.32291e-15
1.22955e-15
8.29316e-16
6.47069e-16
5.22726e-16
5.34268e-16
5.52427e-16
6.23631e-16
6.77758e-16
7.2979e-16
6.95038e-16
5.92492e-16
4.69582e-16
3.19108e-16
1.94475e-16
1.27862e-16
1.11492e-16
2.38572e-16
2.32324e-16
1.78401e-16
1.14991e-16
8.9952e-17
1.02087e-16
1.28239e-16
1.00658e-16
1.03943e-16
8.4474e-17
7.41281e-17
7.31868e-17
8.12401e-17
8.57269e-17
1.03063e-16
1.07253e-16
9.84355e-17
7.87471e-17
5.65417e-17
3.57788e-17
2.20732e-17
2.65524e-17
7.59543e-18
1.19769e-17
1.29924e-17
1.04971e-17
7.25428e-18
6.16862e-18
5.78996e-18
8.25473e-18
1.12113e-17
1.03265e-17
9.03362e-18
8.77538e-18
9.46238e-18
1.11152e-17
1.30641e-17
1.44598e-17
1.44227e-17
1.24631e-17
9.31862e-18
6.1869e-18
4.07169e-18
4.03736e-18
1.09221e-17
2.33727e-19
4.39364e-19
4.62901e-19
4.89705e-19
3.80914e-19
3.64681e-19
5.21718e-19
7.97835e-19
9.42904e-19
9.67865e-19
9.24094e-19
9.851e-19
1.15413e-18
1.41947e-18
1.71914e-18
1.8348e-18
1.72732e-18
1.40414e-18
1.02013e-18
7.08206e-19
6.62113e-19
1.25905e-18
6.41107e-18
3.78439e-21
1.0729e-20
1.42228e-20
1.86525e-20
1.70232e-20
1.8935e-20
3.27784e-20
5.51148e-20
7.33257e-20
8.54023e-20
9.00478e-20
1.05259e-19
1.32716e-19
1.70612e-19
1.84104e-19
1.94526e-19
2.01169e-19
1.57649e-19
1.19513e-19
1.13068e-19
1.9072e-19
7.44745e-19
4.60187e-18
2.18052e-23
1.44991e-22
4.03014e-22
5.91719e-22
6.63086e-22
8.86672e-22
1.90268e-21
3.48718e-21
5.31807e-21
7.09914e-21
8.33135e-21
1.06845e-20
1.44897e-20
1.94534e-20
2.3764e-20
2.5119e-20
2.13148e-20
1.80818e-20
1.844e-20
2.8201e-20
9.19667e-20
4.58576e-19
3.09937e-18
1.78707e-26
7.01049e-25
8.63405e-24
1.63004e-23
2.32718e-23
3.83446e-23
1.01785e-22
2.03205e-22
3.63419e-22
5.59092e-22
7.33763e-22
1.03788e-21
1.52495e-21
2.1557e-21
2.72009e-21
2.99862e-21
2.99335e-21
2.94988e-21
3.71169e-21
8.89598e-21
3.90528e-20
2.12813e-19
1.51799e-18
0.000616814
0.05679
0.143045
0.170782
0.493021
0.859965
0.840409
0.799314
0.968537
0.832739
0.81408
0.80739
0.971436
0.885822
0.890457
0.950719
0.989036
0.996781
0.999539
0.99993
0.999832
0.999999
1
1
1
1
1
1
0.999999
0.999999
0.999999
0.999999
0.864648
0.832113
0.91416
0.961204
0.147386
0.129736
0.141735
0.151059
8.79108e-07
9.1222e-07
1.3117e-06
1.56837e-06
3.01633e-08
1.66049e-08
5.25579e-08
4.91054e-08
6.13687e-08
6.22132e-08
6.48883e-08
6.48425e-08
1.3854e-07
1.0818e-07
9.55475e-08
8.77588e-08
1.31138e-07
1.07366e-07
8.75837e-08
8.39784e-08
1.06703e-07
8.01019e-08
7.18007e-08
5.76965e-08
6.0145e-08
5.68512e-08
3.26077e-08
2.91436e-08
2.79797e-08
1.80493e-08
1.44708e-08
1.08758e-08
9.92742e-09
8.77665e-09
4.97957e-09
4.12898e-09
4.3e-09
3.09785e-09
2.56999e-09
2.13647e-09
2.65165e-09
2.35088e-09
1.74722e-09
1.55005e-09
2.14802e-09
1.79321e-09
1.52651e-09
1.31889e-09
1.6406e-09
1.48907e-09
1.2321e-09
1.09856e-09
1.11147e-09
9.96069e-10
8.8979e-10
7.99267e-10
6.16108e-10
5.57686e-10
5.02331e-10
4.72585e-10
2.87379e-10
2.57779e-10
2.41619e-10
2.25475e-10
1.18026e-10
9.94158e-11
9.20268e-11
8.85624e-11
4.31508e-11
3.6267e-11
3.25275e-11
2.98811e-11
1.43299e-11
1.09783e-11
9.70098e-12
8.78825e-12
4.11796e-12
3.29092e-12
2.76801e-12
2.32017e-12
1.02243e-12
7.68591e-13
6.32338e-13
5.15547e-13
2.13057e-13
1.64957e-13
1.28778e-13
9.79104e-14
3.77889e-14
2.72571e-14
2.07488e-14
1.53438e-14
5.46059e-15
4.04576e-15
2.98142e-15
2.27889e-15
7.23841e-16
5.56116e-16
4.87972e-16
5.03296e-16
1.12539e-16
1.15405e-16
1.43902e-16
2.16075e-16
3.31606e-17
4.57607e-17
7.72065e-17
1.53145e-16
1.63936e-17
2.74846e-17
5.80842e-17
1.57493e-16
1.07938e-17
2.17158e-17
6.35557e-17
1.97832e-16
8.68855e-18
2.2981e-17
7.75513e-17
2.51537e-16
6.63413e-18
2.35073e-17
8.4947e-17
2.67603e-16
5.2295e-18
1.83498e-17
6.03862e-17
1.69758e-16
0.172078
0.0468488
0.0317462
0.0736567
0.601629
0.738521
0.16626
-4.88009e-09
8.31275e-06
-1.65364e-19
3.54489e-20
3.7957e-21
1.26416e-19
1.59184e-19
2.79963e-05
5.51814e-05
7.9977e-05
7.69914e-05
0.179292
0.53284
0.0710514
0.0501307
0.551494
0.866373
0.806233
0.104827
-2.16438e-19
0.00868302
0.0487763
0.0907099
0.112185
0.118015
0.115705
0.0503808
5.40794e-05
7.82528e-05
7.63039e-05
7.69156e-05
0.692944
0.606466
0.790495
0.996721
0.996737
0.836795
0.528908
0.427692
0.567347
0.776285
0.852845
0.87702
0.88631
0.888374
0.840221
0.695289
0.571824
0.448888
0.190413
0.950676
0.978272
0.997858
0.999586
0.998043
0.93243
0.871501
0.941843
0.999377
0.999838
0.999966
0.999992
0.999973
0.999817
0.999638
0.999627
0.999468
0.972855
0.848695
0.999982
0.999974
0.999955
0.999106
0.99837
0.999987
0.999989
1
0.999987
0.999991
0.999974
0.999998
0.999998
0.999854
0.999707
0.999679
0.999563
0.994888
0.97534
0.999998
0.999963
0.999955
0.999982
0.999999
1
1
0.999999
0.999999
0.999991
0.999993
1
1
1
1
0.999883
0.998344
0.994159
0.993319
1
0.999995
0.999992
0.999996
1
1
0.999999
1
1
1
1
1
1
1
1
0.999983
0.989927
0.976716
0.976499
0.999999
0.999998
0.999998
0.999999
1
1
1
1
1
1
1
1
1
0.999997
0.999712
0.997828
0.996751
0.989274
0.983035
0.955886
0.932037
0.830808
0.738263
0.712837
0.700617
0.666186
0.650882
0.67126
0.677046
0.680985
0.691654
0.704884
0.71221
0.661668
0.579702
0.558663
0.552781
0.533443
0.119155
0.0456727
0.0191724
0.0366047
0.0423927
0.0191226
0.0029862
0
0.000194552
1.54329e-07
-1.54328e-07
0.000601823
0.00347813
0.00168349
1.32233e-09
3.95836e-16
0
-1.51256e-24
-7.38089e-25
6.10002e-07
4.4464e-08
4.00968e-08
8.98238e-09
-1.70968e-09
-8.62641e-09
8.4754e-24
-9.11437e-23
1.02676e-21
1.21525e-15
1.4564e-15
9.89759e-12
-1.38223e-13
2.23526e-08
8.09949e-07
1.59299e-05
2.63359e-07
2.96289e-07
4.29845e-07
4.96015e-08
5.46731e-08
1.04662e-07
1.65224e-07
2.6771e-07
1.20234e-06
6.98451e-06
6.94065e-05
0.00016361
9.34817e-05
3.58443e-05
4.47693e-05
0.000589992
0.000892855
0.00061488
0.000135819
1.33498e-06
1.55549e-06
9.58089e-07
6.69754e-08
7.76807e-08
1.18687e-07
1.79671e-07
3.26088e-07
8.18544e-07
6.10282e-06
0.000320971
0.0010044
0.00090288
0.000127615
2.2485e-05
0.000991695
0.00156367
0.00153168
0.000217908
2.30934e-06
1.07807e-06
5.01748e-07
8.20966e-08
7.62297e-08
9.04595e-08
1.75541e-07
2.83777e-07
2.87647e-07
2.26555e-06
0.000158749
0.00100626
0.00100441
0.000578192
8.08528e-06
3.95424e-05
0.000458718
9.16591e-05
4.50464e-05
2.72992e-06
2.39453e-07
4.86837e-07
7.22582e-08
6.578e-08
6.47298e-08
1.37767e-07
2.69834e-07
2.34865e-07
1.99386e-07
4.29598e-07
0.000167337
0.000462423
0.000218034
4.77039e-06
3.97556e-07
2.29342e-07
1.11241e-07
7.44596e-08
6.78201e-07
2.29188e-07
5.6961e-07
5.12633e-08
5.03763e-08
4.6651e-08
9.29237e-08
1.83346e-07
2.2362e-07
3.74483e-07
3.39865e-07
2.11549e-07
8.37954e-08
6.37806e-08
9.7199e-07
1.01271e-06
6.93729e-07
2.1279e-07
6.59059e-08
6.39814e-08
2.38812e-07
7.31632e-07
2.9282e-08
3.31182e-08
3.93891e-08
6.21302e-08
5.85116e-08
2.97409e-08
7.71814e-07
1.08514e-06
7.2657e-07
1.59644e-07
6.94532e-08
2.90223e-07
1.28142e-06
1.29234e-06
4.33374e-07
8.23674e-08
6.73557e-08
3.37388e-07
7.25461e-07
1.37941e-08
1.88546e-08
2.46975e-08
3.70416e-08
2.7703e-08
2.91349e-08
1.62997e-07
9.66535e-07
8.1982e-07
2.16127e-07
7.11261e-08
1.31014e-07
8.10918e-07
7.39488e-07
2.46706e-07
7.24571e-08
9.33374e-08
2.64868e-07
7.24068e-07
5.90884e-09
9.07309e-09
1.32792e-08
1.97112e-08
2.54894e-08
2.88347e-08
2.52424e-08
2.74307e-08
4.7979e-08
5.82608e-08
6.21617e-08
3.20065e-08
3.25214e-08
2.56679e-08
2.83458e-08
4.29749e-08
7.18825e-08
1.17217e-07
1.07052e-07
2.67395e-09
4.01062e-09
6.33409e-09
1.01744e-08
1.49363e-08
2.03065e-08
2.16688e-08
1.92242e-08
2.297e-08
3.67008e-08
5.33603e-08
3.29195e-08
1.5264e-08
1.26431e-08
1.97817e-08
3.33109e-08
4.98828e-08
4.11212e-08
2.09227e-08
1.575e-09
1.95959e-09
2.8782e-09
4.53518e-09
6.85235e-09
9.91709e-09
1.2206e-08
1.52213e-08
1.91155e-08
2.27865e-08
2.38017e-08
2.24667e-08
1.48458e-08
1.29276e-08
1.57043e-08
2.79425e-08
2.55141e-08
1.76526e-08
1.40508e-08
1.17218e-09
1.17312e-09
1.38492e-09
1.8941e-09
2.62575e-09
3.69875e-09
5.09976e-09
6.61454e-09
7.80746e-09
7.41996e-09
6.61901e-09
6.28623e-09
7.20232e-09
8.28853e-09
1.20546e-08
1.16912e-08
1.46049e-08
1.47159e-08
1.41146e-08
9.24387e-10
8.20715e-10
7.81462e-10
8.28614e-10
1.04143e-09
1.41789e-09
1.91617e-09
2.47412e-09
3.04698e-09
3.32717e-09
3.21786e-09
3.74549e-09
4.35858e-09
5.54971e-09
6.12389e-09
1.12757e-08
1.33405e-08
1.49598e-08
1.43924e-08
6.82131e-10
5.72238e-10
4.78293e-10
4.20016e-10
4.20081e-10
4.91489e-10
6.35684e-10
8.32226e-10
1.0594e-09
1.30547e-09
1.60247e-09
2.00519e-09
2.68635e-09
3.80193e-09
5.72902e-09
8.36779e-09
1.45578e-08
1.92759e-08
1.86253e-08
4.16642e-10
3.50095e-10
2.83258e-10
2.29451e-10
2.06157e-10
2.15496e-10
2.62321e-10
3.53982e-10
4.98191e-10
7.00776e-10
9.86171e-10
1.41979e-09
2.10851e-09
3.27247e-09
5.05064e-09
9.39627e-09
2.06918e-08
2.82058e-08
3.01289e-08
2.02606e-10
1.71874e-10
1.39009e-10
1.12118e-10
1.00876e-10
1.06419e-10
1.33765e-10
1.9143e-10
2.94007e-10
4.6155e-10
7.24112e-10
1.13361e-09
1.80834e-09
2.98831e-09
5.07075e-09
1.05855e-08
2.31445e-08
6.50141e-08
3.50345e-08
7.98828e-11
6.72541e-11
5.4065e-11
4.51596e-11
4.39283e-11
5.2705e-11
7.63583e-11
1.23028e-10
2.07555e-10
3.53482e-10
5.96321e-10
9.94772e-10
1.65816e-09
2.81723e-09
5.15822e-09
1.10708e-08
3.45005e-08
7.68825e-08
6.29575e-08
2.61133e-11
2.12954e-11
1.69875e-11
1.53977e-11
1.80277e-11
2.72989e-11
4.76727e-11
8.74895e-11
1.60901e-10
2.94144e-10
5.2637e-10
9.21691e-10
1.58412e-09
2.70586e-09
5.172e-09
1.34075e-08
3.7128e-08
9.8097e-08
5.96614e-08
7.24287e-12
5.63087e-12
4.60639e-12
5.04792e-12
8.30431e-12
1.63341e-11
3.33122e-11
6.7338e-11
1.33503e-10
2.59555e-10
4.89415e-10
8.95158e-10
1.56992e-09
2.68853e-09
5.06506e-09
1.41024e-08
5.076e-08
1.00167e-07
6.4385e-08
1.70267e-12
1.29835e-12
1.31958e-12
2.18647e-12
4.76249e-12
1.13461e-11
2.55408e-11
5.52973e-11
1.17004e-10
2.3946e-10
4.75909e-10
9.05692e-10
1.62145e-09
2.76354e-09
5.20904e-09
1.66109e-08
5.39459e-08
1.0221e-07
5.93473e-08
3.44927e-13
2.96662e-13
5.22243e-13
1.32494e-12
3.40088e-12
8.67485e-12
2.08977e-11
4.80701e-11
1.06741e-10
2.28557e-10
4.79954e-10
9.46297e-10
1.72998e-09
2.91424e-09
5.00538e-09
1.82396e-08
6.88885e-08
1.03074e-07
5.6276e-08
6.30205e-14
8.77226e-14
2.89019e-13
9.36757e-13
2.72544e-12
7.16111e-12
1.7776e-11
4.29561e-11
1.00857e-10
2.25549e-10
4.96166e-10
1.00079e-09
1.8927e-09
3.17089e-09
6.02807e-09
1.92804e-08
6.82093e-08
1.03459e-07
3.94328e-08
1.2834e-14
4.28623e-14
1.91968e-13
7.11422e-13
2.20791e-12
6.09028e-12
1.57968e-11
3.98382e-11
9.85219e-11
2.31127e-10
5.20586e-10
1.08676e-09
2.05807e-09
3.64614e-09
6.34553e-09
1.86945e-08
6.4297e-08
7.81456e-08
3.34732e-08
5.61932e-15
3.31852e-14
1.61722e-13
5.96623e-13
1.83699e-12
5.3881e-12
1.46331e-11
3.84759e-11
9.80796e-11
2.38348e-10
5.46889e-10
1.14658e-09
2.23192e-09
3.94976e-09
6.9e-09
1.83416e-08
3.47434e-08
4.61884e-08
1.39943e-08
4.61314e-15
3.10687e-14
1.4439e-13
5.28531e-13
1.67929e-12
4.95682e-12
1.42265e-11
3.82951e-11
9.86337e-11
2.43622e-10
5.62241e-10
1.18483e-09
2.30953e-09
4.06156e-09
6.78731e-09
1.50499e-08
2.19011e-08
1.07533e-08
9.63334e-09
4.209e-15
2.80103e-14
1.2495e-13
4.64773e-13
1.54229e-12
4.70235e-12
1.36085e-11
3.70768e-11
9.61253e-11
2.38803e-10
5.54996e-10
1.15714e-09
2.23834e-09
3.88863e-09
6.23327e-09
1.08172e-08
9.2321e-09
8.75216e-09
3.5373e-09
3.92353e-15
2.51067e-14
1.08636e-13
4.16057e-13
1.38577e-12
4.31633e-12
1.24805e-11
3.39041e-11
8.86549e-11
2.19783e-10
5.05516e-10
1.04915e-09
2.02146e-09
3.37639e-09
4.90384e-09
7.73956e-09
5.76045e-09
2.91403e-09
2.34015e-09
3.87667e-15
2.20888e-14
9.39401e-14
3.52565e-13
1.17941e-12
3.61862e-12
1.05873e-11
2.85999e-11
7.40357e-11
1.83017e-10
4.19818e-10
8.64107e-10
1.63042e-09
2.66743e-09
3.65892e-09
4.40732e-09
2.87978e-09
1.63828e-09
9.5169e-10
3.48292e-15
1.79914e-14
7.37218e-14
2.67033e-13
8.81823e-13
2.69656e-12
7.74639e-12
2.10059e-11
5.43515e-11
1.34427e-10
3.07389e-10
6.2936e-10
1.16876e-09
1.90279e-09
2.366e-09
2.66647e-09
1.57768e-09
6.2642e-10
4.66036e-10
2.80764e-15
1.26374e-14
4.7833e-14
1.6361e-13
5.2122e-13
1.56812e-12
4.56492e-12
1.25822e-11
3.27641e-11
8.14698e-11
1.88446e-10
3.88811e-10
7.15836e-10
1.15556e-09
1.46739e-09
1.47822e-09
7.31244e-10
2.89457e-10
2.60952e-10
1.70926e-15
6.59961e-15
2.29025e-14
7.41078e-14
2.32659e-13
7.12294e-13
2.10269e-12
5.98332e-12
1.60942e-11
4.16304e-11
9.92544e-11
2.10056e-10
3.8431e-10
6.27871e-10
7.97274e-10
7.43835e-10
3.29319e-10
1.52495e-10
1.40203e-10
5.66932e-16
1.85484e-15
5.8806e-15
1.76702e-14
6.00828e-14
2.04492e-13
6.52547e-13
1.96801e-12
5.64009e-12
1.5116e-11
3.70754e-11
8.13563e-11
1.52296e-10
2.563e-10
3.36652e-10
3.01367e-10
1.37425e-10
6.29744e-11
4.23228e-11
)
;

boundaryField
{
    leftWall
    {
        type            alphaContactAngle;
        contactAngleProperties 
        {
            mercury         
            {
                theta0          90;
            }
            air             
            {
                theta0          90;
            }
            water           
            {
                theta0          90;
            }
        }
        value           nonuniform List<scalar> 
50
(
1.55281e-14
9.17916e-15
5.18462e-15
2.84731e-15
4.22296e-14
8.29931e-13
2.33277e-12
1.58812e-12
1.67084e-09
5.34e-09
5.20447e-09
1.69921e-09
2.61442e-10
0.350033
0.833618
0.237588
1.84671e-09
9.18801e-07
1.95059e-06
1.6644e-06
5.36264e-07
4.27899e-07
2.18398e-07
7.12913e-08
5.52411e-08
4.62093e-08
4.28103e-08
3.37874e-08
2.73127e-08
1.75783e-08
1.37988e-08
7.32263e-09
5.05051e-09
2.60342e-09
1.56304e-09
6.48414e-10
2.93867e-10
1.11935e-10
3.63844e-11
8.38221e-12
1.76965e-12
2.70413e-13
2.59493e-14
2.47673e-15
1.11492e-16
7.59543e-18
2.33727e-19
3.78439e-21
2.18052e-23
1.78707e-26
)
;
    }
    rightWall
    {
        type            alphaContactAngle;
        contactAngleProperties 
        {
            mercury         
            {
                theta0          90;
            }
            air             
            {
                theta0          90;
            }
            water           
            {
                theta0          90;
            }
        }
        value           nonuniform List<scalar> 
50
(
0.222536
0.233995
0.388902
0.501803
0.502742
0.508487
0.508946
0.508487
0.179292
7.69156e-05
0.190413
0.848695
0.97534
0.993319
0.976499
0.983035
0.533443
-7.38089e-25
4.29845e-07
9.58089e-07
5.01748e-07
4.86837e-07
5.6961e-07
7.31632e-07
7.25461e-07
7.24068e-07
1.07052e-07
2.09227e-08
1.40508e-08
1.41146e-08
1.43924e-08
1.86253e-08
3.01289e-08
3.50345e-08
6.29575e-08
5.96614e-08
6.4385e-08
5.93473e-08
5.6276e-08
3.94328e-08
3.34732e-08
1.39943e-08
9.63334e-09
3.5373e-09
2.34015e-09
9.5169e-10
4.66036e-10
2.60952e-10
1.40203e-10
4.23228e-11
)
;
    }
    lowerWall
    {
        type            alphaContactAngle;
        contactAngleProperties 
        {
            mercury         
            {
                theta0          90;
            }
            air             
            {
                theta0          90;
            }
            water           
            {
                theta0          90;
            }
        }
        value           nonuniform List<scalar> 
62
(
1.55281e-14
1.50047e-13
6.97711e-13
2.29066e-12
6.15075e-12
1.44998e-11
3.09621e-11
6.1595e-11
1.16436e-10
2.35644e-10
4.42626e-10
8.29253e-10
1.57324e-09
3.04076e-09
5.8214e-09
1.06602e-08
1.74833e-08
1.91593e-08
1.92357e-08
0.000176623
0.000467235
0.000565585
0.000567207
0.000567207
0.000176844
1.22827e-08
1.41222e-08
1.46241e-06
4.47947e-05
5.42212e-05
2.20525e-05
0.000616814
0.05679
0.143045
0.170782
0.118383
0.414581
0.423422
0.087614
0.00479525
0.0331505
0.0374935
0.0308432
0.118383
0.11612
0.0965346
0.0431188
0.0291791
0.0285924
0.0779419
0.295396
0.32848
0.331726
0.336765
0.339106
0.319778
0.18063
0.0596159
0.102161
0.170117
0.223226
0.222536
)
;
    }
    atmosphere
    {
        type            inletOutlet;
        inletValue      uniform 0;
        value           nonuniform List<scalar> 
46
(
1.78707e-26
7.01049e-25
8.63405e-24
1.63004e-23
2.32718e-23
3.83446e-23
1.01785e-22
2.03205e-22
3.63418e-22
5.59092e-22
7.33763e-22
1.03788e-21
1.52495e-21
2.1557e-21
2.72009e-21
2.99862e-21
2.99335e-21
2.94988e-21
3.71169e-21
8.89598e-21
3.90528e-20
2.12813e-19
1.51799e-18
5.2295e-18
0
0
0
0
0
0
0
0
0
0
0
0
0
0
0
0
0
0
0
0
0
0
)
;
    }
    defaultFaces
    {
        type            empty;
    }
}


// ************************************************************************* //
