/*--------------------------------*- C++ -*----------------------------------*\
  =========                 |
  \\      /  F ield         | OpenFOAM: The Open Source CFD Toolbox
   \\    /   O peration     | Website:  https://openfoam.org
    \\  /    A nd           | Version:  13
     \\/     M anipulation  |
\*---------------------------------------------------------------------------*/
FoamFile
{
    format      ascii;
    class       volScalarField;
    location    "2";
    object      alphas;
}
// * * * * * * * * * * * * * * * * * * * * * * * * * * * * * * * * * * * * * //

dimensions      [];

internalField   nonuniform List<scalar> 
2268
(
2
2
2
2
2
2
2
2
2
2
2
2
2
2
2
2
2
2
2
1.99982
1.99953
1.99943
1.99943
2
2
2
2
2
2
2
2
2
2
2
2
2
2
2
2
2
2
2
2
2
1.99994
1.99982
2
2
2
2
2
2
2
2
2
2
2
2
2
2
2
2
2
2
2
2
2
2
2
2
2
2
2
2
2
2
2
2
2
2
2
2
2
2
2
2
2
2
2
2
2
2
2
2
2
2
2
2
2
2
2
2
2
2
2
2
2
2
2
2
1.99958
1.99845
1.99829
1.99909
1.99941
2
2
2
2
2
2
2
2
1.99653
1.96676
1.90969
1.83179
1.73966
1.63857
1.53227
1.42444
1.31904
1.20259
1.11807
1.073
1.07079
1.10392
1.10928
2
2
2
2
1.9806
1.81165
1.58424
1.31507
1.02237
0.744769
0.531591
0.370668
0.249212
0.157334
0.0879868
0.0359606
8.5896e-06
5.55855e-05
0.000285033
0.000904608
0.00212462
0.00389884
0.00474548
1.91112
1.75245
1.49639
1.12673
0.68911
0.379942
0.169258
0.0447083
1.83615e-09
2.68223e-09
4.31048e-09
8.21716e-09
2.41356e-08
1.07755e-07
5.37174e-07
2.84367e-06
1.43069e-05
6.28126e-05
0.000146537
0.000248162
0.000399288
0.000715206
0.00232106
1.8608
1.86306
1.86184
1.85673
1.87061
1.92979
1.92263
1.75794
1.7239
1.7105
1.70508
1.71692
1.76472
1.76703
1.77716
1.67249
1.7172
1.76982
1.75813
1.46641
1.44964
1.51976
1.59968
1.59834
1.55509
1.63381
1.72072
1.75934
1.89355
1.94869
1.88316
1.86479
1.93347
1.83441
1.72053
1.71905
1.77373
1.74621
0.714497
0.63513
0.784871
0.956054
1.06682
0.918845
0.70046
0.831887
1.13868
1.55526
2.17569
2.22076
1.98537
1.98562
2.1484
2.09072
1.82037
1.72763
1.60898
0.493652
0.412557
0.350537
0.673732
0.915818
0.87426
0.362394
0.0427201
0.0311806
0.232199
1.77177
2.28002
2.37989
2.33204
2.2042
2.22262
2.14972
1.86164
1.52199
0.326764
0.379202
0.376542
0.403836
0.865014
0.876497
0.686081
0.177217
0.0209915
0.00506369
0.966225
1.91432
2.27269
2.31803
2.28893
2.15146
2.2084
2.15244
1.77129
0.240184
0.247278
0.270925
0.27365
0.732895
0.963119
1.0283
0.518031
0.0501968
0.00405485
0.217501
1.22534
1.94114
2.08271
1.9766
1.07877
1.37762
1.93017
1.80405
0.268265
0.273987
0.266449
0.194167
0.772519
1.16731
1.15112
0.345492
0.0311938
0.00306215
0.00529171
0.0539058
0.443499
0.930758
0.827177
0.329028
0.20438
0.404596
0.832207
0.284834
0.28191
0.267073
0.272801
1.08988
1.38759
0.984272
0.0346845
0.000286131
0.000304836
0.00037581
0.000412242
0.00273816
0.0444585
0.0548795
0.0268272
0.0019355
0.00131358
0.508487
0.257073
0.141163
0.056925
0.0112308
5.71417e-09
5.32461e-09
6.76921e-09
7.19588e-09
7.43563e-09
7.82369e-09
1.01827e-08
1.2742e-08
1.53845e-08
3.76897e-08
7.77893e-08
1.88881e-07
1.01865e-06
5.57373e-06
6.24421e-06
6.80661e-06
8.80671e-06
3.18214e-05
0.0187702
2.60041e-08
9.60221e-09
6.97729e-09
6.61755e-09
7.41406e-09
1.10843e-08
1.48487e-08
1.93496e-08
2.08416e-08
2.10385e-08
2.45975e-08
2.71791e-08
2.03503e-08
2.54592e-08
2.89793e-08
4.42968e-08
7.78854e-08
4.07741e-06
0.00730913
0.0545958
0.119406
0.182723
0.262809
8.41796e-09
6.70177e-09
6.47622e-09
6.76932e-09
7.25186e-09
8.03786e-09
8.07957e-09
7.35727e-09
5.95961e-09
4.77888e-09
3.20408e-09
2.78429e-09
5.35174e-07
0.00401354
0.0322587
0.0695893
0.106617
0.188341
0.353266
0.556303
0.720299
1.0242
0.970895
3.84418e-09
2.23567e-09
0.010606
0.0120083
0.00531973
0.000605168
0.00151458
0.00983089
0.0365759
0.0668652
0.106077
0.161973
0.239532
0.373536
0.585953
0.673313
0.768139
0.951417
1.09478
1.24085
1.29494
1.03722
1.00791
0.382142
0.279343
0.20095
0.249595
0.346761
0.395512
0.384484
0.661176
0.738869
0.813704
0.952331
1.08848
1.18161
1.24873
1.31801
1.34412
1.15891
1.15721
1.29813
1.20969
1.0183
1.00054
1.01084
0.917287
0.995334
0.949884
0.968099
0.982501
0.990885
1.01479
1.22531
1.24682
1.12827
1.12565
1.13357
1.07944
1.03895
1.04046
1.01981
1.00518
1.0041
1.01895
1.01187
1
1.00074
1.00257
1.33101
1.20472
1.09311
1.07921
1.08197
1.08879
1.10434
1.11949
1.13807
1.15052
1.1436
1.16104
1.15173
1.093
1.04274
1
1
1
1
1
1
1.00003
1
2.52482
2.4304
2.36031
2.34219
2.35444
2.39025
2.42742
2.45242
2.48361
2.52187
2.53309
2.49304
2.43856
2.34778
2.17697
1.93347
1.55698
1.10518
1
1
1
1
1
3
3
3
2.99998
2.99996
2.99997
2.99998
3
3
3
3
3
3
3
3
2.99389
2.93863
2.71678
2.21573
1.71434
1.34044
1.12465
1.10019
3
2.99999
3
2.99995
2.99933
2.99929
2.99994
3
3
3
3
3
3
3
3
3
2.99999
2.99999
2.99999
2.97929
2.88113
2.71556
2.64557
3
2.99998
2.99998
2.99981
2.99999
3
3
3
2.99999
2.99984
2.9997
2.99979
2.99997
3
3
3
3
3
3
3
2.99999
2.99999
3
3
2.99999
3
3
3
3
3
2.99999
2.99977
2.99965
2.99965
2.99965
2.99996
3
3
3
3
3
3
3
3
3
3
3
3
3
3
3
3
3
3
2.99979
2.99965
2.99965
2.99981
2.99999
2.99999
3
3
3
3
3
3
3
3
3
3
3
3
3
3
3
3
3
2.99998
2.99989
2.99988
2.99999
2.99999
2.99999
2.99999
2.99999
2.99999
3
3
3
3
3
3
3
3
3
3
3
3
3
3
3
3
3
3
2.99999
2.99999
2.99999
2.99999
3
3
3
3
3
3
3
3
3
3
3
3
3
3
3
3
3
3
3
3
3
3
3
3
3
3
3
3
3
3
3
3
3
3
3
3
3
3
3
3
3
3
3
3
3
3
3
3
3
3
3
3
3
3
3
3
3
3
3
3
3
3
3
3
3
3
3
3
3
3
3
3
3
3
3
3
3
3
3
3
3
3
3
3
3
3
3
3
3
3
3
3
3
3
3
3
3
3
3
3
3
3
3
3
3
3
3
3
3
3
3
3
3
3
3
3
3
3
3
3
3
3
3
3
3
3
3
3
3
3
3
3
3
3
3
3
3
3
3
3
3
3
3
3
3
3
3
3
3
3
3
3
3
3
3
3
3
3
3
3
3
3
3
3
3
3
3
3
3
3
3
3
3
3
3
3
3
3
3
3
3
3
3
3
3
3
3
3
3
3
3
3
3
3
3
3
3
3
3
3
3
3
3
3
3
3
3
3
3
3
3
3
3
3
3
3
3
3
3
3
3
3
3
3
3
3
3
3
3
3
3
3
3
3
3
3
3
3
3
3
3
3
3
3
3
3
3
3
3
3
3
3
3
3
3
3
3
3
3
3
3
3
3
3
3
3
3
3
3
3
3
3
3
3
3
3
3
3
3
3
3
3
3
3
3
3
3
3
3
3
3
3
3
3
3
3
3
3
3
3
3
3
3
3
3
3
3
3
3
3
3
3
3
3
3
3
3
3
3
3
3
3
3
3
3
3
3
3
3
3
3
3
3
3
3
3
3
3
3
3
3
3
3
3
3
3
3
3
3
3
3
3
3
3
3
3
3
3
3
3
3
3
3
3
3
3
3
3
3
3
3
3
3
3
3
3
3
3
3
3
3
3
3
3
3
3
3
3
3
3
3
3
3
3
3
3
3
3
3
3
3
3
3
3
3
3
3
3
3
3
3
3
3
3
3
3
3
3
3
3
3
3
3
3
3
3
3
3
3
3
3
3
3
3
3
3
3
3
3
3
3
3
3
3
3
3
3
3
3
3
3
3
3
3
3
3
3
3
3
3
3
3
3
3
3
3
3
3
3
3
3
3
3
3
3
3
3
3
3
3
3
3
3
3
3
3
3
3
3
3
3
3
3
3
3
3
3
3
3
3
3
3
3
3
3
3
3
3
3
3
3
3
3
3
3
3
3
3
3
3
3
3
3
3
3
3
3
3
3
3
3
3
3
3
3
3
3
3
3
3
3
3
3
3
3
3
3
3
3
3
3
3
3
3
3
3
3
3
3
3
3
3
3
3
3
3
3
3
3
3
3
3
3
3
3
3
3
3
3
3
3
3
3
3
3
3
3
3
3
3
3
3
3
3
3
3
3
3
3
3
3
3
3
3
3
3
3
3
3
3
3
3
3
3
3
3
3
3
3
3
3
3
3
3
3
3
3
3
0.0740869
0.156238
0.282823
0.373802
0.548092
0.961628
1.30552
1.36738
1.02632
1.32525
1.37059
1.36625
1.05694
1.22835
1.21757
1.09388
1.02193
1.0064
1.00071
0.999975
1.00034
1
1
1
1
1
1
1
0.999999
0.999999
0.999999
0.999999
1.2707
1.33577
1.17168
1.07759
2.70523
2.74053
2.71653
2.69788
3
3
3
3
3
3
3
3
3
3
3
3
3
3
3
3
3
3
3
3
3
3
3
3
3
3
3
3
3
3
3
3
3
3
3
3
3
3
3
3
3
3
3
3
3
3
3
3
3
3
3
3
3
3
3
3
3
3
3
3
3
3
3
3
3
3
3
3
3
3
3
3
3
3
3
3
3
3
3
3
3
3
3
3
3
3
3
3
3
3
3
3
3
3
3
3
3
3
3
3
3
3
3
3
3
3
3
3
3
3
3
3
3
3
3
3
3
3
3
3
3
3
3
3
3
3
3
3
0.522777
0.447101
0.357761
0.57846
1.2363
1.3917
0.633836
0.0121686
0.000380571
0.00310196
0.00303555
0.00201155
0.00103629
0.000421416
0.000239897
0.000184923
0.000135418
0.000236129
0.179291
1.10288
0.629662
0.580788
1.10001
1.25941
1.119
0.607065
0.321227
0.127349
0.0907694
0.1047
0.118503
0.120901
0.117186
0.0517253
0.000777007
0.000139652
0.00611598
0.127968
1.25307
1.16733
1.16424
1.00642
1.00621
1.2048
1.03304
0.931875
0.911937
0.78281
0.852954
0.877826
0.887299
0.888732
0.840925
0.696706
0.573299
0.509697
0.465478
1.09413
1.04284
1.00426
0.999636
0.999164
1.12906
1.25698
1.11621
1.00112
1.00029
1.00007
1.00001
1.00004
1.00033
1.00063
1.00062
1.00044
1.03817
1.12688
1.00002
0.999977
0.999955
1.00169
1.00325
1.00001
1.00001
1
1.00001
1.00002
1.00005
1
1
1.00029
1.00056
1.0005
1.00027
1.0063
1.04164
0.999999
1.00002
1.00003
1.00001
0.999999
1
1
1
1
1.00002
1.00001
1
1
1
1
1.00023
1.00275
1.00049
1.00103
1
0.999996
0.999992
0.999997
1
1
1
1
1
1
1
1
1
1
1
1.00003
1.01988
1.04341
1.0405
0.999999
0.999998
0.999998
0.999999
1
1
1
1
1
1
1
1
1
0.999998
0.999825
0.998811
0.998344
1.01484
1.02864
1.08823
1.13592
1.33838
1.52347
1.57433
1.59877
1.66763
1.69824
1.65748
1.64591
1.63802
1.61667
1.59023
1.57558
1.66189
1.80203
1.84367
1.85587
1.8983
2.76169
2.90865
2.96166
2.92679
2.91521
2.96175
2.99403
3
2.99961
2.99997
2.9998
2.99822
2.99242
2.99464
2.98299
2.97415
2.97351
2.97973
2.98724
3
3
3
3
3
3
3
2.99999
2.99997
2.99989
2.9997
2.99936
2.99891
2.99896
3
2.99997
3
3
3
3
3
3
3
3
3
2.99999
2.99986
2.99967
2.9998
2.9999
2.99991
2.99882
2.99821
2.99877
2.99973
3
3
3
3
3
3
3
3
3
2.99999
2.99936
2.99799
2.99819
2.99974
2.99996
2.99802
2.99687
2.99694
2.99956
3
3
3
3
3
3
3
3
3
3
2.99968
2.99799
2.99799
2.99884
2.99998
2.99992
2.99908
2.99982
2.99991
2.99999
3
3
3
3
3
3
3
3
3
3
2.99967
2.99908
2.99956
2.99999
3
3
3
3
3
3
3
3
3
3
3
3
3
3
3
3
3
3
3
3
3
3
3
3
3
3
3
3
3
3
3
3
3
3
3
3
3
3
3
3
3
3
3
3
3
3
3
3
3
3
3
3
3
3
3
3
3
3
3
3
3
3
3
3
3
3
3
3
3
3
3
3
3
3
3
3
3
3
3
3
3
3
3
3
3
3
3
3
3
3
3
3
3
3
3
3
3
3
3
3
3
3
3
3
3
3
3
3
3
3
3
3
3
3
3
3
3
3
3
3
3
3
3
3
3
3
3
3
3
3
3
3
3
3
3
3
3
3
3
3
3
3
3
3
3
3
3
3
3
3
3
3
3
3
3
3
3
3
3
3
3
3
3
3
3
3
3
3
3
3
3
3
3
3
3
3
3
3
3
3
3
3
3
3
3
3
3
3
3
3
3
3
3
3
3
3
3
3
3
3
3
3
3
3
3
3
3
3
3
3
3
3
3
3
3
3
3
3
3
3
3
3
3
3
3
3
3
3
3
3
3
3
3
3
3
3
3
3
3
3
3
3
3
3
3
3
3
3
3
3
3
3
3
3
3
3
3
3
3
3
3
3
3
3
3
3
3
3
3
3
3
3
3
3
3
3
3
3
3
3
3
3
3
3
3
3
3
3
3
3
3
3
3
3
3
3
3
3
3
3
3
3
3
3
3
3
3
3
3
3
3
3
3
3
3
3
3
3
3
3
3
3
3
3
3
3
3
3
3
3
3
3
3
3
3
3
3
3
3
3
3
3
3
3
3
3
3
3
3
3
3
3
3
3
3
3
3
3
3
3
3
3
3
3
3
3
3
3
3
3
3
3
3
3
3
3
3
3
3
3
3
3
3
3
3
3
3
3
3
3
3
3
3
3
3
3
3
3
3
3
3
3
3
3
3
3
3
3
3
3
3
3
3
3
3
3
3
3
3
3
3
3
3
3
3
3
3
3
3
3
3
3
3
3
3
3
3
3
3
3
3
3
3
3
3
3
3
3
3
3
3
3
3
3
3
3
3
3
3
3
3
3
3
3
3
3
3
3
3
3
3
3
3
3
3
3
3
3
3
3
3
3
3
3
3
3
3
3
3
3
3
3
3
3
3
3
3
3
3
3
3
3
3
3
3
3
3
3
3
3
3
3
3
3
3
3
3
3
3
3
)
;

boundaryField
{
    leftWall
    {
        type            calculated;
        value           nonuniform List<scalar> 
50
(
2
2
2
2
2
2
2
1.91112
0.257073
2.60041e-08
8.41796e-09
3.84418e-09
0.382142
0.917287
1.33101
2.52482
3
3
3
3
3
3
3
3
3
3
3
3
3
3
3
3
3
3
3
3
3
3
3
3
3
3
3
3
3
3
3
3
3
3
)
;
    }
    rightWall
    {
        type            calculated;
        value           nonuniform List<scalar> 
50
(
1.75813
1.74621
1.60898
1.52199
1.77129
1.80405
0.832207
0.508487
0.179291
0.127968
0.465478
1.12688
1.04164
1.00103
1.0405
1.02864
1.8983
2.98724
3
3
3
3
3
3
3
3
3
3
3
3
3
3
3
3
3
3
3
3
3
3
3
3
3
3
3
3
3
3
3
3
)
;
    }
    lowerWall
    {
        type            calculated;
        value           nonuniform List<scalar> 
62
(
2
2
2
2
2
2
2
2
2
2
2
2
2
2
2
2
2
2
2
1.99982
1.99953
1.99943
1.99943
1.99943
1.99982
2
2
1.99941
1.10928
0.00474548
0.00232106
0.0740869
0.156238
0.282823
0.373802
1.8608
1.46641
0.714497
0.493652
0.326764
0.240184
0.268265
0.284834
1.8608
1.86306
1.86184
1.85673
1.87061
1.92979
1.92263
1.75794
1.7239
1.7105
1.70508
1.71692
1.76472
1.76703
1.77716
1.67249
1.7172
1.76982
1.75813
)
;
    }
    atmosphere
    {
        type            calculated;
        value           nonuniform List<scalar> 
46
(
3
3
3
3
3
3
3
3
3
3
3
3
3
3
3
3
3
3
3
3
3
3
3
3
3
3
3
3
3
3
3
3
3
3
3
3
3
3
3
3
3
3
3
3
3
3
)
;
    }
    defaultFaces
    {
        type            empty;
    }
}


// ************************************************************************* //
