/*--------------------------------*- C++ -*----------------------------------*\
  =========                 |
  \\      /  F ield         | OpenFOAM: The Open Source CFD Toolbox
   \\    /   O peration     | Website:  https://openfoam.org
    \\  /    A nd           | Version:  13
     \\/     M anipulation  |
\*---------------------------------------------------------------------------*/
FoamFile
{
    format      ascii;
    class       volScalarField;
    location    "2";
    object      epsilon;
}
// * * * * * * * * * * * * * * * * * * * * * * * * * * * * * * * * * * * * * //

dimensions      [0 2 -3 0 0 0 0];

internalField   nonuniform List<scalar> 
2268
(
0.00517469
0.02467
0.044153
0.0638968
0.084096
0.104854
0.126108
0.14769
0.169568
0.191634
0.211977
0.230053
0.245441
0.257862
0.266989
0.272127
0.272022
0.264778
0.247508
0.215851
0.164042
0.0900264
0.0142021
0.0104944
0.0191543
0.0293254
0.0385941
0.0470903
0.0551391
0.0629926
0.0708164
0.0787543
0.0869147
0.0946322
0.101663
0.107831
0.112992
0.116975
0.119485
0.120044
0.117951
0.112196
0.101318
0.0834277
0.0572876
0.0293872
0.0187728
0.0202668
0.0275935
0.034476
0.0406605
0.046393
0.0519098
0.0573664
0.0628631
0.0684069
0.0737006
0.0785822
0.0829316
0.08665
0.0896288
0.0917026
0.0926136
0.0919936
0.0893331
0.083925
0.0748569
0.0615223
0.0540807
0.0269077
0.022132
0.0277143
0.033519
0.0388481
0.0437989
0.0485437
0.0532022
0.0578375
0.0624274
0.0668043
0.0708516
0.0744826
0.0776339
0.0802478
0.0822445
0.0834999
0.0838415
0.0830617
0.08094
0.0773136
0.0726087
0.0822887
0.0342654
0.0241116
0.0284055
0.0335956
0.0385555
0.043221
0.047692
0.0520483
0.0563234
0.0604879
0.0644315
0.0680679
0.0713394
0.0742172
0.0766923
0.0787577
0.0803918
0.0815712
0.0823279
0.0828823
0.0839592
0.0878881
0.116754
0.0405686
0.0260014
0.0293198
0.0341385
0.0389567
0.0435624
0.0479862
0.0522666
0.0564117
0.0603912
0.0641238
0.0675449
0.0706251
0.0733726
0.0758277
0.0780504
0.0801064
0.0820923
0.0842409
0.0871988
0.0928093
0.106982
0.164936
0.0456987
0.0277051
0.030327
0.0349323
0.0397285
0.0443881
0.0488816
0.0532073
0.0573473
0.0612713
0.0649149
0.0682302
0.0712176
0.0739253
0.076444
0.0788988
0.0814286
0.0842226
0.0876708
0.0927901
0.10265
0.1292
0.249776
0.0496905
0.0291882
0.0313791
0.0358749
0.0407046
0.0454641
0.0500817
0.0545171
0.0587236
0.062661
0.0662719
0.0695251
0.0724607
0.0751777
0.0778234
0.0805849
0.0836593
0.0872976
0.0919883
0.0989776
0.112217
0.150993
0.449588
0.016166
0.057943
0.109011
0.159895
0.197555
0.241669
0.278316
0.272939
0.269618
0.264806
0.256486
0.23717
0.211541
0.188591
0.160511
0.13101
0.10245
0.0728349
0.0218845
0.0290571
0.0477905
0.0676605
0.0826507
0.0941581
0.10871
0.120521
0.122304
0.120588
0.117893
0.114264
0.108079
0.099924
0.0907945
0.0807675
0.0712721
0.0629188
0.0529861
0.0317825
0.0535525
0.0596387
0.0729276
0.0800913
0.0852422
0.0933423
0.100025
0.101006
0.0982445
0.0951307
0.0916468
0.0870036
0.0813842
0.0751285
0.0686426
0.0626044
0.0576691
0.0526683
0.0504062
0.0779037
0.0751515
0.0836983
0.0864674
0.0885604
0.0939817
0.0983174
0.0980756
0.0938439
0.0901159
0.0862138
0.0815711
0.0764056
0.0709934
0.0656385
0.0607879
0.0571937
0.054973
0.0686018
0.102602
0.0926998
0.0949424
0.0941111
0.0945692
0.0986476
0.101372
0.0999566
0.0950984
0.0908952
0.0863914
0.0812772
0.0758617
0.0705065
0.0654666
0.0611199
0.0582126
0.057905
0.0878431
0.131386
0.113676
0.106754
0.101811
0.100541
0.103319
0.10467
0.102061
0.0980995
0.093981
0.0890124
0.0832975
0.077424
0.0717429
0.0666161
0.0624129
0.0599473
0.0613149
0.104802
0.197122
0.138013
0.119022
0.109472
0.106209
0.107477
0.10762
0.104214
0.100945
0.097231
0.0921078
0.0862029
0.0799524
0.0738672
0.0684504
0.0641401
0.0619725
0.0651361
0.119177
0.381212
0.157818
0.130002
0.116735
0.111572
0.111299
0.110184
0.106384
0.103377
0.100084
0.0950631
0.0890641
0.082659
0.0763282
0.0705948
0.0660424
0.0640513
0.068821
0.128267
0.053525
0.0313346
0.033165
0.0375582
0.0424265
0.04731
0.0520775
0.0566283
0.0608906
0.0648062
0.0683441
0.0715187
0.0744502
0.0773246
0.0803679
0.083833
0.0879736
0.0930873
0.0997233
0.109207
0.125151
0.158873
0.251476
0.0536195
0.0337817
0.0357447
0.0400487
0.0447751
0.049482
0.0540123
0.0582622
0.0622195
0.0659479
0.0695028
0.0729822
0.0765771
0.0805378
0.0851209
0.0905613
0.0970598
0.104859
0.114338
0.126377
0.142841
0.167238
0.203426
0.0557981
0.0385316
0.0400626
0.0436887
0.0476812
0.0517039
0.0556392
0.0594073
0.0630773
0.066788
0.0706732
0.074926
0.0798284
0.0857008
0.0927915
0.10117
0.110755
0.121431
0.133231
0.146205
0.1603
0.175241
0.188756
0.0628973
0.0456334
0.0460324
0.0486732
0.0517789
0.055013
0.0582819
0.061533
0.0649607
0.0687947
0.0732938
0.0787881
0.0856547
0.0942522
0.104723
0.116644
0.12896
0.141135
0.15268
0.162852
0.170798
0.176091
0.178382
0.0712136
0.054043
0.0533765
0.0550648
0.0572825
0.0597104
0.0623065
0.0651291
0.0684618
0.0726365
0.0780708
0.0852387
0.094544
0.10623
0.120022
0.134379
0.147432
0.158201
0.166302
0.171362
0.173657
0.173616
0.171585
0.0787933
0.0619936
0.0609943
0.0619848
0.0634653
0.0652332
0.0673898
0.0700098
0.0733927
0.0780366
0.0844172
0.0931014
0.104557
0.118781
0.134418
0.149687
0.162222
0.170358
0.174477
0.175656
0.17466
0.172026
0.168304
0.0823402
0.0676039
0.0671696
0.0680427
0.0693572
0.0710065
0.0730768
0.0756695
0.0791967
0.0843425
0.0916353
0.101675
0.114996
0.130942
0.147533
0.162685
0.173595
0.178856
0.179984
0.178768
0.175967
0.172063
0.167659
0.0938335
0.0746268
0.0734784
0.074151
0.0754595
0.0771448
0.0792355
0.081897
0.0856778
0.0914642
0.0998618
0.111382
0.126694
0.144361
0.162046
0.176816
0.184895
0.18631
0.184668
0.181768
0.177975
0.173601
0.169085
0.120594
0.0853206
0.0818713
0.0814137
0.0822779
0.0837118
0.0857387
0.0884703
0.0926293
0.0993281
0.109236
0.123081
0.14133
0.162284
0.183211
0.198362
0.199436
0.194492
0.190542
0.186474
0.1817
0.176957
0.172608
0.148797
0.0881435
0.0823002
0.0823974
0.084399
0.0867139
0.089037
0.0912894
0.0942026
0.099147
0.107404
0.120173
0.137882
0.158791
0.178335
0.191445
0.197839
0.199965
0.200047
0.194418
0.187335
0.182183
0.178227
0.175411
0.0914808
0.0824002
0.082129
0.083984
0.0861964
0.0883374
0.0904322
0.0930186
0.0971196
0.103668
0.113569
0.12732
0.143964
0.160842
0.174788
0.184708
0.193392
0.198535
0.196139
0.191622
0.188336
0.185484
0.192814
0.0946609
0.0822002
0.0806704
0.0819088
0.0838621
0.0859404
0.0881594
0.0908728
0.0947503
0.100491
0.108722
0.119718
0.13285
0.146405
0.158456
0.168734
0.177958
0.184727
0.187427
0.188183
0.188139
0.186243
0.203072
0.0967782
0.0822275
0.0794729
0.0799366
0.0814829
0.0834476
0.0857658
0.0886594
0.0925735
0.0979668
0.105186
0.114281
0.124755
0.135521
0.14535
0.154153
0.162275
0.168546
0.172064
0.174102
0.175453
0.175934
0.206624
0.0971026
0.0815918
0.0780627
0.0779443
0.0791405
0.080982
0.0833453
0.086362
0.0903272
0.0955335
0.102129
0.110011
0.118753
0.127593
0.135687
0.142791
0.149146
0.154261
0.157518
0.159564
0.160981
0.162092
0.203799
0.0956367
0.0800464
0.0761962
0.075748
0.0767041
0.0784412
0.0807946
0.083834
0.087752
0.0927334
0.0988151
0.105842
0.113462
0.121107
0.12812
0.134093
0.139145
0.14313
0.145758
0.147309
0.148331
0.149202
0.196263
0.0927604
0.0776852
0.0738333
0.0732556
0.0740922
0.0757494
0.0780465
0.0810097
0.0847591
0.089405
0.0949534
0.10126
0.10804
0.114869
0.121215
0.126605
0.130978
0.134283
0.13641
0.137532
0.138075
0.138418
0.185904
0.088925
0.0746974
0.0710289
0.0704683
0.071273
0.07287
0.0750794
0.0778955
0.0813891
0.0856288
0.0906119
0.0962317
0.102272
0.108417
0.114245
0.119288
0.123367
0.126407
0.128364
0.129345
0.129661
0.129674
0.174764
0.084524
0.0712891
0.067922
0.0674588
0.0682679
0.069814
0.0719172
0.0745495
0.0777472
0.0815527
0.0859658
0.0909147
0.096246
0.101733
0.107053
0.111791
0.115716
0.11871
0.120728
0.121831
0.122228
0.12225
0.164518
0.0801236
0.067752
0.0646591
0.0642966
0.065121
0.0666208
0.0686136
0.0710532
0.0739518
0.0773342
0.0812024
0.0855122
0.0901619
0.0949947
0.0997765
0.104167
0.107933
0.110933
0.113103
0.114461
0.115137
0.115413
0.154243
0.0756747
0.0641346
0.0613008
0.0610358
0.061879
0.0633379
0.0652269
0.0674855
0.0701077
0.0731049
0.0764794
0.080206
0.084221
0.0884222
0.0926464
0.0966331
0.100177
0.103138
0.105436
0.107055
0.108065
0.108686
0.143725
0.0711367
0.0604536
0.0578818
0.0577155
0.0585813
0.0600072
0.0618064
0.0639074
0.0662905
0.0689563
0.0719052
0.0751234
0.0785733
0.0821926
0.0858709
0.0894201
0.0926773
0.0955171
0.0978578
0.0996595
0.100947
0.101883
0.13297
0.0665016
0.0567183
0.0544233
0.0543625
0.0552577
0.0566612
0.0583882
0.0603603
0.0625475
0.0649415
0.0675396
0.0703337
0.0733029
0.0764119
0.0795869
0.0826987
0.0856277
0.0882718
0.0905557
0.0924291
0.0938861
0.0950395
0.122019
0.0617731
0.0529371
0.0509406
0.050997
0.0519312
0.0533246
0.0549984
0.0568708
0.0589049
0.0610854
0.063406
0.0658607
0.0684381
0.0711204
0.0738559
0.0765608
0.0791528
0.0815541
0.0837011
0.0855422
0.0870547
0.0883128
0.110935
0.0569696
0.0491268
0.0474527
0.0476403
0.0486246
0.0500208
0.0516597
0.0534594
0.055379
0.0573983
0.0595076
0.0617009
0.0639723
0.0663115
0.0686811
0.0710307
0.0733059
0.0754503
0.0774132
0.0791483
0.0806259
0.0818935
0.0998393
0.0521394
0.0453228
0.0439909
0.0443226
0.0453677
0.0467787
0.0483989
0.0501491
0.0519867
0.0538886
0.0558425
0.0578418
0.0598831
0.061954
0.0640326
0.0660888
0.0680869
0.0699877
0.0717529
0.0733436
0.0747303
0.075942
0.0889612
0.0473855
0.0415915
0.040607
0.0410895
0.0422034
0.0436389
0.0452535
0.0469725
0.0487537
0.0505727
0.0524157
0.0542758
0.0561446
0.0580137
0.0598697
0.0616943
0.0634643
0.0651527
0.0667314
0.0681697
0.0694414
0.0705642
0.0789896
0.0429261
0.0380403
0.0373775
0.0380067
0.039192
0.0406582
0.0422762
0.0439771
0.0457204
0.0474814
0.0492453
0.0510022
0.0527446
0.0544658
0.0561566
0.0578052
0.0593961
0.0609106
0.0623287
0.0636265
0.0647827
0.0658072
0.0704828
0.0389198
0.0347826
0.0343986
0.0351612
0.0364144
0.0379115
0.0395362
0.0412249
0.0429396
0.0446564
0.0463602
0.0480406
0.0496905
0.0513036
0.0528731
0.0543905
0.0558451
0.0572237
0.0585116
0.0596909
0.0607443
0.0616774
0.0632972
0.0354128
0.0319081
0.0317677
0.0326497
0.0339636
0.0354874
0.0371158
0.0387911
0.0404787
0.0421565
0.04381
0.0454294
0.0470076
0.0485388
0.0500173
0.0514366
0.0527885
0.0540632
0.0552497
0.056334
0.0573027
0.0581579
0.0576701
0.032551
0.029547
0.0296052
0.0305844
0.0319445
0.0334831
0.035105
0.0367586
0.0384131
0.0400489
0.0416531
0.0432167
0.0447332
0.0461972
0.0476035
0.0489465
0.0502197
0.051415
0.0525234
0.053534
0.0544357
0.0552286
0.0538836
0.0305194
0.0278498
0.0280436
0.0290843
0.0304645
0.0319961
0.0335924
0.0352077
0.0368154
0.0383989
0.0399471
0.0414524
0.0429088
0.0443114
0.0456555
0.0469356
0.0481459
0.0492792
0.0503276
0.0512816
0.0521318
0.0528768
0.0521385
0.0294898
0.0269621
0.0272096
0.0282605
0.0296211
0.0311121
0.0326537
0.0342056
0.0357455
0.0372598
0.0387396
0.0401783
0.0415708
0.0429125
0.0441986
0.0454239
0.0465822
0.0476664
0.0486689
0.0495808
0.0503933
0.0511036
0.0525279
0.0295985
0.0270086
0.0272124
0.0282056
0.0294915
0.0308948
0.0323415
0.0337964
0.035241
0.0366644
0.0380592
0.03942
0.0407421
0.0420208
0.0432512
0.0444276
0.0455434
0.0465906
0.0475609
0.0484451
0.0492342
0.0499242
0.0550747
0.0309535
0.0280959
0.0281418
0.0289894
0.0301262
0.031379
0.0326787
0.0339944
0.0353105
0.0366176
0.0379092
0.0391798
0.0404246
0.0416388
0.0428168
0.0439522
0.0450369
0.0460619
0.047017
0.0478919
0.0486765
0.0493654
0.0598048
0.0336702
0.0303313
0.030078
0.0306609
0.0315474
0.0325662
0.0336528
0.0347787
0.0359286
0.0370923
0.0382621
0.0394313
0.0405943
0.0417452
0.0428778
0.0439843
0.0450551
0.0460786
0.0470427
0.0479347
0.0487433
0.0494608
0.066828
0.0379217
0.0338573
0.0331082
0.0332537
0.0337467
0.0344204
0.0352117
0.036089
0.0370321
0.0380254
0.0390568
0.0401166
0.0411967
0.0422902
0.0433896
0.0444855
0.0455664
0.0466181
0.0476254
0.0485739
0.0494504
0.0502452
0.0764415
0.0440386
0.0389193
0.0373591
0.0367938
0.0366828
0.0368621
0.0372577
0.0378216
0.0385173
0.0393163
0.040197
0.0411437
0.0421448
0.0431915
0.0442749
0.0453847
0.0465069
0.047625
0.0487215
0.0497812
0.0507923
0.0517444
0.0895056
0.0528229
0.0460399
0.0430588
0.0413078
0.0402727
0.0397591
0.0396424
0.0398269
0.0402398
0.0408274
0.0415519
0.0423876
0.0433181
0.0443322
0.0454203
0.0465711
0.0477695
0.0489973
0.0502375
0.0514798
0.0527223
0.0539622
0.109094
0.0666218
0.0564269
0.0506212
0.0468084
0.044365
0.0429097
0.0421596
0.04191
0.0420188
0.0423902
0.042962
0.0436953
0.0445672
0.045564
0.0466759
0.0478918
0.0491967
0.0505734
0.0520112
0.0535171
0.055122
0.0568609
0.149342
0.0926905
0.072624
0.0605837
0.0531635
0.0486635
0.0460126
0.0445414
0.0438373
0.0436471
0.0438163
0.0442513
0.0448974
0.0457243
0.0467163
0.0478639
0.0491571
0.0505827
0.0521285
0.0537984
0.0556387
0.057763
0.0603362
0.298794
0.151345
0.098211
0.072783
0.0596818
0.0525778
0.0486313
0.0464618
0.045352
0.0449106
0.0449169
0.0452455
0.0458262
0.0466221
0.0476158
0.0487982
0.0501612
0.0516945
0.0533934
0.0552844
0.0574783
0.0602525
0.0641387
1.2837
0.256491
0.129243
0.0836458
0.0644313
0.0551035
0.0502042
0.047569
0.0462059
0.0456143
0.0455262
0.0457943
0.0463384
0.0471175
0.0481131
0.0493164
0.0507207
0.0523177
0.0541089
0.056141
0.0585897
0.0619456
0.0674659
0.567544
0.484269
0.508931
0.638358
0.240153
0.245925
0.245289
0.23536
0.194475
0.194657
0.191676
0.185507
0.177102
0.175418
0.172852
0.169331
0.168624
0.166525
0.164191
0.161544
0.164823
0.162572
0.160256
0.157821
0.163995
0.161682
0.159358
0.156985
0.165515
0.163292
0.161078
0.158819
0.169393
0.167398
0.165402
0.163344
0.175548
0.173876
0.172209
0.170517
0.183626
0.18221
0.180744
0.179536
0.185687
0.185911
0.186243
0.185961
0.176625
0.177498
0.17841
0.178746
0.16328
0.164275
0.165216
0.16575
0.150058
0.150691
0.151253
0.151598
0.138699
0.138883
0.139028
0.139078
0.129577
0.12946
0.129315
0.129122
0.122065
0.12185
0.121593
0.121289
0.115356
0.115194
0.114969
0.114683
0.108853
0.108821
0.10871
0.108525
0.102276
0.10239
0.102417
0.102362
0.0956073
0.0958439
0.0959934
0.096062
0.0889865
0.0893057
0.089544
0.0897074
0.0826074
0.0829691
0.0832598
0.0834833
0.0766482
0.0770208
0.077332
0.0775849
0.0712332
0.0715958
0.0719062
0.0721658
0.0664269
0.0667692
0.0670662
0.0673192
0.0622465
0.0625654
0.0628447
0.0630848
0.0586823
0.0589793
0.0592408
0.0594669
0.055716
0.0559947
0.0562409
0.0564543
0.0533357
0.0536001
0.0538341
0.0540376
0.0515422
0.0517968
0.0520228
0.0522198
0.050352
0.0506024
0.0508253
0.0510207
0.0497959
0.0500501
0.050278
0.0504789
0.0499161
0.0501878
0.0504334
0.0506518
0.0507623
0.0510751
0.0513612
0.0516184
0.0523886
0.0527846
0.0531515
0.0534852
0.0548503
0.0554059
0.0559269
0.0564031
0.0582118
0.0590714
0.05988
0.0606118
0.0625906
0.064053
0.0654
0.066566
0.0682751
0.0711209
0.0734783
0.0752708
0.0754655
0.0831166
0.086959
0.0889838
0.234926
0.165854
0.142224
0.126558
0.119203
0.116744
0.113673
0.109358
0.106566
0.103775
0.0991958
0.0932956
0.0867383
0.0801559
0.0740576
0.0691199
0.0673556
0.0740802
0.137023
0.192387
0.165102
0.14837
0.135466
0.127916
0.123603
0.118422
0.113221
0.11018
0.107448
0.103358
0.0979545
0.0916294
0.0849291
0.0784325
0.0729976
0.070968
0.0776968
0.134504
0.173099
0.160115
0.149465
0.140099
0.133494
0.128545
0.122655
0.117008
0.113369
0.110287
0.106478
0.10157
0.0956527
0.0891678
0.0826179
0.0769984
0.0748143
0.0810092
0.126692
0.163341
0.155258
0.147679
0.140827
0.135413
0.13077
0.125406
0.11988
0.115611
0.112035
0.108251
0.103784
0.098534
0.0927656
0.0868421
0.0816888
0.079509
0.0837176
0.116688
0.157352
0.151182
0.14521
0.139861
0.1353
0.130991
0.126231
0.121264
0.116904
0.113075
0.109323
0.105301
0.100892
0.0962317
0.0916085
0.0877068
0.0855871
0.0869215
0.107093
0.154141
0.148787
0.143682
0.139114
0.135036
0.131061
0.12684
0.122518
0.118472
0.114768
0.111252
0.107743
0.104178
0.100622
0.0972462
0.0943744
0.0920608
0.0897736
0.0987229
0.153483
0.148553
0.143964
0.139872
0.136129
0.132468
0.128722
0.124958
0.12134
0.11793
0.114702
0.111614
0.108649
0.105773
0.102937
0.100035
0.0965663
0.0913901
0.0917746
0.155482
0.150876
0.146633
0.14281
0.139267
0.135834
0.132446
0.129117
0.125877
0.122716
0.119622
0.116628
0.113783
0.110971
0.107837
0.10391
0.0983752
0.0905664
0.0883319
0.160277
0.155953
0.151847
0.148049
0.144539
0.14123
0.138046
0.134972
0.132012
0.129038
0.125905
0.12269
0.119628
0.116681
0.113388
0.108964
0.102585
0.0944637
0.0985191
0.167866
0.163674
0.159381
0.155287
0.151624
0.148271
0.145054
0.141963
0.139169
0.13642
0.133186
0.129537
0.126329
0.123766
0.121219
0.117698
0.113059
0.107416
0.124129
0.177516
0.173255
0.168268
0.16342
0.159389
0.155809
0.15212
0.148709
0.146062
0.143819
0.14054
0.135854
0.13182
0.130443
0.129673
0.12784
0.125357
0.123436
0.163844
0.184188
0.17978
0.174105
0.16848
0.164191
0.160435
0.15638
0.152303
0.149688
0.14829
0.145451
0.139797
0.132993
0.128993
0.126754
0.1229
0.120094
0.122892
0.196426
0.178106
0.174602
0.170104
0.16579
0.162181
0.158651
0.154531
0.150148
0.14703
0.145231
0.142288
0.135795
0.127729
0.121131
0.116213
0.111661
0.108993
0.11734
0.214463
0.165579
0.163452
0.160614
0.157589
0.154656
0.151517
0.147668
0.143222
0.139583
0.137093
0.133631
0.127196
0.119285
0.112617
0.107482
0.103328
0.102349
0.114764
0.22445
0.151523
0.15016
0.148211
0.146051
0.143706
0.140952
0.137522
0.133675
0.13041
0.127706
0.124047
0.118215
0.111442
0.105619
0.100889
0.0972695
0.0973096
0.11194
0.230304
0.138802
0.137674
0.136104
0.134272
0.132203
0.129805
0.126994
0.123998
0.121309
0.118678
0.115105
0.11011
0.10462
0.0997762
0.0956866
0.0926515
0.0934041
0.10914
0.234784
0.1286
0.127446
0.125964
0.124248
0.122356
0.120262
0.117969
0.115595
0.113284
0.110754
0.107424
0.103232
0.0988283
0.0948102
0.0912769
0.0887375
0.0898996
0.105797
0.234269
0.12065
0.119463
0.118003
0.116358
0.114598
0.11273
0.11077
0.108743
0.106624
0.10418
0.101147
0.0975985
0.0939402
0.0904691
0.0872989
0.0850334
0.0862083
0.101359
0.227225
0.114096
0.112995
0.111617
0.110079
0.108446
0.106744
0.104977
0.103122
0.101097
0.0987462
0.095965
0.09285
0.0896308
0.0864567
0.0834492
0.0812118
0.0820551
0.0957577
0.214488
0.108112
0.107219
0.106016
0.104643
0.103161
0.101602
0.0999619
0.0982003
0.096238
0.0939781
0.0913835
0.0885286
0.0855362
0.0824829
0.0794909
0.0771232
0.07744
0.0893254
0.198108
0.102173
0.101558
0.100593
0.0994305
0.0981271
0.0967145
0.0951852
0.0935012
0.091601
0.0894263
0.0869642
0.0842603
0.0813759
0.0783546
0.0753164
0.0727725
0.0725458
0.0826061
0.180419
0.0960865
0.0957518
0.095043
0.0941064
0.0929943
0.0917353
0.0903217
0.0887231
0.0868964
0.0848064
0.082447
0.0798423
0.077022
0.0740189
0.070953
0.068291
0.0676561
0.0761762
0.163541
0.0898994
0.0898024
0.0893261
0.0885994
0.0876735
0.0865672
0.0852741
0.0837715
0.0820309
0.0800306
0.0777672
0.0752526
0.072505
0.0695582
0.0665383
0.0638829
0.0630624
0.0705003
0.148966
0.0837846
0.0838611
0.0835703
0.0830193
0.0822571
0.0812912
0.0801159
0.0787151
0.0770703
0.0751691
0.0730103
0.0706027
0.067964
0.0651373
0.06226
0.059756
0.0589897
0.0658381
0.137377
0.0779429
0.0781274
0.0779689
0.0775541
0.0769237
0.0760782
0.0750116
0.0737126
0.07217
0.0703781
0.0683395
0.0660655
0.0635799
0.0609389
0.058294
0.0560669
0.0555521
0.0622263
0.12874
0.0725408
0.0727805
0.0727063
0.0723905
0.071861
0.071114
0.0701437
0.0689426
0.067505
0.0658309
0.0639275
0.0618117
0.0595162
0.0571106
0.054761
0.0528916
0.0527519
0.05953
0.122544
0.0676871
0.0679456
0.0679207
0.0676741
0.0672192
0.0665511
0.0656647
0.0645555
0.0632225
0.0616702
0.0599113
0.0579686
0.055884
0.0537391
0.0517118
0.0502294
0.0505087
0.0575261
0.118118
0.0634341
0.0636911
0.0636937
0.0634948
0.0630953
0.0624907
0.0616772
0.060653
0.0594206
0.0579887
0.0563746
0.0546069
0.0527349
0.0508497
0.0491372
0.0480253
0.0487032
0.0559828
0.114811
0.0597947
0.0600418
0.0600631
0.0598961
0.0595387
0.0589864
0.0582365
0.0572894
0.0561504
0.0548315
0.0533535
0.0517497
0.0500748
0.0484259
0.0469934
0.0462027
0.0472166
0.0547103
0.112129
0.0567629
0.0570001
0.0570348
0.0568918
0.0565683
0.0560603
0.055366
0.0544876
0.0534321
0.0522137
0.0508557
0.0493942
0.0478874
0.0464356
0.0452304
0.0446919
0.0459573
0.0535805
0.10973
0.0543312
0.0545623
0.0546089
0.0544865
0.0541924
0.0537232
0.0530779
0.0522594
0.0512759
0.0501426
0.0488837
0.0475369
0.0461613
0.0448582
0.0438178
0.0434533
0.0448765
0.0525307
0.107452
0.0525048
0.0527356
0.0527943
0.0526917
0.0524252
0.0519917
0.0513902
0.050624
0.0497013
0.0486373
0.0474561
0.0461948
0.0449119
0.0437069
0.0427664
0.0424947
0.0439795
0.0515631
0.105268
0.0513043
0.0515425
0.0516173
0.051537
0.0512992
0.0509007
0.0503405
0.0496215
0.0487514
0.0477443
0.046623
0.0454225
0.0441988
0.0430471
0.0421474
0.0418919
0.0433439
0.0507602
0.103355
0.0507727
0.0510294
0.0511286
0.0510767
0.050872
0.0505114
0.049994
0.0493218
0.0485015
0.0475457
0.0464751
0.0453218
0.0441374
0.0430109
0.0421117
0.041815
0.0431552
0.0503256
0.102106
0.0509745
0.0512697
0.0514077
0.0513951
0.0512319
0.0509166
0.0504483
0.0498285
0.049063
0.0481631
0.0471471
0.0460445
0.0449032
0.0438052
0.0429078
0.0425629
0.0437673
0.0506784
0.102351
0.0520026
0.0523697
0.0525692
0.0526118
0.0525028
0.052244
0.0518361
0.051281
0.0505843
0.0497563
0.0488148
0.0477888
0.046726
0.0457077
0.0448855
0.0445919
0.0457823
0.052613
0.105538
0.0539878
0.0544794
0.0547721
0.0548896
0.0548494
0.0546607
0.0543281
0.0538554
0.0532488
0.0525195
0.0516872
0.0507852
0.0498703
0.0490397
0.0484674
0.0485067
0.0501149
0.0575345
0.114252
0.0571193
0.0578108
0.0582335
0.058444
0.0584843
0.0583775
0.0581351
0.0577639
0.0572722
0.0566739
0.0559932
0.0552744
0.0545969
0.0541046
0.0540577
0.054953
0.0579577
0.0677307
0.132994
0.0616903
0.0626689
0.0632472
0.0635542
0.0636749
0.0636532
0.0635092
0.063254
0.0628983
0.0624588
0.0619663
0.0614796
0.0611133
0.0610925
0.061861
0.0643163
0.0704569
0.0866922
0.170921
0.068191
0.0694954
0.0702017
0.0705718
0.0707487
0.0707976
0.0707463
0.0706085
0.0703957
0.0701262
0.069834
0.0695886
0.0695349
0.0699861
0.0716396
0.0761254
0.0876011
0.119066
0.252846
0.0774651
0.0789042
0.0795842
0.0799214
0.0800949
0.0801749
0.0801883
0.0801465
0.0800593
0.0799416
0.0798228
0.0797646
0.0799049
0.08057
0.0825892
0.0882928
0.105336
0.166421
0.479107
0.0907952
0.0916308
0.0919504
0.0920957
0.0921731
0.0922166
0.0922374
0.0922399
0.0922282
0.0922088
0.0921944
0.0922126
0.0923266
0.0926985
0.0938005
0.0972962
0.110883
0.193135
1.45929
)
;

boundaryField
{
    leftWall
    {
        type            epsilonWallFunction;
        value           nonuniform List<scalar> 
50
(
0.00517469
0.0104944
0.0187728
0.0269077
0.0342654
0.0405686
0.0456987
0.0496905
0.053525
0.0536195
0.0557981
0.0628973
0.0712136
0.0787933
0.0823402
0.0938335
0.120594
0.148797
0.175411
0.192814
0.203072
0.206624
0.203799
0.196263
0.185904
0.174764
0.164518
0.154243
0.143725
0.13297
0.122019
0.110935
0.0998393
0.0889612
0.0789896
0.0704828
0.0632972
0.0576701
0.0538836
0.0521385
0.0525279
0.0550747
0.0598048
0.066828
0.0764415
0.0895056
0.109094
0.149342
0.298794
1.2837
)
;
    }
    rightWall
    {
        type            epsilonWallFunction;
        value           nonuniform List<scalar> 
50
(
0.0218845
0.0317825
0.0504062
0.0686018
0.0878431
0.104802
0.119177
0.128267
0.137023
0.134504
0.126692
0.116688
0.107093
0.0987229
0.0917746
0.0883319
0.0985191
0.124129
0.163844
0.196426
0.214463
0.22445
0.230304
0.234784
0.234269
0.227225
0.214488
0.198108
0.180419
0.163541
0.148966
0.137377
0.12874
0.122544
0.118118
0.114811
0.112129
0.10973
0.107452
0.105268
0.103355
0.102106
0.102351
0.105538
0.114252
0.132994
0.170921
0.252846
0.479107
1.45929
)
;
    }
    lowerWall
    {
        type            epsilonWallFunction;
        value           nonuniform List<scalar> 
62
(
0.00517469
0.02467
0.044153
0.0638968
0.084096
0.104854
0.126108
0.14769
0.169568
0.191634
0.211977
0.230053
0.245441
0.257862
0.266989
0.272127
0.272022
0.264778
0.247508
0.215851
0.164042
0.0900264
0.0142021
0.0142021
0.0293872
0.0540807
0.0822887
0.116754
0.164936
0.249776
0.449588
0.567544
0.484269
0.508931
0.638358
0.016166
0.0290571
0.0535525
0.0779037
0.102602
0.131386
0.197122
0.381212
0.016166
0.057943
0.109011
0.159895
0.197555
0.241669
0.278316
0.272939
0.269618
0.264806
0.256486
0.23717
0.211541
0.188591
0.160511
0.13101
0.10245
0.0728349
0.0218845
)
;
    }
    atmosphere
    {
        type            inletOutlet;
        inletValue      uniform 0.1;
        value           nonuniform List<scalar> 
46
(
0.1
0.1
0.129243
0.0836458
0.0644313
0.0551035
0.0502042
0.047569
0.0462059
0.0456143
0.0455262
0.0457943
0.0463384
0.0471175
0.0481131
0.0493164
0.0507207
0.0523177
0.0541089
0.056141
0.0585897
0.0619456
0.0674659
0.0754655
0.1
0.1
0.1
0.1
0.1
0.1
0.1
0.1
0.1
0.1
0.1
0.1
0.1
0.1
0.1
0.1
0.1
0.1
0.1
0.1
0.1
0.1
)
;
    }
    defaultFaces
    {
        type            empty;
    }
}


// ************************************************************************* //
