/*--------------------------------*- C++ -*----------------------------------*\
  =========                 |
  \\      /  F ield         | OpenFOAM: The Open Source CFD Toolbox
   \\    /   O peration     | Website:  https://openfoam.org
    \\  /    A nd           | Version:  13
     \\/     M anipulation  |
\*---------------------------------------------------------------------------*/
FoamFile
{
    format      ascii;
    class       volScalarField;
    location    "2";
    object      k;
}
// * * * * * * * * * * * * * * * * * * * * * * * * * * * * * * * * * * * * * //

dimensions      [0 2 -2 0 0 0 0];

internalField   nonuniform List<scalar> 
2268
(
0.00113212
0.0032175
0.00474352
0.00607156
0.00729928
0.00846591
0.00958465
0.0106571
0.0116877
0.0126784
0.0135562
0.014311
0.0149363
0.0154293
0.0157837
0.0159775
0.015966
0.0156754
0.0149827
0.0136763
0.0113932
0.00765055
0.00223641
0.00300524
0.0076592
0.0107645
0.0134727
0.0159786
0.0183666
0.0206667
0.0228781
0.0249831
0.0269262
0.0286845
0.0302333
0.0315521
0.0326235
0.0334228
0.0338997
0.0339613
0.0334528
0.0321212
0.029552
0.0251003
0.0178417
0.00596883
0.0044352
0.0104933
0.0143775
0.0177259
0.0208031
0.0237136
0.0265001
0.0291677
0.0316982
0.034047
0.0361829
0.0380755
0.039699
0.0410308
0.0420401
0.0426674
0.0428046
0.0422694
0.0407654
0.0378093
0.0326312
0.0240088
0.00895605
0.00563578
0.012682
0.0170685
0.0208392
0.0243057
0.0275747
0.0306919
0.0336653
0.0364771
0.0390913
0.0414738
0.0435927
0.0454213
0.046937
0.0481084
0.0488758
0.0491276
0.0486736
0.0472045
0.044212
0.0388381
0.0294866
0.0118419
0.00661421
0.0144606
0.0192406
0.0233486
0.0271375
0.0307088
0.0341061
0.0373363
0.0403813
0.0432115
0.0457931
0.0480949
0.0500934
0.0517699
0.0530974
0.054021
0.0544323
0.0541435
0.052849
0.0500415
0.044806
0.0351315
0.0149497
0.00739336
0.0159124
0.0210422
0.0254511
0.029532
0.0333811
0.037038
0.040506
0.0437662
0.0467939
0.0495561
0.0520243
0.0541815
0.0560165
0.0575106
0.0586174
0.0592356
0.0591856
0.0581754
0.0557239
0.0509188
0.0414214
0.0188081
0.00799664
0.0170842
0.0225512
0.0272453
0.0316
0.035711
0.0396157
0.0433128
0.0467812
0.05
0.0529371
0.0555682
0.0578858
0.0598897
0.0615718
0.0628969
0.063772
0.0640266
0.063389
0.0614266
0.057318
0.0487323
0.0247727
0.00845539
0.0180203
0.023824
0.028792
0.0334011
0.0377556
0.0418951
0.0458134
0.0494864
0.0528921
0.0559973
0.0587844
0.0612613
0.0634443
0.0653399
0.0669245
0.0681114
0.0687363
0.0685474
0.0671691
0.0639426
0.0570568
0.0366341
0.00241126
0.00573978
0.00884097
0.0114996
0.0132369
0.0150463
0.0164872
0.0162148
0.0160367
0.0158066
0.0154312
0.0146308
0.013543
0.0125305
0.0112826
0.00984664
0.0083264
0.00660282
0.00300958
0.00632747
0.0145574
0.0215731
0.0266651
0.0298493
0.0329709
0.0353352
0.0354716
0.0346777
0.0336925
0.0325256
0.0310079
0.0289979
0.0268508
0.024329
0.0214481
0.0182459
0.0145756
0.00676297
0.00953341
0.0212675
0.0303627
0.0361764
0.0397104
0.0431827
0.0457217
0.0459058
0.0445797
0.0430899
0.0414137
0.0394286
0.0369866
0.0342603
0.0311769
0.0277501
0.0239372
0.0193296
0.00914787
0.0122713
0.0277448
0.0382229
0.0442889
0.0479348
0.0514904
0.0539562
0.0539949
0.0520878
0.0501893
0.0480758
0.0456218
0.0427715
0.0396093
0.0361191
0.0323254
0.0280853
0.0227605
0.0111757
0.0147157
0.0341476
0.0455394
0.0515802
0.0552828
0.0588388
0.0610611
0.0608196
0.0586084
0.0563893
0.0538537
0.0509059
0.0476042
0.0440162
0.0401511
0.0360465
0.0314252
0.0254401
0.0131217
0.017265
0.0409588
0.0527638
0.0583676
0.0618222
0.0651224
0.0669576
0.0662961
0.0643043
0.0619695
0.059083
0.055668
0.0519043
0.0478719
0.043626
0.0391965
0.0342255
0.0276912
0.014738
0.0225533
0.0485491
0.0601604
0.064877
0.0677892
0.0705923
0.0719467
0.0709027
0.0690678
0.066741
0.0636196
0.0599135
0.0557573
0.0513032
0.0466666
0.0418703
0.0365733
0.0297092
0.0160782
0.0351675
0.0577627
0.0675795
0.0711368
0.0733342
0.0754941
0.0762497
0.0749014
0.0730595
0.0707506
0.0674922
0.0635438
0.0590994
0.0543095
0.0493014
0.0441201
0.0385095
0.0313947
0.0169109
0.0088854
0.0192305
0.0255464
0.0309151
0.0358736
0.040557
0.0450077
0.0492111
0.0531468
0.0567793
0.0600974
0.0631053
0.0658447
0.0683619
0.0706804
0.0727821
0.0745781
0.075902
0.0765248
0.0761538
0.0743714
0.0703484
0.0614813
0.00898428
0.0201356
0.0270854
0.0329418
0.0382605
0.0432171
0.0478718
0.0522258
0.056299
0.0601337
0.0637727
0.0672656
0.0706806
0.0740724
0.077442
0.080719
0.0837544
0.0863482
0.0882653
0.0892729
0.0891408
0.0876647
0.0845887
0.00914412
0.0210951
0.0286587
0.0347946
0.0402202
0.045218
0.0499031
0.0543153
0.0585333
0.0626647
0.0668004
0.0710368
0.0754688
0.0801435
0.0849997
0.089831
0.0943268
0.0981815
0.101146
0.102957
0.103354
0.102289
0.0999576
0.00984807
0.022416
0.0304118
0.036751
0.0422532
0.0472705
0.0519722
0.0564422
0.0608554
0.0653833
0.0701892
0.0754294
0.0812066
0.087518
0.0941702
0.100667
0.106306
0.110725
0.113665
0.11487
0.114241
0.112151
0.109425
0.010661
0.023947
0.0324696
0.0390706
0.0446952
0.0497626
0.0545076
0.0591028
0.0638013
0.0688487
0.0744917
0.0809297
0.0882149
0.0962046
0.104431
0.111925
0.117762
0.121563
0.12331
0.123091
0.121375
0.118813
0.116121
0.0114082
0.0257007
0.0346524
0.0415981
0.0474567
0.0526769
0.0575849
0.0624082
0.0674397
0.0730345
0.0794609
0.0869273
0.0954582
0.104719
0.113725
0.121521
0.127084
0.129867
0.130282
0.12906
0.126834
0.124164
0.12159
0.0117901
0.0266704
0.036493
0.044076
0.0504111
0.0559894
0.0611703
0.0662405
0.0715827
0.0776622
0.0847609
0.0930615
0.10257
0.11259
0.121931
0.129589
0.134452
0.136178
0.13568
0.133946
0.131537
0.128884
0.126405
0.0129258
0.0279768
0.0390113
0.047307
0.0540988
0.0599757
0.0653569
0.0706135
0.0762192
0.0827433
0.0904872
0.0995503
0.109954
0.120625
0.130297
0.137648
0.141274
0.14156
0.14024
0.1382
0.135768
0.133242
0.130892
0.0153405
0.0315571
0.0436452
0.0521364
0.0589756
0.0648161
0.0701833
0.07548
0.0812696
0.0882274
0.096666
0.106747
0.118318
0.130211
0.140985
0.148176
0.148794
0.146727
0.144821
0.142611
0.140043
0.137578
0.135397
0.0177158
0.0363296
0.047378
0.0558371
0.0628755
0.0688315
0.0740897
0.0789407
0.0839137
0.0897906
0.0972119
0.106595
0.117809
0.129638
0.139783
0.146236
0.14937
0.150508
0.150517
0.147815
0.144502
0.142065
0.140134
0.019739
0.0395508
0.0504726
0.0586842
0.0654524
0.0711553
0.0761144
0.080639
0.0851739
0.0903361
0.0966116
0.104341
0.113529
0.123418
0.132589
0.139735
0.144695
0.148872
0.151141
0.149965
0.147933
0.146458
0.145055
0.0209956
0.0418284
0.0524225
0.060233
0.0666546
0.0721153
0.0768987
0.0813018
0.0856898
0.0905078
0.0961399
0.102835
0.110559
0.118782
0.126548
0.133051
0.138394
0.142975
0.14613
0.147338
0.147719
0.147739
0.146804
0.021738
0.0432778
0.0537273
0.0611768
0.0672554
0.0724755
0.0771248
0.0814729
0.0858238
0.0905102
0.095804
0.101841
0.108525
0.115449
0.121978
0.127581
0.132382
0.136596
0.139681
0.141385
0.142437
0.143164
0.14338
0.021991
0.0438818
0.054275
0.0614883
0.0673153
0.0723472
0.0768922
0.0812054
0.0855437
0.0901647
0.0952606
0.100885
0.106899
0.112971
0.118639
0.123515
0.127598
0.131081
0.133754
0.135436
0.136543
0.137342
0.137919
0.02179
0.043767
0.0541148
0.0611891
0.066853
0.0717487
0.0762108
0.0804826
0.0847853
0.0893234
0.094238
0.0995383
0.105085
0.110613
0.115768
0.120221
0.123846
0.126785
0.129012
0.130461
0.131352
0.131971
0.132463
0.0212505
0.0430921
0.0533639
0.0603472
0.0659058
0.0707094
0.0751025
0.0793158
0.0835436
0.0879515
0.0926454
0.0976297
0.10279
0.107919
0.112742
0.116973
0.120416
0.123112
0.125088
0.126348
0.127044
0.127419
0.127649
0.0204964
0.0419987
0.0521454
0.059048
0.0645362
0.0692759
0.073604
0.0777412
0.0818597
0.0860973
0.0905409
0.0951994
0.0999941
0.104769
0.109316
0.113392
0.116775
0.119425
0.121355
0.122592
0.123243
0.123498
0.123551
0.0196599
0.0405931
0.0505734
0.057399
0.0628298
0.067511
0.0717708
0.0758176
0.0798055
0.0838517
0.0880312
0.0923617
0.096795
0.101222
0.105489
0.1094
0.112739
0.115419
0.117421
0.118763
0.119518
0.119827
0.119881
0.0188791
0.0390484
0.0487936
0.0555069
0.0608651
0.0654818
0.0696683
0.0736175
0.0774667
0.0813176
0.085237
0.0892493
0.0933305
0.0974095
0.101379
0.105089
0.108348
0.111052
0.113157
0.114662
0.115609
0.116097
0.1163
0.0180814
0.0374101
0.0468696
0.0534395
0.0587079
0.0632519
0.0673614
0.0712124
0.0749266
0.0785924
0.0822696
0.0859865
0.0897369
0.0934789
0.097142
0.100617
0.103747
0.106431
0.108613
0.110274
0.111432
0.112148
0.11257
0.0172476
0.0356985
0.0448415
0.0512463
0.0564113
0.0608763
0.0649082
0.068666
0.0722566
0.0757567
0.0792194
0.0826746
0.0861273
0.0895568
0.0929209
0.0961429
0.0991033
0.101715
0.10392
0.105692
0.107026
0.107955
0.108597
0.0163752
0.0339279
0.042737
0.0489638
0.0540177
0.0584009
0.0623579
0.0660313
0.0695145
0.0728735
0.0761548
0.0793877
0.0825838
0.0857369
0.0888254
0.0917962
0.0945636
0.0970598
0.0992332
0.101052
0.102501
0.103591
0.10441
0.0154643
0.0321094
0.0405772
0.0466217
0.0515624
0.0558652
0.0597532
0.0633535
0.0667474
0.0699915
0.0731259
0.0761777
0.079162
0.0820815
0.0849288
0.0876659
0.0902362
0.0925909
0.0946876
0.0964959
0.0979939
0.0991793
0.100115
0.0145161
0.0302552
0.0383839
0.0442489
0.0490799
0.0533076
0.0571347
0.0606744
0.0639974
0.0671518
0.0701719
0.0730821
0.0758986
0.0786295
0.0812743
0.0838056
0.0861907
0.0883961
0.0903895
0.0921444
0.0936378
0.0948592
0.0958532
0.0135364
0.0283845
0.0361851
0.0418802
0.0466099
0.0507707
0.0545467
0.0580385
0.0613074
0.0643945
0.067329
0.0701326
0.0728212
0.0754062
0.0778847
0.0802443
0.0824665
0.0845298
0.0864107
0.0880879
0.08954
0.0907538
0.0917593
0.0125407
0.0265272
0.0340206
0.0395616
0.0442023
0.0483068
0.0520419
0.0554972
0.0587263
0.0617644
0.0646366
0.0673622
0.069957
0.072427
0.0747752
0.0769973
0.0790838
0.0810215
0.0827941
0.0843855
0.0857777
0.0869571
0.0879441
0.0115915
0.0247276
0.0319461
0.0373541
0.0419207
0.0459804
0.0496843
0.0531123
0.0563124
0.0593147
0.0621413
0.0648088
0.0673295
0.0697118
0.0719604
0.0740755
0.076053
0.0778854
0.079562
0.081071
0.0823982
0.0835312
0.0844837
0.0107488
0.0230722
0.0300473
0.0353422
0.039848
0.0438714
0.0475498
0.0509555
0.0541307
0.0571028
0.0598913
0.0625111
0.0649737
0.0672879
0.0694595
0.0714913
0.0733824
0.075129
0.0767244
0.0781604
0.0794259
0.0805107
0.0814236
0.0100096
0.0216425
0.028417
0.0336216
0.0380787
0.042071
0.0457249
0.0491064
0.0522546
0.0551947
0.0579454
0.0605207
0.0629321
0.0651886
0.0672968
0.0692608
0.0710817
0.0727581
0.074286
0.0756597
0.0768706
0.0779107
0.0787854
0.00940956
0.0205251
0.0271505
0.032288
0.0367063
0.0406689
0.044294
0.0476439
0.0507562
0.053656
0.0563619
0.0588885
0.0612474
0.0634483
0.0654983
0.0674023
0.0691627
0.0707795
0.0722503
0.0735709
0.074735
0.0757359
0.0765767
0.00899247
0.0197971
0.0263331
0.0314272
0.0358132
0.0397426
0.0433291
0.0466342
0.049696
0.0525411
0.0551894
0.0576565
0.0599554
0.0620961
0.0640867
0.0659324
0.0676364
0.0691994
0.0706199
0.0718947
0.0730187
0.0739861
0.0747983
0.00879338
0.0195133
0.0260266
0.0311013
0.0354587
0.0393469
0.0428799
0.0461218
0.0491137
0.0518851
0.0544584
0.0568513
0.0590781
0.0611501
0.0630757
0.0648609
0.066509
0.068021
0.0693957
0.0706302
0.07172
0.0726599
0.0734497
0.0088301
0.0196985
0.0262617
0.0313417
0.0356718
0.0395065
0.0429669
0.046123
0.0490219
0.0516976
0.0541762
0.0564779
0.058619
0.0606117
0.0624655
0.0641864
0.0657779
0.0672409
0.0685739
0.0697738
0.0708361
0.0717556
0.0725308
0.00910334
0.0203537
0.0270428
0.0321521
0.0364519
0.040216
0.0435795
0.0466236
0.0494038
0.0519604
0.0543238
0.0565174
0.0585593
0.0604631
0.0622387
0.0638926
0.065428
0.0668453
0.0681425
0.0693158
0.0703603
0.0712702
0.0720426
0.00960459
0.0214684
0.0283598
0.033517
0.0377754
0.041443
0.0446786
0.04758
0.0502137
0.0526275
0.0548563
0.0569265
0.058858
0.0606655
0.0623595
0.0639465
0.0654292
0.0668076
0.0680786
0.0692378
0.0702794
0.0711969
0.0719856
0.0103265
0.0230384
0.0302054
0.0354154
0.0396033
0.0431331
0.0461992
0.0489213
0.051379
0.053627
0.0557041
0.057639
0.0594526
0.0611603
0.062773
0.0642969
0.0657346
0.0670851
0.0683446
0.0695081
0.0705695
0.0715217
0.0723582
0.0112751
0.0250973
0.0326034
0.0378366
0.0418888
0.0452125
0.0480515
0.0505509
0.0528018
0.0548634
0.0567759
0.0585682
0.0602612
0.0618703
0.0634062
0.0648751
0.0662792
0.0676171
0.0688847
0.0700774
0.0711905
0.0722184
0.073153
0.0125037
0.0278015
0.035661
0.0408006
0.0445806
0.0475861
0.0501194
0.0523462
0.054361
0.0562206
0.0579619
0.0596107
0.0611861
0.0627025
0.0641703
0.0655954
0.06698
0.0683227
0.0696209
0.0708725
0.0720787
0.0732409
0.074354
0.0142443
0.0316555
0.0396567
0.0443672
0.0476081
0.0501236
0.0522535
0.0541577
0.0559148
0.0575667
0.0591396
0.0606521
0.0621193
0.0635538
0.0649649
0.0663587
0.0677376
0.0691016
0.0704511
0.0717915
0.073138
0.0745132
0.075931
0.0175695
0.0381435
0.0451351
0.0485756
0.0508192
0.0526248
0.0542576
0.0558081
0.0573058
0.0587613
0.0601817
0.061575
0.0629505
0.0643179
0.0656856
0.0670595
0.0684431
0.0698384
0.0712516
0.0727015
0.0742307
0.075913
0.0778322
0.027913
0.051456
0.0528331
0.0531944
0.0538415
0.0547667
0.0558777
0.0570972
0.0583709
0.0596662
0.0609672
0.0622699
0.0635773
0.0648962
0.066234
0.0675969
0.0689889
0.0704152
0.0718888
0.0734461
0.0751727
0.0772406
0.0799363
0.067692
0.0772568
0.0620422
0.0570665
0.0559063
0.0560819
0.0568177
0.057822
0.0589594
0.0601612
0.0613946
0.0626467
0.0639168
0.0652095
0.0665316
0.0678891
0.069287
0.0707322
0.072243
0.0738702
0.0757413
0.078154
0.081797
0.0429055
0.0386179
0.0400511
0.0468158
0.081782
0.081217
0.081697
0.0823462
0.0978515
0.0969107
0.0964939
0.0964508
0.107495
0.106621
0.106122
0.105855
0.114399
0.113555
0.112938
0.112451
0.119933
0.119035
0.118259
0.117542
0.124734
0.123762
0.12285
0.121954
0.129242
0.128247
0.127276
0.126287
0.133858
0.132906
0.13195
0.130949
0.138789
0.137933
0.137062
0.136156
0.144033
0.14326
0.142444
0.141713
0.146364
0.146293
0.146238
0.145898
0.143565
0.143835
0.144086
0.144053
0.138412
0.138801
0.139131
0.139243
0.132853
0.133116
0.133317
0.133386
0.127777
0.127839
0.12786
0.12781
0.123485
0.123396
0.123276
0.12311
0.119764
0.119619
0.119436
0.119212
0.116252
0.116133
0.115964
0.115746
0.112657
0.112613
0.112507
0.112344
0.108833
0.108881
0.10886
0.108775
0.104776
0.10491
0.104972
0.104969
0.100577
0.100779
0.10091
0.100976
0.096373
0.0966205
0.0968015
0.0969203
0.0923055
0.0925791
0.0927908
0.0929444
0.0884936
0.088778
0.0890057
0.0891791
0.085023
0.0853084
0.0855416
0.0857243
0.081946
0.0822273
0.0824602
0.0826457
0.0792898
0.0795649
0.0797947
0.0799798
0.0770643
0.0773332
0.0775593
0.077743
0.075272
0.0755356
0.0757585
0.0759411
0.073913
0.0741732
0.0743947
0.0745775
0.0729892
0.0732491
0.0734719
0.0736577
0.0725047
0.0727696
0.072999
0.0731925
0.0724661
0.0727451
0.0729897
0.0731992
0.0728815
0.07319
0.0734648
0.0737043
0.0737606
0.0741251
0.0744555
0.0747487
0.0751164
0.0755826
0.0760117
0.076397
0.0769754
0.0776251
0.078227
0.0787654
0.0794063
0.0804026
0.0813088
0.0820888
0.082579
0.084339
0.0857862
0.086886
0.0865759
0.0909255
0.0931164
0.094273
0.063481
0.0724068
0.0785301
0.0802326
0.0812594
0.0822784
0.0819415
0.0801233
0.0782223
0.0759136
0.0725696
0.0683593
0.0635268
0.058297
0.0527904
0.0470345
0.0409622
0.0334501
0.017642
0.0838737
0.0876767
0.0904539
0.0908016
0.0906311
0.090205
0.0884265
0.085783
0.083429
0.080796
0.0772605
0.0728384
0.0676685
0.0619407
0.055798
0.0493044
0.0425047
0.0341572
0.0174188
0.096803
0.0984738
0.0994564
0.0989767
0.0979633
0.0964752
0.093749
0.0903995
0.0873644
0.0841678
0.0803107
0.0756344
0.0701558
0.0640247
0.0573502
0.0502365
0.0427045
0.0334014
0.01677
0.105683
0.105899
0.105613
0.104498
0.102915
0.100798
0.0976684
0.0938546
0.090096
0.0862373
0.0819192
0.0769265
0.0711959
0.0648031
0.0578039
0.0502916
0.0422878
0.0324823
0.0158856
0.111818
0.111019
0.109859
0.108219
0.106165
0.103552
0.100148
0.0961172
0.0918918
0.0874892
0.0827174
0.0774057
0.0714727
0.0649348
0.0578239
0.0502003
0.0419335
0.0316341
0.0149936
0.116502
0.11499
0.113217
0.11112
0.108656
0.105691
0.102101
0.0979836
0.0935435
0.0888266
0.0837514
0.0782057
0.0721201
0.0654738
0.0582618
0.0504674
0.0417863
0.0308542
0.014182
0.120609
0.118613
0.116425
0.113995
0.111241
0.108054
0.104373
0.100243
0.0957486
0.0909079
0.0856774
0.0799913
0.0737902
0.0670047
0.0595477
0.0512814
0.0418235
0.0301069
0.0134897
0.124761
0.122478
0.120027
0.117363
0.114412
0.111098
0.107396
0.103318
0.0988727
0.0940312
0.0887396
0.0829537
0.0766309
0.0696576
0.0618197
0.0528508
0.0422985
0.0294646
0.0131982
0.129376
0.126947
0.124304
0.121449
0.118361
0.114993
0.111312
0.107314
0.102991
0.0982509
0.0929699
0.0871076
0.0806863
0.0735971
0.0655387
0.0560471
0.0445471
0.0304668
0.0143202
0.134665
0.132147
0.129301
0.126242
0.123052
0.119661
0.11599
0.11204
0.107876
0.103348
0.0981519
0.0922277
0.0858461
0.0789403
0.0710511
0.0614479
0.0495054
0.0340507
0.0168311
0.14045
0.137859
0.134697
0.131334
0.128041
0.12463
0.120856
0.116896
0.112954
0.108824
0.103808
0.0976518
0.091149
0.0849653
0.0778179
0.0685213
0.0563034
0.0394355
0.0202568
0.144736
0.1421
0.138678
0.135058
0.131759
0.128392
0.124617
0.120569
0.116891
0.113389
0.108829
0.102573
0.095315
0.0885555
0.0814651
0.0720695
0.0604095
0.0452586
0.0227571
0.143424
0.141209
0.138356
0.135384
0.132492
0.129377
0.125745
0.121776
0.118124
0.114701
0.110352
0.104038
0.0966243
0.0892108
0.0815072
0.0723833
0.0613117
0.0474601
0.0240482
0.13889
0.13736
0.135335
0.133038
0.130575
0.127778
0.124422
0.120579
0.116866
0.11334
0.108981
0.1029
0.0957635
0.0885698
0.0810424
0.0723572
0.0619725
0.0485744
0.0247597
0.133138
0.13204
0.130515
0.128714
0.126631
0.124133
0.121091
0.117638
0.114226
0.110765
0.106487
0.100829
0.0943306
0.0876635
0.0805038
0.0722112
0.0622443
0.0490751
0.0252236
0.127504
0.126577
0.125298
0.12373
0.121861
0.119626
0.116979
0.114028
0.110995
0.107696
0.103594
0.0984383
0.092619
0.0864989
0.0797678
0.071875
0.0622956
0.0494266
0.0255726
0.122696
0.121787
0.120589
0.119125
0.117401
0.115385
0.113071
0.110506
0.107739
0.10458
0.100692
0.0960045
0.0907714
0.0851166
0.0787503
0.0712211
0.0619978
0.0493931
0.0255503
0.118738
0.117822
0.116648
0.115242
0.113618
0.111763
0.109671
0.107338
0.104724
0.101669
0.0979918
0.0936825
0.0888692
0.0835416
0.0774385
0.0701793
0.0612092
0.0487954
0.0250562
0.115296
0.114426
0.113295
0.11195
0.110407
0.108661
0.106699
0.104488
0.101957
0.0989865
0.095478
0.0914299
0.0868798
0.0817519
0.0758091
0.0687091
0.0598892
0.0476173
0.0241414
0.111989
0.111232
0.11019
0.108931
0.10747
0.105808
0.103925
0.101779
0.0992979
0.0963951
0.0930084
0.0891235
0.0847226
0.0796998
0.0738384
0.0668207
0.058088
0.0459534
0.0229328
0.108553
0.107955
0.107042
0.105894
0.104527
0.102944
0.101124
0.0990235
0.0965827
0.0937358
0.0904344
0.0866486
0.0823293
0.07736
0.0715409
0.064575
0.0559198
0.0439651
0.0215836
0.104883
0.104457
0.103692
0.10267
0.101408
0.0999088
0.0981516
0.096099
0.0937011
0.0909062
0.0876703
0.0839521
0.079687
0.0747584
0.0689829
0.0620833
0.0535434
0.0418411
0.0202456
0.10101
0.100741
0.100121
0.0992245
0.0980717
0.0966608
0.094973
0.0929763
0.0906297
0.0878901
0.0847157
0.0810593
0.0768511
0.0719801
0.0662792
0.0594924
0.0511331
0.0397657
0.0190418
0.0970442
0.096903
0.0964092
0.095628
0.0945795
0.093257
0.0916433
0.0897107
0.0874251
0.0847493
0.0816437
0.07806
0.0739295
0.0691497
0.0635702
0.0569554
0.048848
0.0378861
0.0180445
0.0931287
0.0930806
0.092688
0.0920057
0.0910503
0.0898117
0.0882733
0.0864109
0.0841952
0.081594
0.0785702
0.0750777
0.0710524
0.0664021
0.0609913
0.0546037
0.0468054
0.0362914
0.0172719
0.0893985
0.0894122
0.0890955
0.0884945
0.0876191
0.0864574
0.0849928
0.0832039
0.0810653
0.0785485
0.0756201
0.0722376
0.0683431
0.0638541
0.0586487
0.0525253
0.0450676
0.0350076
0.0166981
0.0859608
0.0860125
0.0857509
0.0852154
0.0844076
0.0833148
0.081921
0.0802068
0.0781498
0.0757248
0.072902
0.0696431
0.0658964
0.0615878
0.0566058
0.0507598
0.0436432
0.0340087
0.0162766
0.0828883
0.0829623
0.0827412
0.0822586
0.0815083
0.0804775
0.079151
0.0775108
0.0755371
0.0732074
0.0704948
0.067365
0.0637712
0.0596462
0.0548856
0.0493054
0.0425032
0.0332399
0.0159557
0.0802232
0.0803108
0.080123
0.079683
0.0789824
0.0780082
0.0767454
0.0751775
0.0732862
0.0710509
0.0684471
0.0654432
0.061996
0.0580425
0.053483
0.0481364
0.041601
0.0326399
0.015694
0.0779853
0.0780838
0.0779243
0.0775213
0.0768656
0.0759442
0.0747424
0.0732443
0.0714326
0.0692877
0.0667862
0.063898
0.0605816
0.056776
0.0523833
0.0472234
0.0408939
0.0321597
0.015461
0.0761832
0.0762928
0.0761596
0.0757911
0.0751781
0.0743075
0.0731648
0.0717343
0.0699989
0.067939
0.0655311
0.0627449
0.0595384
0.0558502
0.0515818
0.0465525
0.0403595
0.0317722
0.0152425
0.0748221
0.0749458
0.0748388
0.0745048
0.0739345
0.0731148
0.0720312
0.0706677
0.0690067
0.0670277
0.0647059
0.0620087
0.0588916
0.0552898
0.0511011
0.0461421
0.0400098
0.0314819
0.0150365
0.0739093
0.0740522
0.0739743
0.0736776
0.0731525
0.0723864
0.0713645
0.0700704
0.0684854
0.0665877
0.0643495
0.0617346
0.0586931
0.0551535
0.0510055
0.0460583
0.0399057
0.0313341
0.0148612
0.0734589
0.0736291
0.073587
0.073333
0.0728585
0.0721515
0.0711973
0.0699794
0.0684779
0.0666688
0.0645213
0.0619937
0.0590283
0.0555425
0.0514115
0.0464283
0.0401738
0.0314328
0.0147569
0.0734933
0.0737052
0.0737096
0.0735071
0.0730913
0.0724519
0.0715756
0.0704458
0.0690422
0.067339
0.0653017
0.0628831
0.0600155
0.0566009
0.0524917
0.0474505
0.041024
0.0319646
0.0148063
0.0740481
0.0743243
0.0743907
0.0742513
0.0739046
0.0733443
0.0725594
0.071535
0.0702511
0.068681
0.0667882
0.0645198
0.0617986
0.058508
0.0544694
0.0493952
0.0427618
0.0332255
0.015148
0.0751774
0.0755505
0.0756988
0.0756354
0.0753689
0.0749001
0.0742228
0.073325
0.0721887
0.0707882
0.0690867
0.0670293
0.0645311
0.0614589
0.0575979
0.0525901
0.0457874
0.0356369
0.0160102
0.0769655
0.0774779
0.077728
0.0777508
0.0775727
0.0772062
0.0766524
0.0759036
0.0749456
0.0737559
0.0723008
0.0705278
0.0683519
0.0656315
0.0621217
0.0573843
0.0505823
0.0397631
0.0177415
0.0795514
0.0802438
0.0806037
0.0807114
0.0806219
0.0803631
0.0799446
0.0793644
0.0786128
0.0776728
0.0765174
0.0751027
0.0733544
0.0711402
0.0682124
0.0640777
0.057679
0.0463866
0.0209533
0.0831742
0.0840454
0.0844857
0.084653
0.0846374
0.0844817
0.0842021
0.0838015
0.083275
0.0826121
0.081795
0.0807941
0.0795571
0.0779858
0.0758799
0.0727862
0.0675474
0.056688
0.0270958
0.0882389
0.0891441
0.0895588
0.0897241
0.0897488
0.0896781
0.0895287
0.089305
0.0890058
0.0886264
0.0881586
0.0875888
0.0868927
0.0860243
0.0848843
0.0832176
0.0802028
0.072352
0.0411731
0.0953143
0.0958106
0.0959999
0.0960721
0.0960894
0.0960729
0.09603
0.0959627
0.0958712
0.0957548
0.0956124
0.0954422
0.0952418
0.095009
0.0947442
0.0944576
0.0941725
0.0937186
0.0869474
)
;

boundaryField
{
    leftWall
    {
        type            kqRWallFunction;
        value           nonuniform List<scalar> 
50
(
0.00113212
0.00300524
0.0044352
0.00563578
0.00661421
0.00739336
0.00799664
0.00845539
0.0088854
0.00898428
0.00914412
0.00984807
0.010661
0.0114082
0.0117901
0.0129258
0.0153405
0.0177158
0.019739
0.0209956
0.021738
0.021991
0.02179
0.0212505
0.0204964
0.0196599
0.0188791
0.0180814
0.0172476
0.0163752
0.0154643
0.0145161
0.0135364
0.0125407
0.0115915
0.0107488
0.0100096
0.00940956
0.00899247
0.00879338
0.0088301
0.00910334
0.00960459
0.0103265
0.0112751
0.0125037
0.0142443
0.0175695
0.027913
0.067692
)
;
    }
    rightWall
    {
        type            kqRWallFunction;
        value           nonuniform List<scalar> 
50
(
0.00300958
0.00676297
0.00914787
0.0111757
0.0131217
0.014738
0.0160782
0.0169109
0.017642
0.0174188
0.01677
0.0158856
0.0149936
0.014182
0.0134897
0.0131982
0.0143202
0.0168311
0.0202568
0.0227571
0.0240482
0.0247597
0.0252236
0.0255726
0.0255503
0.0250562
0.0241414
0.0229328
0.0215836
0.0202456
0.0190418
0.0180445
0.0172719
0.0166981
0.0162766
0.0159557
0.015694
0.015461
0.0152425
0.0150365
0.0148612
0.0147569
0.0148063
0.015148
0.0160102
0.0177415
0.0209533
0.0270958
0.0411731
0.0869474
)
;
    }
    lowerWall
    {
        type            kqRWallFunction;
        value           nonuniform List<scalar> 
62
(
0.00113212
0.0032175
0.00474352
0.00607156
0.00729928
0.00846591
0.00958465
0.0106571
0.0116877
0.0126784
0.0135562
0.014311
0.0149363
0.0154293
0.0157837
0.0159775
0.015966
0.0156754
0.0149827
0.0136763
0.0113932
0.00765055
0.00223641
0.00223641
0.00596883
0.00895605
0.0118419
0.0149497
0.0188081
0.0247727
0.0366341
0.0429055
0.0386179
0.0400511
0.0468158
0.00241126
0.00632747
0.00953341
0.0122713
0.0147157
0.017265
0.0225533
0.0351675
0.00241126
0.00573978
0.00884097
0.0114996
0.0132369
0.0150463
0.0164872
0.0162148
0.0160367
0.0158066
0.0154312
0.0146308
0.013543
0.0125305
0.0112826
0.00984664
0.0083264
0.00660282
0.00300958
)
;
    }
    atmosphere
    {
        type            inletOutlet;
        inletValue      uniform 0.1;
        value           nonuniform List<scalar> 
46
(
0.1
0.1
0.0620422
0.0570665
0.0559063
0.0560819
0.0568177
0.057822
0.0589594
0.0601612
0.0613946
0.0626467
0.0639168
0.0652095
0.0665316
0.0678891
0.069287
0.0707322
0.072243
0.0738702
0.0757413
0.078154
0.081797
0.0865759
0.1
0.1
0.1
0.1
0.1
0.1
0.1
0.1
0.1
0.1
0.1
0.1
0.1
0.1
0.1
0.1
0.1
0.1
0.1
0.1
0.1
0.1
)
;
    }
    defaultFaces
    {
        type            empty;
    }
}


// ************************************************************************* //
