/*--------------------------------*- C++ -*----------------------------------*\
  =========                 |
  \\      /  F ield         | OpenFOAM: The Open Source CFD Toolbox
   \\    /   O peration     | Website:  https://openfoam.org
    \\  /    A nd           | Version:  13
     \\/     M anipulation  |
\*---------------------------------------------------------------------------*/
FoamFile
{
    format      ascii;
    class       volScalarField;
    location    "2";
    object      nut;
}
// * * * * * * * * * * * * * * * * * * * * * * * * * * * * * * * * * * * * * //

dimensions      [0 2 -1 0 0 0 0];

internalField   nonuniform List<scalar> 
2268
(
2.22918e-05
3.77668e-05
4.58653e-05
5.19234e-05
5.70199e-05
6.15181e-05
6.5562e-05
6.92101e-05
7.2503e-05
7.54921e-05
7.80243e-05
8.01223e-05
8.18047e-05
8.30896e-05
8.39777e-05
8.4428e-05
8.43395e-05
8.35216e-05
8.16273e-05
7.79876e-05
7.12158e-05
5.85138e-05
3.16952e-05
7.74536e-05
0.000275641
0.000355621
0.000423281
0.000487963
0.000550607
0.000610232
0.000665192
0.000713279
0.000750756
0.000782522
0.000809193
0.000830914
0.000847725
0.00085948
0.000865605
0.000864711
0.000853898
0.000827652
0.000775766
0.000679656
0.000500098
0.000109109
9.43058e-05
0.000488966
0.000674223
0.000820242
0.000957917
0.0010909
0.00121755
0.00133472
0.00143852
0.00152511
0.00159874
0.00166039
0.00171033
0.00174862
0.00177469
0.00178671
0.00178053
0.00174798
0.00167422
0.00153302
0.0012802
0.000843241
0.000133485
0.000106237
0.000654027
0.000946082
0.00116605
0.00136863
0.00156243
0.00174646
0.00191725
0.0020705
0.00220306
0.00231732
0.0024139
0.00249291
0.002554
0.00259568
0.0026141
0.0026014
0.00254314
0.0024144
0.0021735
0.00175591
0.00107771
0.000153371
0.000114906
0.000780533
0.00117294
0.00146044
0.00171908
0.0019637
0.00219513
0.00241045
0.00260564
0.00277826
0.00292917
0.00305843
0.00316573
0.00325006
0.00330854
0.00333484
0.00331699
0.00323444
0.00305329
0.0027192
0.00215202
0.00126388
0.000172279
0.000121265
0.000876426
0.00135914
0.00170769
0.00201486
0.00230214
0.00257288
0.00282525
0.00305598
0.00326323
0.00344681
0.00360631
0.00374098
0.00384893
0.00392564
0.00396205
0.00394222
0.00384036
0.00361574
0.00320491
0.00251424
0.00144338
0.000193026
0.000125937
0.000948136
0.00150922
0.00191249
0.00226211
0.00258572
0.00288956
0.00317325
0.00343457
0.00367219
0.00388524
0.00407304
0.00423448
0.0043667
0.00446337
0.00451265
0.00449495
0.00438061
0.00412492
0.00365977
0.00288049
0.00165429
0.000221125
0.00012949
0.00100129
0.00162791
0.00207968
0.00246673
0.00282187
0.0031542
0.00346494
0.00375319
0.00401816
0.00425842
0.00447327
0.00466135
0.00481881
0.00493729
0.00500217
0.00499077
0.00487094
0.00459719
0.00410246
0.00327917
0.00194044
0.000268658
3.23687e-05
5.1172e-05
6.45316e-05
7.44347e-05
7.98226e-05
8.43105e-05
8.79017e-05
8.66968e-05
8.58473e-05
8.49159e-05
8.3556e-05
8.12307e-05
7.80332e-05
7.493e-05
7.13771e-05
6.66061e-05
6.09041e-05
5.38718e-05
3.72492e-05
0.000124008
0.000399085
0.000619058
0.000774252
0.000851635
0.000899979
0.000932382
0.000925897
0.000897505
0.000866602
0.000833264
0.000800656
0.000757364
0.000714658
0.000659559
0.000580898
0.000476203
0.000360854
0.000129518
0.000152742
0.000682571
0.00113771
0.00147065
0.00166493
0.00179797
0.00188096
0.00187771
0.00182057
0.0017566
0.00168427
0.00160815
0.00151283
0.00140611
0.00127443
0.00110705
0.000894224
0.000638469
0.000149416
0.000173967
0.000921868
0.00157099
0.00204165
0.0023351
0.00253894
0.00266499
0.00267539
0.00260201
0.00251573
0.00241278
0.00229642
0.00215489
0.00198893
0.00178879
0.00154708
0.00124123
0.000848122
0.000163855
0.000189953
0.0011321
0.00196588
0.0025443
0.00290852
0.00315852
0.00331019
0.00333057
0.00325079
0.00314844
0.00302137
0.00286952
0.0026885
0.00247308
0.00221624
0.00191331
0.0015268
0.00100592
0.000176406
0.000204186
0.00132821
0.00234708
0.00301157
0.00342127
0.00369424
0.00385496
0.00387578
0.00379364
0.00367756
0.00352953
0.00334828
0.00313166
0.00287491
0.00257131
0.00221545
0.00175862
0.00112554
0.000186531
0.000232236
0.00153704
0.00273676
0.00346035
0.00389404
0.00417294
0.00432885
0.00434151
0.00425312
0.00412309
0.00395483
0.00374774
0.00349956
0.00320687
0.00286338
0.00245994
0.00194255
0.00121956
0.000195219
0.000291984
0.00190275
0.00316171
0.00390148
0.00433813
0.00460868
0.00474898
0.0047462
0.004647
0.00450129
0.00431258
0.00408025
0.00380293
0.00347783
0.00309876
0.00265272
0.00208378
0.00128894
0.000200659
0.000132752
0.00106219
0.00177102
0.00229023
0.00272995
0.00312911
0.00350079
0.00384889
0.0041749
0.00447721
0.00475611
0.00501134
0.00524105
0.00543942
0.00559446
0.00568691
0.00569001
0.00557004
0.00528506
0.00477944
0.00397758
0.0028035
0.0013528
0.000135483
0.00108017
0.00184715
0.00243864
0.00294244
0.00339708
0.00381865
0.00421334
0.00458477
0.00493488
0.00526636
0.0055797
0.00587144
0.00613134
0.00634102
0.00647518
0.00650457
0.00639946
0.00613244
0.00567563
0.00500659
0.00413577
0.00316563
0.000134867
0.00103942
0.00184508
0.00249401
0.0030534
0.00355912
0.00402826
0.00446938
0.00488851
0.00529164
0.00568259
0.00606146
0.00642126
0.00674519
0.0070076
0.00717863
0.00723021
0.00714452
0.00691087
0.00652511
0.00599744
0.00537361
0.00476402
0.000138775
0.000991002
0.00180827
0.00249742
0.0031032
0.0036556
0.0041711
0.00465953
0.00513086
0.0055927
0.00604946
0.00649924
0.00692904
0.00731385
0.00762128
0.00781916
0.00788684
0.00781807
0.00761576
0.00729231
0.00687711
0.00642854
0.00604124
0.00014364
0.000955004
0.00177765
0.00249499
0.00313865
0.00373249
0.00429164
0.00482707
0.00535123
0.00587325
0.0063969
0.00691547
0.00740786
0.00784126
0.00817786
0.00839008
0.00846569
0.00840695
0.00822895
0.0079576
0.007635
0.00731787
0.00707271
0.000148659
0.000958927
0.00177182
0.00251249
0.00319375
0.00382837
0.0044286
0.00500688
0.00557725
0.00615178
0.00673161
0.00730463
0.00784358
0.0083089
0.00865951
0.00887893
0.00896017
0.00891001
0.00875533
0.00853421
0.00828931
0.00806564
0.00790572
0.000151937
0.000946956
0.00178439
0.0025696
0.00329765
0.00397334
0.00460834
0.00521878
0.00582307
0.006436
0.0070562
0.00766602
0.00823373
0.0087129
0.00906941
0.00929037
0.00937217
0.00933151
0.00920531
0.00903256
0.00884925
0.00868874
0.0085771
0.000160251
0.000943942
0.00186408
0.00271629
0.00349064
0.0041965
0.00485183
0.00547961
0.00610244
0.00673685
0.00737934
0.00800778
0.0085883
0.0090712
0.00942918
0.00964412
0.00971501
0.00968029
0.00958508
0.00945672
0.00932138
0.00920393
0.0091193
0.000175628
0.00105047
0.00209403
0.00300488
0.00380455
0.00451671
0.00517051
0.00579575
0.00641727
0.00705305
0.00769882
0.00833222
0.00891482
0.00940293
0.00976425
0.00996184
0.00999104
0.00996236
0.00990634
0.00981583
0.00971431
0.00962666
0.00955864
0.000189834
0.00134763
0.00245468
0.00340545
0.00421569
0.00491731
0.00554865
0.00614361
0.00672738
0.00731855
0.00791883
0.00850955
0.0090592
0.00952536
0.00986087
0.0100532
0.0101498
0.0101955
0.0101925
0.0101144
0.0100316
0.00997038
0.00991648
0.000199912
0.00153894
0.00278243
0.00377388
0.00459089
0.0052865
0.00590244
0.00647156
0.00701917
0.00756238
0.0081032
0.0086277
0.00911096
0.00952245
0.0098369
0.0100541
0.0102015
0.010314
0.0103555
0.0103195
0.0102784
0.0102502
0.0102094
0.000205759
0.00166347
0.00300888
0.0040476
0.00488171
0.00558125
0.00619275
0.006748
0.00727222
0.00778096
0.00827797
0.00875408
0.00918899
0.00955828
0.00984449
0.0100547
0.0102159
0.0103382
0.0104038
0.0104241
0.0104361
0.0104414
0.0104146
0.000209425
0.00174179
0.00315948
0.00423834
0.00509273
0.00580175
0.00641529
0.00696554
0.0074771
0.00796437
0.00843201
0.00887425
0.00927537
0.0096154
0.00988101
0.0100786
0.0102316
0.0103482
0.0104183
0.0104559
0.0104879
0.0105135
0.0105166
0.000210646
0.00178476
0.00324935
0.00435897
0.00523222
0.00595233
0.0065708
0.00712083
0.00762599
0.00810022
0.00854895
0.00896898
0.00934872
0.00967229
0.00992814
0.0101191
0.0102619
0.0103683
0.0104377
0.0104805
0.0105158
0.0105457
0.0105616
0.000209679
0.00180265
0.00329255
0.00442239
0.00531023
0.00604021
0.00666395
0.00721547
0.00771727
0.00818306
0.00861904
0.00902401
0.00939005
0.00970527
0.00995982
0.0101528
0.0102943
0.010397
0.0104658
0.0105093
0.0105411
0.0105674
0.0105842
0.000207082
0.00180167
0.00329913
0.0044392
0.0053364
0.00607329
0.0067015
0.00725452
0.00775411
0.00821378
0.00864031
0.00903432
0.00939094
0.00970178
0.00995893
0.0101592
0.0103077
0.0104146
0.0104869
0.0105325
0.010562
0.0105826
0.0105946
0.00020338
0.00178522
0.00327618
0.00441792
0.00531932
0.00606013
0.00669108
0.00724476
0.0077423
0.00819701
0.00861613
0.00900172
0.00935132
0.0096594
0.00992002
0.0101291
0.0102883
0.0104048
0.0104854
0.0105373
0.0105686
0.0105866
0.0105945
0.000199045
0.00175456
0.00322897
0.00436557
0.00526666
0.00600862
0.00664043
0.00719366
0.00768888
0.0081392
0.0085522
0.00893101
0.009275
0.0095809
0.0098445
0.0100619
0.0102324
0.010361
0.010453
0.0105147
0.0105524
0.0105725
0.0105802
0.000194982
0.00171273
0.00316261
0.00428851
0.0051855
0.00592602
0.00655697
0.00710876
0.00760132
0.00804754
0.00845527
0.00882842
0.00916772
0.00947158
0.00973731
0.00996161
0.0101427
0.0102835
0.0103883
0.0104618
0.0105093
0.0105358
0.0105474
0.000190766
0.00166444
0.00308271
0.00419277
0.00508218
0.00581898
0.00644765
0.00699724
0.00748694
0.00792935
0.00833248
0.0087008
0.00903604
0.00933791
0.00960495
0.00983456
0.0100246
0.0101768
0.010294
0.0103801
0.0104389
0.0104747
0.0104934
0.000186279
0.00161231
0.00299351
0.00408343
0.0049623
0.00569351
0.00631886
0.00686582
0.00735269
0.00779172
0.00819091
0.00855513
0.00888687
0.0091868
0.00945446
0.00968793
0.00988515
0.0100471
0.0101757
0.0102738
0.0103442
0.0103905
0.0104179
0.000181494
0.00155785
0.00289819
0.00396469
0.00483075
0.00555505
0.00617647
0.00672074
0.00720513
0.00764138
0.00803739
0.00839829
0.00872708
0.0090252
0.009293
0.00952907
0.00973177
0.00990164
0.01004
0.0101488
0.0102302
0.0102868
0.0103234
0.000176392
0.00150213
0.00279928
0.00384021
0.00469206
0.00540874
0.00602611
0.006568
0.00705054
0.00748483
0.00787857
0.00823698
0.00856346
0.00886002
0.00912764
0.00936523
0.00957189
0.00974794
0.00989425
0.0100122
0.0101032
0.0101693
0.0102145
0.000170953
0.00144611
0.00269912
0.00371353
0.00455067
0.00525973
0.00587343
0.0064136
0.00689514
0.00732846
0.00772093
0.00807779
0.00840268
0.00869804
0.00896519
0.00920347
0.00941275
0.00959333
0.00974581
0.00987109
0.00997018
0.0100445
0.0100973
0.000165177
0.00139071
0.00260007
0.00358837
0.00441138
0.00511355
0.00572443
0.00626382
0.00674536
0.00717873
0.00757094
0.00792716
0.00825119
0.00854579
0.00881205
0.00905043
0.00926127
0.00944492
0.00960187
0.00973274
0.00983819
0.00991918
0.00997839
0.000159107
0.00133653
0.00250451
0.00346887
0.00427957
0.00497636
0.00558568
0.00612537
0.00660791
0.00704225
0.00743504
0.00779138
0.00811518
0.00840884
0.00867416
0.00891223
0.00912374
0.00930922
0.00946911
0.00960391
0.00971405
0.00980019
0.00986442
0.000153091
0.00128199
0.00241453
0.00335976
0.00416139
0.00485501
0.00546428
0.00600534
0.00648968
0.00692561
0.00731947
0.0076762
0.00799953
0.00829233
0.00855669
0.00879408
0.00900552
0.00919172
0.00935321
0.00949044
0.00960372
0.00969352
0.00976146
0.00014753
0.00123098
0.0023361
0.00326805
0.00406437
0.004757
0.00536746
0.00591056
0.00639691
0.00683439
0.00722913
0.00758597
0.00790876
0.00820053
0.00846366
0.00869989
0.00891052
0.00909645
0.00925834
0.00939666
0.0095117
0.00960382
0.00967425
0.00014246
0.00119042
0.00227771
0.00320252
0.00399694
0.00469024
0.00530242
0.00584737
0.00633517
0.00677347
0.00716828
0.00752448
0.00784602
0.00813613
0.00839736
0.00863171
0.0088407
0.0090254
0.0091866
0.00932484
0.00944045
0.00953372
0.00960562
0.000138175
0.00116479
0.00224535
0.00316925
0.00396481
0.00465984
0.00527358
0.00581953
0.00630756
0.00674528
0.00713877
0.00749299
0.00781207
0.00809939
0.00835771
0.00858922
0.00879559
0.00897809
0.0091376
0.00927475
0.00938991
0.00948338
0.00955591
0.000135065
0.00115577
0.00224091
0.00316973
0.00396891
0.00466618
0.00528086
0.00582652
0.00631317
0.00674857
0.00713896
0.00748953
0.00780458
0.00808771
0.00834184
0.00856934
0.00877205
0.00895133
0.0091082
0.00924337
0.00935725
0.00945017
0.00952273
0.000133474
0.00116207
0.00226112
0.00319947
0.00400414
0.00470394
0.0053189
0.00586305
0.00634675
0.00677808
0.00716361
0.00750878
0.00781817
0.00809559
0.00834417
0.00856643
0.00876435
0.00893942
0.00909274
0.00922512
0.00933705
0.00942886
0.00950104
0.000133593
0.00117988
0.00229819
0.0032488
0.00406028
0.00476303
0.00537804
0.00591995
0.0063996
0.00682552
0.00720468
0.00754293
0.00784516
0.00811546
0.00835716
0.00857295
0.00876495
0.00893478
0.00908366
0.00921249
0.00932185
0.00941211
0.00948367
0.000135423
0.00120454
0.00234264
0.00330604
0.00412518
0.00483165
0.00544712
0.00598672
0.00646183
0.0068815
0.00725324
0.00758337
0.0078772
0.00813912
0.00837271
0.00858084
0.00876577
0.00892926
0.0090727
0.00919713
0.00930329
0.00939158
0.00946234
0.000138824
0.00123195
0.00238647
0.00336144
0.00418866
0.00489984
0.00551663
0.00605437
0.0065249
0.00693788
0.00730148
0.0076226
0.00790701
0.00815947
0.00838381
0.00858307
0.00875968
0.00891559
0.00905241
0.00917143
0.00927359
0.00935942
0.00942915
0.000143611
0.00125967
0.00242527
0.00340951
0.00424487
0.00496173
0.00558078
0.0061172
0.00658323
0.00698926
0.00734418
0.00765558
0.00792976
0.00817183
0.00838586
0.00857506
0.00874202
0.00888893
0.00901772
0.00913008
0.00922727
0.00930997
0.00937828
0.000149675
0.00128725
0.00245812
0.00344881
0.00429204
0.00501531
0.00563736
0.00617283
0.00663438
0.00703319
0.00737902
0.0076802
0.00794355
0.00817452
0.00837737
0.00855541
0.00871141
0.00884784
0.00896712
0.00907148
0.00916264
0.00924144
0.00930773
0.000157206
0.00131691
0.00248597
0.00347947
0.00433013
0.00506049
0.00568614
0.00622091
0.00667791
0.00706932
0.00740587
0.00769663
0.00794894
0.00816852
0.0083597
0.00852588
0.00866994
0.00879473
0.00890326
0.00899851
0.00908279
0.00915705
0.00922064
0.000167389
0.0013537
0.00250836
0.00349973
0.00435792
0.00509668
0.00572687
0.00626132
0.00671394
0.0070981
0.00742564
0.00770637
0.00794806
0.00815662
0.0083364
0.00849075
0.00862266
0.00873541
0.00883274
0.00891851
0.00899572
0.00906534
0.00912571
0.000186028
0.0014127
0.0025246
0.00350528
0.00437205
0.00512178
0.0057582
0.00629322
0.00674211
0.00711982
0.00743936
0.00771125
0.00794365
0.00814252
0.00831216
0.00845582
0.00857661
0.0086782
0.00876511
0.00884219
0.00891318
0.00897894
0.00903614
0.000234684
0.00157451
0.00255796
0.00349901
0.00437154
0.00513421
0.00577835
0.00631503
0.00676142
0.00713429
0.00744776
0.007713
0.0079384
0.00812998
0.00829191
0.00842737
0.00853952
0.00863239
0.0087112
0.00878168
0.00884828
0.00891167
0.00896625
0.000321256
0.00209432
0.00268046
0.00350398
0.00436584
0.00513698
0.00578722
0.00632565
0.00677097
0.00714126
0.00745145
0.00771309
0.00793472
0.00812235
0.00828009
0.00841107
0.00851847
0.00860653
0.0086809
0.00874785
0.00881226
0.0088743
0.00892552
0.000291923
0.000277162
0.00028367
0.000309003
0.00250651
0.00241398
0.00244893
0.00259297
0.00443111
0.00434226
0.00437195
0.00451329
0.00587207
0.00583252
0.00586377
0.00595568
0.00698499
0.00696903
0.00699156
0.00704492
0.0078542
0.00784414
0.0078541
0.00787886
0.00853852
0.00852622
0.00852349
0.00852659
0.00908269
0.00906515
0.0090511
0.00903766
0.00952003
0.00949696
0.00947373
0.0094481
0.00987545
0.00984777
0.00981794
0.00978464
0.010168
0.0101372
0.0101035
0.0100672
0.0103831
0.0103606
0.0103344
0.010302
0.0105023
0.0104901
0.0104729
0.0104485
0.0105598
0.010555
0.0105448
0.0105277
0.0105859
0.0105832
0.0105758
0.0105626
0.0105943
0.0105906
0.010583
0.0105709
0.0105911
0.0105855
0.0105766
0.010564
0.0105755
0.0105687
0.0105586
0.0105452
0.0105439
0.0105373
0.0105271
0.0105136
0.0104934
0.0104883
0.0104793
0.0104667
0.0104229
0.0104206
0.0104138
0.0104031
0.0103341
0.0103351
0.0103312
0.0103231
0.0102309
0.0102353
0.0102347
0.0102295
0.0101189
0.0101266
0.0101291
0.0101268
0.0100045
0.0100152
0.0100206
0.010021
0.00989427
0.00990753
0.00991544
0.00991829
0.00979424
0.00980957
0.00981958
0.00982451
0.0097092
0.00972614
0.00973783
0.00974447
0.00964206
0.00966019
0.00967319
0.00968119
0.00959332
0.00961229
0.00962628
0.00963536
0.00956073
0.00958032
0.00959507
0.00960505
0.00953941
0.00955947
0.00957488
0.00958567
0.00952232
0.00954281
0.00955885
0.00957046
0.00950126
0.0095222
0.0095389
0.00955137
0.00946831
0.00948968
0.00950708
0.0095205
0.00941751
0.00943924
0.00945729
0.00947162
0.00934661
0.00936841
0.00938685
0.00940189
0.00925835
0.00927963
0.00929786
0.00931306
0.00916084
0.00918058
0.00919758
0.00921205
0.00906658
0.00908329
0.00909787
0.00911082
0.00898916
0.00900124
0.00901401
0.00902643
0.00893898
0.00895212
0.00897388
0.00898889
0.00154383
0.00284495
0.00390249
0.00457777
0.00498541
0.00521889
0.0053161
0.00528332
0.00516753
0.00499794
0.00477813
0.00450792
0.00418741
0.00381592
0.00338675
0.00288053
0.002242
0.00135936
0.00020443
0.00329094
0.00419043
0.00496306
0.0054777
0.00577927
0.00592483
0.00594259
0.00584948
0.00568555
0.00546794
0.00519771
0.0048746
0.00449759
0.00406572
0.0035726
0.00299712
0.00229115
0.00135146
0.000203023
0.00487221
0.0054507
0.00595621
0.00629324
0.00647006
0.00651656
0.00644895
0.00628577
0.00605923
0.00578107
0.00545169
0.00506892
0.00463097
0.00413741
0.00358293
0.00294985
0.00219384
0.00123947
0.000199783
0.00615405
0.00650089
0.00679767
0.00697873
0.00703946
0.00699261
0.00684591
0.00661314
0.00631907
0.00597421
0.00557932
0.00513175
0.00462985
0.00407424
0.00346279
0.00278657
0.00202421
0.00113427
0.000194636
0.00715142
0.00733728
0.0074802
0.00753625
0.00749738
0.0073675
0.00715094
0.00685667
0.0065008
0.00609233
0.00563282
0.005121
0.00455687
0.00394348
0.0032849
0.00258596
0.00184908
0.00103616
0.000188927
0.00792489
0.00799826
0.00802906
0.0079883
0.00786875
0.00767083
0.00739683
0.00705261
0.00664741
0.00618736
0.0056744
0.00510893
0.00449346
0.0038343
0.00314151
0.0024289
0.00170701
0.000954382
0.000183358
0.00852981
0.00852372
0.00847385
0.00836149
0.00818125
0.00793252
0.00761672
0.00723756
0.00679994
0.00630697
0.00575974
0.00515953
0.00451041
0.00382013
0.00310029
0.00236599
0.00163026
0.00089264
0.000178453
0.00900995
0.0089483
0.00884238
0.00868057
0.00845935
0.00817792
0.0078375
0.00744057
0.00698954
0.00648461
0.00592472
0.00531019
0.00464485
0.00393524
0.00318953
0.0024193
0.00163684
0.000862734
0.000177482
0.00939894
0.00930019
0.00915818
0.0089666
0.00872322
0.00842677
0.00807801
0.00767905
0.00723146
0.00673284
0.00617853
0.00556602
0.00489788
0.00417795
0.00340935
0.00259457
0.00174098
0.000884362
0.000187336
0.00972276
0.00960235
0.00944083
0.00923659
0.0089878
0.00869143
0.00834746
0.0079581
0.00752577
0.00704638
0.00651001
0.00590976
0.00525027
0.00453148
0.00374812
0.00288727
0.00195093
0.000971466
0.000205397
0.0100012
0.00987241
0.00970417
0.00949937
0.00925721
0.00897208
0.00864149
0.00826994
0.00786152
0.00741098
0.00690091
0.00631729
0.00567235
0.00498087
0.00420292
0.00330543
0.00227596
0.0011339
0.000225399
0.010236
0.0101086
0.00994135
0.00974385
0.00951591
0.00924742
0.00893751
0.00859029
0.00821513
0.00780327
0.00732847
0.00677348
0.00614803
0.00547152
0.00471218
0.00380359
0.00273483
0.0015001
0.000237288
0.0103945
0.0102782
0.010128
0.0099499
0.00974139
0.00949537
0.00920888
0.00888882
0.00854106
0.00815307
0.00770254
0.00717367
0.00657849
0.00591318
0.00514495
0.00422297
0.00310405
0.00172764
0.000242691
0.0104852
0.010389
0.0102631
0.0101081
0.00992185
0.00969821
0.0094352
0.00913639
0.00880607
0.00843331
0.00799895
0.00749209
0.00691923
0.00626915
0.00549962
0.00456023
0.00337719
0.00185034
0.000245818
0.0105286
0.0104496
0.0103439
0.0102092
0.0100426
0.00983882
0.00959601
0.00931728
0.00900453
0.00864641
0.00822715
0.00774
0.0071862
0.00654845
0.0057814
0.00482475
0.00358332
0.00193633
0.000248631
0.0105413
0.0104737
0.0103815
0.0102614
0.0101095
0.00992213
0.00969776
0.00943747
0.00914013
0.00879567
0.00839111
0.00792037
0.00737952
0.00674895
0.00598475
0.00501817
0.00373931
0.00201457
0.000250682
0.0105357
0.0104742
0.0103898
0.0102793
0.0101381
0.00996363
0.00975383
0.00950764
0.00922179
0.00888757
0.00849436
0.00803551
0.00750341
0.00687727
0.00611484
0.00514462
0.00384802
0.00207541
0.000250796
0.010517
0.0104583
0.0103777
0.0102724
0.0101383
0.00997247
0.00977246
0.00953557
0.00925725
0.00892972
0.00854419
0.00809312
0.00756647
0.00694301
0.00618226
0.00521279
0.00391136
0.00211417
0.000248666
0.0104857
0.0104288
0.0103497
0.0102467
0.0101163
0.00995517
0.00976046
0.00952852
0.00925421
0.00893048
0.00854941
0.00810283
0.00757919
0.00695728
0.00619817
0.00523181
0.003934
0.00213107
0.000244548
0.0104405
0.0103856
0.0103076
0.0102055
0.0100763
0.00991694
0.00972416
0.00949391
0.00922095
0.00889868
0.0085196
0.00807501
0.00755249
0.00693096
0.0061729
0.00521051
0.00392148
0.00212767
0.000238922
0.0103798
0.0103279
0.0102514
0.0101499
0.010021
0.00986179
0.00966898
0.00943849
0.00916518
0.00884276
0.00846387
0.00801941
0.00749644
0.00687402
0.00611592
0.00515708
0.00387937
0.00210594
0.000232385
0.0103037
0.0102558
0.0101815
0.0100811
0.00995246
0.00979295
0.00959942
0.00936792
0.00909348
0.00877003
0.0083902
0.00794461
0.00741998
0.00679548
0.00603607
0.00507958
0.00381371
0.00206838
0.000225567
0.0102144
0.0101711
0.0100998
0.0100011
0.00987329
0.00971382
0.00951976
0.00928732
0.00901169
0.00868693
0.00830566
0.00785826
0.00733121
0.00670377
0.0059419
0.00498632
0.00373143
0.00201869
0.000219064
0.0101162
0.0100776
0.0100099
0.00991365
0.0097873
0.00962858
0.00943463
0.0092018
0.00892539
0.00859955
0.00821683
0.00776745
0.00723767
0.00660684
0.00584171
0.00488575
0.00364049
0.00196212
0.000213312
0.0100146
0.00998062
0.00991673
0.00982353
0.00969939
0.0095422
0.00934917
0.0091167
0.00884018
0.00851375
0.00812992
0.00767873
0.00714628
0.00651195
0.00574321
0.00478608
0.00354923
0.00190492
0.000208549
0.00991563
0.00988602
0.00982612
0.00973629
0.00961496
0.00946001
0.00926868
0.00903737
0.00876146
0.00843507
0.00805061
0.00759798
0.00706313
0.00642545
0.00565311
0.00469454
0.00346523
0.00185281
0.000204779
0.00982511
0.0097995
0.00974355
0.00965731
0.00953921
0.0093871
0.00919816
0.00896873
0.00869414
0.00836842
0.00798386
0.00753019
0.00699323
0.00635245
0.00557667
0.00461663
0.00339399
0.00180949
0.000201861
0.0097478
0.0097258
0.00967365
0.00959107
0.00947652
0.00932773
0.00914177
0.00891487
0.00864225
0.0083178
0.00793365
0.00747934
0.00694055
0.00629679
0.00551758
0.00455577
0.00333832
0.00177626
0.000199568
0.00968677
0.00966799
0.00961943
0.00954059
0.00942983
0.00928477
0.00910233
0.00887861
0.00860864
0.00828613
0.00790296
0.00744842
0.00690798
0.00626121
0.00547818
0.0045136
0.0032988
0.00175256
0.000197692
0.00964282
0.00962694
0.00958183
0.00950681
0.00940013
0.00925926
0.00908098
0.0088612
0.00859474
0.00827503
0.00789362
0.00743946
0.00689768
0.00624773
0.00546006
0.00449084
0.00327495
0.00173724
0.000196062
0.00961415
0.009601
0.00955934
0.00948835
0.00938614
0.00925008
0.0090768
0.008862
0.00860026
0.00828465
0.0079063
0.00745365
0.00691128
0.00625822
0.00546493
0.00448854
0.00326673
0.00172952
0.000194599
0.0095963
0.00958592
0.00954792
0.00948132
0.00938418
0.00925379
0.00908664
0.00887828
0.00862298
0.00831347
0.00794031
0.00749125
0.00695004
0.0062948
0.00549541
0.00450923
0.00327585
0.00172992
0.000193304
0.00958268
0.00957531
0.00954134
0.00947969
0.00938838
0.00926473
0.00910518
0.00890515
0.00865869
0.00835812
0.00799341
0.0075514
0.00701465
0.00635982
0.00555529
0.00455752
0.00330663
0.00174082
0.000192318
0.00956536
0.0095614
0.00953194
0.00947586
0.00939128
0.00927562
0.00912539
0.008936
0.00870138
0.0084135
0.00806173
0.00763186
0.00710487
0.00645527
0.00564885
0.00463954
0.00336586
0.00176693
0.000191947
0.00953643
0.00953627
0.00951181
0.00946193
0.00938498
0.00927861
0.00913959
0.00896345
0.00874414
0.00847347
0.00814024
0.00772916
0.00721926
0.00658207
0.00577946
0.00476093
0.00346073
0.00181451
0.000192771
0.00948954
0.00949343
0.00947432
0.00943121
0.00936274
0.00926698
0.00914109
0.00898097
0.00878078
0.00853235
0.00822414
0.00783976
0.00735599
0.00674037
0.00594896
0.00492443
0.00359465
0.00188839
0.000195681
0.00942152
0.00942942
0.00941589
0.00938001
0.00932085
0.00923702
0.00912625
0.00898498
0.00880786
0.00858704
0.00831092
0.00796222
0.00751517
0.0069321
0.00616035
0.00513156
0.00376502
0.00198662
0.000201918
0.00933365
0.00934522
0.00933737
0.00930919
0.00926021
0.0091897
0.00909611
0.00897659
0.00882654
0.00863879
0.00840221
0.00809915
0.00770151
0.00716527
0.00642498
0.00539308
0.00397308
0.00210095
0.000213005
0.00923255
0.00924726
0.00924509
0.00922504
0.00918714
0.00913138
0.009057
0.00896201
0.0088428
0.00869333
0.00850369
0.00825701
0.00792426
0.00745565
0.00676943
0.00574561
0.00424966
0.00223382
0.000231181
0.00913047
0.00914776
0.00915085
0.00913895
0.00911275
0.00907296
0.00901954
0.00895136
0.00886595
0.0087589
0.00862242
0.00844236
0.00819214
0.007821
0.0072334
0.00626342
0.0046876
0.00242905
0.00026133
0.009046
0.00906416
0.00907051
0.00906562
0.00905097
0.00902768
0.00899613
0.0089559
0.00890568
0.00884292
0.00876285
0.00865624
0.00850424
0.0082663
0.00785188
0.00705907
0.00549596
0.00283097
0.000318448
0.00900525
0.00901629
0.00902049
0.00901982
0.00901548
0.00900814
0.00899807
0.00898521
0.00896922
0.00894935
0.00892415
0.00889065
0.00884242
0.00876394
0.00861277
0.00825316
0.00719822
0.00409292
0.000466245
)
;

boundaryField
{
    leftWall
    {
        type            nutkWallFunction;
        Cmu             0.09;
        kappa           0.41;
        E               9.8;
        value           nonuniform List<scalar> 
50
(
2.56064e-06
7.92943e-06
9.4653e-06
1.05552e-05
1.13527e-05
1.19428e-05
1.23768e-05
1.27255e-05
1.45727e-05
1.57222e-05
1.58519e-05
1.64087e-05
1.70275e-05
1.75742e-05
1.78464e-05
1.87305e-05
1.64325e-05
1.83454e-05
1.98637e-05
2.07588e-05
2.12696e-05
2.14425e-05
2.1304e-05
2.09305e-05
2.04001e-05
1.97986e-05
1.92239e-05
1.86226e-05
1.79778e-05
1.72839e-05
1.65364e-05
1.57312e-05
1.48672e-05
1.39517e-05
1.30394e-05
1.21932e-05
1.14191e-05
1.07663e-05
1.02984e-05
1.00707e-05
1.01129e-05
1.0424e-05
1.0981e-05
1.17547e-05
1.27259e-05
1.39168e-05
1.54948e-05
1.82285e-05
2.52118e-05
4.31937e-05
)
;
    }
    rightWall
    {
        type            nutkWallFunction;
        Cmu             0.09;
        kappa           0.41;
        E               9.8;
        value           nonuniform List<scalar> 
50
(
4.04114e-06
1.27357e-05
1.47166e-05
1.62443e-05
1.78293e-05
1.89564e-05
2.19704e-05
2.32257e-05
2.36824e-05
2.35299e-05
2.2917e-05
2.22111e-05
2.17717e-05
2.13905e-05
2.0914e-05
2.06912e-05
2.13428e-05
2.33321e-05
2.34267e-05
2.53269e-05
2.62545e-05
2.67535e-05
2.70764e-05
2.73175e-05
2.73021e-05
2.69608e-05
2.63166e-05
2.54465e-05
2.44443e-05
2.34147e-05
2.24548e-05
2.16331e-05
2.09787e-05
2.04819e-05
2.01108e-05
1.98245e-05
1.95886e-05
1.93766e-05
1.91762e-05
1.89857e-05
1.88225e-05
1.87248e-05
1.87711e-05
1.90889e-05
1.98731e-05
2.13783e-05
2.39638e-05
2.83433e-05
3.6603e-05
5.56844e-05
)
;
    }
    lowerWall
    {
        type            nutkWallFunction;
        Cmu             0.09;
        kappa           0.41;
        E               9.8;
        value           nonuniform List<scalar> 
62
(
2.56064e-06
4.1325e-06
4.93301e-06
5.52018e-06
6.00304e-06
6.42218e-06
6.79536e-06
7.13135e-06
7.43723e-06
7.71769e-06
7.95633e-06
8.15488e-06
8.31506e-06
8.43881e-06
8.52644e-06
8.5739e-06
8.57111e-06
8.49978e-06
8.32682e-06
7.98836e-06
7.35146e-06
6.13296e-06
3.49964e-06
3.49964e-06
1.08346e-05
1.30318e-05
1.4799e-05
1.64565e-05
1.88778e-05
2.51278e-05
3.00649e-05
3.20567e-05
3.00033e-05
3.00453e-05
3.22149e-05
3.63621e-06
1.253e-05
1.64041e-05
1.82068e-05
2.01038e-05
2.26362e-05
2.63548e-05
3.18371e-05
3.63621e-06
5.40203e-06
6.57707e-06
7.41754e-06
7.90691e-06
8.37237e-06
8.73845e-06
8.73824e-06
8.69989e-06
8.64262e-06
8.55089e-06
8.3498e-06
8.05743e-06
7.7811e-06
7.39261e-06
6.95732e-06
6.43573e-06
5.7813e-06
4.04114e-06
)
;
    }
    atmosphere
    {
        type            calculated;
        value           nonuniform List<scalar> 
46
(
0.009
0.009
0.00268046
0.00350398
0.00436584
0.00513698
0.00578722
0.00632565
0.00677097
0.00714126
0.00745145
0.00771309
0.00793472
0.00812235
0.00828009
0.00841107
0.00851847
0.00860653
0.0086809
0.00874785
0.00881226
0.0088743
0.00892552
0.00893898
0.009
0.009
0.009
0.009
0.009
0.009
0.009
0.009
0.009
0.009
0.009
0.009
0.009
0.009
0.009
0.009
0.009
0.009
0.009
0.009
0.009
0.009
)
;
    }
    defaultFaces
    {
        type            empty;
    }
}


// ************************************************************************* //
