/*--------------------------------*- C++ -*----------------------------------*\
  =========                 |
  \\      /  F ield         | OpenFOAM: The Open Source CFD Toolbox
   \\    /   O peration     | Website:  https://openfoam.org
    \\  /    A nd           | Version:  13
     \\/     M anipulation  |
\*---------------------------------------------------------------------------*/
FoamFile
{
    format      ascii;
    class       volScalarField;
    location    "2";
    object      p;
}
// * * * * * * * * * * * * * * * * * * * * * * * * * * * * * * * * * * * * * //

dimensions      [1 -1 -2 0 0 0 0];

internalField   nonuniform List<scalar> 
2268
(
6515.06
6457.09
6376.89
6268.64
6144.83
6014.64
5885.28
5761.3
5645.23
5537.97
5440.12
5351.2
5270.43
5197
5130.36
5070.32
5016.96
4970.47
4931.12
4898.49
4871.58
4853.63
4843.91
5730.79
5676.03
5597.6
5488.3
5361.93
5228.11
5094.59
4966.26
4845.8
4734.78
4633.71
4542.26
4459.63
4384.92
4317.44
4256.89
4203.36
4157.06
4118.5
4087.84
4064.87
4053.4
4047.1
4953.45
4897.87
4819.63
4708.89
4579.77
4442.04
4304.05
4171.02
4045.94
3930.5
3825.62
3731.06
3646.06
3569.69
3501.18
3440.25
3386.97
3341.6
3305.14
3278.13
3260.6
3255.16
3249.28
4185.57
4124.21
4042.92
3929.13
3796.67
3654.82
3512.57
3375.15
3245.73
3125.96
3017.34
2919.69
2832.24
2754.07
2684.45
2623.11
2570.2
2526.15
2492.29
2469.54
2457.7
2456.9
2450.28
3427.01
3357.57
3270.68
3151.99
3014.99
2867.99
2720.94
2578.98
2445.32
2321.41
2209.83
2110.34
2021.85
1943.24
1873.59
1812.45
1760.11
1716.74
1684.2
1663.95
1655.7
1658.01
1649.91
2678.11
2600.19
2506.05
2380.18
2236.34
2080.78
1926.98
1780.34
1645
1525.13
1424.92
1341.97
1273.01
1215.33
1166.84
1126.15
1092.79
1068.52
1049.68
1036.03
1027.35
1024.36
1016.48
1939.86
1852.02
1745.61
1606.39
1455.62
1318.96
1200.67
1101.6
1022.95
963.634
919.016
885.368
859.793
840.153
824.904
812.948
803.74
798.334
791.522
782.795
772.161
761.721
753.785
1227.96
1148.12
1069.4
981.856
901.122
845.644
807.414
783.742
772.351
768.197
765.296
762.669
760.158
757.642
754.968
752.017
748.353
742.412
734.496
724.753
713.7
703.221
695.412
2185.63
2189.57
2215.19
2278.19
2338.96
2382.02
2411.03
2408.45
2438.95
2477.04
2500.66
2512.47
2529.38
2581.65
2669.07
2756.85
2834.83
2891.75
2925.9
1618.78
1622.59
1625.71
1654.36
1681.99
1703.76
1740.16
1791.61
1836.96
1877.53
1905.38
1946.57
1976.69
2020.29
2071.25
2156.11
2243.32
2304.54
2333.02
1337.43
1343.8
1331.3
1319.09
1294.88
1276.61
1269.24
1268.34
1260.97
1272.27
1293.86
1360.45
1404.46
1444.64
1500.58
1582.26
1658.65
1732.38
1789.06
1173.29
1182.98
1190.66
1179.5
1140.44
1107.53
1084.2
1056.2
994.055
965.639
958.312
984.228
1043.19
1078.83
1120.16
1188.18
1236.53
1279.82
1343.08
995.637
999.736
1023.34
1025.4
1016.69
1006.87
1000.34
983.675
926.688
896.428
877.808
857.573
876.958
906.39
929.232
963.858
987.907
1006.89
1045.97
869.292
858.977
865.573
872.699
888.53
906.41
906.324
885.554
851.865
835.627
828.701
816
798.82
801.086
810.842
817.115
824.76
842.771
870.551
795.829
777.362
761.765
760.581
773.447
801.442
802.934
772.705
775.728
773.832
770.731
768.133
761.027
752.08
750.227
749.501
753.513
754.138
760.447
731.447
713.331
693.487
679.506
691.415
706.113
705.15
689.943
709.166
711.654
709.321
707.451
705.028
702.382
700.278
696.847
698.808
700.753
706.416
730.053
701.012
685.469
677.318
676.12
676.455
676.538
676.598
676.704
676.099
674.689
672.661
670.182
667.306
664.006
660.21
655.577
649.383
641.456
631.982
621.868
612.782
606.389
526.734
531.103
538.358
544.339
548.206
550.383
551.528
551.795
551.43
550.594
549.187
547.407
545.337
542.871
539.877
536.376
531.972
526.14
518.957
511.209
503.525
496.404
491.312
413.319
416.434
420.642
424.115
426.309
427.571
428.14
427.789
426.998
426.044
424.76
423.284
421.636
419.542
417.012
414.891
412.194
408.925
406.5
405.423
406.393
408.528
411.693
298.439
301.348
304.125
305.341
305.302
305.239
305.297
303.759
302.825
302.301
301.327
300.658
300.698
301.57
303.24
306.189
310.526
315.096
320.984
328.774
337.073
344.534
349.828
190.32
191.723
193.314
194.195
194.409
194.684
194.793
193.889
194.289
196.794
199.6
203.12
208.157
214.719
222.575
230.826
240.105
250.483
260.935
270.616
278.124
283.467
288.031
103.912
105.862
108.598
110.561
112.262
113.638
114.744
116.611
119.39
124.196
130.321
137.465
145.947
155.641
166.027
176.25
185.424
195.171
204.859
212.49
218.187
222.584
225.677
42.0137
45.9998
48.6535
50.1037
51.0242
51.7693
52.8142
54.917
57.3493
60.1752
64.6524
70.8009
78.3439
87.794
99.446
112.432
125.747
138.18
147.749
154.581
159.341
162.257
163.296
10.4108
11.6848
12.2956
12.5178
12.5497
12.4849
12.4959
12.7558
13.1992
13.7603
14.8336
16.8792
19.5598
23.2766
28.9903
37.6734
50.4107
66.8139
82.7182
94.721
101.508
103.912
102.813
3.02212
3.04373
2.98688
3.00366
3.0519
3.11124
3.16289
3.22271
3.31634
3.44071
3.55832
3.6543
3.75491
3.87035
4.05209
4.59381
6.69258
12.5721
23.3984
33.0419
40.7284
45.1699
45.1776
2.93204
2.93939
2.94012
2.94907
2.96461
2.98458
3.00383
3.02941
3.06291
3.10378
3.14759
3.19162
3.23855
3.29271
3.366
3.48258
3.64946
3.8247
3.91778
4.50064
6.58623
9.12551
9.66955
2.80607
2.80401
2.80235
2.80785
2.81909
2.8402
2.86935
2.90253
2.94281
2.98952
3.04072
3.09424
3.14865
3.20378
3.25074
3.26996
3.27027
3.31286
3.39398
3.49751
3.61006
3.66227
3.70656
2.69258
2.68659
2.68258
2.68527
2.69702
2.71668
2.74331
2.77604
2.81674
2.86415
2.91613
2.97146
3.028
3.08398
3.13133
3.1632
3.18816
3.21817
3.25724
3.28855
3.35077
3.44352
3.55929
2.58337
2.57626
2.57185
2.57396
2.58344
2.59988
2.62272
2.65132
2.68591
2.72759
2.77474
2.82589
2.88136
2.93702
2.98934
3.03459
3.07896
3.13287
3.17938
3.22637
3.28695
3.36954
3.47454
2.4767
2.46923
2.46456
2.46588
2.4736
2.48736
2.50696
2.53199
2.56165
2.59742
2.63953
2.68723
2.73927
2.79238
2.8452
2.89758
2.95374
3.01822
3.08392
3.14677
3.22208
3.30373
3.39579
2.37159
2.36408
2.35917
2.35981
2.36619
2.37802
2.39523
2.4177
2.44505
2.4775
2.51584
2.55992
2.6078
2.65793
2.70951
2.7632
2.82236
2.89025
2.96381
3.04023
3.12277
3.2056
3.29604
2.26765
2.26049
2.2556
2.25579
2.2612
2.27166
2.28711
2.3075
2.33277
2.36307
2.39863
2.43922
2.48392
2.53175
2.58225
2.6364
2.69672
2.76521
2.84061
2.92084
3.00616
3.09095
3.18301
2.16493
2.15843
2.15386
2.15387
2.15865
2.16808
2.18216
2.20089
2.2243
2.25254
2.28572
2.32368
2.36594
2.41194
2.46154
2.5157
2.5763
2.64471
2.72054
2.80218
2.88854
2.97384
3.06643
2.06387
2.05818
2.05413
2.05413
2.05847
2.06709
2.08003
2.09737
2.11919
2.14562
2.17676
2.21255
2.25277
2.29718
2.34581
2.3995
2.45975
2.52767
2.60323
2.68502
2.77123
2.85608
2.94797
1.9647
1.95981
1.95636
1.95646
1.96049
1.96845
1.98044
1.99659
2.01702
2.04187
2.07124
2.10517
2.14361
2.1865
2.23398
2.28678
2.34617
2.41313
2.48777
2.56872
2.65388
2.73751
2.82794
1.86736
1.86326
1.86043
1.86072
1.86455
1.87199
1.88318
1.89829
1.91748
1.94091
1.96872
2.00099
2.03777
2.07914
2.12527
2.17685
2.23495
2.30052
2.37365
2.45299
2.53635
2.61817
2.70648
1.77186
1.7685
1.7663
1.76683
1.77051
1.77752
1.78802
1.80222
1.82029
1.84243
1.86879
1.89952
1.93472
1.97452
2.01915
2.06922
2.12571
2.18948
2.2606
2.33775
2.41876
2.49828
2.5841
1.67819
1.67551
1.6739
1.67466
1.67824
1.68487
1.69475
1.70811
1.72517
1.74611
1.77114
1.8004
1.83404
1.87223
1.91521
1.96357
2.01818
2.0798
2.14851
2.22301
2.30121
2.37805
2.46093
1.58625
1.58421
1.58313
1.58409
1.58757
1.59385
1.60316
1.61576
1.63186
1.65169
1.67545
1.7033
1.7354
1.77194
1.81317
1.85964
1.91214
1.97136
2.03731
2.10878
2.18378
2.25754
2.33716
1.49595
1.49447
1.49384
1.49497
1.49834
1.50428
1.51305
1.52493
1.54014
1.55892
1.58146
1.60793
1.63851
1.67336
1.71276
1.75723
1.80746
1.86404
1.92698
1.99512
2.06657
2.13692
2.21282
1.40717
1.40618
1.40593
1.40716
1.41039
1.41599
1.42425
1.43545
1.44982
1.4676
1.48896
1.51409
1.54314
1.57628
1.61381
1.6562
1.70402
1.75778
1.8175
1.88206
1.94976
2.01642
2.0884
1.31978
1.31922
1.31924
1.32051
1.32357
1.32883
1.3366
1.34716
1.36073
1.37755
1.39779
1.4216
1.44913
1.48057
1.51621
1.55644
1.60173
1.65254
1.70888
1.76972
1.83347
1.89631
1.96413
1.23367
1.23343
1.23363
1.23487
1.23774
1.24267
1.24998
1.25993
1.27276
1.28866
1.30781
1.33034
1.3564
1.38617
1.41989
1.45787
1.50054
1.54829
1.60114
1.65814
1.71781
1.77666
1.84023
1.14875
1.14876
1.14904
1.15022
1.15289
1.15751
1.16438
1.17377
1.1859
1.20094
1.21904
1.24034
1.26496
1.29305
1.32478
1.36044
1.40039
1.44501
1.49429
1.54736
1.60286
1.65759
1.71665
1.06494
1.06515
1.06549
1.06659
1.06909
1.07342
1.0799
1.08877
1.10024
1.11445
1.13155
1.15162
1.17478
1.20113
1.23082
1.26409
1.30127
1.34269
1.38833
1.43739
1.48865
1.53919
1.59374
0.982182
0.98255
0.982923
0.983977
0.98633
0.990422
0.996553
1.00495
1.01578
1.02919
1.04528
1.06412
1.08578
1.11035
1.13795
1.16877
1.20311
1.24127
1.28322
1.32823
1.37521
1.42152
1.47147
0.900408
0.900896
0.901318
0.902352
0.904606
0.908505
0.914329
0.922276
0.932498
0.945105
0.960172
0.97775
0.997882
1.02063
1.04608
1.0744
1.10586
1.1407
1.17891
1.21983
1.26249
1.3045
1.34984
0.819558
0.820146
0.820642
0.821702
0.823902
0.827645
0.833186
0.840699
0.85031
0.862103
0.876127
0.892411
0.910973
0.931847
0.955105
0.980886
1.00941
1.0409
1.07534
1.11214
1.15043
1.1881
1.22869
0.739549
0.740248
0.740861
0.741985
0.744163
0.747771
0.753038
0.760114
0.769099
0.78005
0.792998
0.807945
0.824892
0.843851
0.864873
0.88807
0.913627
0.941747
0.972407
1.00509
1.03903
1.07237
1.1083
0.660307
0.661124
0.661881
0.6631
0.665273
0.668751
0.673737
0.680354
0.68868
0.698752
0.710576
0.724139
0.739424
0.756427
0.775179
0.79577
0.818357
0.843113
0.870025
0.89864
0.928297
0.957402
0.988729
0.581701
0.58265
0.583569
0.584887
0.587056
0.590392
0.595071
0.601194
0.608817
0.617957
0.628605
0.640733
0.65431
0.669321
0.685784
0.703767
0.723403
0.744844
0.768076
0.79271
0.818203
0.843181
0.870082
0.503604
0.504683
0.505756
0.507165
0.509309
0.512473
0.516805
0.522385
0.529248
0.537396
0.546808
0.557447
0.569274
0.582268
0.596435
0.611831
0.628565
0.646767
0.666429
0.687225
0.708694
0.729706
0.752303
0.42587
0.427091
0.428306
0.429768
0.431847
0.43479
0.438719
0.443691
0.449725
0.456813
0.464925
0.474021
0.48406
0.495019
0.506898
0.519743
0.533645
0.548714
0.564941
0.58206
0.599715
0.616967
0.63554
0.348399
0.349778
0.351109
0.352584
0.354543
0.357203
0.360656
0.364943
0.370071
0.376022
0.382767
0.390264
0.39848
0.407391
0.416998
0.427337
0.438486
0.450533
0.463476
0.477112
0.491152
0.504891
0.519686
0.271067
0.272672
0.274116
0.275559
0.277339
0.279646
0.282545
0.286064
0.290201
0.294937
0.300244
0.30609
0.312448
0.3193
0.32665
0.334529
0.342997
0.35213
0.361927
0.372234
0.38286
0.39328
0.404547
0.193808
0.195679
0.19727
0.198668
0.20024
0.202143
0.204422
0.207096
0.210165
0.213612
0.21742
0.221569
0.226041
0.230828
0.235938
0.241396
0.24725
0.253559
0.260329
0.267465
0.274836
0.282108
0.290006
0.116781
0.118523
0.120376
0.121716
0.123085
0.124559
0.126163
0.127925
0.129851
0.13194
0.134191
0.1366
0.139163
0.141884
0.14477
0.147844
0.151144
0.154714
0.158571
0.162679
0.167
0.171387
0.176369
0.0399335
0.0395907
0.0403033
0.0410036
0.0417738
0.0424598
0.0431061
0.043757
0.0444286
0.0451311
0.045871
0.0466517
0.0474762
0.0483481
0.0492747
0.0502683
0.0513494
0.0525445
0.0538789
0.0553696
0.0570526
0.0590127
0.0620285
606.218
606.737
607.422
608.101
485.279
481.803
479.89
480.074
415.561
418.152
419.231
417.715
353.966
356.751
357.044
355.59
291.193
292.401
292.215
291.153
227.194
227.561
227.338
226.69
163.166
163.077
162.85
162.55
100.967
100.545
100.751
100.642
43.344
43.0782
44.4063
43.7509
8.81233
8.53798
8.93272
9.18414
3.88059
4.05491
4.26819
4.44879
3.75904
3.96441
4.1878
4.3658
3.66222
3.86277
4.08942
4.26648
3.5758
3.77057
3.99336
4.16564
3.46863
3.65933
3.87988
4.05254
3.35357
3.54183
3.75964
3.93085
3.23484
3.41998
3.63408
3.8027
3.1132
3.29422
3.50334
3.66849
2.98885
3.16474
3.36799
3.52875
2.86225
3.03208
3.22823
3.38393
2.73396
2.89695
3.08533
3.2351
2.60452
2.7601
2.93962
3.08282
2.47384
2.62148
2.79188
2.92797
2.34217
2.48147
2.64212
2.77098
2.21006
2.34078
2.49174
2.61305
2.07811
2.20022
2.34108
2.45471
1.94634
2.0598
2.19082
2.29666
1.81487
1.91972
2.04077
2.13895
1.68402
1.78033
1.89176
1.98222
1.55402
1.64198
1.74365
1.82644
1.42462
1.50431
1.5966
1.67179
1.29575
1.36727
1.45018
1.51801
1.16765
1.23113
1.30503
1.3656
1.04067
1.09632
1.16117
1.2146
0.914751
0.962749
1.01895
1.06537
0.789963
0.830551
0.878195
0.917855
0.666483
0.699935
0.73947
0.772503
0.54439
0.571094
0.602651
0.629235
0.423349
0.443636
0.467711
0.48803
0.303153
0.317292
0.334005
0.348312
0.184471
0.192363
0.20141
0.209725
0.0677393
0.0706187
0.0710542
0.0721787
611.509
614.488
601.852
587.567
584.905
586.472
594.485
604.122
613.149
614.271
612.431
611.028
609.454
608.333
608.28
608.114
610.315
613.872
623.993
485.91
498.217
493.339
484.989
477.232
473.914
480.282
487.955
490.02
489.725
487.713
486.132
484.935
484.311
485.236
487.625
491.338
495.508
509.852
414.316
413.405
411.637
411.561
409.186
403.194
396.222
395.323
395.325
394.605
393.772
392.757
391.552
390.266
388.947
388.382
389.357
391.874
399.483
352.053
349.552
348.069
346.607
344.191
339.462
332.225
329.078
328.443
327.832
327.693
326.95
325.733
324.058
321.657
318.813
316.858
315.549
314.943
288.998
286.231
283.928
281.894
279.723
276.82
272.47
268.711
266.67
265.699
265.032
264.234
263.214
261.922
260.291
258.553
257.001
254.721
251.661
225.185
222.533
219.861
217.399
214.937
212.124
208.765
205.93
204.092
202.925
202.166
201.524
200.878
200.185
199.41
198.646
197.714
195.612
192.068
161.603
158.827
155.638
152.616
149.782
146.893
143.997
141.645
139.94
138.747
138.02
137.622
137.42
137.361
137.563
137.969
138.18
137.239
134.391
99.2635
95.5424
91.262
87.2223
84.01
81.1872
78.6622
76.7759
75.5563
74.5689
73.9864
73.7908
73.8952
74.3221
75.0929
76.047
76.9148
77.232
74.8875
40.665
36.274
32.5783
30.558
29.2513
27.3749
25.5068
24.5933
24.4159
24.0146
23.732
23.8103
24.1881
24.6715
25.8381
26.8688
27.4757
27.9385
26.512
8.09486
6.22527
5.6586
6.14287
6.17522
5.54236
5.06893
5.00191
4.98373
5.01216
5.0481
5.11645
5.31857
5.52142
6.42238
7.02406
7.23538
7.07441
6.49604
4.59993
4.741
4.8536
4.91353
4.92008
4.93617
4.97648
5.02531
5.08652
5.14796
5.20595
5.25924
5.3437
5.43789
5.38326
5.31557
5.28179
5.31755
5.31657
4.53573
4.63271
4.72304
4.79815
4.84703
4.88363
4.93103
4.98684
5.05581
5.11413
5.148
5.1663
5.19269
5.24131
5.27737
5.25659
5.229
5.20968
5.19313
4.43039
4.51164
4.58831
4.65687
4.71381
4.76245
4.80521
4.85417
4.90798
4.95865
4.98876
5.00707
5.01978
5.03615
5.05583
5.05865
5.06105
5.05794
5.0541
4.31998
4.39065
4.45444
4.51531
4.56565
4.60908
4.64616
4.67287
4.70374
4.74249
4.78235
4.8135
4.82588
4.83706
4.85748
4.89093
4.90918
4.9149
4.91589
4.20387
4.26687
4.32578
4.3834
4.43186
4.47261
4.50716
4.53357
4.5521
4.58137
4.62057
4.66071
4.68581
4.70276
4.72831
4.75332
4.76894
4.77455
4.77643
4.08029
4.13993
4.19636
4.25368
4.30424
4.34813
4.38567
4.41677
4.44156
4.46765
4.50175
4.53631
4.56125
4.57985
4.59897
4.61654
4.62749
4.63175
4.63421
3.94983
4.00787
4.06308
4.12054
4.17282
4.21928
4.25977
4.2943
4.32383
4.35196
4.38147
4.40915
4.43076
4.44734
4.46205
4.47429
4.48187
4.48547
4.48862
3.81304
3.87018
3.9247
3.98213
4.03525
4.08307
4.12512
4.1616
4.19311
4.22173
4.2486
4.27243
4.29141
4.30616
4.31799
4.32687
4.33241
4.33566
4.33919
3.67013
3.72681
3.78084
3.83801
3.89133
3.93968
3.98243
4.01966
4.052
4.08048
4.10581
4.12749
4.14481
4.15807
4.16801
4.1749
4.17911
4.1821
4.18566
3.52176
3.57802
3.63161
3.6883
3.74142
3.78979
3.83272
3.87024
3.90277
3.93101
3.95538
3.97577
3.99194
4.00413
4.01282
4.01845
4.02187
4.02467
4.02798
3.36852
3.42435
3.47743
3.53345
3.58609
3.63417
3.67696
3.71444
3.74693
3.77487
3.79859
3.81814
3.83351
3.84495
3.85286
3.85779
3.86078
3.86339
3.86637
3.21139
3.26652
3.31895
3.37412
3.42606
3.47361
3.51604
3.55327
3.58555
3.61319
3.63644
3.65544
3.6703
3.68126
3.68873
3.6933
3.6961
3.69858
3.70118
3.05103
3.10533
3.15694
3.21108
3.26212
3.30896
3.35084
3.38768
3.41964
3.44697
3.46988
3.48852
3.50306
3.51376
3.52102
3.52548
3.52821
3.53054
3.53286
2.88851
2.94165
2.99221
3.04511
3.09507
3.14101
3.1822
3.21851
3.25008
3.27709
3.29972
3.31812
3.33249
3.34309
3.35031
3.35477
3.35753
3.35978
3.36188
2.7245
2.77629
2.82556
2.87698
2.92567
2.97054
3.01087
3.04655
3.07765
3.10431
3.12669
3.14493
3.15922
3.16981
3.1771
3.18168
3.1845
3.18668
3.18867
2.55996
2.60998
2.65769
2.70741
2.75461
2.79821
2.83754
2.87246
2.903
2.92927
2.9514
2.96951
2.98378
2.99443
3.00185
3.00658
3.00953
3.01171
3.01363
2.39528
2.44329
2.48918
2.53697
2.58247
2.62461
2.66278
2.69681
2.7267
2.75253
2.77438
2.79236
2.80662
2.81737
2.82495
2.82989
2.83297
2.83516
2.83709
2.23107
2.2767
2.32051
2.36615
2.40972
2.45023
2.48708
2.52008
2.54921
2.57451
2.59605
2.61388
2.62813
2.63899
2.64675
2.65188
2.65513
2.65741
2.65934
2.06747
2.11056
2.15204
2.19531
2.23676
2.27545
2.31081
2.34265
2.37091
2.39561
2.41676
2.4344
2.44863
2.45958
2.46752
2.47287
2.47629
2.47865
2.48065
1.90489
1.94511
1.98407
2.02477
2.06391
2.10061
2.13432
2.16485
2.19213
2.21611
2.23681
2.25422
2.26838
2.27942
2.28753
2.29307
2.29668
2.29918
2.30121
1.74327
1.78055
1.81682
1.85479
1.89145
1.92599
1.9579
1.98697
2.01312
2.03629
2.05645
2.07356
2.08764
2.09873
2.10699
2.11276
2.11655
2.11916
2.12125
1.58288
1.61707
1.65052
1.68562
1.71964
1.75186
1.7818
1.80926
1.83416
1.8564
1.87592
1.89267
1.9066
1.91773
1.92615
1.93211
1.9361
1.93884
1.94093
1.42377
1.45489
1.48542
1.5175
1.54875
1.57849
1.6063
1.632
1.65549
1.67666
1.69544
1.71174
1.72547
1.73661
1.74517
1.75135
1.75552
1.75833
1.76041
1.26628
1.29423
1.32174
1.35072
1.37905
1.40617
1.43169
1.45546
1.47737
1.49732
1.51523
1.53097
1.54444
1.55554
1.56423
1.57059
1.57493
1.57781
1.57979
1.11051
1.13531
1.15976
1.18553
1.21083
1.23518
1.25825
1.27991
1.30006
1.31862
1.33549
1.35054
1.36364
1.37463
1.3834
1.38994
1.39441
1.39727
1.39914
0.95678
0.978369
0.99968
1.02217
1.04433
1.06577
1.08623
1.1056
1.1238
1.14077
1.15641
1.1706
1.18318
1.19397
1.20276
1.20939
1.21395
1.21676
1.21843
0.805141
0.82354
0.841672
0.860812
0.879741
0.898151
0.915843
0.932735
0.948781
0.963932
0.978117
0.991228
1.00311
1.01354
1.02224
1.02894
1.0335
1.03616
1.03766
0.655769
0.67087
0.685777
0.701515
0.717132
0.732398
0.747171
0.761402
0.775071
0.788156
0.80062
0.812385
0.82332
0.833204
0.841707
0.848382
0.852938
0.855463
0.856738
0.508403
0.520208
0.531854
0.544144
0.556376
0.568389
0.580094
0.591471
0.602524
0.613262
0.623683
0.633761
0.643418
0.652482
0.660621
0.667334
0.671995
0.674428
0.675645
0.362872
0.371332
0.379677
0.388462
0.397218
0.405855
0.414325
0.422633
0.430801
0.438863
0.446851
0.454793
0.462693
0.470493
0.478003
0.484726
0.489859
0.49281
0.494298
0.218811
0.224159
0.229213
0.234489
0.239743
0.244943
0.250077
0.255161
0.260225
0.265311
0.27047
0.275765
0.28127
0.287062
0.293172
0.299451
0.305148
0.309277
0.312913
0.0742163
0.0757326
0.077287
0.0789517
0.0806355
0.0823102
0.0839706
0.0856264
0.0872958
0.0890038
0.0907824
0.0926727
0.094729
0.0970267
0.0996674
0.102708
0.105576
0.106318
0.114473
)
;

boundaryField
{
    leftWall
    {
        type            calculated;
        value           nonuniform List<scalar> 
50
(
6515.06
5730.79
4953.45
4185.57
3427.01
2678.11
1939.86
1227.96
730.053
526.734
413.319
298.439
190.32
103.912
42.0137
10.4108
3.02212
2.93204
2.80607
2.69258
2.58337
2.4767
2.37159
2.26765
2.16493
2.06387
1.9647
1.86736
1.77186
1.67819
1.58625
1.49595
1.40717
1.31978
1.23367
1.14875
1.06494
0.982182
0.900408
0.819558
0.739549
0.660307
0.581701
0.503604
0.42587
0.348399
0.271067
0.193808
0.116781
0.0399335
)
;
    }
    rightWall
    {
        type            calculated;
        value           nonuniform List<scalar> 
50
(
2925.9
2333.02
1789.06
1343.08
1045.97
870.551
760.447
706.416
623.993
509.852
399.483
314.943
251.661
192.068
134.391
74.8875
26.512
6.49604
5.31657
5.19313
5.0541
4.91589
4.77643
4.63421
4.48862
4.33919
4.18566
4.02798
3.86637
3.70118
3.53286
3.36188
3.18867
3.01363
2.83709
2.65934
2.48065
2.30121
2.12125
1.94093
1.76041
1.57979
1.39914
1.21843
1.03766
0.856738
0.675645
0.494298
0.312913
0.114473
)
;
    }
    lowerWall
    {
        type            calculated;
        value           nonuniform List<scalar> 
62
(
6913.21
6855.24
6775.04
6666.79
6542.98
6412.79
6283.43
6159.45
6043.38
5936.12
5838.26
5749.35
5668.58
5595.15
5528.51
5468.47
5415.1
5368.62
5329.27
5296.58
5269.55
5251.56
5241.85
4843.91
4047.1
3249.28
2450.28
1649.91
1016.48
753.785
695.412
678.304
694.438
707.999
706.441
2185.63
1618.78
1337.43
1173.29
995.637
869.292
795.829
731.447
2534.36
2539.17
2566.67
2629.98
2690.69
2733.1
2737.72
2660.86
2689.39
2730.26
2752.12
2757.35
2770.41
2833.76
2968.43
3061.08
3138.31
3194.38
3226.53
)
;
    }
    atmosphere
    {
        type            calculated;
        value           nonuniform List<scalar> 
46
(
-1.22152e-07
0
0
0
0
0
0
0
0
0
0
0
0
0
0
0
0
0
0
0
0
0
0
0
-1.44496e-06
-4.63154e-06
-1.14267e-05
-2.05312e-05
-6.16069e-05
-0.000127331
-0.000215889
-0.000325787
-0.000454891
-0.000599204
-0.000752443
-0.000906535
-0.00105269
-0.00118271
-0.00129046
-0.00137321
-0.0014327
-0.00147618
-0.00151705
-0.00157133
-0.00169109
-0.000991345
)
;
    }
    defaultFaces
    {
        type            empty;
    }
}


// ************************************************************************* //
