/*--------------------------------*- C++ -*----------------------------------*\
  =========                 |
  \\      /  F ield         | OpenFOAM: The Open Source CFD Toolbox
   \\    /   O peration     | Website:  https://openfoam.org
    \\  /    A nd           | Version:  13
     \\/     M anipulation  |
\*---------------------------------------------------------------------------*/
FoamFile
{
    format      ascii;
    class       volScalarField;
    location    "2";
    object      p_rgh;
}
// * * * * * * * * * * * * * * * * * * * * * * * * * * * * * * * * * * * * * //

dimensions      [1 -1 -2 0 0 0 0];

internalField   nonuniform List<scalar> 
2268
(
6913.21
6855.24
6775.04
6666.79
6542.98
6412.79
6283.43
6159.45
6043.38
5936.12
5838.26
5749.35
5668.58
5595.15
5528.51
5468.47
5415.1
5368.62
5329.27
5296.58
5269.55
5251.56
5241.85
6925.24
6870.48
6792.05
6682.75
6556.38
6422.56
6289.04
6160.71
6040.25
5929.23
5828.16
5736.71
5654.08
5579.37
5511.89
5451.34
5397.81
5351.51
5312.95
5282.29
5259.32
5247.78
5241.34
6944.2
6888.62
6810.38
6699.64
6570.52
6432.78
6294.8
6161.77
6036.69
5921.25
5816.37
5721.81
5636.81
5560.43
5491.93
5431
5377.72
5332.35
5295.89
5268.88
5251.35
5245.91
5240.03
6972.62
6911.26
6829.97
6716.18
6583.72
6441.87
6299.62
6162.2
6032.78
5913.01
5804.38
5706.74
5619.29
5541.12
5471.5
5410.15
5357.25
5313.19
5279.34
5256.59
5244.75
5243.95
5237.33
7010.36
6940.92
6854.02
6735.34
6598.33
6451.34
6304.29
6162.32
6028.66
5904.76
5793.18
5693.69
5605.2
5526.59
5456.94
5395.8
5343.46
5300.08
5266.86
5244.73
5236.2
5239.85
5232.28
7057.76
6979.84
6885.7
6759.82
6615.99
6460.43
6306.63
6159.99
6017.61
5837.38
5621.43
5380.51
5124.71
4862
4597.95
4338.59
4091.47
3831.04
3640.63
3534.97
3520.66
3583.69
3586.24
7115.81
7027.97
6921.56
6782.33
6585.07
6043.48
5380.17
4636
3855.82
3131.19
2575.65
2156.32
1839.66
1599.81
1418.36
1281.71
1186.32
1180.91
1174.07
1165.26
1154.47
1143.8
1135.76
6954.42
6435.79
5648.96
4539.17
3248.23
2337.78
1716.92
1348.82
1213.79
1209.64
1206.74
1204.11
1201.6
1199.08
1196.41
1193.46
1189.79
1183.84
1175.91
1166.16
1155.08
1144.56
1136.6
2534.36
2539.17
2566.67
2629.98
2690.69
2733.1
2737.72
2660.86
2689.39
2730.26
2752.12
2757.35
2770.41
2833.76
2968.43
3061.08
3138.31
3194.38
3226.53
2262.4
2255.9
2318.06
2445.89
2566.15
2630.61
2713.52
2797.16
2841.04
2878.19
2903.85
2872.02
2881.09
2925.52
2980.01
3067.84
3153.72
3212.45
3221.56
1673.54
1671.38
1637.62
1673.16
1776.18
1861.98
2014.21
2182.32
2457.75
2624.94
2670.07
2737.01
2694.31
2785.54
2839.14
2959.68
3141.04
3157.5
2989.43
1830.68
1848.83
1698.24
1649.15
1558.25
1491.52
1404.51
1304.87
1238.91
1241.6
1355.06
1720.72
1738.09
1739.45
1892.78
2043.5
2164.06
2471.95
2702.2
1712.5
1802.8
1821.7
1822.29
1598.32
1423.53
1368.83
1308.84
1211.03
1161.58
1057.19
1040.74
1482.88
1586.62
1614.53
1921.43
2068.52
1885.73
1900.79
1346.25
1426.45
1626.85
1639.63
1620.97
1471.69
1458.01
1540.72
1274.54
1165.63
1128.36
996.037
915.693
1115.02
1238.12
1308.6
1305.06
1530.25
1716.19
1170.6
1150.95
1226.03
1362.19
1405.89
1462.64
1463.89
1569.39
1232.96
1156.18
1152.49
1140.47
1075.14
999.251
1010.33
1074.78
1100.44
1086.89
1140.12
1248.29
1132.51
1140.57
1228.67
1138.35
1369.63
1516.6
1204.61
1151.24
1153.73
1151.41
1149.53
1146.25
1134.06
1129.63
1132.37
1139.82
1141.96
1035.62
2122.63
1706.23
1409.17
1248.32
1209.59
1209.92
1210.01
1210.07
1210.17
1209.57
1208.16
1206.13
1203.65
1200.77
1197.47
1193.68
1189.04
1182.85
1174.92
1165.45
1155.33
1146.24
1136.57
1185.4
1189.76
1197.02
1203
1206.87
1209.04
1210.19
1210.46
1210.09
1209.26
1207.85
1206.07
1204
1201.53
1198.54
1195.04
1190.63
1184.8
1176.02
1157.9
1136
1114.9
1084.22
1197.18
1200.29
1204.5
1207.97
1210.17
1211.43
1212
1211.65
1210.85
1209.9
1208.62
1207.14
1205.49
1202.35
1192.45
1180.58
1167.93
1140.89
1092.68
1033.48
973.116
846.261
816.971
1207.49
1210.4
1209.97
1210.76
1212.74
1214.11
1213.89
1209.83
1200.8
1191.11
1177.9
1158.84
1132.64
1088.41
1019.43
982.017
930.024
860.432
809.162
750.557
729.633
790.618
802.746
1092.95
1123.69
1133.34
1099.79
1049.73
1024.52
1036.39
962.99
938.318
902.326
833.611
774.502
736.104
707.987
679.991
664.067
717.979
727.038
701.126
733.63
790.526
800.451
802.356
841.418
753.085
724.614
710.477
703.266
701.409
693.247
634.203
628.07
666.874
673.986
678.545
702.686
724.093
734.043
750.24
763.645
773.704
779.098
788.775
797.906
802.091
804.654
578.423
623.291
661.151
667.032
667.068
665.626
661.689
658.936
655.412
654.249
660.946
661.501
672.029
700.303
728.065
754.748
768.063
780.497
790.066
796.898
801.657
804.564
805.614
178.965
213.452
238.804
245.362
241.036
228.377
215.312
206.777
196.251
183.354
180.479
196.613
218.456
254.108
319.904
414.238
559.407
734.732
787.632
799.635
806.422
808.826
807.728
4.55711
4.57878
4.52191
4.54817
4.60618
4.66164
4.70564
4.75978
4.85162
4.97592
5.09372
5.18995
5.29114
5.40697
5.58856
8.46887
31.7329
122.577
325.3
526.97
677.856
764.941
774.317
4.59297
4.60247
4.60139
4.63009
4.90747
4.94296
4.69023
4.68968
4.72315
4.76401
4.80783
4.85185
4.90007
4.954
5.02662
5.14321
5.3119
5.48876
5.58285
14.7415
57.4854
128.606
158.144
4.59321
4.59628
4.59468
4.67799
4.61196
4.62623
4.65487
4.6881
4.73276
4.84708
4.95968
4.97524
4.95047
4.9892
5.03618
5.05538
5.05568
5.09829
5.18005
5.28513
5.39911
5.45135
5.49386
4.60478
4.60252
4.59443
4.59642
4.60771
4.62738
4.65402
4.68942
4.83802
4.94106
4.99457
5.04996
4.95973
4.99581
5.04194
5.07381
5.09894
5.12888
5.16796
5.19917
5.26137
5.35415
5.46996
4.61978
4.61274
4.60784
4.60989
4.6194
4.63583
4.65864
4.6878
4.82811
4.94005
4.98883
4.95767
4.92604
4.97917
5.02843
5.07333
5.11613
5.16926
5.21552
5.26239
5.3229
5.40543
5.51041
4.63822
4.63054
4.62578
4.62703
4.63476
4.64859
4.66824
4.6934
4.73584
4.82002
4.86395
4.85415
4.90705
4.96013
5.01235
5.06437
5.11936
5.18038
5.24546
5.30815
5.38336
5.46497
5.55697
4.65809
4.65059
4.64554
4.64614
4.65253
4.66445
4.6818
4.7043
4.73136
4.76374
4.80216
4.84688
4.89915
4.95084
5.00098
5.05343
5.11072
5.17739
5.25055
5.32685
5.40934
5.49209
5.58247
4.67916
4.67202
4.66712
4.66728
4.67267
4.6831
4.69856
4.71895
4.7442
4.7745
4.8103
4.85181
4.89718
4.94472
4.99434
5.04834
5.1085
5.17703
5.25242
5.33257
5.41785
5.50259
5.59459
4.70162
4.69514
4.69056
4.69054
4.69529
4.7047
4.71877
4.7375
4.76091
4.78927
4.82307
4.86153
4.90382
4.94913
4.99818
5.05236
5.11304
5.18148
5.25732
5.33894
5.42531
5.51059
5.60314
4.72576
4.72008
4.71602
4.71599
4.7203
4.72889
4.74183
4.75918
4.78102
4.80752
4.83892
4.87522
4.91534
4.95912
5.0076
5.06132
5.12158
5.18952
5.2651
5.34687
5.4331
5.51795
5.60982
4.75178
4.74691
4.74345
4.74352
4.74751
4.75545
4.76744
4.78359
4.80402
4.82889
4.85829
4.89222
4.93064
4.97349
5.02097
5.07379
5.13318
5.20014
5.27478
5.35572
5.44088
5.52452
5.61495
4.77963
4.77553
4.77271
4.77298
4.77677
4.78419
4.79537
4.81048
4.82967
4.85309
4.88089
4.91316
4.94994
4.99132
5.03746
5.08904
5.14714
5.21271
5.28583
5.36517
5.44854
5.53036
5.61867
4.80932
4.80596
4.80376
4.80427
4.80793
4.81491
4.8254
4.83959
4.85766
4.8798
4.90616
4.93689
4.97209
5.01189
5.05652
5.1066
5.16309
5.22685
5.29797
5.37512
5.45613
5.53565
5.62147
4.84082
4.83815
4.83653
4.83728
4.84085
4.84745
4.85733
4.87068
4.88773
4.90868
4.9337
4.96296
4.9966
5.03479
5.07778
5.12613
5.18074
5.24236
5.31107
5.38557
5.46377
5.54061
5.62349
4.87407
4.87203
4.87094
4.87189
4.87537
4.88163
4.89093
4.90351
4.91962
4.93945
4.9632
4.99105
5.02315
5.05969
5.10092
5.14739
5.1999
5.25911
5.32506
5.39653
5.47153
5.54529
5.62491
4.90895
4.90746
4.90683
4.90795
4.91132
4.91725
4.92601
4.93788
4.95309
4.97187
4.99441
5.02088
5.05145
5.0863
5.1257
5.17017
5.22041
5.27698
5.33992
5.40806
5.47952
5.54986
5.62576
4.94536
4.94436
4.9441
4.94532
4.94855
4.95414
4.9624
4.97359
4.98796
5.00573
5.0271
5.05223
5.08128
5.11442
5.15195
5.19434
5.24216
5.29592
5.35563
5.4202
5.48789
5.55456
5.62654
4.98315
4.98258
4.98259
4.98385
4.98691
4.99217
4.99994
5.01049
5.02407
5.04088
5.06112
5.08493
5.11246
5.1439
5.17954
5.21977
5.26506
5.31587
5.37221
5.43306
5.4968
5.55964
5.62746
5.02223
5.02198
5.02217
5.0234
5.02627
5.0312
5.03851
5.04846
5.06129
5.07719
5.09633
5.11886
5.14492
5.1747
5.20842
5.2464
5.28906
5.33682
5.38967
5.44666
5.50634
5.56518
5.62875
5.06249
5.06249
5.06277
5.06394
5.06662
5.07123
5.07811
5.0875
5.09962
5.11466
5.13276
5.15406
5.17868
5.20677
5.2385
5.27416
5.31411
5.35873
5.40801
5.46108
5.51657
5.57131
5.63037
5.10387
5.10408
5.10441
5.10551
5.108
5.11233
5.11881
5.12769
5.13915
5.15336
5.17046
5.19054
5.2137
5.24004
5.26974
5.30301
5.34018
5.3816
5.42724
5.4763
5.52757
5.5781
5.63265
5.1463
5.14666
5.14703
5.14809
5.15044
5.15453
5.16066
5.16906
5.17989
5.1933
5.20939
5.22823
5.24989
5.27446
5.30205
5.33288
5.36722
5.40538
5.44733
5.49234
5.53932
5.58563
5.63558
5.18972
5.1902
5.19062
5.19166
5.19391
5.19781
5.20363
5.21158
5.2218
5.23441
5.24947
5.26705
5.28719
5.30993
5.33538
5.36371
5.39516
5.43
5.46822
5.50914
5.55179
5.5938
5.63914
5.23406
5.23464
5.23514
5.2362
5.2384
5.24214
5.24768
5.2552
5.26481
5.2766
5.29062
5.30691
5.32547
5.34634
5.3696
5.39538
5.4239
5.45539
5.48984
5.52664
5.56492
5.6026
5.64319
5.27924
5.27994
5.28055
5.28168
5.28386
5.28746
5.29273
5.29981
5.30879
5.31974
5.33269
5.34764
5.36458
5.38354
5.40457
5.42776
5.45332
5.48144
5.5121
5.54478
5.57872
5.61206
5.64799
5.32519
5.32601
5.32677
5.32799
5.33016
5.33364
5.33862
5.34524
5.35357
5.36364
5.37546
5.38903
5.40431
5.42131
5.44007
5.46066
5.48324
5.508
5.53491
5.56353
5.59318
5.62229
5.65362
5.37178
5.37273
5.37365
5.37497
5.37714
5.38047
5.38515
5.39128
5.3989
5.40804
5.41869
5.43081
5.44439
5.4594
5.47586
5.49385
5.51348
5.53493
5.55816
5.58279
5.60828
5.63326
5.66016
5.41888
5.41996
5.42103
5.42244
5.42458
5.42775
5.43208
5.43766
5.44452
5.45267
5.46208
5.47272
5.48455
5.49754
5.51171
5.52711
5.54384
5.56204
5.5817
5.6025
5.62397
5.64498
5.66758
5.46634
5.46756
5.46878
5.47024
5.47232
5.47526
5.47919
5.48416
5.4902
5.49728
5.5054
5.51449
5.52453
5.53549
5.54737
5.56021
5.57411
5.58918
5.60541
5.62253
5.64019
5.65744
5.67601
5.51406
5.51544
5.51677
5.51825
5.52021
5.52287
5.52632
5.53061
5.53574
5.54169
5.54843
5.55593
5.56414
5.57306
5.58266
5.593
5.60415
5.6162
5.62914
5.64278
5.65682
5.67056
5.68535
5.56193
5.56353
5.56497
5.56642
5.5682
5.57051
5.5734
5.57692
5.58106
5.5858
5.5911
5.59695
5.60331
5.61016
5.61751
5.62539
5.63386
5.64299
5.65279
5.66309
5.67372
5.68414
5.69541
5.60986
5.61173
5.61332
5.61472
5.61629
5.6182
5.62048
5.62315
5.62622
5.62967
5.63347
5.63762
5.64209
5.64688
5.65199
5.65745
5.6633
5.66961
5.67638
5.68352
5.69089
5.69816
5.70606
5.65803
5.65977
5.66162
5.66296
5.66433
5.66581
5.66741
5.66917
5.6711
5.67319
5.67544
5.67785
5.68041
5.68313
5.68602
5.68909
5.69239
5.69596
5.69982
5.70393
5.70825
5.71264
5.71762
5.70638
5.70603
5.70675
5.70745
5.70822
5.7089
5.70955
5.7102
5.71087
5.71157
5.71231
5.71309
5.71392
5.71479
5.71572
5.71671
5.71779
5.71899
5.72032
5.72181
5.7235
5.72546
5.72847
1220.55
1354.14
1464.56
1446.18
971.086
839.833
776.459
793.212
804.738
747.143
738.763
741.302
795.591
759.485
762.338
792.251
802.657
807.876
809.363
808.604
806.818
807.285
807.065
806.41
805.483
805.394
805.168
804.867
805.882
805.46
805.666
805.557
707.18
681.992
746.167
781.547
132.575
117.678
128.013
135.989
5.66679
5.84113
6.05477
6.2356
5.66968
5.87503
6.09846
6.27645
5.6981
5.89864
6.12529
6.30235
5.73695
5.93169
6.15446
6.32673
5.75499
5.94565
6.16618
6.33884
5.76514
5.95335
6.17114
6.34233
5.77153
5.95667
6.17073
6.33934
5.77504
5.95604
6.16516
6.3303
5.77585
5.95174
6.15498
6.31575
5.77443
5.94425
6.1404
6.29611
5.77133
5.93432
6.1227
6.27246
5.76708
5.92265
6.10218
6.24538
5.76159
5.90923
6.07963
6.21572
5.75511
5.89441
6.05506
6.18392
5.74819
5.87891
6.02988
6.15119
5.74144
5.86355
6.00441
6.11804
5.73486
5.84832
5.97935
6.08518
5.72859
5.83344
5.95449
6.05267
5.72293
5.81925
5.93067
6.02113
5.71813
5.80609
5.90775
5.99055
5.71392
5.79361
5.88591
5.96109
5.71024
5.78177
5.86468
5.93251
5.70734
5.77082
5.84473
5.90529
5.70555
5.7612
5.82606
5.87949
5.70483
5.75283
5.80903
5.85545
5.70524
5.74583
5.79347
5.83313
5.70695
5.74041
5.77994
5.81297
5.71005
5.73676
5.76832
5.7949
5.71421
5.7345
5.75857
5.77889
5.71921
5.73335
5.75006
5.76437
5.72572
5.73361
5.74266
5.75097
5.73418
5.73706
5.7375
5.73862
1306.29
1065.33
1076.12
1037.66
1185.94
1224.17
1261.93
1135.43
1146.56
1147.63
1146.15
1144.93
1143.34
1142.03
1141.82
1141.67
1143.87
1147.35
1109.64
894.336
1012.19
1025.21
910.835
831.355
798.623
1000.51
1084.4
1119.84
1123.14
1113.43
1106.47
1104.14
1104.62
1127.08
1146.78
1150.11
1152.9
1146.13
789.682
825.569
798.244
802.242
799.921
763.379
848.382
887.423
866.929
872.805
843.347
832.676
827.793
825.89
843.939
901.859
951.354
995.678
1126.98
793.261
801.843
801.755
801.305
799.267
765.201
728.655
758.512
784.284
782.651
782.215
781.515
780.395
778.925
777.144
774.705
774.141
798.146
862.438
806.343
803.385
801.074
798.597
796.073
794.114
789.737
785.84
783.961
782.821
782.143
781.357
780.337
778.97
777.567
776.39
775.471
790.844
828.446
804.905
802.254
799.579
797.117
794.658
791.844
788.486
785.65
783.811
782.643
781.886
781.245
780.598
779.905
779.13
778.299
776.696
779.924
782.995
803.92
801.147
797.96
794.935
792.102
789.214
786.319
783.966
782.258
781.064
780.338
779.941
779.74
779.68
779.882
780.279
777.24
772.561
770.997
804.179
800.458
796.178
792.138
788.928
786.105
783.577
781.69
780.471
779.483
778.901
778.705
778.811
779.248
781.201
791.169
799.241
793.86
783.828
774.388
751.728
670.493
597.586
576.803
565.566
537.325
524.688
540.12
544.151
546.907
555.205
565.667
571.747
561.912
558.18
543.193
538.629
516.598
108.469
45.723
23.2022
38.1282
42.9556
23.0447
9.20371
6.66611
6.82268
6.75403
7.23515
8.81683
11.5934
12.7105
43.7697
66.4639
70.8094
56.7802
37.2371
6.38588
6.52646
6.63906
6.699
6.70577
6.72313
6.76935
6.84123
6.9803
7.26791
7.85557
8.72521
9.67425
9.72393
7.16939
7.11517
7.06758
7.10349
7.10272
6.44639
6.54337
6.63375
6.70891
6.75789
6.79539
6.8483
6.96372
7.12331
7.14633
7.1952
7.11958
7.66579
8.00316
7.77428
7.2968
7.14257
7.12471
7.10596
6.46626
6.54752
6.62423
6.69285
6.74995
6.79908
6.84721
7.21604
7.96412
7.91165
7.1542
7.06573
8.06371
8.66234
8.64873
7.31618
7.10231
7.0985
7.09111
6.48106
6.55173
6.61553
6.67649
6.72695
6.77039
6.8096
7.00505
7.94982
7.98659
7.56684
6.98355
7.03391
7.49702
7.11986
7.10072
7.07394
7.07797
7.07745
6.49015
6.55314
6.61204
6.66975
6.71836
6.75907
6.79358
6.82025
7.02922
7.39519
7.15565
6.95254
6.97614
6.99228
7.01549
7.03977
7.05592
7.06101
7.06328
6.49175
6.55139
6.60781
6.66518
6.71585
6.75978
6.79751
6.82858
6.85325
6.87926
6.91345
6.94942
6.97403
6.99214
7.01066
7.02803
7.03895
7.04343
7.04649
6.48646
6.5445
6.59971
6.6572
6.70948
6.7559
6.79734
6.83227
6.86138
6.88885
6.91836
6.94666
6.9694
6.98579
6.99923
7.01098
7.01854
7.02248
7.02613
6.47484
6.53198
6.58651
6.64396
6.69706
6.74489
6.78713
6.82468
6.85602
6.88386
6.91058
6.93471
6.95467
6.96917
6.98016
6.98875
6.99431
6.99779
7.00193
6.45712
6.5138
6.56783
6.62501
6.67834
6.7267
6.76944
6.8067
6.83907
6.86759
6.89293
6.91454
6.93187
6.94511
6.95503
6.96193
6.96618
6.96923
6.97278
6.43394
6.4902
6.54379
6.60048
6.6536
6.70199
6.74493
6.78245
6.815
6.84326
6.86765
6.88799
6.90413
6.91631
6.92501
6.93066
6.93411
6.93689
6.94017
6.40588
6.46172
6.5148
6.57082
6.62346
6.67155
6.71434
6.75183
6.78433
6.81228
6.836
6.85554
6.8709
6.88233
6.89024
6.89519
6.89818
6.90078
6.90375
6.37395
6.42907
6.48151
6.53668
6.58861
6.63618
6.6786
6.71584
6.74812
6.77576
6.79901
6.81801
6.83286
6.84383
6.8513
6.85587
6.85867
6.86115
6.86375
6.33878
6.39308
6.44469
6.49883
6.54987
6.59671
6.63859
6.67543
6.7074
6.73473
6.75763
6.77627
6.79081
6.80152
6.80878
6.81325
6.81597
6.81832
6.82064
6.30145
6.35459
6.40515
6.45805
6.50802
6.55396
6.59514
6.63146
6.66303
6.69004
6.71266
6.73107
6.74544
6.75604
6.76326
6.76773
6.77049
6.77276
6.77485
6.26263
6.31443
6.36369
6.41512
6.46381
6.50867
6.54901
6.58469
6.61578
6.64245
6.66482
6.68307
6.69736
6.70795
6.71524
6.71983
6.72267
6.72487
6.72686
6.22329
6.27331
6.32102
6.37074
6.41794
6.46154
6.50087
6.53579
6.56633
6.5926
6.61473
6.63284
6.64711
6.65777
6.66519
6.66993
6.6729
6.67516
6.67702
6.1838
6.23182
6.2777
6.32549
6.37099
6.41314
6.45131
6.48533
6.51522
6.54105
6.5629
6.58089
6.59515
6.60591
6.61349
6.61844
6.62156
6.62383
6.62574
6.14479
6.19042
6.23423
6.27987
6.32344
6.36395
6.4008
6.43379
6.46293
6.48823
6.50977
6.5276
6.54185
6.55272
6.56048
6.56562
6.56892
6.57132
6.57318
6.10639
6.14947
6.19095
6.23423
6.27568
6.31437
6.34973
6.38156
6.40983
6.43452
6.45567
6.47332
6.48755
6.4985
6.50644
6.51181
6.5153
6.51776
6.51969
6.069
6.10921
6.14817
6.18888
6.22802
6.26472
6.29843
6.32896
6.35623
6.38022
6.40092
6.41833
6.4325
6.44353
6.45165
6.45721
6.4609
6.4635
6.46544
6.03257
6.06985
6.10612
6.14409
6.18075
6.21529
6.2472
6.27627
6.30242
6.3256
6.34576
6.36287
6.37694
6.38804
6.39631
6.4021
6.406
6.40868
6.41067
5.99738
6.03157
6.06502
6.10011
6.13414
6.16635
6.1963
6.22376
6.24865
6.27089
6.29042
6.30717
6.3211
6.33223
6.34066
6.34665
6.35075
6.35357
6.35551
5.96346
5.99458
6.02511
6.0572
6.08844
6.11818
6.146
6.1717
6.19518
6.21635
6.23513
6.25143
6.26517
6.27631
6.28488
6.29108
6.29536
6.2982
6.30018
5.93117
5.95912
5.98663
6.01561
6.04394
6.07105
6.09658
6.12035
6.14226
6.16221
6.18011
6.19586
6.20933
6.22043
6.22914
6.23552
6.2399
6.2428
6.24471
5.90059
5.9254
5.94984
5.97561
6.00091
6.02526
6.04833
6.06999
6.09014
6.1087
6.12557
6.14063
6.15372
6.16472
6.1735
6.18006
6.18455
6.18738
6.18924
5.87206
5.89364
5.91496
5.93744
5.95961
5.98105
6.00151
6.02088
6.03908
6.05605
6.07169
6.08588
6.09846
6.10925
6.11805
6.1247
6.12925
6.13206
6.13372
5.84561
5.86401
5.88214
5.90128
5.92021
5.93862
5.95631
5.97321
5.98925
6.0044
6.01859
6.0317
6.04358
6.05402
6.06272
6.06943
6.07398
6.07664
6.07814
5.82143
5.83653
5.85144
5.86718
5.8828
5.89806
5.91284
5.92707
5.94074
5.95382
5.96629
5.97805
5.98899
5.99888
6.00738
6.01406
6.01861
6.02113
6.0224
5.79926
5.81107
5.82271
5.835
5.84723
5.85925
5.87095
5.88233
5.89338
5.90412
5.91454
5.92462
5.93428
5.94335
5.95149
5.9582
5.96286
5.96529
5.96651
5.77893
5.78739
5.79573
5.80452
5.81327
5.82191
5.83038
5.83869
5.84686
5.85492
5.8629
5.87085
5.87875
5.88655
5.89406
5.90078
5.90591
5.90886
5.91035
5.76006
5.76541
5.77046
5.77574
5.78099
5.78619
5.79133
5.79641
5.80147
5.80656
5.81172
5.81701
5.82252
5.82831
5.83442
5.8407
5.8464
5.85053
5.85416
5.74066
5.74218
5.74373
5.74539
5.74708
5.74875
5.75041
5.75207
5.75374
5.75545
5.75723
5.75912
5.76117
5.76347
5.76611
5.76915
5.77202
5.77276
5.78092
)
;

boundaryField
{
    leftWall
    {
        type            fixedFluxPressure;
        gradient        uniform 0;
        value           nonuniform List<scalar> 
50
(
6913.21
6925.24
6944.2
6972.62
7010.36
7057.76
7115.81
6954.42
2122.63
1185.4
1197.18
1207.49
1092.95
841.418
578.423
178.965
4.55711
4.59297
4.59321
4.60478
4.61978
4.63822
4.65809
4.67916
4.70162
4.72576
4.75178
4.77963
4.80932
4.84082
4.87407
4.90895
4.94536
4.98315
5.02223
5.06249
5.10387
5.1463
5.18972
5.23406
5.27924
5.32519
5.37178
5.41888
5.46634
5.51406
5.56193
5.60986
5.65803
5.70638
)
;
    }
    rightWall
    {
        type            fixedFluxPressure;
        gradient        uniform 0;
        value           nonuniform List<scalar> 
50
(
3226.53
3221.56
2989.43
2702.2
1900.79
1716.19
1140.12
1035.62
1109.64
1146.13
1126.98
862.438
828.446
782.995
770.997
783.828
516.598
37.2371
7.10272
7.10596
7.09111
7.07745
7.06328
7.04649
7.02613
7.00193
6.97278
6.94017
6.90375
6.86375
6.82064
6.77485
6.72686
6.67702
6.62574
6.57318
6.51969
6.46544
6.41067
6.35551
6.30018
6.24471
6.18924
6.13372
6.07814
6.0224
5.96651
5.91035
5.85416
5.78092
)
;
    }
    lowerWall
    {
        type            fixedFluxPressure;
        gradient        uniform 0;
        value           nonuniform List<scalar> 
62
(
6913.21
6855.24
6775.04
6666.79
6542.98
6412.79
6283.43
6159.45
6043.38
5936.12
5838.26
5749.35
5668.58
5595.15
5528.51
5468.47
5415.1
5368.62
5329.27
5296.58
5269.55
5251.56
5241.85
5241.85
5241.34
5240.03
5237.33
5232.28
3586.24
1135.76
1136.6
1220.55
1354.14
1464.56
1446.18
2534.36
2262.4
1673.54
1830.68
1712.5
1346.25
1170.6
1248.29
2534.36
2539.17
2566.67
2629.98
2690.69
2733.1
2737.72
2660.86
2689.39
2730.26
2752.12
2757.35
2770.41
2833.76
2968.43
3061.08
3138.31
3194.38
3226.53
)
;
    }
    atmosphere
    {
        type            prghTotalPressure;
        rho             rho;
        psi             none;
        gamma           1;
        p0              uniform 0;
        value           nonuniform List<scalar> 
46
(
5.72904
5.72904
5.72904
5.72904
5.72904
5.72904
5.72904
5.72904
5.72904
5.72904
5.72904
5.72904
5.72904
5.72904
5.72904
5.72904
5.72904
5.72904
5.72904
5.72904
5.72904
5.72904
5.72904
5.72904
5.72904
5.72904
5.72903
5.72902
5.72898
5.72891
5.72882
5.72871
5.72859
5.72844
5.72829
5.72813
5.72799
5.72786
5.72775
5.72767
5.72761
5.72756
5.72752
5.72747
5.72735
5.72805
)
;
        rho             rho;
    }
    defaultFaces
    {
        type            empty;
    }
}


// ************************************************************************* //
