/*--------------------------------*- C++ -*----------------------------------*\
  =========                 |
  \\      /  F ield         | OpenFOAM: The Open Source CFD Toolbox
   \\    /   O peration     | Website:  https://openfoam.org
    \\  /    A nd           | Version:  13
     \\/     M anipulation  |
\*---------------------------------------------------------------------------*/
FoamFile
{
    format      ascii;
    class       surfaceScalarField;
    location    "2";
    object      phi;
}
// * * * * * * * * * * * * * * * * * * * * * * * * * * * * * * * * * * * * * //

dimensions      [0 3 -1 0 0 0 0];

internalField   nonuniform List<scalar> 
4432
(
1.69605e-07
-1.69604e-07
-1.19759e-06
1.3672e-06
-3.03026e-06
1.83266e-06
-4.70665e-06
1.67639e-06
-6.06614e-06
1.35949e-06
-7.05404e-06
9.87897e-07
-7.66609e-06
6.12047e-07
-7.9322e-06
2.66114e-07
-7.89805e-06
-3.41477e-08
-7.62474e-06
-2.73309e-07
-7.16263e-06
-4.6211e-07
-6.56137e-06
-6.01265e-07
-5.86678e-06
-6.9459e-07
-5.11405e-06
-7.52731e-07
-4.32557e-06
-7.88481e-07
-3.5155e-06
-8.10063e-07
-2.69289e-06
-8.2261e-07
-1.86001e-06
-8.32881e-07
-1.01293e-06
-8.47076e-07
-1.77169e-07
-8.35764e-07
5.56383e-07
-7.33552e-07
8.32334e-07
-2.75951e-07
8.32336e-07
-4.69116e-07
2.99518e-07
-1.86258e-06
2.76066e-06
-3.37882e-06
3.3489e-06
-4.7459e-06
3.04348e-06
-5.8361e-06
2.44969e-06
-6.60961e-06
1.76141e-06
-7.06443e-06
1.06686e-06
-7.22793e-06
4.2962e-07
-7.14739e-06
-1.14686e-07
-6.87039e-06
-5.50313e-07
-6.43791e-06
-8.94587e-07
-5.88799e-06
-1.15119e-06
-5.25799e-06
-1.3246e-06
-4.58097e-06
-1.42974e-06
-3.88437e-06
-1.48509e-06
-3.19044e-06
-1.50399e-06
-2.51567e-06
-1.49739e-06
-1.87114e-06
-1.47741e-06
-1.26158e-06
-1.45664e-06
-6.94972e-07
-1.40237e-06
-2.05826e-07
-1.2227e-06
1.23858e-07
-6.05636e-07
9.56186e-07
-9.52356e-07
1.25187e-06
-2.20048e-06
4.00879e-06
-3.44255e-06
4.59098e-06
-4.55949e-06
4.16041e-06
-5.45534e-06
3.34554e-06
-6.09426e-06
2.40033e-06
-6.46822e-06
1.44083e-06
-6.59762e-06
5.59013e-07
-6.51968e-06
-1.9262e-07
-6.27387e-06
-7.96126e-07
-5.89018e-06
-1.27828e-06
-5.39897e-06
-1.6424e-06
-4.83271e-06
-1.89086e-06
-4.22314e-06
-2.03932e-06
-3.59958e-06
-2.10865e-06
-2.98818e-06
-2.11538e-06
-2.41057e-06
-2.07501e-06
-1.88488e-06
-2.00309e-06
-1.41823e-06
-1.92329e-06
-1.01479e-06
-1.80581e-06
-6.73586e-07
-1.5639e-06
-3.45779e-07
-9.33445e-07
6.10408e-07
-1.18395e-06
2.43583e-06
-2.29952e-06
5.12436e-06
-3.32928e-06
5.62075e-06
-4.25424e-06
5.08536e-06
-5.00859e-06
4.0999e-06
-5.56147e-06
2.95322e-06
-5.89578e-06
1.77513e-06
-6.02367e-06
6.86908e-07
-5.97235e-06
-2.43941e-07
-5.7723e-06
-9.96177e-07
-5.4439e-06
-1.60668e-06
-5.01178e-06
-2.07453e-06
-4.5053e-06
-2.39733e-06
-3.95516e-06
-2.58945e-06
-3.39155e-06
-2.67226e-06
-2.84306e-06
-2.66387e-06
-2.33488e-06
-2.58319e-06
-1.88863e-06
-2.44934e-06
-1.51571e-06
-2.29621e-06
-1.21922e-06
-2.1023e-06
-9.80056e-07
-1.80307e-06
-6.76705e-07
-1.2368e-06
-6.63006e-08
-1.21364e-06
3.64947e-06
-2.20913e-06
6.11985e-06
-3.07648e-06
6.4881e-06
-3.8559e-06
5.86479e-06
-4.51263e-06
4.75662e-06
-5.01841e-06
3.459e-06
-5.34499e-06
2.10172e-06
-5.49608e-06
8.37994e-07
-5.48696e-06
-2.53063e-07
-5.34058e-06
-1.14256e-06
-5.06944e-06
-1.87781e-06
-4.6947e-06
-2.44927e-06
-4.24379e-06
-2.84824e-06
-3.74635e-06
-3.08689e-06
-3.23229e-06
-3.18631e-06
-2.73026e-06
-3.1659e-06
-2.26865e-06
-3.0448e-06
-1.87404e-06
-2.84394e-06
-1.55733e-06
-2.61291e-06
-1.32272e-06
-2.33691e-06
-1.14922e-06
-1.97657e-06
-8.86e-07
-1.50002e-06
-9.52298e-07
-1.10382e-06
4.75329e-06
-1.9752e-06
6.99122e-06
-2.72164e-06
7.23454e-06
-3.40223e-06
6.54538e-06
-3.99549e-06
5.34989e-06
-4.48212e-06
3.94563e-06
-4.82149e-06
2.44108e-06
-5.01147e-06
1.02798e-06
-5.05794e-06
-2.0659e-07
-4.9708e-06
-1.22969e-06
-4.7543e-06
-2.09431e-06
-4.43127e-06
-2.77229e-06
-4.02869e-06
-3.25081e-06
-3.57526e-06
-3.54032e-06
-3.10036e-06
-3.6612e-06
-2.63492e-06
-3.63133e-06
-2.20852e-06
-3.4712e-06
-1.82776e-06
-3.22469e-06
-1.51974e-06
-2.92094e-06
-1.29738e-06
-2.55926e-06
-1.13414e-06
-2.13981e-06
-9.40226e-07
-1.69393e-06
-1.89253e-06
-9.28928e-07
5.68222e-06
-1.6692e-06
7.73149e-06
-2.31048e-06
7.87582e-06
-2.9062e-06
7.14109e-06
-3.48097e-06
5.92465e-06
-3.95616e-06
4.42081e-06
-4.30988e-06
2.7948e-06
-4.53602e-06
1.25412e-06
-4.61215e-06
-1.30454e-07
-4.53063e-06
-1.31121e-06
-4.32444e-06
-2.30049e-06
-4.02259e-06
-3.07413e-06
-3.6497e-06
-3.62368e-06
-3.23153e-06
-3.95849e-06
-2.79405e-06
-4.09867e-06
-2.35733e-06
-4.06805e-06
-1.96078e-06
-3.86774e-06
-1.58117e-06
-3.60429e-06
-1.26227e-06
-3.23983e-06
-1.00831e-06
-2.81321e-06
-7.73582e-07
-2.37454e-06
-4.77736e-07
-1.98978e-06
-2.37026e-06
-8.35953e-07
6.51817e-06
-1.40024e-06
8.29577e-06
-1.93172e-06
8.40729e-06
-2.39951e-06
7.60887e-06
-2.8896e-06
6.41474e-06
-3.28985e-06
4.82105e-06
-3.62778e-06
3.13273e-06
-3.87865e-06
1.505e-06
-3.94206e-06
-6.70427e-08
-3.76547e-06
-1.4878e-06
-3.45199e-06
-2.61397e-06
-3.05849e-06
-3.46762e-06
-2.62437e-06
-4.0578e-06
-2.18463e-06
-4.39822e-06
-1.76618e-06
-4.51711e-06
-1.37917e-06
-4.45506e-06
-1.01774e-06
-4.22916e-06
-7.15287e-07
-3.90674e-06
-4.73771e-07
-3.48134e-06
-3.00921e-07
-2.98606e-06
-1.87024e-07
-2.48843e-06
-1.36037e-07
-2.04077e-06
-2.5063e-06
-6.31411e-07
6.31407e-07
-1.54981e-06
9.18392e-07
-1.92844e-06
3.78638e-07
-6.39268e-07
-1.28918e-06
1.13615e-06
-1.77541e-06
3.03686e-06
-1.90071e-06
5.3711e-06
-2.33425e-06
5.91047e-06
-5.39367e-07
6.76584e-06
-8.55364e-07
7.99626e-06
-1.23042e-06
9.29604e-06
-1.29978e-06
9.94242e-06
-6.46383e-07
9.7497e-06
1.92729e-07
9.71591e-06
3.37835e-08
9.88172e-06
-1.65804e-07
9.44799e-06
4.33727e-07
7.80477e-06
1.64323e-06
4.70351e-06
3.10126e-06
4.70351e-06
-9.97307e-07
1.6287e-06
-1.15646e-06
1.07754e-06
-7.72054e-07
-5.77499e-09
5.29664e-07
-2.5909e-06
1.90947e-06
-3.15522e-06
3.28287e-06
-3.27411e-06
4.94862e-06
-3.99999e-06
6.40916e-06
-1.9999e-06
7.36482e-06
-1.81103e-06
8.0589e-06
-1.9245e-06
8.47677e-06
-1.71764e-06
9.10551e-06
-1.27512e-06
9.42616e-06
-1.27911e-07
9.60247e-06
-1.42525e-07
9.2906e-06
1.4607e-07
8.90105e-06
8.23278e-07
7.69378e-06
2.8505e-06
4.8691e-06
5.92594e-06
9.57262e-06
-2.20973e-06
3.83842e-06
-1.45535e-06
3.23148e-07
-3.76295e-07
-1.08483e-06
1.21591e-06
-4.18311e-06
2.31645e-06
-4.25575e-06
3.60264e-06
-4.5603e-06
5.31803e-06
-5.71538e-06
6.99567e-06
-3.67754e-06
7.77938e-06
-2.59474e-06
8.06963e-06
-2.21474e-06
7.955e-06
-1.60301e-06
8.37231e-06
-1.69243e-06
8.7408e-06
-4.96403e-07
8.78857e-06
-1.90297e-07
8.52139e-06
4.13251e-07
8.27891e-06
1.06576e-06
7.10184e-06
4.02756e-06
4.16911e-06
8.85867e-06
1.37417e-05
-2.62488e-06
6.46328e-06
-2.82496e-06
5.23214e-07
-1.31002e-06
-2.59977e-06
5.76012e-07
-6.06915e-06
1.76842e-06
-5.44816e-06
3.0431e-06
-5.83499e-06
5.10505e-06
-7.77733e-06
7.68178e-06
-6.25427e-06
8.18149e-06
-3.09444e-06
8.11331e-06
-2.14655e-06
7.70059e-06
-1.19028e-06
7.45278e-06
-1.4446e-06
7.84068e-06
-8.84299e-07
7.83719e-06
-1.86799e-07
7.46884e-06
7.81603e-07
7.43172e-06
1.10289e-06
6.39681e-06
5.06248e-06
3.59198e-06
1.16635e-05
1.73337e-05
-2.01444e-06
8.47772e-06
-3.31963e-06
1.82839e-06
-2.31655e-06
-3.60285e-06
-1.31062e-06
-7.07508e-06
-3.43066e-07
-6.41571e-06
9.5317e-07
-7.13123e-06
3.19931e-06
-1.00235e-05
6.4182e-06
-9.47316e-06
7.40898e-06
-4.08522e-06
7.68599e-06
-2.42356e-06
7.89602e-06
-1.4003e-06
7.02345e-06
-5.72033e-07
7.10146e-06
-9.62307e-07
7.19309e-06
-2.78423e-07
6.95945e-06
1.01524e-06
6.86802e-06
1.19432e-06
5.88078e-06
6.04972e-06
3.74735e-06
1.37969e-05
2.10811e-05
-2.50096e-07
8.7278e-06
-2.76104e-06
4.33933e-06
-3.01601e-06
-3.34788e-06
-2.95353e-06
-7.13757e-06
-2.5035e-06
-6.86574e-06
-1.10186e-06
-8.53287e-06
1.11828e-06
-1.22436e-05
3.58046e-06
-1.19353e-05
4.93945e-06
-5.44422e-06
5.59421e-06
-3.07833e-06
6.34336e-06
-2.14945e-06
6.97144e-06
-1.20011e-06
6.65793e-06
-6.48782e-07
6.65166e-06
-2.72149e-07
6.67721e-06
9.89698e-07
6.23916e-06
1.63238e-06
4.97266e-06
7.31622e-06
3.67812e-06
1.50915e-05
2.47592e-05
2.42452e-06
6.30326e-06
-1.78615e-06
8.54999e-06
-3.54517e-06
-1.58887e-06
-4.15826e-06
-6.52447e-06
-4.19111e-06
-6.8329e-06
-2.88895e-06
-9.83502e-06
-7.92628e-07
-1.43399e-05
6.44299e-07
-1.33723e-05
2.12309e-06
-6.92301e-06
3.32731e-06
-4.28255e-06
4.26052e-06
-3.08265e-06
5.13364e-06
-2.07324e-06
5.81683e-06
-1.33196e-06
5.99752e-06
-4.5283e-07
6.10272e-06
8.84507e-07
5.57589e-06
2.15922e-06
4.83051e-06
8.06161e-06
3.95202e-06
1.597e-05
2.87112e-05
4.3718e-07
5.86608e-06
-2.44946e-06
1.14366e-05
-4.1376e-06
9.92723e-08
-5.38591e-06
-5.27617e-06
-5.43351e-06
-6.78529e-06
-4.54692e-06
-1.07216e-05
-2.97996e-06
-1.59069e-05
-2.16196e-06
-1.41903e-05
-5.06076e-07
-8.57889e-06
1.06383e-06
-5.85245e-06
2.35834e-06
-4.37716e-06
3.43855e-06
-3.15345e-06
4.28954e-06
-2.18294e-06
4.87677e-06
-1.04006e-06
5.24189e-06
5.194e-07
4.90772e-06
2.49339e-06
4.29477e-06
8.67458e-06
3.22654e-06
1.70382e-05
3.19378e-05
-1.03932e-06
7.55749e-06
-2.22049e-06
9.47693e-06
-3.34676e-06
9.53355e-06
-4.18521e-06
8.44731e-06
-4.43493e-06
6.66446e-06
-4.25005e-06
4.63617e-06
-3.77464e-06
2.65734e-06
-3.171e-06
9.01365e-07
-2.50668e-06
-7.31359e-07
-1.89635e-06
-2.09812e-06
-1.33724e-06
-3.17307e-06
-8.66148e-07
-3.93872e-06
-5.00802e-07
-4.42314e-06
-2.57062e-07
-4.64196e-06
-1.28372e-07
-4.6458e-06
-5.15259e-08
-4.5319e-06
1.55926e-08
-4.29628e-06
-2.58302e-09
-3.88857e-06
-1.49981e-07
-3.33395e-06
-5.21586e-07
-2.61447e-06
-1.27457e-06
-1.73546e-06
-2.73274e-06
-5.82598e-07
1.161e-06
-6.40003e-06
-2.4666e-06
1.00241e-05
-2.00623e-06
9.01655e-06
-7.56431e-07
8.28375e-06
6.92031e-07
6.99885e-06
2.0542e-06
5.3023e-06
3.27782e-06
3.41256e-06
4.32882e-06
1.60634e-06
5.11817e-06
1.12026e-07
5.604e-06
-1.21718e-06
5.82026e-06
-2.31438e-06
5.73355e-06
-3.08635e-06
5.35189e-06
-3.55705e-06
4.69944e-06
-3.7707e-06
3.78586e-06
-3.72837e-06
2.63607e-06
-3.49601e-06
1.36752e-06
-3.26335e-06
3.90975e-08
-2.96786e-06
-1.41485e-06
-2.43462e-06
-3.10462e-06
-1.64419e-06
-5.08752e-06
-6.31565e-07
-7.4031e-06
5.80117e-07
-1.03931e-05
2.40741e-06
3.96121e-06
-1.31933e-05
1.02759e-06
8.99648e-06
2.69071e-06
7.35343e-06
4.86048e-06
6.11399e-06
6.98403e-06
4.87532e-06
8.8031e-06
3.48324e-06
1.03096e-05
1.90606e-06
1.14546e-05
4.61308e-07
1.20336e-05
-4.66885e-07
1.20968e-05
-1.28041e-06
1.17042e-05
-1.92177e-06
1.08048e-05
-2.18699e-06
9.41352e-06
-2.16573e-06
7.59498e-06
-1.95215e-06
5.36213e-06
-1.49552e-06
2.70066e-06
-8.34537e-07
-1.30936e-07
-4.31742e-07
-3.1198e-06
2.10044e-08
-6.42109e-06
8.66677e-07
-1.00759e-05
2.01058e-06
-1.42026e-05
3.49515e-06
-1.87161e-05
5.09369e-06
-2.34601e-05
7.15139e-06
8.91939e-06
-2.84182e-05
3.38775e-06
5.60872e-06
6.58922e-06
4.15196e-06
9.60559e-06
3.09761e-06
1.21559e-05
2.325e-06
1.41225e-05
1.5167e-06
1.56329e-05
3.95582e-07
1.67334e-05
-6.39103e-07
1.683e-05
-5.63528e-07
1.63134e-05
-7.63843e-07
1.52194e-05
-8.27748e-07
1.33779e-05
-3.45419e-07
1.08166e-05
3.95576e-07
7.6336e-06
1.23082e-06
3.85517e-06
2.28292e-06
-5.36722e-07
3.55736e-06
-5.33172e-06
4.36326e-06
-1.02472e-05
4.9365e-06
-1.55087e-05
6.12819e-06
-2.11989e-05
7.70077e-06
-2.70427e-05
9.33899e-06
-3.24727e-05
1.05237e-05
-3.66531e-05
1.13318e-05
1.21414e-05
-3.98751e-05
5.6618e-06
-5.30797e-08
9.20152e-06
6.12243e-07
1.25523e-05
-2.53208e-07
1.53731e-05
-4.95781e-07
1.75537e-05
-6.63836e-07
1.90738e-05
-1.12455e-06
1.98924e-05
-1.45773e-06
1.94273e-05
-9.83515e-08
1.81142e-05
5.49282e-07
1.61307e-05
1.15568e-06
1.31737e-05
2.61165e-06
9.16614e-06
4.40309e-06
4.28472e-06
6.11225e-06
-1.37203e-06
7.93967e-06
-7.64331e-06
9.82864e-06
-1.42934e-05
1.10134e-05
-2.08121e-05
1.14552e-05
-2.71083e-05
1.24244e-05
-3.31208e-05
1.37133e-05
-3.81735e-05
1.43917e-05
-4.2085e-05
1.44352e-05
-4.51404e-05
1.43872e-05
1.41596e-05
-4.71586e-05
5.47838e-06
-5.53145e-06
1.02608e-05
-4.17015e-06
1.4173e-05
-4.16544e-06
1.73179e-05
-3.64068e-06
1.97058e-05
-3.05167e-06
2.11182e-05
-2.53699e-06
2.12126e-05
-1.55217e-06
2.05037e-05
6.10611e-07
1.85613e-05
2.49165e-06
1.55028e-05
4.21417e-06
1.13888e-05
6.72569e-06
6.13298e-06
9.6589e-06
-1.57771e-07
1.2403e-05
-7.19786e-06
1.49798e-05
-1.45976e-05
1.72284e-05
-2.20038e-05
1.84196e-05
-2.92535e-05
1.87049e-05
-3.57201e-05
1.88911e-05
-4.0976e-05
1.89692e-05
-4.51048e-05
1.85206e-05
-4.82682e-05
1.75986e-05
-5.04587e-05
1.65777e-05
1.54377e-05
-5.17367e-05
5.65345e-06
-1.11849e-05
1.16148e-05
-1.01314e-05
1.6102e-05
-8.65264e-06
1.93597e-05
-6.89835e-06
2.15832e-05
-5.27518e-06
2.26475e-05
-3.60124e-06
2.25053e-05
-1.40994e-06
2.15579e-05
1.55797e-06
1.92681e-05
4.78148e-06
1.53656e-05
8.11666e-06
1.01495e-05
1.19418e-05
3.77214e-06
1.60362e-05
-3.73089e-06
1.9906e-05
-1.19453e-05
2.31941e-05
-2.03373e-05
2.56203e-05
-2.86479e-05
2.67301e-05
-3.62874e-05
2.63444e-05
-4.23973e-05
2.50009e-05
-4.69636e-05
2.35355e-05
-5.02878e-05
2.18448e-05
-5.2547e-05
1.98577e-05
-5.38654e-05
1.78961e-05
1.61032e-05
-5.45309e-05
8.55072e-06
-1.97355e-05
1.33898e-05
-1.49704e-05
1.73151e-05
-1.25778e-05
2.03202e-05
-9.90343e-06
2.22757e-05
-7.23064e-06
2.29689e-05
-4.29445e-06
2.24649e-05
-9.05968e-07
2.0971e-05
3.05187e-06
1.81338e-05
7.61866e-06
1.34773e-05
1.27731e-05
7.24546e-06
1.81736e-05
1.9947e-07
2.30821e-05
-7.88747e-06
2.79929e-05
-1.67996e-05
3.21063e-05
-2.59344e-05
3.47551e-05
-3.50684e-05
3.5864e-05
-4.28742e-05
3.41501e-05
-4.83037e-05
3.04302e-05
-5.19292e-05
2.7161e-05
-5.43184e-05
2.42339e-05
-5.56734e-05
2.12126e-05
-5.6027e-05
1.82497e-05
1.59887e-05
-5.59125e-05
1.06632e-05
-3.03988e-05
1.21811e-05
-1.64882e-05
1.5484e-05
-1.58807e-05
1.84239e-05
-1.28433e-05
2.01919e-05
-8.99854e-06
2.05529e-05
-4.65547e-06
1.95375e-05
1.09422e-07
1.74672e-05
5.1222e-06
1.40586e-05
1.10272e-05
9.18792e-06
1.76437e-05
3.24835e-06
2.41131e-05
-3.60455e-06
2.9935e-05
-1.10993e-05
3.54875e-05
-1.91965e-05
4.02034e-05
-2.85926e-05
4.41509e-05
-3.93403e-05
4.66113e-05
-4.77935e-05
4.26028e-05
-5.24464e-05
3.50828e-05
-5.48132e-05
2.95276e-05
-5.66045e-05
2.60252e-05
-5.73192e-05
2.19271e-05
-5.69449e-05
1.78752e-05
1.5143e-05
-5.60993e-05
2.84311e-07
-3.06833e-05
3.84361e-06
-2.00477e-05
4.62391e-06
-1.66612e-05
5.18661e-06
-1.34061e-05
5.84435e-06
-9.65632e-06
6.04182e-06
-4.85297e-06
5.14156e-06
1.00968e-06
3.66619e-06
6.59759e-06
1.80209e-06
1.28914e-05
-3.7924e-07
1.98251e-05
-3.37598e-06
2.711e-05
-8.02545e-06
3.45845e-05
-1.46546e-05
4.21167e-05
-2.29987e-05
4.85476e-05
-3.13207e-05
5.24727e-05
-3.69312e-05
5.22217e-05
-3.99244e-05
4.55955e-05
-4.46429e-05
3.98008e-05
-5.17917e-05
3.66757e-05
-5.6281e-05
3.05138e-05
-5.6828e-05
2.24737e-05
-5.57698e-05
1.68169e-05
1.37873e-05
-5.44141e-05
-2.95651e-06
-2.7727e-05
-2.47632e-06
-2.05282e-05
-3.04066e-06
-1.6097e-05
-3.83271e-06
-1.26142e-05
-5.0093e-06
-8.47982e-06
-6.08185e-06
-3.78047e-06
-6.74056e-06
1.66837e-06
-7.52721e-06
7.38427e-06
-8.05824e-06
1.34225e-05
-8.44685e-06
2.02138e-05
-9.21622e-06
2.78795e-05
-1.08743e-05
3.62428e-05
-1.37785e-05
4.50211e-05
-1.76488e-05
5.2418e-05
-2.14855e-05
5.63097e-05
-2.35702e-05
5.43067e-05
-2.70619e-05
4.90875e-05
-3.34754e-05
4.62142e-05
-4.09704e-05
4.41704e-05
-4.64245e-05
3.59675e-05
-4.937e-05
2.54188e-05
-5.18218e-05
1.92683e-05
1.49057e-05
-5.29404e-05
-3.50816e-06
-2.4219e-05
-5.59618e-06
-1.84403e-05
-7.55078e-06
-1.41425e-05
-9.6335e-06
-1.05315e-05
-1.13686e-05
-6.74475e-06
-1.27133e-05
-2.43578e-06
-1.35284e-05
2.4834e-06
-1.39526e-05
7.80843e-06
-1.38361e-05
1.33061e-05
-1.33282e-05
1.97059e-05
-1.26922e-05
2.72435e-05
-1.20938e-05
3.56445e-05
-1.13815e-05
4.43088e-05
-1.04135e-05
5.14501e-05
-9.83552e-06
5.57319e-05
-1.09378e-05
5.54093e-05
-1.3738e-05
5.18881e-05
-1.73817e-05
4.98585e-05
-1.92395e-05
4.60287e-05
-2.07073e-05
3.74357e-05
-2.37607e-05
2.84725e-05
-2.72446e-05
2.27524e-05
1.67244e-05
-2.90631e-05
-4.40281e-06
-1.98162e-05
-7.71827e-06
-1.51249e-05
-1.04236e-05
-1.14373e-05
-1.27657e-05
-8.18941e-06
-1.46962e-05
-4.81432e-06
-1.61042e-05
-1.02783e-06
-1.68957e-05
3.27492e-06
-1.71091e-05
8.02182e-06
-1.68763e-05
1.30732e-05
-1.60954e-05
1.8925e-05
-1.47611e-05
2.59092e-05
-1.28981e-05
3.37814e-05
-1.0176e-05
4.15866e-05
-6.85297e-06
4.81271e-05
-3.52688e-06
5.24058e-05
-1.53784e-06
5.34204e-05
-1.47506e-06
5.18255e-05
-1.37046e-06
4.97541e-05
-1.42769e-06
4.60862e-05
-2.5223e-06
3.85308e-05
-4.70564e-06
3.06563e-05
-6.89228e-06
2.49394e-05
1.87078e-05
-8.8754e-06
-4.96693e-06
-1.48494e-05
-8.74482e-06
-1.1347e-05
-1.17419e-05
-8.44028e-06
-1.41917e-05
-5.73966e-06
-1.61273e-05
-2.87873e-06
-1.75024e-05
3.4717e-07
-1.8261e-05
4.03353e-06
-1.84084e-05
8.16917e-06
-1.8101e-05
1.27657e-05
-1.7233e-05
1.8057e-05
-1.55996e-05
2.42757e-05
-1.2997e-05
3.11788e-05
-9.37591e-06
3.79654e-05
-5.07077e-06
4.38219e-05
-6.19934e-07
4.79549e-05
3.08805e-06
4.97124e-05
5.67299e-06
4.92405e-05
7.92246e-06
4.75047e-05
9.83454e-06
4.41742e-05
9.89173e-06
3.84737e-05
8.54695e-06
3.20013e-05
7.20569e-06
2.62808e-05
2.05435e-05
5.37022e-06
-5.06849e-06
-9.78095e-06
-8.94637e-06
-7.46923e-06
-1.20165e-05
-5.3702e-06
-1.44731e-05
-3.28309e-06
-1.63771e-05
-9.74716e-07
-1.77176e-05
1.68754e-06
-1.84631e-05
4.77907e-06
-1.86256e-05
8.33159e-06
-1.82481e-05
1.23881e-05
-1.72573e-05
1.70662e-05
-1.54274e-05
2.24457e-05
-1.25559e-05
2.83072e-05
-8.69271e-06
3.41021e-05
-4.07786e-06
3.92069e-05
8.48249e-07
4.30287e-05
5.46873e-06
4.50918e-05
9.3844e-06
4.53248e-05
1.2787e-05
4.41021e-05
1.55639e-05
4.13973e-05
1.70129e-05
3.70248e-05
1.72156e-05
3.17986e-05
1.68275e-05
2.66691e-05
2.16532e-05
1.5718e-05
-4.8512e-06
-4.92977e-06
-8.61531e-06
-3.70514e-06
-1.16151e-05
-2.37046e-06
-1.40071e-05
-8.91076e-07
-1.58499e-05
8.68017e-07
-1.71499e-05
2.98755e-06
-1.78933e-05
5.52237e-06
-1.8071e-05
8.50921e-06
-1.76668e-05
1.19839e-05
-1.66032e-05
1.60025e-05
-1.47119e-05
2.05543e-05
-1.18546e-05
2.54497e-05
-8.06094e-06
3.03084e-05
-3.51769e-06
3.46636e-05
1.44237e-06
3.80685e-05
6.37039e-06
4.01637e-05
1.09062e-05
4.07889e-05
1.49576e-05
4.00505e-05
1.83577e-05
3.79972e-05
2.0717e-05
3.46654e-05
2.19871e-05
3.05285e-05
2.24673e-05
2.61888e-05
2.19492e-05
2.21715e-05
-4.44689e-06
-4.82925e-07
-7.95966e-06
-1.92398e-07
-1.07906e-05
4.6041e-07
-1.30595e-05
1.37787e-06
-1.48132e-05
2.62163e-06
-1.60598e-05
4.23409e-06
-1.67873e-05
6.24985e-06
-1.69734e-05
8.6953e-06
-1.65803e-05
1.15907e-05
-1.55248e-05
1.49469e-05
-1.36901e-05
1.87196e-05
-1.09905e-05
2.275e-05
-7.4394e-06
2.67572e-05
-3.17716e-06
3.04012e-05
1.5476e-06
3.33437e-05
6.404e-06
3.53072e-05
1.10808e-05
3.6112e-05
1.53811e-05
3.57501e-05
1.9111e-05
3.42672e-05
2.20156e-05
3.17608e-05
2.40114e-05
2.85327e-05
2.52122e-05
2.49881e-05
2.14717e-05
2.56897e-05
-3.91678e-06
3.43387e-06
-7.10182e-06
2.99264e-06
-9.71035e-06
3.06892e-06
-1.18199e-05
3.48739e-06
-1.34604e-05
4.26214e-06
-1.46362e-05
5.40979e-06
-1.53326e-05
6.94625e-06
-1.55208e-05
8.88343e-06
-1.51553e-05
1.12251e-05
-1.41658e-05
1.39574e-05
-1.2468e-05
1.70216e-05
-1.00032e-05
2.02851e-05
-6.78521e-06
2.35392e-05
-2.91566e-06
2.65316e-05
1.42167e-06
2.90062e-05
5.9803e-06
3.07485e-05
1.05001e-05
3.15921e-05
1.4766e-05
3.14841e-05
1.85829e-05
3.04503e-05
2.17609e-05
2.85828e-05
2.42068e-05
2.60867e-05
2.59524e-05
2.32425e-05
2.03443e-05
2.70799e-05
-3.37101e-06
6.80485e-06
-6.18221e-06
5.80383e-06
-8.52356e-06
5.41026e-06
-1.04372e-05
5.40099e-06
-1.1937e-05
5.76196e-06
-1.30202e-05
6.49295e-06
-1.36692e-05
7.5952e-06
-1.38531e-05
9.06726e-06
-1.35272e-05
1.08992e-05
-1.26333e-05
1.30634e-05
-1.11102e-05
1.54985e-05
-8.91922e-06
1.80941e-05
-6.0713e-06
2.06912e-05
-2.64021e-06
2.31004e-05
1.23758e-06
2.51284e-05
5.37783e-06
2.66081e-05
9.57027e-06
2.73996e-05
1.36172e-05
2.74371e-05
1.73408e-05
2.67266e-05
2.0587e-05
2.53365e-05
2.32656e-05
2.34081e-05
2.53735e-05
2.11346e-05
1.87481e-05
2.69698e-05
-2.85959e-06
9.6645e-06
-5.27893e-06
8.22319e-06
-7.32078e-06
7.45211e-06
-9.00784e-06
7.08804e-06
-1.03414e-05
7.09547e-06
-1.13115e-05
7.46307e-06
-1.18979e-05
8.18155e-06
-1.20697e-05
9.23904e-06
-1.17864e-05
1.06158e-05
-1.10004e-05
1.22774e-05
-9.66629e-06
1.41643e-05
-7.7572e-06
1.61849e-05
-5.28193e-06
1.82158e-05
-2.29486e-06
2.01133e-05
1.10348e-06
2.17299e-05
4.77496e-06
2.29366e-05
8.5542e-06
2.36204e-05
1.22738e-05
2.37175e-05
1.57805e-05
2.32199e-05
1.89458e-05
2.21712e-05
2.16878e-05
2.06661e-05
2.39848e-05
1.88377e-05
1.6858e-05
2.5875e-05
-2.37725e-06
1.20418e-05
-4.40749e-06
1.02535e-05
-6.13839e-06
9.18301e-06
-7.58181e-06
8.53147e-06
-8.73184e-06
8.24549e-06
-9.57399e-06
8.3052e-06
-1.0086e-05
8.69357e-06
-1.02383e-05
9.39122e-06
-9.99466e-06
1.03722e-05
-9.31622e-06
1.15989e-05
-8.16822e-06
1.30162e-05
-6.53099e-06
1.45476e-05
-4.41114e-06
1.60959e-05
-1.84845e-06
1.75505e-05
1.08289e-06
1.87985e-05
4.27953e-06
1.97399e-05
7.61409e-06
2.02857e-05
1.09514e-05
2.03801e-05
1.41649e-05
2.00064e-05
1.7147e-05
1.91891e-05
1.98238e-05
1.79893e-05
2.21661e-05
1.64955e-05
1.48406e-05
2.41836e-05
-1.92104e-06
1.39629e-05
-3.5704e-06
1.19028e-05
-4.98848e-06
1.06011e-05
-6.1818e-06
9.72479e-06
-7.1401e-06
9.20378e-06
-7.8459e-06
9.01098e-06
-8.27601e-06
9.12365e-06
-8.40209e-06
9.51727e-06
-8.19217e-06
1.01622e-05
-7.61372e-06
1.10204e-05
-6.63914e-06
1.20416e-05
-5.25308e-06
1.31615e-05
-3.45984e-06
1.43026e-05
-1.28819e-06
1.53788e-05
1.20738e-06
1.63029e-05
3.94971e-06
1.69975e-05
6.84224e-06
1.73932e-05
9.77933e-06
1.7443e-05
1.26583e-05
1.71275e-05
1.53908e-05
1.64566e-05
1.79117e-05
1.54684e-05
2.01856e-05
1.42217e-05
1.28181e-05
2.22081e-05
-1.48255e-06
1.54454e-05
-2.76194e-06
1.31823e-05
-3.87293e-06
1.17121e-05
-4.8176e-06
1.06695e-05
-5.58309e-06
9.96926e-06
-6.14997e-06
9.57785e-06
-6.49444e-06
9.4681e-06
-6.58941e-06
9.61221e-06
-6.40605e-06
9.97883e-06
-5.91645e-06
1.05307e-05
-5.09769e-06
1.12228e-05
-3.93684e-06
1.20006e-05
-2.43597e-06
1.28017e-05
-6.15473e-07
1.35583e-05
1.48511e-06
1.42023e-05
3.80869e-06
1.46739e-05
6.28228e-06
1.49196e-05
8.82492e-06
1.49004e-05
1.1356e-05
1.45964e-05
1.38028e-05
1.40098e-05
1.6108e-05
1.31631e-05
1.8236e-05
1.20938e-05
1.08892e-05
2.0165e-05
-1.05637e-06
1.65019e-05
-1.97749e-06
1.41035e-05
-2.79071e-06
1.25254e-05
-3.49395e-06
1.13727e-05
-4.07136e-06
1.05467e-05
-4.50158e-06
1.00081e-05
-4.76017e-06
9.72667e-06
-4.82087e-06
9.67289e-06
-4.65709e-06
9.81502e-06
-4.24404e-06
1.01177e-05
-3.56172e-06
1.05404e-05
-2.59843e-06
1.10373e-05
-1.35406e-06
1.15573e-05
1.5746e-07
1.20467e-05
1.90749e-06
1.24522e-05
3.8544e-06
1.2727e-05
5.94374e-06
1.28302e-05
8.11403e-06
1.273e-05
1.03019e-05
1.24085e-05
1.24488e-05
1.18629e-05
1.45062e-05
1.11057e-05
1.64379e-05
1.01622e-05
9.10592e-06
1.82213e-05
-6.36997e-07
1.7139e-05
-1.21404e-06
1.46805e-05
-1.74389e-06
1.30553e-05
-2.21761e-06
1.18465e-05
-2.61591e-06
1.0945e-05
-2.91532e-06
1.03075e-05
-3.09048e-06
9.90183e-06
-3.11547e-06
9.69787e-06
-2.96508e-06
9.6646e-06
-2.61646e-06
9.76901e-06
-2.0513e-06
9.9752e-06
-1.25834e-06
1.02443e-05
-2.35602e-07
1.05345e-05
1.00838e-06
1.08027e-05
2.45313e-06
1.10074e-05
4.06788e-06
1.11122e-05
5.81292e-06
1.10851e-05
7.64183e-06
1.09011e-05
9.50591e-06
1.05444e-05
1.13577e-05
1.00111e-05
1.31556e-05
9.30784e-06
1.48673e-05
8.4505e-06
7.51012e-06
1.64633e-05
-2.27515e-07
1.73666e-05
-4.77375e-07
1.49305e-05
-7.40987e-07
1.33189e-05
-1.0006e-06
1.21061e-05
-1.23201e-06
1.11764e-05
-1.40907e-06
1.04845e-05
-1.50522e-06
9.99798e-06
-1.49445e-06
9.68709e-06
-1.35223e-06
9.52237e-06
-1.05677e-06
9.47353e-06
-5.90616e-07
9.50902e-06
5.74144e-08
9.5962e-06
8.91408e-07
9.70048e-06
1.90671e-06
9.78735e-06
3.08899e-06
9.82511e-06
4.41613e-06
9.78503e-06
5.85913e-06
9.64212e-06
7.38331e-06
9.37693e-06
8.95053e-06
8.97717e-06
1.05232e-05
8.43838e-06
1.20669e-05
7.76414e-06
1.35511e-05
6.96636e-06
6.1106e-06
1.49507e-05
1.70192e-07
1.71965e-05
2.2205e-07
1.48787e-05
2.00099e-07
1.33409e-05
1.36248e-07
1.217e-05
5.79997e-08
1.12547e-05
-6.34172e-09
1.05489e-05
-2.89865e-08
1.00206e-05
1.6682e-08
9.64142e-06
1.5506e-07
9.38399e-06
4.07425e-07
9.22116e-06
7.91203e-07
9.12523e-06
1.3186e-06
9.06878e-06
1.99457e-06
9.02449e-06
2.8167e-06
8.96519e-06
3.77615e-06
8.86565e-06
4.85775e-06
8.70342e-06
6.04025e-06
8.45961e-06
7.29747e-06
8.11971e-06
8.60046e-06
7.67418e-06
9.91919e-06
7.11964e-06
1.12242e-05
6.45913e-06
1.24901e-05
5.70046e-06
4.91215e-06
1.36887e-05
5.27585e-07
1.66691e-05
8.55332e-07
1.45511e-05
1.05652e-06
1.31398e-05
1.16996e-06
1.20566e-05
1.22982e-06
1.11949e-05
1.26727e-06
1.05115e-05
1.31187e-06
9.97605e-06
1.39111e-06
9.5622e-06
1.52981e-06
9.2453e-06
1.74931e-06
9.00166e-06
2.06649e-06
8.80805e-06
2.49343e-06
8.64183e-06
3.03692e-06
8.48099e-06
3.69772e-06
8.30438e-06
4.47082e-06
8.09254e-06
5.34574e-06
7.82849e-06
6.30707e-06
7.49828e-06
7.33527e-06
7.09151e-06
8.40767e-06
6.60176e-06
9.50033e-06
6.02696e-06
1.059e-05
5.36943e-06
1.16537e-05
4.63681e-06
3.89516e-06
1.26708e-05
8.35149e-07
1.5834e-05
1.40568e-06
1.39806e-05
1.80259e-06
1.2743e-05
2.07341e-06
1.17859e-05
2.25614e-06
1.10122e-05
2.38468e-06
1.0383e-05
2.49018e-06
9.87057e-06
2.60107e-06
9.45133e-06
2.74258e-06
9.1038e-06
2.93627e-06
8.80798e-06
3.19942e-06
8.5449e-06
3.5448e-06
8.29645e-06
3.98032e-06
8.04547e-06
4.50881e-06
7.77588e-06
5.12814e-06
7.4732e-06
5.83153e-06
7.12511e-06
6.60794e-06
6.72188e-06
7.44268e-06
6.25677e-06
8.31868e-06
5.72576e-06
9.21682e-06
5.1288e-06
1.01172e-05
4.46902e-06
1.10018e-05
3.75223e-06
3.04817e-06
1.1849e-05
1.07896e-06
1.47552e-05
1.85272e-06
1.3207e-05
2.41671e-06
1.21791e-05
2.82249e-06
1.13802e-05
3.11116e-06
1.07236e-05
3.31883e-06
1.01753e-05
3.4781e-06
9.71134e-06
3.61819e-06
9.31126e-06
3.76482e-06
8.95719e-06
3.93983e-06
8.63299e-06
4.16089e-06
8.32384e-06
4.44136e-06
8.016e-06
4.79009e-06
7.69674e-06
5.21152e-06
7.35446e-06
5.7057e-06
6.97902e-06
6.26866e-06
6.56215e-06
6.89274e-06
6.0978e-06
7.56722e-06
5.5823e-06
8.27848e-06
5.01449e-06
9.01141e-06
4.39585e-06
9.75048e-06
3.72993e-06
1.04791e-05
3.0237e-06
2.34587e-06
1.11815e-05
1.25915e-06
1.34961e-05
2.19218e-06
1.2274e-05
2.88971e-06
1.14816e-05
3.40521e-06
1.08647e-05
3.78104e-06
1.03478e-05
4.05451e-06
9.90193e-06
4.25913e-06
9.50676e-06
4.42476e-06
9.14565e-06
4.57746e-06
8.80452e-06
4.73927e-06
8.4712e-06
4.92811e-06
8.13502e-06
5.15773e-06
7.78639e-06
5.43774e-06
7.41674e-06
5.77369e-06
7.01851e-06
6.16733e-06
6.58539e-06
6.61681e-06
6.11269e-06
7.11703e-06
5.59759e-06
7.66006e-06
5.03929e-06
8.23581e-06
4.43874e-06
8.83241e-06
3.79923e-06
9.43612e-06
3.12623e-06
1.00341e-05
2.42572e-06
1.77116e-06
1.0609e-05
1.37942e-06
1.21169e-05
2.42842e-06
1.12252e-05
3.2258e-06
1.06844e-05
3.82402e-06
1.02666e-05
4.26599e-06
9.90588e-06
4.58969e-06
9.57828e-06
4.82918e-06
9.26731e-06
5.01468e-06
8.96019e-06
5.17236e-06
8.64686e-06
5.32427e-06
8.31932e-06
5.4883e-06
7.97101e-06
5.67832e-06
7.59638e-06
5.90434e-06
7.19074e-06
6.17268e-06
6.75018e-06
6.48625e-06
6.27184e-06
6.84478e-06
5.75417e-06
7.24518e-06
5.1972e-06
7.68188e-06
4.6026e-06
8.14697e-06
3.97366e-06
8.63082e-06
3.31536e-06
9.12348e-06
2.63355e-06
9.61316e-06
1.93612e-06
1.29649e-06
1.0088e-05
1.45393e-06
1.06631e-05
2.57853e-06
1.01007e-05
3.44163e-06
9.82134e-06
4.0945e-06
9.61377e-06
4.57979e-06
9.42064e-06
4.93587e-06
9.22224e-06
5.19733e-06
9.00589e-06
5.39459e-06
8.76295e-06
5.55374e-06
8.48773e-06
5.6965e-06
8.17659e-06
5.84038e-06
7.82714e-06
5.99901e-06
7.43778e-06
6.18237e-06
7.00739e-06
6.39714e-06
6.53542e-06
6.64698e-06
6.02202e-06
6.93275e-06
5.46841e-06
7.25286e-06
4.87711e-06
7.60341e-06
4.25207e-06
7.97886e-06
3.59822e-06
8.37192e-06
2.92228e-06
8.77357e-06
2.23192e-06
9.17518e-06
1.53448e-06
9.08429e-07
9.56342e-06
1.49598e-06
9.16733e-06
2.66413e-06
8.93264e-06
3.56349e-06
8.92205e-06
4.24345e-06
8.93387e-06
4.74761e-06
8.91652e-06
5.11589e-06
8.85399e-06
5.3839e-06
8.7379e-06
5.58239e-06
8.56449e-06
5.73709e-06
8.33306e-06
5.86896e-06
8.04474e-06
5.9947e-06
7.70143e-06
6.12717e-06
7.30532e-06
6.27592e-06
6.85866e-06
6.44753e-06
6.36382e-06
6.64598e-06
5.82359e-06
6.87287e-06
5.24154e-06
7.12772e-06
4.62228e-06
7.40825e-06
3.97157e-06
7.7102e-06
3.29628e-06
8.02795e-06
2.60453e-06
8.35538e-06
1.90448e-06
8.6842e-06
1.20576e-06
5.886e-07
9.00414e-06
1.52629e-06
7.641e-06
2.71559e-06
7.74339e-06
3.62458e-06
8.01311e-06
4.3041e-06
8.25439e-06
4.80128e-06
8.41937e-06
5.15964e-06
8.49566e-06
5.41688e-06
8.48068e-06
5.60423e-06
8.37716e-06
5.74673e-06
8.19059e-06
5.86407e-06
7.92741e-06
5.97148e-06
7.59403e-06
6.08056e-06
7.19626e-06
6.19988e-06
6.73936e-06
6.33549e-06
6.22822e-06
6.49129e-06
5.66782e-06
6.66924e-06
5.06361e-06
6.86963e-06
4.42192e-06
7.09116e-06
3.75007e-06
7.33135e-06
3.0561e-06
7.58664e-06
2.34924e-06
7.85133e-06
1.63981e-06
8.1197e-06
9.37354e-07
3.28826e-07
8.37965e-06
1.56322e-06
6.07801e-06
2.76521e-06
6.54151e-06
3.66212e-06
7.11626e-06
4.31283e-06
7.60372e-06
4.77508e-06
7.95714e-06
5.09977e-06
8.17099e-06
5.32794e-06
8.25254e-06
5.49114e-06
8.21398e-06
5.61307e-06
8.06867e-06
5.71134e-06
7.82916e-06
5.799e-06
7.50638e-06
5.88574e-06
7.10954e-06
5.97867e-06
6.64645e-06
6.08287e-06
6.12405e-06
6.20175e-06
5.54897e-06
6.33726e-06
4.92812e-06
6.49015e-06
4.26907e-06
6.66003e-06
3.58021e-06
6.84548e-06
2.87069e-06
7.04399e-06
2.15072e-06
7.25329e-06
1.4305e-06
7.46855e-06
7.22223e-07
1.16142e-07
7.68134e-06
1.63472e-06
4.44326e-06
2.85244e-06
5.32383e-06
3.71312e-06
6.25561e-06
4.30255e-06
7.01432e-06
4.69975e-06
7.55995e-06
4.96691e-06
7.90384e-06
5.14875e-06
8.07071e-06
5.27618e-06
8.08656e-06
5.37027e-06
7.97459e-06
5.44547e-06
7.75398e-06
5.51186e-06
7.44001e-06
5.57664e-06
7.04478e-06
5.64499e-06
6.57811e-06
5.72067e-06
6.04839e-06
5.80625e-06
5.46342e-06
5.90334e-06
4.83106e-06
6.01269e-06
4.15976e-06
6.13431e-06
3.45862e-06
6.2679e-06
2.73711e-06
6.41301e-06
2.00562e-06
6.56824e-06
1.27532e-06
6.73248e-06
5.57938e-07
-4.95109e-08
6.89831e-06
1.7684e-06
2.6751e-06
3.01358e-06
4.07873e-06
3.80661e-06
5.46262e-06
4.29552e-06
6.52542e-06
4.59658e-06
7.25891e-06
4.78544e-06
7.71499e-06
4.90819e-06
7.94795e-06
4.99245e-06
8.00231e-06
5.05471e-06
7.91234e-06
5.10503e-06
7.70366e-06
5.14983e-06
7.39522e-06
5.19342e-06
7.00121e-06
5.23882e-06
6.53273e-06
5.28821e-06
5.99902e-06
5.34306e-06
5.40858e-06
5.40426e-06
4.76989e-06