/*--------------------------------*- C++ -*----------------------------------*\
  =========                 |
  \\      /  F ield         | OpenFOAM: The Open Source CFD Toolbox
   \\    /   O peration     | Website:  https://openfoam.org
    \\  /    A nd           | Version:  13
     \\/     M anipulation  |
\*---------------------------------------------------------------------------*/
FoamFile
{
    format      ascii;
    class       volScalarField;
    location    "2";
    object      rho;
}
// * * * * * * * * * * * * * * * * * * * * * * * * * * * * * * * * * * * * * //

dimensions      [1 -3 0 0 0 0 0];

internalField   nonuniform List<scalar> 
2268
(
13529
13529
13529
13529
13529
13529
13529
13529
13529
13529
13529
13529
13529
13529
13529
13529
13529
13529
13529
13526.7
13522.9
13521.6
13521.6
13529
13529
13529
13529
13529
13529
13529
13529
13529
13529
13529
13529
13529
13529
13529
13529
13529
13529
13529
13529
13529
13528.2
13526.7
13529
13529
13529
13529
13529
13529
13529
13529
13529
13529
13529
13529
13529
13529
13529
13529
13529
13529
13529
13529
13529
13529
13529
13529
13529
13529
13529
13529
13529
13529
13529
13529
13529
13529
13529
13529
13529
13529
13529
13529
13529
13529
13529
13529
13529
13529
13529
13529
13529
13529
13529
13529
13529
13529
13529
13529
13529
13529
13529
13529
13529
13529
13529
13529
13526.4
13519.3
13518.3
13523.3
13525.3
13529
13529
13529
13529
13529
13529
13529
13529
13507.3
13320.8
12963.3
12475.3
11898.1
11264.8
10598.9
9923.43
9263.1
8533.58
8003.6
7719.39
7702.01
7905.93
7938.14
13529
13529
13529
13529
13407.5
12349.1
10924.5
9238.28
7404.63
5665.61
4330.15
3322.05
2561.19
1985.62
1551.19
1225.27
999.998
999.981
999.905
999.698
999.289
998.693
998.411
12972.2
11978.2
10374.1
8058.42
5316.93
3380.14
2060.31
1280.08
1000
1000
1000
1000
1000
1000
1000
999.999
999.995
999.979
999.951
999.917
999.865
999.763
999.431
11849.7
11879.1
11943.2
11953.9
11951.6
11929.6
11100.7
8576.91
8509.82
8604.35
8544.44
8320.77
8189.92
8566.76
10172.1
10337.4
10312.2
10283.2
10215.3
7289.99
7173.31
7842.02
8965.32
10014.4
10498
11024.7
11389.4
11372.8
11334.1
11309.3
10482.1
10243.7
10253.1
10293.2
10326.7
10311.7
10283.6
10064
2284.19
2226.2
2081.73
2406.2
3270.87
3978.15
5062.77
6211.33
8133.23
9192.62
9352.65
9355.05
8765.75
9112.65
9096.77
9360.82
10074.2
9685.06
8157.67
3191.14
3232.21
2463.94
2279.84
2028.18
1864.01
1554.88
1207.11
1188.6
1339.58
1925.93
3575.13
3373.23
3206.81
3750.48
4151.92
4502.46
5786.91
6597.46
2706.52
3031.99
3014.23
3008.68
2195.98
1573.12
1391.25
1227.68
1073.53
1001.1
677.255
691.549
2287.67
2568.24
2587.36
3615.32
4079.88
3318.09
3227.42
1473.34
1752.96
2351.63
2369.1
2262.56
1746.18
1704.2
2023.84
1305.66
1019.41
925.652
556.147
361.03
969.767
1319.9
1518.23
1483.68
2123.67
2612.23
979.579
976.484
1213.5
1572.49
1653.1
1728.26
1727.62
2082.38
1195.12
999.394
997.849
973.234
821.036
646.063
679.854
850.23
906.792
869.757
992.405
1170.81
949.573
1012.77
1244.03
1012.45
1503.08
1838.2
1165.88
1001.44
1001.43
1001.47
1001.45
999.495
977.881
972.62
986.599
999.032
999.464
745.756
2610.43
1884.32
1356.61
1070.36
1000
1000
1000
1000
1000
1000
1000
1000
1000
1000
1000
1000
1000
999.998
999.998
999.998
999.997
999.989
993.843
1000
1000
1000
1000
1000
1000
1000
1000
1000
1000
1000
1000
1000
1000
1000
1000
1000
999.999
997.566
981.82
960.238
939.013
900.166
1000
1000
1000
1000
1000
1000
1000
1000
1000
1000
1000
1000
1000
998.663
989.258
976.827
964.127
933.798
875.394
801.244
722.994
558.435
517.031
1000
1000
996.468
996.001
998.229
999.798
999.496
996.726
987.82
977.734
964.276
944.041
915.182
865.558
787.84
743.444
681.477
599.896
537.02
463.982
431.835
490.714
498.232
872.747
901.113
908.897
875.608
826.996
802.355
813.727
743.635
719.393
682.17
613.017
552.463
510.466
476.935
442.27
418.896
462.051
460.775
425.616
447.683
495.435
499.866
497.295
636.088
558.221
531.305
517.419
509.732
506.944
498.951
446.416
438.729
468.052
468.903
466.674
480.179
490.282
489.906
495.058
498.707
498.976
495.273
497.037
499.999
499.817
499.359
417.558
449.382
476.788
480.236
479.548
477.846
473.967
470.188
465.551
462.446
464.174
459.82
462.143
476.796
489.337
499.999
499.999
499.999
500
500
499.999
499.992
500
119.557
143.115
160.664
165.158
162.066
153.134
143.859
137.62
129.84
120.294
117.494
127.486
141.078
163.73
206.347
267.099
361.034
473.758
499.999
499.999
500
500
500
0.999975
1.00002
1
1.00618
1.01255
1.01002
1.00503
1.00133
1.00017
1.00012
1.00025
1.00041
1.00079
1.00104
1.00095
2.52444
16.3127
71.6631
196.676
321.773
415.06
468.899
475.002
1.00043
1.00172
1.00063
1.01253
1.17025
1.17959
1.01577
1.00003
1.00002
1.00001
1.00001
1.00001
1.00078
1.00065
1.00024
1.00025
1.00133
1.00231
1.00292
6.16836
30.6581
71.9667
89.4304
1.00096
1.00384
1.00388
1.04745
1.00417
1.00034
1.00006
1.00009
1.00254
1.04041
1.0748
1.05354
1.00919
1
1.00001
1
1
1.00001
1.00037
1.00124
1.00204
1.00206
1.00105
1.00084
1.00279
1.00065
1.00028
1.00004
1.00005
1.00006
1.00145
1.05793
1.08704
1.08785
1.08788
1.01106
1.00064
1
1
1.00009
1.00006
1.00006
1.00001
1
1.00001
1.00003
1.00029
1.00033
1.00009
1.00006
1.00008
1.00007
1.00006
1.00033
1.05226
1.08678
1.08758
1.04715
1.00436
1.00312
1.00162
1.00144
1.00067
1.00029
1.00017
1.0001
1.00007
1.00004
1.00004
1.00024
1.00014
1.0001
1.00007
1.00008
1.00011
1.00013
1.00019
1.00611
1.02851
1.02935
1.00274
1.00314
1.00312
1.00285
1.00268
1.00214
1.00054
1.00025
1.00018
1.00013
1.00011
1.00009
1.00013
1.00014
1.00008
1.00006
1.00007
1.00011
1.00017
1.00018
1.00005
1.00002
1.00006
1.00034
1.00225
1.00294
1.00231
1.00177
1.00095
1.00041
1.00024
1.00019
1.00016
1.00013
1.0001
1.00005
1.00006
1.00005
1.00004
1.00003
1.00003
1.00002
1.00003
1.00002
1.00002
1.00012
1.0005
1.00078
1.00066
1.00029
1.00023
1.00016
1.00018
1.00018
1.00014
1.00012
1.00011
1.00008
1.00005
1.00005
1.00005
1.00004
1.00002
1.00002
1.00001
1.00001
1.00001
1.00006
1.00031
1.0005
1.00052
1.00024
1.00002
1.00003
1.00007
1.00007
1.00008
1.00007
1.00008
1.00006
1.00005
1.00004
1.00005
1.00004
1.00003
1.00002
1.00001
1.00001
1.00001
1.00002
1.00005
1.00015
1.00033
1.0003
1.00006
1.00001
1.00002
1.00002
1.00003
1.00004
1.00003
1.00003
1.00003
1.00003
1.00004
1.00005
1.00004
1.00003
1.00002
1.00001
1.00001
1.00001
1.00001
1.00002
1.00003
1.00003
1.00002
1.00001
1.00001
1.00001
1.00001
1.00002
1.00001
1.00001
1.00001
1.00002
1.00001
1.00004
1.00004
1.00004
1.00003
1.00002
1.00001
1.00001
1.00001
1.00001
1.00001
1.00001
1
1
1.00001
1.00001
1.00001
1.00001
1.00001
1.00001
1.00001
1.00001
1.00001
1.00001
1.00003
1.00003
1.00003
1.00003
1.00002
1.00001
1.00001
1.00001
1
1
1
1
1
1
1.00001
1.00001
1.00001
1
1
1
1
1
1
1.00003
1.00003
1.00003
1.00002
1.00002
1.00001
1.00001
1
1
1
1
1
1
1
1
1
1
1
1
1
1
1
1
1.00002
1.00002
1.00002
1.00002
1.00001
1.00001
1.00001
1
1
1
1
1
1
1
1
1
1
1
1
1
1
1
1
1.00002
1.00002
1.00001
1.00001
1.00001
1.00001
1
1
1
1
1
1
1
1
1
1
1
1
1
1
1
1
1
1.00001
1.00001
1.00001
1.00001
1.00001
1
1
1
1
1
1
1
1
1
1
1
1
1
1
1
1
1
1
1.00001
1.00001
1.00001
1
1
1
1
1
1
1
1
1
1
1
1
1
1
1
1
1
1
1
1
1.00001
1.00001
1
1
1
1
1
1
1
1
1
1
1
1
1
1
1
1
1
1
1
1
1
1.00001
1
1
1
1
1
1
1
1
1
1
1
1
1
1
1
1
1
1
1
1
1
1
1
1
1
1
1
1
1
1
1
1
1
1
1
1
1
1
1
1
1
1
1
1
1
1
1
1
1
1
1
1
1
1
1
1
1
1
1
1
1
1
1
1
1
1
1
1
1
1
1
1
1
1
1
1
1
1
1
1
1
1
1
1
1
1
1
1
1
1
1
1
1
1
1
1
1
1
1
1
1
1
1
1
1
1
1
1
1
1
1
1
1
1
1
1
1
1
1
1
1
1
1
1
1
1
1
1
1
1
1
1
1
1
1
1
1
1
1
1
1
1
1
1
1
1
1
1
1
1
1
1
1
1
1
1
1
1
1
1
1
1
1
1
1
1
1
1
1
1
1
1
1
1
1
1
1
1
1
1
1
1
1
1
1
1
1
1
1
1
1
1
1
1
1
1
1
1
1
1
1
1
1
1
1
1
1
1
1
1
1
1
1
1
1
1
1
1
1
1
1
1
1
1
1
1
1
1
1
1
1
1
1
1
1
1
1
1
1
1
1
1
1
1
1
1
1
1
1
1
1
1
1
1
1
1
1
1
1
1
1
1
1
1
1
1
1
1
1
1
1
1
1
1
1
1
1
1
1
1
1
1
1
1
1
1
1
1
1
1
1
1
1
1
1
1
1
1
1
1
1
1
1
1
1
1
1
1
1
1
1
1
1
1
1
1
1
1
1
1
1
1
1
1
1
1
1
1
1
1
1
1
1
1
1
1
1
1
1
1
1
1
1
1
1151.58
1401.03
1606.73
1571
737.567
543.572
450.261
475.415
496.49
419.709
407.642
412.814
485.809
443.027
445.842
480.348
494.529
498.408
500.025
500.318
499.917
500.003
500.006
500
500
500
500
500
500
500
500
500.001
432.46
416.224
457.166
480.642
74.5458
65.7383
71.7258
76.3783
1.00044
1.00046
1.00066
1.00078
1.00002
1.00001
1.00003
1.00002
1.00003
1.00003
1.00003
1.00003
1.00007
1.00006
1.00005
1.00005
1.00008
1.00006
1.00005
1.00005
1.00007
1.00005
1.00005
1.00004
1.00005
1.00004
1.00003
1.00003
1.00003
1.00002
1.00002
1.00001
1.00001
1.00001
1.00001
1.00001
1.00001
1.00001
1.00001
1
1
1
1
1
1
1
1
1
1
1
1
1
1
1
1
1
1
1
1
1
1
1
1
1
1
1
1
1
1
1
1
1
1
1
1
1
1
1
1
1
1
1
1
1
1
1
1
1
1
1
1
1
1
1
1
1
1
1
1
1
1
1
1
1
1
1
1
1
1
1
1
1
1
1
1
1
1
1
1
1
1
1
1
1
1
1
1
1
1302.39
845.125
889.021
843.718
1126.65
1195.38
1251.15
995.956
999.904
999.791
1000.47
1000.81
1000.78
1000.42
1000.14
1000.17
1000.17
1000.02
910.354
620.084
780.326
807.496
646.531
537.64
492.983
789.821
905.54
956.21
961.676
949.988
941.82
940.099
941.773
974.473
1000.75
1000.17
998.065
966.017
478.87
525.816
493.212
498.409
498.478
459.505
576.84
627.793
601.647
610.06
573.542
561.224
556.532
555.746
580.454
655.065
716.965
770.3
928.102
485.351
497.542
499.077
500.19
500.606
468.333
436.092
472.399
501.447
500.323
499.996
500.044
500.151
500.376
501.057
501.504
503.034
530.88
602.271
500.215
500.03
500.022
499.594
499.253
500.165
500.14
500.005
500.163
500
499.989
500
500
499.928
500.148
500.691
501.303
518.372
557.687
500.001
500
499.999
499.999
500.001
500
500.001
500
499.999
499.999
500
500.001
500
500
500
499.942
499.364
503.961
509.667
500
500.002
500.004
500.002
500.002
500.003
500.003
500.003
500.001
500
500.001
500.001
500.002
500.002
500.001
499.994
497.465
494.555
495.554
500.001
500.001
500.001
500.001
500.003
500.003
500.001
500
500
500
500
500
500.001
500.008
500.847
507.241
512.35
508.308
502.855
477.988
466.087
415.573
369.394
356.706
350.608
333.427
325.79
335.959
338.846
340.825
346.18
352.75
356.396
349.229
346.126
335.967
332.692
319.27
60.4583
23.7907
10.5671
19.2658
22.154
10.5422
2.49051
1.0024
1.10765
1.04918
1.31732
2.22885
3.77954
4.33018
22.4955
35.8025
38.2926
29.9393
18.5163
1.00031
1.00003
1.00003
1.00003
1.00015
1.00087
1.00418
1.01708
1.06069
1.18737
1.48404
1.94127
2.42552
2.40059
1.0004
1.00795
1.00021
1.00029
1.00041
1.00003
1.00003
1.00005
1.00008
1.00013
1.0006
1.00349
1.03468
1.08211
1.06364
1.07149
1.02234
1.29441
1.44553
1.30686
1.06783
1.00155
1.00231
1.00116
1.00003
1.00004
1.00006
1.00009
1.00016
1.00041
1.00305
1.16016
1.5012
1.45054
1.06368
1.01123
1.4952
1.78121
1.76485
1.10891
1.00268
1.00234
1.00059
1.00004
1.00004
1.00005
1.00009
1.00014
1.00014
1.00113
1.07922
1.50213
1.50121
1.28852
1.00419
1.02176
1.23089
1.04692
1.02258
1.00174
1.00096
1.00026
1.00004
1.00003
1.00003
1.00007
1.00013
1.00012
1.0001
1.00022
1.08351
1.23079
1.10886
1.00247
1.00181
1.00146
1.00043
1.00011
1.00034
1.00012
1.00029
1.00003
1.00003
1.00002
1.00005
1.00009
1.00011
1.00019
1.00017
1.00013
1.00009
1.00013
1.00072
1.00058
1.00037
1.00013
1.00004
1.00003
1.00012
1.00037
1.00002
1.00002
1.00002
1.00003
1.00003
1.00002
1.00039
1.00055
1.00038
1.00012
1.00012
1.00037
1.00081
1.00074
1.00024
1.00004
1.00003
1.00017
1.00037
1.00001
1.00001
1.00001
1.00002
1.00001
1.00002
1.00009
1.00049
1.00043
1.00013
1.00008
1.00019
1.00056
1.00046
1.00015
1.00004
1.00005
1.00013
1.00036
1.00001
1.00001
1.00001
1.00001
1.00001
1.00002
1.00002
1.00002
1.00004
1.00005
1.00006
1.00003
1.00003
1.00002
1.00002
1.00002
1.00004
1.00006
1.00005
1
1
1
1.00001
1.00001
1.00001
1.00001
1.00002
1.00002
1.00003
1.00004
1.00002
1.00001
1.00001
1.00001
1.00002
1.00002
1.00002
1.00001
1
1
1
1
1
1.00001
1.00001
1.00001
1.00001
1.00002
1.00002
1.00001
1.00001
1.00001
1.00001
1.00001
1.00001
1.00001
1.00001
1
1
1
1
1
1
1
1
1
1
1
1
1
1
1.00001
1.00001
1.00001
1.00001
1.00001
1
1
1
1
1
1
1
1
1
1
1
1
1
1
1
1.00001
1.00001
1.00001
1.00001
1
1
1
1
1
1
1
1
1
1
1
1
1
1
1
1
1.00001
1.00001
1.00001
1
1
1
1
1
1
1
1
1
1
1
1
1
1
1
1
1.00001
1.00001
1.00002
1
1
1
1
1
1
1
1
1
1
1
1
1
1
1
1.00001
1.00001
1.00003
1.00002
1
1
1
1
1
1
1
1
1
1
1
1
1
1
1
1.00001
1.00002
1.00004
1.00003
1
1
1
1
1
1
1
1
1
1
1
1
1
1
1
1.00001
1.00002
1.00005
1.00003
1
1
1
1
1
1
1
1
1
1
1
1
1
1
1
1.00001
1.00003
1.00005
1.00003
1
1
1
1
1
1
1
1
1
1
1
1
1
1
1
1.00001
1.00003
1.00005
1.00003
1
1
1
1
1
1
1
1
1
1
1
1
1
1
1
1.00001
1.00003
1.00005
1.00003
1
1
1
1
1
1
1
1
1
1
1
1
1
1
1
1.00001
1.00003
1.00005
1.00002
1
1
1
1
1
1
1
1
1
1
1
1
1
1
1
1.00001
1.00003
1.00004
1.00002
1
1
1
1
1
1
1
1
1
1
1
1
1
1
1
1.00001
1.00002
1.00002
1.00001
1
1
1
1
1
1
1
1
1
1
1
1
1
1
1
1.00001
1.00001
1.00001
1
1
1
1
1
1
1
1
1
1
1
1
1
1
1
1
1.00001
1
1
1
1
1
1
1
1
1
1
1
1
1
1
1
1
1
1
1
1
1
1
1
1
1
1
1
1
1
1
1
1
1
1
1
1
1
1
1
1
1
1
1
1
1
1
1
1
1
1
1
1
1
1
1
1
1
1
1
1
1
1
1
1
1
1
1
1
1
1
1
1
1
1
1
1
1
1
1
1
1
1
1
1
1
1
1
1
1
1
1
1
1
1
1
1
1
1
1
1
1
1
1
1
1
1
1
1
1
1
1
1
1
1
1
1
1
)
;

boundaryField
{
    leftWall
    {
        type            calculated;
        value           nonuniform List<scalar> 
50
(
13529
13529
13529
13529
13529
13529
13529
12972.2
2610.43
1000
1000
1000
872.747
636.088
417.558
119.557
0.999975
1.00043
1.00096
1.00084
1.00029
1.00024
1.00013
1.00005
1.00005
1.00004
1.00004
1.00004
1.00003
1.00003
1.00002
1.00002
1.00001
1.00001
1.00001
1.00001
1
1
1
1
1
1
1
1
1
1
1
1
1
1
)
;
    }
    rightWall
    {
        type            calculated;
        value           nonuniform List<scalar> 
50
(
10215.3
10064
8157.67
6597.46
3227.42
2612.23
992.405
745.756
910.354
966.017
928.102
602.271
557.687
509.667
495.554
502.855
319.27
18.5163
1.00041
1.00116
1.00059
1.00026
1.00029
1.00037
1.00037
1.00036
1.00005
1.00001
1.00001
1.00001
1.00001
1.00001
1.00002
1.00002
1.00003
1.00003
1.00003
1.00003
1.00003
1.00002
1.00002
1.00001
1
1
1
1
1
1
1
1
)
;
    }
    lowerWall
    {
        type            calculated;
        value           nonuniform List<scalar> 
62
(
13529
13529
13529
13529
13529
13529
13529
13529
13529
13529
13529
13529
13529
13529
13529
13529
13529
13529
13529
13526.7
13522.9
13521.6
13521.6
13521.6
13526.7
13529
13529
13525.3
7938.14
998.411
999.431
1151.58
1401.03
1606.73
1571
11849.7
7289.99
2284.19
3191.14
2706.52
1473.34
979.579
1170.81
11849.7
11879.1
11943.2
11953.9
11951.6
11929.6
11100.7
8576.91
8509.82
8604.35
8544.44
8320.77
8189.92
8566.76
10172.1
10337.4
10312.2
10283.2
10215.3
)
;
    }
    atmosphere
    {
        type            calculated;
        value           nonuniform List<scalar> 
46
(
1
1
1
1
1
1
1
1
1
1
1
1
1
1
1
1
1
1
1
1
1
1
1
1
1
1
1
1
1
1
1
1
1
1
1
1
1
1
1
1
1
1
1
1
1
1
)
;
    }
    defaultFaces
    {
        type            empty;
    }
}


// ************************************************************************* //
