/*--------------------------------*- C++ -*----------------------------------*\
  =========                 |
  \\      /  F ield         | OpenFOAM: The Open Source CFD Toolbox
   \\    /   O peration     | Website:  https://openfoam.org
    \\  /    A nd           | Version:  13
     \\/     M anipulation  |
\*---------------------------------------------------------------------------*/
FoamFile
{
    format      ascii;
    class       volVectorField;
    location    "2";
    object      U;
}
// * * * * * * * * * * * * * * * * * * * * * * * * * * * * * * * * * * * * * //

dimensions      [0 1 -1 0 0 0 0];

internalField   nonuniform List<vector> 
2268
(
(0.00457042 -0.000697624 0)
(-0.0014462 0.00596345 0)
(-0.0252897 0.00801185 0)
(-0.0456051 0.00720182 0)
(-0.0629167 0.00579843 0)
(-0.076183 0.00419584 0)
(-0.08513 0.00259397 0)
(-0.0899521 0.00111357 0)
(-0.0910968 -0.000165666 0)
(-0.0891582 -0.00124349 0)
(-0.0848127 -0.00209027 0)
(-0.0786154 -0.00271676 0)
(-0.0711253 -0.0031439 0)
(-0.062811 -0.00343343 0)
(-0.0539835 -0.0036589 0)
(-0.0448269 -0.00385969 0)
(-0.035471 -0.0040478 0)
(-0.0259964 -0.00424665 0)
(-0.0164086 -0.00447172 0)
(-0.00676148 -0.00454645 0)
(0.00211346 -0.00410624 0)
(0.0104297 -0.00158701 0)
(0.00758055 0.00270141 0)
(-0.00227135 -0.000903788 0)
(-0.0114319 0.0114058 0)
(-0.030713 0.0146414 0)
(-0.0474672 0.0133992 0)
(-0.0615361 0.010843 0)
(-0.0721152 0.00784376 0)
(-0.0790024 0.00480196 0)
(-0.0823777 0.00199601 0)
(-0.0826844 -0.00040369 0)
(-0.0804997 -0.00234126 0)
(-0.0763335 -0.00385716 0)
(-0.0706134 -0.0049751 0)
(-0.0637794 -0.00572339 0)
(-0.0562428 -0.00617853 0)
(-0.0483435 -0.006432 0)
(-0.0403562 -0.00654715 0)
(-0.0325045 -0.00656991 0)
(-0.0249546 -0.00655168 0)
(-0.0177878 -0.00654393 0)
(-0.0110399 -0.00634532 0)
(-0.00510708 -0.00546177 0)
(0.000748439 -0.00216328 0)
(0.00183603 0.00587331 0)
(-0.00804708 0.00390514 0)
(-0.0170702 0.0183007 0)
(-0.0327979 0.0216234 0)
(-0.0464791 0.0196559 0)
(-0.0580422 0.0157931 0)
(-0.0667902 0.0113208 0)
(-0.0724973 0.0068027 0)
(-0.0752527 0.00266202 0)
(-0.0754116 -0.000860366 0)
(-0.0734551 -0.00368532 0)
(-0.0697734 -0.00593308 0)
(-0.0646853 -0.00762519 0)
(-0.0585571 -0.00877986 0)
(-0.0517634 -0.00947944 0)
(-0.0446521 -0.00982975 0)
(-0.0375378 -0.00991031 0)
(-0.030696 -0.00979374 0)
(-0.0243663 -0.00957034 0)
(-0.0186912 -0.00929451 0)
(-0.013707 -0.00880749 0)
(-0.00957801 -0.00759922 0)
(-0.00535079 -0.00409404 0)
(-0.00315388 0.00470544 0)
(-0.0112652 0.00993702 0)
(-0.0194724 0.0246361 0)
(-0.0326295 0.027597 0)
(-0.0438843 0.024985 0)
(-0.0535474 0.0201356 0)
(-0.0610298 0.0144729 0)
(-0.0660575 0.00868743 0)
(-0.0686084 0.00334416 0)
(-0.0689446 -0.00123414 0)
(-0.0674324 -0.00492454 0)
(-0.0643488 -0.00790657 0)
(-0.0599264 -0.0101885 0)
(-0.0544824 -0.0117677 0)
(-0.0483677 -0.0127216 0)
(-0.0419306 -0.0131607 0)
(-0.0355085 -0.0131762 0)
(-0.0294123 -0.0128625 0)
(-0.02392 -0.0122799 0)
(-0.0192234 -0.0116334 0)
(-0.0153926 -0.0107557 0)
(-0.0124778 -0.00924454 0)
(-0.00942748 -0.00595283 0)
(-0.00687883 0.00181735 0)
(-0.0123594 0.0163796 0)
(-0.0193837 0.0304567 0)
(-0.0306455 0.0328386 0)
(-0.0399983 0.0297362 0)
(-0.0482675 0.0240367 0)
(-0.0549613 0.0174328 0)
(-0.0597057 0.0105495 0)
(-0.0623759 0.004134 0)
(-0.0631238 -0.00140437 0)
(-0.0621826 -0.00591373 0)
(-0.0597426 -0.00960653 0)
(-0.0559822 -0.0124452 0)
(-0.0511881 -0.0144015 0)
(-0.0456917 -0.0155514 0)
(-0.0398376 -0.0160157 0)
(-0.0339668 -0.0159035 0)
(-0.0283767 -0.0153184 0)
(-0.0234453 -0.0143946 0)
(-0.0193716 -0.013341 0)
(-0.0161955 -0.0120723 0)
(-0.0140076 -0.0102957 0)
(-0.0116876 -0.007491 0)
(-0.00963533 -0.00290614 0)
(-0.0120175 0.0226894 0)
(-0.0174301 0.0357596 0)
(-0.0272508 0.0375125 0)
(-0.0352433 0.0339798 0)
(-0.0426106 0.0276896 0)
(-0.0488424 0.0202308 0)
(-0.0535734 0.0123555 0)
(-0.056566 0.00503135 0)
(-0.0579062 -0.00128042 0)
(-0.0576319 -0.00644553 0)
(-0.0558282 -0.0107235 0)
(-0.052678 -0.0140374 0)
(-0.0484616 -0.0163456 0)
(-0.0434956 -0.0177202 0)
(-0.038118 -0.0182818 0)
(-0.0326672 -0.0181387 0)
(-0.027526 -0.0174065 0)
(-0.0228598 -0.0162509 0)
(-0.0188659 -0.0148635 0)
(-0.0158365 -0.0132357 0)
(-0.0138269 -0.0112483 0)
(-0.0116636 -0.00898748 0)
(-0.0109834 -0.00808416 0)
(-0.0110852 0.0294779 0)
(-0.0145029 0.0406286 0)
(-0.02326 0.0412661 0)
(-0.0300536 0.0370998 0)
(-0.0367492 0.030424 0)
(-0.0428079 0.0224091 0)
(-0.04755 0.0138728 0)
(-0.0509131 0.00586572 0)
(-0.0526866 -0.00113386 0)
(-0.0525657 -0.00687768 0)
(-0.0508299 -0.0116111 0)
(-0.0478612 -0.0152614 0)
(-0.0439444 -0.0177878 0)
(-0.0393545 -0.019267 0)
(-0.0344029 -0.0198245 0)
(-0.0293811 -0.0195682 0)
(-0.0245071 -0.0185775 0)
(-0.0200057 -0.0172022 0)
(-0.0160457 -0.0155941 0)
(-0.0127587 -0.0136355 0)
(-0.0104176 -0.01142 0)
(-0.00755927 -0.00934101 0)
(-0.00604915 -0.0115956 0)
(-0.0121388 0.0393702 0)
(-0.0117832 0.0452433 0)
(-0.0196482 0.0446589 0)
(-0.025085 0.0400097 0)
(-0.0304028 0.0327633 0)
(-0.0354698 0.0242433 0)
(-0.039707 0.0153263 0)
(-0.0431813 0.00710199 0)
(-0.0451522 -0.00027478 0)
(-0.0444153 -0.00693196 0)
(-0.0414762 -0.0127339 0)
(-0.0373239 -0.0174541 0)
(-0.0324938 -0.0209625 0)
(-0.0274073 -0.0232296 0)
(-0.0224558 -0.0243116 0)
(-0.0178151 -0.0243277 0)
(-0.0134803 -0.0232715 0)
(-0.00975152 -0.0217423 0)
(-0.00660452 -0.0194003 0)
(-0.00428018 -0.0167523 0)
(-0.00291619 -0.0142224 0)
(-0.00193639 -0.0122325 0)
(-0.00336017 -0.0158739 0)
(-0.00145774 0.000980468 0)
(-0.0146082 0.00240962 0)
(-0.022856 0.000638456 0)
(-0.0166591 -0.0062752 0)
(0.00307426 -0.00845057 0)
(0.023151 -0.00947668 0)
(0.0481335 -0.0113867 0)
(0.0660741 -0.00166751 0)
(0.0731369 -0.00384706 0)
(0.0840671 -0.00628361 0)
(0.0982102 -0.00713558 0)
(0.110352 -0.00308507 0)
(0.113404 0.00135167 0)
(0.1118 0.000246263 0)
(0.113688 -0.000725303 0)
(0.112919 0.00222599 0)
(0.102433 0.00724691 0)
(0.0742078 0.0115374 0)
(0.0307773 0.0154831 0)
(-0.00531191 0.00438998 0)
(-0.0158096 0.00528129 0)
(-0.013361 0.00206525 0)
(-0.00222248 -0.00839587 0)
(0.0141023 -0.0117354 0)
(0.0284089 -0.0129479 0)
(0.0470359 -0.0159261 0)
(0.0665509 -0.0069077 0)
(0.0798577 -0.00728694 0)
(0.0884666 -0.00828023 0)
(0.0944198 -0.00781305 0)
(0.100265 -0.00536419 0)
(0.106347 -0.000206568 0)
(0.109201 -0.00045395 0)
(0.108658 -0.000140906 0)
(0.105813 0.00329287 0)
(0.0988174 0.0117879 0)
(0.0761136 0.0233367 0)
(0.0344848 0.0343459 0)
(-0.0187226 0.0130547 0)
(-0.0244297 0.00324261 0)
(-0.0123004 -0.00141919 0)
(0.00493172 -0.0151918 0)
(0.020668 -0.0170583 0)
(0.0325734 -0.0180958 0)
(0.0499279 -0.0219589 0)
(0.0719814 -0.0123002 0)
(0.0866703 -0.0101172 0)
(0.091349 -0.00996716 0)
(0.091623 -0.00828815 0)
(0.0926319 -0.00718812 0)
(0.0976879 -0.00184335 0)
(0.101075 -0.000974157 0)
(0.0992482 0.00134261 0)
(0.0970273 0.00483625 0)
(0.0916303 0.017033 0)
(0.0698802 0.0360935 0)
(0.0313722 0.0548256 0)
(-0.0194136 0.0236751 0)
(-0.0364533 0.000850863 0)
(-0.0251162 -0.0103433 0)
(-0.00395403 -0.0265486 0)
(0.0140017 -0.0242875 0)
(0.0261179 -0.0248567 0)
(0.0446388 -0.0310894 0)
(0.0748311 -0.0204209 0)
(0.0942137 -0.0123784 0)
(0.094045 -0.0104389 0)
(0.090463 -0.00722498 0)
(0.0864927 -0.00778199 0)
(0.0869784 -0.00302432 0)
(0.0901319 -0.000796316 0)
(0.0876671 0.00281146 0)
(0.0859922 0.00512152 0)
(0.0823407 0.0215835 0)
(0.0615295 0.0487943 0)
(0.0298752 0.0742643 0)
(-0.011322 0.0346294 0)
(-0.0370178 0.00449322 0)
(-0.0335701 -0.0162342 0)
(-0.0205237 -0.0326466 0)
(-0.00975942 -0.0292686 0)
(0.0013241 -0.0316072 0)
(0.0218597 -0.0442001 0)
(0.0547199 -0.0413719 0)
(0.083627 -0.0182825 0)
(0.0877538 -0.0107965 0)
(0.089521 -0.00506625 0)
(0.0845625 -0.00537171 0)
(0.0816363 -0.00476826 0)
(0.0819419 -0.00116288 0)
(0.0806572 0.00432054 0)
(0.0802622 0.00588157 0)
(0.0755647 0.027576 0)
(0.0564608 0.0619048 0)
(0.0387401 0.0931806 0)
(0.0156726 0.0471496 0)
(-0.0247572 0.0134932 0)
(-0.0350271 -0.0176796 0)
(-0.0345521 -0.0350606 0)
(-0.0319068 -0.032444 0)
(-0.0239336 -0.0383863 0)
(-0.00147781 -0.0550882 0)
(0.0271147 -0.0533679 0)
(0.0515918 -0.0232166 0)
(0.0616798 -0.0126798 0)
(0.0685819 -0.00801762 0)
(0.0757798 -0.00251157 0)
(0.0785164 -0.00321091 0)
(0.0768155 -0.00128123 0)
(0.0766462 0.00509838 0)
(0.0750609 0.00642426 0)
(0.0660089 0.0313668 0)
(0.0478811 0.071015 0)
(0.0449062 0.110746 0)
(0.0530559 0.0387422 0)
(-0.00810263 0.0322684 0)
(-0.0343842 -0.0129926 0)
(-0.0457256 -0.0339846 0)
(-0.0491754 -0.033624 0)
(-0.0434516 -0.0448702 0)
(-0.0224582 -0.0653078 0)
(0.000856019 -0.0610781 0)
(0.0161422 -0.02929 0)
(0.0319365 -0.0172855 0)
(0.0438848 -0.0121551 0)
(0.0540768 -0.00783831 0)
(0.0627615 -0.00455947 0)
(0.0681315 -0.00100987 0)
(0.0701249 0.00493047 0)
(0.0684278 0.0089157 0)
(0.0608628 0.0376645 0)
(0.0468039 0.0750377 0)
(0.0495508 0.128964 0)
(0.0221548 0.025626 0)
(-0.0172218 0.0498167 0)
(-0.0406256 -0.00347008 0)
(-0.0560961 -0.0287924 0)
(-0.0639934 -0.0334057 0)
(-0.0587854 -0.0504469 0)
(-0.0447427 -0.073204 0)
(-0.0278574 -0.0668181 0)
(-0.0163328 -0.037567 0)
(0.00336335 -0.0245575 0)
(0.0202164 -0.0180924 0)
(0.0337381 -0.0123552 0)
(0.0447504 -0.00831391 0)
(0.0529881 -0.00373473 0)
(0.0587399 0.00359529 0)
(0.0593352 0.011662 0)
(0.0541805 0.0413478 0)
(0.0417537 0.0811986 0)
(0.0398692 0.150038 0)
(-0.0121843 0.0275315 0)
(-0.00658336 0.0421357 0)
(-0.015447 0.0446777 0)
(-0.0203495 0.041832 0)
(-0.0234324 0.0370274 0)
(-0.0238503 0.0288381 0)
(-0.0218995 0.0193778 0)
(-0.018663 0.00931507 0)
(-0.0150664 -0.00125081 0)
(-0.0118132 -0.0106732 0)
(-0.00860904 -0.0176021 0)
(-0.00579705 -0.0224111 0)
(-0.00351651 -0.0254344 0)
(-0.00185553 -0.0268883 0)
(-0.000888384 -0.0270568 0)
(-0.000411749 -0.0263689 0)
(1.37826e-05 -0.0249725 0)
(0.000187391 -0.0227689 0)
(-0.000243257 -0.0201697 0)
(-0.00159211 -0.0169131 0)
(-0.00451902 -0.0133258 0)
(-0.00987713 -0.00873072 0)
(-0.0220248 -0.0038341 0)
(-0.0123857 0.0463164 0)
(-0.0116423 0.0536323 0)
(-0.00772704 0.0532951 0)
(-0.000243754 0.0461779 0)
(0.00734544 0.0351199 0)
(0.0144173 0.0232777 0)
(0.0206644 0.0121757 0)
(0.0257067 0.00269705 0)
(0.0291689 -0.00553995 0)
(0.0310222 -0.0125497 0)
(0.0313885 -0.0178131 0)
(0.0301289 -0.0213802 0)
(0.0273456 -0.0234314 0)
(0.0231302 -0.0240183 0)
(0.0174958 -0.0234464 0)
(0.0108928 -0.0225774 0)
(0.00391433 -0.0211834 0)
(-0.00349592 -0.0188032 0)
(-0.0118682 -0.0153172 0)
(-0.0216391 -0.0107543 0)
(-0.0331519 -0.00529921 0)
(-0.0468181 0.00319902 0)
(-0.0623514 0.0141749 0)
(0.0035853 0.053443 0)
(0.00988712 0.0465524 0)
(0.0201975 0.0405379 0)
(0.03199 0.033031 0)
(0.0426899 0.0242859 0)
(0.0516993 0.0145919 0)
(0.0590171 0.00550969 0)
(0.06373 -0.00126415 0)
(0.0653716 -0.00720026 0)
(0.0645175 -0.0119838 0)
(0.0610738 -0.0148654 0)
(0.0548936 -0.0161974 0)
(0.0462241 -0.0163543 0)
(0.0352969 -0.0152384 0)
(0.0220592 -0.013152 0)
(0.00714508 -0.0116672 0)
(-0.00853948 -0.0100334 0)
(-0.0252658 -0.00660234 0)
(-0.0438151 -0.00141969 0)
(-0.0646425 0.00535549 0)
(-0.0875454 0.0137383 0)
(-0.112956 0.0251167 0)
(-0.140187 0.0344956 0)
(0.012076 0.0419595 0)
(0.0278942 0.0327278 0)
(0.0438244 0.0257812 0)
(0.0588004 0.0200686 0)
(0.0710346 0.0138855 0)
(0.080562 0.00633457 0)
(0.0878178 -0.000595238 0)
(0.0909762 -0.00322234 0)
(0.0898198 -0.00624479 0)
(0.0854965 -0.00845463 0)
(0.0776707 -0.00836715 0)
(0.0657978 -0.00690973 0)
(0.0503042 -0.00473627 0)
(0.0316347 -0.00124626 0)
(0.00957153 0.00342762 0)
(-0.0153649 0.00665989 0)
(-0.0415625 0.00996205 0)
(-0.0687766 0.0156749 0)
(-0.0979497 0.0235263 0)
(-0.12917 0.0330824 0)
(-0.160572 0.0413741 0)
(-0.187241 0.0505361 0)
(-0.207334 0.058576 0)
(0.0200281 0.0180202 0)
(0.0410768 0.0158181 0)
(0.0590171 0.0100389 0)
(0.0754653 0.00645748 0)
(0.0891111 0.00314411 0)
(0.0994251 -0.00165523 0)
(0.105749 -0.00571308 0)
(0.106533 -0.00267284 0)
(0.101909 -0.00205415 0)
(0.0931133 -0.000964433 0)
(0.0799044 0.00384079 0)
(0.0611716 0.0103727 0)
(0.0371657 0.0168742 0)
(0.00890901 0.0244509 0)
(-0.0233073 0.0330937 0)
(-0.058974 0.0383492 0)
(-0.0944945 0.0416582 0)
(-0.128539 0.0490892 0)
(-0.162124 0.0580332 0)
(-0.192808 0.0653128 0)
(-0.216933 0.0692147 0)
(-0.235359 0.0710299 0)
(-0.249317 0.0721717 0)
(0.0174682 -0.015052 0)
(0.0445774 -0.0104133 0)
(0.0665843 -0.0130154 0)
(0.0854213 -0.0120845 0)
(0.100524 -0.0107475 0)
(0.110853 -0.010515 0)
(0.114886 -0.00868131 0)
(0.113285 0.00163581 0)
(0.106196 0.00870519 0)
(0.0929537 0.0151706 0)
(0.0738198 0.026563 0)
(0.0484563 0.0400384 0)
(0.0172641 0.0527344 0)
(-0.0187878 0.0653082 0)
(-0.0580362 0.0770657 0)
(-0.0984509 0.0836769 0)
(-0.138252 0.0845768 0)
(-0.175471 0.0862477 0)
(-0.207338 0.0896733 0)
(-0.232517 0.0897701 0)
(-0.251865 0.0872603 0)
(-0.266205 0.0842997 0)
(-0.27549 0.0803917 0)
(0.0238781 -0.044562 0)
(0.0480499 -0.0376274 0)
(0.0755347 -0.034609 0)
(0.0962143 -0.0292074 0)
(0.111169 -0.0235235 0)
(0.120113 -0.0177537 0)
(0.122441 -0.00940722 0)
(0.119777 0.00431324 0)
(0.111417 0.0172064 0)
(0.0947737 0.030085 0)
(0.0701686 0.0464501 0)
(0.0389294 0.0650467 0)
(0.0013385 0.0830216 0)
(-0.0414753 0.0996421 0)
(-0.0863982 0.113742 0)
(-0.131618 0.121822 0)
(-0.175549 0.124056 0)
(-0.213212 0.122953 0)
(-0.241782 0.118786 0)
(-0.262604 0.112084 0)
(-0.277274 0.103049 0)
(-0.286706 0.0942462 0)
(-0.29166 0.0856181 0)
(0.0445184 -0.0648875 0)
(0.0583003 -0.0586484 0)
(0.0831653 -0.0489514 0)
(0.10208 -0.0392896 0)
(0.115765 -0.0300964 0)
(0.123032 -0.0204429 0)
(0.123235 -0.00808217 0)
(0.118034 0.0088073 0)
(0.107135 0.0264436 0)
(0.0869124 0.0451019 0)
(0.0570327 0.0661285 0)
(0.021319 0.088692 0)
(-0.0194983 0.110163 0)
(-0.0659556 0.128736 0)
(-0.114485 0.142741 0)
(-0.164478 0.150502 0)
(-0.2113 0.150198 0)
(-0.246949 0.143765 0)
(-0.270394 0.136071 0)
(-0.286481 0.126623 0)
(-0.296754 0.114136 0)
(-0.301013 0.10051 0)
(-0.300964 0.0885707 0)
(0.0833182 -0.115813 0)
(0.0460516 -0.0687909 0)
(0.0754507 -0.0532755 0)
(0.0927658 -0.0420968 0)
(0.105595 -0.0311594 0)
(0.111519 -0.0190831 0)
(0.108808 -0.00438838 0)
(0.100504 0.0140527 0)
(0.0870642 0.034881 0)
(0.0644091 0.0586374 0)
(0.0344166 0.0841551 0)
(9.43781e-05 0.106674 0)
(-0.0388745 0.12919 0)
(-0.0806605 0.146986 0)
(-0.127112 0.157673 0)
(-0.1844 0.161366 0)
(-0.24029 0.163298 0)
(-0.268447 0.155972 0)
(-0.286619 0.144385 0)
(-0.300425 0.128558 0)
(-0.307023 0.112215 0)
(-0.307876 0.0963193 0)
(-0.303866 0.0850833 0)
(-0.00397928 -0.230514 0)
(0.0102828 -0.139552 0)
(0.0235609 -0.133033 0)
(0.0270402 -0.106189 0)
(0.030692 -0.0735576 0)
(0.0327976 -0.0351943 0)
(0.0305312 0.00609268 0)
(0.0242057 0.0450913 0)
(0.0155046 0.091351 0)
(0.00488191 0.142786 0)
(-0.00839433 0.191866 0)
(-0.0283092 0.235789 0)
(-0.0584404 0.277811 0)
(-0.100162 0.313161 0)
(-0.150118 0.339447 0)
(-0.186954 0.343557 0)
(-0.205237 0.260848 0)
(-0.221221 0.174243 0)
(-0.262213 0.131112 0)
(-0.295792 0.122724 0)
(-0.304025 0.109713 0)
(-0.30192 0.0926028 0)
(-0.297112 0.0776951 0)
(-0.0169862 -0.151258 0)
(-0.0149659 -0.108372 0)
(-0.0139972 -0.0881519 0)
(-0.0182043 -0.0702687 0)
(-0.0236381 -0.0493396 0)
(-0.0295549 -0.02382 0)
(-0.0345227 0.00725657 0)
(-0.0384943 0.0386667 0)
(-0.0420013 0.0729822 0)
(-0.0439609 0.111498 0)
(-0.0463791 0.153399 0)
(-0.0523051 0.197847 0)
(-0.0644358 0.244119 0)
(-0.0823766 0.28362 0)
(-0.104734 0.303779 0)
(-0.125846 0.299297 0)
(-0.134236 0.293919 0)
(-0.15754 0.28151 0)
(-0.200236 0.270835 0)
(-0.237647 0.19897 0)
(-0.257476 0.114416 0)
(-0.274215 0.0757776 0)
(-0.284571 0.0664278 0)
(-0.0166429 -0.139429 0)
(-0.0261619 -0.105352 0)
(-0.0353317 -0.0811128 0)
(-0.0461693 -0.0617094 0)
(-0.056585 -0.0405662 0)
(-0.0650685 -0.0164821 0)
(-0.0710353 0.0113222 0)
(-0.074389 0.0407837 0)
(-0.0750298 0.0716037 0)
(-0.0730716 0.106819 0)
(-0.0697167 0.147848 0)
(-0.0663206 0.193546 0)
(-0.0630798 0.241213 0)
(-0.0581172 0.28141 0)
(-0.0525835 0.305533 0)
(-0.0537355 0.300274 0)
(-0.0651092 0.273755 0)
(-0.0833953 0.269133 0)
(-0.101368 0.251052 0)
(-0.108681 0.215396 0)
(-0.114995 0.169717 0)
(-0.138792 0.130064 0)
(-0.162686 0.0909925 0)
(-0.019143 -0.118772 0)
(-0.0346316 -0.0907154 0)
(-0.0491823 -0.068947 0)
(-0.0625302 -0.050341 0)
(-0.0741692 -0.0308467 0)
(-0.0832921 -0.00905337 0)
(-0.08929 0.015736 0)
(-0.0919333 0.04283 0)
(-0.0918293 0.0710992 0)
(-0.0890925 0.103966 0)
(-0.0833772 0.143184 0)
(-0.0750685 0.187399 0)
(-0.0626983 0.232228 0)
(-0.0460567 0.269213 0)
(-0.0270058 0.292322 0)
(-0.0112923 0.295427 0)
(-0.00657008 0.284217 0)
(-0.00764647 0.272465 0)
(-0.00731495 0.254712 0)
(-0.00991383 0.207826 0)
(-0.0185593 0.163396 0)
(-0.0320588 0.13556 0)
(-0.050492 0.0989628 0)
(-0.0215133 -0.0935449 0)
(-0.038865 -0.0716268 0)
(-0.0556659 -0.0538233 0)
(-0.0700838 -0.0376533 0)
(-0.081952 -0.0207378 0)
(-0.0909752 -0.00176839 0)
(-0.096676 0.0197867 0)
(-0.099072 0.0437899 0)
(-0.098706 0.0698337 0)
(-0.0956269 0.100054 0)
(-0.0892034 0.135885 0)
(-0.0779581 0.175995 0)
(-0.0610244 0.215492 0)
(-0.0394026 0.248927 0)
(-0.0149697 0.271687 0)
(0.00791362 0.27937 0)
(0.0246415 0.273607 0)
(0.0368673 0.262398 0)
(0.0488478 0.242676 0)
(0.0550822 0.20923 0)
(0.0508026 0.171236 0)
(0.0408614 0.138998 0)
(0.0263459 0.106529 0)
(-0.0220522 -0.066404 0)
(-0.0395817 -0.0507181 0)
(-0.0569886 -0.0372498 0)
(-0.0716586 -0.0243136 0)
(-0.0834304 -0.0103466 0)
(-0.0922146 0.00554428 0)
(-0.0978257 0.0238087 0)
(-0.100206 0.0445243 0)
(-0.0996932 0.0679264 0)
(-0.0962736 0.0948538 0)
(-0.0888989 0.126228 0)
(-0.0763434 0.160723 0)
(-0.0581567 0.19462 0)
(-0.035008 0.224235 0)
(-0.00879838 0.24586 0)
(0.0175599 0.256568 0)
(0.0407283 0.256325 0)
(0.0602425 0.248086 0)
(0.0773666 0.231215 0)
(0.0892652 0.203729 0)
(0.0934891 0.171886 0)
(0.0908595 0.142346 0)
(0.0804823 0.113751 0)
(-0.021082 -0.0397332 0)
(-0.0379974 -0.0299854 0)
(-0.0549978 -0.0207607 0)
(-0.069348 -0.011168 0)
(-0.0807691 -0.000202319 0)
(-0.0892329 0.0126821 0)
(-0.0947458 0.0278273 0)
(-0.0972395 0.0454572 0)
(-0.0966958 0.0657628 0)
(-0.0929295 0.0892439 0)
(-0.0852044 0.115995 0)
(-0.0725204 0.144908 0)
(-0.0545469 0.173583 0)
(-0.0318802 0.199084 0)
(-0.00595361 0.218695 0)
(0.0211753 0.230208 0)
(0.046967 0.232853 0)
(0.0701878 0.227657 0)
(0.090564 0.214817 0)
(0.106352 0.194225 0)
(0.116268 0.169134 0)
(0.11922 0.143437 0)
(0.113052 0.118526 0)
(-0.0191991 -0.0146203 0)
(-0.0349932 -0.0102903 0)
(-0.0509707 -0.00494508 0)
(-0.0645613 0.00148864 0)
(-0.0754065 0.00955286 0)
(-0.0834878 0.019571 0)
(-0.0888175 0.0318022 0)
(-0.0913142 0.046428 0)
(-0.090844 0.063602 0)
(-0.0870941 0.0834524 0)
(-0.079476 0.105824 0)
(-0.0673569 0.129793 0)
(-0.0504965 0.153583 0)
(-0.029304 0.1751 0)
(-0.00487896 0.192266 0)
(0.0213034 0.203378 0)
(0.0472926 0.207461 0)
(0.0716689 0.204669 0)
(0.0935461 0.195284 0)
(0.111588 0.179788 0)
(0.125048 0.160141 0)
(0.132099 0.13894 0)
(0.129874 0.118114 0)
(-0.016636 0.00875463 0)
(-0.031036 0.00807568 0)
(-0.0457036 0.00988011 0)
(-0.0582877 0.0133741 0)
(-0.0684056 0.0187418 0)
(-0.0759925 0.0261282 0)
(-0.0810515 0.0356581 0)
(-0.083479 0.0474321 0)
(-0.0830844 0.061513 0)
(-0.0795568 0.0778778 0)
(-0.072445 0.0962236 0)
(-0.06131 0.115769 0)
(-0.0459954 0.135235 0)
(-0.0268077 0.153059 0)
(-0.00456005 0.167661 0)
(0.0196806 0.177735 0)
(0.04441 0.182325 0)
(0.0682912 0.181219 0)
(0.0902892 0.174606 0)
(0.109252 0.163031 0)
(0.124689 0.147814 0)
(0.134535 0.13074 0)
(0.135584 0.113569 0)
(-0.0141352 0.0279903 0)
(-0.0268233 0.0241771 0)
(-0.0399786 0.0232302 0)
(-0.0513366 0.0242494 0)
(-0.0605499 0.0272422 0)
(-0.0675129 0.0322477 0)
(-0.0721988 0.0393064 0)
(-0.0744879 0.0484427 0)
(-0.0741794 0.0596351 0)
(-0.0709901 0.0727615 0)
(-0.064576 0.0874917 0)
(-0.0546347 0.103175 0)
(-0.041065 0.118841 0)
(-0.0240904 0.13332 0)
(-0.00431129 0.145426 0)
(0.0174852 0.154144 0)
(0.0401581 0.158644 0)
(0.0625546 0.158584 0)
(0.0836875 0.15404 0)
(0.102559 0.145443 0)
(0.118798 0.133707 0)
(0.130323 0.120074 0)
(0.133825 0.105957 0)
(-0.0119199 0.0447406 0)
(-0.0227828 0.0382704 0)
(-0.0342443 0.0350711 0)
(-0.0442092 0.0339907 0)
(-0.0523674 0.0349137 0)
(-0.0585833 0.0378103 0)
(-0.0627987 0.0426561 0)
(-0.0648844 0.0494117 0)
(-0.0646474 0.0579923 0)
(-0.0618439 0.0682241 0)
(-0.0562073 0.0797777 0)
(-0.0475222 0.0921137 0)
(-0.0357221 0.104484 0)
(-0.0209718 0.116008 0)
(-0.00371449 0.125784 0)
(0.015467 0.133026 0)
(0.0357157 0.137056 0)
(0.0560908 0.137516 0)
(0.0757357 0.134389 0)
(0.0937803 0.127968 0)
(0.10996 0.118878 0)
(0.122243 0.107969 0)
(0.127259 0.0963125 0)
(-0.00990089 0.0589143 0)
(-0.0189336 0.0502868 0)
(-0.0286565 0.0452652 0)
(-0.037145 0.0424547 0)
(-0.0441537 0.041632 0)
(-0.0495348 0.0427153 0)
(-0.0532068 0.045632 0)
(-0.0550361 0.0502947 0)
(-0.0548438 0.0565766 0)
(-0.0524218 0.064279 0)
(-0.0475607 0.0730923 0)
(-0.0401002 0.0825664 0)
(-0.0299932 0.0921164 0)
(-0.0173604 0.101069 0)
(-0.00252871 0.108734 0)
(0.0140728 0.114506 0)
(0.0317999 0.117845 0)
(0.0499189 0.118427 0)
(0.0677156 0.116177 0)
(0.0844657 0.111269 0)
(0.0999598 0.10411 0)
(0.112251 0.0952804 0)
(0.118038 0.0855803 0)
(-0.00803369 0.0705446 0)
(-0.0152745 0.0602174 0)
(-0.0232518 0.0537642 0)
(-0.0302395 0.0495742 0)
(-0.0360579 0.0473273 0)
(-0.0405581 0.046899 0)
(-0.0436433 0.048181 0)
(-0.0451782 0.0510527 0)
(-0.0449985 0.0553614 0)
(-0.0429254 0.0609004 0)
(-0.0387895 0.0673857 0)
(-0.0324662 0.0744403 0)
(-0.0239173 0.0816003 0)
(-0.0132294 0.0883439 0)
(-0.000642515 0.0941412 0)
(0.0135334 0.0985216 0)
(0.0288072 0.101064 0)
(0.0446289 0.101493 0)
(0.0604267 0.0997044 0)
(0.0755845 0.0957842 0)
(0.0899742 0.0899879 0)
(0.10174 0.0827005 0)
(0.107595 0.0745352 0)
(-0.00626189 0.0797565 0)
(-0.0117567 0.0681166 0)
(-0.0180219 0.0605822 0)
(-0.0235248 0.0553387 0)
(-0.0281531 0.0519764 0)
(-0.0317621 0.050333 0)
(-0.0342433 0.0502732 0)
(-0.0354613 0.051654 0)
(-0.0352634 0.0543091 0)
(-0.0334932 0.0580339 0)
(-0.0300083 0.0625713 0)
(-0.0247064 0.0676038 0)
(-0.0175529 0.0727588 0)
(-0.00860624 0.0776275 0)
(0.00195758 0.081798 0)
(0.0139237 0.0849073 0)
(0.0269104 0.0866278 0)
(0.0405179 0.0867304 0)
(0.0542922 0.0851053 0)
(0.0677368 0.0817787 0)
(0.080761 0.0769061 0)
(0.0916122 0.0707348 0)
(0.0971466 0.0637666 0)
(-0.00454081 0.0866373 0)
(-0.00835537 0.074049 0)
(-0.0129467 0.0657634 0)
(-0.0170106 0.0597747 0)
(-0.0204813 0.0555915 0)
(-0.0232179 0.0530179 0)
(-0.0251007 0.0518983 0)
(-0.0259935 0.0520763 0)
(-0.025752 0.0533804 0)
(-0.024235 0.0556139 0)
(-0.0213182 0.0585461 0)
(-0.0169125 0.0619085 0)
(-0.0109826 0.0653987 0)
(-0.00356579 0.0686928 0)
(0.00521669 0.0714685 0)
(0.0152071 0.0734439 0)
(0.0261238 0.0743687 0)
(0.0376727 0.0740529 0)
(0.0495054 0.0723923 0)
(0.0612047 0.069381 0)
(0.0727409 0.0651077 0)
(0.0824692 0.0597337 0)
(0.08734 0.0536848 0)
(-0.00283056 0.0912436 0)
(-0.00503954 0.0780852 0)
(-0.00802752 0.0693731 0)
(-0.010721 0.0629355 0)
(-0.0130909 0.0582112 0)
(-0.0149952 0.054977 0)
(-0.0163024 0.0530633 0)
(-0.0168736 0.0523075 0)
(-0.0165694 0.0525392 0)
(-0.0152582 0.0535733 0)
(-0.0128267 0.0552043 0)
(-0.0091928 0.0572046 0)
(-0.00431884 0.0593262 0)
(0.00177281 0.0613104 0)
(0.00901649 0.0629075 0)
(0.017274 0.0638948 0)
(0.026353 0.0640802 0)
(0.0360413 0.0633104 0)
(0.0460643 0.0614938 0)
(0.0560942 0.0586106 0)
(0.0661228 0.0547081 0)
(0.0746124 0.0498906 0)
(0.078728 0.0445465 0)
(-0.00112928 0.0936247 0)
(-0.00183819 0.0803092 0)
(-0.00330024 0.0714979 0)
(-0.00471126 0.0648966 0)
(-0.00605567 0.0598946 0)
(-0.0071837 0.0562505 0)
(-0.00795048 0.0537882 0)
(-0.00821257 0.0523445 0)
(-0.00783253 0.0517552 0)
(-0.0066841 0.0518491 0)
(-0.0046599 0.0524445 0)
(-0.00168118 0.053348 0)
(0.00229023 0.0543552 0)
(0.00726029 0.055262 0)
(0.0131791 0.0558742 0)
(0.0199442 0.0560161 0)
(0.0274248 0.0555362 0)
(0.0354662 0.0543157 0)
(0.0438605 0.0522794 0)
(0.0523295 0.0494034 0)
(0.0609066 0.0457114 0)
(0.0681747 0.041278 0)
(0.0714093 0.0364648 0)
(0.000521543 0.0937742 0)
(0.0011933 0.0808078 0)
(0.00114807 0.0722258 0)
(0.00091413 0.0657326 0)
(0.000509033 0.0607027 0)
(9.36744e-05 0.056882 0)
(-0.000174209 0.0540953 0)
(-0.000145091 0.0521854 0)
(0.000319258 0.0509982 0)
(0.00134298 0.0503777 0)
(0.00302876 0.0501639 0)
(0.00546046 0.0501983 0)
(0.00868597 0.0503167 0)
(0.0127102 0.0503511 0)
(0.0175029 0.0501482 0)
(0.0230008 0.0495726 0)
(0.0291118 0.0485081 0)
(0.0357245 0.0468644 0)
(0.0426758 0.0445829 0)
(0.0497479 0.0416408 0)
(0.0569854 0.0380555 0)
(0.0630749 0.0338756 0)
(0.0655226 0.0294649 0)
(0.00204399 0.091844 0)
(0.00394297 0.0797566 0)
(0.00520607 0.0717236 0)
(0.00603201 0.0655809 0)
(0.00647349 0.0607329 0)
(0.00670126 0.0569371 0)
(0.0068865 0.054023 0)
(0.00718579 0.0518414 0)
(0.00774102 0.0502513 0)
(0.00867721 0.0491152 0)
(0.0100978 0.0482957 0)
(0.0120812 0.0476567 0)
(0.0146782 0.0470652 0)
(0.0179096 0.0463929 0)
(0.0217639 0.045521 0)
(0.0261999 0.0443446 0)
(0.031154 0.0427763 0)
(0.0365468 0.0407497 0)
(0.0422551 0.038222 0)
(0.0480913 0.0351777 0)
(0.0541245 0.0316304 0)
(0.0591614 0.0276204 0)
(0.0608486 0.0235088 0)
(0.00334461 0.0880971 0)
(0.00630465 0.0772861 0)
(0.00873233 0.0700755 0)
(0.0104993 0.0645199 0)
(0.0116934 0.0600635 0)
(0.0124942 0.0564823 0)
(0.0130864 0.053618 0)
(0.0136335 0.0513345 0)
(0.0142811 0.0495069 0)
(0.0151555 0.0480169 0)
(0.0163614 0.0467507 0)
(0.0179799 0.0455986 0)
(0.0200665 0.0444552 0)
(0.0226501 0.0432212 0)
(0.0257324 0.0418062 0)
(0.0292902 0.040132 0)
(0.0332811 0.0381357 0)
(0.0376502 0.0357718 0)
(0.0422992 0.033012 0)
(0.0470829 0.029851 0)
(0.0520717 0.026303 0)
(0.0561647 0.022402 0)
(0.0572595 0.0185165 0)
(0.00435506 0.0828394 0)
(0.00819682 0.0735989 0)
(0.0116224 0.0674387 0)
(0.014193 0.0626615 0)
(0.0160333 0.0587677 0)
(0.0173298 0.0555588 0)
(0.0182776 0.0528941 0)
(0.0190468 0.0506544 0)
(0.0197862 0.0487329 0)
(0.0206239 0.0470318 0)
(0.0216664 0.0454599 0)
(0.0229968 0.0439316 0)
(0.0246748 0.0423666 0)
(0.0267358 0.040691 0)
(0.0291919 0.0388391 0)
(0.032033 0.0367561 0)
(0.0352332 0.0344002 0)
(0.0387551 0.0317437 0)
(0.0425261 0.0287731 0)
(0.046417 0.0254925 0)
(0.0505099 0.0219185 0)
(0.0538231 0.018088 0)
(0.0543778 0.0143701 0)
(0.00507397 0.0764267 0)
(0.00962229 0.068927 0)
(0.0138348 0.0639865 0)
(0.017054 0.0601395 0)
(0.0194232 0.0569481 0)
(0.0211296 0.054242 0)
(0.0223748 0.0519008 0)
(0.0233338 0.0498247 0)
(0.0241578 0.0479268 0)
(0.0249762 0.0461306 0)
(0.0258964 0.0443673 0)
(0.0270034 0.0425742 0)
(0.0283593 0.0406942 0)
(0.0300049 0.0386761 0)
(0.0319594 0.0364761 0)
(0.0342232 0.0340599 0)
(0.0367824 0.0314041 0)
(0.0396139 0.0284971 0)
(0.0426586 0.0253387 0)
(0.0458171 0.0219412 0)
(0.0491696 0.01833 0)
(0.0518149 0.0145372 0)
(0.0520131 0.0109496 0)
(0.00552523 0.0692082 0)
(0.0106027 0.0635153 0)
(0.0153964 0.0599056 0)
(0.0191008 0.0570981 0)
(0.02187 0.0547138 0)
(0.0238883 0.0526105 0)
(0.0253615 0.0506893 0)
(0.0264671 0.0488705 0)
(0.0273577 0.0470888 0)
(0.028163 0.0452894 0)
(0.0289901 0.0434258 0)
(0.0299239 0.0414575 0)
(0.0310281 0.0393488 0)
(0.0323462 0.0370694 0)
(0.0339028 0.0345951 0)
(0.0357055 0.0319094 0)
(0.0377496 0.0290054 0)
(0.040022 0.0258859 0)
(0.0424799 0.0225624 0)
(0.0450347 0.0190571 0)
(0.0477676 0.0154005 0)
(0.0498937 0.0116305 0)
(0.0498038 0.00814053 0)
(0.00578984 0.0614887 0)
(0.0112303 0.0575984 0)
(0.0163948 0.0553835 0)
(0.0204203 0.0536876 0)
(0.0234533 0.0521831 0)
(0.0256743 0.0507538 0)
(0.0272927 0.0493215 0)
(0.0284887 0.0478279 0)
(0.0294152 0.0462301 0)
(0.0302004 0.0444961 0)
(0.0309493 0.0426018 0)
(0.031745 0.040528 0)
(0.0326503 0.0382594 0)
(0.0337096 0.0357844 0)
(0.0349504 0.0330962 0)
(0.0363853 0.0301944 0)
(0.0380162 0.0270864 0)
(0.0398381 0.0237877 0)
(0.0418161 0.0203207 0)
(0.0438849 0.0167176 0)
(0.0461217 0.013015 0)
(0.04781 0.00925226 0)
(0.0475836 0.00584099 0)
(0.00593849 0.0534873 0)
(0.0115943 0.0513749 0)
(0.0169657 0.0505922 0)
(0.0211588 0.050057 0)
(0.0243137 0.0494822 0)
(0.0266164 0.0487733 0)
(0.0282842 0.0478729 0)
(0.0295012 0.0467464 0)
(0.0304198 0.0453755 0)
(0.0311648 0.0437528 0)
(0.0318369 0.0418768 0)
(0.0325145 0.0397492 0)
(0.0332572 0.0373734 0)
(0.0341079 0.0347548 0)
(0.0350945 0.0319019 0)
(0.0362324 0.0288283 0)
(0.0375283 0.0255536 0)
(0.0389821 0.0221044 0)
(0.0405719 0.0185132 0)
(0.0422387 0.0148207 0)
(0.0440548 0.0110682 0)
(0.0454203 0.00730437 0)
(0.0450746 0.0039524 0)
(0.00606854 0.0453168 0)
(0.0118427 0.0449908 0)
(0.0172806 0.0456811 0)
(0.0214967 0.0463529 0)
(0.0246272 0.0467455 0)
(0.0268807 0.0467825 0)
(0.0284913 0.0464319 0)
(0.0296497 0.0456882 0)
(0.0305069 0.0445626 0)
(0.0311821 0.0430745 0)
(0.0317678 0.0412463 0)
(0.032335 0.0390996 0)
(0.032937 0.0366553 0)
(0.0336127 0.0339335 0)
(0.0343882 0.0309558 0)
(0.0352799 0.0277471 0)
(0.0362966 0.0243375 0)
(0.0374433 0.0207629 0)
(0.0387023 0.017064 0)
(0.0400332 0.0132876 0)
(0.041507 0.00948475 0)
(0.0425835 0.0057048 0)
(0.0422267 0.00240101 0)
(0.00625101 0.0369789 0)
(0.0121176 0.0385288 0)
(0.0175372 0.0407792 0)
(0.0216342 0.0427246 0)
(0.0245833 0.044118 0)
(0.0266458 0.0449065 0)
(0.0280858 0.0450965 0)
(0.0291022 0.0447237 0)
(0.0298418 0.0438364 0)
(0.0304134 0.042485 0)
(0.0308976 0.0407159 0)
(0.0313541 0.0385703 0)
(0.031827 0.036084 0)
(0.0323487 0.0332898 0)
(0.0329415 0.0302195 0)
(0.0336201 0.0269073 0)
(0.0343945 0.0233911 0)
(0.0352714 0.0197139 0)
(0.0362419 0.0159227 0)
(0.0372723 0.0120703 0)
(0.0384249 0.00821258 0)
(0.0392765 0.00440883 0)
(0.0388989 0.00113495 0)
(0.006612 0.0283774 0)
(0.0126237 0.0320047 0)
(0.0179413 0.0360043 0)
(0.0217569 0.0393336 0)
(0.0243498 0.0417572 0)
(0.0260745 0.0432764 0)
(0.0272341 0.0439658 0)
(0.0280326 0.0439221 0)
(0.0286053 0.0432413 0)
(0.0290443 0.0420084 0)
(0.029413 0.0402945 0)
(0.0297564 0.0381579 0)
(0.0301067 0.0356469 0)
(0.0304874 0.0328039 0)
(0.0309154 0.0296684 0)
(0.0314021 0.0262809 0)
(0.031956 0.0226851 0)
(0.0325848 0.0189289 0)
(0.0332809 0.0150629 0)
(0.0340259 0.0111439 0)
(0.0348847 0.00723112 0)
(0.0354884 0.00338861 0)
(0.035138 0.000123808 0)
(0.00730027 0.019331 0)
(0.0135411 0.0253712 0)
(0.0186715 0.0315013 0)