/*--------------------------------*- C++ -*----------------------------------*\
  =========                 |
  \\      /  F ield         | OpenFOAM: The Open Source CFD Toolbox
   \\    /   O peration     | Website:  https://openfoam.org
    \\  /    A nd           | Version:  13
     \\/     M anipulation  |
\*---------------------------------------------------------------------------*/
FoamFile
{
    format      ascii;
    class       volScalarField;
    location    "0.0002";
    object      cellMotionUx;
}
// * * * * * * * * * * * * * * * * * * * * * * * * * * * * * * * * * * * * * //

dimensions      [0 1 -1 0 0 0 0];

internalField   nonuniform List<scalar> 
1690
(
0.0600372
0.180112
0.300183
0.420248
0.540286
0.660262
0.780553
0.90935
0.0600372
0.180112
0.300183
0.420248
0.540286
0.660263
0.780552
0.909322
0.0600372
0.180112
0.300184
0.420248
0.540287
0.660264
0.780549
0.909259
0.0600372
0.180112
0.300184
0.420248
0.540287
0.660265
0.780545
0.909164
0.0600372
0.180112
0.300184
0.420248
0.540288
0.660268
0.78054
0.909036
0.0600372
0.180112
0.300184
0.420248
0.540289
0.660271
0.780534
0.908876
0.0600372
0.180112
0.300184
0.420249
0.54029
0.660274
0.780528
0.908683
0.0600372
0.180112
0.300184
0.420249
0.540291
0.660278
0.780521
0.908456
0.0600372
0.180112
0.300184
0.420249
0.540292
0.660283
0.780513
0.908195
0.0600372
0.180112
0.300184
0.42025
0.540294
0.660288
0.780506
0.907899
0.0600372
0.180112
0.300184
0.42025
0.540295
0.660294
0.780499
0.907569
0.0600372
0.180112
0.300184
0.42025
0.540297
0.660299
0.780493
0.907202
0.0600373
0.180112
0.300184
0.420251
0.540299
0.660306
0.780489
0.906798
0.0600373
0.180112
0.300184
0.420251
0.540301
0.660312
0.780487
0.906357
0.0600373
0.180112
0.300185
0.420252
0.540303
0.660318
0.780487
0.905878
0.981135
0.945225
0.908649
0.87083
0.831622
0.79096
0.748788
0.705051
0.659688
0.612641
0.563846
0.513239
0.460753
0.406316
0.349857
0.291301
0.23057
0.167582
0.102254
0.0344974
0.981121
0.945222
0.908648
0.87083
0.831622
0.79096
0.748788
0.705051
0.659688
0.612641
0.563846
0.513239
0.460753
0.406316
0.349857
0.291301
0.23057
0.167582
0.102254
0.0344974
0.981093
0.945215
0.908647
0.870829
0.831622
0.79096
0.748788
0.705051
0.659688
0.612641
0.563846
0.513239
0.460753
0.406316
0.349857
0.291301
0.23057
0.167582
0.102254
0.0344974
0.981054
0.945205
0.908645
0.870829
0.831622
0.79096
0.748788
0.705051
0.659688
0.612641
0.563846
0.513239
0.460753
0.406316
0.349857
0.291301
0.23057
0.167582
0.102254
0.0344974
0.981006
0.945193
0.908643
0.870829
0.831622
0.79096
0.748788
0.705051
0.659688
0.612641
0.563846
0.513239
0.460753
0.406316
0.349857
0.291301
0.23057
0.167582
0.102254
0.0344974
0.98095
0.94518
0.908641
0.870829
0.831622
0.79096
0.748788
0.705051
0.659688
0.612641
0.563846
0.513239
0.460753
0.406316
0.349857
0.291301
0.23057
0.167582
0.102254
0.0344973
0.980889
0.945167
0.908639
0.870828
0.831622
0.79096
0.748788
0.705051
0.659688
0.612641
0.563846
0.513239
0.460753
0.406316
0.349857
0.291301
0.23057
0.167582
0.102254
0.0344973
0.980822
0.945153
0.908637
0.870828
0.831622
0.79096
0.748788
0.705051
0.659688
0.612641
0.563846
0.513239
0.460753
0.406316
0.349857
0.291301
0.23057
0.167582
0.102254
0.0344973
0.980752
0.945139
0.908635
0.870828
0.831622
0.79096
0.748788
0.705051
0.659688
0.612641
0.563846
0.513239
0.460753
0.406316
0.349857
0.291301
0.23057
0.167582
0.102254
0.0344973
0.980678
0.945126
0.908634
0.870828
0.831622
0.79096
0.748788
0.705051
0.659688
0.612641
0.563846
0.513239
0.460753
0.406316
0.349857
0.291301
0.23057
0.167582
0.102254
0.0344973
0.980602
0.945113
0.908632
0.870828
0.831622
0.79096
0.748788
0.705051
0.659688
0.612641
0.563846
0.513239
0.460753
0.406316
0.349857
0.291301
0.23057
0.167582
0.102254
0.0344973
0.980524
0.9451
0.90863
0.870827
0.831622
0.79096
0.748788
0.705051
0.659688
0.612641
0.563846
0.513239
0.460753
0.406316
0.349857
0.291301
0.23057
0.167582
0.102254
0.0344973
0.980446
0.945089
0.908629
0.870827
0.831622
0.79096
0.748788
0.705051
0.659688
0.612641
0.563846
0.513239
0.460753
0.406316
0.349857
0.291301
0.23057
0.167582
0.102254
0.0344973
0.980366
0.945078
0.908627
0.870827
0.831622
0.79096
0.748788
0.705051
0.659688
0.612641
0.563846
0.513239
0.460753
0.406316
0.349857
0.291301
0.23057
0.167582
0.102254
0.0344973
0.980287
0.945067
0.908626
0.870827
0.831622
0.79096
0.748788
0.705051
0.659688
0.612641
0.563846
0.513239
0.460753
0.406316
0.349857
0.291301
0.23057
0.167582
0.102254
0.0344972
0.980209
0.945058
0.908625
0.870827
0.831622
0.79096
0.748788
0.705051
0.659688
0.612641
0.563846
0.513239
0.460753
0.406316
0.349857
0.291301
0.23057
0.167582
0.102254
0.0344972
0.980131
0.94505
0.908624
0.870827
0.831622
0.79096
0.748788
0.705051
0.659688
0.612641
0.563846
0.513239
0.460753
0.406316
0.349857
0.291301
0.23057
0.167582
0.102254
0.0344972
0.980054
0.945042
0.908623
0.870827
0.831622
0.79096
0.748788
0.705051
0.659688
0.612641
0.563846
0.513239
0.460753
0.406316
0.349857
0.291301
0.23057
0.167582
0.102254
0.0344972
0.979979
0.945035
0.908623
0.870827
0.831622
0.79096
0.748788
0.705051
0.659688
0.612641
0.563846
0.513239
0.460753
0.406316
0.349857
0.291301
0.23057
0.167582
0.102254
0.0344972
0.979906
0.945029
0.908622
0.870826
0.831622
0.79096
0.748788
0.705051
0.659688
0.612641
0.563846
0.513239
0.460753
0.406316
0.349857
0.291301
0.23057
0.167582
0.102254
0.0344972
0.0600373
0.180112
0.300185
0.420253
0.540306
0.66033
0.780493
0.905012
0.0600373
0.180112
0.300185
0.420254
0.540311
0.660346
0.780492
0.902411
0.0600373
0.180112
0.300185
0.420256
0.540316
0.660362
0.780467
0.900406
0.0600373
0.180112
0.300186
0.420257
0.540322
0.660377
0.780434
0.898898
0.0600373
0.180112
0.300186
0.420259
0.540327
0.660391
0.780404
0.897831
0.0600374
0.180112
0.300187
0.42026
0.540332
0.660403
0.780385
0.897162
0.0600374
0.180113
0.300187
0.420261
0.540336
0.660414
0.780379
0.896854
0.0600374
0.180113
0.300187
0.420263
0.54034
0.660424
0.780389
0.89688
0.0600374
0.180113
0.300188
0.420264
0.540344
0.660432
0.780413
0.897214
0.0600374
0.180113
0.300188
0.420265
0.540347
0.660438
0.780448
0.897834
0.0600374
0.180113
0.300188
0.420266
0.540349
0.660444
0.780491
0.898721
0.0600375
0.180113
0.300188
0.420266
0.540351
0.660447
0.780535
0.899857
0.0600375
0.180113
0.300188
0.420267
0.540353
0.66045
0.780572
0.901224
0.0600375
0.180113
0.300189
0.420267
0.540354
0.660451
0.780594
0.902804
0.0600375
0.180113
0.300189
0.420267
0.540354
0.660452
0.780592
0.904596
0.994431
0.999318
0.999874
0.999976
0.999996
0.999999
1
1
1
1
1
1
1
1
1
1
1
1
1
1
1
1
1
1
1
1
1
1
1
1
1
1
1
1
1
1
1
1
1
1
1
1
1
1
1
1
1
1
0.999998
0.999928
0.989049
0.998225
0.999665
0.999936
0.999988
0.999998
1
1
1
1
1
1
1
1
1
1
1
1
1
1
1
1
1
1
1
1
1
1
1
1
1
1
1
1
1
1
1
1
1
1
1
1
1
1
1
1
1
1
0.999995
0.999809
0.985012
0.997349
0.999492
0.999903
0.999982
0.999997
0.999999
1
1
1
1
1
1
1
1
1
1
1
1
1
1
1
1
1
1
1
1
1
1
1
1
1
1
1
1
1
1
1
1
1
1
1
1
1
1
1
1
1
0.999992
0.999711
0.982085
0.99668
0.999357
0.999876
0.999977
0.999996
0.999999
1
1
1
1
1
1
1
1
1
1
1
1
1
1
1
1
1
1
1
1
1
1
1
1
1
1
1
1
1
1
1
1
1
1
1
1
1
1
1
1
1
0.99999
0.999632
0.980088
0.996206
0.999259
0.999857
0.999973
0.999995
0.999999
1
1
1
1
1
1
1
1
1
1
1
1
1
1
1
1
1
1
1
1
1
1
1
1
1
1
1
1
1
1
1
1
1
1
1
1
1
1
1
1
1
0.999988
0.999571
0.978891
0.995917
0.9992
0.999846
0.999971
0.999995
0.999999
1
1
1
1
1
1
1
1
1
1
1
1
1
1
1
1
1
1
1
1
1
1
1
1
1
1
1
1
1
1
1
1
1
1
1
1
1
1
1
1
1
0.999987
0.999529
0.978406
0.995803
0.999176
0.999841
0.99997
0.999994
0.999999
1
1
1
1
1
1
1
1
1
1
1
1
1
1
1
1
1
1
1
1
1
1
1
1
1
1
1
1
1
1
1
1
1
1
1
1
1
1
1
1
1
0.999986
0.999505
0.978567
0.995852
0.999187
0.999843
0.99997
0.999994
0.999999
1
1
1
1
1
1
1
1
1
1
1
1
1
1
1
1
1
1
1
1
1
1
1
1
1
1
1
1
1
1
1
1
1
1
1
1
1
1
1
1
1
0.999985
0.999499
0.979333
0.996052
0.99923
0.999852
0.999972
0.999995
0.999999
1
1
1
1
1
1
1
1
1
1
1
1
1
1
1
1
1
1
1
1
1
1
1
1
1
1
1
1
1
1
1
1
1
1
1
1
1
1
1
1
1
0.999986
0.99951
0.980677
0.996392
0.999302
0.999866
0.999975
0.999995
0.999999
1
1
1
1
1
1
1
1
1
1
1
1
1
1
1
1
1
1
1
1
1
1
1
1
1
1
1
1
1
1
1
1
1
1
1
1
1
1
1
1
1
0.999987
0.999539
0.982584
0.996857
0.999398
0.999884
0.999978
0.999996
0.999999
1
1
1
1
1
1
1
1
1
1
1
1
1
1
1
1
1
1
1
1
1
1
1
1
1
1
1
1
1
1
1
1
1
1
1
1
1
1
1
1
1
0.999988
0.999584
0.985053
0.997431
0.999514
0.999907
0.999982
0.999997
0.999999
1
1
1
1
1
1
1
1
1
1
1
1
1
1
1
1
1
1
1
1
1
1
1
1
1
1
1
1
1
1
1
1
1
1
1
1
1
1
1
1
1
0.99999
0.999646
0.988092
0.998096
0.999645
0.999932
0.999987
0.999998
1
1
1
1
1
1
1
1
1
1
1
1
1
1
1
1
1
1
1
1
1
1
1
1
1
1
1
1
1
1
1
1
1
1
1
1
1
1
1
1
1
1
0.999993
0.999725
0.991721
0.99883
0.999786
0.999959
0.999992
0.999999
1
1
1
1
1
1
1
1
1
1
1
1
1
1
1
1
1
1
1
1
1
1
1
1
1
1
1
1
1
1
1
1
1
1
1
1
1
1
1
1
1
1
0.999996
0.999821
0.995912
0.999607
0.99993
0.999987
0.999997
1
1
1
1
1
1
1
1
1
1
1
1
1
1
1
1
1
1
1
1
1
1
1
1
1
1
1
1
1
1
1
1
1
1
1
1
1
1
1
1
1
1
1
0.999999
0.999933
0.979843
0.945024
0.908622
0.870826
0.831622
0.79096
0.748788
0.705051
0.659688
0.612641
0.563846
0.513239
0.460753
0.406316
0.349857
0.291301
0.23057
0.167582
0.102254
0.0344972
0.97979
0.94502
0.908621
0.870826
0.831622
0.79096
0.748788
0.705051
0.659688
0.612641
0.563846
0.513239
0.460753
0.406316
0.349857
0.291301
0.23057
0.167582
0.102254
0.0344972
0.979742
0.945016
0.908621
0.870826
0.831622
0.79096
0.748788
0.705051
0.659688
0.612641
0.563846
0.513239
0.460753
0.406316
0.349857
0.291301
0.23057
0.167582
0.102254
0.0344972
0.979698
0.945013
0.90862
0.870826
0.831622
0.79096
0.748788
0.705051
0.659688
0.612641
0.563846
0.513239
0.460753
0.406316
0.349857
0.291301
0.23057
0.167582
0.102254
0.0344972
0.979659
0.94501
0.90862
0.870826
0.831622
0.79096
0.748788
0.705051
0.659688
0.612641
0.563846
0.513239
0.460753
0.406316
0.349857
0.291301
0.23057
0.167582
0.102254
0.0344972
0.979625
0.945007
0.90862
0.870826
0.831622
0.79096
0.748788
0.705051
0.659688
0.612641
0.563846
0.513239
0.460753
0.406316
0.349857
0.291301
0.23057
0.167582
0.102254
0.0344972
0.979595
0.945004
0.90862
0.870826
0.831622
0.79096
0.748788
0.705051
0.659688
0.612641
0.563846
0.513239
0.460753
0.406316
0.349857
0.291301
0.23057
0.167582
0.102254
0.0344972
0.979569
0.945002
0.908619
0.870826
0.831622
0.79096
0.748788
0.705051
0.659688
0.612641
0.563846
0.513239
0.460753
0.406316
0.349857
0.291301
0.23057
0.167582
0.102254
0.0344972
0.979547
0.945
0.908619
0.870826
0.831622
0.79096
0.748788
0.705051
0.659688
0.612641
0.563846
0.513239
0.460753
0.406316
0.349857
0.291301
0.23057
0.167582
0.102254
0.0344972
0.979529
0.944998
0.908619
0.870826
0.831622
0.79096
0.748788
0.705051
0.659688
0.612641
0.563846
0.513239
0.460753
0.406316
0.349857
0.291301
0.23057
0.167582
0.102254
0.0344972
0.979515
0.944997
0.908619
0.870826
0.831622
0.79096
0.748788
0.705051
0.659688
0.612641
0.563846
0.513239
0.460753
0.406316
0.349857
0.291301
0.23057
0.167582
0.102254
0.0344972
0.979506
0.944995
0.908619
0.870826
0.831622
0.79096
0.748788
0.705051
0.659688
0.612641
0.563846
0.513239
0.460753
0.406316
0.349857
0.291301
0.23057
0.167582
0.102254
0.0344972
0.979499
0.944995
0.908619
0.870826
0.831622
0.79096
0.748788
0.705051
0.659688
0.612641
0.563846
0.513239
0.460753
0.406316
0.349857
0.291301
0.23057
0.167582
0.102254
0.0344972
0.979497
0.944994
0.908619
0.870826
0.831622
0.79096
0.748788
0.705051
0.659688
0.612641
0.563846
0.513239
0.460753
0.406316
0.349857
0.291301
0.23057
0.167582
0.102254
0.0344972
0.979498
0.944994
0.908619
0.870826
0.831622
0.79096
0.748788
0.705051
0.659688
0.612641
0.563846
0.513239
0.460753
0.406316
0.349857
0.291301
0.23057
0.167582
0.102254
0.0344972
)
;

boundaryField
{
    internal
    {
        type            internal;
    }
    movingWall
    {
        type            cellMotion;
        value           nonuniform List<scalar> 
85
(
1
1
1
1
1
1
1
1
1
1
1
1
1
1
1
1
1
1
1
1
1
1
1
1
1
1
1
1
1
1
1
1
1
1
1
1
1
1
1
1
1
1
1
1
1
1
1
1
1
1
1
1
1
1
1
1
1
1
1
1
1
1
1
1
1
1
1
1
1
1
1
1
1
1
1
1
1
1
1
1
1
1
1
1
1
)
;
    }
    farFieldMoving
    {
        type            cellMotion;
        value           nonuniform List<scalar> 
50
(
1
1
1
1
1
1
1
1
1
1
1
1
1
1
1
1
1
1
1
1
1
1
1
1
1
1
1
1
1
1
1
1
1
1
1
1
1
1
1
1
1
1
1
1
1
1
1
1
1
1
)
;
    }
    fixedWall
    {
        type            cellMotion;
        value           uniform 0;
    }
    axis
    {
        type            empty;
    }
    left
    {
        type            cellMotion;
        value           uniform 0;
    }
    farField
    {
        type            slip;
    }
    back
    {
        type            wedge;
    }
    front
    {
        type            wedge;
    }
}


// ************************************************************************* //
