/*--------------------------------*- C++ -*----------------------------------*\
  =========                 |
  \\      /  F ield         | OpenFOAM: The Open Source CFD Toolbox
   \\    /   O peration     | Website:  https://openfoam.org
    \\  /    A nd           | Version:  13
     \\/     M anipulation  |
\*---------------------------------------------------------------------------*/
FoamFile
{
    format      ascii;
    class       surfaceScalarField;
    location    "0.0002";
    object      meshPhi;
}
// * * * * * * * * * * * * * * * * * * * * * * * * * * * * * * * * * * * * * //

dimensions      [0 3 -1 0 0 0 0];

internalField   nonuniform List<scalar> 
3252
(
1.30939e-11
-4.01276e-25
2.61876e-11
2.00047e-25
3.92807e-11
2.01233e-25
5.23714e-11
0
6.54538e-11
-2.01315e-25
7.85222e-11
2.00544e-25
9.189e-11
0
0
3.92817e-11
-8.00187e-25
7.8563e-11
0
1.17842e-10
8.002e-25
1.57114e-10
0
1.96362e-10
0
2.35567e-10
8.06888e-25
2.75664e-10
8.14275e-25
-8.99867e-25
6.54696e-11
2.40056e-24
1.30938e-10
2.41476e-24
1.96404e-10
2.4148e-24
2.61858e-10
-2.40076e-24
3.27271e-10
2.40159e-24
3.92613e-10
0
4.59418e-10
0
-2.70019e-24
9.16575e-11
6.42043e-24
1.83314e-10
3.21969e-24
2.74966e-10
3.2008e-24
3.66601e-10
-1.89241e-26
4.5818e-10
3.2021e-24
5.49662e-10
6.43579e-24
6.4314e-10
0
3.60137e-24
1.17845e-10
0
2.35689e-10
-8.00189e-24
3.53527e-10
-1.60513e-23
4.71345e-10
-8.04984e-24
5.89091e-10
8.0052e-24
7.06714e-10
-4.72326e-26
8.26814e-10
8.13554e-24
-6.21066e-26
1.44033e-10
0
2.88065e-10
9.65906e-24
4.32089e-10
9.65918e-24
5.76089e-10
0
7.20004e-10
-9.60617e-24
8.63769e-10
0
1.01043e-09
1.95739e-23
1.07392e-23
1.70221e-10
1.12026e-23
3.4044e-10
-2.25378e-23
5.10651e-10
-1.1269e-23
6.80834e-10
1.11373e-23
8.50919e-10
1.12071e-23
1.02083e-09
2.24552e-23
1.19397e-09
-6.73472e-26
0
1.96409e-10
-1.2803e-23
3.92816e-10
0
5.89213e-10
-1.28032e-23
7.85579e-10
1.2804e-23
9.81836e-10
0
1.1779e-09
-2.57368e-23
1.37742e-09
-1.31485e-23
1.44366e-23
2.22597e-10
2.88919e-23
4.45191e-10
-1.44034e-23
6.67775e-10
0
8.90324e-10
0
1.11276e-09
1.44939e-23
1.33498e-09
-2.89515e-23
1.56077e-09
1.46945e-23
1.62537e-23
2.48785e-10
0
4.97567e-10
3.20076e-23
7.46338e-10
0
9.95071e-10
3.20098e-23
1.24368e-09
3.22084e-23
1.49206e-09
0
1.74401e-09
-1.91526e-25
3.59012e-23
2.74973e-10
3.52082e-23
5.49942e-10
-3.54165e-23
8.249e-10
3.52087e-23
1.09982e-09
3.52107e-23
1.3746e-09
-2.08077e-25
1.64916e-09
0
1.92712e-09
3.56438e-23
0
3.01161e-10
0
6.02318e-10
3.84091e-23
9.03463e-10
0
1.20457e-09
3.84116e-23
1.50553e-09
-3.8422e-23
1.80628e-09
0
2.11008e-09
-3.88424e-23
-4.34696e-23
3.27349e-10
8.34655e-23
6.54694e-10
4.16098e-23
9.82026e-10
0
1.30931e-09
-4.16124e-23
1.63646e-09
-4.18691e-23
1.96341e-09
4.16803e-23
2.29288e-09
0
3.26005e-25
3.53536e-10
-2.65001e-25
7.07069e-10
-4.50756e-23
1.06059e-09
4.4811e-23
1.41406e-09
-2.64956e-25
1.7674e-09
-2.64855e-25
2.12056e-09
4.48819e-23
2.47549e-09
4.49373e-23
-5.08397e-23
3.79724e-10
4.85791e-23
7.59445e-10
-4.80113e-23
1.13915e-09
-9.63075e-23
1.51882e-09
0
1.89835e-09
0
2.27776e-09
2.83743e-25
2.65961e-09
4.84155e-23
1.08606e-22
1.41235e-09
-3.90058e-24
1.35921e-09
8.12925e-24
1.30469e-09
-4.21304e-24
1.24823e-09
5.56405e-27
1.1897e-09
5.76932e-27
1.12899e-09
1.19668e-26
1.06603e-09
4.88172e-24
1.00073e-09
5.06311e-24
9.33005e-10
0
8.62766e-10
6.9228e-27
7.89919e-10
7.17988e-27
7.14367e-10
7.44652e-27
6.36008e-10
6.08399e-24
5.54739e-10
8.00993e-27
4.70451e-10
1.30724e-23
3.83033e-10
0
2.92367e-10
0
1.98334e-10
-7.2829e-24
1.00808e-10
7.56311e-24
9.93627e-27
3.84652e-09
-1.50328e-23
3.70183e-09
1.56868e-23
3.55334e-09
2.07386e-26
3.39959e-09
3.37731e-23
3.24017e-09
3.50506e-23
3.07484e-09
3.63299e-23
2.90336e-09
-1.8792e-23
2.72552e-09
2.48378e-26
2.54108e-09
2.57601e-26
2.34978e-09
-2.09922e-23
2.15139e-09
0
1.94562e-09
4.52198e-23
1.73221e-09
2.345e-23
1.51088e-09
-2.42904e-23
1.28133e-09
-2.51929e-23
1.04324e-09
3.32513e-26
7.96317e-10
-2.70653e-23
5.40219e-10
2.81782e-23
2.74611e-10
-2.91139e-23
3.83583e-26
5.76538e-09
4.3649e-23
5.54859e-09
-4.53675e-23
5.32604e-09
0
5.0956e-09
6.21767e-26
4.85666e-09
6.44722e-26
4.60884e-09
5.2601e-23
4.35183e-09
6.93477e-26
4.08528e-09
5.65825e-23
3.80882e-09
5.86848e-23
3.5221e-09
7.73633e-26
3.22474e-09
6.31268e-23
2.91632e-09
8.32162e-26
2.59646e-09
-6.78187e-23
2.26471e-09
-7.03385e-23
1.92064e-09
7.30448e-23
1.56379e-09
9.62863e-26
1.19369e-09
0
8.09832e-10
0
4.11722e-10
8.4521e-23
0
7.25186e-09
-5.61229e-23
6.9793e-09
7.52594e-26
6.69941e-09
6.06231e-23
6.40956e-09
-6.28808e-23
6.10901e-09
8.30107e-26
5.79731e-09
8.60915e-26
5.47403e-09
7.01543e-23
5.13875e-09
0
4.79102e-09
9.60426e-26
4.43038e-09
-7.82684e-23
4.05634e-09
-8.12798e-23
3.66841e-09
8.41927e-23
3.26607e-09
1.11125e-25
2.84879e-09
1.81361e-22
2.41601e-09
9.40499e-23
1.96715e-09
-9.74204e-23
1.50161e-09
1.2858e-25
1.01879e-09
1.04928e-22
5.18027e-10
0
-2.25485e-22
8.37674e-09
1.35638e-22
8.06209e-09
7.05472e-23
7.73883e-09
-7.33039e-23
7.40403e-09
-7.60332e-23
7.05686e-09
-7.88589e-23
6.69681e-09
8.1685e-23
6.32338e-09
8.47201e-23
5.93609e-09
-8.79798e-23
5.53441e-09
9.11328e-23
5.11783e-09
9.46392e-23
4.68576e-09
9.80308e-23
4.23766e-09
-1.2939e-25
3.7729e-09
1.05317e-22
3.29089e-09
-1.09508e-22
2.79097e-09
-1.13577e-22
2.27248e-09
-1.17797e-22
1.73472e-09
-1.22174e-22
1.17699e-09
-1.26713e-22
5.98549e-10
1.31254e-22
-1.72852e-25
9.20035e-09
0
8.855e-09
8.19321e-23
8.50001e-09
-8.49128e-23
8.1323e-09
-1.12118e-25
7.751e-09
-9.13467e-23
7.35554e-09
-1.89602e-22
6.94539e-09
0
6.52001e-09
1.02042e-22
6.07884e-09
0
5.62129e-09
0
5.14674e-09
-1.13699e-22
4.65456e-09
0
4.14411e-09
0
3.61469e-09
1.61426e-25
3.06561e-09
-1.31563e-22
2.49613e-09
1.73642e-25
1.90549e-09
2.83221e-22
1.29291e-09
-2.93744e-22
6.57576e-10
0
1.57907e-22
9.77405e-09
0
9.40745e-09
0
9.03038e-09
-1.91584e-22
8.63975e-09
0
8.23466e-09
-2.06098e-22
7.81454e-09
-2.13756e-22
7.37881e-09
2.2198e-22
6.9269e-09
0
6.45821e-09
0
5.97211e-09
2.47654e-22
5.46796e-09
0
4.94509e-09
-2.66061e-22
4.40279e-09
2.75947e-22
3.84035e-09
-2.862e-22
3.25701e-09
2.96834e-22
2.652e-09
-3.07862e-22
2.02452e-09
-6.39009e-22
1.37373e-09
-3.31165e-22
6.98757e-10
0
0
1.01415e-08
0
9.76142e-09
2.04132e-22
9.37025e-09
-2.11811e-22
8.96493e-09
2.19692e-22
8.54461e-09
0
8.10868e-09
-2.36322e-22
7.65656e-09
-2.45103e-22
7.18765e-09
0
6.70133e-09
2.63655e-22
6.19695e-09
0
5.67383e-09
0
5.13129e-09
2.94149e-22
4.56859e-09
-3.05078e-22
3.98498e-09
0
3.3797e-09
0
2.75193e-09
3.40796e-22
2.10084e-09
0
1.42556e-09
0
7.25199e-10
-4.83223e-25
-5.00407e-25
1.03397e-08
-2.13436e-22
9.95256e-09
0
9.5538e-09
-4.61233e-22
9.14056e-09
0
8.71201e-09
-2.48083e-22
8.26755e-09
2.573e-22
7.80659e-09
-2.66521e-22
7.3285e-09
-8.3068e-22
6.83266e-09
0
6.31841e-09
-2.97726e-22
5.78505e-09
0
5.23188e-09
3.20668e-22
4.65817e-09
0
4.06314e-09
-3.4494e-22
3.44601e-09
-4.54691e-25
2.80595e-09
3.71049e-22
2.14212e-09
0
1.45362e-09
-7.9776e-22
7.39539e-10
4.13964e-22
0
1.04001e-08
3.13977e-25
1.0011e-08
-2.39128e-22
9.61001e-09
4.96829e-22
9.19436e-09
3.27528e-25
8.7633e-09
2.67226e-22
8.31623e-09
-5.53605e-22
7.85256e-09
2.87453e-22
7.37167e-09
3.78942e-25
6.87292e-09
-3.08817e-22
6.35564e-09
-3.20292e-22
5.81916e-09
-3.32192e-22
5.26274e-09
3.44973e-22
4.68566e-09
4.54742e-25
4.08714e-09
4.71634e-25
3.46638e-09
3.84873e-22
2.82257e-09
7.97838e-22
2.15483e-09
-4.13478e-22
1.46229e-09
5.45725e-25
7.44012e-10
5.66e-25
5.86329e-25
1.03492e-08
3.34835e-25
9.96238e-09
-2.54806e-22
9.56338e-09
6.73227e-25
9.14976e-09
2.74528e-22
8.7208e-09
3.6192e-25
8.27591e-09
3.75362e-25
7.81449e-09
3.89303e-25
7.33594e-09
-3.16853e-22
6.83962e-09
-3.29044e-22
6.32486e-09
3.41704e-22
5.79098e-09
4.50441e-25
5.23727e-09
-7.33735e-22
4.663e-09
-3.80741e-22
4.06738e-09
-3.94385e-22
3.44965e-09
-4.08517e-22
2.80896e-09
5.40558e-25
2.14447e-09
4.41681e-22
1.45529e-09
-4.56347e-22
7.4051e-10
6.03074e-25
9.84962e-22
1.02093e-08
0
9.82812e-09
5.39115e-22
9.43456e-09
-3.55789e-25
9.02653e-09
-2.90216e-22
8.60335e-09
-3.82601e-25
8.16446e-09
-3.96812e-25
7.70926e-09
-4.1155e-25
7.23716e-09
0
6.74753e-09
-3.47848e-22
6.23971e-09
0
5.71303e-09
-1.12348e-21
5.16678e-09
0
4.60025e-09
0
4.01267e-09
-1.25342e-21
3.40325e-09
8.66479e-22
2.7712e-09
0
2.11567e-09
0
1.43578e-09
4.8304e-22
7.30632e-10
5.00987e-22
0
9.99934e-09
0
9.62635e-09
0
9.24094e-09
-2.9388e-22
8.8413e-09
3.04801e-22
8.42681e-09
0
7.99693e-09
3.27872e-22
7.55108e-09
0
7.08867e-09
-3.5224e-22
6.60909e-09
-3.65328e-22
6.1117e-09
3.79866e-22
5.59583e-09
5.00113e-25
5.0608e-09
4.081e-22
4.5059e-09
5.37958e-25
3.93038e-09
0
3.33348e-09
9.10601e-22
2.7144e-09
6.00169e-25
2.07233e-09
-4.89762e-22
1.4064e-09
6.45593e-25
7.15721e-10
5.26833e-22
5.46432e-22
9.73505e-09
0
9.37229e-09
0
8.99711e-09
3.07345e-22
8.60802e-09
4.04663e-25
8.20447e-09
-6.59956e-22
7.78594e-09
-3.42021e-22
7.35186e-09
-3.54729e-22
6.90165e-09
4.68227e-25
6.43473e-09
4.85617e-25
5.95047e-09
-1.18777e-21
5.44821e-09
4.10983e-22
4.92731e-09
4.26253e-22
4.38705e-09
0
3.82672e-09
-4.57351e-22
3.24557e-09
0
2.64284e-09
0
2.01771e-09
1.02245e-21
1.36935e-09
-5.2988e-22
6.96909e-10
-5.48868e-22
-5.7001e-22
9.42966e-09
-2.94433e-22
9.07863e-09
-6.14144e-22
8.71526e-09
-3.18299e-22
8.33837e-09
0
7.94747e-09
3.4326e-22
7.54205e-09
3.56014e-22
7.12157e-09
4.69334e-25
6.68547e-09
3.82961e-22
6.23318e-09
5.04844e-25
5.76409e-09
4.11948e-22
5.27757e-09
4.27254e-22
4.77299e-09
-8.85131e-22
4.24965e-09
0
3.70688e-09
-9.52128e-22
3.14395e-09
6.28343e-25
2.5601e-09
-5.12749e-22
1.95455e-09
5.318e-22
1.32651e-09
0
6.75139e-10
5.72052e-22
7.53617e-25
9.09417e-09
6.11354e-22
8.75596e-09
9.55715e-22
8.40555e-09
-6.59979e-22
8.04206e-09
-3.42245e-22
7.66506e-09
4.51764e-25
7.27405e-09
0
6.86851e-09
-3.81342e-22
6.44792e-09
0
6.0117e-09
-8.21981e-22
5.55928e-09
5.42132e-25
5.09006e-09
8.8476e-22
4.6034e-09
4.594e-22
4.09867e-09
0
3.57519e-09
0
3.03226e-09
0
2.46916e-09
0
1.88514e-09
0
1.27943e-09
-5.69635e-22
6.512e-10
7.52802e-25
6.14331e-22
8.73771e-09
4.33618e-25
8.41308e-09
6.57437e-22
8.07643e-09
-3.40481e-22
7.72718e-09
3.53574e-22
7.36494e-09
7.32954e-22
6.98924e-09
4.83442e-25
6.59959e-09
3.94968e-22
6.19546e-09
4.09123e-22
5.77633e-09
5.39335e-25
5.34162e-09
5.59367e-25
4.89078e-09
-4.55862e-22
4.42318e-09
-4.72799e-22
3.93822e-09
-4.89742e-22
3.43523e-09
1.01782e-21
2.91357e-09
1.34254e-24
2.37252e-09
5.47778e-22
1.81137e-09
-5.66686e-22
1.22937e-09
1.49781e-24
6.25746e-10
1.55347e-24
6.33856e-22
8.36781e-09
-3.2394e-22
8.05722e-09
3.37725e-22
7.73485e-09
-7.00468e-22
7.40038e-09
3.637e-22
7.05346e-09
3.77692e-22
6.69365e-09
3.91228e-22
6.32048e-09
4.05764e-22
5.93345e-09
-4.20305e-22
5.53204e-09
0
5.11573e-09
-4.52119e-22
4.68395e-09
5.9676e-25
4.23613e-09
9.73299e-22
3.77168e-09
5.05052e-22
3.28997e-09
1.04764e-21
2.79037e-09
-1.08449e-21
2.27221e-09
5.6275e-22
1.73479e-09
-1.16806e-21
1.17741e-09
-6.05344e-22
5.99319e-10
-1.88431e-21
8.28342e-25
7.99065e-09
0
7.69434e-09
6.93855e-22
7.38653e-09
7.19516e-22
7.06712e-09
0
6.73582e-09
0
6.39222e-09
-8.01688e-22
6.03586e-09
8.32533e-22
5.66625e-09
0
5.28293e-09
8.95548e-22
4.88536e-09
-9.27642e-22
4.47303e-09
0
4.04538e-09
0
3.60184e-09
1.31707e-24
3.14183e-09
-1.07339e-21
2.66473e-09
-1.11327e-21
2.16991e-09
-1.15463e-21
1.6567e-09
0
1.12442e-09
0
5.72361e-10
1.28981e-21
-1.33606e-21
7.61119e-09
0
7.32932e-09
0
7.03613e-09
0
6.73188e-09
9.70715e-25
6.4163e-09
7.91098e-22
6.089e-09
0
5.74954e-09
0
5.39748e-09
0
5.03233e-09
9.16553e-22
4.65363e-09
0
4.26086e-09
0
3.8535e-09
1.02256e-21
3.43101e-09
0
2.99282e-09
-1.09996e-21
2.53835e-09
-1.13938e-21
2.067e-09
-1.18171e-21
1.57814e-09
-1.22562e-21
1.07112e-09
0
5.4525e-10
-2.63845e-21
1.36913e-21
9.87866e-10
1.10959e-22
1.97572e-09
5.51517e-23
2.96355e-09
-5.61364e-23
3.95128e-09
-5.61388e-23
4.93875e-09
-5.61503e-23
5.9262e-09
5.52235e-23
6.92359e-09
5.5517e-23
-5.55368e-23
8.0097e-09
1.13044e-09
0
2.26088e-09
0
3.39129e-09
0
4.52161e-09
0
5.65172e-09
0
6.78197e-09
0
7.92172e-09
0
0
8.91212e-09
1.27302e-09
2.81666e-22
2.54604e-09
-1.41666e-22
3.81903e-09
-1.41667e-22
5.09194e-09
-1.41671e-22
6.36468e-09
0
7.63754e-09
1.40932e-22
8.91326e-09
0
-7.06802e-25
1.00034e-08
1.4156e-09
-9.21196e-25
2.8312e-09
-3.13382e-22
4.24677e-09
-9.21179e-25
5.66228e-09
1.55774e-22
7.07767e-09
-1.5671e-22
8.49308e-09
-9.21055e-25
9.9027e-09
3.11443e-22
-1.52347e-22
1.1096e-08
1.55818e-09
-1.71716e-22
3.11636e-09
-1.70707e-22
4.67452e-09
-1.71717e-22
6.23263e-09
0
7.79068e-09
0
9.3486e-09
0
1.08931e-08
0
8.38131e-25
1.21924e-08
1.70076e-09
-1.87839e-22
3.40152e-09
1.84546e-22
5.10227e-09
0
6.80299e-09
-3.73485e-22
8.5037e-09
1.85649e-22
1.02041e-08
-3.7237e-22
1.18851e-08
1.85132e-22
0
1.32937e-08
1.84334e-09
-2.01766e-22
3.68668e-09
2.01766e-22
5.53002e-09
0
7.37335e-09
4.02346e-22
9.21673e-09
-2.01764e-22
1.10597e-08
-1.18597e-24
1.2879e-08
-2.01077e-22
-1.95336e-22
1.44011e-08
1.98592e-09
2.16791e-22
3.97184e-09
0
5.95777e-09
0
7.94371e-09
2.1679e-22
9.92976e-09
0
1.19154e-08
2.16714e-22
1.38753e-08
1.25826e-24
2.1109e-22
1.55159e-08
2.1285e-09
-2.30454e-22
4.25701e-09
2.30454e-22
6.38552e-09
-2.31816e-22
8.51408e-09
2.31813e-22
1.06428e-08
0
1.27711e-08
-6.92405e-22
1.48744e-08
4.60622e-22
6.73789e-22
1.66392e-08
2.27108e-09
-4.90781e-22
4.54217e-09
1.45121e-24
6.81327e-09
2.46841e-22
9.08444e-09
-2.43934e-22
1.13558e-08
-2.45365e-22
1.36269e-08
-2.4671e-22
1.58766e-08
7.36689e-22
0
1.77722e-08
2.41366e-09
0
4.82733e-09
-5.23733e-22
7.24102e-09
5.20652e-22
9.6548e-09
0
1.20688e-08
0
1.44828e-08
5.2035e-22
1.68822e-08
0
-5.11437e-22
1.89161e-08
2.55624e-09
-3.25574e-24
5.11249e-09
5.50528e-22
7.66877e-09
5.53781e-22
1.02252e-08
5.50511e-22
1.27818e-08
1.10415e-21
1.53386e-08
5.50188e-22
1.78912e-08
0
5.40441e-22
2.00724e-08
2.69882e-09
0
5.39765e-09
-3.43242e-24
8.09652e-09
5.80398e-22
1.07955e-08
5.80382e-22
1.34948e-08
0
1.61944e-08
0
1.8904e-08
0
5.729e-22
2.12423e-08
2.8414e-09
-3.60908e-24
5.68281e-09
-6.13884e-22
8.52426e-09
6.10271e-22
1.13659e-08
-3.60933e-24
1.42077e-08
0
1.70501e-08
6.09872e-22
1.99133e-08
-1.22688e-21
6.0666e-22
2.24251e-08
2.98398e-09
5.96797e-09
8.95201e-09
1.19362e-08
1.49207e-08
1.79056e-08
2.0922e-08
2.42222e-08
8.33159e-09
-1.73768e-09
8.46664e-09
-1.83034e-09
8.58015e-09
-1.88206e-09
8.6845e-09
-1.93024e-09
8.78141e-09
-1.97786e-09
8.87121e-09
-2.02539e-09
8.95397e-09
-2.07289e-09
9.0297e-09
-2.12039e-09
9.0984e-09
-2.16788e-09
9.16007e-09
-2.21538e-09
9.21471e-09
-2.26288e-09
9.26233e-09
-2.31037e-09
9.30292e-09
-2.35787e-09
9.33649e-09
-2.40537e-09
9.36302e-09
-2.45286e-09
9.38253e-09
-2.50036e-09
9.39501e-09
-2.54786e-09
9.40046e-09
-2.59535e-09
9.39889e-09
-2.64285e-09
9.39028e-09
-2.69035e-09
9.37465e-09
-2.73784e-09
9.35199e-09
-2.78534e-09
9.32231e-09
-2.83284e-09
9.2856e-09
-2.88033e-09
9.24186e-09
-2.92783e-09
9.19109e-09
-2.97533e-09
9.13329e-09
-3.02282e-09
9.06847e-09
-3.07032e-09
8.99662e-09
-3.11782e-09
8.91774e-09
-3.16531e-09
8.83183e-09
-3.21281e-09
8.7389e-09
-3.26031e-09
8.63894e-09
-3.3078e-09
8.53195e-09
-3.3553e-09
8.41793e-09
-3.4028e-09
8.29689e-09
-3.45029e-09
8.16882e-09
-3.49779e-09
8.03372e-09
-3.54529e-09
7.89159e-09
-3.59278e-09
7.74244e-09
-3.64028e-09
7.58626e-09
-3.68778e-09
7.42305e-09
-3.73527e-09
7.25281e-09
-3.78277e-09
7.07555e-09
-3.83027e-09
6.89126e-09
-3.87776e-09
6.69994e-09
-3.92526e-09
6.50159e-09
-3.97276e-09
6.29621e-09
-4.02025e-09
6.08362e-09
-4.06761e-09
-4.09853e-09
5.84074e-09
9.44691e-09
-1.8205e-09
9.58038e-09
-1.9116e-09
9.66667e-09
-1.9595e-09
9.73984e-09
-2.00171e-09
9.8052e-09
-2.0429e-09
9.86378e-09
-2.0839e-09
9.91577e-09
-2.12487e-09
9.96121e-09
-2.16582e-09
1.00001e-08
-2.20678e-09
1.00325e-08
-2.24773e-09
1.00583e-08
-2.28868e-09
1.00775e-08
-2.32964e-09
1.00903e-08
-2.37059e-09
1.00964e-08
-2.41155e-09
1.00961e-08
-2.4525e-09
1.00892e-08
-2.49345e-09
1.00757e-08
-2.53441e-09
1.00557e-08
-2.57536e-09
1.00292e-08
-2.61631e-09
9.99611e-09
-2.65727e-09
9.95649e-09
-2.69822e-09
9.91032e-09
-2.73918e-09
9.85762e-09
-2.78013e-09
9.79837e-09
-2.82108e-09
9.73257e-09
-2.86204e-09
9.66024e-09
-2.90299e-09
9.58136e-09
-2.94394e-09
9.49594e-09
-2.9849e-09
9.40397e-09
-3.02585e-09
9.30547e-09
-3.06681e-09
9.20042e-09
-3.10776e-09
9.08882e-09
-3.14871e-09
8.97069e-09
-3.18967e-09
8.84601e-09
-3.23062e-09
8.71479e-09
-3.27157e-09
8.57702e-09
-3.31253e-09
8.43272e-09
-3.35348e-09
8.28187e-09
-3.39444e-09
8.12447e-09
-3.43539e-09
7.96054e-09
-3.47634e-09
7.79006e-09
-3.5173e-09
7.61304e-09
-3.55825e-09
7.42947e-09
-3.5992e-09
7.23936e-09
-3.64016e-09
7.04271e-09
-3.68111e-09
6.83952e-09
-3.72207e-09
6.62978e-09
-3.76302e-09
6.41349e-09
-3.80397e-09
6.1901e-09
-3.84469e-09
-3.8698e-09
5.91308e-09
1.05679e-08
-1.87156e-09
1.06942e-08
-1.96039e-09
1.07532e-08
-2.00436e-09
1.07952e-08
-2.04097e-09
1.0829e-08
-2.0762e-09
1.08564e-08
-2.11116e-09
1.08776e-08
-2.14607e-09
1.08927e-08
-2.18097e-09
1.09018e-08
-2.21586e-09
1.09048e-08
-2.25076e-09
1.09018e-08
-2.28566e-09
1.08927e-08
-2.32055e-09
1.08776e-08
-2.35545e-09
1.08564e-08
-2.39034e-09
1.08291e-08
-2.42524e-09
1.07958e-08
-2.46013e-09
1.07564e-08
-2.49503e-09
1.0711e-08
-2.52992e-09
1.06595e-08
-2.56482e-09
1.06019e-08
-2.59971e-09
1.05383e-08
-2.63461e-09
1.04687e-08
-2.66951e-09
1.03929e-08
-2.7044e-09
1.03111e-08
-2.7393e-09
1.02233e-08
-2.77419e-09
1.01294e-08
-2.80909e-09
1.00294e-08
-2.84398e-09
9.92341e-09
-2.87888e-09
9.81133e-09
-2.91377e-09
9.6932e-09
-2.94867e-09
9.569e-09
-2.98357e-09
9.43875e-09
-3.01846e-09
9.30244e-09
-3.05336e-09
9.16007e-09
-3.08825e-09
9.01164e-09
-3.12315e-09
8.85716e-09
-3.15804e-09
8.69661e-09
-3.19294e-09
8.53001e-09
-3.22783e-09
8.35735e-09
-3.26273e-09
8.17863e-09
-3.29763e-09
7.99386e-09
-3.33252e-09
7.80302e-09
-3.36742e-09
7.60613e-09
-3.40231e-09
7.40318e-09
-3.43721e-09
7.19417e-09
-3.4721e-09
6.9791e-09
-3.507e-09
6.75797e-09
-3.54189e-09
6.53077e-09
-3.57678e-09
6.29663e-09
-3.61137e-09
-3.6313e-09
6.00875e-09
1.16909e-08
-1.89122e-09
1.18084e-08
-1.97678e-09
1.18397e-08
-2.01666e-09
1.18505e-08
-2.04803e-09
1.18528e-08
-2.07776e-09
1.18489e-08
-2.10716e-09
1.18394e-08
-2.1365e-09
1.18242e-08
-2.16582e-09
1.18035e-08
-2.19515e-09
1.17772e-08
-2.22447e-09
1.17454e-08
-2.25379e-09
1.17079e-08
-2.28311e-09
1.16649e-08
-2.31243e-09
1.16163e-08
-2.34175e-09
1.15622e-08
-2.37108e-09
1.15024e-08
-2.4004e-09
1.14371e-08
-2.42972e-09
1.13662e-08
-2.45904e-09
1.12898e-08
-2.48836e-09
1.12078e-08
-2.51769e-09
1.11202e-08
-2.54701e-09
1.1027e-08
-2.57633e-09
1.09282e-08
-2.60565e-09
1.08239e-08
-2.63497e-09
1.0714e-08
-2.6643e-09
1.05985e-08
-2.69362e-09
1.04775e-08
-2.72294e-09
1.03509e-08
-2.75226e-09
1.02187e-08
-2.78158e-09
1.00809e-08
-2.81091e-09
9.93759e-09
-2.84023e-09
9.78867e-09
-2.86955e-09
9.63419e-09
-2.89887e-09
9.47413e-09
-2.92819e-09
9.3085e-09
-2.95752e-09
9.13729e-09
-2.98684e-09
8.96051e-09
-3.01616e-09
8.77816e-09
-3.04548e-09
8.59023e-09
-3.0748e-09
8.39673e-09
-3.10412e-09
8.19766e-09
-3.13345e-09
7.99301e-09
-3.16277e-09
7.78279e-09
-3.19209e-09
7.56699e-09
-3.22141e-09
7.34562e-09
-3.25073e-09
7.11868e-09
-3.28006e-09
6.88617e-09
-3.30938e-09
6.64804e-09
-3.33869e-09
6.40321e-09
-3.36766e-09
-3.38297e-09
6.10457e-09
1.28169e-08
-1.87952e-09
1.29231e-08
-1.9608e-09
1.29264e-08
-1.99642e-09
1.29059e-08
-2.0229e-09
1.28766e-08
-2.04758e-09
1.28415e-08
-2.0719e-09
1.28012e-08
-2.09615e-09
1.27558e-08
-2.12039e-09
1.27052e-08
-2.14462e-09
1.26496e-08
-2.16885e-09
1.25889e-08
-2.19309e-09
1.25231e-08
-2.21732e-09
1.24522e-08
-2.24155e-09
1.23763e-08
-2.26578e-09
1.22952e-08
-2.29002e-09
1.22091e-08
-2.31425e-09
1.21178e-08
-2.33848e-09
1.20215e-08
-2.36272e-09
1.19201e-08
-2.38695e-09
1.18136e-08
-2.41118e-09
1.1702e-08
-2.43542e-09
1.15853e-08
-2.45965e-09
1.14635e-08
-2.48388e-09
1.13367e-08
-2.50811e-09
1.12047e-08
-2.53235e-09
1.10677e-08
-2.55658e-09
1.09256e-08
-2.58081e-09
1.07783e-08
-2.60505e-09
1.0626e-08
-2.62928e-09
1.04687e-08
-2.65351e-09
1.03062e-08
-2.67775e-09
1.01386e-08
-2.70198e-09
9.96594e-09
-2.72621e-09
9.78819e-09
-2.75044e-09
9.60535e-09
-2.77468e-09
9.41742e-09
-2.79891e-09
9.22441e-09
-2.82314e-09
9.0263e-09
-2.84738e-09
8.82311e-09
-2.87161e-09
8.61483e-09
-2.89584e-09
8.40146e-09
-2.92008e-09
8.183e-09
-2.94431e-09
7.95945e-09
-2.96854e-09
7.73081e-09
-2.99277e-09
7.49708e-09
-3.01701e-09
7.25826e-09
-3.04124e-09
7.01436e-09
-3.06547e-09
6.76532e-09
-3.0897e-09
6.50985e-09
-3.11356e-09
-3.1248e-09
6.20046e-09
1.3947e-08
-1.83642e-09
1.40388e-08
-1.91244e-09
1.40133e-08
-1.94365e-09
1.39613e-08
-1.96558e-09
1.39004e-08
-1.98566e-09
1.38341e-08
-2.00538e-09
1.3763e-08
-2.02503e-09
1.36873e-08
-2.04466e-09
1.36069e-08
-2.06429e-09
1.3522e-08
-2.08392e-09
1.34325e-08
-2.10354e-09
1.33383e-08
-2.12317e-09
1.32396e-08
-2.1428e-09
1.31362e-08
-2.16243e-09
1.30283e-08
-2.18206e-09
1.29157e-08
-2.20169e-09
1.27985e-08
-2.22132e-09
1.26768e-08
-2.24095e-09
1.25504e-08
-2.26057e-09
1.24194e-08
-2.2802e-09
1.22838e-08
-2.29983e-09
1.21436e-08
-2.31946e-09
1.19988e-08
-2.33909e-09
1.18494e-08
-2.35872e-09
1.16954e-08
-2.37835e-09
1.15368e-08
-2.39798e-09
1.13736e-08
-2.4176e-09
1.12058e-08
-2.43723e-09
1.10334e-08
-2.45686e-09
1.08564e-08
-2.47649e-09
1.06748e-08
-2.49612e-09
1.04885e-08
-2.51575e-09
1.02977e-08
-2.53538e-09
1.01022e-08
-2.55501e-09
9.9022e-09
-2.57463e-09
9.69756e-09
-2.59426e-09
9.48831e-09
-2.61389e-09
9.27445e-09
-2.63352e-09
9.05599e-09
-2.65315e-09
8.83292e-09
-2.67278e-09
8.60526e-09
-2.69241e-09
8.37298e-09
-2.71203e-09
8.1361e-09
-2.73166e-09
7.89462e-09
-2.75129e-09
7.64854e-09
-2.77092e-09
7.39785e-09
-2.79055e-09
7.14255e-09
-2.81018e-09
6.88261e-09
-2.8298e-09
6.61654e-09
-2.84907e-09
-2.85678e-09
6.29641e-09
1.50821e-08
-1.76184e-09
1.51556e-08
-1.83165e-09
1.51004e-08
-1.85834e-09
1.50168e-08
-1.87606e-09
1.49242e-08
-1.89201e-09
1.48267e-08
-1.9076e-09
1.47248e-08
-1.92313e-09
1.46188e-08
-1.93864e-09
1.45087e-08
-1.95415e-09
1.43944e-08
-1.96966e-09
1.4276e-08
-1.98517e-09
1.41535e-08
-2.00068e-09
1.40269e-08
-2.01618e-09
1.38962e-08
-2.03169e-09
1.37613e-08
-2.0472e-09
1.36223e-08
-2.06271e-09
1.34792e-08
-2.07822e-09
1.3332e-08
-2.09373e-09
1.31807e-08
-2.10924e-09
1.30252e-08
-2.12475e-09
1.28657e-08
-2.14026e-09
1.2702e-08
-2.15577e-09
1.25341e-08
-2.17128e-09
1.23622e-08
-2.18678e-09
1.21862e-08
-2.20229e-09
1.2006e-08
-2.2178e-09
1.18217e-08
-2.23331e-09
1.16333e-08
-2.24882e-09
1.14408e-08
-2.26433e-09
1.12441e-08
-2.27984e-09
1.10433e-08
-2.29535e-09
1.08384e-08
-2.31086e-09
1.06294e-08
-2.32637e-09
1.04163e-08
-2.34188e-09
1.01991e-08
-2.35739e-09
9.97769e-09
-2.37289e-09
9.7522e-09
-2.3884e-09
9.5226e-09
-2.40391e-09
9.28887e-09
-2.41942e-09
9.05102e-09
-2.43493e-09
8.80905e-09
-2.45044e-09
8.56297e-09
-2.46595e-09
8.31276e-09
-2.48146e-09
8.05844e-09
-2.49697e-09
7.79999e-09
-2.51248e-09
7.53743e-09
-2.52799e-09
7.27074e-09
-2.54349e-09
6.99989e-09
-2.55899e-09
6.72329e-09
-2.57417e-09
-2.57891e-09
6.39243e-09
1.62231e-08
-1.6556e-09
1.62739e-08
-1.71834e-09
1.61878e-08
-1.74046e-09
1.60723e-08
-1.75434e-09
1.59481e-08
-1.76661e-09
1.58192e-08
-1.77856e-09
1.56866e-08
-1.79045e-09
1.55503e-08
-1.80233e-09
1.54104e-08
-1.8142e-09
1.52668e-08
-1.82608e-09
1.51196e-08
-1.83795e-09
1.49687e-08
-1.84983e-09
1.48142e-08
-1.8617e-09
1.46561e-08
-1.87357e-09
1.44944e-08
-1.88545e-09
1.4329e-08
-1.89732e-09
1.41599e-08
-1.9092e-09
1.39873e-08
-1.92107e-09
1.3811e-08
-1.93294e-09
1.36311e-08
-1.94482e-09
1.34475e-08
-1.95669e-09
1.32603e-08
-1.96857e-09
1.30695e-08
-1.98044e-09
1.2875e-08
-1.99232e-09
1.26769e-08
-2.00419e-09
1.24751e-08
-2.01606e-09
1.22698e-08
-2.02794e-09
1.20608e-08
-2.03981e-09
1.18481e-08
-2.05169e-09
1.16318e-08
-2.06356e-09
1.14119e-08
-2.07543e-09
1.11884e-08
-2.08731e-09
1.09612e-08
-2.09918e-09
1.07304e-08
-2.11106e-09
1.04959e-08
-2.12293e-09
1.02578e-08
-2.13481e-09
1.00161e-08
-2.14668e-09
9.77074e-09
-2.15855e-09
9.52175e-09
-2.17043e-09
9.26912e-09
-2.1823e-09
9.01285e-09
-2.19418e-09
8.75296e-09
-2.20605e-09
8.48942e-09
-2.21792e-09
8.22225e-09
-2.2298e-09
7.95145e-09
-2.24167e-09
7.67701e-09
-2.25355e-09
7.39894e-09
-2.26542e-09
7.11718e-09
-2.27729e-09
6.83011e-09
-2.28886e-09
-2.29117e-09
6.48852e-09
1.73708e-08
-1.5175e-09
1.73938e-08
-1.57237e-09
1.72755e-08
-1.58998e-09
1.71278e-08
-1.60042e-09
1.69719e-08
-1.60948e-09
1.68118e-08
-1.61826e-09
1.66484e-08
-1.627e-09
1.64818e-08
-1.63573e-09
1.63121e-08
-1.64445e-09
1.61392e-08
-1.65317e-09
1.59631e-08
-1.6619e-09
1.57839e-08
-1.67062e-09
1.56016e-08
-1.67935e-09
1.54161e-08
-1.68807e-09
1.52274e-08
-1.69679e-09
1.50356e-08
-1.70552e-09
1.48406e-08
-1.71424e-09
1.46425e-08
-1.72297e-09
1.44413e-08
-1.73169e-09
1.42369e-08
-1.74041e-09
1.40293e-08
-1.74914e-09
1.38186e-08
-1.75786e-09
1.36048e-08
-1.76658e-09
1.33878e-08
-1.77531e-09
1.31676e-08
-1.78403e-09
1.29443e-08
-1.79276e-09
1.27178e-08
-1.80148e-09
1.24882e-08
-1.8102e-09
1.22555e-08
-1.81893e-09
1.20196e-08
-1.82765e-09
1.17805e-08
-1.83638e-09
1.15383e-08
-1.8451e-09
1.12929e-08
-1.85382e-09
1.10444e-08
-1.86255e-09
1.07928e-08
-1.87127e-09
1.0538e-08
-1.88e-09
1.028e-08
-1.88872e-09
1.00189e-08
-1.89744e-09
9.75463e-09
-1.90617e-09
9.48722e-09
-1.91489e-09
9.21665e-09
-1.92361e-09
8.94294e-09
-1.93234e-09
8.66608e-09
-1.94106e-09
8.38607e-09
-1.94979e-09
8.10291e-09
-1.95851e-09
7.81659e-09
-1.96723e-09
7.52713e-09
-1.97596e-09
7.23446e-09
-1.98467e-09
6.93699e-09
-1.99315e-09
-1.99356e-09
6.58468e-09
1.85263e-08
-1.34726e-09
1.85155e-08
-1.39361e-09
1.83636e-08
-1.40687e-09
1.81835e-08
-1.41428e-09
1.79958e-08
-1.4206e-09
1.78044e-08
-1.42671e-09
1.76102e-08
-1.43277e-09
1.74133e-08
-1.43883e-09
1.72138e-08
-1.44489e-09
1.70116e-08
-1.45095e-09
1.68067e-08
-1.45701e-09
1.65991e-08
-1.46307e-09
1.63889e-08
-1.46912e-09
1.6176e-08
-1.47518e-09
1.59605e-08
-1.48124e-09
1.57422e-08
-1.4873e-09
1.55214e-08
-1.49336e-09
1.52978e-08
-1.49942e-09
1.50716e-08
-1.50547e-09
1.48427e-08
-1.51153e-09
1.46112e-08
-1.51759e-09
1.43769e-08
-1.52365e-09
1.41401e-08
-1.52971e-09
1.39005e-08
-1.53577e-09
1.36583e-08
-1.54182e-09
1.34134e-08
-1.54788e-09
1.31659e-08
-1.55394e-09
1.29157e-08
-1.56e-09
1.26628e-08
-1.56606e-09
1.24073e-08
-1.57212e-09
1.21491e-08
-1.57817e-09
1.18882e-08
-1.58423e-09
1.16247e-08
-1.59029e-09
1.13585e-08
-1.59635e-09
1.10896e-08
-1.60241e-09
1.08181e-08
-1.60846e-09
1.05439e-08
-1.61452e-09
1.0267e-08
-1.62058e-09
9.98751e-09
-1.62664e-09
9.70531e-09
-1.6327e-09
9.42045e-09
-1.63876e-09
9.13293e-09
-1.64481e-09
8.84274e-09
-1.65087e-09
8.54988e-09
-1.65693e-09
8.25436e-09
-1.66299e-09
7.95617e-09
-1.66905e-09
7.65532e-09
-1.67511e-09
7.35175e-09
-1.68116e-09
7.04393e-09
-1.68702e-09
-1.68607e-09
6.68091e-09
1.96905e-08
-1.14455e-09
1.96391e-08
-1.18184e-09
1.94521e-08
-1.19107e-09
1.92392e-08
-1.19591e-09
1.90196e-08
-1.19997e-09
1.8797e-08
-1.20389e-09
1.8572e-08
-1.20777e-09
1.83449e-08
-1.21165e-09
1.81155e-08
-1.21553e-09
1.78839e-08
-1.2194e-09
1.76502e-08
-1.22328e-09
1.74143e-08
-1.22716e-09
1.71762e-08
-1.23104e-09
1.6936e-08
-1.23491e-09
1.66935e-08
-1.23879e-09
1.64489e-08
-1.24267e-09
1.62021e-08
-1.24654e-09
1.59531e-08
-1.25042e-09
1.57019e-08
-1.2543e-09
1.54485e-08
-1.25818e-09
1.5193e-08
-1.26205e-09
1.49353e-08
-1.26593e-09
1.46754e-08
-1.26981e-09
1.44133e-08
-1.27369e-09
1.4149e-08
-1.27756e-09
1.38826e-08
-1.28144e-09
1.3614e-08
-1.28532e-09
1.33432e-08
-1.2892e-09
1.30702e-08
-1.29307e-09
1.2795e-08
-1.29695e-09
1.25177e-08
-1.30083e-09
1.22381e-08
-1.3047e-09
1.19564e-08
-1.30858e-09
1.16725e-08
-1.31246e-09
1.13865e-08
-1.31634e-09
1.10982e-08
-1.32021e-09
1.08078e-08
-1.32409e-09
1.05152e-08
-1.32797e-09
1.02204e-08
-1.33184e-09
9.92341e-09
-1.33572e-09
9.62425e-09
-1.3396e-09
9.32292e-09
-1.34348e-09
9.0194e-09
-1.34735e-09
8.7137e-09
-1.35123e-09
8.40582e-09
-1.35511e-09
8.09576e-09
-1.35899e-09
7.78351e-09
-1.36286e-09
7.46905e-09
-1.36674e-09
7.15094e-09
-1.37048e-09
-1.36868e-09
6.77722e-09
2.08643e-08
-9.08965e-10
2.07646e-08
-9.3686e-10
2.05409e-08
-9.42531e-10
2.0295e-08
-9.4531e-10
2.00435e-08
-9.47604e-10
1.97896e-08
-9.49807e-10
1.95338e-08
-9.51992e-10
1.92764e-08
-9.54174e-10
1.90172e-08
-9.56355e-10
1.87563e-08
-9.58536e-10
1.84938e-08
-9.60717e-10
1.82295e-08
-9.62898e-10
1.79636e-08
-9.65079e-10
1.76959e-08
-9.6726e-10
1.74265e-08
-9.69441e-10
1.71555e-08
-9.71622e-10
1.68828e-08
-9.73803e-10
1.66083e-08
-9.75984e-10
1.63322e-08
-9.78165e-10
1.60544e-08
-9.80346e-10
1.57748e-08
-9.82527e-10
1.54936e-08
-9.84707e-10
1.52107e-08
-9.86888e-10
1.49261e-08
-9.89069e-10
1.46398e-08
-9.9125e-10
1.43517e-08
-9.93431e-10
1.4062e-08
-9.95612e-10
1.37706e-08
-9.97793e-10
1.34775e-08
-9.99974e-10
1.31827e-08
-1.00216e-09
1.28863e-08
-1.00434e-09
1.25881e-08
-1.00652e-09
1.22882e-08
-1.0087e-09
1.19866e-08
-1.01088e-09
1.16833e-08
-1.01306e-09
1.13784e-08
-1.01524e-09
1.10717e-08
-1.01742e-09
1.07633e-08
-1.0196e-09
1.04533e-08
-1.02178e-09
1.01415e-08
-1.02396e-09
9.82805e-09
-1.02615e-09
9.5129e-09
-1.02833e-09
9.19606e-09
-1.03051e-09
8.87751e-09
-1.03269e-09
8.55727e-09
-1.03487e-09
8.23534e-09
-1.03705e-09
7.91171e-09
-1.03923e-09
7.58634e-09
-1.04141e-09
7.25802e-09
-1.04351e-09
-1.0414e-09
6.87361e-09
2.20487e-08
-6.40046e-10
2.1892e-08
-6.58415e-10
2.16301e-08
-6.61207e-10
2.13508e-08
-6.62464e-10
2.10674e-08
-6.63487e-10
2.07822e-08
-6.64466e-10
2.04957e-08
-6.65437e-10
2.02079e-08
-6.66407e-10
1.99189e-08
-6.67377e-10
1.96287e-08
-6.68346e-10
1.93373e-08
-6.69315e-10
1.90447e-08
-6.70285e-10
1.87509e-08
-6.71254e-10
1.84558e-08
-6.72223e-10
1.81596e-08
-6.73193e-10
1.78621e-08
-6.74162e-10
1.75635e-08
-6.75131e-10
1.72636e-08
-6.76101e-10
1.69625e-08
-6.7707e-10
1.66602e-08
-6.78039e-10
1.63567e-08
-6.79008e-10
1.60519e-08
-6.79978e-10
1.5746e-08
-6.80947e-10
1.54388e-08
-6.81916e-10
1.51305e-08
-6.82886e-10
1.48209e-08
-6.83855e-10
1.45101e-08
-6.84824e-10
1.41981e-08
-6.85794e-10
1.38849e-08
-6.86763e-10
1.35705e-08
-6.87732e-10
1.32548e-08
-6.88701e-10
1.2938e-08
-6.89671e-10
1.26199e-08
-6.9064e-10
1.23007e-08
-6.91609e-10
1.19802e-08
-6.92579e-10
1.16585e-08
-6.93548e-10
1.13356e-08
-6.94517e-10
1.10115e-08
-6.95487e-10
1.06861e-08
-6.96456e-10
1.03596e-08
-6.97425e-10
1.00319e-08
-6.98395e-10