/*--------------------------------*- C++ -*----------------------------------*\
  =========                 |
  \\      /  F ield         | OpenFOAM: The Open Source CFD Toolbox
   \\    /   O peration     | Website:  https://openfoam.org
    \\  /    A nd           | Version:  13
     \\/     M anipulation  |
\*---------------------------------------------------------------------------*/
FoamFile
{
    format      ascii;
    class       volScalarField;
    location    "0.0002";
    object      p;
}
// * * * * * * * * * * * * * * * * * * * * * * * * * * * * * * * * * * * * * //

dimensions      [0 2 -2 0 0 0 0];

internalField   nonuniform List<scalar> 
1690
(
-0.148923
-0.101825
-0.0648487
-0.0372951
-0.0188622
-0.0167875
-0.00926711
-0.0370335
-0.147366
-0.100157
-0.0630365
-0.0353644
-0.0175309
-0.0140635
-0.0098092
-0.0357679
-0.144385
-0.0975598
-0.0608491
-0.0336262
-0.0165159
-0.0135377
-0.0107577
-0.0373853
-0.139852
-0.0935833
-0.0574402
-0.0308491
-0.0146146
-0.0128234
-0.0116077
-0.0401492
-0.133848
-0.0883268
-0.0529222
-0.0271433
-0.0119946
-0.0119272
-0.0128523
-0.0442571
-0.12647
-0.0819131
-0.0474254
-0.0226296
-0.00878167
-0.0109679
-0.0147724
-0.0502049
-0.117841
-0.0744825
-0.0410827
-0.0174137
-0.00505996
-0.0100272
-0.0176436
-0.0586354
-0.108122
-0.066216
-0.0340669
-0.0116342
-0.000932566
-0.00920164
-0.0218889
-0.0704422
-0.0975231
-0.0573465
-0.0266055
-0.00547934
0.00346512
-0.00861261
-0.0281782
-0.0869632
-0.0863074
-0.0481633
-0.0189903
0.000799343
0.00795648
-0.00836792
-0.0373373
-0.110144
-0.0747919
-0.0390124
-0.0115854
0.00685487
0.0122273
-0.00879394
-0.0506158
-0.142636
-0.0633392
-0.0302845
-0.00482274
0.0122073
0.0157234
-0.0110345
-0.0710844
-0.187319
-0.0523353
-0.0223846
0.000807268
0.0161847
0.0176311
-0.0163778
-0.102708
-0.24741
-0.0421573
-0.0156956
0.00474239
0.0178144
0.0167342
-0.0235938
-0.141457
-0.343076
-0.033155
-0.0105411
0.00650285
0.0164022
0.0125937
-0.028841
-0.165481
-0.476319
4.39031
4.34798
4.35482
4.31631
4.28097
4.24022
4.1961
4.15038
4.10491
4.06137
4.02105
3.98491
3.95346
3.92689
3.90509
3.88778
3.8746
3.86515
3.85916
3.85678
4.38409
4.34227
4.34773
4.30975
4.27398
4.23311
4.18901
4.14349
4.0984
4.05537
4.01569
3.98024
3.94949
3.92359
3.9024
3.88561
3.87284
3.86371
3.85793
3.85564
4.3742
4.33181
4.33722
4.29816
4.26207
4.2209
4.17676
4.13151
4.08703
4.04489
4.00631
3.97208
3.94257
3.91785
3.89772
3.88183
3.8698
3.86121
3.85578
3.85364
4.35931
4.31607
4.32157
4.28086
4.2445
4.20305
4.15903
4.11437
4.07092
4.0302
3.99329
3.96084
3.93311
3.91005
3.8914
3.87677
3.86573
3.85788
3.85293
3.85099
4.33944
4.29525
4.30084
4.25824
4.22177
4.18018
4.13658
4.09291
4.05101
4.01225
3.97755
3.9474
3.9219
3.90089
3.88403
3.8709
3.86104
3.85407
3.84968
3.84798
4.31421
4.26903
4.27478
4.23022
4.19397
4.15255
4.10984
4.06773
4.02797
3.99176
3.95982
3.93243
3.90954
3.89088
3.87605
3.86458
3.85603
3.85001
3.84624
3.84478
4.28285
4.23679
4.24285
4.1965
4.16104
4.12031
4.07915
4.03932
4.0024
3.96937
3.94071
3.9165
3.89654
3.88046
3.86781
3.85811
3.85093
3.8459
3.84276
3.84157
4.24429
4.19761
4.20433
4.15666
4.12284
4.08358
4.04488
4.00818
3.97489
3.94568
3.92079
3.90012
3.88333
3.86998
3.85959
3.8517
3.84592
3.84189
3.83938
3.83844
4.19707
4.15033
4.15833
4.11024
4.07929
4.04253
4.00741
3.97485
3.946
3.92124
3.90057
3.88371
3.87025
3.85971
3.85162
3.84554
3.84112
3.83806
3.83618
3.83549
4.1392
4.09343
4.10373
4.05676
4.03031
3.99743
3.96724
3.9399
3.91631
3.89657
3.88048
3.86764
3.8576
3.84987
3.84404
3.83972
3.83662
3.8345
3.8332
3.83274
4.06795
4.025
4.03931
3.99583
3.97596
3.94865
3.92491
3.90392
3.88638
3.87215
3.8609
3.85219
3.84557
3.84062
3.83697
3.83434
3.83248
3.83124
3.83049
3.83024
3.97949
3.94269
3.9637
3.92716
3.91644
3.89672
3.88109
3.86753
3.85674
3.84839
3.84215
3.83759
3.83433
3.83205
3.83048
3.82942
3.82873
3.82829
3.82804
3.828
3.86835
3.84373
3.8755
3.85071
3.85214
3.84233
3.83648
3.83135
3.82787
3.82566
3.82446
3.82398
3.82397
3.82422
3.82459
3.82499
3.82536
3.82566
3.82587
3.826
3.72642
3.72502
3.77339
3.76675
3.78369
3.78631
3.79182
3.79595
3.80018
3.80421
3.80801
3.81148
3.81454
3.81715
3.81931
3.82104
3.82237
3.82334
3.82396
3.82424
3.54121
3.58353
3.65624
3.67594
3.71198
3.72965
3.74787
3.76186
3.77403
3.78427
3.79291
3.80013
3.80605
3.81084
3.81463
3.81756
3.81975
3.8213
3.82229
3.8227
3.29287
3.41715
3.52336
3.57948
3.63806
3.6734
3.70526
3.72959
3.74967
3.76596
3.77922
3.78993
3.79849
3.80526
3.81051
3.81451
3.81746
3.81953
3.82084
3.82137
2.94926
3.22553
3.37471
3.47904
3.56295
3.61888
3.66469
3.69943
3.72727
3.74935
3.76693
3.78087
3.79183
3.80036
3.80692
3.81187
3.81549
3.81801
3.8196
3.82023
2.46339
3.00847
3.21078
3.37646
3.489
3.56658
3.62665
3.67166
3.70693
3.73444
3.75602
3.77288
3.786
3.79611
3.80381
3.80959
3.81379
3.8167
3.81854
3.81925
1.76536
2.75662
3.03864
3.27413
3.41779
3.51737
3.59152
3.64641
3.68868
3.72121
3.74642
3.76591
3.78094
3.79244
3.80115
3.80764
3.81234
3.81559
3.81763
3.81842
0.776606
2.46691
2.86611
3.1749
3.35082
3.47194
3.55956
3.62373
3.67247
3.70957
3.73804
3.75988
3.77659
3.7893
3.79887
3.80598
3.81112
3.81466
3.81687
3.81772
-0.020337
-0.00437101
0.00655803
0.0109992
0.0041115
-0.0321621
-0.124357
-0.2326
-0.0094886
-0.00118409
0.00317769
0.00228034
-0.00725252
-0.034676
-0.0839121
-0.115418
-0.00357344
-0.000386012
-8.73874e-05
-0.00355087
-0.0126857
-0.0312383
-0.0585625
-0.0805859
-0.000759367
-0.000816407
-0.00284884
-0.00742132
-0.0154206
-0.0275706
-0.0425451
-0.0547859
0.000807054
-0.00175721
-0.00532167
-0.0104621
-0.0177413
-0.0273753
-0.0380391
-0.0476134
0.000309292
-0.00335512
-0.00760807
-0.0128764
-0.0194522
-0.0273144
-0.0355993
-0.0435019
-0.00138222
-0.00518471
-0.0097344
-0.0150541
-0.0212498
-0.0282355
-0.0354249
-0.0424864
-0.00211052
-0.00653847
-0.0114831
-0.0169575
-0.0230238
-0.0296087
-0.0363197
-0.0430251
-0.00256659
-0.00758463
-0.0129407
-0.01865
-0.0247633
-0.0312314
-0.0377966
-0.0444104
-0.00290037
-0.00843247
-0.014184
-0.0201712
-0.0264375
-0.0329551
-0.0395649
-0.0462499
-0.00316505
-0.00914286
-0.0152638
-0.0215447
-0.0280218
-0.0346839
-0.0414447
-0.0482977
-0.00338391
-0.00974981
-0.0162104
-0.0227826
-0.0294979
-0.0363563
-0.043324
-0.0504054
-0.00356852
-0.0102721
-0.0170383
-0.0238827
-0.03084
-0.0379271
-0.0451386
-0.0524865
-0.00373138
-0.0107459
-0.0177969
-0.0248949
-0.0320802
-0.0394207
-0.0468691
-0.0542998
-0.00386211
-0.0111704
-0.0184779
-0.0257739
-0.0331336
-0.0408574
-0.0487939
-0.0559598
-0.213696
-0.170646
-0.148304
-0.134133
-0.125261
-0.120001
-0.117484
-0.117102
-0.118433
-0.121144
-0.125001
-0.129867
-0.135647
-0.142269
-0.149703
-0.157927
-0.166913
-0.176668
-0.187232
-0.198669
-0.211056
-0.224456
-0.238971
-0.254706
-0.271752
-0.290261
-0.310427
-0.332429
-0.356478
-0.382828
-0.411771
-0.443645
-0.478836
-0.517801
-0.561097
-0.609407
-0.663408
-0.723279
-0.788192
-0.856944
-0.932699
-1.03674
-1.22666
-1.61723
-2.36276
-3.52403
-4.92309
-6.16622
-6.93191
-9.68199
-0.113929
-0.102871
-0.0963549
-0.0921924
-0.090284
-0.0901517
-0.0914338
-0.093903
-0.0974079
-0.101837
-0.107111
-0.113177
-0.119997
-0.127544
-0.135798
-0.144766
-0.154489
-0.165004
-0.17635
-0.188583
-0.201769
-0.21599
-0.231346
-0.247931
-0.26585
-0.285263
-0.306354
-0.329316
-0.354376
-0.381794
-0.41187
-0.444953
-0.481451
-0.521846
-0.566703
-0.616657
-0.672235
-0.733466
-0.799869
-0.871985
-0.956414
-1.07983
-1.30862
-1.76795
-2.62543
-3.91785
-5.37065
-6.46557
-7.17297
-8.36675
-0.0897944
-0.0917769
-0.0927435
-0.0934726
-0.0945771
-0.0963002
-0.0987502
-0.101949
-0.105883
-0.110527
-0.115861
-0.121866
-0.128533
-0.13586
-0.143855
-0.152539
-0.161944
-0.172114
-0.183096
-0.194952
-0.207754
-0.221584
-0.236528
-0.252695
-0.270238
-0.289326
-0.310135
-0.332871
-0.357776
-0.385111
-0.415184
-0.448367
-0.485093
-0.525864
-0.571259
-0.621941
-0.678572
-0.741549
-0.811131
-0.889449
-0.986573
-1.13395
-1.40584
-1.93838
-2.89481
-4.28489
-5.71975
-6.66459
-7.17178
-6.91206
-0.0632295
-0.0671876
-0.0705846
-0.0738045
-0.077192
-0.0808809
-0.0849711
-0.089522
-0.094573
-0.10015
-0.106273
-0.11296
-0.120229
-0.1281
-0.1366
-0.14576
-0.155622
-0.166233
-0.177648
-0.189934
-0.203165
-0.217429
-0.232825
-0.249474
-0.267518
-0.287113
-0.308434
-0.331682
-0.35709
-0.384946
-0.415578
-0.449362
-0.48674
-0.52824
-0.574481
-0.626205
-0.684275
-0.749543
-0.823215
-0.909326
-1.02107
-1.19252
-1.49862
-2.07733
-3.07843
-4.45173
-5.75991
-6.52921
-6.68504
-5.46236
-0.0560741
-0.0616791
-0.0665485
-0.0710908
-0.0756301
-0.0803083
-0.0852351
-0.0904844
-0.0961119
-0.10216
-0.108666
-0.11566
-0.123175
-0.131242
-0.139899
-0.149184
-0.159146
-0.169837
-0.181319
-0.193659
-0.206938
-0.221246
-0.236687
-0.253382
-0.271471
-0.291112
-0.312484
-0.335798
-0.361292
-0.389251
-0.420005
-0.453936
-0.491508
-0.533282
-0.579911
-0.63221
-0.691187
-0.757983
-0.834491
-0.926189
-1.04798
-1.23349
-1.55238
-2.12709
-3.07039
-4.28486
-5.35837
-5.88334
-5.6767
-3.99757
-0.0514529
-0.0574992
-0.0629876
-0.0682366
-0.0734847
-0.0788329
-0.0843689
-0.090159
-0.0962597
-0.102719
-0.109579
-0.11688
-0.124662
-0.132963
-0.141828
-0.151301
-0.161435
-0.172286
-0.18392
-0.196407
-0.209832
-0.224286
-0.239875
-0.256723
-0.274969
-0.294771
-0.316311
-0.339797
-0.365473
-0.393621
-0.424568
-0.458701
-0.496488
-0.538482
-0.585343
-0.637905
-0.697207
-0.764524
-0.842192
-0.936496
-1.06231
-1.24954
-1.55635
-2.07742
-2.8791
-3.84015
-4.62223
-4.90653
-4.45042
-2.7258
-0.0499651
-0.0561541
-0.061923
-0.067553
-0.0732246
-0.0790076
-0.0849665
-0.0911549
-0.0976224
-0.104415
-0.111576
-0.119147
-0.127172
-0.135694
-0.144759
-0.154417
-0.164722
-0.175736
-0.187524
-0.200162
-0.213733
-0.228334
-0.244071
-0.261068
-0.279464
-0.299418
-0.32111
-0.344751
-0.370579
-0.398873
-0.429955
-0.464206
-0.50208
-0.544112
-0.590938
-0.64336
-0.70239
-0.76936
-0.84688
-0.941416
-1.06649
-1.24654
-1.52552
-1.96719
-2.59732
-3.2941
-3.79342
-3.90689
-3.34361
-1.80607
-0.0502255
-0.0565111
-0.0624473
-0.068316
-0.0742639
-0.0803433
-0.0866034
-0.0930876
-0.0998387
-0.106899
-0.11431
-0.122114
-0.130355
-0.139078
-0.148332
-0.158167
-0.168642
-0.179817
-0.191762
-0.204554
-0.218279
-0.233032
-0.248922
-0.266073
-0.284624
-0.304733
-0.326581
-0.350373
-0.376347
-0.404773
-0.435966
-0.470293
-0.508189
-0.550159
-0.596801
-0.648867
-0.707323
-0.773539
-0.850253
-0.943659
-1.06535
-1.23423
-1.48095
-1.84246
-2.31572
-2.79421
-3.09802
-3.07579
-2.49367
-1.21011
-0.0514664
-0.0578372
-0.0638926
-0.0699342
-0.0760854
-0.0823883
-0.0888819
-0.0956021
-0.102587
-0.109874
-0.117504
-0.125518
-0.133959
-0.142874
-0.152311
-0.162323
-0.172969
-0.184312
-0.196423
-0.209378
-0.223266
-0.238183
-0.254238
-0.271556
-0.290276
-0.310554
-0.332571
-0.356529
-0.382663
-0.411235
-0.44255
-0.476962
-0.514886
-0.556797
-0.603257
-0.654979
-0.712892
-0.778379
-0.85417
-0.9459
-1.06314
-1.21996
-1.43612
-1.7286
-2.07785
-2.39648
-2.56233
-2.45051
-1.88571
-0.830844
-0.0532733
-0.0597449
-0.0659098
-0.0720987
-0.078419
-0.0849073
-0.091596
-0.0985167
-0.105703
-0.113191
-0.121019
-0.129226
-0.137856
-0.146955
-0.156572
-0.166761
-0.177581
-0.189097
-0.201379
-0.214507
-0.228569
-0.243662
-0.259896
-0.277396
-0.296301
-0.316768
-0.338976
-0.363129
-0.389454
-0.418212
-0.449697
-0.484258
-0.522292
-0.564261
-0.610705
-0.662314
-0.720001
-0.785132
-0.860283
-0.950333
-1.06286
-1.20783
-1.39648
-1.63237
-1.88887
-2.09674
-2.16675
-1.99504
-1.45768
-0.579641
-0.0553739
-0.0619658
-0.0682441
-0.0745741
-0.0810503
-0.0877059
-0.0945695
-0.10167
-0.10904
-0.116711
-0.124723
-0.133112
-0.141923
-0.151202
-0.160997
-0.171364
-0.182361
-0.194055
-0.206516
-0.219826
-0.234072
-0.249354
-0.265783
-0.283483
-0.302595
-0.323277
-0.345708
-0.370093
-0.396665
-0.425671
-0.457411
-0.49223
-0.53053
-0.572771
-0.6195
-0.671407
-0.729413
-0.794849
-0.87001
-0.958855
-1.06699
-1.20073
-1.36476
-1.55425
-1.7411
-1.87028
-1.87198
-1.66113
-1.15398
-0.405002
-0.0575995
-0.0643268
-0.0707263
-0.0772
-0.083829
-0.0906444
-0.0976729
-0.104942
-0.112483
-0.120328
-0.128513
-0.137077
-0.146063
-0.155517
-0.165488
-0.176032
-0.187208
-0.199083
-0.211729
-0.225226
-0.239666
-0.255148
-0.271785
-0.289702
-0.309041
-0.329963
-0.35265
-0.377313
-0.404201
-0.433539
-0.465638
-0.500862
-0.53963
-0.582424
-0.629821
-0.682548
-0.741569
-0.80822
-0.884448
-0.973113
-1.07782
-1.20157
-1.344
-1.49536
-1.62885
-1.69978
-1.6515
-1.41586
-0.937983
-0.280452
-0.0598397
-0.0667197
-0.0732524
-0.0798778
-0.0866628
-0.0936375
-0.100828
-0.108263
-0.115971
-0.123986
-0.132343
-0.141081
-0.150244
-0.159876
-0.170029
-0.180758
-0.192123
-0.204192
-0.217038
-0.230743
-0.245398
-0.261106
-0.27798
-0.29615
-0.315758
-0.336973
-0.359974
-0.384966
-0.412275
-0.442021
-0.47458
-0.51035
-0.549778
-0.593388
-0.641812
-0.695842
-0.756522
-0.825179
-0.903422
-0.993208
-1.09626
-1.21241
-1.33738
-1.45871
-1.55175
-1.57944
-1.49457
-1.24309
-0.78992
-0.194431
-0.0618228
-0.0689738
-0.0756402
-0.0824158
-0.0893498
-0.0964747
-0.103816
-0.111402
-0.119263
-0.127432
-0.135944
-0.144839
-0.15416
-0.163954
-0.17427
-0.185166
-0.196702
-0.208947
-0.221974
-0.235867
-0.250718
-0.26663
-0.283718
-0.302111
-0.321954
-0.343419
-0.36668
-0.391937
-0.419929
-0.450174
-0.483297
-0.519723
-0.559923
-0.604458
-0.65402
-0.709485
-0.771963
-0.842756
-0.9232
-1.01474
-1.1181
-1.23091
-1.34589
-1.44836
-1.51483
-1.51314
-1.40258
-1.13919
-0.702006
-0.143141
-0.0640053
-0.0719939
-0.0787532
-0.0857543
-0.0928843
-0.100209
-0.10775
-0.115536
-0.123599
-0.131973
-0.140692
-0.149798
-0.159331
-0.16934
-0.179874
-0.19099
-0.202749
-0.215219
-0.228474
-0.242598
-0.257685
-0.273837
-0.291172
-0.309823
-0.329938
-0.351681
-0.375254
-0.400861
-0.428198
-0.458545
-0.491921
-0.52866
-0.569226
-0.614204
-0.664325
-0.720509
-0.783875
-0.855807
-0.93799
-1.0316
-1.13634
-1.24926
-1.3617
-1.45747
-1.51247
-1.49552
-1.36974
-1.09784
-0.663904
-0.117162
-0.331854
2.12984
2.72105
3.09165
3.29614
3.43512
3.53396
3.60575
3.65974
3.7005
3.73156
3.75524
3.77326
3.7869
3.79715
3.80472
3.81019
3.81395
3.8163
3.81719
-0.641922
1.85136
2.60968
3.02222
3.25155
3.40502
3.51318
3.59125
3.64953
3.69328
3.72643
3.75158
3.77064
3.78503
3.7958
3.80375
3.80947
3.8134
3.81586
3.81678
-0.379238
1.66189
2.51536
2.95538
3.20884
3.37606
3.49332
3.57748
3.63991
3.68651
3.72165
3.74819
3.76823
3.78331
3.79456
3.80286
3.80882
3.8129
3.81546
3.81641
-0.0414973
1.54792
2.43852
2.89348
3.16865
3.34857
3.47457
3.56455
3.63093
3.68023
3.71723
3.74507
3.76602
3.78174
3.79344
3.80205
3.80822
3.81245
3.81509
3.81608
0.188248
1.47682
2.37459
2.83771
3.13145
3.32287
3.4571
3.55255
3.62264
3.67448
3.71321
3.74224
3.76402
3.78032
3.79243
3.80132
3.80769
3.81205
3.81477
3.81578
0.332269
1.43448
2.31937
2.78829
3.09749
3.29923
3.44104
3.54158
3.61511
3.66928
3.7096
3.73972
3.76225
3.77907
3.79154
3.80068
3.80723
3.81169
3.81449
3.81552
0.419989
1.41366
2.27132
2.74518
3.06691
3.27784
3.42653
3.53171
3.60839
3.66466
3.70641
3.7375
3.7607
3.77798
3.79077
3.80013
3.80683
3.81139
3.81425
3.81529
0.46768
1.40608
2.23034
2.7082
3.03981
3.25888
3.41367
3.52303
3.60251
3.66066
3.70367
3.73561
3.75939
3.77706
3.79013
3.79967
3.80649
3.81114
3.81404
3.81511
0.494372
1.40508
2.19612
2.6771
3.01632
3.24247
3.40256
3.51559
3.59751
3.65729
3.70138
3.73404
3.75831
3.77631
3.7896
3.7993
3.80622
3.81094
3.81388
3.81496
0.515189
1.40736
2.16803
2.65153
2.99653
3.22872
3.39329
3.50944
3.59343
3.65458
3.69956
3.73281
3.75747
3.77574
3.7892
3.79902
3.80602
3.81079
3.81376
3.81485
0.535745
1.41141
2.14562
2.63121
2.98053
3.2177
3.38593
3.50464
3.5903
3.65253
3.69821
3.73192
3.75687
3.77533
3.78892
3.79883
3.80588
3.81069
3.81368
3.81477
0.555554
1.41616
2.12874
2.616
2.96847
3.20954
3.38059
3.50126
3.58817
3.65118
3.69735
3.73137
3.75651
3.7751
3.78877
3.79873
3.80582
3.81064
3.81365
3.81474
0.572772
1.42135
2.11792
2.60632
2.96085
3.20461
3.37752
3.49945
3.58711
3.65059
3.69702
3.73119
3.75642
3.77505
3.78875
3.79872
3.80581
3.81064
3.81365
3.81474
0.58827
1.42849
2.11489
2.6034
2.95857
3.20347
3.37707
3.49942
3.58727
3.65081
3.69725
3.73139
3.75659
3.77519
3.78886
3.79881
3.80588
3.8107
3.8137
3.8148
0.60524
1.43683
2.11867
2.60614
2.96078
3.20537
3.37866
3.50072
3.5883
3.65162
3.69787
3.73187
3.75695
3.77546
3.78906
3.79896
3.806
3.81079
3.81377
3.8149
)
;

boundaryField
{
    internal
    {
        type            internal;
    }
    movingWall
    {
        type            zeroGradient;
    }
    farFieldMoving
    {
        type            zeroGradient;
    }
    fixedWall
    {
        type            zeroGradient;
    }
    axis
    {
        type            empty;
    }
    left
    {
        type            totalPressure;
        rho             rho;
        psi             none;
        gamma           1;
        p0              uniform 0;
        value           nonuniform List<scalar> 
30
(
-0.177998
-0.176393
-0.17324
-0.168436
-0.162042
-0.154139
-0.14483
-0.134252
-0.122588
-0.110078
-0.0970222
-0.083779
-0.0707491
-0.0583361
-0.0468916
-0.0304339
-0.0152826
-0.00647107
-0.00198712
-0.00023473
0
0
0
0
0
0
0
0
0
0
)
;
    }
    farField
    {
        type            zeroGradient;
    }
    back
    {
        type            wedge;
    }
    front
    {
        type            wedge;
    }
}


// ************************************************************************* //
