/*--------------------------------*- C++ -*----------------------------------*\
  =========                 |
  \\      /  F ield         | OpenFOAM: The Open Source CFD Toolbox
   \\    /   O peration     | Website:  https://openfoam.org
    \\  /    A nd           | Version:  13
     \\/     M anipulation  |
\*---------------------------------------------------------------------------*/
FoamFile
{
    format      ascii;
    class       surfaceScalarField;
    location    "0.0002";
    object      phi;
}
// * * * * * * * * * * * * * * * * * * * * * * * * * * * * * * * * * * * * * //

dimensions      [0 3 -1 0 0 0 0];

internalField   nonuniform List<scalar> 
3252
(
5.28369e-11
-8.81307e-13
4.23998e-11
-2.65661e-12
3.37069e-11
-4.40013e-12
2.66312e-11
-6.01504e-12
2.07309e-11
-7.18211e-12
1.64666e-11
-8.80404e-12
1.06803e-11
-7.58145e-12
-6.47801e-12
1.57644e-10
-3.54282e-12
1.26393e-10
-1.06871e-11
1.00397e-10
-1.76829e-11
7.92445e-11
-2.4135e-11
6.22361e-11
-2.94211e-11
4.81642e-11
-3.39374e-11
3.39395e-11
-3.34535e-11
-2.40197e-11
2.59881e-10
-8.02952e-12
2.07934e-10
-2.42089e-11
1.64856e-10
-4.00703e-11
1.30027e-10
-5.47598e-11
1.02334e-10
-6.71405e-11
7.93951e-11
-7.63417e-11
5.68439e-11
-7.77072e-11
-5.29993e-11
3.57629e-10
-1.43825e-11
2.85133e-10
-4.33695e-11
2.25307e-10
-7.1896e-11
1.77418e-10
-9.85057e-11
1.39962e-10
-1.21265e-10
1.09543e-10
-1.37403e-10
7.95155e-11
-1.41158e-10
-9.36829e-11
4.48978e-10
-2.26386e-11
3.561e-10
-6.83358e-11
2.79946e-10
-1.1358e-10
2.19846e-10
-1.56223e-10
1.7403e-10
-1.93195e-10
1.38079e-10
-2.19075e-10
1.0219e-10
-2.25369e-10
-1.46115e-10
5.31983e-10
-3.28247e-11
4.18871e-10
-9.92548e-11
3.26837e-10
-1.65571e-10
2.55568e-10
-2.28954e-10
2.03299e-10
-2.84841e-10
1.64555e-10
-3.24097e-10
1.25274e-10
-3.32747e-10
-2.09945e-10
6.04635e-10
-4.49319e-11
4.7134e-10
-1.36178e-10
3.63797e-10
-2.28239e-10
2.8251e-10
-3.17849e-10
2.26239e-10
-3.98655e-10
1.88602e-10
-4.56372e-10
1.49525e-10
-4.66808e-10
-2.8408e-10
6.64874e-10
-5.88781e-11
5.11243e-10
-1.78954e-10
3.88314e-10
-3.01708e-10
2.98108e-10
-4.24009e-10
2.40867e-10
-5.37671e-10
2.10114e-10
-6.21683e-10
1.76416e-10
-6.32632e-10
-3.65969e-10
7.10632e-10
-7.44631e-11
5.36158e-10
-2.27075e-10
3.97447e-10
-3.85581e-10
2.99052e-10
-5.48162e-10
2.44448e-10
-7.05499e-10
2.29646e-10
-8.29102e-10
2.08898e-10
-8.37681e-10
-4.5012e-10
7.39923e-10
-9.13129e-11
5.43547e-10
-2.79481e-10
3.87739e-10
-4.78545e-10
2.80865e-10
-6.90021e-10
2.32824e-10
-9.06066e-10
2.47949e-10
-1.09261e-09
2.51545e-10
-1.09322e-09
-5.26486e-10
7.50985e-10
-1.08823e-10
5.30866e-10
-3.34332e-10
3.55137e-10
-5.77774e-10
2.37188e-10
-8.4699e-10
1.98572e-10
-1.14224e-09
2.59592e-10
-1.42819e-09
3.0362e-10
-1.4152e-09
-5.85768e-10
7.42474e-10
-1.26108e-10
4.95727e-10
-3.88742e-10
2.94748e-10
-6.7794e-10
1.58083e-10
-1.01143e-09
1.25064e-10
-1.41018e-09
2.32712e-10
-1.83659e-09
3.32046e-10
-1.81833e-09
-6.51759e-10
7.13692e-10
-1.41957e-10
4.36125e-10
-4.3852e-10
2.00765e-10
-7.69913e-10
2.85596e-11
-1.16651e-09
-2.41239e-11
-1.68465e-09
8.51526e-11
-2.27282e-09
2.34273e-10
-2.29692e-09
-8.50817e-10
6.64795e-10
-1.5488e-10
3.51244e-10
-4.78501e-10
6.93742e-11
-8.41563e-10
-1.6305e-10
-1.28756e-09
-2.95025e-10
-1.90601e-09
-2.94353e-10
-2.62665e-09
-1.4523e-10
-2.80097e-09
-1.46487e-09
5.97049e-10
-1.63455e-10
2.43643e-10
-5.04816e-10
-9.29369e-11
-8.84691e-10
-4.0474e-10
-1.35542e-09
-6.80601e-10
-2.00968e-09
-9.2535e-10
-2.76131e-09
-9.10467e-10
-3.19771e-09
-2.87813e-09
-4.70008e-11
1.00834e-10
-1.21873e-10
1.28007e-10
-1.99939e-10
1.32594e-10
-2.73287e-10
1.29801e-10
-3.40649e-10
1.25897e-10
-3.99498e-10
1.19557e-10
-4.47834e-10
1.11299e-10
-4.84131e-10
1.01596e-10
-5.07381e-10
9.09748e-11
-5.171e-10
7.99573e-11
-5.13276e-10
6.90238e-11
-4.96304e-10
5.85802e-11
-4.66887e-10
4.89417e-11
-4.25948e-10
4.03298e-11
-3.74541e-10
3.28815e-11
-3.13789e-10
2.66662e-11
-2.44836e-10
2.17126e-11
-1.68873e-10
1.80708e-11
-8.72474e-11
1.58992e-11
1.35609e-11
-1.29599e-10
3.77052e-10
-3.45955e-10
4.89051e-10
-5.59098e-10
4.94232e-10
-7.64413e-10
4.88862e-10
-9.5119e-10
4.72094e-10
-1.11333e-09
4.47029e-10
-1.24548e-09
4.14922e-10
-1.34367e-09
3.7763e-10
-1.4054e-09
3.37152e-10
-1.42962e-09
2.95468e-10
-1.41656e-09
2.54366e-10
-1.36754e-09
2.15327e-10
-1.28467e-09
1.79475e-10
-1.17059e-09
1.4758e-10
-1.02825e-09
1.20096e-10
-8.60729e-10
9.72319e-11
-6.71144e-10
7.90534e-11
-4.62688e-10
6.57131e-11
-2.38964e-10
5.7784e-11
4.92071e-11
-2.10207e-10
8.07056e-10
-5.50857e-10
1.04649e-09
-8.86746e-10
1.05267e-09
-1.2069e-09
1.03946e-09
-1.4956e-09
9.99741e-10
-1.74334e-09
9.42577e-10
-1.94223e-09
8.70827e-10
-2.08685e-09
7.88806e-10
-2.1742e-09
7.00951e-10
-2.20353e-09
6.11517e-10
-2.17602e-09
5.24218e-10
-2.09431e-09
4.42032e-10
-1.9621e-09
3.67133e-10
-1.78371e-09
3.00937e-10
-1.56376e-09
2.4421e-10
-1.30691e-09
1.97235e-10
-1.01777e-09
1.60023e-10
-7.00993e-10
1.32789e-10
-3.61725e-10
1.16625e-10
9.92045e-11
-2.93204e-10
1.37682e-09
-7.53696e-10
1.77954e-09
-1.205e-09
1.78388e-09
-1.63016e-09
1.75445e-09
-2.00821e-09
1.67834e-09
-2.32709e-09
1.57316e-09
-2.5774e-09
1.44442e-09
-2.7535e-09
1.30019e-09
-2.85312e-09
1.14831e-09
-2.87693e-09
9.95971e-10
-2.82784e-09
8.49166e-10
-2.71038e-09
7.12495e-10
-2.53005e-09
5.89139e-10
-2.29284e-09
4.81011e-10
-2.00484e-09
3.88992e-10
-1.67197e-09
3.13225e-10
-1.29989e-09
2.53475e-10
-8.94165e-10
2.09895e-10
-4.60859e-10
1.84078e-10
1.56373e-10
-3.83311e-10
2.07974e-09
-9.64801e-10
2.67568e-09
-1.52859e-09
2.67093e-09
-2.05213e-09
2.61279e-09
-2.50895e-09
2.48233e-09
-2.88557e-09
2.30983e-09
-3.1724e-09
2.10467e-09
-3.36508e-09
1.88016e-09
-3.46351e-09
1.64841e-09
-3.47086e-09
1.41991e-09
-3.39259e-09
1.20296e-09
-3.23557e-09
1.00358e-09
-3.00728e-09
8.25602e-10
-2.71531e-09
6.71056e-10
-2.36696e-09
5.40564e-10
-1.96905e-09
4.3381e-10
-1.52788e-09
3.50052e-10
-1.04944e-09
2.89193e-10
-5.40132e-10
2.53211e-10
2.14789e-10
-4.84309e-10
2.91529e-09
-1.1918e-09
3.72851e-09
-1.86765e-09
3.70178e-09
-2.48408e-09
3.59694e-09
-3.00915e-09
3.38871e-09
-3.4297e-09
3.12584e-09
-3.73771e-09
2.82282e-09
-3.93188e-09
2.49972e-09
-4.01574e-09
2.17344e-09
-3.99605e-09
1.85777e-09
-3.88146e-09
1.56292e-09
-3.68143e-09
1.29572e-09
-3.40543e-09
1.06006e-09
-3.06244e-09
8.57477e-10
-2.66065e-09
6.87863e-10
-2.20741e-09
5.50052e-10
-1.70923e-09
4.42512e-10
-1.17215e-09
3.64685e-10
-6.02371e-10
3.18769e-10
2.69994e-10
-5.99947e-10
3.88864e-09
-1.44113e-09
4.9363e-09
-2.22977e-09
4.86748e-09
-2.93305e-09
4.69085e-09
-3.51447e-09
4.37522e-09
-3.9638e-09
3.99529e-09
-4.27677e-09
3.57151e-09
-4.45719e-09
3.13205e-09
-4.5136e-09
2.69854e-09
-4.45722e-09
2.28749e-09
-4.30027e-09
1.91012e-09
-4.05481e-09
1.57314e-09
-3.73207e-09
1.27962e-09
-3.34209e-09
1.02993e-09
-2.89357e-09
8.22686e-10
-2.39399e-09
6.55476e-10
-1.84971e-09
5.25713e-10
-1.26642e-09
4.32187e-10
-6.49807e-10
3.77128e-10
3.18944e-10
-7.3447e-10
5.01084e-09
-1.71893e-09
6.30083e-09
-2.62093e-09
6.16066e-09
-3.403e-09
5.87823e-09
-4.02643e-09
5.41898e-09
-4.48753e-09
4.89232e-09
-4.78837e-09
4.32447e-09
-4.93994e-09
3.75253e-09
-4.95702e-09
3.20194e-09
-4.85579e-09
2.69064e-09
-4.65202e-09
2.22946e-09
-4.36013e-09
1.8238e-09
-3.99269e-09
1.47487e-09
-3.56032e-09
1.18117e-09
-3.07185e-09
9.39491e-10
-2.53446e-09
7.45855e-10
-1.95406e-09
5.96403e-10
-1.33571e-09
4.89119e-10
-6.84313e-10
4.26096e-10
3.5983e-10
-8.93041e-10
6.29951e-09
-2.03149e-09
7.82644e-09
-3.04601e-09
7.57393e-09
-3.89539e-09
7.14085e-09
-4.54332e-09
6.49545e-09
-4.99722e-09
5.79068e-09
-5.2683e-09
5.05652e-09
-5.37666e-09
4.33897e-09
-5.34408e-09
3.6652e-09
-5.19173e-09
3.05254e-09
-4.93859e-09
2.50968e-09
-4.60087e-09
2.03925e-09
-4.19191e-09
1.63963e-09
-3.72242e-09
1.30671e-09
-3.20085e-09
1.03505e-09
-2.63381e-09
8.18873e-10
-2.02647e-09
6.52898e-10
-1.38307e-09
5.34216e-10
-7.07535e-10
4.6464e-10
3.91834e-10
-1.08219e-09
7.77999e-09
-2.38554e-09
9.51885e-09
-3.50884e-09
9.09826e-09
-4.4093e-09
8.45696e-09
-5.06069e-09
7.5779e-09
-5.48677e-09
6.66383e-09
-5.71057e-09
5.74399e-09
-5.76276e-09
4.87205e-09
-5.67227e-09
4.07347e-09
-5.46481e-09
3.36235e-09
-5.16179e-09
2.74315e-09
-4.78047e-09
2.21434e-09
-4.33425e-09
1.7705e-09
-3.83341e-09
1.40439e-09
-3.28565e-09
1.10805e-09
-2.6967e-09
8.73739e-10
-2.07081e-09
6.94744e-10
-1.41127e-09
5.67223e-10
-7.20967e-10
4.9261e-10
4.14878e-10
-1.31037e-09
9.48704e-09
-2.7883e-09
1.13836e-08
-4.01202e-09
1.0721e-08
-4.94131e-09
9.79988e-09
-5.57178e-09
8.63733e-09
-5.94844e-09
7.48539e-09
-6.1084e-09
6.36537e-09
-6.09361e-09
5.33581e-09
-5.93954e-09
4.41572e-09
-5.67539e-09
3.61296e-09
-5.32399e-09
2.92562e-09
-4.90271e-09
2.34677e-09
-4.42438e-09
1.86644e-09
-3.89831e-09
1.47394e-09
-3.33115e-09
1.15863e-09
-2.72754e-09
9.10814e-10
-2.09069e-09
7.22388e-10
-1.4229e-09
5.88608e-10
-7.25984e-10
5.10474e-10
4.29405e-10
-1.58867e-09
1.14674e-08
-3.24739e-09
1.34235e-08
-4.55643e-09
1.24236e-08
-5.48545e-09
1.11369e-08
-6.06792e-09
9.64298e-09
-6.3736e-09
8.22996e-09
-6.45513e-09
6.90209e-09
-6.36535e-09
5.71813e-09
-6.14482e-09
4.68482e-09
-5.82483e-09
3.8008e-09
-5.42834e-09
3.05581e-09
-4.97195e-09
2.43662e-09
-4.46726e-09
1.92829e-09
-3.92224e-09
1.51649e-09
-3.3422e-09
1.188e-09
-2.73059e-09
9.3126e-10
-2.08956e-09
7.36885e-10
-1.42038e-09
5.99317e-10
-7.23855e-10
5.19102e-10
4.36182e-10
-1.93199e-09
1.37834e-08
-3.77044e-09
1.56349e-08
-5.14067e-09
1.41792e-08
-6.03313e-09
1.2429e-08
-6.53913e-09
1.05635e-08
-6.75341e-09
8.87412e-09
-6.74489e-09
7.33941e-09
-6.57537e-09
6.01103e-09
-6.28842e-09
4.87745e-09
-5.91566e-09
3.92543e-09
-5.47888e-09
3.1349e-09
-4.99307e-09
2.48584e-09
-4.4681e-09
1.95822e-09
-3.91028e-09
1.53419e-09
-3.32348e-09
1.1981e-09
-2.7099e-09
9.3675e-10
-2.0706e-09
7.39661e-10
-1.40593e-09
6.00575e-10
-7.15728e-10
5.19575e-10
4.36175e-10
-2.36076e-09
1.65183e-08
-4.36434e-09
1.80013e-08
-5.76028e-09
1.59503e-08
-6.5734e-09
1.36312e-08
-6.97473e-09
1.13683e-08
-7.07958e-09
9.3975e-09
-6.97318e-09
7.66709e-09
-6.72269e-09
6.21074e-09
-6.37206e-09
4.99375e-09
-5.95133e-09
3.98896e-09
-5.48051e-09
3.16633e-09
-4.9716e-09
2.49784e-09
-4.43248e-09
1.95935e-09
-3.86768e-09
1.52972e-09
-3.27963e-09
1.1912e-09
-2.66933e-09
9.29186e-10
-2.03684e-09
7.323e-10
-1.38163e-09
5.93717e-10
-7.02717e-10
5.13108e-10
4.30366e-10
-2.90437e-09
1.97855e-08
-5.03422e-09
2.04821e-08
-6.40714e-09
1.76866e-08
-7.09329e-09
1.46943e-08
-7.36469e-09
1.20306e-08
-7.34474e-09
9.78297e-09
-7.13781e-09
7.88064e-09
-6.80861e-09
6.31764e-09
-6.39971e-09
5.03714e-09
-5.93764e-09
3.99598e-09
-5.43869e-09
3.15389e-09
-4.91274e-09
2.47648e-09
-4.36528e-09
1.93523e-09
-3.79897e-09
1.50619e-09
-3.21472e-09
1.16988e-09
-2.61233e-09
9.1065e-10
-1.99096e-09
7.16471e-10
-1.34932e-09
5.80117e-10
-6.85718e-10
5.00881e-10
4.19787e-10
-3.60462e-09
2.37404e-08
-5.78144e-09
2.29972e-08
-7.06897e-09
1.93245e-08
-7.57767e-09
1.55665e-08
-7.70402e-09
1.2534e-08
-7.54535e-09
1.00153e-08
-7.23765e-09
7.97847e-09
-6.83511e-09
6.3357e-09
-6.3747e-09
5.01295e-09
-5.87837e-09
3.95208e-09
-5.35858e-09
3.10333e-09
-4.82207e-09
2.42662e-09
-4.27191e-09
1.8898e-09
-3.70897e-09
1.46672e-09
-3.13279e-09
1.13663e-09
-2.54216e-09
8.83121e-10
-1.93544e-09
6.93763e-10
-1.31068e-09
5.61076e-10
-6.65597e-10
4.84026e-10
4.0539e-10
-4.4821e-09
2.85593e-08
-6.59825e-09
2.54379e-08
-7.72939e-09
2.07923e-08
-8.01849e-09
1.62048e-08
-7.9613e-09
1.28391e-08
-7.67596e-09
1.01057e-08
-7.27401e-09
7.96618e-09
-6.80615e-09
6.27196e-09
-6.30278e-09
4.92871e-09
-5.78008e-09
3.86408e-09
-5.24631e-09
3.02041e-09
-4.70509e-09
2.353e-09
-4.15721e-09
1.82688e-09
-3.60187e-09
1.41437e-09
-3.03741e-09
1.09384e-09
-2.46171e-09
8.4847e-10
-1.87245e-09
6.65651e-10
-1.26717e-09
5.3779e-10
-6.43096e-10
4.63576e-10
3.88041e-10
-5.54211e-09
3.44243e-08
-7.53641e-09
2.77428e-08
-8.35504e-09
2.19333e-08
-8.39553e-09
1.65798e-08
-8.15085e-09
1.29413e-08
-7.73761e-09
1.00522e-08
-7.25038e-09
7.85212e-09
-6.72727e-09
6.13588e-09
-6.19001e-09
4.79286e-09
-5.64873e-09
3.73911e-09
-5.10746e-09
2.91093e-09
-4.56687e-09
2.26022e-09
-4.02565e-09
1.75011e-09
-3.48152e-09
1.35195e-09
-2.93177e-09
1.04369e-09
-2.37352e-09
8.08389e-10
-1.80392e-09
6.33459e-10
-1.22008e-09
5.11327e-10
-6.18856e-10
4.4045e-10
3.68503e-10
-6.8382e-09
4.15711e-08
-8.55987e-09
2.97608e-08
-8.92986e-09
2.26111e-08
-8.69473e-09
1.66641e-08
-8.26175e-09
1.28396e-08
-7.73269e-09
9.86678e-09
-7.17197e-09
7.64776e-09
-6.60459e-09
5.93811e-09
-6.04262e-09
4.61421e-09
-5.49019e-09
3.58425e-09
-4.94737e-09
2.78044e-09
-4.41211e-09
2.15261e-09
-3.88127e-09
1.6628e-09
-3.35132e-09
1.28201e-09
-2.81866e-09
9.88133e-10
-2.27981e-09
7.64372e-10
-1.73149e-09
5.98345e-10
-1.17049e-09
4.8261e-10
-5.93429e-10
4.15441e-10
3.47435e-10
-7.9627e-09
4.98281e-08
-9.643e-09
3.1723e-08
-9.40987e-09
2.26712e-08
-8.90768e-09
1.64661e-08
-8.29394e-09
1.25414e-08
-7.66555e-09
9.5657e-09
-7.04522e-09
7.36689e-09
-6.44484e-09
5.6898e-09
-5.86696e-09
4.40147e-09
-5.31019e-09
3.40618e-09
-4.77104e-09
2.63406e-09
-4.24512e-09
2.03405e-09
-3.72773e-09
1.56791e-09
-3.21431e-09
1.20677e-09
-2.70055e-09
9.28843e-10
-2.18252e-09
7.17693e-10
-1.65661e-09
5.61291e-10
-1.11939e-09
4.52418e-10
-5.67304e-10
3.89223e-10
3.2538e-10
1.04883e-09
-1.71058e-10
7.83162e-11
-5.22159e-10
-8.96037e-10
-8.98165e-10
-1.90829e-09
-1.3309e-09
-3.04452e-09
-1.86093e-09
-4.35147e-09
-2.44181e-09
-5.68292e-09
-2.86365e-09
-2.63973e-09
-7.00743e-09
5.11267e-10
-1.67453e-10
-6.34814e-10
-5.06515e-10
-1.80572e-09
-8.57668e-10
-3.03956e-09
-1.22737e-09
-4.40738e-09
-1.62322e-09
-5.95001e-09
-2.02943e-09
-7.61395e-09
-2.33946e-09
-2.34903e-09
-8.89505e-09
-7.67056e-11
-1.58238e-10
-1.38433e-09
-4.71902e-10
-2.72524e-09
-7.89748e-10
-4.11271e-09
-1.11282e-09
-5.57056e-09
-1.43811e-09
-7.13231e-09
-1.74053e-09
-8.78556e-09
-1.96193e-09
-2.02301e-09
-1.02018e-08
-6.80826e-10
-1.50451e-10
-2.13787e-09
-4.30457e-10
-3.63214e-09
-7.11049e-10
-5.17025e-09
-9.90219e-10
-6.76131e-09
-1.26244e-09
-8.40649e-09
-1.51075e-09
-1.00707e-08
-1.70738e-09
-1.79544e-09
-1.14916e-08
-1.27446e-09
-1.54408e-10
-2.87805e-09
-3.85045e-10
-4.51448e-09
-6.32777e-10
-6.18563e-09
-8.77186e-10
-7.89452e-09
-1.11159e-09
-9.63772e-09
-1.32546e-09
-1.13865e-08
-1.50314e-09
-1.6009e-09
-1.28803e-08
-1.86679e-09
-1.59627e-10
-3.60917e-09
-3.43427e-10
-5.38238e-09
-5.60316e-10
-7.18585e-09
-7.74439e-10
-9.01887e-09
-9.79285e-10
-1.08769e-08
-1.1679e-09
-1.27311e-08
-1.32988e-09
-1.42917e-09
-1.43114e-08
-2.44717e-09
-1.51393e-10
-4.32484e-09
-3.09095e-10
-6.23266e-09
-4.95834e-10
-8.16902e-09
-6.81409e-10
-1.01315e-08
-8.60173e-10
-1.21157e-08
-1.02671e-09
-1.40915e-08
-1.1733e-09
-1.26965e-09
-1.57732e-08
-2.99187e-09
-1.3681e-10
-5.01272e-09
-2.74165e-10
-7.06013e-09
-4.34349e-10
-9.13345e-09
-5.94035e-10
-1.12308e-08
-7.4892e-10
-1.33484e-08
-8.94677e-10
-1.54562e-08
-1.0254e-09
-1.11591e-09
-1.72506e-08
-3.51021e-09
-1.19869e-10
-5.67492e-09
-2.37954e-10
-7.86405e-09
-3.73736e-10
-1.00773e-08
-5.093e-10
-1.23135e-08
-6.41469e-10
-1.45697e-08
-7.66797e-10
-1.68175e-08
-8.80916e-10
-9.63494e-10
-1.87347e-08
-4.00214e-09
-1.01607e-10
-6.31077e-09
-2.00412e-10
-8.64281e-09
-3.12794e-10
-1.09982e-08
-4.25092e-10
-1.33761e-08
-5.34957e-10
-1.57743e-08
-6.39678e-10
-1.81686e-08
-7.36267e-10
-8.09093e-10
-2.02186e-08
-4.4655e-09
-8.22889e-11
-6.91817e-09
-1.61407e-10
-9.39396e-09
-2.50698e-10
-1.18929e-08
-3.39947e-10
-1.44145e-08
-4.27385e-10
-1.69572e-08
-5.10961e-10
-1.95038e-08
-5.88952e-10
-6.5022e-10
-2.16967e-08
-4.89739e-09
-6.1945e-11
-7.49429e-09
-1.20753e-10
-1.01144e-08
-1.8682e-10
-1.2758e-08
-2.52827e-10
-1.54246e-08
-3.17343e-10
-1.81135e-08
-3.78976e-10
-2.08177e-08
-4.3728e-10
-4.85e-10
-2.31641e-08
-5.29255e-09
-4.04004e-11
-8.03415e-09
-7.7975e-11
-1.07995e-08
-1.20377e-10
-1.35885e-08
-1.62823e-10
-1.64012e-08
-2.0388e-10
-1.92372e-08
-2.42682e-10
-2.21035e-08
-2.80492e-10
-3.12669e-10
-2.46141e-08
-5.59847e-09
-1.77396e-11
-8.48457e-09
-3.32862e-11
-1.13946e-08
-5.17992e-11
-1.43284e-08
-7.05931e-11
-1.7286e-08
-8.82253e-11
-2.02673e-08
-1.03718e-10
-2.32911e-08
-1.19798e-10
-1.38657e-10
-2.5977e-08
-5.189e-09
-8.20628e-09
-1.12421e-08
-1.42969e-08
-1.73696e-08
-2.04582e-08
-2.35944e-08
-2.70333e-08
-6.72785e-09
-5.26763e-10
-6.65298e-09
-9.71013e-11
-6.62966e-09
-2.68163e-11
-6.63554e-09
5.21406e-12
-6.6589e-09
2.32315e-11
-6.69235e-09
3.34246e-11
-6.73058e-09
3.82195e-11
-6.7698e-09
3.92213e-11
-6.80746e-09
3.76669e-11
-6.84183e-09
3.43626e-11
-6.87157e-09
2.97467e-11
-6.89575e-09
2.41767e-11
-6.91373e-09
1.79828e-11
-6.92507e-09
1.13359e-11
-6.92932e-09
4.24911e-12
-6.92613e-09
-3.18359e-12
-6.9152e-09
-1.09312e-11
-6.89636e-09
-1.88464e-11
-6.86945e-09
-2.69106e-11
-6.83436e-09
-3.50869e-11
-6.79102e-09
-4.33394e-11
-6.73948e-09
-5.1536e-11
-6.67964e-09
-5.9846e-11
-6.61148e-09
-6.8158e-11
-6.535e-09
-7.64836e-11
-6.45005e-09
-8.49427e-11
-6.35661e-09
-9.34423e-11
-6.2548e-09
-1.01811e-10
-6.14454e-09
-1.10265e-10
-6.02577e-09
-1.18768e-10
-5.89843e-09
-1.2734e-10
-5.76241e-09
-1.36017e-10
-5.61752e-09
-1.44885e-10
-5.46335e-09
-1.54173e-10
-5.2991e-09
-1.64251e-10
-5.12404e-09
-1.75062e-10
-4.93917e-09
-1.84873e-10
-4.74902e-09
-1.90148e-10
-4.55891e-09
-1.90108e-10
-4.35817e-09
-2.00743e-10
-4.07862e-09
-2.79549e-10
-3.54687e-09
-5.31745e-10
-2.51734e-09
-1.02953e-09
-7.54588e-10
-1.76275e-09
1.50806e-09
-2.26265e-09
3.53981e-09
-2.03175e-09
4.47423e-09
-9.34426e-10
4.35183e-09
1.22405e-10
3.1922e-09
1.15969e-09
9.93397e-09
-6.73503e-09
-9.50881e-09
-3.64973e-10
-9.68651e-09
2.83997e-11
-9.83772e-09
1.1555e-10
-9.98593e-09
1.51721e-10
-1.01317e-08
1.68642e-10
-1.02743e-08
1.7596e-10
-1.04134e-08
1.77387e-10
-1.05492e-08
1.74959e-10
-1.06815e-08
1.69935e-10
-1.08102e-08
1.63068e-10
-1.09352e-08
1.54818e-10
-1.10566e-08
1.4555e-10
-1.11742e-08
1.35535e-10
-1.12877e-08
1.2489e-10
-1.13972e-08
1.13727e-10
-1.15025e-08
1.0213e-10
-1.16036e-08
9.01188e-11
-1.17001e-08
7.76884e-11
-1.17918e-08
6.48129e-11
-1.18784e-08
5.14679e-11
-1.19594e-08
3.76912e-11
-1.20343e-08
2.33979e-11
-1.21026e-08
8.4677e-12
-1.21636e-08
-7.16043e-12
-1.22165e-08
-2.36065e-11
-1.22606e-08
-4.08954e-11
-1.2295e-08
-5.89792e-11
-1.23188e-08
-7.80074e-11
-1.23309e-08
-9.81846e-11
-1.233e-08
-1.19697e-10
-1.23145e-08
-1.4282e-10
-1.22826e-08
-1.67927e-10
-1.22319e-08
-1.95619e-10
-1.21593e-08
-2.26727e-10
-1.20619e-08
-2.61655e-10
-1.19383e-08
-2.98701e-10
-1.17897e-08
-3.33386e-10
-1.16144e-08
-3.65469e-10
-1.13838e-08
-4.20772e-10
-1.10011e-08
-5.83402e-10
-1.02704e-08
-1.01022e-09
-8.92703e-09
-1.87515e-09
-6.75764e-09
-3.19892e-09
-3.94486e-09
-4.57553e-09
-8.34428e-10
-5.37309e-09
1.77454e-09
-4.64072e-09
3.02261e-09
-2.18249e-09
1.8369e-09
1.30812e-09
-4.17241e-09
7.16946e-09
1.93671e-08
-1.35572e-08
-1.09894e-08
-9.07712e-11
-1.12677e-08
2.29188e-10
-1.14636e-08
2.97334e-10
-1.1633e-08
3.18425e-10
-1.17903e-08
3.2539e-10
-1.19406e-08
3.26207e-10
-1.20864e-08
3.23183e-10
-1.2229e-08
3.17468e-10
-1.23688e-08
3.09767e-10
-1.25063e-08
3.00568e-10
-1.26417e-08
2.90232e-10
-1.27752e-08
2.79027e-10
-1.29068e-08
2.67138e-10
-1.30366e-08
2.54686e-10
-1.31646e-08
2.4176e-10
-1.32909e-08
2.28411e-10
-1.34154e-08
2.14652e-10
-1.35382e-08
2.0047e-10
-1.36592e-08
1.85825e-10
-1.37784e-08
1.70682e-10
-1.38957e-08
1.54993e-10
-1.4011e-08
1.38672e-10
-1.41242e-08
1.21641e-10
-1.42351e-08
1.0379e-10
-1.43436e-08
8.4904e-11
-1.44493e-08
6.48072e-11
-1.45517e-08
4.33222e-11
-1.46498e-08
2.0127e-11
-1.47428e-08
-5.20296e-12
-1.48293e-08
-3.31188e-11
-1.49079e-08
-6.42154e-11
-1.49765e-08
-9.94091e-11
-1.50321e-08
-1.40008e-10
-1.50714e-08
-1.87407e-10
-1.50911e-08
-2.42e-10
-1.50874e-08
-3.0237e-10
-1.5051e-08
-3.69816e-10
-1.49505e-08
-4.65973e-10
-1.4708e-08
-6.63206e-10
-1.41861e-08
-1.10529e-09
-1.32178e-08
-1.97853e-09
-1.16906e-08
-3.40239e-09
-9.64782e-09
-5.24168e-09
-7.28204e-09
-6.94131e-09
-5.06436e-09
-7.59077e-09
-3.50977e-09
-6.1953e-09
-3.42054e-09
-2.27172e-09
-6.2369e-09
4.1245e-09
-1.2192e-08
1.31254e-08
2.52371e-08
-1.80127e-08
-1.22965e-08
1.3896e-10
-1.25734e-08
4.05032e-10
-1.27543e-08
4.59121e-10
-1.29086e-08
4.6899e-10
-1.30512e-08
4.67342e-10
-1.31869e-08
4.61726e-10
-1.33176e-08
4.53892e-10
-1.34447e-08
4.44536e-10
-1.3569e-08
4.34028e-10
-1.3691e-08
4.22632e-10
-1.38113e-08
4.10555e-10
-1.39303e-08
3.97953e-10
-1.40481e-08
3.84932e-10
-1.4165e-08
3.71567e-10
-1.42811e-08
3.57904e-10
-1.43966e-08
3.43963e-10
-1.45117e-08
3.29741e-10
-1.46265e-08
3.1521e-10
-1.4741e-08
3.00327e-10
-1.48553e-08
2.85042e-10
-1.49696e-08
2.69278e-10
-1.50839e-08
2.52939e-10
-1.51982e-08
2.35916e-10
-1.53124e-08
2.18051e-10
-1.54267e-08
1.9913e-10
-1.55408e-08
1.78915e-10
-1.56545e-08
1.57102e-10
-1.57677e-08
1.33275e-10
-1.58798e-08
1.06909e-10
-1.59902e-08
7.72794e-11
-1.60977e-08
4.33313e-11
-1.62007e-08
3.56611e-12
-1.62967e-08
-4.39856e-11
-1.63827e-08
-1.01423e-10
-1.64542e-08
-1.70508e-10
-1.65023e-08
-2.54306e-10
-1.65056e-08
-3.66542e-10
-1.64186e-08
-5.52927e-10
-1.61666e-08
-9.15184e-10
-1.56632e-08
-1.60869e-09
-1.4858e-08
-2.78377e-09
-1.37917e-08
-4.46871e-09
-1.26107e-08
-6.42268e-09
-1.15265e-08
-8.02547e-09
-1.08174e-08
-8.2999e-09
-1.08681e-08
-6.14453e-09
-1.22462e-08
-8.9366e-10
-1.5315e-08
7.19337e-09
-1.92305e-08
1.7042e-08
2.71407e-08
-2.10838e-08
-1.3709e-08
3.31417e-10
-1.39818e-08
5.55652e-10
-1.41425e-08
5.96278e-10
-1.4274e-08
5.95904e-10
-1.43939e-08
5.86364e-10
-1.45071e-08
5.7473e-10
-1.46156e-08
5.62338e-10
-1.47205e-08
5.4952e-10
-1.48229e-08
5.36381e-10
-1.49233e-08
5.22993e-10
-1.50221e-08
5.09418e-10
-1.51199e-08
4.95703e-10
-1.52168e-08
4.81883e-10
-1.53132e-08
4.67976e-10
-1.54093e-08
4.53989e-10
-1.55053e-08
4.39913e-10
-1.56013e-08
4.25724e-10
-1.56974e-08
4.11382e-10
-1.57939e-08
3.96837e-10
-1.58909e-08
3.82023e-10
-1.59885e-08
3.66855e-10
-1.60868e-08
3.51227e-10
-1.61859e-08
3.35005e-10
-1.62858e-08
3.18011e-10
-1.63867e-08
3.00016e-10
-1.64885e-08
2.80738e-10
-1.65912e-08
2.59799e-10
-1.66947e-08
2.36696e-10
-1.67985e-08
2.10752e-10
-1.69022e-08
1.8102e-10
-1.7005e-08
1.46139e-10
-1.71057e-08
1.04177e-10
-1.72022e-08
5.2519e-11
-1.72915e-08
-1.20673e-11
-1.73681e-08
-9.38872e-11
-1.74204e-08
-2.02016e-10
-1.74256e-08
-3.61321e-10
-1.73481e-08
-6.30514e-10
-1.71498e-08
-1.11345e-09
-1.68202e-08
-1.9383e-09
-1.64128e-08
-3.19116e-09
-1.606e-08
-4.82149e-09
-1.59364e-08
-6.54631e-09
-1.61945e-08
-7.76731e-09
-1.69497e-08
-7.54479e-09
-1.82843e-08
-4.80984e-09
-2.021e-08
1.032e-09
-2.22981e-08
9.28149e-09
-2.36463e-08
1.83916e-08
2.60561e-08
-2.25105e-08
-1.51579e-08
4.81473e-10
-1.54156e-08
6.73311e-10
-1.5549e-08
7.0236e-10
-1.56524e-08
6.93918e-10
-1.57452e-08
6.78212e-10
-1.58325e-08
6.61781e-10
-1.59159e-08
6.45699e-10
-1.59964e-08
6.30075e-10
-1.60749e-08
6.1484e-10
-1.61518e-08
5.99926e-10
-1.62277e-08
5.85285e-10
-1.63029e-08
5.70878e-10
-1.63777e-08
5.56674e-10
-1.64523e-08
5.42644e-10
-1.65271e-08
5.28757e-10
-1.66022e-08
5.14977e-10
-1.66777e-08
5.0126e-10
-1.67539e-08
4.87554e-10
-1.68308e-08
4.73799e-10
-1.69087e-08
4.59921e-10
-1.69877e-08
4.45826e-10
-1.70679e-08
4.314e-10
-1.71494e-08
4.16499e-10
-1.72323e-08
4.00932e-10
-1.73167e-08
3.84456e-10
-1.74028e-08
3.66754e-10
-1.74904e-08
3.47399e-10
-1.75795e-08
3.25813e-10
-1.76699e-08
3.01202e-10
-1.77613e-08
2.72438e-10
-1.78531e-08
2.37904e-10
-1.79442e-08
1.9529e-10
-1.80331e-08
1.41391e-10
-1.8117e-08
7.1825e-11
-1.81906e-08
-2.02358e-11
-1.82441e-08
-1.48602e-10
-1.82614e-08
-3.43939e-10
-1.82265e-08
-6.65423e-10
-1.81401e-08
-1.19985e-09
-1.80479e-08
-2.03053e-09
-1.80615e-08
-3.17757e-09
-1.83461e-08
-4.53686e-09
-1.90601e-08
-5.83232e-09
-2.02754e-08
-6.55201e-09
-2.1928e-08
-5.89223e-09
-2.37791e-08
-2.95873e-09
-2.54083e-08
2.66125e-09
-2.61724e-08
1.00456e-08
-2.54448e-08
1.76655e-08
2.31262e-08
-2.24627e-08
-1.66361e-08
5.88868e-10
-1.68717e-08
7.54571e-10
-1.69734e-08
7.73981e-10
-1.70453e-08
7.59873e-10
-1.71083e-08
7.40078e-10
-1.71672e-08
7.20484e-10
-1.72235e-08
7.01979e-10
-1.7278e-08
6.84555e-10
-1.73312e-08
6.68049e-10
-1.73836e-08
6.52311e-10
-1.74355e-08
6.3722e-10
-1.74873e-08
6.22682e-10
-1.75393e-08
6.08617e-10
-1.75916e-08
5.94961e-10
-1.76445e-08
5.81652e-10
-1.76981e-08
5.68635e-10
-1.77527e-08
5.5585e-10
-1.78084e-08
5.43236e-10
-1.78653e-08
5.30724e-10
-1.79236e-08
5.18236e-10
-1.79835e-08
5.05676e-10
-1.8045e-08
4.92927e-10
-1.81084e-08
4.79839e-10
-1.81736e-08
4.66221e-10
-1.8241e-08
4.51818e-10
-1.83106e-08
4.36299e-10
-1.83824e-08
4.19208e-10
-1.84565e-08
3.99921e-10
-1.85328e-08
3.77569e-10
-1.86113e-08
3.50914e-10
-1.86916e-08
3.1817e-10
-1.87731e-08
2.76776e-10
-1.88548e-08
2.23106e-10
-1.89349e-08
1.51948e-10
-1.901e-08
5.4866e-11
-1.90745e-08
-8.41551e-11
-1.91222e-08
-2.96167e-10
-1.91551e-08
-6.3259e-10
-1.91991e-08
-1.15582e-09
-1.93246e-08
-1.90505e-09
-1.96532e-08
-2.84897e-09
-2.03339e-08
-3.85611e-09
-2.14812e-08
-4.68509e-09
-2.30929e-08
-4.94026e-09
-2.49768e-08
-4.00833e-09
-2.67143e-08
-1.22122e-09
-2.7673e-08
3.61994e-09
-2.73232e-08
9.6959e-09
-2.53085e-08
1.56524e-08
1.94267e-08
-2.1556e-08
-1.81299e-08
6.54854e-10
-1.83379e-08
7.98452e-10
-1.84056e-08
8.09857e-10
-1.84442e-08
7.92257e-10
-1.84757e-08
7.70384e-10
-1.85048e-08
7.4932e-10
-1.85326e-08
7.29792e-10
-1.85598e-08
7.11731e-10
-1.85867e-08
6.94933e-10
-1.86136e-08
6.79213e-10
-1.86408e-08
6.64412e-10
-1.86685e-08
6.50405e-10
-1.8697e-08
6.37086e-10
-1.87264e-08
6.24366e-10
-1.87569e-08
6.12168e-10
-1.87887e-08
6.00423e-10
-1.88219e-08
5.89064e-10
-1.88567e-08
5.78025e-10
-1.88932e-08
5.67236e-10
-1.89316e-08
5.56618e-10
-1.8972e-08
5.46079e-10
-1.90146e-08
5.35505e-10
-1.90595e-08
5.24754e-10
-1.91069e-08
5.13639e-10
-1.9157e-08
5.01915e-10
-1.92099e-08
4.89249e-10
-1.92659e-08
4.7519e-10
-1.93251e-08
4.59108e-10
-1.93877e-08
4.40121e-10
-1.94537e-08
4.16964e-10
-1.95233e-08
3.87814e-10
-1.95966e-08
3.50047e-10
-1.96734e-08
2.99918e-10
-1.97534e-08
2.31943e-10
-1.98358e-08
1.37273e-10
-1.99201e-08
9.30512e-14
-2.00089e-08
-2.07308e-10
-2.01162e-08
-5.25361e-10
-2.02781e-08
-9.93897e-10
-2.05629e-08
-1.6202e-09
-2.10676e-08
-2.34433e-09
-2.18928e-08
-3.03086e-09
-2.30964e-08
-3.48157e-09
-2.46268e-08
-3.40984e-09
-2.6248e-08
-2.38714e-09
-2.75044e-08
3.52464e-11
-2.77997e-08
3.91519e-09
-2.67333e-08
8.6296e-09
-2.42032e-08
1.31241e-08
1.578e-08
-2.05026e-08
-1.96303e-08
6.80752e-10
-1.98054e-08
8.04627e-10
-1.98373e-08
8.09528e-10
-1.98417e-08
7.90421e-10
-1.98409e-08
7.68343e-10
-1.98392e-08
7.4745e-10
-1.98378e-08
7.28305e-10
-1.98369e-08
7.10811e-10
-1.98367e-08
6.94763e-10
-1.98374e-08
6.79968e-10
-1.98393e-08
6.66261e-10
-1.98424e-08
6.53505e-10
-1.98469e-08
6.41587e-10
-1.98529e-08
6.30408e-10
-1.98607e-08
6.19888e-10
-1.98702e-08
6.09953e-10
-1.98817e-08
6.00536e-10
-1.98952e-08
5.91575e-10
-1.9911e-08
5.83003e-10
-1.99291e-08
5.74751e-10
-1.99498e-08
5.66735e-10
-1.99731e-08
5.58857e-10
-1.99994e-08
5.50989e-10
-2.00287e-08
5.42965e-10
-2.00613e-08
5.34563e-10
-2.00976e-08
5.25481e-10
-2.01377e-08
5.15299e-10
-2.0182e-08
5.03437e-10
-2.02309e-08
4.8907e-10
-2.0285e-08
4.71013e-10
-2.03447e-08
4.4755e-10
-2.04109e-08
4.16219e-10
-2.04845e-08
3.73508e-10
-2.05668e-08
3.14261e-10
-2.06598e-08
2.30296e-10
-2.07675e-08
1.07712e-10
-2.08987e-08
-7.60623e-11
-2.10732e-08
-3.5082e-10
-2.13268e-08
-7.4032e-10
-2.17112e-08
-1.23584e-09
-2.22836e-08
-1.77188e-09
-2.30871e-08
-2.22742e-09
-2.41237e-08
-2.44497e-09
-2.53155e-08
-2.21797e-09
-2.64455e-08
-1.25722e-09
-2.7127e-08
7.16805e-10
-2.6907e-08
3.69518e-09
-2.55235e-08
7.24613e-09
-2.30128e-08
1.06151e-08
1.25792e-08
-1.97573e-08
-2.11302e-08
6.6796e-10
-2.12667e-08
7.73223e-10
-2.12616e-08
7.73096e-10
-2.12314e-08
7.543e-10
-2.1198e-08
7.33725e-10
-2.11653e-08
7.14527e-10
-2.11341e-08
6.97106e-10
-2.11047e-08
6.81359e-10
-2.1077e-08
6.67099e-10
-2.10512e-08
6.54149e-10
-2.10273e-08
6.42356e-10
-2.10054e-08
6.31592e-10
-2.09855e-08
6.21747e-10
-2.09678e-08
6.12731e-10
-2.09524e-08
6.04468e-10
-2.09394e-08
5.9689e-10
-2.09288e-08
5.8994e-10
-2.09207e-08
5.83565e-10
-2.09155e-08
5.77711e-10
-2.0913e-08
5.72324e-10
-2.09136e-08
5.67339e-10
-2.09175e-08
5.6268e-10
-2.09247e-08
5.58248e-10
-2.09357e-08
5.53913e-10
-2.09506e-08
5.49493e-10
-2.09699e-08
5.44743e-10
-2.09939e-08
5.39316e-10
-2.10232e-08
5.32728e-10
-2.10584e-08
5.24295e-10
-2.11004e-08
5.13012e-10
-2.11503e-08
4.97418e-10
-2.12095e-08
4.7543e-10
-2.12801e-08
4.44095e-10
-2.13649e-08
3.99101e-10
-2.14683e-08
3.3372e-10
-2.15975e-08
2.36933e-10
-2.17653e-08
9.17025e-11
-2.19929e-08
-1.2326e-10
-2.23101e-08
-4.23101e-10
-2.27487e-08
-7.97174e-10
-2.33287e-08
-1.19197e-09
-2.40436e-08
-1.51247e-09
-2.4853e-08
-1.63557e-09
-2.5667e-08
-1.404e-09
-2.63097e-08
-6.14469e-10
-2.65001e-08
9.07145e-10
-2.59429e-08
3.13804e-09
-2.44875e-08
5.79074e-09
-2.21999e-08
8.32927e-09
9.83246e-09
-1.93976e-08
-2.26237e-08
6.17842e-10
-2.27154e-08
7.04591e-10
-2.26721e-08
7.01029e-10
-2.26075e-08
6.84239e-10
-2.25416e-08
6.66702e-10
-2.24778e-08
6.50582e-10
-2.24169e-08
6.36124e-10
-2.23587e-08
6.23232e-10
-2.23034e-08
6.11749e-10
-2.22508e-08
6.01533e-10
-2.22009e-08
5.92455e-10
-2.21537e-08
5.84407e-10
-2.21092e-08
5.77301e-10
-2.20676e-08
5.71061e-10
-2.20287e-08
5.65626e-10
-2.19928e-08
5.60946e-10
-2.19598e-08
5.56977e-10
-2.19299e-08
5.53684e-10
-2.19033e-08
5.51034e-10
-2.18799e-08
5.48994e-10
-2.18601e-08
5.47526e-10
-2.1844e-08
5.46587e-10
-2.18319e-08
5.46115e-10
-2.1824e-08
5.46027e-10
-2.18207e-08
5.46205e-10
-2.18225e-08
5.4648e-10
-2.18297e-08
5.46604e-10
-2.18433e-08
5.4624e-10
-2.18639e-08
5.44922e-10
-2.18928e-08
5.41906e-10
-2.19314e-08
5.36089e-10
-2.1982e-08
5.25936e-10
-2.20472e-08
5.09295e-10
-2.21311e-08
4.8305e-10
-2.22398e-08
4.42377e-10
-2.23823e-08
3.79481e-10
-2.2573e-08
2.82403e-10
-2.28322e-08
1.35899e-10
-2.31828e-08
-7.24297e-11
-2.36403e-08
-3.39708e-10
-2.41976e-08
-6.34714e-10
-2.48165e-08
-8.93541e-10
-2.54303e-08
-1.02179e-09
-2.59445e-08
-8.8974e-10
-2.62209e-08
-3.38094e-10
-2.60705e-08
7.56743e-10
-2.53135e-08
2.38106e-09
-2.38641e-08
4.3413e-09
-2.17734e-08
6.24016e-09
7.38661e-09
-1.92712e-08
-2.41054e-08
5.31673e-10
-2.41453e-08
5.99184e-10
-2.40632e-08
5.94041e-10
-2.39645e-08
5.80864e-10