/*--------------------------------*- C++ -*----------------------------------*\
  =========                 |
  \\      /  F ield         | OpenFOAM: The Open Source CFD Toolbox
   \\    /   O peration     | Website:  https://openfoam.org
    \\  /    A nd           | Version:  13
     \\/     M anipulation  |
\*---------------------------------------------------------------------------*/
FoamFile
{
    format      ascii;
    class       pointScalarField;
    location    "0.0002";
    object      pointMotionUx;
}
// * * * * * * * * * * * * * * * * * * * * * * * * * * * * * * * * * * * * * //

dimensions      [0 1 -1 0 0 0 0];

internalField   nonuniform List<scalar> 
3608
(
0
0.120074
0.240147
0.360214
0.480259
0.600228
0.720068
0.84266
1
0
0.120074
0.240147
0.360214
0.480259
0.600228
0.720068
0.842651
1
0
0.120074
0.240147
0.360214
0.480259
0.600229
0.72007
0.842622
1
0
0.120074
0.240147
0.360214
0.48026
0.600231
0.720073
0.842572
1
0
0.120074
0.240147
0.360214
0.48026
0.600233
0.720078
0.842501
1
0
0.120074
0.240147
0.360214
0.480261
0.600236
0.720084
0.84241
1
0
0.120074
0.240147
0.360215
0.480262
0.600239
0.720092
0.842298
1
0
0.120074
0.240147
0.360215
0.480262
0.600243
0.720102
0.842165
1
0
0.120074
0.240148
0.360215
0.480263
0.600247
0.720114
0.842011
1
0
0.120074
0.240148
0.360215
0.480264
0.600251
0.720128
0.841836
1
0
0.120074
0.240148
0.360216
0.480266
0.600257
0.720144
0.841639
1
0
0.120075
0.240148
0.360216
0.480267
0.600262
0.720163
0.841422
1
0
0.120075
0.240148
0.360216
0.480268
0.600268
0.720186
0.841182
1
0
0.120075
0.240148
0.360217
0.48027
0.600274
0.720212
0.840921
1
0
0.120075
0.240148
0.360217
0.480271
0.600279
0.720235
0.840626
1
0
0.120075
0.240148
0.360218
0.480274
0.600292
0.720288
0.841384
1
0
0.120074
0.240147
0.360214
0.480259
0.600228
0.720068
0.842651
1
0
0.120074
0.240147
0.360214
0.480259
0.600229
0.72007
0.842622
1
0
0.120074
0.240147
0.360214
0.48026
0.600231
0.720073
0.842572
1
0
0.120074
0.240147
0.360214
0.48026
0.600233
0.720078
0.842501
1
0
0.120074
0.240147
0.360214
0.480261
0.600236
0.720084
0.84241
1
0
0.120074
0.240147
0.360215
0.480262
0.600239
0.720092
0.842298
1
0
0.120074
0.240147
0.360215
0.480262
0.600243
0.720102
0.842165
1
0
0.120074
0.240148
0.360215
0.480263
0.600247
0.720114
0.842011
1
0
0.120074
0.240148
0.360215
0.480264
0.600251
0.720128
0.841836
1
0
0.120074
0.240148
0.360216
0.480266
0.600257
0.720144
0.841639
1
0
0.120075
0.240148
0.360216
0.480267
0.600262
0.720163
0.841422
1
0
0.120075
0.240148
0.360216
0.480268
0.600268
0.720186
0.841182
1
0
0.120075
0.240148
0.360217
0.48027
0.600274
0.720212
0.840921
1
0
0.120075
0.240148
0.360217
0.480271
0.600279
0.720235
0.840626
1
0
0.120075
0.240148
0.360218
0.480274
0.600292
0.720288
0.841384
1
1
0.963282
0.92704
0.889849
0.851345
0.811421
0.770016
0.727073
0.682535
0.636344
0.588438
0.538753
0.487223
0.433778
0.378349
0.320861
0.261238
0.1994
0.135265
0.0687484
0
1
0.963283
0.927044
0.889855
0.851351
0.811428
0.770022
0.72708
0.682543
0.636352
0.588446
0.538761
0.487231
0.433788
0.378359
0.320871
0.261248
0.19941
0.135275
0.0687591
0
1
0.963281
0.927052
0.889866
0.851363
0.81144
0.770036
0.727094
0.682558
0.636368
0.588462
0.538778
0.487249
0.433805
0.378377
0.32089
0.261268
0.19943
0.135296
0.0687798
0
1
0.963272
0.927058
0.889877
0.851376
0.811453
0.77005
0.727108
0.682573
0.636383
0.588478
0.538795
0.487266
0.433823
0.378395
0.320909
0.261287
0.19945
0.135316
0.0687997
0
1
0.963257
0.927064
0.889888
0.851388
0.811467
0.770064
0.727123
0.682588
0.636399
0.588495
0.538811
0.487283
0.433841
0.378413
0.320927
0.261305
0.199468
0.135334
0.0688185
0
1
0.963238
0.927069
0.889899
0.851401
0.81148
0.770078
0.727137
0.682603
0.636414
0.58851
0.538827
0.487299
0.433857
0.37843
0.320944
0.261322
0.199486
0.135352
0.0688362
0
1
0.963216
0.927073
0.889911
0.851414
0.811494
0.770091
0.727152
0.682617
0.636429
0.588526
0.538843
0.487315
0.433873
0.378446
0.32096
0.261339
0.199502
0.135369
0.0688526
0
1
0.96319
0.927077
0.889922
0.851427
0.811507
0.770105
0.727166
0.682631
0.636444
0.58854
0.538858
0.48733
0.433889
0.378462
0.320976
0.261354
0.199518
0.135384
0.0688678
0
1
0.963162
0.927081
0.889933
0.851439
0.81152
0.770118
0.727179
0.682645
0.636457
0.588554
0.538872
0.487345
0.433903
0.378476
0.32099
0.261369
0.199532
0.135398
0.0688818
0
1
0.963132
0.927085
0.889944
0.851452
0.811532
0.770131
0.727192
0.682658
0.636471
0.588568
0.538885
0.487358
0.433916
0.378489
0.321003
0.261382
0.199545
0.135411
0.0688945
0
1
0.963101
0.927089
0.889955
0.851463
0.811544
0.770143
0.727204
0.68267
0.636483
0.58858
0.538898
0.48737
0.433929
0.378502
0.321016
0.261394
0.199557
0.135423
0.068906
0
1
0.963069
0.927092
0.889965
0.851474
0.811556
0.770155
0.727216
0.682682
0.636494
0.588591
0.538909
0.487382
0.43394
0.378513
0.321027
0.261405
0.199568
0.135434
0.0689164
0
1
0.963036
0.927096
0.889975
0.851485
0.811566
0.770165
0.727226
0.682693
0.636505
0.588602
0.53892
0.487392
0.43395
0.378523
0.321037
0.261415
0.199578
0.135443
0.0689257
0
1
0.963002
0.927099
0.889984
0.851495
0.811576
0.770175
0.727236
0.682703
0.636515
0.588612
0.538929
0.487402
0.43396
0.378532
0.321046
0.261424
0.199586
0.135452
0.068934
0
1
0.962968
0.927102
0.889992
0.851504
0.811586
0.770184
0.727245
0.682712
0.636524
0.588621
0.538938
0.48741
0.433968
0.378541
0.321054
0.261432
0.199594
0.135459
0.0689414
0
1
0.962934
0.927105
0.89
0.851512
0.811594
0.770193
0.727254
0.68272
0.636532
0.588629
0.538946
0.487418
0.433976
0.378548
0.321061
0.261439
0.199601
0.135466
0.0689479
0
1
0.962899
0.927107
0.890007
0.85152
0.811602
0.7702
0.727261
0.682727
0.636539
0.588636
0.538953
0.487425
0.433982
0.378555
0.321068
0.261445
0.199607
0.135472
0.0689537
0
1
0.962865
0.927109
0.890014
0.851527
0.811609
0.770207
0.727268
0.682734
0.636546
0.588642
0.538959
0.487431
0.433988
0.37856
0.321073
0.261451
0.199613
0.135477
0.0689588
0
1
0.962832
0.927111
0.89002
0.851533
0.811615
0.770213
0.727274
0.68274
0.636552
0.588648
0.538965
0.487436
0.433994
0.378566
0.321078
0.261456
0.199618
0.135482
0.0689633
0
1
0.962799
0.927113
0.890025
0.851539
0.811621
0.770219
0.72728
0.682745
0.636557
0.588653
0.53897
0.487441
0.433998
0.37857
0.321083
0.26146
0.199622
0.135486
0.0689673
0
1
0.962747
0.927121
0.890037
0.851551
0.811632
0.77023
0.72729
0.682756
0.636567
0.588663
0.538979
0.487451
0.434007
0.378579
0.321091
0.261468
0.19963
0.135494
0.0689747
0
1
0.963283
0.927044
0.889855
0.851351
0.811428
0.770022
0.72708
0.682543
0.636352
0.588446
0.538761
0.487231
0.433788
0.378359
0.320871
0.261248
0.19941
0.135275
0.0687591
0
1
0.963281
0.927052
0.889866
0.851363
0.81144
0.770036
0.727094
0.682558
0.636368
0.588462
0.538778
0.487249
0.433805
0.378377
0.32089
0.261268
0.19943
0.135296
0.0687798
0
1
0.963272
0.927058
0.889877
0.851376
0.811453
0.77005
0.727108
0.682573
0.636383
0.588478
0.538795
0.487266
0.433823
0.378395
0.320909
0.261287
0.19945
0.135316
0.0687997
0
1
0.963257
0.927064
0.889888
0.851388
0.811467
0.770064
0.727123
0.682588
0.636399
0.588495
0.538811
0.487283
0.433841
0.378413
0.320927
0.261305
0.199468
0.135334
0.0688185
0
1
0.963238
0.927069
0.889899
0.851401
0.81148
0.770078
0.727137
0.682603
0.636414
0.58851
0.538827
0.487299
0.433857
0.37843
0.320944
0.261322
0.199486
0.135352
0.0688362
0
1
0.963216
0.927073
0.889911
0.851414
0.811494
0.770091
0.727152
0.682617
0.636429
0.588526
0.538843
0.487315
0.433873
0.378446
0.32096
0.261339
0.199502
0.135369
0.0688526
0
1
0.96319
0.927077
0.889922
0.851427
0.811507
0.770105
0.727166
0.682631
0.636444
0.58854
0.538858
0.48733
0.433889
0.378462
0.320976
0.261354
0.199518
0.135384
0.0688678
0
1
0.963162
0.927081
0.889933
0.851439
0.81152
0.770118
0.727179
0.682645
0.636457
0.588554
0.538872
0.487345
0.433903
0.378476
0.32099
0.261369
0.199532
0.135398
0.0688818
0
1
0.963132
0.927085
0.889944
0.851452
0.811532
0.770131
0.727192
0.682658
0.636471
0.588568
0.538885
0.487358
0.433916
0.378489
0.321003
0.261382
0.199545
0.135411
0.0688945
0
1
0.963101
0.927089
0.889955
0.851463
0.811544
0.770143
0.727204
0.68267
0.636483
0.58858
0.538898
0.48737
0.433929
0.378502
0.321016
0.261394
0.199557
0.135423
0.068906
0
1
0.963069
0.927092
0.889965
0.851474
0.811556
0.770155
0.727216
0.682682
0.636494
0.588591
0.538909
0.487382
0.43394
0.378513
0.321027
0.261405
0.199568
0.135434
0.0689164
0
1
0.963036
0.927096
0.889975
0.851485
0.811566
0.770165
0.727226
0.682693
0.636505
0.588602
0.53892
0.487392
0.43395
0.378523
0.321037
0.261415
0.199578
0.135443
0.0689257
0
1
0.963002
0.927099
0.889984
0.851495
0.811576
0.770175
0.727236
0.682703
0.636515
0.588612
0.538929
0.487402
0.43396
0.378532
0.321046
0.261424
0.199586
0.135452
0.068934
0
1
0.962968
0.927102
0.889992
0.851504
0.811586
0.770184
0.727245
0.682712
0.636524
0.588621
0.538938
0.48741
0.433968
0.378541
0.321054
0.261432
0.199594
0.135459
0.0689414
0
1
0.962934
0.927105
0.89
0.851512
0.811594
0.770193
0.727254
0.68272
0.636532
0.588629
0.538946
0.487418
0.433976
0.378548
0.321061
0.261439
0.199601
0.135466
0.0689479
0
1
0.962899
0.927107
0.890007
0.85152
0.811602
0.7702
0.727261
0.682727
0.636539
0.588636
0.538953
0.487425
0.433982
0.378555
0.321068
0.261445
0.199607
0.135472
0.0689537
0
1
0.962865
0.927109
0.890014
0.851527
0.811609
0.770207
0.727268
0.682734
0.636546
0.588642
0.538959
0.487431
0.433988
0.37856
0.321073
0.261451
0.199613
0.135477
0.0689588
0
1
0.962832
0.927111
0.89002
0.851533
0.811615
0.770213
0.727274
0.68274
0.636552
0.588648
0.538965
0.487436
0.433994
0.378566
0.321078
0.261456
0.199618
0.135482
0.0689633
0
1
0.962799
0.927113
0.890025
0.851539
0.811621
0.770219
0.72728
0.682745
0.636557
0.588653
0.53897
0.487441
0.433998
0.37857
0.321083
0.26146
0.199622
0.135486
0.0689673
0
1
0.962747
0.927121
0.890037
0.851551
0.811632
0.77023
0.72729
0.682756
0.636567
0.588663
0.538979
0.487451
0.434007
0.378579
0.321091
0.261468
0.19963
0.135494
0.0689747
0
0
0.120075
0.240148
0.360219
0.480279
0.600313
0.720363
0.841726
0.948392
0
0.120075
0.240149
0.36022
0.480283
0.600326
0.720384
0.84116
0.944953
0
0.120075
0.240149
0.360221
0.480286
0.600338
0.720398
0.840296
0.942196
0
0.120075
0.240149
0.360222
0.48029
0.600351
0.720407
0.839655
0.940218
0
0.120075
0.240149
0.360223
0.480294
0.600362
0.720414
0.839219
0.938907
0
0.120075
0.24015
0.360224
0.480297
0.600372
0.720422
0.838971
0.938184
0
0.120075
0.24015
0.360225
0.4803
0.60038
0.720432
0.838899
0.93799
0
0.120075
0.24015
0.360225
0.480303
0.600388
0.720447
0.838988
0.938285
0
0.120075
0.24015
0.360226
0.480305
0.600394
0.720464
0.839227
0.939037
0
0.120075
0.24015
0.360227
0.480307
0.600399
0.720482
0.839603
0.940227
0
0.120075
0.240151
0.360227
0.480309
0.600402
0.7205
0.840103
0.94184
0
0.120075
0.240151
0.360228
0.48031
0.600405
0.720514
0.840713
0.943871
0
0.120075
0.240151
0.360228
0.480311
0.600407
0.720524
0.841421
0.946321
0
0.120075
0.240151
0.360228
0.480312
0.600408
0.720521
0.841612
0.948991
0
0.120075
0.240151
0.360228
0.480312
0.600407
0.72052
0.842184
1
0
0.120075
0.240148
0.360219
0.480279
0.600313
0.720363
0.841726
0.948392
0
0.120075
0.240149
0.36022
0.480283
0.600326
0.720384
0.84116
0.944953
0
0.120075
0.240149
0.360221
0.480286
0.600338
0.720398
0.840296
0.942196
0
0.120075
0.240149
0.360222
0.48029
0.600351
0.720407
0.839655
0.940218
0
0.120075
0.240149
0.360223
0.480294
0.600362
0.720414
0.839219
0.938907
0
0.120075
0.24015
0.360224
0.480297
0.600372
0.720422
0.838971
0.938184
0
0.120075
0.24015
0.360225
0.4803
0.60038
0.720432
0.838899
0.93799
0
0.120075
0.24015
0.360225
0.480303
0.600388
0.720447
0.838988
0.938285
0
0.120075
0.24015
0.360226
0.480305
0.600394
0.720464
0.839227
0.939037
0
0.120075
0.24015
0.360227
0.480307
0.600399
0.720482
0.839603
0.940227
0
0.120075
0.240151
0.360227
0.480309
0.600402
0.7205
0.840103
0.94184
0
0.120075
0.240151
0.360228
0.48031
0.600405
0.720514
0.840713
0.943871
0
0.120075
0.240151
0.360228
0.480311
0.600407
0.720524
0.841421
0.946321
0
0.120075
0.240151
0.360228
0.480312
0.600408
0.720521
0.841612
0.948991
0
0.120075
0.240151
0.360228
0.480312
0.600407
0.72052
0.842184
1
1
1
1
1
1
1
1
1
1
1
1
1
1
1
1
1
1
1
1
1
1
1
1
1
1
1
1
1
1
1
1
1
1
1
1
1
1
1
1
1
1
1
1
1
1
1
1
1
1
0.995217
0.999244
0.999857
0.999973
0.999995
0.999999
1
1
1
1
1
1
1
1
1
1
1
1
1
1
1
1
1
1
1
1
1
1
1
1
1
1
1
1
1
1
1
1
1
1
1
1
1
1
1
1
1
0.999998
0.999935
0.991958
0.99246
0.998668
0.999745
0.999951
0.999991
0.999998
1
1
1
1
1
1
1
1
1
1
1
1
1
1
1
1
1
1
1
1
1
1
1
1
1
1
1
1
1
1
1
1
1
1
1
1
1
1
1
1
1
0.999997
0.999878
0.991858
0.990392
0.998215
0.999655
0.999934
0.999988
0.999998
1
1
1
1
1
1
1
1
1
1
1
1
1
1
1
1
1
1
1
1
1
1
1
1
1
1
1
1
1
1
1
1
1
1
1
1
1
1
1
1
1
0.999995
0.99983
0.991801
0.988916
0.997879
0.999587
0.999921
0.999985
0.999997
1
1
1
1
1
1
1
1
1
1
1
1
1
1
1
1
1
1
1
1
1
1
1
1
1
1
1
1
1
1
1
1
1
1
1
1
1
1
1
1
1
0.999994
0.999793
0.991755
0.987955
0.997656
0.999542
0.999912
0.999983
0.999997
0.999999
1
1
1
1
1
1
1
1
1
1
1
1
1
1
1
1
1
1
1
1
1
1
1
1
1
1
1
1
1
1
1
1
1
1
1
1
1
1
1
1
0.999993
0.999766
0.991721
0.987452
0.997539
0.999518
0.999907
0.999983
0.999997
0.999999
1
1
1
1
1
1
1
1
1
1
1
1
1
1
1
1
1
1
1
1
1
1
1
1
1
1
1
1
1
1
1
1
1
1
1
1
1
1
1
1
0.999993
0.999748
0.991699
0.987365
0.997522
0.999515
0.999907
0.999982
0.999997
0.999999
1
1
1
1
1
1
1
1
1
1
1
1
1
1
1
1
1
1
1
1
1
1
1
1
1
1
1
1
1
1
1
1
1
1
1
1
1
1
1
1
0.999993
0.999739
0.991687
0.987663
0.9976
0.999531
0.99991
0.999983
0.999997
0.999999
1
1
1
1
1
1
1
1
1
1
1
1
1
1
1
1
1
1
1
1
1
1
1
1
1
1
1
1
1
1
1
1
1
1
1
1
1
1
1
1
0.999993
0.99974
0.991687
0.988322
0.997763
0.999565
0.999917
0.999984
0.999997
0.999999
1
1
1
1
1
1
1
1
1
1
1
1
1
1
1
1
1
1
1
1
1
1
1
1
1
1
1
1
1
1
1
1
1
1
1
1
1
1
1
1
0.999993
0.99975
0.991698
0.989327
0.998005
0.999615
0.999926
0.999986
0.999997
1
1
1
1
1
1
1
1
1
1
1
1
1
1
1
1
1
1
1
1
1
1
1
1
1
1
1
1
1
1
1
1
1
1
1
1
1
1
1
1
1
0.999994
0.99977
0.991719
0.990665
0.998315
0.999678
0.999938
0.999988
0.999998
1
1
1
1
1
1
1
1
1
1
1
1
1
1
1
1
1
1
1
1
1
1
1
1
1
1
1
1
1
1
1
1
1
1
1
1
1
1
1
1
1
0.999994
0.999798
0.991751
0.992329
0.998684
0.999752
0.999953
0.999991
0.999998
1
1
1
1
1
1
1
1
1
1
1
1
1
1
1
1
1
1
1
1
1
1
1
1
1
1
1
1
1
1
1
1
1
1
1
1
1
1
1
1
1
0.999996
0.999835
0.991794
0.994313
0.999098
0.999832
0.999968
0.999994
0.999999
1
1
1
1
1
1
1
1
1
1
1
1
1
1
1
1
1
1
1
1
1
1
1
1
1
1
1
1
1
1
1
1
1
1
1
1
1
1
1
1
1
0.999997
0.999881
0.991847
0.996595
0.999543
0.999916
0.999984
0.999997
0.999999
1
1
1
1
1
1
1
1
1
1
1
1
1
1
1
1
1
1
1
1
1
1
1
1
1
1
1
1
1
1
1
1
1
1
1
1
1
1
1
1
1
0.999998
0.999936
0.991946
1
1
1
1
1
1
1
1
1
1
1
1
1
1
1
1
1
1
1
1
1
1
1
1
1
1
1
1
1
1
1
1
1
1
1
1
1
1
1
1
1
1
1
1
1
1
1
1
1
1
1
1
1
1
1
1
1
1
1
1
1
1
1
1
1
1
1
1
1
1
1
1
1
1
1
1
1
1
1
1
1
1
1
1
1
1
1
1
1
1
1
1
1
1
1
1
1
1
1
0.995217
0.999244
0.999857
0.999973
0.999995
0.999999
1
1
1
1
1
1
1
1
1
1
1
1
1
1
1
1
1
1
1
1
1
1
1
1
1
1
1
1
1
1
1
1
1
1
1
1
1
1
1
1
1
0.999998
0.999935
0.991958
0.99246
0.998668
0.999745
0.999951
0.999991
0.999998
1
1
1
1
1
1
1
1
1
1
1
1
1
1
1
1
1
1
1
1
1
1
1
1
1
1
1
1
1
1
1
1
1
1
1
1
1
1
1
1
1
0.999997
0.999878
0.991858
0.990392
0.998215
0.999655
0.999934
0.999988
0.999998
1
1
1
1
1
1
1
1
1
1
1
1
1
1
1
1
1
1
1
1
1
1
1
1
1
1
1
1
1
1
1
1
1
1
1
1
1
1
1
1
1
0.999995
0.99983
0.991801
0.988916
0.997879
0.999587
0.999921
0.999985
0.999997
1
1
1
1
1
1
1
1
1
1
1
1
1
1
1
1
1
1
1
1
1
1
1
1
1
1
1
1
1
1
1
1
1
1
1
1
1
1
1
1
1
0.999994
0.999793
0.991755
0.987955
0.997656
0.999542
0.999912
0.999983
0.999997
0.999999
1
1
1
1
1
1
1
1
1
1
1
1
1
1
1
1
1
1
1
1
1
1
1
1
1
1
1
1
1
1
1
1
1
1
1
1
1
1
1
1
0.999993
0.999766
0.991721
0.987452
0.997539
0.999518
0.999907
0.999983
0.999997
0.999999
1
1
1
1
1
1
1
1
1
1
1
1
1
1
1
1
1
1
1
1
1
1
1
1
1
1
1
1
1
1
1
1
1
1
1
1
1
1
1
1
0.999993
0.999748
0.991699
0.987365
0.997522
0.999515
0.999907
0.999982
0.999997
0.999999
1
1
1
1
1
1
1
1
1
1
1
1
1
1
1
1
1
1
1
1
1
1
1
1
1
1
1
1
1
1
1
1
1
1
1
1
1
1
1
1
0.999993
0.999739
0.991687
0.987663
0.9976
0.999531
0.99991
0.999983
0.999997
0.999999
1
1
1
1
1
1
1
1
1
1
1
1
1
1
1
1
1
1
1
1
1
1
1
1
1
1
1
1
1
1
1
1
1
1
1
1
1
1
1
1
0.999993
0.99974
0.991687
0.988322
0.997763
0.999565
0.999917
0.999984
0.999997
0.999999
1
1
1
1
1
1
1
1
1
1
1
1
1
1
1
1
1
1
1
1
1
1
1
1
1
1
1
1
1
1
1
1
1
1
1
1
1
1
1
1
0.999993
0.99975
0.991698
0.989327
0.998005
0.999615
0.999926
0.999986
0.999997
1
1
1
1
1
1
1
1
1
1
1
1
1
1
1
1
1
1
1
1
1
1
1
1
1
1
1
1
1
1
1
1
1
1
1
1
1
1
1
1
1
0.999994
0.99977
0.991719
0.990665
0.998315
0.999678
0.999938
0.999988
0.999998
1
1
1
1
1
1
1
1
1
1
1
1
1
1
1
1
1
1
1
1
1
1
1
1
1
1
1
1
1
1
1
1
1
1
1
1
1
1
1
1
1
0.999994
0.999798
0.991751
0.992329
0.998684
0.999752
0.999953
0.999991
0.999998
1
1
1
1
1
1
1
1
1
1
1
1
1
1
1
1
1
1
1
1
1
1
1
1
1
1
1
1
1
1
1
1
1
1
1
1
1
1
1
1
1
0.999996
0.999835
0.991794
0.994313
0.999098
0.999832
0.999968
0.999994
0.999999
1
1
1
1
1
1
1
1
1
1
1
1
1
1
1
1
1
1
1
1
1
1
1
1
1
1
1
1
1
1
1
1
1
1
1
1
1
1
1
1
1
0.999997
0.999881
0.991847
0.996595
0.999543
0.999916
0.999984
0.999997
0.999999
1
1
1
1
1
1
1
1
1
1
1
1
1
1
1
1
1
1
1
1
1
1
1
1
1
1
1
1
1
1
1
1
1
1
1
1
1
1
1
1
1
0.999998
0.999936
0.991946
1
1
1
1
1
1
1
1
1
1
1
1
1
1
1
1
1
1
1
1
1
1
1
1
1
1
1
1
1
1
1
1
1
1
1
1
1
1
1
1
1
1
1
1
1
1
1
1
1
1
0.962674
0.927127
0.890045
0.851559
0.81164
0.770238
0.727298
0.682763
0.636574
0.58867
0.538987
0.487457
0.434014
0.378586
0.321098
0.261474
0.199636
0.1355
0.0689803
0
0.962619
0.927125
0.890045
0.851559
0.81164
0.770238
0.727298
0.682763
0.636575
0.58867
0.538987
0.487458
0.434014
0.378586
0.321098
0.261475
0.199636
0.1355
0.0689803
0
0.962593
0.927122
0.890045
0.851559
0.81164
0.770238
0.727298
0.682763
0.636575
0.58867
0.538987
0.487458
0.434014
0.378586
0.321098
0.261475
0.199636
0.1355
0.0689803
0
0.962571
0.92712
0.890045
0.851559
0.81164
0.770238
0.727298
0.682763
0.636575
0.58867
0.538987
0.487458
0.434014
0.378586
0.321098
0.261475
0.199636
0.1355
0.0689803
0
0.962551
0.927118
0.890045
0.851559
0.81164
0.770238
0.727298
0.682763
0.636575
0.58867
0.538987
0.487458
0.434014
0.378586
0.321098
0.261475
0.199636
0.1355
0.0689803
0
0.962533
0.927117
0.890044
0.851559
0.81164
0.770238
0.727298
0.682763
0.636575
0.58867
0.538987
0.487458
0.434014
0.378586
0.321098
0.261475
0.199636
0.1355
0.0689803
0
0.962518
0.927115
0.890044
0.851559
0.81164
0.770238
0.727298
0.682763
0.636575
0.58867
0.538987
0.487458
0.434014
0.378586
0.321098
0.261475
0.199636
0.1355
0.0689803
0
0.962505
0.927114
0.890044
0.851559
0.81164
0.770238
0.727298
0.682763
0.636575
0.58867
0.538987
0.487458
0.434014
0.378586
0.321098
0.261475
0.199636
0.1355
0.0689803
0
0.962495
0.927113
0.890044
0.851559
0.81164
0.770238
0.727298
0.682763
0.636575
0.58867
0.538987
0.487458
0.434014
0.378586
0.321098
0.261475
0.199636
0.1355
0.0689803
0
0.962486
0.927112
0.890044
0.851559
0.81164
0.770238
0.727298
0.682763
0.636575
0.58867
0.538987
0.487458
0.434014
0.378586
0.321098
0.261475
0.199636
0.1355
0.0689803
0
0.96248
0.927111
0.890044
0.851559
0.81164
0.770238
0.727298
0.682763
0.636575
0.58867
0.538987
0.487458
0.434014
0.378586
0.321098
0.261475
0.199636
0.1355
0.0689803
0
0.962477
0.92711
0.890044
0.851559
0.81164
0.770238
0.727298
0.682763
0.636575
0.58867
0.538987
0.487458
0.434014
0.378586
0.321098
0.261475
0.199636
0.1355
0.0689803
0
0.962475
0.92711
0.890044
0.851559
0.81164
0.770238
0.727298
0.682763
0.636575
0.58867
0.538987
0.487458
0.434014
0.378586
0.321098
0.261474
0.199636
0.1355
0.0689803
0
0.962502
0.927109
0.890043
0.851558
0.811639
0.770237
0.727297
0.682762
0.636573
0.588669
0.538985
0.487456
0.434013
0.378584
0.321096
0.261473
0.199634
0.135498
0.0689791
0
0.962463
0.927035
0.889965
0.851477
0.811555
0.77015
0.727207
0.682669
0.636477
0.58857
0.538884
0.487352
0.433907
0.378476
0.320986
0.261361
0.19952
0.135383
0.0688626
0
0.962674
0.927127
0.890045
0.851559
0.81164
0.770238
0.727298
0.682763
0.636574
0.58867
0.538987
0.487457
0.434014
0.378586
0.321098
0.261474
0.199636
0.1355
0.0689803
0
0.962619
0.927125
0.890045
0.851559
0.81164
0.770238
0.727298
0.682763
0.636575
0.58867
0.538987
0.487458
0.434014
0.378586
0.321098
0.261475
0.199636
0.1355
0.0689803
0
0.962593
0.927122
0.890045
0.851559
0.81164
0.770238
0.727298
0.682763
0.636575
0.58867
0.538987
0.487458
0.434014
0.378586
0.321098
0.261475
0.199636
0.1355
0.0689803
0
0.962571
0.92712
0.890045
0.851559
0.81164
0.770238
0.727298
0.682763
0.636575
0.58867
0.538987
0.487458
0.434014
0.378586
0.321098
0.261475
0.199636
0.1355
0.0689803
0
0.962551
0.927118
0.890045
0.851559
0.81164
0.770238
0.727298
0.682763
0.636575
0.58867
0.538987
0.487458
0.434014
0.378586
0.321098
0.261475
0.199636
0.1355
0.0689803
0
0.962533
0.927117
0.890044
0.851559
0.81164
0.770238
0.727298
0.682763
0.636575
0.58867
0.538987
0.487458
0.434014
0.378586
0.321098
0.261475
0.199636
0.1355
0.0689803
0
0.962518
0.927115
0.890044
0.851559
0.81164
0.770238
0.727298
0.682763
0.636575
0.58867
0.538987
0.487458
0.434014
0.378586
0.321098
0.261475
0.199636
0.1355
0.0689803
0
0.962505
0.927114
0.890044
0.851559
0.81164
0.770238
0.727298
0.682763
0.636575
0.58867
0.538987
0.487458
0.434014
0.378586
0.321098
0.261475
0.199636
0.1355
0.0689803
0
0.962495
0.927113
0.890044
0.851559
0.81164
0.770238
0.727298
0.682763
0.636575
0.58867
0.538987
0.487458
0.434014
0.378586
0.321098
0.261475
0.199636
0.1355
0.0689803
0
0.962486
0.927112
0.890044
0.851559
0.81164
0.770238
0.727298
0.682763
0.636575
0.58867
0.538987
0.487458
0.434014
0.378586
0.321098
0.261475
0.199636
0.1355
0.0689803
0
0.96248
0.927111
0.890044
0.851559
0.81164
0.770238
0.727298
0.682763
0.636575
0.58867
0.538987
0.487458
0.434014
0.378586
0.321098
0.261475
0.199636
0.1355
0.0689803
0
0.962477
0.92711
0.890044
0.851559
0.81164
0.770238
0.727298
0.682763
0.636575
0.58867
0.538987
0.487458
0.434014
0.378586
0.321098
0.261475
0.199636
0.1355
0.0689803
0
0.962475
0.92711
0.890044
0.851559
0.81164
0.770238
0.727298
0.682763
0.636575
0.58867
0.538987
0.487458
0.434014
0.378586
0.321098
0.261474
0.199636
0.1355
0.0689803
0
0.962502
0.927109
0.890043
0.851558
0.811639
0.770237
0.727297
0.682762
0.636573
0.588669
0.538985
0.487456
0.434013
0.378584
0.321096
0.261473
0.199634
0.135498
0.0689791
0
0.962463
0.927035
0.889965
0.851477
0.811555
0.77015
0.727207
0.682669
0.636477
0.58857
0.538884
0.487352
0.433907
0.378476
0.320986
0.261361
0.19952
0.135383
0.0688626
0
)
;

boundaryField
{
    internal
    {
        type            internal;
    }
    movingWall
    {
        type            uniformFixedValue;
        value           uniform 1;
        uniformValue    
        {
            type            square;
            amplitude       
            {
                type            constant;
                value           1;
            }
            frequency       150;
            start           0;
            level           
            {
                type            constant;
                value           0;
            }
            markSpace       1;
        }
    }
    farFieldMoving
    {
        type            uniformFixedValue;
        value           uniform 1;
        uniformValue    
        {
            type            square;
            amplitude       
            {
                type            constant;
                value           1;
            }
            frequency       150;
            start           0;
            level           
            {
                type            constant;
                value           0;
            }
            markSpace       1;
        }
    }
    fixedWall
    {
        type            uniformFixedValue;
        value           uniform 0;
        uniformValue    
        {
            type            constant;
            value           0;
        }
    }
    axis
    {
        type            empty;
    }
    left
    {
        type            uniformFixedValue;
        value           uniform 0;
        uniformValue    
        {
            type            constant;
            value           0;
        }
    }
    farField
    {
        type            slip;
    }
    back
    {
        type            wedge;
    }
    front
    {
        type            wedge;
    }
}


// ************************************************************************* //
