/*--------------------------------*- C++ -*----------------------------------*\
  =========                 |
  \\      /  F ield         | OpenFOAM: The Open Source CFD Toolbox
   \\    /   O peration     | Website:  https://openfoam.org
    \\  /    A nd           | Version:  13
     \\/     M anipulation  |
\*---------------------------------------------------------------------------*/
FoamFile
{
    format      ascii;
    class       volVectorField;
    location    "0.0002";
    object      U;
}
// * * * * * * * * * * * * * * * * * * * * * * * * * * * * * * * * * * * * * //

dimensions      [0 1 -1 0 0 0 0];

internalField   nonuniform List<vector> 
1690
(
(0.596745 -0.00147196 7.68729e-17)
(0.612426 -0.00436221 4.43705e-17)
(0.64539 -0.00719541 1.83767e-16)
(0.693172 -0.00982103 2.98876e-16)
(0.75709 -0.0116996 1.675e-16)
(0.819063 -0.0143635 2.25809e-16)
(0.933133 -0.0121048 2.06748e-16)
(0.935247 -0.00949117 1.47952e-16)
(0.594051 -0.00372056 -1.10963e-17)
(0.609871 -0.0112657 5.26937e-17)
(0.643033 -0.0186647 3.78871e-16)
(0.691337 -0.0254912 7.44648e-16)
(0.755055 -0.0308273 3.89639e-16)
(0.819226 -0.0363966 4.88988e-16)
(0.933469 -0.0332914 4.50852e-16)
(0.933754 -0.0236345 3.85606e-16)
(0.588717 -0.00599054 -1.4655e-17)
(0.604718 -0.0180755 5.76431e-17)
(0.638228 -0.0299069 3.01331e-16)
(0.687197 -0.0408318 4.75345e-16)
(0.751547 -0.0499094 1.19637e-16)
(0.817651 -0.0569654 5.35447e-16)
(0.933061 -0.0562644 1.00863e-16)
(0.9326 -0.0358204 1.9406e-16)
(0.580496 -0.00839553 1.31348e-17)
(0.596683 -0.0253175 5.58206e-17)
(0.630633 -0.0419368 1.71602e-16)
(0.680475 -0.0573675 1.64914e-16)
(0.74616 -0.0704451 1.60131e-17)
(0.814403 -0.0797156 3.75496e-16)
(0.932208 -0.0804446 -3.16718e-16)
(0.932463 -0.0491144 -1.5186e-16)
(0.569371 -0.0108463 -8.07381e-18)
(0.585742 -0.0327354 1.05421e-17)
(0.620205 -0.0543424 4.54429e-17)
(0.671132 -0.0745781 2.85964e-17)
(0.738759 -0.0919554 -4.82793e-17)
(0.809695 -0.103955 -8.16054e-17)
(0.931142 -0.105394 -6.03686e-16)
(0.932902 -0.0627798 -2.83854e-16)
(0.555311 -0.0133328 -3.78197e-18)
(0.571853 -0.0403018 1.19703e-17)
(0.606851 -0.0671145 1.46255e-17)
(0.659028 -0.0925285 -2.18989e-17)
(0.729145 -0.114675 -9.29566e-17)
(0.803537 -0.129922 -2.2521e-16)
(0.930085 -0.13166 -4.79043e-16)
(0.933913 -0.0764824 -2.18639e-16)
(0.538279 -0.0158441 -1.72863e-18)
(0.554935 -0.0479963 1.49248e-17)
(0.590401 -0.0802649 -1.80384e-17)
(0.643897 -0.11134 -7.13518e-17)
(0.716996 -0.138943 -1.20738e-16)
(0.795807 -0.158137 -8.20929e-17)
(0.929343 -0.15982 -1.58725e-16)
(0.935704 -0.0899153 -1.10258e-16)
(0.518247 -0.0183562 -4.95105e-18)
(0.534898 -0.0557584 -3.56446e-18)
(0.570635 -0.0937451 -6.54878e-17)
(0.625357 -0.131084 -1.32697e-16)
(0.701827 -0.165117 -1.25737e-16)
(0.786285 -0.189363 6.0598e-17)
(0.929504 -0.190588 -1.01167e-17)
(0.938732 -0.102595 -9.41461e-17)
(0.49522 -0.0208272 -2.20449e-18)
(0.511668 -0.0634709 -7.25597e-18)
(0.547293 -0.107415 -7.47532e-17)
(0.602894 -0.151747 -1.69208e-16)
(0.682902 -0.193575 -1.28264e-16)
(0.774622 -0.224782 9.57787e-17)
(0.931755 -0.225086 -2.17604e-17)
(0.943849 -0.113886 -1.19746e-16)
(0.46927 -0.0231931 -4.73408e-18)
(0.485212 -0.070942 -2.01007e-18)
(0.520097 -0.121 -7.30393e-17)
(0.575837 -0.173139 -1.82309e-16)
(0.659042 -0.22463 -1.24476e-16)
(0.760138 -0.266128 6.14184e-17)
(0.937433 -0.264569 -6.77714e-17)
(0.952261 -0.122557 -1.29755e-16)
(0.44056 -0.0253639 -1.72522e-18)
(0.455583 -0.0778879 6.90722e-18)
(0.48879 -0.134039 -5.35743e-17)
(0.543335 -0.194769 -1.28278e-16)
(0.628265 -0.258505 -6.82875e-17)
(0.740939 -0.315726 4.07624e-17)
(0.94343 -0.310133 -3.21265e-17)
(0.964033 -0.125816 -5.94768e-17)
(0.409387 -0.0272232 -7.76086e-19)
(0.42296 -0.0839181 4.88742e-18)
(0.453188 -0.145795 -3.48825e-17)
(0.504203 -0.215587 -7.55147e-17)
(0.587078 -0.294991 -4.06608e-17)
(0.710861 -0.37538 6.95289e-18)
(0.930853 -0.365023 1.18498e-17)
(0.971494 -0.122173 -4.42766e-18)
(0.376204 -0.0286268 1.2743e-18)
(0.387686 -0.0885107 -2.79181e-18)
(0.413241 -0.155082 -4.22624e-17)
(0.45684 -0.233378 -7.92455e-17)
(0.530356 -0.33135 -6.09065e-17)
(0.654991 -0.440486 -1.8343e-17)
(0.859575 -0.434062 1.70998e-17)
(0.946722 -0.123464 1.60781e-18)
(0.341608 -0.0293978 1.1848e-18)
(0.350333 -0.0910144 -9.55712e-18)
(0.369391 -0.160243 -4.15211e-17)
(0.400762 -0.24457 -7.80719e-17)
(0.455407 -0.35957 -6.76467e-17)
(0.555058 -0.492842 -2.48542e-17)
(0.695138 -0.510317 1.93852e-17)
(0.83309 -0.189211 6.61935e-18)
(0.306269 -0.0293923 1.06e-18)
(0.311887 -0.0909645 -7.19915e-18)
(0.323547 -0.160042 -2.58902e-17)
(0.340617 -0.245887 -4.94344e-17)
(0.370213 -0.366658 -4.58266e-17)
(0.415794 -0.50624 -2.09121e-17)
(0.459614 -0.564451 1.52225e-17)
(0.576262 -0.376532 2.12817e-17)
(0.837727 0.0360335 -3.38634e-14)
(0.969112 0.0440165 -4.24653e-15)
(0.76834 0.0439287 -2.96213e-17)
(0.711266 0.0414548 1.29911e-15)
(0.620366 0.0387672 1.9157e-15)
(0.536595 0.0354958 -1.19214e-15)
(0.457682 0.0318608 -1.92118e-14)
(0.385037 0.0280421 -4.17106e-14)
(0.319404 0.0242115 -2.45799e-14)
(0.261218 0.0205176 4.34983e-16)
(0.210566 0.0170777 -1.13931e-14)
(0.167233 0.0139746 -2.3726e-14)
(0.13076 0.0112569 -2.42765e-14)
(0.100512 0.00894359 -4.88813e-14)
(0.0757335 0.0070304 1.80547e-15)
(0.0556033 0.00549708 -7.31794e-15)
(0.039273 0.00431546 -1.56762e-14)
(0.0258695 0.00346284 3.39493e-14)
(0.0144351 0.00293734 4.99917e-14)
(0.0042739 0.00241487 2.84879e-15)
(0.836601 0.0844477 -7.73071e-15)
(0.966866 0.104624 -3.31394e-15)
(0.765332 0.102591 1.51795e-14)
(0.706417 0.0976317 4.16067e-16)
(0.614977 0.0910892 7.45766e-15)
(0.530541 0.0833117 1.29826e-14)
(0.451357 0.0746963 -3.32601e-15)
(0.378754 0.0656672 -1.22868e-14)
(0.313423 0.0566274 -9.18807e-15)
(0.255732 0.0479269 1.21158e-14)
(0.2057 0.0398412 4.61198e-15)
(0.163048 0.0325615 1.47273e-14)
(0.127265 0.0261982 7.62823e-15)
(0.0976755 0.0207915 -8.05075e-15)
(0.0734997 0.016327 5.34873e-16)
(0.0539042 0.0127539 2.73399e-15)
(0.0380395 0.0100035 1.06363e-14)
(0.02504 0.00802086 4.58779e-15)
(0.0139636 0.00680157 7.22347e-15)
(0.0041303 0.00558329 1.61235e-15)
(0.83683 0.134465 1.76125e-15)
(0.962203 0.167552 3.63384e-15)
(0.758161 0.162721 -8.77194e-16)
(0.6974 0.155088 1.55194e-16)
(0.603839 0.144127 1.99083e-15)
(0.51831 0.131321 4.76466e-15)
(0.438684 0.117261 3.89539e-15)
(0.366259 0.102657 -1.72118e-15)
(0.30161 0.08816 -5.97273e-15)
(0.244969 0.0743184 -6.15674e-15)
(0.196211 0.0615494 1.4936e-15)
(0.154932 0.0501301 2.12665e-15)
(0.120519 0.0402077 1.00453e-15)
(0.0922241 0.0318206 -3.91503e-16)
(0.0692219 0.0249264 6.92346e-16)
(0.0506601 0.0194295 4.2204e-17)
(0.0356901 0.0152113 1.10113e-15)
(0.0234634 0.012178 2.46885e-15)
(0.0130715 0.0103168 1.97512e-14)
(0.00386429 0.00845974 9.10017e-15)
(0.837482 0.185404 5.37444e-15)
(0.95526 0.230572 5.99033e-15)
(0.747468 0.223084 -1.24593e-15)
(0.684309 0.212003 -2.15626e-16)
(0.587638 0.196108 -3.54511e-15)
(0.500715 0.177788 -5.78527e-15)
(0.420632 0.157902 1.88603e-15)
(0.348636 0.137483 2.21272e-15)
(0.285106 0.117436 2.01129e-15)
(0.230061 0.0984911 -1.28428e-15)
(0.183173 0.0811791 2.34208e-15)
(0.143861 0.0658282 2.56602e-15)
(0.111376 0.0525898 -5.69676e-16)
(0.0848756 0.0414736 -5.95884e-16)
(0.063483 0.0323873 -2.81845e-16)
(0.0463252 0.0251771 3.54159e-16)
(0.0325606 0.0196656 -1.20247e-15)
(0.0213686 0.0157143 -5.57148e-15)
(0.0118876 0.0132951 1.20231e-15)
(0.0035091 0.0108889 -5.09635e-15)
(0.838158 0.237273 8.80649e-16)
(0.945937 0.293888 -3.41672e-15)
(0.733343 0.283312 -4.43298e-16)
(0.667059 0.267988 -4.22553e-16)
(0.566578 0.246393 -1.92868e-15)
(0.47816 0.22192 -2.48274e-15)
(0.39779 0.195743 3.78483e-16)
(0.32662 0.169256 8.49417e-16)
(0.264736 0.143606 8.18241e-16)
(0.211868 0.119675 5.79563e-17)
(0.167425 0.0980592 6.08602e-16)
(0.130611 0.0790914 2.49372e-16)
(0.100522 0.0628839 -1.27309e-15)
(0.0762148 0.0493827 -2.38597e-15)
(0.0567597 0.0384219 2.30617e-16)
(0.0412721 0.0297733 1.84106e-15)
(0.0289272 0.0231926 7.26058e-15)
(0.0189438 0.0184918 5.76433e-15)
(0.0105206 0.0156212 6.78406e-16)
(0.00310052 0.0127771 3.84473e-15)
(0.838718 0.290853 -2.34917e-16)
(0.93397 0.358346 -4.48076e-15)
(0.715575 0.343836 -3.4836e-15)
(0.645436 0.3233 -2.79096e-15)
(0.540654 0.295002 -1.30074e-15)
(0.45087 0.263589 3.75663e-16)
(0.37059 0.230582 3.46001e-15)
(0.300806 0.197759 -1.65323e-15)
(0.241194 0.166482 -1.89937e-15)
(0.191119 0.137729 -4.25241e-16)
(0.149678 0.1121 -2.87544e-15)
(0.115839 0.0898753 -4.00614e-15)
(0.0885335 0.0710789 1.1084e-15)
(0.0667246 0.0555592 2.11877e-15)
(0.0494423 0.0430537 1.01461e-17)
(0.035803 0.0332474 2.17431e-16)
(0.0250119 0.025823 2.10722e-15)
(0.0163397 0.0205404 6.20292e-15)
(0.0090564 0.0173234 -5.75881e-16)
(0.00266395 0.0141493 -9.31781e-15)
(0.839019 0.347087 -1.59632e-16)
(0.91893 0.424769 -1.00244e-15)
(0.693764 0.405132 2.02099e-16)
(0.619085 0.378129 -1.44235e-16)
(0.509742 0.341885 -7.83346e-16)
(0.418994 0.302628 5.89006e-16)
(0.339406 0.262218 3.03717e-15)
(0.271732 0.22282 7.65173e-16)
(0.215109 0.185951 -1.40363e-15)
(0.168468 0.152605 -1.29359e-15)
(0.130561 0.123311 -1.5886e-15)
(0.10011 0.0982285 1.06215e-16)
(0.0758973 0.0772476 -8.90703e-16)
(0.0568078 0.0600861 7.14872e-16)
(0.0418512 0.0463662 -1.6312e-15)
(0.0301628 0.0356772 1.45919e-15)
(0.0209931 0.0276265 -1.85727e-15)
(0.0136759 0.0219215 1.37451e-15)
(0.00756292 0.018457 -6.06229e-17)
(0.00221977 0.0150536 -1.18638e-15)
(0.838853 0.40701 1.21081e-16)
(0.900215 0.493899 5.53849e-16)
(0.667347 0.467546 2.04285e-15)
(0.587548 0.43247 1.76698e-15)
(0.473677 0.386813 6.27773e-16)
(0.382679 0.338743 3.26222e-17)
(0.304619 0.290385 9.77009e-16)
(0.239935 0.24426 8.60204e-16)
(0.187088 0.201932 -3.7367e-16)
(0.144524 0.164311 -3.26206e-16)
(0.110635 0.131764 1.16686e-16)
(0.0839176 0.104263 1.37444e-15)
(0.0630253 0.0815191 -1.91585e-15)
(0.0467959 0.0630935 -6.65423e-15)
(0.034244 0.0484805 -2.49087e-15)
(0.0245448 0.03717 -4.11244e-16)
(0.0170089 0.0286958 2.25148e-16)
(0.0110445 0.0227149 1.64985e-15)
(0.0060918 0.0190932 -8.72747e-16)
(0.00178336 0.0155503 3.3061e-16)
(0.837903 0.47182 -1.10038e-15)
(0.877013 0.566425 1.8772e-16)
(0.635612 0.531288 1.10921e-15)
(0.550285 0.486115 1.53252e-15)
(0.432306 0.429395 7.20015e-16)
(0.342127 0.371545 -1.19445e-15)
(0.266662 0.314788 -1.28701e-15)
(0.205975 0.261919 -3.97153e-16)
(0.157728 0.214395 -8.17358e-19)
(0.119853 0.172916 1.54437e-15)
(0.0904047 0.13759 3.78965e-17)
(0.0676829 0.108141 1.17574e-16)
(0.0502574 0.0840627 -4.23349e-16)
(0.0369538 0.0647418 -2.05714e-15)
(0.0268212 0.0495397 -3.0897e-15)
(0.0190956 0.0378488 -5.37908e-15)
(0.0131627 0.0291342 -6.21223e-16)
(0.00851302 0.023008 -2.23063e-15)
(0.00468049 0.0193083 -3.70283e-15)
(0.00136574 0.0157039 2.38024e-15)
(0.83569 0.542941 -1.18584e-15)
(0.848269 0.642971 3.83166e-16)
(0.5977 0.59639 9.59508e-16)
(0.506721 0.538633 5.03389e-16)
(0.385549 0.469085 4.04914e-16)
(0.29763 0.400579 -2.60992e-16)
(0.226034 0.335134 -3.21934e-16)
(0.170445 0.27568 -7.62004e-16)
(0.127612 0.223368 -5.24117e-17)
(0.0949814 0.178547 7.98159e-16)
(0.0703088 0.140972 -9.26701e-17)
(0.0517585 0.110064 -4.95099e-16)
(0.0378654 0.0850737 -2.65098e-16)
(0.0274855 0.0652076 -3.02662e-16)
(0.0197317 0.0496958 -5.9077e-16)
(0.0139213 0.0378404 1.55627e-16)
(0.00952693 0.0290465 -1.37952e-15)
(0.00612806 0.0228878 1.24892e-17)
(0.00335445 0.019178 1.66374e-15)
(0.000974315 0.0155777 2.19882e-15)
(0.831489 0.622113 -2.83977e-16)
(0.812624 0.724055 4.37497e-16)
(0.55262 0.662664 1.43813e-15)
(0.456287 0.589337 3.81779e-16)
(0.333454 0.50521 4.51274e-16)
(0.249603 0.425354 9.36319e-16)
(0.183316 0.351161 7.7395e-16)
(0.133962 0.285494 -5.42521e-16)
(0.0973078 0.228952 2.10241e-16)
(0.0703822 0.181392 9.87429e-16)
(0.0507224 0.142132 -8.20358e-17)
(0.0364282 0.110256 -2.56067e-15)
(0.0260576 0.0847603 -1.35744e-15)
(0.0185397 0.064672 -1.05271e-15)
(0.0130795 0.0491003 -2.45842e-15)
(0.009093 0.0372686 2.8134e-15)
(0.00614876 0.0285328 1.22466e-15)
(0.00391905 0.0224364 3.25761e-16)
(0.00212937 0.018773 1.93277e-15)
(0.000613557 0.0152303 5.84247e-16)
(0.824221 0.711499 -2.58727e-16)
(0.76835 0.810015 1.29903e-16)
(0.499271 0.72963 1.53293e-15)
(0.39849 0.637275 8.22077e-16)
(0.276252 0.537002 7.47892e-16)
(0.198598 0.445387 7.65864e-16)
(0.139163 0.362675 3.75167e-16)
(0.0971562 0.291391 -3.17568e-16)
(0.067345 0.231315 5.84375e-16)
(0.0464704 0.181686 3.55968e-16)
(0.0319519 0.141323 -1.22174e-16)
(0.0219096 0.108959 -1.04751e-15)
(0.0149837 0.0833339 2.35127e-16)
(0.0102169 0.0633125 8.69661e-16)
(0.0069306 0.0478978 -1.0899e-15)
(0.00465297 0.0362491 1.01921e-15)
(0.00305466 0.0276852 2.91674e-16)
(0.00190172 0.0217284 -9.52593e-16)
(0.00101329 0.0181566 2.02635e-16)
(0.000285651 0.014714 1.09061e-16)
(0.812295 0.813839 -8.9256e-16)
(0.713249 0.90088 -2.10366e-16)
(0.436505 0.796447 1.08437e-15)
(0.332986 0.68123 1.0452e-15)
(0.214408 0.563659 5.00531e-16)
(0.145306 0.460249 -3.561e-16)
(0.0942871 0.369579 -9.50065e-16)
(0.0606471 0.293495 -7.91462e-16)
(0.0382045 0.230696 -1.2253e-16)
(0.023593 0.179706 -4.19583e-16)
(0.0142349 0.138818 -6.11976e-16)
(0.0083585 0.106415 -1.37339e-16)
(0.00474178 0.0810004 2.99842e-16)
(0.00257651 0.0612967 1.61309e-16)
(0.00131964 0.0462214 -7.22474e-16)
(0.000620645 0.0348861 3.29173e-16)
(0.000255017 0.0265854 -3.18996e-16)
(8.12646e-05 0.0208289 -3.4502e-15)
(8.37168e-06 0.0173838 -6.44951e-16)
(-8.91255e-06 0.014074 4.05081e-17)
(0.793396 0.93267 -1.21754e-15)
(0.644523 0.996149 -3.0702e-16)
(0.363222 0.861838 7.49696e-16)
(0.259672 0.719759 9.05054e-16)
(0.148651 0.584407 1.19697e-16)
(0.0905359 0.469596 -8.54055e-16)
(0.0494365 0.371896 -1.13728e-15)
(0.0250208 0.292025 -4.8001e-16)
(0.0103008 0.227391 -3.86894e-16)
(0.00202493 0.175761 -7.0554e-16)
(-0.00225705 0.134906 -4.39292e-16)
(-0.00412599 0.102862 -1.56748e-16)
(-0.00461502 0.0779522 1.28962e-16)
(-0.00435609 0.0587758 -8.36782e-16)
(-0.00374357 0.0441884 -1.731e-15)
(-0.00300221 0.0332702 5.80197e-16)
(-0.0022519 0.0253035 1.13049e-15)
(-0.00154498 0.0197936 -1.58621e-15)
(-0.000887357 0.0165015 -1.64846e-15)
(-0.000270717 0.0133481 3.04766e-16)
(0.764182 1.07263 -1.00986e-15)
(0.558564 1.09442 -1.86967e-16)
(0.278547 0.924024 5.33726e-16)
(0.178772 0.751242 5.69161e-16)
(0.0799816 0.598597 -1.4079e-16)
(0.0351784 0.47321 -6.23646e-16)
(0.00536384 0.369812 -6.06312e-16)
(-0.00919503 0.287287 -1.1018e-16)
(-0.0160276 0.221744 -8.58345e-17)
(-0.0180317 0.170167 2.2956e-16)
(-0.0174171 0.129846 9.36856e-16)
(-0.0154972 0.0985207 3.31959e-16)
(-0.0130711 0.0743633 5.10656e-17)
(-0.0105822 0.0558853 -5.07961e-16)
(-0.00826778 0.0419022 -1.20982e-15)
(-0.00622653 0.0314796 2.13126e-16)
(-0.00447632 0.0238989 4.83554e-16)
(-0.00298487 0.0186689 -3.50104e-16)
(-0.00167892 0.0155485 -7.26172e-16)
(-0.000501537 0.0125672 1.68605e-16)
(0.719886 1.24005 -4.12725e-16)
(0.450627 1.1929 -6.45465e-17)
(0.182087 0.980697 1.0893e-16)
(0.0909285 0.774087 4.35416e-17)
(0.00966825 0.605863 -2.35304e-16)
(-0.0198453 0.470878 -6.09587e-16)
(-0.0372077 0.363605 -4.68007e-16)
(-0.0415661 0.279661 -1.5792e-16)
(-0.0405274 0.214125 -1.44881e-17)
(-0.0364527 0.163245 8.12273e-16)
(-0.031195 0.123895 1.28636e-15)
(-0.0257433 0.093592 5.24572e-16)
(-0.0206376 0.0703894 2.86112e-16)
(-0.0161222 0.0527433 5.79951e-16)
(-0.0122755 0.0394513 1.68723e-16)
(-0.00907267 0.02958 -1.31647e-16)
(-0.0064345 0.0224209 -1.84338e-16)
(-0.00425002 0.0174927 2.15364e-16)
(-0.00237318 0.0145558 -7.06691e-18)
(-0.000703483 0.0117568 -4.66624e-16)
(0.653457 1.44193 2.22435e-16)
(0.314378 1.28715 -8.88258e-18)
(0.0743377 1.02923 -2.34392e-16)
(-0.00274164 0.78675 -2.24488e-16)
(-0.060918 0.605651 -3.93122e-16)
(-0.0736605 0.463014 -7.35075e-16)
(-0.0775678 0.353678 -4.84226e-16)
(-0.0717431 0.269576 6.72661e-17)
(-0.0630316 0.204911 -8.85215e-17)
(-0.0531761 0.155301 3.60971e-16)
(-0.0435858 0.117297 1.06355e-15)
(-0.0348869 0.0882598 7.94513e-16)
(-0.0273485 0.0661656 7.46939e-16)
(-0.0210114 0.0494483 1.48606e-15)
(-0.0157984 0.0369074 5.35996e-16)
(-0.0115667 0.0276242 -3.26463e-16)
(-0.0081463 0.0209088 -4.99726e-16)
(-0.00535414 0.0162952 8.15547e-16)
(-0.00297805 0.0135484 6.2196e-16)
(-0.000878962 0.0109365 -1.03237e-15)
(0.558729 1.6869 6.81077e-16)
(0.141938 1.37407 1.67858e-16)
(-0.0432501 1.06511 -2.15683e-16)
(-0.100776 0.78827 -1.91641e-16)
(-0.130216 0.597488 -4.30903e-16)
(-0.12525 0.450235 -5.6023e-16)
(-0.115265 0.340554 -7.20128e-17)
(-0.0994851 0.25749 2.59953e-16)
(-0.0834504 0.194474 -4.29434e-16)
(-0.0681965 0.146621 -3.32183e-16)
(-0.0546233 0.110266 4.78774e-16)
(-0.0429771 0.0826792 6.20427e-16)
(-0.0332541 0.0618045 1.18445e-15)
(-0.0252949 0.0460813 2.33196e-15)
(-0.018874 0.0343289 9.15984e-16)
(-0.0137381 0.0256545 -2.0795e-16)
(-0.0096334 0.0193937 -2.81515e-16)
(-0.00631196 0.0151 4.49946e-16)
(-0.00350196 0.0125453 4.58265e-16)
(-0.00103053 0.0101217 -2.16227e-16)
(0.410502 1.97714 9.66084e-16)
(-0.0759634 1.44657 4.43553e-16)
(-0.169182 1.08268 9.5914e-17)
(-0.200504 0.778186 -1.39243e-17)
(-0.19677 0.581675 -2.20488e-16)
(-0.173711 0.433061 7.97509e-17)
(-0.14994 0.324799 4.68207e-16)
(-0.124657 0.243877 3.49089e-16)
(-0.101772 0.183162 -2.1879e-16)
(-0.0815568 0.137459 -2.63281e-16)
(-0.064371 0.102985 1.59793e-16)
(-0.0500801 0.0769806 4.02753e-16)
(-0.0384142 0.057399 1.3394e-15)
(-0.0290233 0.0427082 2.31294e-15)
(-0.0215427 0.0317627 2.51448e-16)
(-0.0156175 0.0237044 3.44702e-17)
(-0.0109181 0.0178997 -1.58173e-17)
(-0.00713845 0.0139253 2.35487e-16)
(-0.00395335 0.0115614 5.16693e-16)
(-0.0011607 0.00932393 -1.69744e-16)
(0.309168 2.30907 1.1203e-15)
(-0.352693 1.51291 7.77332e-16)
(-0.299593 1.07521 4.11722e-16)
(-0.298554 0.756652 1.2824e-16)
(-0.259279 0.55878 1.04186e-16)
(-0.218342 0.41222 6.35689e-16)
(-0.181367 0.307002 7.4646e-16)
(-0.147221 0.229179 3.33771e-16)
(-0.118046 0.171295 1.95074e-16)
(-0.0933366 0.128039 7.225e-17)
(-0.0729126 0.0956091 1.85407e-18)
(-0.0562725 0.0712725 1.77024e-16)
(-0.042894 0.053024 9.44205e-16)
(-0.032249 0.0393811 1.8638e-15)
(-0.0238452 0.0292449 2.66167e-16)
(-0.0172356 0.0217991 3.4629e-16)
(-0.0120224 0.016445 6.3094e-17)
(-0.0078481 0.0127844 5.51056e-16)
(-0.00434037 0.0106076 8.968e-16)
(-0.00127181 0.00855147 -4.98595e-16)
(0.246734 -0.0281786 -1.04587e-18)
(0.248862 -0.0865526 -2.46424e-18)
(0.251319 -0.150389 -3.69924e-18)
(0.252263 -0.228076 -1.1755e-17)
(0.250238 -0.330526 -2.51999e-17)
(0.221744 -0.442079 -2.85153e-17)
(0.153429 -0.508322 -7.25317e-18)
(0.125249 -0.459765 3.81979e-17)
(0.174841 -0.0248613 6.66387e-20)
(0.174249 -0.0750577 1.31749e-19)
(0.171583 -0.127327 2.08897e-18)
(0.166139 -0.183186 5.83422e-18)
(0.152234 -0.244709 -9.32511e-18)
(0.114276 -0.311515 -3.82492e-17)
(0.0538035 -0.368728 -3.41765e-17)
(0.00958796 -0.389125 -8.87213e-18)
(0.113771 -0.0210864 -1.2214e-18)
(0.112005 -0.0629513 5.48426e-20)
(0.107283 -0.105471 2.02493e-18)
(0.0994753 -0.149222 8.85876e-19)
(0.0867071 -0.193817 -3.47219e-18)
(0.0632292 -0.234837 -9.13534e-18)
(0.0286697 -0.262831 -1.96287e-17)
(-0.00482831 -0.272441 -2.93699e-17)
(0.0630456 -0.0178316 -5.19306e-20)
(0.061319 -0.0519339 1.33546e-18)
(0.0563125 -0.0859692 3.9158e-18)
(0.0480715 -0.120013 -2.13441e-19)
(0.0356071 -0.153644 -5.88654e-18)
(0.017614 -0.18495 -7.87194e-18)
(-0.00390716 -0.210005 -9.15363e-18)
(-0.0239785 -0.22629 -1.03521e-17)
(0.0216694 -0.0149147 -2.86424e-19)
(0.0207484 -0.0424021 -4.0328e-19)
(0.0159986 -0.0697873 1.53697e-19)
(0.00874913 -0.0967385 -6.8094e-19)
(-0.00141074 -0.122632 -1.15989e-18)
(-0.0149298 -0.146186 -1.09367e-18)
(-0.0302513 -0.165816 -1.74915e-18)
(-0.0452565 -0.180978 -1.76679e-18)
(-0.0119869 -0.0163903 -2.70123e-19)
(-0.0126639 -0.0348084 -4.18005e-19)
(-0.0167198 -0.05674 -2.46156e-19)
(-0.0228362 -0.0784627 -7.12009e-19)
(-0.0311718 -0.099258 -3.4719e-18)
(-0.0418118 -0.11836 -5.71482e-18)
(-0.0535492 -0.134934 -4.06903e-18)
(-0.0654631 -0.148805 5.712e-18)
(-0.0387718 -0.0136798 -1.14933e-18)
(-0.0400124 -0.0286772 -1.90997e-18)
(-0.0432647 -0.0463664 -2.32153e-18)
(-0.048338 -0.0638685 -1.9026e-18)
(-0.055292 -0.0806718 1.83357e-18)
(-0.0640614 -0.0962747 4.86889e-18)
(-0.0737385 -0.110224 2.46558e-18)
(-0.0838799 -0.122493 -2.36854e-18)
(-0.0599359 -0.0117996 4.09242e-20)
(-0.061519 -0.0238365 3.89882e-20)
(-0.0644536 -0.0379496 -6.14086e-19)
(-0.0689023 -0.0519977 -5.51581e-20)
(-0.0749457 -0.0655886 9.9888e-18)
(-0.0825059 -0.0783522 2.9397e-17)
(-0.0909275 -0.0900021 4.08017e-17)
(-0.0999848 -0.100549 3.0728e-17)
(-0.0769931 -0.00980522 1.84705e-18)
(-0.078659 -0.019535 3.61736e-18)
(-0.0813987 -0.0307823 -4.72887e-19)
(-0.0854553 -0.0420048 -5.64361e-18)
(-0.0909059 -0.0529282 1.41334e-18)
(-0.0976859 -0.0632793 1.62307e-17)
(-0.105332 -0.0728695 2.26213e-17)
(-0.113714 -0.0817245 1.33339e-17)
(-0.0905645 -0.00792783 1.09451e-18)
(-0.092238 -0.0156753 3.5306e-18)
(-0.0948441 -0.0245224 2.69649e-18)
(-0.0986472 -0.0333604 2.62727e-18)
(-0.10371 -0.042 7.41424e-18)
(-0.109982 -0.0502396 5.61713e-18)
(-0.117144 -0.0579549 -1.03282e-17)
(-0.125105 -0.0651798 -2.88354e-17)
(-0.101123 -0.0061932 -1.61326e-18)
(-0.102786 -0.0121751 1.51543e-18)
(-0.1053 -0.0189438 4.37014e-18)
(-0.108936 -0.0257095 1.61716e-18)
(-0.113743 -0.0323403 -7.12715e-18)
(-0.119683 -0.0386897 -1.59737e-17)
(-0.126542 -0.0446792 -3.03223e-17)
(-0.134244 -0.050347 -4.90075e-17)
(-0.109026 -0.00458672 -3.23097e-18)
(-0.110679 -0.00896616 -3.44444e-18)
(-0.113131 -0.0138911 2.3306e-18)
(-0.116658 -0.0188139 1.04532e-17)
(-0.121294 -0.0236388 1.20492e-17)
(-0.127018 -0.0282629 1.40588e-17)
(-0.133687 -0.0326479 1.6755e-17)
(-0.141229 -0.0368348 3.80539e-18)
(-0.114451 -0.00308329 -1.05335e-18)
(-0.116111 -0.00597985 -2.49561e-18)
(-0.118538 -0.00923006 3.29042e-19)
(-0.122002 -0.0124759 7.49461e-18)
(-0.126528 -0.0156409 7.52508e-18)
(-0.13211 -0.018664 -1.48029e-19)
(-0.138652 -0.0215679 -1.06538e-17)
(-0.146069 -0.0243794 -3.33711e-17)
(-0.115565 -0.00166 1.71715e-18)
(-0.117225 -0.00316852 7.39477e-18)
(-0.11962 -0.00489901 7.33226e-18)
(-0.122998 -0.00664809 -2.93666e-18)
(-0.12738 -0.00832099 -1.55433e-17)
(-0.132806 -0.00985245 -1.64302e-17)
(-0.139168 -0.0113481 -8.48526e-18)
(-0.146278 -0.012816 -4.83374e-18)
(-0.088026 -0.000356922 7.87444e-19)
(-0.0892342 -0.000642847 4.99366e-18)
(-0.0909514 -0.00102454 8.14466e-18)
(-0.0933718 -0.00139693 3.42623e-18)
(-0.0965208 -0.00170104 -4.33682e-18)
(-0.100584 -0.00196647 -3.87672e-18)
(-0.105268 -0.0023687 -5.0564e-19)
(-0.109313 -0.00291802 -2.656e-18)
(0.197637 -0.270881 5.23538e-17)
(0.203026 -0.24808 3.81646e-17)
(0.221603 -0.237906 3.07723e-17)
(0.231979 -0.232731 2.90731e-17)
(0.239057 -0.22964 3.31156e-17)
(0.243742 -0.227981 2.7682e-17)
(0.246974 -0.227283 1.9801e-17)
(0.249263 -0.227236 2.15316e-17)
(0.25095 -0.227589 1.94796e-17)
(0.252319 -0.228177 1.61283e-17)
(0.253562 -0.228921 1.50377e-17)
(0.254771 -0.229762 1.74794e-17)
(0.256023 -0.230631 1.17517e-17)
(0.257401 -0.231495 -3.17424e-18)
(0.258944 -0.232345 -3.13375e-17)
(0.260696 -0.233162 -4.40712e-17)
(0.262703 -0.233933 -4.93649e-17)
(0.264989 -0.234639 -1.10154e-17)
(0.267587 -0.235275 1.97458e-17)
(0.270502 -0.23584 2.36119e-17)
(0.273728 -0.236315 1.14837e-17)
(0.277307 -0.236676 -2.50717e-17)
(0.281246 -0.236941 -2.80667e-17)
(0.285548 -0.237084 -1.08734e-17)
(0.290271 -0.237103 6.89779e-18)
(0.295418 -0.237018 8.38527e-18)
(0.300965 -0.236796 1.35747e-18)
(0.306967 -0.236399 8.48723e-18)
(0.313466 -0.235839 2.83892e-17)
(0.320478 -0.235101 2.85298e-17)
(0.32804 -0.234165 5.87277e-17)
(0.336194 -0.233012 3.96381e-17)
(0.344993 -0.231614 1.57646e-17)
(0.354512 -0.229944 -5.0204e-17)
(0.364871 -0.227972 -5.65281e-17)
(0.376245 -0.22568 -5.93084e-17)
(0.388721 -0.223048 -5.18045e-17)
(0.402043 -0.220005 -3.86317e-17)
(0.415563 -0.21633 6.19061e-18)
(0.429236 -0.211476 4.38235e-17)
(0.447349 -0.204612 5.24879e-17)
(0.485518 -0.194643 6.10707e-17)
(0.576147 -0.178499 8.07425e-17)
(0.762796 -0.150825 8.21236e-17)
(1.05161 -0.0948796 9.3227e-17)
(1.37581 -0.00252685 1.0594e-16)
(1.61887 0.107838 7.19877e-17)
(1.68985 0.175096 1.24355e-16)
(1.9793 0.160176 8.92143e-17)
(0.306724 0.252527 3.53331e-16)
(0.0015378 -0.371539 1.75283e-18)
(-0.00745103 -0.354361 -6.63967e-19)
(-0.013702 -0.346241 3.65012e-18)
(-0.0212952 -0.342502 3.20501e-18)
(-0.0291342 -0.341556 4.80925e-18)
(-0.0373151 -0.342409 2.26999e-18)
(-0.0457527 -0.344451 2.47229e-18)
(-0.0544545 -0.347291 2.06363e-18)
(-0.0634267 -0.350657 -1.1642e-17)
(-0.0726716 -0.35438 -2.98688e-17)
(-0.0821973 -0.358362 -3.67741e-17)
(-0.0920168 -0.362529 -3.65743e-17)
(-0.102136 -0.366827 -3.8019e-17)
(-0.112555 -0.37123 -4.55307e-17)
(-0.123281 -0.375723 -3.3076e-17)
(-0.134325 -0.380297 1.79066e-17)
(-0.145709 -0.384952 7.16972e-17)
(-0.157433 -0.389676 8.59532e-17)
(-0.169493 -0.39447 4.09104e-17)
(-0.181887 -0.399331 -3.32154e-17)
(-0.194603 -0.404249 -9.84621e-17)
(-0.207622 -0.409223 -1.36386e-16)
(-0.220926 -0.414263 -1.25158e-16)
(-0.234477 -0.419353 -9.86043e-17)
(-0.24822 -0.42448 -5.62067e-17)
(-0.262128 -0.429641 -3.79467e-17)
(-0.276151 -0.434812 -2.25083e-17)
(-0.290217 -0.439981 -5.37835e-18)
(-0.304252 -0.445145 3.84921e-17)
(-0.318159 -0.450281 2.7282e-17)
(-0.331812 -0.455364 -3.54979e-17)
(-0.345047 -0.460363 -1.17536e-16)
(-0.357649 -0.465237 -2.0239e-16)
(-0.369318 -0.469953 -2.35041e-16)
(-0.379667 -0.474451 -1.94641e-16)
(-0.388349 -0.478562 -1.50358e-16)
(-0.395329 -0.481867 -1.0326e-16)
(-0.400842 -0.483772 -6.93985e-17)
(-0.403881 -0.484138 1.14258e-17)
(-0.397796 -0.484567 9.26924e-17)
(-0.363208 -0.489352 1.33653e-16)
(-0.265184 -0.502999 1.00798e-16)
(-0.065777 -0.520927 6.51032e-17)
(0.256343 -0.518794 2.84349e-17)
(0.664993 -0.457816 5.1447e-17)
(1.06522 -0.30044 1.43342e-16)
(1.35497 -0.0615314 1.55748e-16)
(1.5108 0.150633 2.04019e-16)
(1.18068 0.32672 4.42874e-16)
(-0.796836 0.710552 8.68662e-16)
(-0.0278398 -0.272772 -2.81307e-17)
(-0.0464175 -0.269515 -1.90214e-17)
(-0.0598978 -0.269517 -8.5397e-18)
(-0.0720031 -0.27107 -1.48739e-18)
(-0.0832927 -0.273868 4.75921e-18)
(-0.0943894 -0.27754 5.57945e-19)
(-0.105541 -0.281838 -1.25974e-17)
(-0.116922 -0.286599 -3.46295e-17)
(-0.128622 -0.291716 -5.35031e-17)
(-0.140702 -0.297122 -6.51195e-17)
(-0.153208 -0.302772 -5.75204e-17)
(-0.16618 -0.308635 -3.04543e-17)
(-0.179646 -0.314697 1.04938e-17)
(-0.193638 -0.320949 4.14818e-17)
(-0.208188 -0.327391 5.14891e-17)
(-0.223325 -0.334022 5.41345e-17)
(-0.23908 -0.340852 5.66711e-17)
(-0.255487 -0.347893 6.66044e-17)
(-0.272581 -0.35516 5.33446e-17)
(-0.290399 -0.362668 1.98117e-17)
(-0.308974 -0.370432 -2.35088e-17)
(-0.328342 -0.37847 -7.68038e-17)
(-0.348539 -0.386802 -9.17143e-17)
(-0.369609 -0.395456 -6.80385e-17)
(-0.391603 -0.404468 -2.27582e-17)
(-0.414552 -0.413852 2.44713e-17)
(-0.438473 -0.423619 3.50095e-17)
(-0.46337 -0.433788 1.37829e-17)
(-0.489236 -0.444379 -3.00218e-17)
(-0.516033 -0.455409 -1.06965e-16)
(-0.543704 -0.466891 -2.16428e-16)
(-0.572149 -0.478845 -3.26616e-16)
(-0.601194 -0.4913 -3.55307e-16)
(-0.630578 -0.504268 -3.05518e-16)
(-0.659979 -0.517644 -2.10949e-16)
(-0.689104 -0.53106 -1.6791e-16)
(-0.717554 -0.543994 -1.43134e-16)
(-0.743641 -0.556669 -1.1168e-16)
(-0.761477 -0.571903 -1.98453e-20)
(-0.757309 -0.596669 6.65526e-17)
(-0.708561 -0.640753 1.87869e-17)
(-0.590269 -0.710129 -8.04931e-17)
(-0.389916 -0.794381 -1.54864e-16)
(-0.122639 -0.854686 -1.18179e-16)
(0.161348 -0.839561 1.64923e-17)
(0.393383 -0.689996 1.75842e-16)
(0.530623 -0.393763 2.72086e-16)
(0.447527 -0.00228536 3.92545e-16)
(-0.366183 0.415237 7.74163e-16)
(-1.711 1.05535 1.15043e-15)
(-0.0410567 -0.235944 -6.87706e-18)
(-0.0578314 -0.238909 -2.76061e-18)
(-0.0708713 -0.24233 1.99136e-18)
(-0.0832681 -0.245956 5.20889e-18)
(-0.0951667 -0.249969 6.82751e-18)
(-0.106962 -0.254347 1.10976e-18)
(-0.118809 -0.259047 -9.59551e-18)
(-0.130854 -0.264021 -2.55077e-17)
(-0.143193 -0.269224 -3.79932e-17)
(-0.155906 -0.274626 -4.69193e-17)
(-0.169058 -0.280205 -4.46063e-17)
(-0.182705 -0.285945 -3.04718e-17)
(-0.196896 -0.29184 -3.73979e-18)
(-0.211677 -0.29789 2.31469e-17)
(-0.227094 -0.3041 4.72602e-17)
(-0.243192 -0.310476 8.08741e-17)
(-0.260014 -0.317032 1.205e-16)
(-0.277609 -0.323783 1.55175e-16)
(-0.296028 -0.330747 1.6703e-16)
(-0.315321 -0.337943 1.32695e-16)
(-0.335545 -0.345394 3.80788e-17)
(-0.356756 -0.353126 -7.15521e-17)
(-0.379016 -0.361163 -1.33641e-16)
(-0.402385 -0.369534 -9.54411e-17)
(-0.426931 -0.378277 -2.82129e-18)
(-0.452725 -0.38743 4.55462e-17)
(-0.479831 -0.397037 -1.83051e-17)
(-0.508314 -0.40715 -1.55554e-16)
(-0.538235 -0.417829 -2.60648e-16)
(-0.569655 -0.429143 -3.01674e-16)
(-0.602596 -0.441172 -3.3036e-16)
(-0.637038 -0.454019 -3.25379e-16)
(-0.672899 -0.467801 -2.74806e-16)
(-0.710026 -0.482614 -1.79086e-16)
(-0.748177 -0.498436 -8.7152e-17)
(-0.786884 -0.515132 -4.21734e-17)
(-0.82491 -0.532983 -1.82094e-17)
(-0.858865 -0.554163 1.60998e-17)
(-0.88143 -0.584716 3.68294e-17)
(-0.881177 -0.635044 -3.91043e-17)
(-0.846117 -0.716418 -1.91901e-16)
(-0.770836 -0.832563 -3.34083e-16)
(-0.664389 -0.967951 -3.21867e-16)
(-0.555638 -1.07871 -1.78509e-16)
(-0.488727 -1.09748 1.74768e-17)
(-0.498878 -0.947531 2.11323e-16)
(-0.614936 -0.588927 4.16504e-16)
(-0.966258 -0.0723853 6.72663e-16)
(-1.70735 0.510738 9.06934e-16)
(-2.36677 1.2189 1.15457e-15)
(-0.0600344 -0.192421 -4.7605e-18)
(-0.0752676 -0.198022 3.73421e-19)
(-0.0878612 -0.203118 1.15693e-17)
(-0.100049 -0.207938 1.94307e-17)
(-0.111907 -0.212771 2.45729e-17)
(-0.123737 -0.217673 3.4034e-17)
(-0.135664 -0.22267 4.22133e-17)
(-0.147809 -0.22777 4.19097e-17)
(-0.160264 -0.232977 2.82336e-17)
(-0.173104 -0.238291 5.2326e-18)
(-0.186393 -0.243716 -1.67494e-17)
(-0.200189 -0.249256 -2.99291e-17)
(-0.214543 -0.254916 -3.15235e-17)
(-0.229505 -0.260705 -2.26285e-17)
(-0.245124 -0.266633 -3.73763e-18)
(-0.261448 -0.272713 1.98262e-17)
(-0.278526 -0.278959 5.38697e-17)
(-0.29641 -0.285389 9.78234e-17)
(-0.315155 -0.292022 1.29802e-16)
(-0.334818 -0.298879 1.0896e-16)
(-0.35546 -0.305983 9.18246e-18)
(-0.377145 -0.313361 -9.65127e-17)
(-0.399942 -0.321042 -1.05235e-16)