/*--------------------------------*- C++ -*----------------------------------*\
  =========                 |
  \\      /  F ield         | OpenFOAM: The Open Source CFD Toolbox
   \\    /   O peration     | Website:  https://openfoam.org
    \\  /    A nd           | Version:  13
     \\/     M anipulation  |
\*---------------------------------------------------------------------------*/
FoamFile
{
    format      ascii;
    class       surfaceVectorField;
    location    "0.0002";
    object      Uf;
}
// * * * * * * * * * * * * * * * * * * * * * * * * * * * * * * * * * * * * * //

dimensions      [0 1 -1 0 0 0 0];

internalField   nonuniform List<vector> 
3252
(
(0.604602 -0.00291708 6.06217e-17)
(0.595735 -0.00234908 4.38844e-17)
(0.628964 -0.0057788 1.14068e-16)
(0.611468 -0.00708104 4.74917e-17)
(0.669315 -0.00850817 2.41319e-16)
(0.644506 -0.0117281 2.56931e-16)
(0.724474 -0.0107601 2.33199e-16)
(0.692484 -0.0160315 4.6604e-16)
(0.790336 -0.0130302 1.96625e-16)
(0.756327 -0.0191354 2.50802e-16)
(0.871071 -0.0132427 2.16351e-16)
(0.819124 -0.0234091 3.24502e-16)
(0.940596 -0.0108587 1.78727e-16)
(0.933259 -0.0198556 2.98288e-16)
(0.934687 -0.0154469 2.37071e-16)
(0.601953 -0.00749313 2.07986e-17)
(0.591627 -0.0047216 -1.27139e-17)
(0.6265 -0.0149652 2.15782e-16)
(0.607529 -0.0142429 5.49434e-17)
(0.667102 -0.0220778 5.61754e-16)
(0.640849 -0.023566 3.43626e-16)
(0.72249 -0.0281588 5.67174e-16)
(0.689455 -0.0321627 6.22238e-16)
(0.790469 -0.0336091 4.39263e-16)
(0.753461 -0.0391936 2.66911e-16)
(0.867296 -0.034856 4.70064e-16)
(0.81851 -0.0451188 5.10106e-16)
(0.946387 -0.0286864 4.1976e-16)
(0.933284 -0.0438121 2.91761e-16)
(0.933229 -0.0286339 2.98542e-16)
(0.596709 -0.012033 2.1494e-17)
(0.584844 -0.00713409 -1.56174e-18)
(0.621509 -0.0239912 1.79486e-16)
(0.600932 -0.0215091 5.67844e-17)
(0.662568 -0.0353692 3.88335e-16)
(0.63465 -0.0356012 2.40209e-16)
(0.718736 -0.0453699 2.97522e-16)
(0.68403 -0.0486491 3.29084e-16)
(0.787915 -0.0534338 3.27333e-16)
(0.749009 -0.0596281 7.08144e-17)
(0.865689 -0.056618 3.19777e-16)
(0.816121 -0.0676646 4.60085e-16)
(0.94687 -0.0465179 1.45267e-16)
(0.932659 -0.06786 -9.58905e-17)
(0.932535 -0.0421112 3.10861e-17)
(0.588581 -0.0168565 3.44777e-17)
(0.57517 -0.00958395 2.98175e-18)
(0.613682 -0.0336271 1.13711e-16)
(0.591445 -0.0288997 3.41447e-17)
(0.655375 -0.0496519 1.68258e-16)
(0.625641 -0.047908 1.11207e-16)
(0.712683 -0.0639052 9.04758e-17)
(0.676002 -0.0656351 9.96553e-17)
(0.783588 -0.0750757 1.95577e-16)
(0.742617 -0.0807725 -1.47652e-17)
(0.863587 -0.0800781 3.19345e-17)
(0.812149 -0.0913429 1.56669e-16)
(0.946742 -0.0655127 -2.38192e-16)
(0.931698 -0.0924799 -4.54104e-16)
(0.932673 -0.0558104 -2.15044e-16)
(0.577545 -0.0217909 1.23412e-18)
(0.562578 -0.0120684 -6.00038e-18)
(0.602983 -0.0435388 2.79924e-17)
(0.579032 -0.036429 1.12321e-17)
(0.645456 -0.0644599 3.70199e-17)
(0.613753 -0.0605473 3.05547e-17)
(0.704265 -0.0832653 -9.83505e-18)
(0.665285 -0.0832744 4.20171e-18)
(0.777557 -0.0979495 -6.49261e-17)
(0.734115 -0.102948 -6.98633e-17)
(0.860783 -0.10467 -3.40765e-16)
(0.80672 -0.116515 -1.50982e-16)
(0.946642 -0.0850921 -4.51397e-16)
(0.930631 -0.118166 -5.43466e-16)
(0.933391 -0.0696089 -2.52351e-16)
(0.563566 -0.0268173 4.09415e-18)
(0.547034 -0.0145821 -2.78409e-18)
(0.589342 -0.0537081 1.32979e-17)
(0.563631 -0.0440929 1.34061e-17)
(0.632685 -0.0798211 -3.63615e-18)
(0.598857 -0.0735521 -1.24858e-18)
(0.693318 -0.1036 -5.7422e-17)
(0.651675 -0.101703 -4.59321e-17)
(0.769721 -0.122291 -1.5902e-16)
(0.723241 -0.126487 -1.06458e-16)
(0.857286 -0.130786 -3.51236e-16)
(0.79978 -0.14365 -1.55657e-16)
(0.946887 -0.105385 -3.5511e-16)
(0.929724 -0.145458 -3.23361e-16)
(0.934783 -0.083307 -1.65973e-16)
(0.546586 -0.0319202 6.59808e-18)
(0.528503 -0.0171091 -3.30121e-18)
(0.572632 -0.0641305 -1.55669e-18)
(0.545157 -0.0518536 5.9018e-18)
(0.616839 -0.0958017 -4.46943e-17)
(0.580755 -0.0869071 -4.11943e-17)
(0.679546 -0.125139 -9.60411e-17)
(0.634849 -0.121021 -1.01289e-16)
(0.759833 -0.148531 -1.01433e-16)
(0.709594 -0.151739 -1.23178e-16)
(0.853159 -0.158974 -1.20149e-16)
(0.79116 -0.173394 -1.2457e-17)
(0.947847 -0.126551 -1.3567e-16)
(0.929421 -0.17501 -8.61945e-17)
(0.937182 -0.0965642 -1.02396e-16)
(0.526544 -0.0370573 -4.25775e-18)
(0.506975 -0.0196171 -3.60653e-18)
(0.552696 -0.0747516 -3.45259e-17)
(0.523526 -0.059624 -5.37156e-18)
(0.597611 -0.112414 -9.90913e-17)
(0.559209 -0.100522 -7.00235e-17)
(0.662511 -0.148098 -1.29217e-16)
(0.614361 -0.141261 -1.5057e-16)
(0.747502 -0.17723 -3.26524e-17)
(0.692563 -0.179073 -1.26974e-16)
(0.84859 -0.189973 2.54709e-17)
(0.780575 -0.206692 7.78202e-17)
(0.950132 -0.148739 -5.00595e-17)
(0.930606 -0.207669 -1.58173e-17)
(0.941237 -0.108776 -1.06676e-16)
(0.503407 -0.042149 -4.73022e-18)
(0.482486 -0.022053 -3.44576e-18)
(0.529365 -0.0854427 -4.10044e-17)
(0.498686 -0.0672505 -4.68179e-18)
(0.574609 -0.12958 -1.21979e-16)
(0.533948 -0.114192 -7.39122e-17)
(0.641581 -0.172658 -1.48739e-16)
(0.589617 -0.162332 -1.75636e-16)
(0.732116 -0.209165 -1.63385e-17)
(0.671194 -0.208863 -1.26405e-16)
(0.844035 -0.224934 3.73734e-17)
(0.767515 -0.245045 7.89177e-17)
(0.954863 -0.17224 -6.83031e-17)
(0.934542 -0.244612 -4.43412e-17)
(0.947976 -0.118831 -1.24657e-16)
(0.477194 -0.0470675 -3.37208e-18)
(0.455155 -0.024339 -3.25481e-18)
(0.502487 -0.0959708 -3.75245e-17)
(0.470646 -0.0744939 2.37402e-18)
(0.547356 -0.147068 -1.27672e-16)
(0.504705 -0.127552 -6.34696e-17)
(0.615824 -0.198881 -1.53397e-16)
(0.559858 -0.183908 -1.55745e-16)
(0.712632 -0.245362 -3.16052e-17)
(0.643911 -0.24142 -9.68517e-17)
(0.839854 -0.265355 -2.79966e-18)
(0.750699 -0.290659 5.12629e-17)
(0.963474 -0.19714 -9.71882e-17)
(0.940382 -0.287557 -5.02443e-17)
(0.958048 -0.124983 -9.5209e-17)
(0.448013 -0.0516258 2.59099e-18)
(0.42521 -0.0263693 -1.25786e-18)
(0.471965 -0.105963 -2.33334e-17)
(0.439519 -0.0810128 5.91266e-18)
(0.515296 -0.164403 -9.09252e-17)
(0.47126 -0.14 -4.43704e-17)
(0.583842 -0.226632 -9.82871e-17)
(0.524066 -0.205223 -1.02297e-16)
(0.686979 -0.287093 -1.38051e-17)
(0.607984 -0.276683 -5.4684e-17)
(0.83357 -0.312946 4.51549e-18)
(0.726128 -0.345424 2.41142e-17)
(0.97453 -0.222703 -4.5096e-17)
(0.937236 -0.338736 -1.04687e-17)
(0.967706 -0.126292 -3.23751e-17)
(0.416103 -0.0555706 2.05566e-18)
(0.393026 -0.0280111 2.34836e-19)
(0.437797 -0.114857 -1.49975e-17)
(0.405568 -0.0863473 1.10126e-18)
(0.477734 -0.18069 -5.51981e-17)
(0.433493 -0.150583 -3.85211e-17)
(0.543297 -0.255284 -5.80901e-17)
(0.480851 -0.224644 -7.73541e-17)
(0.650139 -0.335155 -1.68716e-17)
(0.559112 -0.313127 -5.06428e-17)
(0.81303 -0.370228 9.38922e-18)
(0.683314 -0.407221 -5.51919e-18)
(0.974207 -0.249954 4.14046e-18)
(0.895704 -0.39939 1.44388e-17)
(0.959282 -0.128672 -1.4525e-18)
(0.381864 -0.0585687 -7.58751e-19)
(0.359128 -0.0291061 1.23013e-18)
(0.400123 -0.121796 -2.2527e-17)
(0.369249 -0.0899114 -6.13101e-18)
(0.433859 -0.194229 -6.07535e-17)
(0.391598 -0.157857 -4.18965e-17)
(0.490747 -0.282357 -7.00772e-17)
(0.429161 -0.239159 -7.86663e-17)
(0.591434 -0.38588 -3.96397e-17)
(0.493363 -0.345301 -6.42333e-17)
(0.75152 -0.43729 -7.00142e-19)
(0.605665 -0.465224 -2.15569e-17)
(0.927637 -0.28707 9.7732e-18)
(0.778396 -0.466258 1.82281e-17)
(0.890647 -0.154867 4.08087e-18)
(0.345865 -0.0602061 -4.18615e-18)
(0.324149 -0.0294875 1.12315e-18)
(0.359444 -0.125629 -2.5539e-17)
(0.331339 -0.0911012 -8.3922e-18)
(0.383779 -0.202405 -5.9796e-17)
(0.346743 -0.160222 -3.37988e-17)
(0.424894 -0.302063 -7.28599e-17)
(0.371048 -0.245123 -6.39239e-17)
(0.500089 -0.426162 -4.62645e-17)
(0.413318 -0.362774 -5.68667e-17)
(0.620354 -0.501547 -2.81981e-18)
(0.486255 -0.499297 -2.29067e-17)
(0.792342 -0.358535 1.33541e-17)
(0.578764 -0.528662 1.73284e-17)
(0.706225 -0.247273 1.38621e-17)
(0.30887 -0.0601784 -3.06957e-18)
(0.288847 -0.0290454 4.43754e-19)
(0.317192 -0.125503 -1.65446e-17)
(0.293444 -0.0897039 -5.81356e-18)
(0.330829 -0.202963 -3.7662e-17)
(0.302411 -0.157205 -1.93963e-17)
(0.352289 -0.306265 -4.76307e-17)
(0.314762 -0.240839 -3.84081e-17)
(0.38508 -0.436406 -3.33771e-17)
(0.335104 -0.357009 -3.97905e-17)
(0.427746 -0.535245 -2.90807e-18)
(0.359007 -0.489944 -2.31371e-17)
(0.553436 -0.47572 1.8082e-17)
(0.369993 -0.563475 8.64386e-18)
(0.442272 -0.453284 2.63073e-17)
(0.931227 0.0399454 -1.93504e-14)
(0.837284 0.0554628 -2.35828e-14)
(0.84392 0.0439736 -2.17724e-15)
(0.968228 0.0676545 -3.87965e-15)
(0.753486 0.0427143 6.22596e-16)
(0.767157 0.0675226 5.95362e-15)
(0.664956 0.0401355 1.60178e-15)
(0.709359 0.0637261 9.51725e-16)
(0.579089 0.0371613 3.90124e-16)
(0.618246 0.0595946 4.0959e-15)
(0.497546 0.0337115 -1.00376e-14)
(0.534213 0.0545657 4.38417e-15)
(0.421636 0.0299862 -3.0256e-14)
(0.455194 0.0489769 -1.29624e-14)
(0.352343 0.0261617 -3.33015e-14)
(0.382565 0.0431057 -3.01353e-14)
(0.290294 0.0223982 -1.23006e-14)
(0.317051 0.0372164 -1.85248e-14)
(0.23576 0.018829 -5.37122e-15)
(0.25906 0.0315375 5.0302e-15)
(0.188682 0.0155544 -1.74471e-14)
(0.208652 0.0262497 -5.09675e-15)
(0.148728 0.0126405 -2.39962e-14)
(0.165586 0.0214799 -8.59856e-15)
(0.115348 0.0101213 -3.63545e-14)
(0.129385 0.0173028 -1.17252e-14)
(0.0878412 0.00800445 -2.40001e-14)
(0.0993962 0.0137474 -3.28186e-14)
(0.0654146 0.00627773 -2.67303e-15)
(0.0748547 0.0108069 1.30562e-15)
(0.0472271 0.00491705 -1.14208e-14)
(0.0549349 0.0084502 -3.36352e-15)
(0.0324182 0.00389693 8.68399e-15)
(0.0387877 0.00663399 -5.32488e-15)
(0.0200931 0.00320488 4.18242e-14)
(0.0255432 0.00532348 2.23985e-14)
(0.00924915 0.0026809 2.68525e-14)
(0.0142496 0.00451595 3.31668e-14)
(0.00421741 0.00371308 2.36237e-15)
(0.930827 0.0943344 -5.5664e-15)
(0.83671 0.107478 -3.21717e-15)
(0.840412 0.103626 5.76105e-15)
(0.964649 0.133947 -1.02036e-17)
(0.749847 0.100156 7.93277e-15)
(0.761922 0.130431 7.54436e-15)
(0.659928 0.0944202 3.87263e-15)
(0.702129 0.12438 2.92019e-16)
(0.57323 0.0872714 1.01697e-14)
(0.609681 0.115809 4.85812e-15)
(0.491221 0.0790826 4.97701e-15)
(0.524725 0.105732 9.07486e-15)
(0.415185 0.0702641 -7.72469e-15)
(0.445331 0.0946222 1.07846e-16)
(0.346058 0.0612298 -1.07657e-14)
(0.372813 0.0830326 -7.26273e-15)
(0.284408 0.0523565 1.26958e-15)
(0.307806 0.0714765 -7.65914e-15)
(0.230438 0.0439578 8.43232e-15)
(0.250614 0.0603955 3.427e-15)
(0.184022 0.0362677 9.57737e-15)
(0.201188 0.0501312 3.12915e-15)
(0.144768 0.0294379 1.12425e-14)
(0.159189 0.040917 8.73553e-15)
(0.112079 0.0235442 -6.82768e-17)
(0.124057 0.0328826 4.47859e-15)
(0.0852201 0.0185999 -3.83624e-15)
(0.0950833 0.0260703 -4.4087e-15)
(0.063379 0.014573 1.61438e-15)
(0.0714655 0.0204552 6.09754e-16)
(0.0457072 0.0114038 6.6131e-15)
(0.0523616 0.0159676 1.45402e-15)
(0.0313473 0.00903028 7.66722e-15)
(0.0369223 0.0125172 6.10224e-15)
(0.0194162 0.00742234 5.88159e-15)
(0.0242903 0.0100322 3.58021e-15)
(0.00892702 0.0062036 4.46934e-15)
(0.0135394 0.00850563 1.31805e-14)
(0.00400381 0.00698243 5.1729e-15)
(0.928153 0.150678 2.67884e-15)
(0.837151 0.158892 3.53984e-15)
(0.83502 0.165182 1.42019e-15)
(0.958786 0.197958 4.79381e-15)
(0.741717 0.158974 -3.70439e-16)
(0.752897 0.191871 -1.0587e-15)
(0.649724 0.149708 1.05627e-15)
(0.690956 0.182658 -2.73413e-17)
(0.561565 0.137841 3.35245e-15)
(0.595864 0.169384 -7.34223e-16)
(0.478769 0.12442 4.33795e-15)
(0.509649 0.153978 -4.28518e-16)
(0.402596 0.110093 1.13833e-15)
(0.429798 0.13716 2.90629e-15)
(0.333897 0.0955409 -3.80819e-15)
(0.357584 0.119791 2.15272e-16)
(0.273113 0.0813654 -6.06306e-15)
(0.293486 0.102635 -2.04262e-15)
(0.220308 0.0680503 -2.40134e-15)
(0.237631 0.0863323 -3.75829e-15)
(0.175221 0.0559439 1.80435e-15)
(0.189793 0.0713564 1.91126e-15)
(0.137343 0.0452594 1.57582e-15)
(0.149482 0.0580137 2.34293e-15)
(0.105989 0.0360906 3.19246e-16)
(0.116018 0.0464575 2.29633e-16)
(0.080366 0.0284364 1.40537e-16)
(0.0886069 0.0367167 -4.92109e-16)
(0.059629 0.0222281 3.73204e-16)
(0.0663969 0.0287282 2.12803e-16)
(0.0429204 0.0173589 5.62012e-16)
(0.0485263 0.022371 1.95763e-16)
(0.029392 0.0137224 1.77252e-15)
(0.0341496 0.0175 -3.28098e-17)
(0.018185 0.0112644 1.09524e-14)
(0.0224323 0.0140015 -1.48898e-15)
(0.00835377 0.0094053 1.45233e-14)
(0.0124887 0.0118567 1.06205e-14)
(0.00368944 0.00972273 2.11195e-15)
(0.924314 0.207537 5.67623e-15)
(0.83782 0.210532 3.12833e-15)
(0.826949 0.226898 2.43932e-15)
(0.950601 0.261433 1.28851e-15)
(0.729825 0.217645 -7.40196e-16)
(0.740408 0.252528 -8.44757e-16)
(0.634852 0.204201 -1.85e-15)
(0.675687 0.239445 -3.19053e-16)
(0.544714 0.187115 -4.64476e-15)
(0.577112 0.220849 -2.73718e-15)
(0.460953 0.168026 -2.01958e-15)
(0.489441 0.199592 -4.13459e-15)
(0.384763 0.147879 2.0464e-15)
(0.409215 0.176693 1.13252e-15)
(0.316836 0.127642 2.11384e-15)
(0.337632 0.153352 1.53131e-15)
(0.257413 0.108136 3.93557e-16)
(0.274925 0.130587 1.41498e-15)
(0.206346 0.089993 4.95827e-16)
(0.220968 0.109205 -6.13401e-16)
(0.163183 0.0736436 2.452e-15)
(0.175302 0.0897728 1.47565e-15)
(0.127257 0.0593297 1.02677e-15)
(0.137239 0.0726256 1.40811e-15)
(0.0977674 0.0471331 -5.82541e-16)
(0.105951 0.0579004 -9.21259e-16)
(0.0738479 0.0370133 -4.41728e-16)
(0.0805468 0.0455801 -1.49061e-15)
(0.0546164 0.028848 3.03569e-17)
(0.0601225 0.0355399 -2.57051e-17)
(0.0392093 0.0224716 -4.0996e-16)
(0.0437996 0.0275923 1.09734e-15)
(0.0267959 0.0177259 -3.34713e-15)
(0.0307445 0.021529 3.02755e-15)
(0.0165537 0.0145268 -2.24636e-15)
(0.0201567 0.0171889 9.44114e-17)
(0.00759393 0.012114 -1.88934e-15)
(0.0112043 0.0145346 9.40453e-16)
(0.00330488 0.011903 -6.27388e-16)
(0.919163 0.265014 -1.22498e-15)
(0.83844 0.263351 3.18193e-16)
(0.816125 0.288698 -1.95757e-15)
(0.939904 0.325489 -3.95319e-15)
(0.714124 0.27579 -4.33115e-16)
(0.724385 0.313091 -1.97617e-15)
(0.615423 0.257387 -1.16188e-15)
(0.656157 0.295282 -1.61667e-15)
(0.522972 0.234379 -2.20065e-15)
(0.553508 0.270485 -1.61208e-15)
(0.438261 0.20907 -1.07822e-15)
(0.464401 0.242672 -1.04157e-15)
(0.362338 0.182741 6.09656e-16)
(0.384076 0.213196 1.93214e-15)
(0.295645 0.156664 8.34113e-16)
(0.313605 0.183632 -4.12384e-16)
(0.238138 0.131858 4.45032e-16)
(0.252866 0.155229 -5.51942e-16)
(0.189389 0.109064 3.28257e-16)
(0.201407 0.128921 -1.85665e-16)
(0.148705 0.0887483 4.32263e-16)
(0.158478 0.105311 -1.148e-15)
(0.115233 0.0711355 -4.97975e-16)
(0.123163 0.0847086 -1.8962e-15)
(0.0880413 0.0562564 -1.81938e-15)
(0.0944777 0.0671897 -7.23749e-17)
(0.0661877 0.0440023 -1.10154e-15)
(0.07143 0.0526559 -1.14741e-16)
(0.048758 0.0341765 1.02115e-15)
(0.0530704 0.040897 1.19459e-16)
(0.0348917 0.026543 4.50139e-15)
(0.0385147 0.0316446 1.02245e-15)
(0.0237861 0.0208851 6.5261e-15)
(0.0269532 0.0246201 4.66233e-15)
(0.0146675 0.0170827 3.26775e-15)
(0.0176308 0.019611 5.98546e-15)
(0.00671775 0.0142252 2.23259e-15)
(0.00978236 0.0165559 4.60123e-17)
(0.00288041 0.0135389 -2.79165e-15)
(0.91251 0.323923 -2.31521e-15)
(0.838871 0.318297 -1.96745e-16)
(0.802299 0.351226 -3.99141e-15)
(0.926344 0.391041 -2.71717e-15)
(0.694378 0.333756 -3.14361e-15)
(0.704516 0.374128 -1.61484e-15)
(0.591344 0.309409 -2.05944e-15)
(0.632075 0.350485 -1.44899e-15)
(0.496451 0.279582 -4.77824e-16)
(0.524981 0.318363 -1.0384e-15)
(0.411019 0.247387 1.88971e-15)
(0.434708 0.283147 4.83834e-16)
(0.335832 0.21447 9.50016e-16)
(0.354779 0.246538 3.24561e-15)
(0.270967 0.182405 -1.77406e-15)
(0.286064 0.210498 -4.27031e-16)
(0.215999 0.152367 -1.17575e-15)
(0.227968 0.176466 -1.64802e-15)
(0.170157 0.125148 -1.628e-15)
(0.179635 0.145432 -8.65519e-16)
(0.13247 0.101191 -3.43048e-15)
(0.139985 0.117968 -2.22297e-15)
(0.101884 0.0806485 -1.49551e-15)
(0.107864 0.0942962 -1.92106e-15)
(0.0773371 0.0634606 1.60437e-15)
(0.0821266 0.0743818 9.47985e-17)
(0.0578194 0.0494205 1.08369e-15)
(0.0616965 0.0580118 1.40695e-15)
(0.0423977 0.03824 1.11898e-16)
(0.0455934 0.0448696 -8.22065e-16)
(0.0302276 0.0296029 1.14509e-15)
(0.0329433 0.0345947 8.47037e-16)
(0.0205474 0.0232299 4.11772e-15)
(0.0229742 0.0268341 9.71054e-17)
(0.0126437 0.0189612 2.87534e-15)
(0.0149891 0.0213224 3.75478e-15)
(0.00578004 0.0157654 -4.86686e-15)
(0.00829916 0.0179701 -3.1463e-16)
(0.00243874 0.0146736 -5.19493e-15)
(0.904062 0.385147 -5.72555e-16)
(0.838935 0.376372 -1.67404e-17)
(0.785059 0.415132 -4.11312e-16)
(0.909404 0.458896 -2.10253e-16)
(0.670187 0.391877 3.20959e-17)
(0.680317 0.436072 1.13909e-15)
(0.562386 0.360338 -4.57961e-16)
(0.603032 0.405169 8.28626e-16)
(0.465168 0.322614 -1.09685e-16)
(0.491384 0.364366 -6.50462e-17)
(0.379485 0.282791 1.79076e-15)
(0.400508 0.320806 3.05791e-16)
(0.305702 0.242878 1.92189e-15)
(0.321698 0.276505 1.98849e-15)
(0.243388 0.204722 -2.9945e-16)
(0.255546 0.233795 8.13546e-16)
(0.191639 0.169582 -1.34961e-15)
(0.200845 0.194219 -8.79351e-16)
(0.149291 0.138225 -1.4384e-15)
(0.15628 0.158737 -8.01164e-16)
(0.115075 0.110999 -7.56648e-16)
(0.120418 0.127801 -7.20561e-16)
(0.0877363 0.0879294 -3.83152e-16)
(0.0918677 0.101484 7.51776e-16)
(0.0660989 0.0688233 -1.02557e-16)
(0.0693451 0.0795915 -1.41253e-15)
(0.0491034 0.0533512 -4.36769e-16)
(0.0517114 0.0617664 -3.03621e-15)
(0.0358167 0.0411192 -1.1419e-16)
(0.0379789 0.04757 -2.06879e-15)
(0.0254272 0.0317253 -1.68799e-16)
(0.0273031 0.0365437 5.07084e-16)
(0.0172278 0.024826 -2.70851e-16)
(0.018965 0.0282593 -7.9726e-16)
(0.0105755 0.0202209 6.70033e-16)
(0.0123364 0.0223996 1.51467e-15)
(0.0048243 0.0167864 -6.13206e-16)
(0.00681408 0.0188457 -4.74018e-16)
(0.00199763 0.0153656 -4.14189e-16)
(0.893396 0.449579 3.33098e-16)
(0.838368 0.438699 -5.02493e-16)
(0.76383 0.480966 1.28459e-15)
(0.88837 0.529784 3.66938e-16)
(0.641017 0.450328 1.90743e-15)
(0.651146 0.499218 1.56622e-15)
(0.528247 0.410058 1.20777e-15)
(0.568525 0.459245 1.64728e-15)
(0.429116 0.363216 3.35625e-16)
(0.452557 0.408197 6.74863e-16)
(0.343921 0.315005 4.96203e-16)
(0.361977 0.355323 -5.93811e-16)
(0.272409 0.267743 9.19671e-16)
(0.285242 0.302829 -1.78794e-16)
(0.213479 0.223482 2.54519e-16)
(0.222598 0.253363 2.18312e-16)
(0.165668 0.183465 -3.50371e-16)
(0.172099 0.208444 -1.83325e-16)
(0.127379 0.148334 -1.08799e-16)
(0.131929 0.168883 6.28738e-16)
(0.0970485 0.118264 7.34091e-16)
(0.100307 0.134924 7.64633e-17)
(0.0732421 0.0930984 -2.407e-16)
(0.0756297 0.10642 7.32797e-16)
(0.0546973 0.0724743 -4.24183e-15)
(0.0565071 0.0829766 -1.15391e-15)
(0.040333 0.0559202 -4.61051e-15)
(0.0417714 0.0640724 -4.30737e-15)
(0.0292392 0.0429284 -1.47002e-15)
(0.0304546 0.0491367 -2.79657e-15)
(0.0206553 0.0330102 -9.88514e-17)
(0.0217629 0.0376118 -2.94737e-15)
(0.0139414 0.0257599 9.24506e-16)
(0.0150454 0.0289978 -2.06932e-16)
(0.00853426 0.0209371 4.11555e-16)
(0.00975216 0.0229296 -3.31172e-16)
(0.00388353 0.0173541 -2.82071e-16)
(0.00537132 0.0192595 -2.31753e-15)
(0.00157016 0.0156802 1.37697e-15)
(0.879928 0.518167 -4.69366e-16)
(0.836771 0.506583 -1.14411e-15)
(0.737854 0.549181 6.39964e-16)
(0.862306 0.60437 2.87718e-16)
(0.606213 0.509113 1.317e-15)
(0.616215 0.563694 1.03262e-15)
(0.488599 0.458272 1.13368e-15)
(0.527996 0.512402 1.00597e-15)
(0.388324 0.400998 -2.19761e-16)
(0.408383 0.449392 5.58794e-16)
(0.304641 0.343684 -1.23989e-15)
(0.31936 0.386279 -7.16851e-16)
(0.236449 0.288836 -8.50197e-16)
(0.245875 0.325222 -7.93232e-16)
(0.18182 0.23859 -2.02599e-16)
(0.187797 0.269073 -5.83828e-16)
(0.138667 0.194034 7.57684e-16)
(0.142319 0.219148 -2.72155e-17)
(0.104954 0.155575 8.0487e-16)
(0.107128 0.175978 1.16257e-15)
(0.0788514 0.123134 7.70088e-17)
(0.0801227 0.139499 -2.89075e-17)
(0.0587812 0.0963216 -1.47955e-16)
(0.0595353 0.10929 -1.95899e-16)
(0.0434337 0.0745785 -1.22534e-15)
(0.0439171 0.0847247 -3.42381e-16)
(0.0317396 0.0572794 -2.564e-15)
(0.0321094 0.0651029 -1.15946e-15)
(0.0228376 0.0438009 -4.21351e-15)
(0.0231939 0.049721 -1.81113e-15)
(0.0160357 0.033571 -3.04354e-15)
(0.0164482 0.0379271 -2.54726e-15)
(0.010773 0.026127 -1.41125e-15)
(0.0113025 0.0291565 -1.0092e-15)
(0.00657211 0.0211919 -2.95331e-15)
(0.00729276 0.0230018 -1.08295e-15)
(0.00298156 0.017539 -7.16896e-16)
(0.00400202 0.0192894 -9.57036e-16)
(0.00116547 0.0156829 2.28742e-15)
(0.862858 0.591942 -4.17258e-16)
(0.833536 0.581592 -7.23586e-16)
(0.706176 0.62011 6.66027e-16)
(0.829999 0.68323 4.11013e-16)
(0.565021 0.568038 7.35612e-16)
(0.574594 0.629428 1.20482e-15)
(0.44314 0.504493 4.55049e-16)
(0.480871 0.564086 4.41058e-16)
(0.342896 0.435457 7.80336e-17)
(0.358848 0.487343 4.28675e-16)
(0.262036 0.368453 -2.90907e-16)
(0.273014 0.413205 3.52687e-16)
(0.19837 0.305949 -5.37956e-16)
(0.204139 0.343409 2.39759e-16)
(0.149002 0.250001 -4.13679e-16)
(0.151746 0.280844 -6.49509e-16)
(0.111193 0.201367 3.65117e-16)
(0.11208 0.226399 8.22105e-17)
(0.0825011 0.160102 3.60869e-16)
(0.0823731 0.180181 8.95169e-16)
(0.0608796 0.1258 -2.90215e-16)
(0.0602698 0.141733 -8.72195e-17)
(0.0446645 0.0977967 -3.82196e-16)
(0.043901 0.110312 -1.5538e-15)
(0.0325447 0.0753218 -2.83538e-16)
(0.0318134 0.0850413 -8.24976e-16)
(0.0234985 0.0575931 -4.44089e-16)
(0.0229004 0.0650397 -6.87097e-16)
(0.0167383 0.0438762 -2.24378e-16)
(0.0163221 0.0494774 -1.54803e-15)
(0.0116571 0.0335236 -5.97945e-16)
(0.0114466 0.0376171 1.51787e-15)
(0.00778161 0.0260233 -6.96208e-16)
(0.00779545 0.0288393 -4.47535e-17)
(0.00472482 0.0210667 8.23059e-16)
(0.00499583 0.0227023 1.73056e-16)
(0.00213451 0.0174108 1.92639e-15)
(0.00272654 0.0190098 1.80163e-15)
(0.000789409 0.0154355 1.37127e-15)
(0.841091 0.672048 6.94166e-17)
(0.827758 0.665647 -2.71016e-16)
(0.66762 0.693924 9.28606e-16)
(0.7899 0.766797 2.79618e-16)
(0.51662 0.626669 9.19593e-16)
(0.525237 0.69609 1.48679e-15)
(0.391648 0.548041 4.15893e-16)
(0.426621 0.613478 6.07774e-16)
(0.293057 0.46601 6.89373e-16)
(0.304093 0.52133 6.03521e-16)
(0.216602 0.388934 8.56615e-16)
(0.223423 0.435616 8.48828e-16)
(0.158775 0.318926 1.2772e-16)
(0.160653 0.357165 5.69264e-16)
(0.115617 0.257739 -1.73005e-16)
(0.115071 0.28867 -4.27058e-16)
(0.0837656 0.205605 5.91748e-16)
(0.0819286 0.230335 4.02275e-16)
(0.0604428 0.16212 4.62449e-16)
(0.0581088 0.18171 6.63315e-16)
(0.0434614 0.126485 -1.29875e-15)
(0.0410879 0.141869 -1.02638e-16)
(0.0311369 0.0977409 -1.97003e-15)
(0.0289761 0.109723 -1.784e-15)
(0.0222076 0.0748993 -1.20785e-15)
(0.0203737 0.084139 -5.40013e-16)
(0.0157351 0.0570281 -1.74274e-15)
(0.0142678 0.0640646 -6.60011e-17)
(0.0110281 0.0432923 1.29418e-16)
(0.00992341 0.0485555 -1.75599e-15)
(0.00757767 0.0329804 2.03352e-15)
(0.00681403 0.0368028 1.89249e-15)
(0.00500497 0.0255402 7.83406e-16)
(0.00456063 0.0281435 7.45778e-16)
(0.00301475 0.0206381 1.11461e-15)
(0.0028836 0.0221101 -3.30388e-16)
(0.00135222 0.017034 1.27083e-15)
(0.00155651 0.0184882 1.04473e-15)
(0.00044525 0.014994 3.40344e-16)
(0.813127 0.759753 -6.83797e-17)
(0.818092 0.761149 -5.84443e-16)
(0.620772 0.770561 8.18528e-16)
(0.740035 0.855271 -4.49517e-17)
(0.460174 0.684295 1.18399e-15)
(0.467017 0.763024 1.30243e-15)
(0.334048 0.588053 7.85661e-16)
(0.364829 0.659489 9.36733e-16)
(0.239181 0.49203 7.56714e-16)
(0.244471 0.550567 6.20779e-16)
(0.168943 0.404785 5.74078e-16)
(0.171213 0.453056 1.89312e-16)
(0.118312 0.327683 3.51167e-17)
(0.116102 0.366346 -3.05839e-16)
(0.0822456 0.261901 1.25178e-16)
(0.078395 0.292631 -5.61091e-16)
(0.0568592 0.206953 4.72254e-16)
(0.0523703 0.231162 2.21112e-16)
(0.0391396 0.161872 1.21258e-16)
(0.0347143 0.180823 -4.25699e-17)
(0.0268578 0.125436 -5.76406e-16)
(0.0228475 0.140172 -3.73872e-16)
(0.0183811 0.09638 -4.17891e-16)
(0.014946 0.107766 -5.79796e-16)
(0.0125467 0.0735058 5.46607e-16)
(0.00972063 0.0822279 2.68382e-16)
(0.00853175 0.0557457 -9.2247e-17)
(0.00629069 0.0623512 5.05655e-16)
(0.00576049 0.0421797 -5.45755e-17)
(0.00404726 0.0470953 -9.01086e-16)
(0.00383158 0.0320453 6.62077e-16)
(0.00258085 0.0355949 6.64617e-16)
(0.00246393 0.0247611 -3.19113e-16)
(0.00161599 0.0271564 -2.21357e-17)
(0.00145363 0.0199751 -3.85514e-16)
(0.00096623 0.0212954 -2.23606e-15)
(0.000639642 0.0164667 1.56703e-16)
(0.000496884 0.0177844 -2.3292e-16)
(0.000134281 0.0144074 7.3833e-17)
(0.776873 0.856469 -5.5845e-16)
(0.802574 0.871151 -1.05972e-15)
(0.563981 0.849622 4.25128e-16)
(0.677898 0.948444 -2.60083e-16)
(0.394908 0.739889 1.06514e-15)
(0.39881 0.829175 9.12221e-16)
(0.270465 0.623517 7.77831e-16)
(0.295275 0.700786 9.7311e-16)
(0.181812 0.512897 8.00274e-17)
(0.180584 0.574263 3.04638e-16)
(0.119771 0.415741 -6.47666e-16)
(0.117134 0.465143 -6.12238e-16)
(0.0776514 0.332231 -8.7221e-16)
(0.0712169 0.370918 -1.04637e-15)
(0.0494414 0.262668 -4.63096e-16)
(0.0423217 0.292902 -6.31258e-16)
(0.0308881 0.205666 -2.68348e-16)
(0.0238514 0.229151 -2.58513e-16)
(0.018884 0.159635 -5.14025e-16)
(0.0124989 0.177817 -5.66673e-16)
(0.0112657 0.122912 -3.78986e-16)
(0.00575177 0.13692 -5.23151e-16)
(0.00652474 0.0939392 7.72644e-17)
(0.00193674 0.104682 -1.47323e-16)
(0.0036412 0.0713283 2.31839e-16)
(-7.11644e-05 0.0795089 2.11945e-16)
(0.0019363 0.0538966 -2.72523e-16)
(-0.000989477 0.0600607 -3.52088e-16)
(0.000963237 0.0406572 -2.0624e-16)
(-0.00128477 0.0452231 -1.24124e-15)
(0.000434227 0.0308115 1.09995e-17)
(-0.00124288 0.0340915 4.58295e-16)
(0.00016665 0.0237597 -1.85605e-15)
(-0.00103449 0.0259545 4.26588e-16)
(4.52935e-05 0.0191378 -2.07316e-15)
(-0.000755244 0.020319 -2.4914e-15)
(-3.11403e-07 0.0157591 -3.08481e-16)
(-0.000452372 0.0169488 -1.16114e-15)
(-0.00014358 0.0137179 1.76437e-16)
(0.729363 0.963759 -7.71635e-16)
(0.778356 0.99961 -1.11062e-15)
(0.495391 0.930224 2.11662e-16)
(0.600271 1.04542 -2.45217e-16)
(0.320204 0.792094 8.25958e-16)
(0.319631 0.893016 6.38514e-16)
(0.201279 0.653318 5.19538e-16)
(0.218025 0.735839 7.32135e-16)
(0.121658 0.528049 -3.58299e-16)
(0.1133 0.591699 -1.44029e-17)
(0.0698833 0.421637 -9.93086e-16)
(0.0620376 0.471598 -7.3544e-16)
(0.0374671 0.332689 -8.1464e-16)
(0.0267477 0.370977 -8.63937e-16)
(0.0177095 0.260297 -4.34301e-16)
(0.00740632 0.289745 -2.8962e-16)
(0.00620395 0.202047 -5.43311e-16)
(-0.00325319 0.224624 -2.31907e-16)
(-8.1915e-05 0.155706 -5.74844e-16)
(-0.00830032 0.172999 -2.24146e-16)
(-0.003192 0.119176 -3.00596e-16)
(-0.0100615 0.132403 2.69155e-16)
(-0.0043797 0.0906344 -1.64984e-17)
(-0.00997992 0.100708 9.48408e-17)
(-0.00449228 0.0685389 -3.45103e-16)
(-0.00896826 0.0761669 8.88606e-17)
(-0.00405061 0.0516151 -1.27574e-15)
(-0.00756131 0.0573353 -6.67503e-16)
(-0.00336816 0.0388288 -5.96481e-16)
(-0.00607266 0.0430477 -1.4627e-15)
(-0.00262019 0.0293595 8.50324e-16)
(-0.00466211 0.0323761 3.91227e-16)
(-0.00189221 0.0225988 -2.03085e-16)
(-0.00339704 0.0246018 7.97444e-16)
(-0.00121389 0.0181776 -1.61677e-15)
(-0.00228624 0.0192315 -9.49855e-16)
(-0.000574315 0.0149536 -6.89683e-16)
(-0.00129486 0.0160251 -1.17366e-15)
(-0.000389544 0.0129589 2.3467e-16)
(0.66624 1.0833 -6.06892e-16)
(0.741362 1.1518 -7.0223e-16)
(0.413022 1.01078 1.66791e-16)
(0.502959 1.14412 -1.239e-16)
(0.235723 0.839208 5.51121e-16)
(0.228854 0.952509 3.14885e-16)
(0.127163 0.676311 2.2066e-16)
(0.133518 0.763015 2.98379e-16)
(0.059526 0.537047 -3.77815e-16)
(0.0437584 0.602324 -1.89481e-16)
(0.0201592 0.422454 -6.15137e-16)
(0.00683198 0.472246 -6.16403e-16)
(-0.00165079 0.329302 -3.62771e-16)
(-0.0165676 0.366788 -5.35062e-16)
(-0.0125689 0.255113 -9.82294e-17)
(-0.0258715 0.283508 -1.34774e-16)
(-0.0170013 0.196426 6.89866e-17)
(-0.0286491 0.217947 -4.90791e-17)
(-0.0177197 0.150375 5.76758e-16)
(-0.0275216 0.166704 5.29755e-16)
(-0.0164502 0.114469 6.39924e-16)
(-0.024515 0.12686 1.11691e-15)
(-0.0142695 0.0866623 1.94074e-16)
(-0.0207756 0.0960439 4.31187e-16)
(-0.0118063 0.0652928 -2.2335e-16)
(-0.0169691 0.0723641 1.72154e-16)
(-0.0094031 0.0490213 -8.52491e-16)
(-0.0134362 0.0543033 5.24963e-17)
(-0.00722634 0.036786 -5.11324e-16)
(-0.0103324 0.0406672 -4.99639e-16)
(-0.00533358 0.0277584 3.45874e-16)
(-0.00769278 0.0305219 3.55098e-17)
(-0.00371733 0.0213316 7.43277e-17)
(-0.00548511 0.0231534 1.39477e-16)
(-0.0023286 0.0171371 -5.34708e-16)
(-0.00363663 0.0180754 -5.87928e-17)
(-0.00108006 0.0140851 -2.86952e-16)
(-0.00203658 0.0150475 -3.55712e-16)
(-0.000605573 0.012159 -1.58645e-16)
(0.581107 1.21696 -2.42235e-16)
(0.685643 1.33486 -8.53084e-17)
(0.314961 1.08873 2.06082e-17)
(0.380394 1.2406 -3.5853e-17)
(0.141542 0.879276 7.68318e-17)
(0.126544 1.00513 -6.80464e-17)
(0.0491882 0.691509 -9.33386e-17)
(0.0426433 0.780666 -9.46227e-17)
(-0.0041122 0.539602 -4.19032e-16)
(-0.0267177 0.606068 -3.16656e-16)
(-0.0287164 0.41822 -5.40088e-16)
(-0.0475861 0.466931 -6.74274e-16)
(-0.0390773 0.322398 -3.15791e-16)
(-0.0580126 0.358644 -4.76368e-16)
(-0.0409915 0.247491 -8.75122e-17)
(-0.0571218 0.274596 -4.18408e-17)
(-0.0384311 0.189149 3.91353e-16)
(-0.0521279 0.209483 -5.2651e-17)
(-0.0337832 0.143929 1.04499e-15)
(-0.0450733 0.159235 5.79635e-16)
(-0.02843 0.10902 9.12412e-16)
(-0.0375823 0.120558 1.1715e-15)
(-0.0231516 0.0822023 4.07517e-16)
(-0.0304566 0.0908925 6.63722e-16)
(-0.0183418 0.0617273 4.30352e-16)
(-0.0240969 0.0682491 5.2366e-16)
(-0.0141638 0.0462185 3.78087e-16)
(-0.0186425 0.0510724 1.04703e-15)
(-0.0106437 0.0346056 2.12771e-17)
(-0.0140915 0.0381605 3.58045e-16)
(-0.00772908 0.0260657 -1.57512e-16)
(-0.0103583 0.0285871 -2.32071e-16)
(-0.00532482 0.0200017 1.18679e-17)
(-0.0073169 0.021653 -3.46915e-16)
(-0.00330879 0.0160511 1.06177e-16)
(-0.00481917 0.0168844 5.24747e-16)
(-0.00152416 0.0131819 -2.32651e-16)
(-0.00268498 0.0140439 3.17185e-16)
(-0.00079394 0.0113406 -7.58258e-16)
(0.468792 1.36614 1.09175e-16)
(0.6046 1.55644 4.58984e-16)
(0.200002 1.16054 -1.19582e-16)
(0.225442 1.32991 8.22711e-17)
(0.0382643 0.910201 -2.29531e-16)
(0.0136913 1.04815 -2.24743e-16)
(-0.0320854 0.697852 -3.07267e-16)
(-0.0533035 0.787643 -2.07547e-16)
(-0.0657059 0.535633 -5.6098e-16)
(-0.0966587 0.601693 -4.12608e-16)
(-0.0756658 0.409343 -6.11938e-16)
(-0.100268 0.456629 -6.44898e-16)
(-0.0743137 0.312394 -2.13509e-16)
(-0.0970104 0.34706 -2.71625e-16)
(-0.0672913 0.237833 -9.20704e-18)
(-0.0860511 0.263459 1.66645e-16)
(-0.05801 0.180559 1.32126e-16)
(-0.0735627 0.199618 -2.64349e-16)
(-0.0483142 0.136646 7.05853e-16)
(-0.0609229 0.150893 3.47341e-18)
(-0.0391773 0.103043 9.31484e-16)
(-0.0492785 0.113722 7.61948e-16)