/*--------------------------------*- C++ -*----------------------------------*\
  =========                 |
  \\      /  F ield         | OpenFOAM: The Open Source CFD Toolbox
   \\    /   O peration     | Website:  https://openfoam.org
    \\  /    A nd           | Version:  13
     \\/     M anipulation  |
\*---------------------------------------------------------------------------*/
FoamFile
{
    format      ascii;
    class       volScalarField;
    location    "1.1";
    object      alpha.oil;
}
// * * * * * * * * * * * * * * * * * * * * * * * * * * * * * * * * * * * * * //

dimensions      [];

internalField   nonuniform List<scalar> 
2268
(
3.50608e-17
2.99317e-15
7.14089e-14
4.25442e-13
1.17622e-12
2.98003e-12
6.76524e-12
1.41088e-11
2.85058e-11
5.54269e-11
1.04461e-10
1.95213e-10
3.6272e-10
6.5508e-10
1.22062e-09
2.11639e-09
3.54337e-09
6.51901e-09
1.02388e-08
1.06026e-08
0.000102011
0.000552826
0.000568521
2.66994e-16
6.9892e-15
6.58539e-14
3.15809e-13
9.9797e-13
2.82785e-12
7.46566e-12
1.91347e-11
4.45342e-11
1.01029e-10
2.15541e-10
4.44809e-10
9.00749e-10
1.78905e-09
3.20382e-09
6.39846e-09
1.49462e-08
3.35677e-08
7.08634e-08
9.40884e-08
5.63246e-08
0.000115041
0.000568522
4.36859e-16
6.93726e-15
5.26546e-14
2.63004e-13
1.07432e-12
3.70171e-12
1.09953e-11
3.0803e-11
8.46886e-11
2.34068e-10
4.78121e-10
9.47508e-10
1.94911e-09
3.70044e-09
6.23502e-09
9.9417e-09
3.00208e-08
7.4674e-08
1.02684e-07
8.40414e-08
5.69777e-08
8.99965e-08
0.000126296
5.60802e-16
1.08647e-14
7.52545e-14
3.88412e-13
1.71269e-12
5.833e-12
1.83635e-11
5.16339e-11
1.35349e-10
2.97601e-10
6.12953e-10
1.33723e-09
2.69851e-09
6.57108e-09
1.38171e-08
1.00194e-08
3.04086e-08
1.70612e-07
1.36572e-07
8.56181e-08
4.23218e-07
1.56333e-06
1.05403e-05
1.4395e-15
1.53761e-14
8.91438e-14
4.92268e-13
1.81647e-12
5.63039e-12
1.5264e-11
3.01673e-11
6.30105e-11
1.35432e-10
2.38502e-10
4.37891e-10
5.51339e-10
5.50534e-10
8.27453e-09
1.20339e-06
3.92245e-06
5.13048e-06
4.579e-06
3.38756e-06
6.76022e-06
1.52214e-06
1.4911e-06
7.6801e-16
9.85053e-15
5.62006e-14
2.4152e-13
8.10035e-13
2.12865e-12
4.01216e-12
9.29721e-12
2.1352e-11
5.18055e-11
1.45789e-10
7.2197e-10
3.54836e-09
9.8574e-09
1.73906e-07
4.15721e-06
7.51386e-06
7.50377e-06
7.51386e-06
7.51501e-06
1.06127e-05
0.000890655
0.00531266
1.9676e-16
3.05702e-15
1.90615e-14
7.50413e-14
1.73961e-13
1.89726e-13
2.42811e-13
3.62887e-12
2.99119e-11
1.63588e-10
1.2823e-09
9.84186e-09
3.83939e-08
1.54059e-07
7.09618e-07
2.30523e-06
4.6524e-06
6.52427e-06
5.8697e-06
2.51152e-06
2.61975e-06
0.0375397
0.0607328
2.24252e-17
3.73122e-16
3.56898e-15
1.13478e-14
1.40215e-14
9.36042e-14
2.78893e-12
3.32769e-11
1.90921e-10
8.36438e-10
3.43796e-09
1.1536e-08
3.30079e-08
1.25575e-07
2.34605e-07
7.81512e-08
8.7978e-12
3.50352e-07
1.98174e-07
2.35554e-07
0.221638
0.548271
0.575709
0.939204
0.891934
0.849634
0.786914
0.813249
0.911931
0.905112
0.640811
0.276787
0.368804
0.456966
0.450056
0.303377
0.0631647
0.0644076
0.124313
0.187244
0.266047
0.255114
0.934127
0.536999
0.244652
0.326239
0.455968
0.791245
0.912002
0.551216
0.13338
0.127743
0.262645
0.364817
0.355264
0.070126
0.0636577
0.108898
0.23973
0.261273
0.315222
0.925356
0.257818
1.09348e-18
-6.81479e-19
0.0407112
0.577621
0.733271
0.47904
0.0431643
0.00429879
0.0463519
0.0898907
0.149291
0.256669
0.15469
0.150827
0.267767
0.187125
0.353864
0.933413
0.262796
-1.67574e-12
-8.0371e-11
-4.82775e-09
0.0787743
0.288617
0.204209
0.0106251
-9.97305e-09
1.01499e-18
0.0376862
0.291121
0.353719
0.308744
0.278595
0.260022
0.187624
0.332253
0.940097
0.113585
2.386e-08
8.53973e-07
1.41222e-06
-3.44419e-08
0.00266999
0.00262149
-3.02085e-19
-1.72531e-21
0.000455244
0.104291
0.209299
0.347219
0.325511
0.302864
0.196361
0.48578
0.456412
0.486879
0.000122261
2.99949e-15
9.49035e-07
6.91579e-06
4.367e-06
8.28772e-24
-1.20743e-16
1.0278e-26
-4.51074e-20
0.00931596
0.0299368
0.030548
0.0652837
0.131367
0.123546
0.11999
0.611786
0.431494
0.259119
0.171168
0.00623853
2.12901e-07
7.98305e-06
3.31302e-05
7.2747e-06
1.21053e-16
6.86019e-07
-8.79889e-14
0.0481908
0.184136
0.163923
0.0942734
0.0697097
0.0702525
0.177992
0.641512
0.424141
0.518596
0.616779
0.633957
0.107811
9.18116e-07
1.67258e-05
0.000112713
0.000107443
4.4454e-05
-8.67262e-07
0.0960935
0.246592
0.253173
0.180985
0.102391
0.182841
0.303611
0.694287
0.497128
1.27312e-18
2.69034e-17
3.18882e-16
8.57119e-16
9.39611e-15
4.91068e-13
7.80803e-12
3.93395e-11
1.65997e-10
5.78122e-10
1.48294e-09
4.17342e-09
1.4155e-08
3.70471e-08
3.07015e-08
7.87348e-10
-3.19396e-10
2.00535e-22
-3.45045e-20
0.262246
0.748804
0.782268
0.871967
4.00468e-20
4.39263e-19
7.73226e-18
5.91695e-16
2.1057e-14
6.23935e-13
9.3718e-12
5.30799e-11
1.97617e-10
6.83485e-10
2.51145e-09
6.9576e-09
9.04978e-09
5.6314e-09
2.11143e-09
2.26582e-13
3.35691e-14
0.038848
0.559135
0.820101
0.999997
0.99863
0.996693
7.81937e-20
1.46562e-18
2.53898e-17
7.95152e-16
2.47615e-13
1.35066e-11
1.19511e-10
6.34966e-10
2.63753e-09
1.1615e-08
2.26367e-08
2.78832e-08
1.72265e-08
1.82717e-09
1.816e-09
0.0764842
0.508395
0.819626
0.97553
0.982936
1
0.999999
1
3.58739e-20
2.94768e-19
7.08705e-18
2.43216e-14
4.94939e-12
1.87585e-10
1.05921e-09
4.04943e-09
2.64805e-08
5.89327e-08
5.66504e-08
1.65553e-08
1.61279e-08
0.0926994
0.472417
0.837902
0.931144
0.981874
0.999966
0.999996
0.999998
1
1
2.7037e-20
1.32597e-19
1.13586e-15
1.28549e-12
7.01073e-11
4.11643e-10
1.57795e-09
8.06334e-09
1.50612e-08
1.36367e-08
1.29264e-08
0.0864358
0.463627
0.784502
0.924538
0.999921
0.999982
0.999982
0.999973
0.999995
1
1
1
5.1636e-20
8.6697e-19
6.10494e-15
2.06999e-12
5.0627e-11
2.24567e-10
6.53754e-10
6.06491e-10
5.56745e-10
0.0737879
0.473295
0.732025
0.943925
0.999799
0.999998
0.999996
0.999974
0.999985
0.999994
0.999999
1
1
1
9.09281e-16
6.35719e-18
1.65127e-14
3.97747e-10
1.52418e-12
7.45524e-12
7.15136e-12
0.0231573
0.430739
0.688561
0.947636
0.994228
0.999999
1
0.999997
0.999975
0.999977
1
1
1
1
1
1
5.07267e-14
6.4893e-20
2.28539e-08
1.21412e-08
6.18133e-06
0.00376245
0.260842
0.678833
0.89956
0.989513
0.999997
1
1
1
0.999999
0.999996
1
1
1
1
0.998513
0.908817
0.601037
6.78087e-09
3.53715e-07
2.61891e-06
3.26532e-07
0.0241395
0.557661
0.90791
0.985329
0.999971
0.999999
0.999999
1
1
1
1
1
0.983725
0.837452
0.590066
0.372133
0.273153
0.185673
0.0340887
3.15576e-09
4.28466e-08
1.52413e-11
0.00862613
0.523809
0.990589
0.999904
0.999976
0.99998
0.999993
0.999999
0.999999
0.968075
0.865285
0.696104
0.462339
0.244855
0.11129
0.0212289
3.08929e-07
4.54149e-07
3.52402e-07
3.85282e-07
1.85932e-10
3.60654e-12
4.30259e-12
0.045355
0.728386
0.999839
0.99985
0.999891
0.896963
0.727796
0.569145
0.396217
0.230679
0.123044
0.0411869
0.00122882
-2.49891e-08
9.48365e-08
4.47419e-07
1.27601e-07
1.55058e-07
4.97388e-07
6.39013e-07
2.72518e-11
4.30259e-12
1.18619e-10
0.00769445
0.212536
0.39489
0.430116
0.308414
0.133805
0.0449811
0.0110883
6.6086e-07
4.58988e-07
2.96297e-07
2.85644e-07
1.68966e-07
7.121e-08
-2.4721e-11
1.45741e-08
5.37761e-08
2.25913e-07
1.19004e-06
1.72819e-06
3.0604e-12
4.29008e-08
9.94248e-06
0.000103694
-8.98955e-08
2.17166e-08
7.81029e-05
2.32003e-09
2.89555e-07
4.12891e-07
7.04157e-07
6.19015e-07
2.26173e-07
4.06688e-08
7.87104e-10
1.76656e-11
6.82081e-09
1.0125e-08
3.12258e-08
4.71299e-08
7.42938e-08
5.7976e-07
8.54845e-07
1.08223e-12
3.12135e-09
2.64869e-06
2.71425e-06
1.56208e-07
6.02744e-08
8.57318e-08
4.42249e-08
5.41742e-08
1.2073e-07
2.24896e-07
1.92189e-07
2.9458e-07
1.5071e-05
2.66048e-05
7.67913e-06
1.36553e-11
2.18949e-11
1.50097e-08
2.75599e-08
4.455e-08
8.30549e-08
1.54405e-07
2.01015e-10
8.31679e-09
5.19006e-07
8.33174e-07
2.61534e-08
2.80414e-08
1.97692e-08
2.15886e-08
3.64715e-08
9.6095e-08
1.51208e-07
1.45058e-07
1.09617e-07
5.6478e-06
0.000139468
0.000148661
9.62675e-05
1.36553e-11
1.968e-11
1.41489e-11
8.09186e-09
3.92536e-08
1.5872e-08
3.66893e-10
7.46625e-09
5.37695e-08
2.84645e-07
5.92257e-08
1.45343e-07
6.41321e-08
1.85152e-08
2.85279e-08
5.56642e-08
1.09136e-07
1.26158e-07
1.27344e-07
1.20158e-07
3.10032e-05
0.00017611
0.000195183
0.00019685
0.000142837
2.3579e-07
2.48562e-09
4.18999e-08
5.03656e-08
8.78709e-11
2.17381e-09
2.552e-08
4.78502e-08
5.77068e-08
1.80373e-07
1.51407e-07
3.39431e-08
2.51915e-08
2.69385e-08
5.69146e-08
9.1285e-08
1.23936e-07
2.20804e-07
1.7788e-07
1.20455e-05
7.24876e-05
0.000128001
0.000160692
0.000119152
2.27235e-05
4.18982e-08
1.07279e-07
7.26295e-12
4.1392e-10
6.787e-09
3.26783e-08
3.79277e-08
1.65121e-07
1.70799e-07
4.46677e-08
2.72084e-08
1.78347e-08
2.62457e-08
4.58146e-08
7.33102e-08
1.09135e-07
1.33263e-07
7.54184e-08
4.5347e-08
1.01289e-06
9.39581e-06
2.60335e-05
2.17244e-05
1.0529e-06
5.42305e-08
4.54959e-13
4.11246e-11
1.38388e-09
1.23327e-08
1.89003e-08
9.77587e-08
1.32953e-07
4.5507e-08
2.81763e-08
1.48181e-08
1.26618e-08
1.98799e-08
3.15081e-08
5.01966e-08
7.44428e-08
6.71506e-08
3.64088e-08
1.65552e-08
1.12988e-08
3.0897e-07
7.15714e-08
4.25746e-07
2.93933e-08
2.27934e-14
3.04566e-12
2.03873e-10
2.49492e-09
7.44183e-09
3.97097e-08
6.49751e-08
3.3129e-08
2.2482e-08
1.26921e-08
8.41914e-09
9.82914e-09
1.49943e-08
2.20137e-08
3.06455e-08
4.62988e-08
2.83563e-08
1.57269e-08
1.05264e-08
1.53956e-08
1.09597e-08
1.24579e-08
1.23885e-08
1.22515e-15
1.83887e-13
2.56343e-11
3.71973e-10
2.49154e-09
1.26008e-08
2.51295e-08
1.82002e-08
1.35541e-08
8.84117e-09
5.80232e-09
5.43482e-09
7.59929e-09
1.08665e-08
1.50424e-08
2.22209e-08
1.79579e-08
1.16412e-08
7.82632e-09
7.61323e-09
6.65212e-09
7.00701e-09
7.9213e-09
7.19895e-17
1.04454e-14
2.74016e-12
6.58876e-11
7.31152e-10
3.74684e-09
9.27029e-09
8.01692e-09
6.41208e-09
4.7996e-09
3.34961e-09
2.94376e-09
3.70535e-09
5.03651e-09
6.90645e-09
9.17626e-09
8.54332e-09
6.51326e-09
4.60077e-09
4.03779e-09
4.15895e-09
4.50235e-09
5.56028e-09
7.37595e-18
9.27972e-16
2.79265e-13
1.26565e-11
1.79174e-10
1.05451e-09
3.01458e-09
2.73701e-09
2.44039e-09
2.09319e-09
1.58605e-09
1.43544e-09
1.71883e-09
2.27942e-09
3.071e-09
3.86011e-09
3.89631e-09
3.28373e-09
2.5812e-09
2.3692e-09
2.40935e-09
2.98479e-09
3.45934e-09
5.64682e-19
1.59457e-16
3.75087e-14
2.0324e-12
3.36214e-11
2.36004e-10
7.44946e-10
7.15376e-10
7.71703e-10
7.46125e-10
6.18899e-10
6.08116e-10
7.50057e-10
1.01453e-09
1.36775e-09
1.6866e-09
1.74952e-09
1.56717e-09
1.33033e-09
1.31795e-09
1.47421e-09
1.67174e-09
1.89683e-09
1.25401e-19
2.64368e-17
5.6881e-15
2.61788e-13
4.62413e-12
3.79605e-11
1.35602e-10
1.51675e-10
2.07757e-10
2.19034e-10
2.00503e-10
2.20475e-10
2.93107e-10
4.12566e-10
5.60989e-10
6.85517e-10
7.18618e-10
6.76172e-10
6.29218e-10
6.79506e-10
7.40597e-10
8.87781e-10
9.79096e-10
5.07834e-21
1.29104e-18
3.48717e-16
1.34276e-14
5.06007e-13
4.51913e-12
1.93669e-11
2.81613e-11
4.79035e-11
5.42218e-11
5.58226e-11
6.9646e-11
1.01744e-10
1.50712e-10
2.08381e-10
2.5578e-10
2.75036e-10
2.76221e-10
2.81525e-10
3.25998e-10
3.76493e-10
3.96704e-10
4.16158e-10
5.40937e-22
1.64106e-19
5.50251e-17
2.55519e-15
2.1665e-14
4.68434e-13
2.37739e-12
4.7561e-12
9.56e-12
1.17781e-11
1.39807e-11
1.99813e-11
3.22812e-11
5.03901e-11
7.11667e-11
8.88102e-11
1.00867e-10
1.07184e-10
1.19252e-10
1.40866e-10
1.54138e-10
1.65761e-10
1.605e-10
8.01186e-24
7.94636e-21
3.4585e-18
2.3586e-16
3.76125e-15
2.41677e-14
2.79855e-13
7.30523e-13
1.67173e-12
2.30724e-12
3.23051e-12
5.31655e-12
9.36953e-12
1.52759e-11
2.20742e-11
2.83011e-11
3.23576e-11
3.79453e-11
4.49349e-11
5.25385e-11
5.68761e-11
5.31929e-11
4.87769e-11
9.07798e-25
5.15494e-22
2.49378e-19
1.92209e-17
3.12016e-16
3.63774e-15
1.82754e-14
1.04579e-13
2.56194e-13
4.09783e-13
6.84563e-13
1.28568e-12
2.42278e-12
4.11524e-12
6.13552e-12
8.21754e-12
1.01668e-11
1.22158e-11
1.43899e-11
1.66969e-11
1.67358e-11
1.53523e-11
1.24488e-11
7.61689e-26
2.69681e-23
1.98156e-20
1.81092e-18
2.42169e-17
2.75916e-16
2.80623e-15
8.14497e-15
3.45224e-14
6.60873e-14
1.30465e-13
2.7454e-13
5.45147e-13
9.66858e-13
1.50283e-12
2.12773e-12
2.78904e-12
3.40955e-12
4.00721e-12
4.36711e-12
4.2095e-12
3.24534e-12
2.42163e-12
2.31206e-26
1.52442e-24
1.18456e-21
1.54804e-19
2.2912e-18
2.61061e-17
2.32063e-16
1.19238e-15
4.14064e-15
9.6612e-15
2.19551e-14
5.08286e-14
1.05676e-13
1.97286e-13
3.23394e-13
4.84264e-13
6.62139e-13
8.40117e-13
9.68832e-13
9.74218e-13
8.26508e-13
5.94193e-13
3.91058e-13
7.65803e-27
1.39896e-25
6.76922e-23
9.71149e-21
2.04036e-19
2.38148e-18
2.15074e-17
1.069e-16
4.51044e-16
1.26131e-15
3.20697e-15
8.07153e-15
1.78025e-14
3.63007e-14
6.32297e-14
9.94497e-14
1.40292e-13
1.61751e-13
1.94124e-13
1.83174e-13
1.43403e-13
8.01752e-14
4.86809e-14
2.44857e-27
3.40982e-26
3.65108e-24
5.34686e-22
1.48469e-20
1.81228e-19
1.80434e-18
1.02675e-17
4.46335e-17
1.44252e-16
4.03217e-16
1.10396e-15
2.67442e-15
5.08599e-15
9.52806e-15
1.5736e-14
2.27736e-14
3.02997e-14
3.22511e-14
2.68276e-14
1.75389e-14
9.42146e-15
6.25257e-15
7.31567e-28
1.0486e-26
2.44379e-25
2.73991e-23
1.01059e-21
1.28762e-20
1.26861e-19
8.83498e-19
4.0319e-18
1.44027e-17
4.42132e-17
1.33312e-16
3.42027e-16
8.02663e-16
1.60467e-15
2.67294e-15
3.78481e-15
4.51891e-15
4.31576e-15
3.13876e-15
1.96288e-15
1.24486e-15
1.7742e-15
1.99897e-28
3.02852e-27
3.48076e-26
1.42507e-24
6.37683e-23
8.41629e-22
8.27993e-21
6.61095e-20
3.37314e-19
1.27898e-18
4.35943e-18
1.4633e-17
4.24074e-17
1.0726e-16
2.22127e-16
3.66187e-16
4.94646e-16
5.44605e-16
4.85717e-16
3.58689e-16
2.61452e-16
2.97125e-16
7.85224e-16
4.81058e-29
7.58889e-28
7.97644e-27
1.07284e-25
3.82196e-24
5.09746e-23
5.06164e-22
4.52797e-21
2.61957e-20
1.0431e-19
3.98441e-19
1.48218e-18
4.68568e-18
1.21811e-17
2.57698e-17
4.22461e-17
5.47561e-17
5.80512e-17
5.23604e-17
4.81681e-17
5.65324e-17
1.14331e-16
3.70462e-16
1.08171e-29
1.74918e-28
1.89631e-27
1.70077e-26
2.74843e-25
3.23661e-24
3.15289e-23
3.07903e-22
1.92476e-21
8.27776e-21
3.51689e-20
1.41705e-19
4.69983e-19
1.25353e-18
2.67927e-18
4.44317e-18
5.79424e-18
6.4509e-18
6.9286e-18
9.56377e-18
1.62761e-17
4.93322e-17
1.72805e-16
2.35977e-30
3.90777e-29
4.34742e-28
3.84992e-27
3.69552e-26
3.31231e-25
2.87086e-24
2.65108e-23
1.6051e-22
7.57248e-22
3.40805e-21
1.41032e-20
4.76817e-20
1.29057e-19
2.81865e-19
4.89128e-19
6.96595e-19
9.18982e-19
1.30664e-18
2.4947e-18
5.88715e-18
1.83422e-17
7.79315e-17
4.87701e-31
8.38688e-30
9.41045e-29
9.21764e-28
8.18667e-27
6.64583e-26
5.21574e-25
4.02427e-24
2.15833e-23
1.04704e-22
4.55352e-22
1.77795e-21
5.8515e-21
1.5908e-20
3.58037e-20
6.65086e-20
1.07501e-19
1.65797e-19
2.99625e-19
6.93213e-19
1.7206e-18
7.33127e-18
3.84211e-17
9.47001e-32
1.74141e-30
2.04204e-29
2.19616e-28
2.03669e-27
1.67117e-26
1.2783e-25
8.09477e-25
4.42434e-24
2.08713e-23
8.52179e-23
3.05963e-22
9.54671e-22
2.55786e-21
5.85231e-21
1.12954e-20
1.99459e-20
3.48013e-20
7.18562e-20
1.96389e-19
7.05157e-19
3.67811e-18
2.17668e-17
1.75119e-32
3.54163e-31
4.5396e-30
5.06295e-29
4.87721e-28
4.09774e-27
3.10104e-26
1.86946e-25
9.90596e-25
4.54886e-24
1.7852e-23
6.09747e-23
1.81719e-22
4.74557e-22
1.02334e-21
2.09077e-21
3.89227e-21
7.40244e-21
1.76777e-20
6.18224e-20
3.08552e-19
1.74017e-18
1.17825e-17
3.11658e-33
7.02507e-32
9.75874e-31
1.10724e-29
1.09065e-28
9.28271e-28
6.8976e-27
4.08822e-26
2.102e-25
9.46121e-25
3.62101e-24
1.20537e-23
3.45954e-23
8.83394e-23
1.89063e-22
3.83817e-22
7.43451e-22
1.56703e-21
4.59404e-21
2.21813e-20
1.28971e-19
7.31872e-19
4.88194e-18
0.996595
0.999514
0.995489
0.916154
0.999034
0.999928
0.99839
0.995445
0.999927
0.999999
0.999994
1
1
1
1
1
1
1
1
1
1
1
1
1
1
1
1
1
0.66519
0.86248
0.800014
0.641675
0.0214265
0.0545772
0.0450053
0.0222967
2.92428e-07
2.41088e-07
1.18204e-06
1.217e-06
7.68947e-07
1.15763e-06
1.44088e-06
1.59349e-06
1.67114e-06
1.90774e-06
1.9852e-06
1.96467e-06
7.44298e-07
9.65621e-07
1.80994e-06
1.95806e-06
6.8887e-08
8.6283e-08
2.04964e-07
2.00938e-07
1.78496e-09
1.44827e-09
1.10079e-09
1.25585e-09
5.24982e-08
1.31955e-08
9.95843e-10
2.20499e-09
2.19731e-07
1.27937e-09
1.10978e-09
6.53031e-09
2.47956e-07
1.55326e-07
5.7096e-08
1.94082e-08
2.76351e-08
2.02778e-08
1.5747e-08
1.57393e-08
1.2569e-08
1.25303e-08
1.52964e-08
1.6848e-08
7.20872e-09
1.04871e-08
1.16575e-08
1.26652e-08
5.9609e-09
6.08921e-09
6.73543e-09
7.24536e-09
3.50132e-09
3.80989e-09
4.00824e-09
4.15357e-09
1.96151e-09
2.01328e-09
2.09694e-09
2.12087e-09
9.95645e-10
9.95585e-10
9.79373e-10
9.48421e-10
4.10256e-10
3.97886e-10
3.84304e-10
3.65626e-10
1.53003e-10
1.42716e-10
1.31709e-10
1.1855e-10
4.42869e-11
3.89304e-11
3.44829e-11
2.99637e-11
1.08361e-11
9.04179e-12
7.58153e-12
6.13901e-12
1.97276e-12
1.42941e-12
1.1607e-12
9.05447e-13
2.94678e-13
2.19171e-13
1.61279e-13
1.15774e-13
3.44387e-14
2.51542e-14
2.10944e-14
1.94953e-14
5.7242e-15
6.08495e-15
7.43412e-15
9.85915e-15
2.29621e-15
2.96978e-15
4.46181e-15
6.64979e-15
1.12774e-15
1.68255e-15
2.66051e-15
4.65159e-15
5.55195e-16
8.58114e-16
1.74048e-15
4.03618e-15
2.60425e-16
4.74882e-16
1.22664e-15
3.69187e-15
1.46321e-16
3.57775e-16
1.19891e-15
3.53917e-15
8.72466e-17
2.69365e-16
1.00655e-15
3.2532e-15
6.63595e-17
2.35648e-16
8.12592e-16
2.52195e-15
3.49839e-17
1.62462e-16
5.35028e-16
1.52849e-15
2.30629e-17
7.25231e-17
2.11383e-16
5.1919e-16
0.827466
0.987494
0.996021
0.936528
0.494376
0.0341062
9.0547e-05
0.000179565
0.000147996
3.06967e-06
0.0622298
0.203013
0.225372
0.262189
0.30348
0.356679
0.434969
0.802697
0.558167
0.999999
1
1
0.999902
0.992618
0.821608
0.240862
6.17656e-05
0.000179482
1.19951e-07
1.4617e-05
0.0167103
0.164209
0.409911
0.749594
0.927288
0.983264
0.882827
0.501067
1
1
1
1
0.999999
0.999769
0.963074
0.663813
0.265924
0.142562
0.236314
0.526721
0.831414
0.998398
0.997078
0.995137
0.99401
0.915009
0.502159
1
1
0.999999
1
1
1
0.999999
0.999963
0.981654
0.953808
0.977434
0.999159
0.99888
0.99788
0.997885
0.998125
0.997879
0.965391
0.638523
0.999999
0.999999
0.999999
0.999999
1
1
1
1
1
0.999996
0.999479
0.999905
0.999744
0.954548
0.83024
0.751562
0.849462
0.92722
0.884317
1
1
0.999999
0.999999
1
1
1
1
1
1
0.976366
0.845042
0.564664
0.25662
0.0929009
0.0601351
0.183804
0.478689
0.680584
1
1
1
1
0.999586
0.994863
0.979014
0.935594
0.835235
0.617548
0.31186
0.085849
3.2111e-08
3.9686e-07
1.91568e-07
8.35382e-08
0.0111609
0.104226
0.137436
0.601626
0.598557
0.604519
0.574709
0.511098
0.422718
0.310881
0.183303
0.0606902
5.11012e-09
6.81457e-08
3.2111e-08
1.05653e-07
6.37965e-06
5.11379e-05
0.00971767
0.0131961
2.74055e-06
2.60913e-06
0.0121611
0.00607151
0.00221508
4.27946e-09
7.47225e-09
1.38177e-08
4.31727e-08
3.77033e-08
9.0829e-09
1.00904e-07
0.000226896
0.000673049
0.000484934
0.000107141
0.00206757
0.00509984
0.00233963
2.36764e-06
2.43377e-06
9.82292e-07
2.39706e-07
1.48524e-07
1.44407e-07
1.52197e-07
3.71143e-07
5.67813e-07
2.90002e-07
4.2796e-09
3.7731e-05
0.00114419
0.0013916
0.00131445
2.96293e-05
8.28737e-07
7.36914e-07
7.7618e-07
2.4399e-06
2.84327e-06
1.39779e-06
8.06631e-07
5.0151e-07
3.24087e-07
2.60789e-07
6.75525e-07
2.72566e-06
3.45499e-06
5.83863e-07
8.08973e-05
0.000683276
0.000726395
6.51096e-07
1.29145e-07
2.56151e-07
3.37676e-07
6.4401e-07
1.25908e-06
2.7838e-06
1.96999e-06
1.97322e-06
1.71152e-06
1.85362e-07
1.10211e-07
2.20696e-07
3.19842e-06
5.91487e-06
5.21175e-06
9.69985e-07
3.95412e-09
5.0804e-09
2.06125e-08
1.77515e-07
5.09206e-07
7.88299e-07
7.39737e-07
9.35456e-08
9.31731e-07
1.95661e-06
1.52481e-06
8.23447e-07
1.27732e-07
8.03445e-08
2.26498e-07
3.08964e-07
1.72058e-07
2.28658e-09
2.86535e-09
6.46458e-09
1.94423e-08
5.99455e-08
2.42373e-07
4.17117e-07
5.43546e-07
2.79575e-07
1.03685e-07
6.48939e-07
1.33222e-07
3.93386e-08
1.99084e-08
3.24717e-08
3.38374e-08
1.05303e-08
2.65942e-09
2.36907e-09
2.40366e-09
3.2333e-09
7.04828e-09
1.42612e-08
2.74795e-08
4.39373e-08
7.12471e-08
4.73529e-08
8.65657e-09
1.19743e-07
1.71766e-06
1.98669e-09
1.08532e-09
1.089e-09
1.08042e-09
2.03477e-09
5.57103e-09
5.77906e-09
3.44425e-09
2.77998e-09
4.21338e-09
6.33491e-09
8.24945e-09
8.37551e-09
6.88598e-09
4.98988e-09
4.43495e-09
4.71771e-09
1.20648e-07
1.67912e-06
3.33804e-09
1.49922e-09
1.26576e-09
1.11014e-09
1.23786e-09
2.91616e-09
4.32392e-09
3.99676e-09
3.17709e-09
3.8616e-09
4.7762e-09
5.73386e-09
5.69268e-09
5.75727e-09
5.82771e-09
5.15295e-09
4.99228e-09
1.30044e-07
1.64167e-06
1.02444e-08
3.02447e-09
2.28313e-09
1.56971e-09
1.30503e-09
9.23798e-10
7.98288e-10
1.48968e-09
2.28923e-09
2.57378e-09
2.97798e-09
3.5839e-09
3.7394e-09
4.1229e-09
4.77676e-09
5.06079e-09
3.89036e-09
2.31137e-07
9.55698e-07
1.39214e-08
6.82091e-09
3.14909e-09
1.70339e-09
1.14315e-09
8.80092e-10
7.78181e-10
9.77004e-10
1.35931e-09
1.59089e-09
1.79833e-09
2.09417e-09
2.34105e-09
2.8675e-09
3.80335e-09
4.38727e-09
3.89644e-09
2.88194e-07
9.13376e-07
1.45623e-08
1.01705e-08
4.41954e-09
2.54273e-09
1.3136e-09
8.14017e-10
6.32276e-10
6.46257e-10
7.77069e-10
9.55965e-10
1.11954e-09
1.29512e-09
1.55434e-09
2.11555e-09
3.13849e-09
3.98605e-09
3.76217e-09
2.89862e-07
1.1727e-06
1.68592e-08
1.26601e-08
7.73347e-09
3.56059e-09
1.57438e-09
8.15683e-10
5.1471e-10
4.01342e-10
4.08228e-10
5.03499e-10
6.75407e-10
8.73122e-10
1.14384e-09
1.71824e-09
2.80041e-09
3.8394e-09
3.9941e-09
1.05626e-07
7.25544e-07
1.30908e-08
1.06405e-08
7.53304e-09
3.79122e-09
1.66574e-09
8.01022e-10
4.2727e-10
2.82208e-10
2.3833e-10
2.69272e-10
4.07206e-10
6.25394e-10
9.3886e-10
1.53863e-09
2.68138e-09
3.97694e-09
4.75957e-09
2.98686e-08
1.66494e-08
7.68999e-09
6.49904e-09
4.71458e-09
2.86464e-09
1.41831e-09
6.92018e-10
3.44204e-10
1.99559e-10
1.55809e-10
1.72224e-10
2.88216e-10
5.0544e-10
8.58214e-10
1.54869e-09
2.69964e-09
4.43454e-09
6.53001e-09
9.68741e-09
1.984e-08
4.15368e-09
3.5191e-09
2.51311e-09
1.57399e-09
8.7097e-10
4.2256e-10
2.10899e-10
1.21714e-10
9.86017e-11
1.28278e-10
2.50829e-10
4.79718e-10
8.84565e-10
1.67454e-09
2.94504e-09
5.01078e-09
8.18786e-09
1.31787e-08
1.26204e-08
2.03088e-09
1.64811e-09
1.17367e-09
6.91592e-10
3.86685e-10
2.0622e-10
1.0868e-10
6.95585e-11
7.10623e-11
1.25043e-10
2.59579e-10
5.29596e-10
1.01533e-09
1.89853e-09
3.29703e-09
5.64014e-09
1.12669e-08
1.17017e-08
1.15935e-08
8.45389e-10
6.29042e-10
4.14636e-10
2.5792e-10
1.46935e-10
7.85772e-11
4.63062e-11
4.16384e-11
6.67925e-11
1.46613e-10
3.06527e-10
6.375e-10
1.22156e-09
2.2249e-09
3.76235e-09
6.83538e-09
1.29805e-08
1.78933e-08
1.1193e-08
3.08859e-10
2.14683e-10
1.34098e-10
7.87033e-11
4.34128e-11
2.56173e-11
2.30668e-11
3.6711e-11
8.12583e-11
1.82153e-10
3.92652e-10
8.03057e-10
1.52531e-09
2.6311e-09
4.40191e-09
8.87704e-09
2.03367e-08
2.91589e-08
1.38799e-08
8.67397e-11
5.47252e-11
3.15172e-11
1.78735e-11
1.13203e-11
1.09658e-11
2.08781e-11
4.59905e-11
1.06678e-10
2.37732e-10
5.14466e-10
1.03532e-09
1.90097e-09
3.12699e-09
5.33729e-09
1.26111e-08
2.77622e-08
4.83865e-08
2.01511e-08
2.11329e-11
1.24539e-11
6.78759e-12
4.39955e-12
5.23459e-12
1.0328e-11
2.69655e-11
6.23198e-11
1.43997e-10
3.14419e-10
6.77868e-10
1.33749e-09
2.35141e-09
3.68475e-09
6.73815e-09
1.93882e-08
5.81833e-08
6.8245e-08
2.56296e-08
3.51336e-12
1.89769e-12
1.37283e-12
2.26766e-12
5.81724e-12
1.43806e-11
3.65379e-11
8.45435e-11
1.91654e-10
4.11966e-10
8.81775e-10
1.70295e-09
2.8409e-09
4.24123e-09
8.86115e-09
3.25375e-08
7.62319e-08
9.39097e-08
2.71486e-08
4.94574e-13
3.91954e-13
9.10174e-13
2.85263e-12
7.92875e-12
1.95457e-11
4.88322e-11
1.10872e-10
2.48115e-10
5.30162e-10
1.11966e-09
2.10219e-09
3.3075e-09
4.69018e-09
1.22241e-08
5.27646e-08
1.16348e-07
1.05972e-07
2.68406e-08
8.37572e-14
2.764e-13
1.17003e-12
3.76362e-12
9.92596e-12
2.55985e-11
6.0202e-11
1.38391e-10
3.06555e-10
6.7404e-10
1.38221e-09
2.50742e-09
3.7499e-09
5.15227e-09
1.73895e-08
7.40352e-08
1.17079e-07
1.15718e-07
2.34263e-08
4.86101e-14
3.39407e-13
1.45185e-12
4.34638e-12
1.1863e-11
2.90887e-11
6.95542e-11
1.60919e-10
3.67547e-10
7.97479e-10
1.63148e-09
2.94206e-09
4.33518e-09
6.44886e-09
2.32751e-08
8.50434e-08
1.17892e-07
8.63912e-08
1.94306e-08
4.50707e-14
3.82091e-13
1.52765e-12
4.71078e-12
1.22768e-11
3.07918e-11
7.52728e-11
1.77225e-10
4.1249e-10
9.09035e-10
1.84837e-09
3.30336e-09
5.07788e-09
8.89609e-09
2.80678e-08
6.61858e-08
1.059e-07
6.29403e-08
8.64964e-09
5.4489e-14
3.83425e-13
1.47019e-12
4.26161e-12
1.12471e-11
3.07724e-11
7.67725e-11
1.86608e-10
4.39859e-10
9.81472e-10
1.97891e-09
3.51917e-09
5.79633e-09
1.07074e-08
2.20682e-08
4.22136e-08
6.01559e-08
1.37196e-08
5.4312e-09
6.17542e-14
3.53699e-13
1.2127e-12
3.64599e-12
1.03827e-11
2.82485e-11
7.34285e-11
1.82829e-10
4.39784e-10
9.93429e-10
1.9815e-09
3.52629e-09
6.1208e-09
9.46354e-09
1.44913e-08
2.46604e-08
4.67183e-09
7.04209e-09
1.72464e-09
5.14853e-14
2.66607e-13
9.33471e-13
2.96611e-12
8.87032e-12
2.4936e-11
6.59142e-11
1.66645e-10
4.03422e-10
8.99828e-10
1.82215e-09
3.21321e-09
5.65622e-09
7.34132e-09
7.4331e-09
8.54941e-09
4.69566e-09
6.51129e-10
7.25045e-10
4.15342e-14
1.87488e-13
7.0221e-13
2.32632e-12
7.15239e-12
2.03831e-11
5.41554e-11
1.37214e-10
3.2909e-10
7.40967e-10
1.45595e-09
2.52042e-09
4.1997e-09
4.90557e-09
3.51415e-09
1.54996e-09
3.16564e-10
2.33364e-10
2.02776e-10
3.1508e-14
1.33732e-13
5.05637e-13
1.71082e-12
5.23886e-12
1.50591e-11
3.98054e-11
9.85715e-11
2.30423e-10
5.09594e-10
9.87459e-10
1.62123e-09
2.37787e-09
2.77812e-09
2.26049e-09
1.01839e-09
4.08105e-10
1.64158e-10
8.68095e-11
2.06664e-14
8.47001e-14
3.28495e-13
1.09395e-12
3.3214e-12
9.36317e-12
2.43648e-11
5.87981e-11
1.33302e-10
2.85107e-10
5.38399e-10
8.52705e-10
1.08354e-09
1.32251e-09
1.21036e-09
6.05483e-10
2.34109e-10
9.81109e-11
4.16716e-11
1.23351e-14
4.74205e-14
1.66571e-13
5.34607e-13
1.53666e-12
4.1619e-12
1.08752e-11
2.61399e-11
5.76618e-11
1.17792e-10
2.15449e-10
3.41448e-10
4.14382e-10
4.86997e-10
4.08915e-10
2.07793e-10
7.38747e-11
2.47759e-11
2.15807e-11
5.30506e-15
1.88956e-14
6.32203e-14
1.92344e-13
5.46347e-13
1.46077e-12
3.56609e-12
8.63361e-12
1.86839e-11
3.68623e-11
6.37952e-11
9.69606e-11
1.21366e-10
1.25451e-10
9.28917e-11
3.83714e-11
9.92483e-12
8.1138e-12
6.17272e-12
1.2464e-15
4.08153e-15
1.28602e-14
3.71395e-14
1.00277e-13
2.67313e-13
6.29539e-13
1.37109e-12
3.04117e-12
5.85411e-12
9.84403e-12
1.42913e-11
1.69795e-11
1.38944e-11
9.49404e-12
3.42177e-12
2.24483e-12
7.39693e-13
7.66445e-13
)
;

boundaryField
{
    leftWall
    {
        type            alphaContactAngle;
        contactAngleProperties 
        {
            mercury         
            {
                theta0          90;
            }
            air             
            {
                theta0          90;
            }
            water           
            {
                theta0          90;
            }
        }
        value           nonuniform List<scalar> 
50
(
3.50608e-17
2.66994e-16
4.36859e-16
5.60802e-16
1.4395e-15
7.6801e-16
1.9676e-16
2.24252e-17
1.27312e-18
4.00468e-20
7.81937e-20
3.58739e-20
2.7037e-20
5.1636e-20
9.09281e-16
5.07267e-14
6.78087e-09
3.15576e-09
1.85932e-10
2.72518e-11
3.0604e-12
1.08223e-12
2.01015e-10
3.66893e-10
8.78709e-11
7.26295e-12
4.54959e-13
2.27934e-14
1.22515e-15
7.19895e-17
7.37595e-18
5.64682e-19
1.25401e-19
5.07834e-21
5.40937e-22
8.01186e-24
9.07798e-25
7.61689e-26
2.31206e-26
7.65803e-27
2.44857e-27
7.31567e-28
1.99897e-28
4.81058e-29
1.08171e-29
2.35977e-30
4.87701e-31
9.47001e-32
1.75119e-32
3.11658e-33
)
;
    }
    rightWall
    {
        type            alphaContactAngle;
        contactAngleProperties 
        {
            mercury         
            {
                theta0          90;
            }
            air             
            {
                theta0          90;
            }
            water           
            {
                theta0          90;
            }
        }
        value           nonuniform List<scalar> 
50
(
0.255114
0.315222
0.353864
0.332253
0.456412
0.431494
0.424141
0.497128
0.558167
0.501067
0.502159
0.638523
0.884317
0.680584
0.137436
2.60913e-06
2.43377e-06
2.84327e-06
2.7838e-06
9.31731e-07
6.48939e-07
1.71766e-06
1.67912e-06
1.64167e-06
9.55698e-07
9.13376e-07
1.1727e-06
7.25544e-07
1.66494e-08
1.984e-08
1.26204e-08
1.15935e-08
1.1193e-08
1.38799e-08
2.01511e-08
2.56296e-08
2.71486e-08
2.68406e-08
2.34263e-08
1.94306e-08
8.64964e-09
5.4312e-09
1.72464e-09
7.25045e-10
2.02776e-10
8.68095e-11
4.16716e-11
2.15807e-11
6.17272e-12
7.66445e-13
)
;
    }
    lowerWall
    {
        type            alphaContactAngle;
        contactAngleProperties 
        {
            mercury         
            {
                theta0          90;
            }
            air             
            {
                theta0          90;
            }
            water           
            {
                theta0          90;
            }
        }
        value           nonuniform List<scalar> 
62
(
3.50608e-17
2.99317e-15
7.14089e-14
4.25442e-13
1.17622e-12
2.98003e-12
6.76524e-12
1.41088e-11
2.85058e-11
5.54269e-11
1.04461e-10
1.95213e-10
3.6272e-10
6.5508e-10
1.22062e-09
2.11639e-09
3.54337e-09
6.51901e-09
1.02388e-08
1.06026e-08
0.000102011
0.000552826
0.000568521
0.000568521
0.000568522
0.000126296
1.05403e-05
1.4911e-06
0.00531266
0.0607328
0.575709
0.996595
0.999514
0.995489
0.916154
0.939204
0.934127
0.925356
0.933413
0.940097
0.486879
0.259119
0.518596
0.939204
0.891934
0.849634
0.786914
0.813249
0.911931
0.905112
0.640811
0.276787
0.368804
0.456966
0.450056
0.303377
0.0631647
0.0644076
0.124313
0.187244
0.266047
0.255114
)
;
    }
    atmosphere
    {
        type            inletOutlet;
        inletValue      uniform 0;
        value           nonuniform List<scalar> 
46
(
3.11658e-33
7.02507e-32
9.75874e-31
1.10724e-29
1.09065e-28
9.28271e-28
6.8976e-27
4.08822e-26
2.102e-25
9.46121e-25
3.62101e-24
1.20537e-23
3.45954e-23
8.83394e-23
1.89063e-22
3.83817e-22
7.43451e-22
1.56703e-21
4.59404e-21
2.21813e-20
1.28971e-19
7.31872e-19
4.88194e-18
0
0
0
0
0
0
0
0
0
0
0
0
0
0
0
0
0
0
0
0
0
0
0
)
;
    }
    defaultFaces
    {
        type            empty;
    }
}


// ************************************************************************* //
