/*--------------------------------*- C++ -*----------------------------------*\
  =========                 |
  \\      /  F ield         | OpenFOAM: The Open Source CFD Toolbox
   \\    /   O peration     | Website:  https://openfoam.org
    \\  /    A nd           | Version:  13
     \\/     M anipulation  |
\*---------------------------------------------------------------------------*/
FoamFile
{
    format      ascii;
    class       volScalarField;
    location    "1.1";
    object      alphas;
}
// * * * * * * * * * * * * * * * * * * * * * * * * * * * * * * * * * * * * * //

dimensions      [];

internalField   nonuniform List<scalar> 
2268
(
2
2
2
2
2
2
2
2
2
2
2
2
2
2
2
2
2
2
2
2
1.9999
1.99945
1.99943
2
2
2
2
2
2
2
2
2
2
2
2
2
2
2
2
2
2
2
2
2
1.99988
1.99943
2
2
2
2
2
2
2
2
2
2
2
2
2
2
2
2
2
2
2
2
2
2
1.99987
2
2
2
2
2
2
2
2
2
2
2
2
2
2
2
2
2
2
2
2
2
2
1.99999
2
2
2
2
2
2
2
2
2
2
2
2
2
1.98605
1.96998
1.95363
1.9372
1.91932
1.89691
1.86745
1.84614
1.85095
1.8978
2
2
2
2
2
2
2
2
1.96551
1.76852
1.52909
1.28124
1.04815
0.885376
0.771652
0.691449
0.630231
0.576629
0.517782
0.453673
0.447183
0.555124
0.67137
2
2
2
2
2
2
1.83544
1.3032
0.669687
0.297435
0.0960376
0.0131914
0.0021709
0.000112417
7.68499e-07
2.8377e-06
1.07007e-05
7.69659e-05
0.000757586
0.00493827
0.115937
0.435814
0.59468
2
2
2
1.99895
1.90997
1.30256
0.424319
0.0490358
8.97428e-08
6.23958e-08
2.49719e-08
1.31981e-08
3.58623e-08
1.348e-07
2.61397e-07
1.05423e-07
2.26973e-06
7.61185e-06
0.000131775
0.206826
0.964539
1.32818
1.33068
1.08239
1.16584
1.19187
1.22486
1.19356
1.08807
1.09489
1.3592
1.72992
1.72872
1.69531
1.70951
1.89435
2.01238
1.81147
1.69166
1.57928
1.64245
1.69163
1.07658
1.07687
0.871793
1.12135
1.18282
1.20876
1.088
1.44945
1.86795
1.861
1.73451
1.66745
1.74724
2.2104
2.03768
1.73862
1.55166
1.60504
1.67697
1.05082
0.539955
0.272518
0.439692
0.753313
1.28221
1.26673
1.51087
1.77448
1.73497
1.78166
1.86585
1.92934
2.18924
2.27387
2.25908
2.0876
1.66037
1.596
1.05216
0.378751
0.00619385
0.0039174
0.0679849
0.858586
1.57267
1.54326
1.3616
1.44874
1.69928
1.73683
1.79614
2.06108
2.1519
2.20404
2.21369
1.66825
1.55104
1.05328
0.22755
0.000831644
0.000652615
0.000516973
0.104908
0.615052
0.639517
0.299173
0.285964
0.889195
1.70426
1.92261
1.81776
2.01665
2.12971
1.81969
1.19854
1.44585
0.822874
1.00744
0.0918415
0.000749146
0.000609503
0.00051129
0.000524742
0.00248127
0.000518385
0.00119183
0.751041
2.47847
2.51424
2.34671
2.07127
1.73988
0.785489
0.870042
1.3984
1.40983
1.35055
0.957637
0.0192589
0.000746
0.000566134
0.000505362
0.0005157
0.00052257
0.00611324
1.09513
2.34812
2.37426
2.26855
1.89635
0.8589
0.488065
0.733381
1.55919
1.71593
1.74669
1.40454
0.351294
0.019382
0.000730026
0.0004877
0.000421289
0.000486466
0.0148157
0.769086
1.98926
1.93055
1.26637
0.727537
0.551904
0.328473
0.712668
1.56589
1.72004
1.70214
1.47346
0.960646
0.332294
0.0279577
3.55535e-08
4.93804e-08
4.61185e-09
3.09922e-09
4.03749e-09
8.49643e-09
2.35973e-08
5.47182e-08
1.34198e-07
2.22606e-07
2.52997e-07
1.94811e-05
0.19197
0.979009
1.46041
1.41038
1.20664
0.165598
0.183117
0.0316394
1.48104e-07
5.30455e-09
7.99198e-10
6.16456e-09
2.50578e-09
2.32621e-09
3.02968e-09
6.53536e-09
1.97084e-08
4.15253e-08
2.9978e-08
3.30591e-08
4.89296e-08
0.107942
0.851838
1.4068
1.3598
1
1.00267
1.00661
9.1161e-09
2.09789e-08
2.1537e-08
1.69219e-07
7.31092e-09
4.4289e-09
3.1357e-09
4.20639e-09
6.27803e-09
1.5039e-08
2.6757e-08
3.20608e-08
4.56116e-08
2.49062e-05
0.297798
1.06536
1.50974
1.22457
1.04894
1.03413
1
0.999999
1
1.28352e-08
2.5512e-08
1.24089e-08
6.73782e-09
4.41438e-09
2.7991e-09
2.64222e-09
4.83088e-09
2.64898e-08
5.89445e-08
5.6659e-08
7.31216e-07
0.636388
1.20674
1.58233
1.16661
1.13771
1.03625
0.999981
1.00001
1
1
1
8.80386e-09
1.39427e-08
8.99896e-09
4.06583e-09
2.20569e-09
1.76779e-09
2.07102e-09
8.58414e-09
1.51066e-08
0.0430804
0.81406
1.23586
1.63711
1.32645
1.15092
1.00016
1.00003
1.00003
1.00003
1.00001
1
1
1
5.90301e-09
6.92594e-09
4.58602e-09
2.17481e-09
1.17537e-09
1.11004e-09
3.21194e-05
0.0253342
0.690467
1.169
1.57357
1.42722
1.11215
1.0004
1
1
1.00005
1.00003
1.00001
1
1
1
1
3.87407e-09
3.81554e-09
2.29149e-09
1.57432e-09
9.77727e-10
0.00040357
0.213584
0.91321
1.32262
1.53684
1.10473
1.01154
1
1
1
1.00005
1.00004
1
1
1
1
1
1
1.87448e-09
1.67417e-09
2.62768e-08
1.05232e-08
3.43161e-05
0.142716
0.989662
1.51613
1.20088
1.02097
1.00001
1
1
1
1
1.00001
1
1
1
1
1.00297
1.18237
1.79793
7.95205e-09
3.54632e-07
2.63169e-06
0.000215321
0.101228
0.855005
1.18418
1.02934
1.00006
1
0.999999
1
1
1
1
1
1.03255
1.3251
1.81987
2.25573
2.45369
2.62865
2.93182
4.61729e-08
1.10605e-06
0.0791874
0.405744
1.01538
1.01881
1.00018
1.00004
0.99998
0.999993
0.999999
0.999999
1.06385
1.26943
1.60779
2.07532
2.51029
2.77742
2.95754
3
3
3
3
0.288557
1.37769
2.0537
2.30806
1.4915
1.00025
0.999938
0.999963
1.20607
1.54441
1.86171
2.20756
2.53864
2.75391
2.91763
2.99754
3
3
3
3
3
3
3
2.47979
2.97405
2.99976
2.98461
2.57493
2.21013
2.1395
2.38303
2.73239
2.91004
2.97782
3
3
3
3
3
3
3
3
3
3
3
3
3
2.99999
2.99998
2.99979
3
3
2.99984
3
3
3
3
3
3
3
3
3
3
3
3
3
3
3
3
3
3
2.99999
2.99999
3
3
3
3
3
3
3
3
3
2.99997
2.99994
2.99998
2.99999
2.99999
3
3
3
3
3
3
3
3
3
3
3
3
3
3
3
3
3
3
2.99999
2.99972
2.9997
2.9998
2.99999
2.99999
2.99999
2.99999
2.99999
2.99999
3
3
3
3
3
3
3
3
3
3
3
3
3
3
2.99994
2.99965
2.99961
2.9996
2.99971
2.99999
2.99999
2.99999
2.99999
3
3
3
3
3
3
3
3
3
3
3
3
3
3
3
2.99998
2.99986
2.99974
2.99968
2.99976
2.99995
3
3
3
3
3
3
3
3
3
3
3
3
3
3
3
3
3
3
3
3
2.99998
2.99995
2.99996
3
3
3
3
3
3
3
3
3
3
3
3
3
3
3
3
3
3
3
3
3
3
3
3
3
3
3
3
3
3
3
3
3
3
3
3
3
3
3
3
3
3
3
3
3
3
3
3
3
3
3
3
3
3
3
3
3
3
3
3
3
3
3
3
3
3
3
3
3
3
3
3
3
3
3
3
3
3
3
3
3
3
3
3
3
3
3
3
3
3
3
3
3
3
3
3
3
3
3
3
3
3
3
3
3
3
3
3
3
3
3
3
3
3
3
3
3
3
3
3
3
3
3
3
3
3
3
3
3
3
3
3
3
3
3
3
3
3
3
3
3
3
3
3
3
3
3
3
3
3
3
3
3
3
3
3
3
3
3
3
3
3
3
3
3
3
3
3
3
3
3
3
3
3
3
3
3
3
3
3
3
3
3
3
3
3
3
3
3
3
3
3
3
3
3
3
3
3
3
3
3
3
3
3
3
3
3
3
3
3
3
3
3
3
3
3
3
3
3
3
3
3
3
3
3
3
3
3
3
3
3
3
3
3
3
3
3
3
3
3
3
3
3
3
3
3
3
3
3
3
3
3
3
3
3
3
3
3
3
3
3
3
3
3
3
3
3
3
3
3
3
3
3
3
3
3
3
3
3
3
3
3
3
3
3
3
3
3
3
3
3
3
3
3
3
3
3
3
3
3
3
3
3
3
3
3
3
3
3
3
3
3
3
3
3
3
3
3
3
3
3
3
3
3
3
3
3
3
3
3
3
3
3
3
3
3
3
3
3
3
3
3
3
3
3
3
3
3
3
3
3
3
3
3
3
3
3
3
3
3
3
3
3
3
3
3
3
3
3
3
3
3
3
3
3
3
3
3
3
3
3
3
3
3
3
3
3
3
3
3
3
3
3
3
3
3
3
3
3
3
3
3
3
3
3
3
3
3
3
3
3
3
3
3
3
3
3
3
3
3
3
3
3
3
3
3
3
3
3
3
3
3
3
3
3
3
3
3
3
3
3
3
3
3
3
3
3
3
3
3
3
3
3
3
3
3
3
3
3
3
3
3
3
3
3
3
3
3
3
3
3
3
3
3
3
3
3
3
3
3
3
3
3
3
3
3
3
3
3
3
3
3
3
3
3
3
3
3
3
3
3
3
3
3
3
3
3
3
3
3
3
3
3
3
3
3
3
3
3
3
3
3
3
3
3
3
3
3
3
3
3
3
3
3
3
3
3
3
3
3
3
3
3
3
3
3
3
3
3
3
3
3
3
3
0.997349
1.00049
1.00854
1.16751
1.00032
1.00007
1.00315
1.00908
1.00015
1
1.00001
1
1
1
1
1
1
1
1
1
1
1
1
1
1
1
1
1
1.66962
1.27504
1.39997
1.71665
2.95715
2.89085
2.90999
2.95541
3
3
3
3
3
3
3
3
3
3
3
3
3
3
3
3
3
3
3
3
3
3
3
3
2.99999
2.99998
2.99999
3
3
2.99999
2.99999
3
3
3
3
3
3
3
3
3
3
3
3
3
3
3
3
3
3
3
3
3
3
3
3
3
3
3
3
3
3
3
3
3
3
3
3
3
3
3
3
3
3
3
3
3
3
3
3
3
3
3
3
3
3
3
3
3
3
3
3
3
3
3
3
3
3
3
3
3
3
3
3
3
3
3
3
3
3
3
3
3
3
3
3
3
3
3
3
3
3
3
3
3
3
3
3
3
3
3
3
3
1.34507
1.02501
1.00796
1.02333
0.567104
0.0687817
0.00154214
0.000394145
0.000382288
0.00694581
0.206559
0.604898
0.634003
0.411768
0.322702
0.35729
0.441241
0.815303
1.74359
1
1
1
1.00012
1.01476
0.84875
0.252391
0.000806329
0.000364837
0.00224051
0.00439614
0.0167217
0.164321
0.411239
0.749813
0.930794
0.997906
1.07794
1.87182
1
1
1
1
1
1.00046
0.966479
0.665817
0.266376
0.143662
0.23895
0.528502
0.833281
1.00257
1.00583
1.00971
1.01197
1.16355
1.87101
1
1
1
1
1
1
1
1.00007
0.981737
0.953926
0.977802
1.00168
1.00222
1.00421
1.00418
1.00368
1.00421
1.06468
1.64166
1
1
1
1
1
1
1
1
1
1.00001
1.00104
1.00019
1.00049
1.09086
1.33946
1.49671
1.301
1.14538
1.22967
1
1
1
1
1
1
1
1
1
1
1.04727
1.30991
1.87065
2.48673
2.81415
2.87961
2.6323
2.04194
1.63795
1
1
1
1
1.00083
1.01027
1.04197
1.12881
1.32953
1.7649
2.37628
2.8283
3
3
2.99999
2.99996
2.97746
2.79083
2.72448
1.79675
1.80289
1.79096
1.85058
1.9778
2.15456
2.37824
2.63339
2.87862
3
3
3
3
2.99999
2.9999
2.98052
2.97354
2.99999
2.99999
2.97568
2.98786
2.99557
3
3
3
3
3
3
3
2.99955
2.99865
2.99903
2.99979
2.99586
2.9898
2.99532
3
3
3
3
3
3
3
3
3
3
3
2.99992
2.99771
2.99722
2.99737
2.99994
3
3
3
3
2.99999
3
3
3
3
3
3
2.99999
2.99999
3
2.99984
2.99863
2.99855
3
3
3
3
3
3
2.99999
3
3
3
3
3
3
2.99999
2.99999
2.99999
3
3
3
3
3
3
3
3
3
3
3
3
3
3
3
3
3
3
3
3
3
3
3
3
3
3
3
3
3
3
3
3
3
3
3
3
3
3
3
3
3
3
3
3
3
3
3
3
3
3
3
3
3
3
3
3
3
3
3
3
3
3
3
3
3
3
3
3
3
3
3
3
3
3
3
3
3
3
3
3
3
3
3
3
3
3
3
3
3
3
3
3
3
3
3
3
3
3
3
3
3
3
3
3
3
3
3
3
3
3
3
3
3
3
3
3
3
3
3
3
3
3
3
3
3
3
3
3
3
3
3
3
3
3
3
3
3
3
3
3
3
3
3
3
3
3
3
3
3
3
3
3
3
3
3
3
3
3
3
3
3
3
3
3
3
3
3
3
3
3
3
3
3
3
3
3
3
3
3
3
3
3
3
3
3
3
3
3
3
3
3
3
3
3
3
3
3
3
3
3
3
3
3
3
3
3
3
3
3
3
3
3
3
3
3
3
3
3
3
3
3
3
3
3
3
3
3
3
3
3
3
3
3
3
3
3
3
3
3
3
3
3
3
3
3
3
3
3
3
3
3
3
3
3
3
3
3
3
3
3
3
3
3
3
3
3
3
3
3
3
3
3
3
3
3
3
3
3
3
3
3
3
3
3
3
3
3
3
3
3
3
3
3
3
3
3
3
3
3
3
3
3
3
3
3
3
3
3
3
3
3
3
3
3
3
3
3
3
3
3
3
3
3
3
3
3
3
3
3
3
3
3
3
3
3
3
3
3
3
3
3
3
3
3
3
3
3
3
3
3
3
3
3
3
3
3
3
3
3
3
3
3
3
3
3
3
3
3
3
3
3
3
3
3
3
3
3
3
3
3
3
3
3
3
3
3
3
3
3
3
3
3
3
3
3
3
3
3
3
3
3
3
3
3
3
3
3
3
3
3
3
3
3
3
3
3
3
3
3
3
3
3
3
3
3
3
3
3
3
3
3
3
3
3
3
3
3
3
3
3
3
3
3
3
3
3
3
3
3
3
3
3
3
3
3
3
3
3
3
3
3
3
3
3
3
3
3
3
3
3
3
3
3
3
3
3
3
3
3
3
3
3
3
3
3
3
3
3
3
3
3
3
3
3
3
3
3
3
3
3
3
3
3
3
3
3
3
3
3
3
3
3
3
3
3
3
3
3
3
3
3
3
3
3
3
3
3
3
3
3
3
3
3
3
3
3
3
3
3
3
3
3
3
3
3
3
3
3
3
3
3
3
3
3
3
3
3
3
3
3
3
3
3
3
3
3
3
3
3
3
3
3
3
3
3
3
3
3
3
3
)
;

boundaryField
{
    leftWall
    {
        type            calculated;
        value           nonuniform List<scalar> 
50
(
2
2
2
2
2
2
2
2
1.72004
0.165598
9.1161e-09
1.28352e-08
8.80386e-09
5.90301e-09
3.87407e-09
1.87448e-09
7.95205e-09
4.61729e-08
0.288557
2.47979
3
3
3
3
3
3
3
3
3
3
3
3
3
3
3
3
3
3
3
3
3
3
3
3
3
3
3
3
3
3
)
;
    }
    rightWall
    {
        type            calculated;
        value           nonuniform List<scalar> 
50
(
1.69163
1.67697
1.596
1.55104
1.44585
1.3984
1.55919
1.56589
1.74359
1.87182
1.87101
1.64166
1.22967
1.63795
2.72448
2.99999
3
2.99999
2.99999
3
3
3
3
3
3
3
3
3
3
3
3
3
3
3
3
3
3
3
3
3
3
3
3
3
3
3
3
3
3
3
)
;
    }
    lowerWall
    {
        type            calculated;
        value           nonuniform List<scalar> 
62
(
2
2
2
2
2
2
2
2
2
2
2
2
2
2
2
2
2
2
2
2
1.9999
1.99945
1.99943
1.99943
1.99943
1.99987
1.99999
1.8978
0.67137
0.59468
1.33068
0.997349
1.00049
1.00854
1.16751
1.08239
1.07658
1.05082
1.05216
1.05328
0.822874
1.40983
1.71593
1.08239
1.16584
1.19187
1.22486
1.19356
1.08807
1.09489
1.3592
1.72992
1.72872
1.69531
1.70951
1.89435
2.01238
1.81147
1.69166
1.57928
1.64245
1.69163
)
;
    }
    atmosphere
    {
        type            calculated;
        value           nonuniform List<scalar> 
46
(
3
3
3
3
3
3
3
3
3
3
3
3
3
3
3
3
3
3
3
3
3
3
3
3
3
3
3
3
3
3
3
3
3
3
3
3
3
3
3
3
3
3
3
3
3
3
)
;
    }
    defaultFaces
    {
        type            empty;
    }
}


// ************************************************************************* //
