/*--------------------------------*- C++ -*----------------------------------*\
  =========                 |
  \\      /  F ield         | OpenFOAM: The Open Source CFD Toolbox
   \\    /   O peration     | Website:  https://openfoam.org
    \\  /    A nd           | Version:  13
     \\/     M anipulation  |
\*---------------------------------------------------------------------------*/
FoamFile
{
    format      ascii;
    class       volScalarField;
    location    "1.1";
    object      alpha.mercury;
}
// * * * * * * * * * * * * * * * * * * * * * * * * * * * * * * * * * * * * * //

dimensions      [];

internalField   nonuniform List<scalar> 
2268
(
1
1
1
1
1
1
1
1
1
1
1
1
1
1
1
1
1
1
1
1
0.999898
0.999447
0.999431
1
1
1
1
1
1
1
1
1
1
1
1
1
1
1
1
1
1
1
1
1
0.999885
0.999431
1
1
1
1
1
1
1
1
1
1
1
1
1
1
1
1
1
1
1
1
1
1
0.999874
1
1
1
1
1
1
1
1
1
1
1
1
1
1
1
1
1
1
1
1
1
0.999998
0.999989
1
1
1
1
1
1
1
1
1
1
1
1
1
0.993023
0.984989
0.976816
0.968598
0.95966
0.948451
0.933725
0.923065
0.925472
0.948902
1
1
1
1
1
1
1
1
0.982755
0.884259
0.764545
0.640621
0.524076
0.442688
0.385826
0.345722
0.315111
0.288308
0.258842
0.226151
0.219034
0.253286
0.280657
1
1
1
1
1
1
0.917718
0.6516
0.334843
0.148717
0.0480188
0.00659568
0.00108543
5.61264e-05
3.01929e-30
-1.21334e-30
7.63892e-22
1.0733e-22
7.87804e-11
3.31209e-15
-5.58627e-05
-1.72619e-05
2.18995e-22
1
1
1
0.999473
0.954987
0.651279
0.21216
0.0245179
4.44129e-08
3.02947e-08
1.00779e-08
-2.31624e-10
5.54501e-14
5.33827e-14
1.70713e-13
5.28319e-12
2.44878e-10
-5.92786e-15
6.347e-05
0.0111144
0.0381408
0.0393586
0.0266116
0.0363353
0.0363341
0.0682407
0.175525
0.179533
0.0880686
0.0948876
0.359181
0.716502
0.53367
0.390643
0.390373
0.498882
0.689903
0.690041
0.69012
0.688785
0.679736
0.686925
0.0379504
0.113208
0.151321
0.242766
0.292735
0.208755
0.0879983
0.448114
0.864807
0.865208
0.73408
0.602894
0.54088
0.625406
0.689446
0.677609
0.600297
0.643511
0.68032
0.0381347
0.0939611
0.088012
0.121968
0.304553
0.350455
0.266729
0.515801
0.865135
0.864736
0.865103
0.864741
0.753914
0.286003
0.32284
0.3064
0.285377
0.612571
0.611258
0.0368421
0.0291087
0.0026821
0.000236492
0.0313607
0.385475
0.642023
0.669511
0.675467
0.724367
0.849639
0.849567
0.614884
0.225169
0.220337
0.221353
0.239906
0.397754
0.546572
0.0352887
0.0135667
0.000202774
0.00011406
0.000241926
0.0522194
0.306022
0.318415
0.14956
0.142978
0.443746
0.709529
0.652652
0.48161
0.326966
0.259323
0.390785
0.236237
0.36845
0.0352286
0.00314375
1.02443e-06
1.10036e-05
0.000139055
0.000247557
0.000242506
0.00123389
0.000253137
0.000596094
0.210305
0.44575
0.418528
0.516542
0.542883
0.548392
0.305921
0.12565
0.140568
0.0162827
0.00134942
-9.40206e-10
9.75183e-10
9.07783e-09
0.000132451
0.000243619
0.000251195
0.000241857
0.00305132
0.152081
0.248442
0.270109
0.254073
0.242194
0.175338
0.0942575
0.0431913
0.065139
0.00229665
2.67568e-08
5.14612e-07
5.50385e-07
-2.02518e-13
1.48396e-21
5.23425e-05
0.000129455
0.000194612
0.00740916
0.0544401
0.0449316
0.00831794
0.000808051
0.00315709
0.0207198
2.05121e-06
0.00595504
0.0387761
0.860021
0.85107
0.73673
0.480323
0.166147
0.0139789
1.73744e-08
2.41794e-08
1.62913e-09
5.56354e-10
3.11704e-10
1.14059e-10
8.67764e-12
6.23572e-12
7.19064e-12
5.3299e-12
1.20714e-08
1.99461e-06
0.00371289
0.0398055
0.041975
0.0250384
3.58509e-06
0.082799
0.0915583
0.0158197
7.35716e-08
2.02148e-09
-3.84217e-10
2.17905e-09
2.36249e-10
1.07933e-11
2.06481e-11
3.11674e-11
3.42144e-11
2.9759e-11
2.37441e-11
2.72611e-11
2.74555e-11
3.02496e-11
1.72026e-05
0.000155856
5.41615e-10
1.15178e-06
3.1887e-05
5.7204e-06
3.87503e-09
9.80771e-09
9.99322e-09
8.36928e-08
2.60591e-09
9.79343e-10
2.47805e-11
1.37403e-11
2.86046e-11
4.72013e-11
5.57781e-11
5.52177e-11
3.51372e-11
2.36054e-11
4.43434e-11
5.32565e-09
1.63629e-07
1.08762e-06
5.40414e-10
7.68078e-10
5.85989e-09
1.09703e-09
1.82191e-07
5.58649e-09
1.19021e-08
5.30327e-09
2.41251e-09
1.23029e-09
3.37876e-10
1.48846e-12
3.50311e-12
4.61423e-12
5.90941e-12
4.39834e-12
4.8312e-12
1.58495e-09
6.21723e-09
7.69238e-09
9.96594e-09
2.05148e-08
5.88447e-10
2.76643e-09
9.31693e-10
1.27271e-09
1.19042e-09
1.80992e-09
3.58014e-09
6.15479e-09
3.70379e-09
1.3048e-09
4.51723e-10
4.90809e-11
5.50277e-13
6.52993e-13
6.56115e-13
1.40532e-10
1.63175e-09
4.11984e-09
5.50219e-09
6.40478e-09
6.03546e-09
2.59505e-09
2.91637e-10
6.58547e-10
1.53334e-09
8.27116e-10
1.01351e-09
1.65516e-09
2.38714e-09
2.25811e-09
2.83627e-09
1.75025e-09
6.70643e-10
1.49388e-10
7.38801e-12
1.13871e-12
5.41576e-11
8.65213e-10
2.83677e-09
4.04461e-09
4.2217e-09
3.85181e-09
2.80626e-09
1.51413e-09
4.59476e-10
2.85383e-10
4.54186e-10
6.86267e-10
7.77731e-10
8.91329e-10
1.30071e-09
2.00312e-09
1.55829e-09
1.60494e-09
8.92455e-10
3.44111e-10
5.27508e-11
1.62437e-11
1.96286e-10
1.28478e-09
2.61925e-09
3.10407e-09
3.14043e-09
1.90767e-09
7.76448e-10
3.54654e-10
2.62288e-10
2.4021e-10
2.58969e-10
2.78177e-10
3.34592e-10
3.85594e-10
3.22127e-10
3.02258e-10
2.86718e-10
8.84795e-10
7.90411e-10
4.27051e-10
1.38782e-10
6.59534e-11
2.68709e-10
1.14878e-09
1.78177e-09
2.05927e-09
1.83921e-09
9.06658e-10
3.87937e-10
2.90284e-10
1.65043e-10
1.3745e-10
1.52981e-10
1.63735e-10
1.42141e-10
1.15153e-10
9.54302e-11
9.73221e-11
7.05773e-11
6.28455e-11
5.73074e-10
4.4509e-10
2.01026e-10
1.20798e-10
2.30383e-10
8.20381e-10
1.11774e-09
1.21459e-09
9.36795e-10
5.20631e-10
2.77117e-10
1.47054e-10
9.46038e-11
8.80298e-11
8.03372e-11
7.78482e-11
6.3977e-11
4.43933e-11
2.60991e-11
1.81667e-11
1.88571e-11
2.26964e-11
2.43596e-11
3.88003e-10
2.18173e-10
1.14615e-10
2.16414e-10
6.35781e-10
7.73463e-10
6.82398e-10
4.82516e-10
3.17524e-10
1.49051e-10
1.12877e-10
7.32676e-11
5.35314e-11
3.99617e-11
3.35523e-11
2.51786e-11
1.52508e-11
8.40598e-12
5.77719e-12
5.26956e-12
5.9895e-12
6.59589e-12
7.08362e-12
1.57423e-10
4.4995e-11
7.15892e-11
5.27973e-10
8.76028e-10
7.84271e-10
4.97019e-10
1.87104e-10
1.08471e-10
6.33989e-11
3.64329e-11
2.32843e-11
1.7535e-11
1.32623e-11
1.00732e-11
6.96997e-12
5.22435e-12
4.32591e-12
3.58133e-12
3.18597e-12
2.49266e-12
2.42894e-12
2.21407e-12
2.01459e-11
2.58878e-12
1.01441e-10
6.63895e-10
9.27275e-10
8.97668e-10
5.33959e-10
1.93263e-10
1.03492e-10
5.88741e-11
2.95725e-11
1.66508e-11
1.07459e-11
8.14772e-12
6.32806e-12
5.25363e-12
4.27899e-12
3.62753e-12
3.25834e-12
2.52923e-12
1.74534e-12
1.36621e-12
1.21177e-12
6.07648e-13
1.08378e-12
6.22969e-11
5.07809e-10
8.43748e-10
8.60148e-10
6.05113e-10
3.51532e-10
2.68821e-10
2.06526e-10
1.1834e-10
6.72706e-11
2.90939e-11
1.0493e-11
7.02636e-12
5.42814e-12
4.45535e-12
3.91442e-12
3.43604e-12
2.71973e-12
1.92205e-12
1.46996e-12
1.18955e-12
5.35259e-14
1.01743e-13
1.55816e-11
2.26542e-10
5.14418e-10
6.54516e-10
6.21708e-10
4.83749e-10
3.90381e-10
3.74563e-10
3.53473e-10
3.08552e-10
2.25156e-10
1.15494e-10
3.70055e-11
1.53794e-11
9.41833e-12
7.80028e-12
6.65886e-12
5.40368e-12
4.32303e-12
3.00677e-12
1.86092e-12
9.75842e-15
9.34846e-14
4.2168e-12
5.92018e-11
2.07434e-10
3.88175e-10
5.0341e-10
4.43953e-10
3.64423e-10
3.47746e-10
3.60394e-10
3.79047e-10
3.8467e-10
3.7132e-10
3.07129e-10
1.96849e-10
9.47916e-11
4.18223e-11
2.39166e-11
1.7364e-11
1.37707e-11
1.06908e-11
7.28622e-12
7.19066e-15
1.01363e-13
1.04306e-12
1.28218e-11
5.83527e-11
1.47035e-10
2.93217e-10
3.32869e-10
2.89554e-10
2.47826e-10
2.5744e-10
2.82317e-10
3.29717e-10
3.63103e-10
3.66768e-10
3.62332e-10
3.29145e-10
2.47312e-10
1.40013e-10
7.25439e-11
4.75964e-11
3.03171e-11
1.73434e-11
2.0866e-15
4.15525e-14
4.00796e-13
3.08296e-12
1.67173e-11
7.15991e-11
9.22976e-11
1.47232e-10
1.63698e-10
1.54587e-10
1.52187e-10
1.63628e-10
1.75963e-10
1.93591e-10
2.1933e-10
2.57006e-10
2.81041e-10
2.68025e-10
2.21176e-10
1.49312e-10
8.40397e-11
4.69488e-11
2.65246e-11
2.82117e-16
1.00166e-14
1.4364e-13
1.02854e-12
7.11423e-12
3.42581e-11
4.97291e-11
3.20118e-11
6.71983e-11
8.49688e-11
7.96577e-11
7.92424e-11
8.22187e-11
7.72045e-11
7.26961e-11
8.35884e-11
1.00622e-10
1.16419e-10
1.18933e-10
1.0002e-10
6.52602e-11
3.48818e-11
1.89989e-11
3.55674e-17
1.48253e-15
3.98077e-14
3.67528e-13
2.48067e-12
1.37422e-11
2.56338e-11
1.93198e-11
3.64355e-11
4.78986e-11
4.20771e-11
3.56578e-11
3.56626e-11
3.29235e-11
2.59236e-11
1.9769e-11
2.44239e-11
2.59955e-11
2.71449e-11
2.71932e-11
1.97675e-11
1.31245e-11
6.74165e-12
5.60336e-18
1.76613e-16
9.19616e-15
1.05944e-13
8.27185e-13
4.62786e-12
1.03849e-11
1.08882e-11
1.93788e-11
2.66949e-11
2.34369e-11
1.68721e-11
1.53831e-11
1.40531e-11
1.00178e-11
7.22363e-12
6.04243e-12
6.64428e-12
7.18181e-12
7.59561e-12
6.08067e-12
4.33983e-12
2.82507e-12
1.13268e-18
1.78367e-17
1.7699e-15
2.68278e-14
2.59211e-13
1.38196e-12
3.62085e-12
5.2546e-12
9.05792e-12
1.32798e-11
1.18899e-11
8.26936e-12
6.53418e-12
5.81719e-12
4.37967e-12
2.85795e-12
2.28399e-12
2.26006e-12
2.46836e-12
2.64805e-12
2.28684e-12
1.90986e-12
1.5708e-12
2.3619e-19
1.7163e-18
2.77338e-16
6.65529e-15
7.56132e-14
4.01851e-13
1.22322e-12
2.15564e-12
3.67776e-12
5.7329e-12
5.23179e-12
3.75858e-12
2.60092e-12
2.13526e-12
1.67185e-12
1.09543e-12
8.48887e-13
7.91762e-13
8.4813e-13
9.55214e-13
9.42996e-13
8.56439e-13
7.5548e-13
4.16992e-20
2.00545e-19
4.18802e-17
1.48461e-15
1.92156e-14
1.11011e-13
3.78811e-13
7.60499e-13
1.30154e-12
2.09666e-12
1.97481e-12
1.47566e-12
9.45281e-13
7.17348e-13
5.69572e-13
4.04081e-13
3.13396e-13
2.89494e-13
3.02389e-13
3.58858e-13
3.65347e-13
3.7061e-13
3.4918e-13
4.96504e-21
3.10807e-20
7.0621e-18
2.66789e-16
3.91012e-15
2.56705e-14
9.85029e-14
2.29063e-13
4.03405e-13
6.34015e-13
6.24464e-13
4.81335e-13
3.06027e-13
2.2671e-13
1.83582e-13
1.41852e-13
1.15565e-13
1.07956e-13
1.11213e-13
1.32873e-13
1.50037e-13
1.48768e-13
1.41182e-13
1.23559e-21
4.68544e-21
1.13294e-18
3.81666e-17
6.16233e-16
4.68932e-15
2.07599e-14
5.59759e-14
1.05241e-13
1.61403e-13
1.61892e-13
1.28425e-13
8.4288e-14
6.4286e-14
5.40337e-14
4.52808e-14
3.95586e-14
3.8007e-14
3.961e-14
4.8764e-14
5.34598e-14
5.66434e-14
5.42903e-14
6.84981e-23
2.04329e-22
6.83024e-20
2.23926e-18
8.10683e-17
6.97698e-16
3.6213e-15
1.138e-14
2.28916e-14
3.43138e-14
3.45971e-14
2.78231e-14
1.93208e-14
1.59669e-14
1.43933e-14
1.32322e-14
1.25503e-14
1.25906e-14
1.36792e-14
1.7371e-14
1.98738e-14
1.92693e-14
1.78663e-14
8.07538e-24
2.49514e-23
1.02403e-20
4.13399e-19
4.32519e-18
9.26579e-17
5.36814e-16
1.95082e-15
4.20265e-15
6.19351e-15
6.20836e-15
4.99943e-15
3.86524e-15
3.63071e-15
3.60218e-15
3.63573e-15
3.74606e-15
3.90201e-15
4.521e-15
5.73871e-15
6.27731e-15
6.21329e-15
5.38186e-15
2.3728e-25
1.05281e-24
5.41047e-22
3.48128e-20
7.30771e-19
5.76978e-18
7.16849e-17
2.8436e-16
6.60342e-16
9.63528e-16
9.53996e-16
7.86931e-16
7.27942e-16
7.77221e-16
8.50129e-16
9.22757e-16
9.45547e-16
1.08307e-15
1.33891e-15
1.67813e-15
1.80318e-15
1.55294e-15
1.31156e-15
2.75052e-26
6.25424e-26
2.96276e-23
2.31212e-21
5.46622e-20
8.22154e-19
4.74004e-18
3.65634e-17
8.8038e-17
1.28029e-16
1.27059e-16
1.1644e-16
1.28921e-16
1.55601e-16
1.83654e-16
2.1048e-16
2.3215e-16
2.74132e-16
3.39923e-16
4.25836e-16
4.25707e-16
3.6766e-16
2.68355e-16
1.19206e-27
2.79971e-27
1.94313e-24
1.74192e-22
3.16197e-21
5.08481e-20
6.67852e-19
2.22602e-18
9.76031e-18
1.43217e-17
1.49494e-17
1.62445e-17
2.11448e-17
2.80335e-17
3.49335e-17
4.19893e-17
4.94901e-17
6.04111e-17
7.60475e-17
8.96698e-17
8.62282e-17
6.12261e-17
4.18179e-17
4.87643e-29
1.19454e-28
8.23621e-26
1.28228e-23
2.0413e-22
3.45405e-21
4.32943e-20
2.78896e-19
8.90925e-19
1.35725e-18
1.58316e-18
2.10415e-18
3.09889e-18
4.39126e-18
5.71511e-18
7.22219e-18
9.06866e-18
1.19502e-17
1.51857e-17
1.63836e-17
1.37863e-17
9.06748e-18
5.312e-18
7.39865e-31
3.34303e-30
3.40727e-27
6.37255e-25
1.30569e-23
2.24081e-22
2.95905e-21
1.68269e-20
6.82386e-20
1.11838e-19
1.52919e-19
2.4637e-19
3.95686e-19
6.0419e-19
8.23259e-19
1.1062e-18
1.49971e-18
1.85047e-18
2.55172e-18
2.54823e-18
1.93253e-18
9.44119e-19
4.91087e-19
-9.15008e-32
4.3486e-32
1.34997e-28
2.67506e-26
5.94452e-25
1.03911e-23
1.82289e-22
1.05023e-21
4.46534e-21
8.20814e-21
1.34234e-20
2.5338e-20
4.40936e-20
5.95982e-20
8.63291e-20
1.2729e-19
1.89504e-19
2.90498e-19
3.56013e-19
3.06266e-19
1.88342e-19
8.21308e-20
3.46244e-20
-1.88227e-32
-1.17012e-32
4.79109e-30
1.04106e-27
2.68585e-26
4.59168e-25
8.26476e-24
5.9539e-23
2.53503e-22
5.42538e-22
1.05585e-21
2.26296e-21
4.04156e-21
6.79891e-21
1.07656e-20
1.69887e-20
2.6123e-20
3.64628e-20
3.91954e-20
2.80954e-20
1.49898e-20
5.54838e-21
2.33332e-21
-2.3487e-33
-2.31332e-33
1.64961e-31
3.90997e-29
1.27491e-27
2.0533e-26
3.39431e-25
2.67549e-24
1.30208e-23
3.25359e-23
7.41528e-23
1.77519e-22
3.53609e-22
6.69948e-22
1.13845e-21
1.86685e-21
2.82448e-21
3.61617e-21
3.44381e-21
2.24269e-21
1.09464e-21
4.02165e-22
5.85344e-23
-2.47214e-34
-3.01013e-34
5.60344e-33
1.33078e-30
5.98386e-29
9.27488e-28
1.3383e-26
1.13584e-25
6.36757e-25
1.79537e-24
4.69618e-24
1.2441e-23
2.72729e-23
5.42674e-23
1.00297e-22
1.69949e-22
2.46796e-22
2.91637e-22
2.4938e-22
1.53669e-22
6.24964e-23
1.22927e-23
9.30547e-25
-2.30747e-35
-3.19786e-35
1.77984e-34
3.863e-32
2.56589e-30
4.03728e-29
5.23077e-28
4.81921e-27
2.99443e-26
9.21276e-26
2.6969e-25
7.82195e-25
1.80088e-24
3.88124e-24
7.64197e-24
1.32254e-23
1.82252e-23
1.98581e-23
1.55288e-23
8.37603e-24
2.32453e-24
3.29203e-25
2.36905e-26
-1.95271e-36
-2.94656e-36
5.4575e-36
9.66095e-34
9.73314e-32
1.61006e-30
1.98008e-29
1.99701e-28
1.30475e-27
4.36279e-27
1.39345e-26
4.3836e-26
1.05467e-25
2.45811e-25
5.06226e-25
8.89696e-25
1.17557e-24
1.1851e-24
8.33578e-25
3.75288e-25
8.17498e-26
4.83418e-27
4.70762e-27
-1.52021e-37
-2.42828e-37
1.6209e-37
2.22731e-35
3.26431e-33
5.72347e-32
6.96642e-31
7.61108e-30
5.06017e-29
1.87163e-28
6.41585e-28
2.18602e-27
5.54404e-27
1.39217e-26
2.98689e-26
5.3e-26
6.82581e-26
6.20628e-26
3.87066e-26
1.43547e-26
2.05432e-27
4.91294e-28
2.01783e-27
-1.09932e-38
-1.8239e-38
3.26074e-39
5.03434e-37
9.68285e-35
1.79674e-33
2.218e-32
2.42921e-31
1.73056e-30
7.19845e-30
2.63958e-29
9.81907e-29
2.66034e-28
7.18382e-28
1.61771e-27
2.86924e-27
3.63311e-27
2.92728e-27
1.62545e-27
4.85247e-28
7.7613e-29
1.90813e-28
1.11103e-27
-7.4214e-40
-1.26352e-39
-1.09084e-40
1.12964e-38
2.52157e-36
4.95088e-35
6.29919e-34
6.09528e-33
5.29237e-32
2.50009e-31
9.8854e-31
4.05955e-30
1.185e-29
3.4418e-29
7.84035e-29
1.43026e-28
1.78668e-28
1.32246e-28
6.52146e-29
1.69811e-29
1.67156e-29
8.74049e-29
5.85486e-28
-4.66981e-41
-8.14012e-41
-2.1233e-41
2.47827e-40
5.68926e-38
1.18962e-36
1.59141e-35
1.42412e-34
1.49413e-33
8.01246e-33
3.4563e-32
1.56948e-31
4.93225e-31
1.54337e-30
3.41308e-30
6.60583e-30
8.14792e-30
5.84893e-30
2.62053e-30
1.50677e-30
6.40434e-30
3.61477e-29
2.37716e-28
0.000374165
0.000485743
0.000485051
0.00018735
5.21207e-05
7.20675e-05
6.6979e-05
2.41947e-05
5.62118e-09
8.26065e-07
2.70562e-09
1.40183e-09
7.27274e-09
5.0389e-09
9.59409e-09
9.36799e-09
9.33118e-09
1.16322e-08
8.55448e-09
1.3987e-08
3.22663e-09
3.82914e-09
6.02997e-09
7.83321e-09
1.89001e-10
1.51303e-10
2.27137e-10
2.58501e-10
4.13985e-11
3.77569e-11
3.71574e-11
3.68288e-11
2.15745e-11
1.86627e-11
1.69998e-11
1.4994e-11
6.76493e-12
5.52199e-12
4.72672e-12
3.95221e-12
1.82378e-12
1.4634e-12
1.3065e-12
1.21071e-12
1.10453e-12
1.041e-12
9.6329e-13
8.41633e-13
1.03484e-12
9.13588e-13
8.13817e-13
7.38494e-13
1.49001e-12
1.37339e-12
1.03308e-12
7.93278e-13
4.69521e-12
3.61011e-12
2.5087e-12
1.69258e-12
1.26288e-11
1.04151e-11
6.9136e-12
5.21741e-12
1.91868e-11
1.49075e-11
1.06243e-11
7.52257e-12
1.02684e-11
7.08983e-12
5.72649e-12
4.43178e-12
4.01468e-12
3.23518e-12
2.62038e-12
2.21507e-12
1.84184e-12
1.37261e-12
1.23687e-12
1.14946e-12
1.2606e-12
1.03808e-12
8.55885e-13
7.3091e-13
6.60052e-13
5.89639e-13
5.20657e-13
4.48042e-13
3.20207e-13
2.90125e-13
2.5721e-13
2.07025e-13
1.2788e-13
1.17398e-13
1.07239e-13
8.98481e-14
4.98789e-14
4.51775e-14
4.01991e-14
3.50028e-14
1.60559e-14
1.40873e-14
1.24876e-14
1.09723e-14
4.82584e-15
4.17742e-15
3.61349e-15
3.03665e-15
1.11941e-15
9.1296e-16
7.56943e-16
6.13788e-16
2.20371e-16
1.70587e-16
1.34654e-16
1.02262e-16
3.19344e-17
2.0876e-17
1.58961e-17
1.14566e-17
3.67874e-18
2.48671e-18
1.64222e-18
1.02785e-18
2.94833e-19
1.67141e-19
1.05594e-19
6.37709e-20
1.98255e-20
1.05992e-20
2.11981e-21
2.41494e-22
3.26235e-22
1.90104e-23
3.43951e-24
1.26882e-24
1.91126e-26
6.36943e-26
1.33547e-25
2.59969e-25
1.90162e-26
4.84298e-26
1.04407e-25
2.31718e-25
1.88397e-26
2.76141e-26
6.78284e-26
2.04254e-25
7.93999e-27
1.92106e-26
6.42807e-26
1.89034e-25
4.55838e-27
1.40184e-26
5.19699e-26
1.66177e-25
3.363e-27
1.18123e-26
4.01622e-26
1.22462e-25
1.71913e-27
7.84856e-27
2.53467e-26
7.10077e-26
1.10524e-27
3.42314e-27
9.82722e-27
2.36824e-26
1.99785e-08
3.07168e-08
4.47019e-07
6.38785e-07
1.05219e-07
0
5.75316e-23
7.04238e-06
9.66297e-05
0.00344452
0.012052
4.43407e-09
2.15781e-05
0.00222363
0.00960529
-8.31476e-09
2.2786e-06
0.00155064
0.0147333
2.1417e-08
2.83937e-08
1.30981e-07
4.21456e-07
5.18382e-07
2.79457e-07
-2.96555e-14
8.47718e-07
6.53795e-05
9.93939e-05
-1.0846e-06
-1.68434e-08
3.28119e-05
0.000658286
9.17751e-09
1.78129e-08
6.68964e-06
0.000211805
0.00950533
8.49102e-08
4.4598e-08
6.60775e-08
2.44366e-07
5.1286e-07
5.04597e-07
3.44863e-08
5.63676e-14
4.34783e-06
6.44888e-05
0.000589323
0.000534359
4.93442e-06
3.79716e-06
1.44035e-05
1.94493e-05
1.02506e-05
0.000804852
0.00816051
1.75694e-08
1.23591e-08
2.09673e-08
1.54764e-07
2.98435e-07
2.80574e-07
1.67503e-07
5.91842e-08
6.1465e-08
7.86211e-06
1.97973e-05
1.10659e-06
1.94201e-05
3.00334e-05
5.02536e-05
3.76626e-05
3.14248e-05
0.000435746
0.00102011
2.16178e-08
3.08262e-08
3.09349e-08
3.42396e-08
4.83674e-08
3.90039e-08
5.00476e-08
4.10248e-08
9.25071e-08
1.05732e-08
9.76725e-09
2.32011e-06
2.67876e-05
4.68568e-05
6.26876e-05
6.00091e-05
1.94237e-05
0.000122683
0.000569305
1.16122e-08
1.74248e-08
2.55266e-08
2.55722e-08
1.9568e-08
1.97603e-08
1.92884e-08
1.79219e-08
8.9507e-09
1.85497e-08
7.22225e-07
4.07526e-06
1.70058e-05
2.63953e-05
4.56539e-05
1.1377e-05
4.26265e-05
0.000686384
0.000876417
3.40855e-10
6.11195e-10
1.52323e-09
2.12327e-09
7.02734e-09
1.98927e-08
1.96957e-08
1.44008e-08
7.43441e-10
4.13464e-08
7.72802e-07
3.55368e-07
1.88731e-12
8.65843e-09
4.73457e-07
5.90244e-06
0.00022066
0.00071717
0.000651329
4.20428e-11
1.71066e-10
5.15877e-10
6.60012e-10
5.58123e-10
1.59406e-10
9.86771e-11
2.97604e-14
1.68732e-14
1.62358e-14
7.69303e-11
5.90557e-11
6.05771e-09
3.77211e-08
3.70205e-08
4.49716e-05
6.32209e-05
2.48293e-08
4.50332e-08
1.16713e-11
8.86372e-12
6.73069e-12
8.01318e-13
5.5833e-18
2.93427e-14
8.84371e-14
8.44256e-13
4.06083e-12
9.80245e-12
1.13857e-10
2.07903e-10
1.32392e-11
2.07999e-07
5.46766e-07
4.98457e-07
3.32966e-09
4.07978e-15
3.59847e-15
3.19535e-12
2.39452e-12
2.01824e-12
1.76866e-12
1.4318e-12
1.09039e-12
8.06819e-13
5.40939e-13
2.90604e-13
1.00437e-13
1.52544e-14
2.82268e-14
3.37517e-14
2.5849e-14
1.20428e-08
1.39119e-08
8.29498e-09
3.96103e-15
8.88289e-15
1.03266e-12
9.44648e-13
8.60109e-13
7.73095e-13
6.65123e-13
5.04171e-13
3.79796e-13
2.93061e-13
2.4534e-13
2.06407e-13
1.58288e-13
1.25437e-13
8.9772e-14
3.64118e-14
3.34492e-14
3.58699e-14
3.26071e-14
3.89893e-14
1.26594e-14
7.47116e-13
6.53257e-13
5.65307e-13
4.95825e-13
4.43119e-13
3.53374e-13
2.73072e-13
2.23165e-13
1.74727e-13
1.50472e-13
1.33861e-13
1.18605e-13
1.07097e-13
9.32838e-14
7.63414e-14
6.35053e-14
5.85594e-14
4.59494e-14
1.33568e-14
6.43698e-13
5.50112e-13
4.53431e-13
3.80415e-13
3.40431e-13
2.68342e-13
1.93612e-13
1.49273e-13
1.20413e-13
1.02918e-13
8.94684e-14
7.45939e-14
6.98285e-14
6.89837e-14
7.10744e-14
6.94895e-14
6.31684e-14
4.62635e-14
1.37713e-14
6.39492e-13
4.08828e-13
2.97825e-13
2.15328e-13
1.82043e-13
1.48782e-13
1.16611e-13
8.63619e-14
7.05084e-14
5.57135e-14
3.89846e-14
3.83668e-14
4.17498e-14
4.68267e-14
5.35977e-14
5.74525e-14
5.88069e-14
4.63278e-14
1.37791e-14
1.2016e-12
5.50441e-13
2.73966e-13
1.51851e-13
1.09938e-13
7.94966e-14
5.97366e-14
4.81175e-14
3.79582e-14
2.59607e-14
2.21087e-14
2.19939e-14
2.36719e-14
2.99227e-14
3.62117e-14
4.17283e-14
4.87206e-14
4.5579e-14
1.33467e-14
2.9705e-12
1.25813e-12
4.55202e-13
2.0213e-13
9.87027e-14
5.66275e-14
3.61959e-14
2.40662e-14
1.80109e-14
1.65786e-14
1.67786e-14
1.5078e-14
1.51116e-14
1.85497e-14
2.47415e-14
3.01983e-14
4.16739e-14
3.73739e-14
1.19424e-14
4.64113e-12
1.94396e-12
8.43211e-13
3.03896e-13
1.28172e-13
6.09607e-14
3.17037e-14
1.75209e-14
1.17085e-14
1.2306e-14
1.20896e-14
1.013e-14
9.61514e-15
1.10635e-14
1.57764e-14
2.2528e-14
3.26378e-14
2.80124e-14
1.05334e-14
3.45438e-12
2.20196e-12
1.00821e-12
4.08659e-13
1.7824e-13
8.03332e-14
3.64791e-14
1.72323e-14
9.66506e-15
7.83168e-15
7.27346e-15
6.1722e-15
5.66221e-15
6.45121e-15
1.01245e-14
1.62119e-14
2.73463e-14
2.17477e-14
9.2463e-15
1.70528e-12
1.16553e-12
6.11775e-13
3.7987e-13
1.90165e-13
8.74899e-14
3.93971e-14
1.78124e-14
8.65752e-15
5.12677e-15
3.9315e-15
3.3482e-15
3.12492e-15
3.74621e-15
6.4796e-15
1.21653e-14
2.10403e-14
1.86312e-14
8.2708e-15
9.34929e-13
6.83464e-13
4.83535e-13
2.83525e-13
1.47429e-13
7.36782e-14
3.49389e-14
1.53569e-14
7.16362e-15
3.54442e-15
2.12519e-15
1.65545e-15
1.64861e-15
2.17397e-15
4.3081e-15
8.7766e-15
1.5336e-14
1.47414e-14
6.77592e-15
5.83418e-13
4.57998e-13
3.27926e-13
1.89865e-13
9.79589e-14
4.92308e-14
2.33092e-14
1.05824e-14
4.6795e-15
2.23585e-15
1.12051e-15
7.92043e-16
8.47539e-16
1.29644e-15
2.95673e-15
4.65333e-15
9.1361e-15
1.13693e-14
5.1732e-15
3.27072e-13
2.45939e-13
1.74403e-13
1.10058e-13
5.82284e-14
2.91394e-14
1.35402e-14
5.96259e-15
2.58145e-15
1.19028e-15
5.34718e-16
3.71105e-16
4.43884e-16
7.20723e-16
1.4285e-15
2.99243e-15
5.6588e-15
8.43993e-15
4.22608e-15
1.62902e-13
1.20974e-13
8.22501e-14
5.0967e-14
2.83141e-14
1.35086e-14
6.15214e-15
2.6614e-15
1.11946e-15
4.98632e-16
1.78933e-16
1.54975e-16
1.4416e-16
2.89925e-16
8.69873e-16
2.1671e-15
3.70324e-15
6.06958e-15
2.96715e-15
7.13502e-14
5.11901e-14
3.38644e-14
1.93363e-14
1.05226e-14
5.34765e-15
2.44806e-15
1.03991e-15
4.60331e-16
1.41958e-16
5.9301e-17
2.84832e-17
4.44306e-17
1.80708e-16
6.39101e-16
1.53804e-15
2.44286e-15
3.53812e-15
2.01277e-15
2.62752e-14
1.73328e-14
1.05171e-14
6.18808e-15
3.34654e-15
1.61985e-15
7.16696e-16
3.08693e-16
1.15457e-16
1.71041e-17
5.32285e-18
6.06016e-18
2.33559e-17
1.24288e-16
4.3114e-16
1.0203e-15
1.56458e-15
1.89244e-15
1.13658e-15
8.11309e-15
5.05697e-15
2.88744e-15
1.57955e-15
7.93767e-16
3.66731e-16
1.68144e-16
6.27186e-17
6.59286e-18
1.25515e-18
7.99299e-19
1.95916e-18
1.48332e-17
7.76808e-17
2.63361e-16
6.12848e-16
9.41252e-16
8.66065e-16
6.7857e-16
1.95032e-15
1.09699e-15
5.65576e-16
2.82858e-16
1.36105e-16
6.95379e-17
1.93847e-17
1.39551e-18
2.3861e-19
1.47553e-19
1.60882e-19
9.53043e-19
8.6502e-18
4.32624e-17
1.46116e-16
3.38254e-16
5.0097e-16
4.61782e-16
2.01723e-16
3.82079e-16
1.99418e-16
9.29875e-17
4.20847e-17
2.16382e-17
5.06357e-18
3.41967e-19
4.48299e-20
3.12409e-20
3.7238e-20
6.54042e-20
5.17602e-19
4.49613e-18
2.15676e-17
7.35323e-17
1.67051e-16
2.41031e-16
2.14316e-16
8.76867e-17
5.12832e-17
2.29612e-17
1.01501e-17
4.72904e-18
6.95681e-19
2.99787e-20
7.56294e-21
9.06899e-21
1.43921e-20
2.64388e-20
5.78786e-20
2.85348e-19
2.09707e-18
9.83743e-18
3.34932e-17
7.48478e-17
1.07306e-16
9.47228e-17
2.98654e-17
5.15627e-18
2.26006e-18
8.45649e-19
7.49153e-20
2.38065e-21
1.87633e-21
3.23201e-21
6.58261e-21
1.41541e-20
2.96876e-20
6.37898e-20
1.85697e-19
9.36147e-19
4.18208e-18
1.38757e-17
2.99042e-17
4.66844e-17
3.33526e-17
1.13717e-17
4.08916e-19
1.44141e-19
9.8814e-21
5.46101e-22
7.48526e-22
1.56503e-21
3.54745e-21
8.0738e-21
1.76492e-20
3.7713e-20
7.61148e-20
1.65195e-19
4.99216e-19
1.76458e-18
5.42446e-18
1.09262e-17
1.74154e-17
1.18336e-17
3.89656e-18
1.88344e-20
6.91778e-22
1.74402e-22
3.03039e-22
7.25398e-22
1.75281e-21
4.18514e-21
9.61463e-21
2.14361e-20
4.49615e-20
8.91146e-20
1.72103e-19
3.72847e-19
8.95617e-19
2.16184e-18
4.10438e-18
9.55094e-18
5.21007e-18
1.81245e-18
4.39845e-23
3.53647e-23
9.43385e-23
2.8513e-22
7.50396e-22
1.88763e-21
4.59759e-21
1.06816e-20
2.40276e-20
5.08223e-20
9.98955e-20
1.83998e-19
3.27445e-19
5.82814e-19
1.09683e-18
2.37603e-18
2.6025e-18
2.07378e-18
5.03052e-19
3.72741e-24
2.35114e-23
9.00274e-23
2.61838e-22
6.91868e-22
1.88843e-21
4.66578e-21
1.1091e-20
2.50519e-20
5.35451e-20
1.03911e-19
1.8693e-19
2.94141e-19
4.55927e-19
7.98854e-19
1.29369e-18
1.32827e-18
6.03982e-19
1.94728e-19
3.68051e-24
2.13006e-23
7.32232e-23
2.19984e-22
6.23966e-22
1.68235e-21
4.30184e-21
1.03946e-20
2.37411e-20
4.94201e-20
9.66115e-20
1.65048e-19
2.44991e-19
3.92873e-19
5.86594e-19
7.33963e-19
5.24658e-19
2.83661e-19
6.60747e-20
2.98937e-24
1.55348e-23
5.42088e-23
1.70973e-22
5.0596e-22
1.4005e-21
3.61826e-21
8.83254e-21
2.02373e-20
4.25245e-20
8.28938e-20
1.40213e-19
2.05079e-19
3.00461e-19
3.68909e-19
3.68399e-19
2.68882e-19
9.05092e-20
3.15489e-20
2.31567e-24
1.03859e-23
3.84363e-23
1.25318e-22
3.78246e-22
1.05112e-21
2.71183e-21
6.60731e-21
1.49887e-20
3.15842e-20
5.95129e-20
9.84053e-20
1.4423e-19
1.92964e-19
1.85984e-19
1.44717e-19
6.87835e-20
3.58823e-20
1.20235e-20
1.67141e-24
6.97901e-24
2.58088e-23
8.52233e-23
2.53519e-22
7.05961e-22
1.79737e-21
4.24998e-21
9.38467e-21
1.93984e-20
3.55466e-20
5.65332e-20
7.8881e-20
9.50599e-20
7.52096e-20
4.64399e-20
2.40437e-20
1.11078e-20
5.64176e-21
1.03387e-24
4.13871e-24
1.55968e-23
5.03126e-23
1.47329e-22
3.9861e-22
9.8936e-22
2.26057e-21
4.82248e-21
9.63206e-21
1.69954e-20
2.5764e-20
3.31018e-20
3.60736e-20
2.56827e-20
1.35967e-20
5.97448e-21
4.09821e-21
2.36542e-21
5.84026e-25
2.17358e-24
7.36125e-24
2.2736e-23
6.25314e-23
1.61164e-22
3.98797e-22
9.03284e-22
1.86656e-21
3.5537e-21
6.02557e-21
8.86855e-21
1.02284e-20
1.0295e-20
6.56147e-21
3.90439e-21
1.99273e-21
1.11412e-21
1.17378e-21
2.39523e-25
8.23802e-25
2.65458e-24
7.74572e-24
2.09823e-23
5.31258e-23
1.22125e-22
2.76695e-22
5.57746e-22
1.01537e-21
1.608e-21
2.20814e-21
2.44538e-21
2.16914e-21
1.27513e-21
8.32071e-22
3.22953e-22
3.61168e-22
3.32719e-22
5.54439e-26
1.75329e-25
5.30651e-25
1.46487e-24
3.75148e-24
9.41979e-24
2.07756e-23
4.21102e-23
8.64675e-23
1.52361e-22
2.32785e-22
3.01373e-22
3.10768e-22
2.18943e-22
1.27899e-22
9.35233e-23
7.34758e-23
3.28257e-23
4.22043e-23
)
;

boundaryField
{
    leftWall
    {
        type            alphaContactAngle;
        contactAngleProperties 
        {
            air             
            {
                theta0          90;
            }
            water           
            {
                theta0          90;
            }
            oil             
            {
                theta0          90;
            }
        }
        value           nonuniform List<scalar> 
50
(
1
1
1
1
1
1
1
1
0.860021
0.082799
3.87503e-09
5.58649e-09
3.58014e-09
2.25811e-09
1.55829e-09
8.84795e-10
5.73074e-10
3.88003e-10
1.57423e-10
2.01459e-11
6.07648e-13
5.35259e-14
9.75842e-15
7.19066e-15
2.0866e-15
2.82117e-16
3.55674e-17
5.60336e-18
1.13268e-18
2.3619e-19
4.16992e-20
4.96504e-21
1.23559e-21
6.84981e-23
8.07538e-24
2.3728e-25
2.75052e-26
1.19206e-27
4.87643e-29
7.39865e-31
-9.15008e-32
-1.88227e-32
-2.3487e-33
-2.47214e-34
-2.30747e-35
-1.95271e-36
-1.52021e-37
-1.09932e-38
-7.4214e-40
-4.66981e-41
)
;
    }
    rightWall
    {
        type            alphaContactAngle;
        contactAngleProperties 
        {
            air             
            {
                theta0          90;
            }
            water           
            {
                theta0          90;
            }
            oil             
            {
                theta0          90;
            }
        }
        value           nonuniform List<scalar> 
50
(
0.686925
0.68032
0.611258
0.546572
0.36845
0.140568
0.065139
0.0387761
0.0147333
0.00950533
0.00816051
0.00102011
0.000569305
0.000876417
0.000651329
4.50332e-08
3.59847e-15
8.88289e-15
1.26594e-14
1.33568e-14
1.37713e-14
1.37791e-14
1.33467e-14
1.19424e-14
1.05334e-14
9.2463e-15
8.2708e-15
6.77592e-15
5.1732e-15
4.22608e-15
2.96715e-15
2.01277e-15
1.13658e-15
6.7857e-16
2.01723e-16
8.76867e-17
2.98654e-17
1.13717e-17
3.89656e-18
1.81245e-18
5.03052e-19
1.94728e-19
6.60747e-20
3.15489e-20
1.20235e-20
5.64176e-21
2.36542e-21
1.17378e-21
3.32719e-22
4.22043e-23
)
;
    }
    lowerWall
    {
        type            alphaContactAngle;
        contactAngleProperties 
        {
            air             
            {
                theta0          90;
            }
            water           
            {
                theta0          90;
            }
            oil             
            {
                theta0          90;
            }
        }
        value           nonuniform List<scalar> 
62
(
1
1
1
1
1
1
1
1
1
1
1
1
1
1
1
1
1
1
1
1
0.999898
0.999447
0.999431
0.999431
0.999431
0.999874
0.999989
0.948902
0.280657
2.18995e-22
0.0266116
0.000374165
0.000485743
0.000485051
0.00018735
0.0363353
0.0379504
0.0381347
0.0368421
0.0352887
0.0352286
0.0162827
0.00229665
0.0363353
0.0363341
0.0682407
0.175525
0.179533
0.0880686
0.0948876
0.359181
0.716502
0.53367
0.390643
0.390373
0.498882
0.689903
0.690041
0.69012
0.688785
0.679736
0.686925
)
;
    }
    atmosphere
    {
        type            inletOutlet;
        inletValue      uniform 0;
        value           nonuniform List<scalar> 
46
(
-4.66981e-41
-8.14012e-41
-2.1233e-41
2.47827e-40
5.68926e-38
1.18962e-36
1.59141e-35
1.42412e-34
1.49413e-33
8.01246e-33
3.4563e-32
1.56948e-31
4.93225e-31
1.54337e-30
3.41308e-30
6.60583e-30
8.14792e-30
5.84893e-30
2.62053e-30
1.50677e-30
6.40434e-30
3.61477e-29
2.37716e-28
0
0
0
0
0
0
0
0
0
0
0
0
0
0
0
0
0
0
0
0
0
0
0
)
;
    }
    defaultFaces
    {
        type            empty;
    }
}


// ************************************************************************* //
