/*--------------------------------*- C++ -*----------------------------------*\
  =========                 |
  \\      /  F ield         | OpenFOAM: The Open Source CFD Toolbox
   \\    /   O peration     | Website:  https://openfoam.org
    \\  /    A nd           | Version:  13
     \\/     M anipulation  |
\*---------------------------------------------------------------------------*/
FoamFile
{
    format      ascii;
    class       volScalarField;
    location    "1.1";
    object      alpha.water;
}
// * * * * * * * * * * * * * * * * * * * * * * * * * * * * * * * * * * * * * //

dimensions      [];

internalField   nonuniform List<scalar> 
2268
(
1.61936e-11
2.58854e-11
2.87622e-11
2.80297e-11
2.93559e-11
3.49852e-11
4.5804e-11
6.10967e-11
7.94474e-11
9.90798e-11
1.20309e-10
1.45106e-10
1.77875e-10
2.19518e-10
2.82234e-10
3.65906e-10
4.88321e-10
7.36744e-10
1.13139e-09
1.64152e-09
2.24581e-09
2.55781e-09
2.59626e-09
3.35296e-11
5.9895e-11
8.01911e-11
9.70317e-11
1.13842e-10
1.40104e-10
1.83321e-10
2.41381e-10
2.98359e-10
3.63187e-10
4.27343e-10
4.83959e-10
5.15715e-10
5.05158e-10
5.1856e-10
6.23396e-10
8.65569e-10
1.33826e-09
2.01162e-09
2.72094e-09
3.47402e-09
3.35573e-09
2.71181e-09
4.04981e-11
9.37272e-11
1.5742e-10
2.44364e-10
3.50273e-10
4.71182e-10
6.10679e-10
8.08023e-10
1.10133e-09
1.49256e-09
1.68295e-09
1.67631e-09
1.27956e-09
7.05838e-10
5.82138e-10
7.73023e-10
1.07602e-09
1.36034e-09
1.48718e-09
2.1565e-09
3.12805e-09
3.08132e-09
3.42431e-09
3.8018e-11
1.02404e-10
1.95567e-10
3.37173e-10
5.56076e-10
8.75964e-10
1.27598e-09
2.23603e-09
3.20706e-09
3.90146e-09
4.09642e-09
3.92764e-09
1.85342e-09
5.84033e-10
5.82824e-10
5.84008e-10
5.85789e-10
5.88059e-10
5.90922e-10
5.86373e-10
5.98261e-10
5.8662e-10
6.06075e-10
4.68081e-11
9.13208e-11
1.56935e-10
2.96626e-10
6.6616e-10
2.00087e-09
2.3556e-09
1.78615e-09
1.81765e-09
1.73933e-09
1.94165e-09
1.79223e-09
5.99287e-10
0.00697747
0.0150112
0.0231826
0.0313982
0.0403352
0.0515448
0.0662717
0.0769278
0.0745266
0.0510968
1.53263e-10
7.2821e-11
9.37044e-11
1.17849e-10
1.21725e-10
1.93384e-09
2.61952e-08
2.14934e-08
0.0172448
0.115741
0.235455
0.359379
0.475924
0.557312
0.614174
0.654273
0.684881
0.711683
0.74112
0.773387
0.77792
0.729936
0.679116
4.4457e-10
7.04494e-11
3.04027e-11
1.74026e-10
2.12385e-08
1.19919e-08
0.0822816
0.3484
0.665157
0.851283
0.951981
0.993404
0.998915
0.999944
0.999999
0.999998
0.999993
0.99997
0.999744
0.998352
0.961371
0.829708
0.761285
-4.77394e-13
-3.19511e-13
7.96426e-10
0.000526904
0.0450126
0.348721
0.78784
0.975482
1
1
1
1
1
1
1
1
0.999999
0.999997
0.999935
0.927353
0.518015
0.178638
0.163763
0.000955798
0.00465121
0.0135415
0.00859569
0.000136125
7.10827e-10
2.46177e-09
1.2833e-07
2.67123e-07
2.44464e-07
3.90434e-05
2.12388e-06
4.7233e-06
0.0571287
0.123225
0.123199
0.119149
0.0485721
0.0370726
0.0057385
0.245307
0.495861
0.327803
0.204171
8.31469e-10
2.38127e-09
1.24642e-09
0.000159627
0.00610188
0.00203903
8.65129e-06
0.000450578
0.00798192
0.0485185
0.121991
0.122861
0.0763003
0.00408859
0.0201114
0.616816
0.879823
0.81278
0.620237
0.0706969
1.24643e-09
0.00508459
0.0913509
0.130565
0.0868432
0.0298773
0.00605604
0.00380763
0.0313023
0.0442886
0.0304952
0.117601
0.0283375
0.0147226
0.688849
0.997041
0.998615
0.966885
0.532797
0.0693588
0.126269
0.313895
0.275631
0.15036
0.112745
0.00224451
0.00210518
0.00342586
0.00580726
0.00878785
0.186249
0.079295
0.0104113
0.843905
0.999655
0.999744
0.999746
0.947624
0.691195
0.678942
0.850422
0.857019
0.555383
0.125877
0.00204744
0.00206253
0.00178617
0.00174678
0.132267
0.197887
0.0909571
0.389379
0.663057
0.969386
0.999746
0.999746
0.999744
0.999744
0.998762
0.999743
0.999404
0.673341
0.00530342
0.00204607
0.0020609
0.0410389
0.15488
0.556204
0.260246
0.199349
0.351884
0.435256
0.676629
0.99358
0.999746
0.999745
0.999745
0.999744
0.999745
0.996945
0.552135
0.0117222
0.00926201
0.0962769
0.240678
0.608419
0.687231
0.313468
0.175796
0.0815284
0.00658327
0.109181
0.811028
0.993539
0.999746
0.999745
0.999745
0.999743
0.992592
0.661429
0.157543
0.184927
0.456952
0.688174
0.687231
0.688101
0.297601
0.133692
0.139979
0.14893
0.26327
0.519677
0.833853
0.986021
1
1
1
1
1
1
1
1
1
1
1
0.999993
0.934772
0.485565
8.51289e-07
1.39902e-05
0.0164752
0.917201
0.908442
0.98418
1
1
1
1
1
1
1
1
1
1
1
1
1
0.964019
0.69015
0.158257
2.04495e-08
1.56794e-06
1.19852e-05
-3.34995e-20
1
1
1
1
1
1
1
1
1
1
1
1
1
0.999992
0.900734
0.59389
0.157825
0.0453907
2.04495e-08
2.51968e-08
4.12418e-07
6.09588e-07
-3.86226e-09
1
1
1
1
1
1
1
1
1
1
1
1
0.787871
0.535955
0.157611
0.0525282
1.13899e-08
4.66853e-08
2.87879e-05
1.22071e-07
4.89891e-09
2.45186e-08
6.07177e-10
1
1
1
1
1
1
1
1
1
0.98564
0.728647
0.530421
0.145212
0.0348488
3.19725e-11
-6.08346e-10
2.08367e-06
2.95277e-06
9.65038e-06
2.18892e-10
2.49976e-10
1.77081e-09
3.10051e-10
1
1
1
1
1
1
0.999989
0.991555
0.769844
0.56114
0.159947
0.0362436
2.15126e-21
-8.12703e-15
1.32041e-07
1.63673e-06
1.90871e-06
3.79054e-07
5.51762e-11
4.16657e-09
2.09407e-10
1.55466e-10
1.88819e-10
1
1
1
1
1
0.999865
0.928805
0.680159
0.271969
0.0286785
-3.43583e-19
-1.43578e-19
-2.50664e-12
1.17174e-10
1.61768e-07
9.34006e-07
8.35368e-07
1.0029e-09
1.51498e-10
1.09749e-09
1.04875e-10
7.38099e-11
6.87308e-11
1
1
1
1
0.999984
0.94992
0.496218
0.0420669
-2.68531e-19
-6.26509e-12
8.32087e-16
-3.20734e-27
2.1336e-08
3.2683e-08
2.34099e-08
6.20168e-09
6.30595e-10
5.42392e-09
3.75984e-10
6.78838e-11
5.74922e-11
5.11947e-11
4.77473e-11
1
1
0.999997
0.999928
0.950164
0.343225
3.53304e-19
-1.55004e-09
-1.20513e-07
1.39121e-07
9.06036e-07
3.44163e-07
1.97573e-07
5.57779e-08
9.09366e-09
9.49811e-10
6.40992e-10
1.67023e-09
2.30608e-10
7.83373e-11
8.57483e-11
9.24523e-11
8.47762e-11
1
1
0.973604
0.859001
0.312335
4.46601e-06
3.40397e-06
4.19203e-06
2.01847e-05
7.24398e-06
8.644e-07
5.91895e-07
1.62215e-08
1.98261e-08
7.88365e-10
8.50355e-10
1.35874e-09
1.49372e-09
6.13893e-10
2.23822e-10
2.35686e-10
2.52047e-10
2.43623e-10
0.903814
0.54077
0.315434
0.20041
0.0172444
2.50565e-05
0.000120504
8.47172e-05
9.16398e-08
8.68161e-07
6.7872e-07
6.59277e-07
9.32011e-09
7.88367e-10
8.04921e-10
7.88365e-10
1.30449e-09
1.86643e-09
1.62265e-09
8.10515e-10
5.09112e-10
6.75939e-10
7.56521e-10
0.173402
0.00864864
8.10921e-05
5.40503e-09
6.5805e-11
3.06765e-05
8.8817e-05
4.86643e-05
6.18829e-08
7.29148e-08
1.21775e-07
1.96802e-07
1.08834e-07
2.71775e-07
1.23852e-07
8.0731e-10
7.95278e-10
1.07602e-09
1.20972e-09
7.96463e-10
6.80957e-10
7.90437e-10
1.1433e-09
9.53129e-07
3.05267e-06
3.40906e-09
1.34942e-09
5.44883e-08
5.12126e-07
1.57079e-06
1.51138e-06
1.03045e-07
8.19462e-08
3.56212e-08
1.31705e-08
1.11841e-07
4.23252e-07
8.60291e-07
4.36433e-07
8.07416e-10
7.74891e-10
8.05869e-10
7.27334e-10
6.26393e-10
7.27565e-10
8.01281e-10
-8.5578e-08
1.38831e-07
4.1047e-09
6.28623e-09
3.52194e-08
5.46828e-08
3.64965e-08
6.9334e-08
5.53526e-08
6.26006e-08
8.98891e-09
1.63106e-09
2.25921e-09
1.79554e-08
1.14029e-06
2.62291e-06
2.34125e-06
1.70171e-06
4.04268e-07
8.06277e-10
7.27563e-10
2.64223e-09
3.21406e-09
9.98955e-08
1.47199e-08
2.65335e-08
6.81036e-09
2.21919e-08
4.0613e-08
3.22139e-08
9.28243e-09
1.48867e-08
1.77307e-08
2.66389e-09
1.81844e-09
2.17659e-09
1.63567e-09
8.43392e-08
9.14231e-07
2.30305e-06
3.92484e-06
3.92056e-06
3.9344e-06
3.90666e-06
3.79817e-06
2.47479e-06
1.12905e-08
1.872e-08
2.85806e-08
6.5149e-09
9.0041e-09
1.61863e-08
1.7342e-08
6.63865e-09
5.9271e-09
6.22715e-09
2.66614e-09
1.67362e-09
2.12759e-09
1.39474e-09
3.36536e-10
2.56575e-08
8.86774e-08
7.9665e-07
1.83205e-06
2.9502e-06
3.59958e-06
4.01468e-06
4.66499e-06
1.17443e-08
1.39927e-08
2.1362e-08
6.76098e-09
5.47804e-09
8.6635e-09
3.63606e-09
3.67051e-09
3.54561e-09
4.24538e-09
2.64839e-09
1.37798e-09
1.23329e-09
8.85275e-10
4.28455e-10
3.33961e-10
4.23379e-10
2.42374e-09
4.97456e-09
1.96354e-07
6.68529e-07
8.97182e-07
9.32348e-07
1.07448e-08
9.00865e-09
1.20669e-08
6.74266e-09
5.32379e-09
5.27238e-09
3.60655e-09
2.18898e-09
2.93341e-09
3.45799e-09
3.03408e-09
1.76275e-09
1.07612e-09
6.00591e-10
3.76856e-10
3.4902e-10
5.04836e-10
6.83346e-10
7.62298e-10
4.12888e-10
1.59227e-09
4.0935e-08
2.31315e-08
9.38334e-09
5.80173e-09
6.36405e-09
4.83956e-09
4.26313e-09
3.61596e-09
3.17304e-09
2.18791e-09
2.52278e-09
2.9855e-09
2.93819e-09
2.23601e-09
1.38456e-09
7.01793e-10
3.42071e-10
2.53354e-10
3.40302e-10
5.99826e-10
6.82573e-10
3.93137e-10
2.87751e-10
3.74301e-10
7.89675e-10
7.04278e-09
3.69684e-09
3.36955e-09
2.80971e-09
2.82074e-09
2.39421e-09
2.28936e-09
1.88904e-09
1.97093e-09
2.30541e-09
2.44282e-09
2.0882e-09
1.47627e-09
8.75836e-10
3.96509e-10
1.89113e-10
1.63433e-10
2.55279e-10
3.5742e-10
3.30574e-10
2.94829e-10
2.54887e-10
3.37752e-10
4.28644e-09
2.1414e-09
1.63903e-09
1.46175e-09
1.59647e-09
1.45606e-09
1.48259e-09
1.38344e-09
1.37458e-09
1.55081e-09
1.70452e-09
1.56054e-09
1.23335e-09
8.20387e-10
4.25881e-10
1.62184e-10
1.1184e-10
1.16888e-10
1.53565e-10
1.8867e-10
1.9141e-10
1.9873e-10
2.04396e-10
2.55599e-09
1.17587e-09
7.58889e-10
6.69469e-10
7.64141e-10
7.65484e-10
8.31845e-10
8.24215e-10
8.17105e-10
9.10417e-10
1.02221e-09
9.69814e-10
8.14257e-10
5.82968e-10
3.40144e-10
1.31239e-10
7.75062e-11
6.53044e-11
7.42575e-11
9.97444e-11
1.14202e-10
1.22125e-10
1.28757e-10
1.26037e-09
6.08206e-10
3.46485e-10
2.65209e-10
3.00701e-10
3.2955e-10
3.83795e-10
3.97528e-10
4.11376e-10
4.65586e-10
5.26048e-10
5.07761e-10
4.42548e-10
3.35586e-10
2.13289e-10
9.24594e-11
4.45118e-11
3.7125e-11
3.91253e-11
5.25062e-11
6.01634e-11
7.19056e-11
7.68249e-11
4.74501e-10
2.86089e-10
1.5059e-10
9.53766e-11
9.95329e-11
1.1663e-10
1.45463e-10
1.5911e-10
1.75248e-10
2.02517e-10
2.27066e-10
2.23855e-10
2.02463e-10
1.60493e-10
1.07291e-10
5.11235e-11
2.29398e-11
1.93734e-11
2.02906e-11
2.68925e-11
3.36017e-11
3.83709e-11
4.14879e-11
2.30644e-10
1.29873e-10
6.35312e-11
3.49036e-11
2.96988e-11
3.50146e-11
4.59644e-11
5.29276e-11
6.18953e-11
7.33247e-11
8.27487e-11
8.29966e-11
7.65088e-11
6.19343e-11
4.23736e-11
2.12311e-11
1.00929e-11
9.14794e-12
1.00049e-11
1.35949e-11
1.62492e-11
1.9911e-11
2.17043e-11
6.44362e-11
3.62342e-11
1.99937e-11
1.0119e-11
8.92947e-12
9.20381e-12
1.22893e-11
1.4753e-11
1.82522e-11
2.23753e-11
2.56989e-11
2.59487e-11
2.40056e-11
1.96378e-11
1.36159e-11
7.02043e-12
4.07298e-12
4.09071e-12
4.76859e-12
6.60956e-12
8.29526e-12
9.09145e-12
9.64576e-12
2.10323e-11
1.28157e-11
7.08551e-12
3.91632e-12
2.03574e-12
2.30585e-12
2.85451e-12
3.50676e-12
4.59004e-12
5.89696e-12
6.89395e-12
6.98469e-12
6.47291e-12
5.34766e-12
3.70794e-12
2.01068e-12
1.58514e-12
1.71707e-12
2.18393e-12
2.96889e-12
3.49433e-12
4.0127e-12
4.12128e-12
4.65358e-12
3.90953e-12
2.15801e-12
1.09673e-12
6.59425e-13
4.13053e-13
6.19066e-13
7.213e-13
9.94433e-13
1.34572e-12
1.60689e-12
1.64361e-12
1.52775e-12
1.26436e-12
8.65526e-13
5.56965e-13
5.36961e-13
6.59407e-13
8.90307e-13
1.17794e-12
1.39166e-12
1.41875e-12
1.40787e-12
1.30008e-12
1.07597e-12
5.92996e-13
2.85597e-13
1.49727e-13
1.00145e-13
8.62891e-14
1.34455e-13
1.8536e-13
2.63456e-13
3.23241e-13
3.35375e-13
3.11771e-13
2.56174e-13
1.80487e-13
1.54605e-13
1.78598e-13
2.32537e-13
3.10986e-13
4.07988e-13
4.47068e-13
4.5748e-13
4.18484e-13
2.91953e-13
2.48644e-13
1.35384e-13
6.68968e-14
3.2633e-14
1.98671e-14
1.73514e-14
1.50439e-14
2.97489e-14
4.40524e-14
5.558e-14
5.84861e-14
5.42216e-14
4.47237e-14
3.67592e-14
4.02705e-14
5.34127e-14
7.21749e-14
9.56699e-14
1.1815e-13
1.27047e-13
1.11173e-13
9.40613e-14
5.94276e-14
4.92084e-14
2.64894e-14
1.32648e-14
6.61992e-15
3.83622e-15
2.63468e-15
2.5649e-15
4.07956e-15
6.28581e-15
8.12407e-15
8.66961e-15
8.06124e-15
7.12652e-15
7.37647e-15
9.79039e-15
1.41953e-14
1.99344e-14
2.58881e-14
2.94524e-14
2.80667e-14
2.33162e-14
1.75924e-14
9.62179e-15
7.86513e-15
4.49076e-15
2.271e-15
1.14e-15
6.32924e-16
4.02376e-16
3.07176e-16
4.84488e-16
7.63495e-16
1.00627e-15
1.09602e-15
1.06247e-15
1.13512e-15
1.48735e-15
2.25693e-15
3.41143e-15
4.35776e-15
5.84463e-15
6.21312e-15
5.49355e-15
3.59344e-15
2.37423e-15
1.30659e-15
1.05437e-15
6.65013e-16
3.39178e-16
1.69797e-16
9.10197e-17
5.36752e-17
3.68036e-17
4.97287e-17
7.87711e-17
1.05913e-16
1.20727e-16
1.34016e-16
1.58588e-16
2.55436e-16
4.17484e-16
6.3917e-16
9.1362e-16
1.09289e-15
1.01436e-15
7.40547e-16
4.37118e-16
2.5503e-16
1.68295e-16
1.37108e-16
8.68814e-17
4.43324e-17
2.22108e-17
1.16004e-17
6.3187e-18
3.87546e-18
4.4887e-18
6.98279e-18
9.72838e-18
1.23351e-17
1.64643e-17
2.78025e-17
4.98667e-17
8.11923e-17
1.19358e-16
1.52503e-16
1.62157e-16
1.29646e-16
8.54746e-17
4.50816e-17
2.48318e-17
2.00756e-17
1.70445e-17
1.00461e-17
5.11464e-18
2.55695e-18
1.30794e-18
6.69834e-19
3.63936e-19
3.68367e-19
5.51973e-19
8.35583e-19
1.28569e-18
2.26374e-18
4.4103e-18
8.07357e-18
1.27298e-17
1.74664e-17
2.03471e-17
1.9434e-17
1.45345e-17
8.94358e-18
4.50094e-18
1.20931e-18
2.0642e-18
1.82192e-18
1.03436e-18
5.25221e-19
2.6063e-19
1.30622e-19
6.34896e-20
3.14094e-20
2.7963e-20
4.1665e-20
7.39056e-20
1.43717e-19
3.03967e-19
6.10615e-19
1.09801e-18
1.6651e-18
2.1172e-18
2.25663e-18
1.96003e-18
1.38277e-18
7.2934e-19
2.21404e-19
3.1405e-20
1.82362e-19
1.64082e-19
9.55822e-20
4.82352e-20
2.3653e-20
1.15637e-20
5.36435e-21
2.44336e-21
2.01129e-21
3.2754e-21
7.14295e-21
1.66665e-20
3.78601e-20
7.5237e-20
1.30077e-19
1.88419e-19
2.23016e-19
2.16993e-19
1.72331e-19
1.05468e-19
3.97594e-20
8.60189e-21
5.93527e-22
1.47846e-20
1.32529e-20
7.9775e-21
3.96519e-21
1.91332e-21
9.0954e-22
4.03728e-22
1.71028e-22
1.4386e-22
2.85808e-22
7.43263e-22
1.90284e-21
4.3565e-21
8.38517e-21
1.3871e-20
1.90048e-20
2.10073e-20
1.86787e-20
1.30047e-20
6.6182e-21
1.93084e-21
1.76639e-22
4.38925e-24
1.18288e-21
1.03117e-21
5.96967e-22
2.91456e-22
1.38324e-22
6.39093e-23
2.7146e-23
1.10533e-23
1.09913e-23
2.7551e-23
7.90003e-23
2.06865e-22
4.62452e-22
8.61277e-22
1.35896e-21
1.74181e-21
1.78747e-21
1.39692e-21
8.46086e-22
3.53003e-22
6.81012e-23
4.68677e-24
9.54251e-26
9.23797e-23
7.69087e-23
3.93969e-23
1.93815e-23
9.05889e-24
4.0517e-24
1.65047e-24
6.38758e-25
9.17648e-25
2.75675e-24
8.15656e-24
2.09645e-23
4.52022e-23
8.18972e-23
1.22958e-22
1.45862e-22
1.3789e-22
9.46176e-23
5.00189e-23
1.65558e-23
2.09671e-24
4.11492e-26
4.73552e-28
6.68407e-24
5.26112e-24
2.37773e-24
1.19136e-24
5.49056e-25
2.36514e-25
9.25997e-26
3.68181e-26
8.09088e-26
2.68753e-25
7.91687e-25
1.95742e-24
4.06367e-24
7.17934e-24
9.6396e-24
1.11194e-23
9.71003e-24
6.07151e-24
2.77309e-24
7.19343e-25
6.17575e-26
5.83569e-28
1.4944e-28
4.40691e-25
3.28983e-25
1.43101e-25
6.94292e-26
3.13878e-26
1.29981e-26
4.8354e-27
2.58957e-27
7.11761e-27
2.46653e-26
7.12388e-26
1.6835e-25
3.37476e-25
5.79108e-25
7.01872e-25
7.84845e-25
6.32836e-25
3.68699e-25
1.46368e-25
3.10004e-26
1.99068e-27
2.12801e-29
4.96729e-29
0.00302916
1.49229e-10
4.60666e-10
4.85412e-10
0.000519087
5.59572e-11
1.50707e-09
4.64856e-09
6.18218e-12
9.05944e-08
4.47663e-09
6.68853e-09
1.08446e-08
1.78239e-08
7.8782e-10
1.58641e-09
1.02762e-09
1.64917e-09
3.15845e-10
3.32677e-10
1.86971e-10
1.96098e-10
2.44983e-10
2.66485e-10
7.04955e-11
7.84182e-11
9.47845e-11
1.12289e-10
4.05129e-11
3.72204e-11
3.57931e-11
3.51062e-11
7.58859e-11
7.73076e-11
7.52585e-11
6.92404e-11
2.23731e-10
2.10138e-10
2.02585e-10
1.92802e-10
7.46035e-10
7.19752e-10
6.02452e-10
5.25243e-10
1.42631e-09
1.49231e-09
1.47938e-09
1.14651e-09
7.83126e-10
7.94128e-10
8.13479e-10
9.25105e-10
2.01444e-08
2.05848e-08
1.04559e-08
1.61874e-08
9.85359e-08
1.3253e-07
2.79447e-07
2.64183e-07
4.83765e-06
5.00932e-06
3.48966e-06
1.49465e-06
1.48983e-06
3.03925e-06
2.18365e-06
4.46794e-07
2.28751e-08
8.6661e-09
3.39259e-08
2.87277e-09
1.31103e-09
1.84948e-09
1.70412e-09
1.32545e-09
3.55967e-10
3.56491e-10
4.15996e-10
4.37346e-10
2.03474e-10
2.06912e-10
2.09312e-10
2.11324e-10
1.29698e-10
1.29733e-10
1.30271e-10
1.30452e-10
7.71404e-11
7.72606e-11
7.70816e-11
7.65153e-11
4.2029e-11
4.23241e-11
4.25872e-11
4.24341e-11
2.19783e-11
2.19413e-11
2.16481e-11
2.12445e-11
9.75099e-12
9.65008e-12
9.54788e-12
9.44161e-12
4.0536e-12
3.93633e-12
3.78655e-12
3.62751e-12
1.34685e-12
1.27236e-12
1.21597e-12
1.15816e-12
3.86206e-13
3.49689e-13
3.16271e-13
2.80908e-13
8.25453e-14
6.73229e-14
5.89815e-14
5.03107e-14
1.43134e-14
1.14593e-14
8.99499e-15
6.83294e-15
1.73545e-15
1.24101e-15
9.48712e-16
7.1579e-16
1.82034e-16
1.27764e-16
5.85476e-17
2.4612e-17
9.01905e-18
3.04155e-18
1.4389e-18
6.5219e-19
6.11475e-20
1.65351e-20
1.25579e-20
9.27938e-21
8.86098e-28
8.00369e-24
2.6622e-23
3.85671e-23
8.58431e-28
3.95841e-26
1.11745e-25
1.78551e-25
8.32759e-28
3.60976e-27
1.39659e-26
4.08695e-26
8.09427e-28
2.98404e-27
1.10788e-26
3.52466e-26
7.87713e-28
2.49539e-27
8.4296e-27
2.58284e-26
3.62116e-28
1.633e-27
5.29598e-27
1.48983e-26
2.28082e-28
7.08211e-28
2.03998e-27
4.93033e-27
-1.59759e-14
-4.8866e-14
6.32122e-19
0.0345396
0.481381
0.954335
0.999426
0.999747
0.999742
0.996535
0.885643
0.663025
0.63841
0.68721
0.686911
0.643117
0.562939
0.192584
0.04178
5.10407e-09
7.82084e-09
2.04962e-07
2.39751e-05
1.91182e-07
0.169344
0.755295
0.99969
0.999737
0.99922
0.998525
0.983286
0.835743
0.589426
0.250333
0.0715432
0.0118532
0.052066
0.0388455
1.04746e-08
3.94274e-08
8.45243e-08
2.25573e-07
1.58621e-07
1.0905e-08
0.0357911
0.335519
0.733924
0.85705
0.762611
0.472507
0.167962
0.00021055
1.59998e-11
2.33249e-11
1.45626e-11
0.00187745
0.0388358
3.50095e-09
8.92273e-09
2.44258e-08
4.55212e-08
3.53961e-08
2.4195e-08
5.38689e-07
2.14107e-08
0.0183187
0.0461499
0.0224365
1.32393e-20
6.67677e-16
8.11533e-13
7.81985e-08
1.12911e-05
9.4232e-07
0.00136682
0.0267594
3.96867e-10
1.4538e-09
2.64503e-09
5.97845e-10
5.9906e-09
1.17467e-08
2.03177e-08
2.07844e-08
3.86855e-21
2.07974e-24
9.57638e-24
1.13397e-08
5.36896e-08
2.41054e-09
1.7783e-07
3.49152e-05
1.76557e-05
1.75557e-05
0.000374687
3.21641e-10
4.26277e-10
5.32805e-10
5.95368e-10
1.00778e-09
4.04467e-09
7.26271e-09
1.47621e-08
4.43225e-08
1.72531e-07
2.66282e-07
2.51324e-07
2.3426e-07
8.59103e-09
1.07295e-06
3.48036e-05
1.47808e-05
8.63055e-13
4.56882e-09
1.35239e-10
1.87689e-10
2.79265e-10
3.98913e-10
4.95574e-10
5.24429e-10
2.57889e-10
3.42449e-11
2.87606e-11
4.17471e-08
2.66936e-07
2.39894e-07
1.09814e-07
6.61569e-08
3.65928e-06
1.21914e-05
8.68609e-13
1.22055e-11
8.38568e-13
3.49129e-11
3.53361e-11
3.94292e-11
8.59038e-11
1.90434e-10
2.33244e-10
2.21482e-10
1.37185e-10
2.45433e-11
2.69489e-12
2.69401e-12
2.69378e-12
2.69007e-12
2.73653e-12
2.8237e-12
1.821e-10
5.41602e-11
1.13227e-10
2.04303e-11
6.13833e-11
5.02139e-11
3.97162e-11
3.20209e-11
2.25205e-11
1.55676e-11
1.03232e-11
8.07974e-12
6.40323e-12
3.76316e-12
2.69547e-12
2.69516e-12
2.80053e-12
1.58233e-11
7.32372e-11
1.40347e-10
4.19523e-11
1.18582e-11
1.28075e-12
1.77181e-10
1.45192e-10
1.06559e-10
8.17686e-11
5.71099e-11
3.26877e-11
2.45451e-11
2.19996e-11
1.7563e-11
9.33661e-12
6.04972e-12
4.14673e-12
3.42862e-12
7.25625e-12
1.48649e-11
1.4745e-11
7.52946e-12
5.29577e-13
8.37087e-14
4.2394e-10
3.15211e-10
2.05507e-10
1.59372e-10
1.24688e-10
7.79676e-11
6.14995e-11
4.84718e-11
3.45173e-11
2.25061e-11
1.40639e-11
6.9629e-12
3.44044e-12
2.0465e-12
1.37355e-12
8.92894e-13
7.23525e-13
3.86694e-13
8.08655e-14
8.52877e-10
6.31004e-10
3.49896e-10
2.48563e-10
2.25146e-10
1.82347e-10
1.46005e-10
1.07052e-10
6.83993e-11
4.62602e-11
2.46833e-11
1.26759e-11
6.79841e-12
4.02723e-12
2.59207e-12
1.92264e-12
1.375e-12
5.69131e-13
1.01922e-13
1.38351e-09
2.07374e-09
1.29253e-09
7.72103e-10
5.18047e-10
4.03366e-10
2.63056e-10
1.85468e-10
1.30504e-10
8.00044e-11
4.62768e-11
2.11927e-11
1.02319e-11
5.51115e-12
3.57335e-12
2.40353e-12
1.55286e-12
6.69623e-13
1.20645e-13
1.94317e-08
6.26567e-09
5.91585e-09
5.94215e-09
2.30943e-09
9.30624e-10
4.05011e-10
3.02917e-10
2.14923e-10
1.18388e-10
5.71065e-11
3.12316e-11
1.63793e-11
9.25225e-12
4.61556e-12
2.7005e-12
1.70583e-12
7.81819e-13
1.29809e-13
1.42862e-07
8.79449e-09
1.18258e-08
1.43651e-08
8.7611e-09
3.04787e-09
1.34743e-09
8.4222e-10
3.42066e-10
1.27481e-10
7.22515e-11
4.29738e-11
2.26571e-11
1.27327e-11
5.49894e-12
2.79733e-12
1.66902e-12
8.47232e-13
1.40264e-13
2.02239e-08
2.97396e-08
2.72717e-08
2.51796e-08
1.31724e-08
7.21359e-09
3.56264e-09
1.39629e-09
4.54382e-10
1.64609e-10
8.46582e-11
4.70921e-11
2.63197e-11
1.36996e-11
5.89329e-12
2.70431e-12
1.60383e-12
8.56423e-13
1.45935e-13
2.55235e-07
1.57285e-07
4.50643e-08
3.07385e-08
1.54041e-08
9.14132e-09
5.6103e-09
2.70335e-09
9.53944e-10
3.35099e-10
9.80053e-11
4.57974e-11
2.65244e-11
1.38107e-11
5.96022e-12
2.59082e-12
1.42579e-12
7.59168e-13
1.46581e-13
1.44344e-09
5.06988e-09
5.93327e-08
3.15543e-08
1.44181e-08
9.41364e-09
5.76101e-09
3.12014e-09
1.42495e-09
5.45679e-10
1.42839e-10
4.01137e-11
2.26401e-11
1.27617e-11
5.86974e-12
2.47735e-12
1.29599e-12
5.31304e-13
1.34359e-13
1.39329e-09
4.67103e-09
1.35442e-08
1.21578e-08
9.6069e-09
7.37132e-09
4.83926e-09
2.85191e-09
1.48158e-09
6.34004e-10
2.01917e-10
3.58683e-11
1.6343e-11
9.98324e-12
5.12604e-12
2.27988e-12
1.06715e-12
4.39218e-13
1.15911e-13
4.99467e-10
2.00981e-09
3.92945e-09
5.17319e-09
4.99405e-09
4.28483e-09
3.18781e-09
2.00601e-09
1.18241e-09
5.95073e-10
2.15491e-10
3.44995e-11
1.0744e-11
6.73657e-12
3.89508e-12
1.85615e-12
7.65004e-13
3.28895e-13
8.47488e-14
2.24495e-10
3.3744e-10
7.88397e-10
2.15138e-09
2.62126e-09
2.24476e-09
1.69259e-09
1.14392e-09
6.96714e-10
4.06844e-10
1.71987e-10
2.91329e-11
6.7984e-12
4.16524e-12
2.61262e-12
7.97757e-13
3.38449e-13
2.20524e-13
6.41851e-14
1.31701e-10
1.62671e-10
2.8714e-10
6.65361e-10
9.53033e-10
8.82311e-10
7.10738e-10
5.1257e-10
3.39609e-10
2.14831e-10
9.91894e-11
1.93806e-11
4.24467e-12
2.0409e-12
7.87677e-13
2.33223e-13
1.33658e-13
1.3997e-13
5.34215e-14
7.59539e-11
8.80856e-11
1.33214e-10
2.15382e-10
2.96406e-10
2.7292e-10
2.28497e-10
1.7572e-10
1.25384e-10
8.75402e-11
3.79118e-11
8.91977e-12
1.48332e-12
3.5192e-13
1.2879e-13
7.10328e-14
6.54832e-14
8.60137e-14
3.55979e-14
4.2004e-11
4.61748e-11
6.32737e-11
8.73771e-11
9.02847e-11
8.58369e-11
7.42573e-11
5.9813e-11
4.79326e-11
3.19007e-11
1.25546e-11
2.16142e-12
2.33759e-13
5.53103e-14
3.29742e-14
3.34272e-14
3.51895e-14
4.14828e-14
2.16721e-14
2.0758e-11
2.19923e-11
2.70717e-11
2.92931e-11
2.75671e-11
2.44877e-11
2.09965e-11
1.78169e-11
1.46701e-11
6.16339e-12
1.57413e-12
2.57247e-13
3.32194e-14
1.16556e-14
1.26112e-14
1.64999e-14
1.91629e-14
1.98721e-14
1.09064e-14
9.39371e-12
9.77037e-12
9.54695e-12
8.70967e-12
7.4727e-12
6.39808e-12
5.60631e-12
4.79797e-12
2.31178e-12
7.29485e-13
1.61554e-13
2.44202e-14
4.05656e-15
3.54621e-15
5.13346e-15
7.98494e-15
1.00557e-14
8.18409e-15
5.98214e-15
3.33768e-12
2.97335e-12
2.54576e-12
2.14043e-12
1.78984e-12
1.56836e-12
1.12886e-12
4.718e-13
1.76471e-13
5.87018e-14
1.37144e-14
1.88578e-15
7.38688e-16
1.1049e-15
2.15514e-15
3.78462e-15
4.90064e-15
4.12806e-15
1.61415e-15
1.01839e-12
8.15008e-13
6.19711e-13
4.65586e-13
3.86411e-13
2.4529e-13
1.01108e-13
4.04193e-14
1.62133e-14
5.11596e-15
8.84727e-16
1.30615e-16
1.66999e-16
3.76931e-16
8.92322e-16
1.66974e-15
2.17766e-15
1.80117e-15
6.82248e-16
2.02641e-13
1.3914e-13
1.00364e-13
7.76447e-14
3.71275e-14
1.39081e-14
6.04605e-15
2.93497e-15
1.22257e-15
3.09475e-16
3.03469e-17
1.72699e-17
4.3097e-17
1.30194e-16
3.44075e-16
6.72285e-16
9.01823e-16
7.57749e-16
2.21466e-16
3.24159e-14
2.16854e-14
1.37354e-14
4.81495e-15
1.49379e-15
5.08139e-16
1.50061e-16
2.68184e-17
1.81743e-18
2.6218e-19
5.95342e-19
2.52923e-18
1.14191e-17
4.1792e-17
1.21001e-16
2.41753e-16
3.65592e-16
2.51408e-16
8.13142e-17
4.07963e-15
2.38552e-15
7.45865e-16
1.80948e-16
3.07516e-17
2.17559e-18
3.6615e-20
3.40731e-21
6.93206e-21
2.77453e-20
1.12301e-19
4.68299e-19
2.82386e-18
1.23059e-17
3.89805e-17
7.81208e-17
1.24563e-16
8.23806e-17
2.51163e-17
3.67045e-16
9.60653e-17
2.77458e-17
6.00852e-18
5.29615e-19
1.13399e-20
1.71543e-21
2.73562e-21
5.98841e-21
1.38795e-20
3.25436e-20
1.09569e-19
7.94621e-19
3.58682e-18
1.13572e-17
2.42046e-17
6.37228e-17
3.28401e-17
1.04329e-17
1.12253e-17
3.36706e-18
7.6432e-19
1.19728e-19
8.87398e-21
8.84164e-22
1.28487e-21
2.70979e-21
6.14712e-21
1.34848e-20
2.75775e-20
5.73311e-20
2.39654e-19
1.05301e-18
3.56533e-18
1.16025e-17
1.33509e-17
1.08789e-17
2.07666e-18
2.43238e-19
6.43892e-20
1.25756e-20
1.1731e-21
3.17834e-22
5.0768e-22
1.12211e-21
2.72271e-21
6.313e-21
1.38954e-20
2.73348e-20
4.77593e-20
9.28209e-20
3.91398e-19
1.84642e-18
4.7483e-18
5.25845e-18
1.99364e-18
4.34553e-19
3.29484e-21
5.05516e-22
6.65203e-23
7.09363e-23
1.51352e-22
3.94232e-22
1.02233e-21
2.52531e-21
5.92589e-21
1.26009e-20
2.53341e-20
4.26595e-20
6.17953e-20
2.64382e-19
1.05735e-18
1.96996e-18
1.33615e-18
5.82244e-19
5.72594e-20
2.68501e-23
8.50315e-24
1.3519e-23
3.87293e-23
1.15062e-22
3.23265e-22
8.50743e-22
2.124e-21
4.99639e-21
1.0786e-20
2.16022e-20
3.66452e-20
5.28094e-20
1.6916e-19
4.86866e-19
6.74427e-19
4.62945e-19
8.82884e-20
1.30951e-20
5.86628e-25
2.29468e-24
8.46333e-24
2.78701e-23
8.51932e-23
2.40287e-22
6.30979e-22
1.57045e-21
3.65086e-21
7.89169e-21
1.5224e-20
2.55177e-20
3.715e-20
8.59948e-20
1.60798e-19
1.4843e-19
5.39144e-20
1.41559e-20
2.69768e-21
3.5925e-25
1.5114e-24
5.63996e-24
1.88162e-23
5.66347e-23
1.59963e-22
4.13905e-22
9.97169e-22
2.24957e-21
4.75823e-21
8.89617e-21
1.43289e-20
2.00727e-20
3.94124e-20
3.66757e-20
2.30105e-20
8.06726e-21
2.43302e-21
1.15302e-21
2.20906e-25
8.91153e-25
3.38718e-24
1.1028e-23
3.26397e-23
8.94366e-23
2.25162e-22
5.22697e-22
1.13505e-21
2.31178e-21
4.14681e-21
6.35487e-21
8.33508e-21
1.1821e-20
8.46611e-21
3.77213e-21
1.32992e-21
8.70353e-22
4.92259e-22
1.24076e-25
4.64813e-25
1.58517e-24
4.93421e-24
1.36935e-23
3.56705e-23
8.9384e-23
2.05369e-22
4.30763e-22
8.32999e-22
1.43235e-21
2.13132e-21
2.48478e-21
2.74786e-21
1.5925e-21
8.52552e-22
4.2039e-22
2.35438e-22
2.42723e-22
5.05001e-26
1.74583e-25
5.6584e-25
1.66222e-24
4.53914e-24
1.16016e-23
2.69576e-23
6.18571e-23
1.26366e-22
2.33011e-22
3.73355e-22
5.17491e-22
5.76694e-22
5.16775e-22
2.70535e-22
1.72788e-22
6.81659e-23
7.62553e-23
6.86835e-23
1.15762e-26
3.67432e-26
1.11755e-25
3.10358e-25
8.00596e-25
2.02775e-24
4.51384e-24
9.24596e-24
1.92149e-23
3.42567e-23
5.28913e-23
6.89448e-23
7.11588e-23
4.93823e-23
2.60049e-23
1.94222e-23
1.55224e-23
6.90409e-24
8.71784e-24
)
;

boundaryField
{
    leftWall
    {
        type            alphaContactAngle;
        contactAngleProperties 
        {
            mercury         
            {
                theta0          90;
            }
            air             
            {
                theta0          90;
            }
            oil             
            {
                theta0          90;
            }
        }
        value           nonuniform List<scalar> 
50
(
1.61936e-11
3.35296e-11
4.04981e-11
3.8018e-11
4.68081e-11
1.53263e-10
4.4457e-10
-4.77394e-13
0.139979
0.917201
1
1
1
1
1
1
1
1
0.903814
0.173402
9.53129e-07
-8.5578e-08
9.98955e-08
1.12905e-08
1.17443e-08
1.07448e-08
9.38334e-09
7.04278e-09
4.28644e-09
2.55599e-09
1.26037e-09
4.74501e-10
2.30644e-10
6.44362e-11
2.10323e-11
4.65358e-12
1.30008e-12
2.91953e-13
5.94276e-14
9.62179e-15
1.30659e-15
1.68295e-16
2.00756e-17
2.0642e-18
1.82362e-19
1.47846e-20
1.18288e-21
9.23797e-23
6.68407e-24
4.40691e-25
)
;
    }
    rightWall
    {
        type            alphaContactAngle;
        contactAngleProperties 
        {
            mercury         
            {
                theta0          90;
            }
            air             
            {
                theta0          90;
            }
            oil             
            {
                theta0          90;
            }
        }
        value           nonuniform List<scalar> 
50
(
0.0370726
0.00408859
0.0283375
0.079295
0.0909571
0.199349
0.175796
0.133692
0.04178
0.0388455
0.0388358
0.0267594
0.000374687
4.56882e-09
8.38568e-13
2.04303e-11
1.28075e-12
8.37087e-14
8.08655e-14
1.01922e-13
1.20645e-13
1.29809e-13
1.40264e-13
1.45935e-13
1.46581e-13
1.34359e-13
1.15911e-13
8.47488e-14
6.41851e-14
5.34215e-14
3.55979e-14
2.16721e-14
1.09064e-14
5.98214e-15
1.61415e-15
6.82248e-16
2.21466e-16
8.13142e-17
2.51163e-17
1.04329e-17
2.07666e-18
4.34553e-19
5.72594e-20
1.30951e-20
2.69768e-21
1.15302e-21
4.92259e-22
2.42723e-22
6.86835e-23
8.71784e-24
)
;
    }
    lowerWall
    {
        type            alphaContactAngle;
        contactAngleProperties 
        {
            mercury         
            {
                theta0          90;
            }
            air             
            {
                theta0          90;
            }
            oil             
            {
                theta0          90;
            }
        }
        value           nonuniform List<scalar> 
62
(
1.61936e-11
2.58854e-11
2.87622e-11
2.80297e-11
2.93559e-11
3.49852e-11
4.5804e-11
6.10967e-11
7.94474e-11
9.90798e-11
1.20309e-10
1.45106e-10
1.77875e-10
2.19518e-10
2.82234e-10
3.65906e-10
4.88321e-10
7.36744e-10
1.13139e-09
1.64152e-09
2.24581e-09
2.55781e-09
2.59626e-09
2.59626e-09
2.71181e-09
3.42431e-09
6.06075e-10
0.0510968
0.679116
0.761285
0.163763
0.00302916
1.49229e-10
4.60666e-10
4.85412e-10
0.000955798
0.0057385
0.0201114
0.0147226
0.0104113
0.389379
0.351884
0.0815284
0.000955798
0.00465121
0.0135415
0.00859569
0.000136125
7.10827e-10
2.46177e-09
1.2833e-07
2.67123e-07
2.44464e-07
3.90434e-05
2.12388e-06
4.7233e-06
0.0571287
0.123225
0.123199
0.119149
0.0485721
0.0370726
)
;
    }
    atmosphere
    {
        type            inletOutlet;
        inletValue      uniform 0;
        value           nonuniform List<scalar> 
46
(
4.40691e-25
3.28983e-25
1.43101e-25
6.94292e-26
3.13878e-26
1.29981e-26
4.8354e-27
2.58957e-27
7.11761e-27
2.46653e-26
7.12388e-26
1.6835e-25
3.37477e-25
5.79108e-25
7.01872e-25
7.84845e-25
6.32836e-25
3.68699e-25
1.46368e-25
3.10004e-26
1.99068e-27
2.12801e-29
4.96729e-29
0
0
0
0
0
0
0
0
0
0
0
0
0
0
0
0
0
0
0
0
0
0
0
)
;
    }
    defaultFaces
    {
        type            empty;
    }
}


// ************************************************************************* //
