/*--------------------------------*- C++ -*----------------------------------*\
  =========                 |
  \\      /  F ield         | OpenFOAM: The Open Source CFD Toolbox
   \\    /   O peration     | Website:  https://openfoam.org
    \\  /    A nd           | Version:  13
     \\/     M anipulation  |
\*---------------------------------------------------------------------------*/
FoamFile
{
    format      ascii;
    class       volScalarField;
    location    "1.1";
    object      alpha.air;
}
// * * * * * * * * * * * * * * * * * * * * * * * * * * * * * * * * * * * * * //

dimensions      [];

internalField   nonuniform List<scalar> 
2268
(
2.18157e-14
1.53719e-14
3.55292e-15
1.24852e-15
3.28221e-16
1.87437e-16
2.84907e-16
5.32231e-16
8.09684e-16
9.44755e-16
7.82357e-16
5.86796e-16
5.74441e-16
6.02577e-16
6.79391e-16
7.36891e-16
8.99209e-16
2.70051e-15
8.10794e-15
2.53375e-14
2.20106e-14
2.84935e-15
8.35697e-16
9.56763e-14
3.75165e-14
8.50102e-15
4.30866e-15
3.20638e-15
3.52902e-15
5.43288e-15
8.98275e-15
1.19633e-14
1.30415e-14
1.0626e-14
9.82094e-15
1.07195e-14
1.18671e-14
1.20276e-14
1.32762e-14
1.4486e-14
5.1389e-14
1.88746e-13
3.93703e-13
7.24964e-13
4.53831e-13
3.26428e-14
3.66038e-13
8.50606e-14
2.19633e-14
1.48476e-14
1.59148e-14
2.55542e-14
4.76157e-14
8.04747e-14
1.04546e-13
1.0721e-13
8.53192e-14
8.28972e-14
9.19525e-14
9.42805e-14
8.98729e-14
1.22363e-13
7.75135e-14
3.46664e-13
1.09995e-12
2.49418e-12
3.5838e-12
4.72681e-12
1.44291e-12
1.58341e-12
4.20075e-13
1.02081e-13
8.11195e-14
1.29188e-13
2.25965e-13
3.78086e-13
5.37132e-13
5.37886e-13
4.30182e-13
4.28976e-13
6.02113e-13
9.10354e-13
9.39393e-13
4.84079e-13
3.63783e-13
1.31192e-13
4.96303e-13
1.59585e-12
3.37048e-12
4.67789e-12
7.90929e-12
1.37156e-11
4.38742e-12
1.84357e-12
1.11399e-12
1.14292e-12
1.4823e-12
1.91935e-12
2.32104e-12
2.21001e-12
1.71232e-12
1.72436e-12
2.39442e-12
5.01734e-12
1.49595e-11
2.2662e-11
5.22776e-12
6.02826e-14
6.1051e-14
6.02192e-14
6.1051e-14
6.02192e-14
6.1051e-14
6.02192e-14
6.1051e-14
7.89801e-12
5.81076e-12
6.01245e-12
6.08633e-12
7.49525e-12
9.29796e-12
9.23581e-12
9.538e-12
1.46199e-11
2.73119e-11
5.13873e-11
1.07933e-10
2.60715e-10
6.73565e-10
2.48303e-09
1.88376e-08
2.0271e-07
2.20147e-06
3.00611e-05
0.000454394
0.00303459
0.0158874
0.0349148
1.44833e-11
1.41539e-11
1.4164e-11
1.5925e-11
1.76189e-11
2.25329e-11
3.11966e-11
5.70042e-11
1.00076e-10
1.59893e-10
2.63943e-10
4.7166e-10
9.53867e-10
3.322e-09
1.96269e-08
1.7749e-07
2.01611e-06
2.34806e-05
0.000250572
0.00164525
0.0386821
0.132769
0.177983
2.1865e-11
2.3162e-11
2.5038e-11
3.07802e-11
3.68607e-11
5.8072e-11
1.04898e-10
1.68572e-10
2.41995e-10
3.23337e-10
4.59382e-10
7.08434e-10
9.51444e-10
3.07496e-09
8.93035e-09
9.08718e-09
7.56411e-07
2.4205e-06
1.54564e-06
0.0615323
0.222206
0.233732
0.233916
0.0235044
0.0670809
0.0685836
0.0289646
0.00708128
1.18226e-10
2.70771e-10
8.37266e-06
0.00671076
0.0975252
0.152352
0.159568
0.197737
0.189804
0.122327
0.0623678
0.00482326
0.00564495
0.0208877
0.0221839
0.104486
0.108167
0.103192
0.0471263
5.1438e-13
9.91461e-09
0.000669426
0.00165398
0.000947832
0.0012357
0.0322802
0.103405
0.296486
0.198378
0.0915016
0.0371115
0.0189153
0.000368909
0.0163981
0.0314049
0.0321646
0.0652519
0.0344989
0.00122761
2.60818e-07
7.43209e-05
0.00034978
0.000400635
0.00170184
0.015491
0.0907388
0.45352
0.491168
0.498484
0.41636
0.082702
0.0065403
0.0150223
0.0192459
0.000276553
0.00114814
0.00175448
0.00295374
1.16086e-06
1.02488e-05
1.25055e-05
1.62216e-06
1.28352e-06
1.7465e-06
0.091751
0.419006
0.467493
0.494245
0.491284
0.228374
0.0418797
0.0142028
0.0289439
0.000142024
0.000141214
1.05699e-05
0.000156304
0.000112336
2.15512e-05
1.74356e-05
2.83482e-06
0.000416265
0.0603034
0.136002
0.169108
0.345737
0.436066
0.280587
0.080096
0.0841811
0.0885126
0.333677
0.0306131
0.000242063
0.000108159
3.93603e-06
1.32434e-05
4.49413e-06
4.03742e-06
-1.20028e-07
0.107039
0.51901
0.548878
0.416114
0.284711
0.173183
0.017886
0.00231848
0.228589
0.372715
0.392226
0.317133
0.00641957
0.000246
8.93676e-05
3.61667e-06
4.43639e-06
1.27233e-05
3.5337e-06
0.247594
0.555699
0.556706
0.555377
0.447419
0.145991
0.0405193
0.00182891
0.334924
0.397579
0.376638
0.256862
0.0811608
0.00646036
0.000237767
9.01007e-05
1.83121e-05
1.7596e-05
-5.89104e-07
0.188037
0.550934
0.553582
0.361255
0.206277
0.109208
0.00828607
0.00215708
0.330404
9.18425e-11
6.94811e-11
7.40679e-11
9.27453e-11
1.23192e-10
1.79379e-10
2.65632e-10
3.27405e-10
3.95863e-10
4.69463e-10
6.43711e-10
1.36497e-09
3.14166e-09
5.88618e-09
3.4494e-08
7.39361e-08
7.63912e-08
5.16395e-06
0.0615148
0.212384
0.20922
0.19268
0.111554
3.10621e-10
2.28681e-10
2.36622e-10
3.20227e-10
4.20525e-10
5.22336e-10
5.99026e-10
6.60068e-10
7.02336e-10
7.68299e-10
1.32053e-09
4.22747e-09
1.08053e-08
8.09971e-09
1.02977e-08
1.62915e-08
0.0359806
0.270985
0.282452
0.179899
4.69789e-08
0.0013262
0.00330121
4.55348e-10
4.54486e-10
5.16864e-10
6.11119e-10
6.99615e-10
8.18901e-10
9.88877e-10
1.18131e-09
1.19443e-09
1.10984e-09
1.33626e-09
1.35573e-09
9.43826e-09
8.30145e-06
0.099266
0.329625
0.33378
0.134982
0.0244697
0.0170636
2.5937e-08
2.90247e-09
4.3056e-09
5.54075e-10
5.69231e-10
6.00779e-10
6.37595e-10
6.49616e-10
6.45255e-10
5.26679e-10
2.58147e-10
-6.32444e-20
6.32444e-20
-6.54236e-14
2.38217e-07
0.212129
0.371346
0.369972
0.109569
0.0688556
0.018126
4.83722e-06
3.761e-06
2.14104e-06
4.32933e-09
8.69446e-09
5.4786e-10
5.44367e-10
5.30462e-10
4.84984e-10
4.10712e-10
4.19328e-10
1.63989e-10
1.73166e-10
1.47012e-11
0.0143601
0.271353
0.383143
0.391162
0.18065
0.0754618
7.89494e-05
1.63238e-05
1.5024e-05
1.76147e-05
5.24225e-06
5.87145e-09
2.67604e-08
8.78322e-09
4.62261e-10
4.17803e-10
3.61839e-10
2.77151e-10
2.75322e-10
2.90234e-10
1.07062e-05
0.00844472
0.230156
0.365072
0.366758
0.231732
0.0560753
0.000200835
1.72412e-06
2.02053e-06
2.40855e-05
1.44377e-05
6.08251e-06
1.13623e-06
1.03231e-08
1.09294e-08
1.59833e-08
2.52492e-10
2.01889e-10
1.68855e-10
1.62783e-10
2.90234e-10
0.000134523
0.0711945
0.296684
0.297292
0.282761
0.0523638
0.00577162
6.64313e-07
1.30209e-07
2.5069e-06
2.38251e-05
2.23539e-05
8.72103e-08
3.15631e-08
1.97869e-08
8.539e-09
9.17027e-09
1.62961e-08
3.4946e-11
3.1115e-11
8.56271e-10
-6.31831e-10
9.37822e-06
0.0463177
0.24294
0.2791
0.10044
0.0104875
2.91611e-06
8.11164e-08
4.6935e-08
1.09504e-07
1.0819e-06
4.05547e-06
8.10784e-08
2.38042e-08
1.85055e-08
8.26683e-09
0.00148723
0.0911834
0.398963
8.34639e-12
8.94145e-12
4.12713e-09
7.16646e-05
0.0256961
0.0991148
0.09209
0.0146713
2.94885e-05
9.8147e-07
8.59347e-08
2.63117e-09
5.33e-09
8.22817e-08
1.53735e-07
2.483e-07
0.0162746
0.162548
0.409934
0.627867
0.726847
0.814327
0.965911
1.40804e-08
3.54255e-07
0.0263958
0.132373
0.163856
0.00940629
9.29712e-05
1.96164e-05
7.82294e-08
4.30997e-09
1.42542e-08
4.30997e-09
0.0319249
0.134715
0.303896
0.537661
0.755145
0.88871
0.978771
1
1
1
1
0.0961856
0.45923
0.684566
0.754235
0.25437
0.000135969
2.94222e-05
2.40686e-05
0.103037
0.272203
0.430855
0.603782
0.769321
0.876956
0.958813
0.998771
1
1
1
1
1
1
0.999999
0.826598
0.991351
0.999919
0.992306
0.787464
0.605079
0.569795
0.691537
0.866195
0.955019
0.988912
0.999999
0.999999
0.999999
1
1
1
1
1
1
1
0.999999
0.999998
0.999999
0.999997
0.99999
0.999896
1
0.999999
0.99992
0.999998
1
1
0.999999
0.999999
1
1
0.999999
1
1
1
1
1
1
0.999999
0.999999
1
1
0.999997
0.999997
1
1
1
1
1
1
1
1
1
0.999985
0.999972
0.99999
0.999998
0.999998
1
1
1
1
1
1
1
0.999999
0.999999
1
1
1
1
1
1
1
1
1
0.999994
0.99986
0.99985
0.999901
0.999996
0.999996
0.999996
0.999996
0.999996
0.999998
1
1
1
1
1
1
1
1
1
1
1
1
1
1
0.999969
0.999824
0.999805
0.999802
0.999855
0.999997
0.999996
0.999996
0.999995
1
1
1
1
1
1
1
1
1
1
1
1
1
1
1
0.999988
0.999928
0.999872
0.999839
0.999881
0.999977
0.999999
0.999999
1
1
1
1
1
1
1
1
1
1
1
1
1
1
1
1
1
0.999999
0.999991
0.999974
0.999978
0.999999
1
1
1
1
1
1
1
1
1
1
1
1
1
1
1
1
1
1
1
1
1
1
1
1
1
1
1
1
1
1
1
1
1
1
1
1
1
1
1
1
1
1
1
1
1
1
1
1
1
1
1
1
1
1
1
1
1
1
1
1
1
1
1
1
1
1
1
1
1
1
1
1
1
1
1
1
1
1
1
1
1
1
1
1
1
1
1
1
1
1
1
1
1
1
1
1
1
1
1
1
1
1
1
1
1
1
1
1
1
1
1
1
1
1
1
1
1
1
1
1
1
1
1
1
1
1
1
1
1
1
1
1
1
1
1
1
1
1
1
1
1
1
1
1
1
1
1
1
1
1
1
1
1
1
1
1
1
1
1
1
1
1
1
1
1
1
1
1
1
1
1
1
1
1
1
1
1
1
1
1
1
1
1
1
1
1
1
1
1
1
1
1
1
1
1
1
1
1
1
1
1
1
1
1
1
1
1
1
1
1
1
1
1
1
1
1
1
1
1
1
1
1
1
1
1
1
1
1
1
1
1
1
1
1
1
1
1
1
1
1
1
1
1
1
1
1
1
1
1
1
1
1
1
1
1
1
1
1
1
1
1
1
1
1
1
1
1
1
1
1
1
1
1
1
1
1
1
1
1
1
1
1
1
1
1
1
1
1
1
1
1
1
1
1
1
1
1
1
1
1
1
1
1
1
1
1
1
1
1
1
1
1
1
1
1
1
1
1
1
1
1
1
1
1
1
1
1
1
1
1
1
1
1
1
1
1
1
1
1
1
1
1
1
1
1
1
1
1
1
1
1
1
1
1
1
1
1
1
1
1
1
1
1
1
1
1
1
1
1
1
1
1
1
1
1
1
1
1
1
1
1
1
1
1
1
1
1
1
1
1
1
1
1
1
1
1
1
1
1
1
1
1
1
1
1
1
1
1
1
1
1
1
1
1
1
1
1
1
1
1
1
1
1
1
1
1
1
1
1
1
1
1
1
1
1
1
1
1
1
1
1
1
1
1
1
1
1
1
1
1
1
1
1
1
1
1
1
1
1
1
1
1
1
1
1
1
1
1
1
1
1
1
1
1
1
1
1
1
1
1
1
1
1
1
1
1
1
1
1
1
1
1
1
1
1
1
1
1
1
1
1
1
1
1
1
1
1
1
1
1
1
1
1
1
1
1
1
1
1
1
1
1
1
1
1
1
1
1
1
1
1
1
1
1
1
1
1
1
1
1
1
1
1
1
1
1
1
1
1
1
1
1
1
1.87047e-06
6.16065e-07
0.00402593
0.083659
0.000394951
1.3021e-07
0.00154285
0.0045303
7.27869e-05
1.15125e-07
6.41137e-06
1.06516e-07
9.8013e-09
1.0694e-07
1.38609e-07
8.58853e-08
2.17989e-08
7.12877e-08
5.12809e-08
8.93663e-08
2.64622e-08
3.87147e-08
1.73627e-07
1.79458e-07
6.53944e-09
2.06366e-07
2.20734e-07
2.38193e-07
0.33481
0.13752
0.199986
0.358325
0.978574
0.945423
0.954995
0.977703
1
1
0.999999
0.999999
0.999999
0.999999
0.999999
0.999998
0.999998
0.999998
0.999998
0.999998
0.999999
0.999999
0.999998
0.999998
1
1
1
1
1
1
1
1
0.999995
0.999995
0.999997
0.999999
0.999998
0.999997
0.999998
1
1
1
1
1
1
1
1
1
1
1
1
1
1
1
1
1
1
1
1
1
1
1
1
1
1
1
1
1
1
1
1
1
1
1
1
1
1
1
1
1
1
1
1
1
1
1
1
1
1
1
1
1
1
1
1
1
1
1
1
1
1
1
1
1
1
1
1
1
1
1
1
1
1
1
1
1
1
1
1
1
1
1
1
1
1
1
1
1
1
1
1
1
1
1
1
1
1
1
1
1
0.172534
0.0125063
0.00397866
0.0289322
0.0242426
0.0115585
0.000483865
6.68319e-05
1.36774e-05
1.7899e-05
0.040075
0.133961
0.136196
0.0483774
3.8092e-06
0.000203766
0.00208905
0.00316805
0.38532
6.82988e-07
6.5611e-08
-3.21478e-12
7.38848e-05
0.00738154
0.00904709
0.00384312
0.000247623
1.81985e-05
0.000680535
0.00146123
3.8092e-06
1.53646e-05
3.8092e-06
7.31175e-05
0.00116854
0.00487605
0.0648953
0.450582
2.5249e-08
2.51319e-08
1.13268e-12
-2.82666e-09
1.60741e-07
0.000230858
0.00113527
0.000667884
0.000147601
0.000323715
0.000485859
0.000237515
0.000618884
0.00138763
0.00290733
0.00484314
0.00597983
0.0823088
0.450845
1.23999e-07
3.46272e-07
5.49927e-07
9.26328e-08
6.73126e-12
-2.4928e-17
2.60699e-08
3.67292e-05
2.75963e-05
3.40905e-05
0.000109329
0.000840226
0.00110036
0.00209034
0.00206432
0.00182579
0.00208871
0.0328064
0.333697
5.98032e-07
1.00948e-06
1.0088e-06
9.39613e-07
5.30078e-08
3.04587e-14
2.86681e-09
1.61501e-18
2.18063e-08
3.5843e-06
0.000520931
9.28117e-05
0.000229469
0.0454056
0.169697
0.248343
0.150501
0.0726397
0.114739
2.59638e-07
3.19708e-07
5.8219e-07
5.63686e-07
-3.75885e-10
6.65053e-23
1.36526e-12
5.10763e-20
-9.09438e-11
-1.34329e-07
0.0236332
0.154954
0.435319
0.743354
0.907052
0.939819
0.816138
0.520624
0.318539
2.50069e-07
2.49732e-07
2.93185e-07
3.40794e-07
0.000413833
0.00513737
0.0209861
0.0644063
0.164765
0.382452
0.688139
0.91415
1
1
0.999996
0.999982
0.988618
0.895056
0.861912
0.398374
0.401443
0.395481
0.425291
0.488902
0.577282
0.689119
0.816697
0.93931
1
1
1
1
0.999994
0.999949
0.990237
0.986741
0.999997
0.999997
0.987839
0.993928
0.997785
1
1
1
1
1
1
1
0.999773
0.999327
0.999515
0.999893
0.997932
0.9949
0.99766
0.999998
0.999998
0.999999
1
1
1
1
1
0.999999
1
1
0.999962
0.998856
0.998608
0.998686
0.99997
0.999999
0.999999
0.999999
0.999998
0.999997
0.999999
0.999999
0.999999
1
1
0.999999
0.999997
0.999997
0.999999
0.999919
0.999317
0.999274
0.999999
1
1
1
0.999999
0.999999
0.999997
0.999998
0.999998
0.999998
1
1
1
0.999997
0.999994
0.999995
0.999999
1
1
1
1
0.999999
0.999999
0.999999
1
0.999999
0.999998
0.999998
0.999999
1
1
1
1
1
1
1
1
1
1
1
1
0.999999
1
1
0.999999
1
1
1
1
1
1
1
1
1
1
1
1
1
1
1
1
1
1
0.999998
1
1
1
1
1
1
1
1
1
1
1
1
1
1
1
1
1
1
0.999998
1
1
1
1
1
1
1
1
1
1
1
1
1
1
1
1
1
1
0.999998
1
1
1
1
1
1
1
1
1
1
1
1
1
1
1
1
1
1
0.999999
1
1
1
1
1
1
1
1
1
1
1
1
1
1
1
1
1
1
0.999999
1
1
1
1
1
1
1
1
1
1
1
1
1
1
1
1
1
1
0.999999
1
1
1
1
1
1
1
1
1
1
1
1
1
1
1
1
1
1
0.999999
1
1
1
1
1
1
1
1
1
1
1
1
1
1
1
1
1
1
1
1
1
1
1
1
1
1
1
1
1
1
1
1
1
1
1
1
1
1
1
1
1
1
1
1
1
1
1
1
1
1
1
1
1
1
1
1
1
1
1
1
1
1
1
1
1
1
1
1
1
1
1
1
1
1
1
1
1
1
1
1
1
1
1
1
1
1
1
1
1
1
1
1
1
1
1
1
1
1
1
1
1
1
1
1
1
1
1
1
1
1
1
1
1
1
1
1
1
1
1
1
1
1
1
1
1
1
1
1
1
1
1
1
1
1
1
1
1
1
1
1
1
1
1
1
1
1
1
1
1
1
1
1
1
1
1
1
1
1
1
1
1
1
1
1
1
1
1
1
1
1
1
1
1
1
1
1
1
1
1
1
1
1
1
1
1
1
1
1
1
1
1
1
1
1
1
1
1
1
1
1
1
1
1
1
1
1
1
1
1
1
1
1
1
1
1
1
1
1
1
1
1
1
1
1
1
1
1
1
1
1
1
1
1
1
1
1
1
1
1
1
1
1
1
1
1
1
1
1
1
1
1
1
1
1
1
1
1
1
1
1
1
1
1
1
1
1
1
1
1
1
1
1
1
1
1
1
1
1
1
1
1
1
1
1
1
1
1
1
1
1
1
1
1
1
1
1
1
1
1
1
1
1
1
1
1
1
1
1
1
1
1
1
1
1
1
1
1
1
1
1
1
1
1
1
1
1
1
1
1
1
1
1
1
1
1
1
1
1
1
1
1
1
1
1
1
1
1
1
1
1
1
1
1
1
1
1
1
1
1
1
1
1
1
1
1
1
1
1
1
1
1
1
1
1
1
1
1
1
1
1
1
1
1
1
1
1
1
1
1
1
1
1
1
1
1
1
1
1
1
1
1
1
1
1
1
1
1
1
1
1
1
1
1
1
1
1
1
1
)
;

boundaryField
{
    leftWall
    {
        type            alphaContactAngle;
        contactAngleProperties 
        {
            mercury         
            {
                theta0          90;
            }
            water           
            {
                theta0          90;
            }
            oil             
            {
                theta0          90;
            }
        }
        value           nonuniform List<scalar> 
50
(
2.18157e-14
9.56763e-14
3.66038e-13
1.58341e-12
4.38742e-12
7.89801e-12
1.44833e-11
2.1865e-11
9.18425e-11
3.10621e-10
4.55348e-10
5.54075e-10
5.4786e-10
4.62261e-10
2.52492e-10
3.4946e-11
8.34639e-12
1.40804e-08
0.0961856
0.826598
0.999999
1
1
1
1
1
1
1
1
1
1
1
1
1
1
1
1
1
1
1
1
1
1
1
1
1
1
1
1
1
)
;
    }
    rightWall
    {
        type            alphaContactAngle;
        contactAngleProperties 
        {
            mercury         
            {
                theta0          90;
            }
            water           
            {
                theta0          90;
            }
            oil             
            {
                theta0          90;
            }
        }
        value           nonuniform List<scalar> 
50
(
0.0208877
0.000368909
0.0065403
0.0418797
0.0841811
0.228589
0.334924
0.330404
0.38532
0.450582
0.450845
0.333697
0.114739
0.318539
0.861912
0.999997
0.999998
0.999997
0.999997
0.999999
0.999999
0.999998
0.999998
0.999998
0.999999
0.999999
0.999999
0.999999
1
1
1
1
1
1
1
1
1
1
1
1
1
1
1
1
1
1
1
1
1
1
)
;
    }
    lowerWall
    {
        type            alphaContactAngle;
        contactAngleProperties 
        {
            mercury         
            {
                theta0          90;
            }
            water           
            {
                theta0          90;
            }
            oil             
            {
                theta0          90;
            }
        }
        value           nonuniform List<scalar> 
62
(
2.18157e-14
1.53719e-14
3.55292e-15
1.24852e-15
3.28221e-16
1.87437e-16
2.84907e-16
5.32231e-16
8.09684e-16
9.44755e-16
7.82357e-16
5.86796e-16
5.74441e-16
6.02577e-16
6.79391e-16
7.36891e-16
8.99209e-16
2.70051e-15
8.10794e-15
2.53375e-14
2.20106e-14
2.84935e-15
8.35697e-16
8.35697e-16
3.26428e-14
1.44291e-12
1.37156e-11
6.1051e-14
0.0349148
0.177983
0.233916
1.87047e-06
6.16065e-07
0.00402593
0.083659
0.0235044
0.0221839
0.0163981
0.0150223
0.0142028
0.0885126
0.372715
0.397579
0.0235044
0.0670809
0.0685836
0.0289646
0.00708128
1.18226e-10
2.70771e-10
8.37266e-06
0.00671076
0.0975252
0.152352
0.159568
0.197737
0.189804
0.122327
0.0623678
0.00482326
0.00564495
0.0208877
)
;
    }
    atmosphere
    {
        type            inletOutlet;
        inletValue      uniform 1;
        value           nonuniform List<scalar> 
46
(
1
1
1
1
1
1
1
1
1
1
1
1
1
1
1
1
1
1
1
1
1
1
1
1
1
1
1
1
1
1
1
1
1
1
1
1
1
1
1
1
1
1
1
1
1
1
)
;
    }
    defaultFaces
    {
        type            empty;
    }
}


// ************************************************************************* //
