/*--------------------------------*- C++ -*----------------------------------*\
  =========                 |
  \\      /  F ield         | OpenFOAM: The Open Source CFD Toolbox
   \\    /   O peration     | Website:  https://openfoam.org
    \\  /    A nd           | Version:  13
     \\/     M anipulation  |
\*---------------------------------------------------------------------------*/
FoamFile
{
    format      ascii;
    class       volScalarField;
    location    "1.1";
    object      epsilon;
}
// * * * * * * * * * * * * * * * * * * * * * * * * * * * * * * * * * * * * * //

dimensions      [0 2 -3 0 0 0 0];

internalField   nonuniform List<scalar> 
2268
(
0.011109
0.0343589
0.0621981
0.0957551
0.136578
0.185666
0.244312
0.314954
0.397814
0.490266
0.586363
0.678907
0.761235
0.828018
0.873286
0.893143
0.884681
0.844462
0.767463
0.646179
0.47515
0.261597
0.0497701
0.0195783
0.028507
0.0410565
0.0558985
0.0746057
0.0980193
0.127146
0.16257
0.204037
0.249701
0.296667
0.341948
0.382643
0.416258
0.44039
0.453112
0.452917
0.438178
0.406753
0.355631
0.281574
0.185195
0.0865702
0.0329739
0.0317997
0.0397288
0.0507231
0.0655695
0.0851525
0.110253
0.141051
0.176875
0.215963
0.255766
0.293884
0.328164
0.35674
0.378046
0.390754
0.393812
0.386124
0.366224
0.331827
0.279785
0.209005
0.148523
0.0450466
0.0360613
0.0412124
0.0506308
0.06454
0.0837477
0.108848
0.139703
0.175279
0.213619
0.252276
0.288852
0.321554
0.348908
0.369775
0.383263
0.388684
0.385392
0.372465
0.348179
0.309488
0.254332
0.222344
0.0547364
0.0405717
0.0436913
0.0523778
0.0664595
0.0866136
0.113231
0.145849
0.183074
0.222675
0.262113
0.299036
0.33172
0.359031
0.38017
0.394631
0.402111
0.402443
0.395356
0.379986
0.354137
0.316439
0.317828
0.0620783
0.0449501
0.0465673
0.0550853
0.0700514
0.0919843
0.121032
0.156373
0.196211
0.238023
0.279125
0.317177
0.350536
0.378285
0.399949
0.415381
0.424698
0.428258
0.426564
0.420011
0.408424
0.395065
0.452398
0.0675976
0.0488031
0.0495181
0.0584564
0.0749742
0.0994553
0.131676
0.170353
0.213256
0.257665
0.300814
0.340316
0.374569
0.402905
0.425125
0.44141
0.452352
0.458847
0.462189
0.464187
0.467688
0.48782
0.671613
0.0726842
0.0520802
0.052596
0.0626345
0.0814157
0.109226
0.145253
0.187612
0.233531
0.280255
0.325038
0.365643
0.400672
0.429603
0.452462
0.469717
0.482361
0.49178
0.499917
0.50953
0.526796
0.585677
1.11119
0.283689
0.616983
0.810779
0.798955
0.718679
0.634691
0.644417
0.701875
0.77779
0.751235
0.707615
0.666182
0.551738
0.367096
0.326903
0.389248
0.441274
0.404093
0.116149
0.240434
0.386534
0.4844
0.496571
0.47077
0.445107
0.441656
0.4041
0.362323
0.331531
0.30951
0.296653
0.269915
0.222383
0.21198
0.237697
0.263658
0.239723
0.138306
0.287538
0.365751
0.440358
0.451577
0.426795
0.391771
0.369473
0.33852
0.304845
0.278474
0.263838
0.259048
0.252773
0.241214
0.236658
0.250049
0.259766
0.232243
0.22993
0.321261
0.394552
0.440557
0.440356
0.416114
0.376325
0.346474
0.319514
0.293657
0.270717
0.259592
0.258168
0.26103
0.270251
0.275565
0.277798
0.26233
0.240455
0.328289
0.39428
0.440762
0.447281
0.432091
0.409909
0.374101
0.342441
0.317463
0.295954
0.275377
0.265697
0.264915
0.271106
0.284905
0.29668
0.294267
0.264849
0.248282
0.396501
0.529187
0.488668
0.455113
0.427165
0.402731
0.373353
0.344613
0.321764
0.30267
0.284089
0.274141
0.273047
0.279673
0.291799
0.300865
0.294764
0.26635
0.257503
0.432376
0.781437
0.531403
0.463165
0.42665
0.399775
0.373088
0.348143
0.327302
0.309517
0.293215
0.283064
0.281411
0.286658
0.296357
0.301307
0.29093
0.266971
0.269393
0.443345
1.26857
0.565615
0.469576
0.428853
0.400736
0.37562
0.352824
0.333292
0.316659
0.302345
0.292754
0.290129
0.293368
0.299734
0.299183
0.285378
0.267301
0.282889
0.437778
0.0809808
0.0568372
0.0580963
0.0711387
0.0946885
0.129036
0.171639
0.219684
0.270119
0.31985
0.366295
0.407817
0.443619
0.473406
0.497403
0.516348
0.531505
0.544918
0.559413
0.577048
0.606986
0.68077
0.902981
0.106967
0.0660177
0.0711232
0.0930941
0.1275
0.173356
0.226428
0.282024
0.336912
0.388834
0.436042
0.477479
0.51282
0.542042
0.565454
0.583987
0.598752
0.611456
0.626523
0.643687
0.660132
0.690337
0.753317
0.157766
0.0802926
0.0933289
0.127739
0.17643
0.23626
0.298871
0.360014
0.417269
0.469104
0.514624
0.553328
0.585408
0.611129
0.630453
0.644245
0.653594
0.657157
0.658503
0.659612
0.656127
0.653591
0.658104
0.181185
0.0975261
0.123608
0.174972
0.240831
0.312903
0.383211
0.447328
0.503973
0.552715
0.59358
0.626516
0.652062
0.670668
0.681104
0.682441
0.678227
0.670379
0.660108
0.648378
0.633542
0.617678
0.603218
0.18772
0.118224
0.162958
0.23486
0.318333
0.401055
0.47527
0.537949
0.590149
0.63232
0.665247
0.688817
0.702724
0.707356
0.703817
0.694225
0.68111
0.666482
0.650254
0.63233
0.612423
0.591875
0.572063
0.213397
0.152065
0.218501
0.31146
0.408857
0.496515
0.568573
0.625375
0.668795
0.700241
0.720192
0.729206
0.728505
0.721406
0.709477
0.694358
0.677106
0.658859
0.639579
0.619068
0.597497
0.576036
0.555692
0.28271
0.209295
0.295676
0.405104
0.508798
0.593454
0.656903
0.702345
0.732059
0.748428
0.753372
0.750183
0.740892
0.727561
0.711268
0.693064
0.673614
0.653542
0.63292
0.611616
0.589969
0.56911
0.549744
0.424189
0.294408
0.391936
0.509219
0.61024
0.684123
0.733193
0.76261
0.776595
0.77962
0.774887
0.764635
0.750391
0.733464
0.714717
0.694827
0.674251
0.6534
0.632447
0.611367
0.590385
0.570495
0.552635
0.637072
0.399749
0.497474
0.614805
0.705397
0.762354
0.793599
0.807084
0.80932
0.803838
0.792969
0.778332
0.761112
0.742201
0.722213
0.701579
0.680578
0.65954
0.638825
0.618602
0.59861
0.579177
0.56239
0.851582
0.503787
0.604873
0.718839
0.790672
0.826081
0.840513
0.842695
0.836849
0.825548
0.81066
0.793398
0.774564
0.754747
0.734354
0.713678
0.692706
0.671677
0.651467
0.633293
0.615182
0.594364
0.576123
0.992124
0.598743
0.73202
0.834872
0.864888
0.877102
0.879033
0.872878
0.861168
0.845931
0.8287
0.810231
0.790864
0.770932
0.750714
0.730971
0.710691
0.689106
0.667818
0.648746
0.63042
0.609773
0.591433
1.04944
0.708382
0.951056
0.974348
0.928859
0.922498
0.912421
0.898327
0.881997
0.86436
0.846407
0.828343
0.809722
0.790322
0.769935
0.749638
0.728823
0.70592
0.682835
0.661594
0.641422
0.621119
0.602514
0.997499
0.691333
0.927697
0.97256
0.982089
0.972502
0.941239
0.917366
0.897411
0.878454
0.860168
0.841926
0.823361
0.803368
0.782087
0.760062
0.73848
0.716332
0.694697
0.674246
0.654375
0.634586
0.615238
0.767324
0.604091
0.782657
0.867216
0.947883
0.96906
0.949841
0.927157
0.906644
0.886349
0.866573
0.847343
0.828417
0.809098
0.789331
0.769464
0.749662
0.729732
0.710049
0.690536
0.670681
0.650595
0.630219
0.763829
0.550881
0.664054
0.762422
0.842515
0.891561
0.914481
0.91848
0.907815
0.890057
0.871208
0.852773
0.834905
0.817479
0.799891
0.782023
0.763914
0.745612
0.727071
0.707786
0.687525
0.666666
0.645254
0.771834
0.473737
0.556711
0.653135
0.741201
0.807982
0.852841
0.876991
0.882987
0.877264
0.865637
0.851668
0.8372
0.822512
0.807322
0.791293
0.774541
0.75732
0.739457
0.720417
0.699906
0.678398
0.6561
0.636019
0.397626
0.460972
0.550206
0.639337
0.715241
0.772576
0.811302
0.832584
0.840298
0.839264
0.833112
0.824202
0.813732
0.801823
0.78841
0.773704
0.757917
0.741018
0.722665
0.702613
0.681167
0.658611
0.507763
0.323623
0.376678
0.456755
0.540579
0.617103
0.679809
0.72716
0.759416
0.77863
0.788039
0.790693
0.788891
0.783989
0.776574
0.766879
0.755269
0.742014
0.727111
0.710403
0.691757
0.671436
0.649684
0.405649
0.261995
0.305688
0.374554
0.448888
0.520104
0.582127
0.63244
0.670615
0.697547
0.715173
0.725662
0.730855
0.731985
0.729742
0.724601
0.716987
0.707249
0.695485
0.681616
0.665622
0.647681
0.628022
0.330194
0.213787
0.247434
0.304433
0.367821
0.430369
0.487187
0.535799
0.575336
0.605884
0.628485
0.644526
0.655302
0.661787
0.664618
0.664257
0.66113
0.655564
0.647724
0.637628
0.625282
0.610864
0.594569
0.271627
0.175469
0.199864
0.2456
0.298247
0.351453
0.401145
0.44508
0.48238
0.512975
0.537353
0.55631
0.570672
0.581119
0.588143
0.592116
0.593358
0.59212
0.588548
0.582698
0.574612
0.564418
0.55227
0.225314
0.144699
0.161501
0.197111
0.239708
0.283878
0.326129
0.364432
0.397918
0.426441
0.450282
0.469939
0.485951
0.498774
0.508746
0.516115
0.521071
0.523751
0.524228
0.522528
0.518673
0.512744
0.504846
0.189488
0.120517
0.13126
0.158117
0.191633
0.227444
0.262615
0.295302
0.32461
0.350302
0.37253
0.391634
0.407994
0.421932
0.433677
0.44337
0.451093
0.456874
0.460706
0.462554
0.462395
0.460253
0.456182
0.1628
0.102193
0.108164
0.127747
0.15337
0.181689
0.210372
0.237816
0.263115
0.285923
0.306257
0.324323
0.340382
0.354664
0.367322
0.378427
0.387985
0.39595
0.402248
0.406792
0.40951
0.410377
0.409398
0.143719
0.0888396
0.0911158
0.104909
0.12399
0.145859
0.168776
0.191446
0.213029
0.233104
0.251555
0.26845
0.283933
0.29814
0.311159
0.323008
0.333645
0.342982
0.350902
0.357283
0.362022
0.365058
0.366362
0.130553
0.0793947
0.0788784
0.0882503
0.102176
0.118759
0.136754
0.15519
0.173368
0.190856
0.207448
0.223095
0.237824
0.25168
0.264678
0.27679
0.287939
0.298008
0.306862
0.31436
0.320385
0.324857
0.327725
0.121659
0.0727806
0.0702063
0.0763204
0.0863592
0.0988138
0.112796
0.127616
0.142739
0.157784
0.172514
0.186803
0.20059
0.213837
0.226495
0.23849
0.249714
0.260033
0.269299
0.277368
0.284116
0.289457
0.29333
0.115639
0.0680658
0.0640118
0.0677901
0.0749919
0.0843423
0.0951838
0.107035
0.119509
0.132302
0.145193
0.158025
0.170686
0.183081
0.195114
0.206671
0.217622
0.227818
0.237108
0.245345
0.252406
0.258208
0.262683
0.111447
0.0645589
0.0594619
0.0615955
0.0667673
0.073839
0.0822924
0.0917828
0.102036
0.112827
0.123968
0.135307
0.146715
0.158068
0.169244
0.180106
0.190509
0.200299
0.209321
0.217432
0.224513
0.230482
0.235271
0.108389
0.0618145
0.0559891
0.0569731
0.0607035
0.0661198
0.0727833
0.0804336
0.0888742
0.0979396
0.107484
0.117375
0.127486
0.137692
0.147859
0.157847
0.167506
0.176682
0.185225
0.192998
0.199887
0.20581
0.210703
0.106051
0.0595822
0.0532455
0.0534216
0.0561242
0.0603351
0.0656598
0.0718866
0.0788682
0.0864828
0.0946188
0.103167
0.112018
0.121053
0.130147
0.139164
0.147961
0.156392
0.164317
0.171605
0.178151
0.183875
0.188715
0.104217
0.0577401
0.0510368
0.0506339
0.0525913
0.0559129
0.0602269
0.0653491
0.0711615
0.0775714
0.0844929
0.0918393
0.099518
0.107427
0.115454
0.123477
0.131366
0.13899
0.146219
0.152935
0.159038
0.164456
0.169129
0.102789
0.0562382
0.0492621
0.0484312
0.0498333
0.0524832
0.0560204
0.0602748
0.0651458
0.0705588
0.0764465
0.08274
0.0893636
0.0962319
0.103249
0.110311
0.117303
0.124111
0.13062
0.136725
0.142335
0.147381
0.151808
0.101734
0.0550603
0.0478715
0.0467111
0.0476842
0.0498109
0.0527355
0.0562954
0.0603996
0.0649848
0.0699966
0.0753795
0.0810723
0.0870054
0.0930996
0.0992671
0.105413
0.111439
0.117248
0.122746
0.127852
0.132502
0.13664
0.101044
0.0542035
0.0468388
0.0454126
0.0460401
0.0477443
0.0501715
0.0531626
0.0566324
0.0605247
0.0647935
0.0693939
0.0742763
0.0793847
0.0846551
0.0900166
0.0953921
0.100701
0.10586
0.110792
0.11542
0.119685
0.123534
0.10072
0.053666
0.0461453
0.0444935
0.0448302
0.04618
0.0481906
0.0507051
0.0536414
0.056948
0.060585
0.064515
0.068698
0.0730895
0.0776392
0.0822916
0.0869865
0.0916602
0.0962467
0.100679
0.104889
0.108818
0.112411
0.100751
0.0534408
0.0457706
0.0439163
0.0439972
0.0450394
0.0466918
0.048799
0.051281
0.0540895
0.0571887
0.0605469
0.0641319
0.0679088
0.0718394
0.0758826
0.0799941
0.0841273
0.0882326
0.0922556
0.0961358
0.0998087
0.103212
0.101104
0.0535097
0.0456855
0.0436388
0.0434859
0.0442542
0.0455934
0.0473494
0.0494434
0.051829
0.0544735
0.0573494
0.0604307
0.0636907
0.0671016
0.0706353
0.0742632
0.077956
0.0816817
0.0854015
0.0890629
0.0925965
0.0959173
0.101711
0.0538378
0.0458456
0.0436074
0.0432357
0.0437579
0.044824
0.0462799
0.0480472
0.0500804
0.0523488
0.0548282
0.0574971
0.0603356
0.0633248
0.0664483
0.069692
0.0730446
0.0764942
0.0800225
0.0835933
0.0871373
0.090539
0.102453
0.0543687
0.0461838
0.0437509
0.0431758
0.0434824
0.0443183
0.045528
0.0470323
0.0487857
0.0507585
0.0529285
0.0552778
0.0577913
0.0604577
0.0632699
0.0662271
0.0693349
0.072604
0.0760442
0.0796523
0.0833875
0.0871271
0.103142
0.055002
0.0465922
0.0439696
0.043219
0.0433532
0.0440137
0.0450415
0.0463556
0.04791
0.0496749
0.0516294
0.0537576
0.056048
0.0584941
0.0610957
0.0638619
0.0668125
0.0699791
0.073405
0.0771427
0.0812469
0.0857395
0.103537
0.0554855
0.0468882
0.0441286
0.0432652
0.0432964
0.0438572
0.0447849
0.0459969
0.0474459
0.0491024
0.0509455
0.0529606
0.0551375
0.0574721
0.0599679
0.0626387
0.0655118
0.0686318
0.0720666
0.0759267
0.0804332
0.086141
1.58373
1.58392
1.8271
2.27342
0.836645
0.860712
0.878079
0.8638
0.661967
0.658198
0.647839
0.62817
0.590325
0.580614
0.569286
0.55635
0.556156
0.546101
0.536285
0.526881
0.540118
0.530719
0.522112
0.514475
0.535185
0.526451
0.518562
0.511715
0.53881
0.53023
0.522486
0.515749
0.550233
0.54146
0.533079
0.525834
0.567793
0.558987
0.547772
0.538955
0.580111
0.570971
0.560499
0.551856
0.588564
0.578905
0.569391
0.560823
0.599884
0.590186
0.580853
0.572055
0.61413
0.604131
0.594452
0.585106
0.62841
0.617894
0.607586
0.5975
0.638622
0.627609
0.616708
0.605965
0.640955
0.629725
0.618534
0.607438
0.632643
0.621691
0.610695
0.59973
0.612542
0.602449
0.592227
0.581955
0.581516
0.572772
0.563799
0.554672
0.542148
0.535093
0.527742
0.520165
0.497763
0.49258
0.487042
0.481209
0.451885
0.448515
0.444756
0.440638
0.407403
0.405592
0.403387
0.40079
0.366111
0.365529
0.364559
0.363194
0.328709
0.329026
0.328975
0.328549
0.295149
0.296089
0.296692
0.296952
0.265044
0.266399
0.267453
0.2682
0.237965
0.239582
0.240935
0.242019
0.213575
0.215342
0.216881
0.218185
0.191646
0.193479
0.195116
0.196551
0.172033
0.173866
0.17553
0.177023
0.154623
0.156405
0.158046
0.15954
0.139324
0.141026
0.142607
0.144062
0.126067
0.127671
0.129172
0.130565
0.114797
0.116305
0.117721
0.119042
0.105485
0.106915
0.108259
0.109512
0.0981409
0.0995296
0.100829
0.102032
0.0928245
0.0942327
0.0955304
0.0967079
0.0896915
0.0912225
0.0925761
0.0937455
0.0891496
0.0909809
0.092419
0.0935248
0.0925205
0.0947166
0.0959419
0.0966455
0.905318
0.572193
0.477268
0.434497
0.406433
0.383295
0.362978
0.345245
0.330339
0.317984
0.308208
0.302605
0.300446
0.298279
0.290412
0.276429
0.26737
0.299182
0.407121
0.687748
0.549118
0.482859
0.445971
0.420898
0.400764
0.38361
0.369155
0.357464
0.346947
0.335831
0.325038
0.314589
0.302796
0.288837
0.274932
0.271473
0.309462
0.369672
0.583128
0.524432
0.485711
0.46049
0.442153
0.426759
0.413041
0.401385
0.391674
0.381319
0.368081
0.352566
0.336072
0.318939
0.301503
0.284807
0.277482
0.308549
0.355426
0.535781
0.508089
0.48786
0.474348
0.464869
0.456744
0.448562
0.440268
0.431025
0.418728
0.401986
0.381965
0.361292
0.341918
0.323501
0.301488
0.279859
0.288812
0.344843
0.513977
0.499439
0.490225
0.48566
0.483918
0.48288
0.480713
0.476248
0.467421
0.453222
0.433453
0.410342
0.388034
0.370332
0.355554
0.328066
0.283199
0.264025
0.323768
0.504785
0.496202
0.492903
0.493804
0.497131
0.500748
0.502501
0.500172
0.492499
0.479182
0.45981
0.436605
0.416455
0.407476
0.406605
0.378084
0.292458
0.243615
0.269904
0.503252
0.496952
0.496149
0.499605
0.505471
0.511556
0.515339
0.514887
0.509784
0.500463
0.484119
0.461946
0.448627
0.462758
0.483078
0.404737
0.296439
0.236668
0.246231
0.507404
0.50152
0.501497
0.506304
0.514166
0.522547
0.528489
0.529751
0.527943
0.526795
0.510261
0.483891
0.471604
0.472955
0.437859
0.364179
0.303295
0.271151
0.329932
0.51669
0.510585
0.51157
0.518869
0.530192
0.542004
0.54921
0.546803
0.539792
0.52978
0.496198
0.460535
0.435681
0.424354
0.409499
0.374318
0.342743
0.330431
0.449385
0.52878
0.520695
0.518336
0.520875
0.52619
0.530694
0.528618
0.517156
0.503566
0.486306
0.456703
0.427164
0.412019
0.412487
0.414096
0.399462
0.375573
0.365429
0.546786
0.540541
0.528287
0.519272
0.512971
0.508161
0.502859
0.494015
0.479361
0.462117
0.443798
0.422548
0.405484
0.400627
0.407797
0.41707
0.413104
0.39419
0.389873
0.601105
0.549074
0.534277
0.520927
0.50844
0.496408
0.483943
0.470055
0.454256
0.43755
0.420616
0.404266
0.393167
0.390982
0.396345
0.401938
0.39894
0.389041
0.39602
0.623019
0.559321
0.542115
0.525446
0.509021
0.492791
0.47657
0.460176
0.443584
0.426951
0.410612
0.396009
0.385851
0.381287
0.38057
0.380082
0.376689
0.373845
0.394932
0.650158
0.571109
0.551571
0.532259
0.513131
0.494318
0.475873
0.45784
0.440248
0.423059
0.406492
0.391599
0.379823
0.37146
0.365552
0.360798
0.357328
0.360564
0.395566
0.686005
0.582071
0.560391
0.538937
0.517796
0.497131
0.477044
0.4576
0.438813
0.420649
0.403266
0.387319
0.373577
0.362223
0.353046
0.346217
0.343552
0.351797
0.398044
0.723998
0.589233
0.565763
0.542668
0.520028
0.497991
0.476636
0.456006
0.436116
0.416971
0.398713
0.381755
0.366575
0.353466
0.342759
0.335417
0.334115
0.346455
0.401653
0.762117
0.589816
0.565239
0.541161
0.517632
0.494768
0.47262
0.451226
0.430614
0.410835
0.392037
0.374528
0.358695
0.344948
0.333941
0.327051
0.327386
0.343215
0.406223
0.800197
0.581911
0.55724
0.533063
0.50943
0.486436
0.464133
0.442572
0.421814
0.401953
0.383159
0.365708
0.349973
0.336447
0.32595
0.320074
0.322132
0.340769
0.409542
0.832011
0.564852
0.541279
0.518028
0.495198
0.47288
0.451155
0.430111
0.409855
0.390524
0.372318
0.355516
0.340501
0.327813
0.318337
0.313697
0.317276
0.337948
0.410653
0.854292
0.539279
0.518056
0.49677
0.475597
0.454711
0.434255
0.414372
0.395218
0.376976
0.359872
0.344197
0.330337
0.318845
0.310606
0.307222
0.31206
0.334081
0.409035
0.865946
0.507184
0.489107
0.47051
0.451675
0.432846
0.414233
0.396038
0.378471
0.361751
0.346131
0.331909
0.319469
0.309349
0.302407
0.30019
0.305998
0.328744
0.404423
0.86679
0.470984
0.456401
0.440893
0.424805
0.408432
0.392043
0.375894
0.360234
0.345318
0.331413
0.318822
0.307918
0.299212
0.293516
0.292305
0.298774
0.321674
0.396709
0.856956
0.433159
0.422008
0.409639
0.396409
0.382641
0.36864
0.354698
0.341096
0.328107
0.316006
0.305093
0.295722
0.28837
0.283793
0.283384
0.290202
0.312737
0.385901
0.837049
0.395776
0.387701
0.378237
0.367725
0.356487
0.344843
0.333101
0.321552
0.310476
0.300149
0.290856
0.282926
0.276799
0.273169
0.273337
0.280203
0.301903
0.372121
0.807797
0.360215
0.354708
0.347756
0.339662
0.33073
0.321271
0.31159
0.301975
0.292699
0.284026
0.276222
0.269585
0.264513
0.261635
0.262153
0.268786
0.289241
0.355583
0.770248
0.327152
0.323691
0.318811
0.31277
0.305844
0.298323
0.290491
0.282621
0.274968
0.267777
0.261287
0.255764
0.251559
0.249235
0.249889
0.256041
0.274906
0.336603
0.725552
0.296741
0.294867
0.29165
0.287307
0.282077
0.27622
0.269995
0.263649
0.257414
0.251506
0.246138
0.24154
0.238016
0.236061
0.236663
0.242131
0.259132
0.31558
0.675119
0.268857
0.268201
0.266305
0.263344
0.259522
0.255068
0.250207
0.245159
0.240127
0.235302
0.230864
0.22701
0.223994
0.222247
0.222644
0.227274
0.242219
0.292997
0.620443
0.2433
0.243574
0.242718
0.24087
0.238202
0.234908
0.231184
0.227218
0.223186
0.21925
0.215563
0.212286
0.20963
0.207961
0.208044
0.211741
0.224527
0.269402
0.563216
0.219899
0.220873
0.220824
0.219859
0.21812
0.215769
0.212972
0.209888
0.206667
0.203444
0.200346
0.197502
0.195086
0.193402
0.19311
0.195846
0.206468
0.245416
0.505198
0.198543
0.200024
0.200583
0.200301
0.199291
0.197686
0.195625
0.193242
0.190661
0.187994
0.185344
0.182816
0.18055
0.178799
0.178123
0.179939
0.188498
0.221719
0.448292
0.179168
0.18099
0.181984
0.182207
0.181747
0.180712
0.179216
0.17737
0.175277
0.17303
0.170714
0.168413
0.166242
0.164411
0.163396
0.164411
0.171124
0.199056
0.394445
0.161738
0.163763
0.165042
0.165614
0.165545
0.164922
0.163839
0.162387
0.160653
0.158714
0.156641
0.154506
0.15241
0.150533
0.149281
0.149691
0.154899
0.17823
0.345677
0.146239
0.148353
0.149792
0.150577
0.150761
0.150414
0.149612
0.148434
0.146954
0.145237
0.143346
0.141349
0.139342
0.137493
0.136165
0.136249
0.140423
0.160101
0.303978
0.13267
0.134788
0.136284
0.137172
0.137493
0.137306
0.13668
0.135682
0.134377
0.132824
0.131084
0.129228
0.127358
0.125652
0.124457
0.124576
0.128326
0.14557
0.271271
0.121051
0.123111
0.124586
0.125486
0.125852
0.125738
0.125208
0.124324
0.123145
0.121729
0.120138
0.118453
0.116796
0.115373
0.114563
0.115149
0.119235
0.135567
0.249358
0.111422
0.113385
0.114778
0.115621
0.115963
0.11586
0.115376
0.11457
0.113499
0.11222
0.110801
0.109336
0.107976
0.106983
0.106816
0.108354
0.113707
0.131069
0.240155
0.103852
0.105688
0.10695
0.107685
0.107956
0.10783
0.107371
0.106636
0.10568
0.104562
0.103351
0.102158
0.101168
0.100714
0.101399
0.104366
0.112123
0.133215
0.246537
0.0984522
0.100123
0.101204
0.10179
0.101966
0.101809
0.10138
0.100734
0.0999225
0.098999
0.0980357
0.0971495
0.0965535
0.0966555
0.0982548
0.102975
0.114432
0.14351
0.274997
0.0953914
0.0968166
0.0976564
0.0980631
0.0981419
0.0979679
0.0975973
0.0970763
0.0964469
0.0957551
0.095065
0.0944868
0.0942357
0.0947585
0.0970309
0.103319
0.11944
0.163689
0.344913
0.0949174
0.0959321
0.0964538
0.0966666
0.0966674
0.096514
0.0962459
0.095894
0.0954867
0.0950554
0.0946457
0.0943395
0.0943067
0.0949319
0.0971668
0.103646
0.122989
0.192028
0.538575
0.0973195
0.097669
0.0978114
0.0978481
0.097817
0.0977376
0.0976232
0.0974849
0.0973329
0.0971791
0.0970409
0.09695
0.0969745
0.09728
0.0983352
0.101768
0.115127
0.196334
1.45954
)
;

boundaryField
{
    leftWall
    {
        type            epsilonWallFunction;
        value           nonuniform List<scalar> 
50
(
0.011109
0.0195783
0.0329739
0.0450466
0.0547364
0.0620783
0.0675976
0.0726842
0.0809808
0.106967
0.157766
0.181185
0.18772
0.213397
0.28271
0.424189
0.637072
0.851582
0.992124
1.04944
0.997499
0.767324
0.763829
0.771834
0.636019
0.507763
0.405649
0.330194
0.271627
0.225314
0.189488
0.1628
0.143719
0.130553
0.121659
0.115639
0.111447
0.108389
0.106051
0.104217
0.102789
0.101734
0.101044
0.10072
0.100751
0.101104
0.101711
0.102453
0.103142
0.103537
)
;
    }
    rightWall
    {
        type            epsilonWallFunction;
        value           nonuniform List<scalar> 
50
(
0.116149
0.138306
0.22993
0.328289
0.396501
0.432376
0.443345
0.437778
0.407121
0.369672
0.355426
0.344843
0.323768
0.269904
0.246231
0.329932
0.449385
0.546786
0.601105
0.623019
0.650158
0.686005
0.723998
0.762117
0.800197
0.832011
0.854292
0.865946
0.86679
0.856956
0.837049
0.807797
0.770248
0.725552
0.675119
0.620443
0.563216
0.505198
0.448292
0.394445
0.345677
0.303978
0.271271
0.249358
0.240155
0.246537
0.274997
0.344913
0.538575
1.45954
)
;
    }
    lowerWall
    {
        type            epsilonWallFunction;
        value           nonuniform List<scalar> 
62
(
0.011109
0.0343589
0.0621981
0.0957551
0.136578
0.185666
0.244312
0.314954
0.397814
0.490266
0.586363
0.678907
0.761235
0.828018
0.873286
0.893143
0.884681
0.844462
0.767463
0.646179
0.47515
0.261597
0.0497701
0.0497701
0.0865702
0.148523
0.222344
0.317828
0.452398
0.671613
1.11119
1.58373
1.58392
1.8271
2.27342
0.283689
0.240434
0.287538
0.321261
0.39428
0.529187
0.781437
1.26857
0.283689
0.616983
0.810779
0.798955
0.718679
0.634691
0.644417
0.701875
0.77779
0.751235
0.707615
0.666182
0.551738
0.367096
0.326903
0.389248
0.441274
0.404093
0.116149
)
;
    }
    atmosphere
    {
        type            inletOutlet;
        inletValue      uniform 0.1;
        value           nonuniform List<scalar> 
46
(
0.103537
0.0554855
0.0468882
0.0441286
0.0432652
0.0432964
0.0438572
0.0447849
0.0459969
0.0474459
0.0491024
0.0509455
0.0529606
0.0551375
0.0574721
0.0599679
0.0626387
0.0655118
0.0686318
0.0720666
0.0759267
0.0804332
0.086141
0.1
0.1
0.1
0.1
0.1
0.1
0.1
0.1
0.1
0.1
0.1
0.1
0.1
0.1
0.1
0.1
0.1
0.1
0.1
0.1
0.1
0.1
0.1
)
;
    }
    defaultFaces
    {
        type            empty;
    }
}


// ************************************************************************* //
