/*--------------------------------*- C++ -*----------------------------------*\
  =========                 |
  \\      /  F ield         | OpenFOAM: The Open Source CFD Toolbox
   \\    /   O peration     | Website:  https://openfoam.org
    \\  /    A nd           | Version:  13
     \\/     M anipulation  |
\*---------------------------------------------------------------------------*/
FoamFile
{
    format      ascii;
    class       volScalarField;
    location    "1.1";
    object      k;
}
// * * * * * * * * * * * * * * * * * * * * * * * * * * * * * * * * * * * * * //

dimensions      [0 2 -2 0 0 0 0];

internalField   nonuniform List<scalar> 
2268
(
0.00191745
0.00398492
0.00592788
0.00791625
0.0100346
0.0123177
0.0147935
0.017529
0.0205051
0.0235782
0.0265593
0.029264
0.0315488
0.0333267
0.0345111
0.0350156
0.0347811
0.0337102
0.0316246
0.0281964
0.0229794
0.01544
0.00512992
0.00456125
0.00985618
0.0138777
0.0180525
0.0225605
0.027522
0.0330068
0.0391007
0.0456943
0.0524764
0.0590226
0.0649615
0.0699824
0.0738589
0.0764429
0.0775815
0.0771202
0.074834
0.0703466
0.0630381
0.0519747
0.0360326
0.012207
0.00642727
0.0137377
0.0187587
0.0238422
0.0294354
0.0357359
0.0428392
0.0507587
0.0592794
0.0679797
0.0763093
0.0838092
0.0901282
0.095007
0.0982584
0.0997194
0.0991972
0.0964196
0.0909348
0.0819838
0.0683647
0.0484697
0.0174613
0.00789951
0.0167615
0.0225066
0.0282315
0.0346285
0.0419826
0.0503787
0.0597442
0.0697619
0.0799087
0.0895727
0.0982039
0.10544
0.111017
0.114744
0.11646
0.115969
0.112986
0.107038
0.0972906
0.0822713
0.0595963
0.0228264
0.00899274
0.019151
0.025591
0.0319211
0.0390834
0.047436
0.0570393
0.0677296
0.0790897
0.0905044
0.101303
0.110896
0.118886
0.125026
0.129137
0.13108
0.130674
0.127651
0.121558
0.111552
0.0959249
0.0713935
0.0288926
0.00978482
0.0209839
0.0281742
0.035171
0.0431526
0.052539
0.0633534
0.0753372
0.0879688
0.100553
0.11237
0.12281
0.131458
0.138078
0.142518
0.144668
0.144384
0.141434
0.135422
0.12558
0.110067
0.0848617
0.0364546
0.0103774
0.0223697
0.0303863
0.038158
0.0470636
0.0575832
0.069661
0.082925
0.0967528
0.110407
0.123143
0.13433
0.143545
0.150576
0.1553
0.157636
0.157505
0.154723
0.148963
0.139594
0.124737
0.100059
0.0473955
0.0109523
0.0235756
0.0324653
0.0411191
0.0510686
0.0628451
0.0762421
0.0907499
0.105635
0.12017
0.133619
0.145378
0.155052
0.162439
0.167439
0.170004
0.170111
0.167637
0.162301
0.153564
0.139626
0.116555
0.0656221
0.0164292
0.0272469
0.0323327
0.0317668
0.0294865
0.0277381
0.0286186
0.0305885
0.0325416
0.0317197
0.0309078
0.0300655
0.0265569
0.0203574
0.0189962
0.0210042
0.0222082
0.020545
0.00886675
0.0261135
0.056836
0.0699459
0.0692135
0.0633977
0.0580983
0.0591586
0.0618325
0.062337
0.061105
0.0609873
0.0615608
0.058815
0.0509828
0.0479956
0.0498275
0.0502601
0.0432575
0.0178636
0.0296205
0.0721143
0.089305
0.0902299
0.0841305
0.0768737
0.0750287
0.0765683
0.0771236
0.0762012
0.0766543
0.0776931
0.0764464
0.0722299
0.0688633
0.068262
0.0652662
0.0537888
0.0251907
0.0318104
0.0853109
0.103832
0.105319
0.0999036
0.0922207
0.0885986
0.0885103
0.0886146
0.0877022
0.0884313
0.089613
0.0894546
0.0885954
0.0863398
0.0829321
0.0747155
0.0610929
0.0319773
0.0357249
0.097775
0.11525
0.116514
0.112221
0.105429
0.100943
0.099522
0.0989621
0.097892
0.0985771
0.099529
0.0997839
0.0997547
0.09833
0.0932093
0.0812253
0.0659996
0.0362394
0.0429105
0.109561
0.124985
0.125937
0.122059
0.116491
0.112023
0.109789
0.108587
0.107329
0.107565
0.108113
0.108303
0.10792
0.105715
0.0990989
0.085769
0.0696802
0.0383957
0.0550336
0.12042
0.133971
0.134807
0.131167
0.126166
0.12194
0.119201
0.117412
0.116044
0.115743
0.115793
0.115497
0.114511
0.111145
0.102885
0.0889294
0.0728989
0.0390824
0.0755171
0.131239
0.142633
0.143449
0.140038
0.13538
0.131173
0.128002
0.125773
0.124254
0.1235
0.122894
0.12189
0.119972
0.115003
0.105224
0.0911046
0.0757846
0.038875
0.0118842
0.0256194
0.0358793
0.0461346
0.0579247
0.0718811
0.0873345
0.103606
0.119954
0.135594
0.149835
0.162204
0.172411
0.180274
0.18571
0.188702
0.189256
0.187364
0.182856
0.174997
0.162498
0.142939
0.112882
0.0145099
0.0302942
0.0428928
0.0561638
0.0710791
0.0880634
0.106203
0.124443
0.142071
0.158521
0.173285
0.185991
0.196427
0.204459
0.210012
0.213127
0.213829
0.21216
0.208616
0.202582
0.192437
0.179308
0.165665
0.0187557
0.0385128
0.053102
0.0693219
0.0877688
0.108121
0.128499
0.148122
0.166484
0.183168
0.197835
0.210223
0.220219
0.227762
0.23273
0.235197
0.235314
0.232795
0.228324
0.222338
0.213987
0.204544
0.19647
0.0207159
0.0450655
0.0638928
0.0845487
0.107175
0.130406
0.152681
0.173196
0.1917
0.207996
0.221928
0.233337
0.24219
0.248503
0.251959
0.252386
0.250534
0.246948
0.242028
0.236203
0.229384
0.222377
0.216514
0.0214453
0.0517038
0.0760232
0.101879
0.128668
0.154427
0.177864
0.198424
0.216324
0.231537
0.24406
0.253742
0.260402
0.264101
0.265051
0.263775
0.260892
0.25703
0.252369
0.24711
0.241403
0.235776
0.230891
0.0235929
0.061138
0.0915649
0.122427
0.152385
0.179442
0.202779
0.222524
0.238961
0.252239
0.262297
0.269161
0.272991
0.274492
0.27404
0.272099
0.269026
0.265257
0.260962
0.25626
0.251309
0.24648
0.242121
0.0286008
0.0752356
0.111497
0.146092
0.177502
0.204243
0.226218
0.244036
0.25798
0.268386
0.275507
0.279951
0.282125
0.282513
0.281434
0.279238
0.276208
0.272638
0.268684
0.26442
0.259979
0.25565
0.251624
0.0372717
0.0936364
0.134547
0.171119
0.20223
0.227189
0.24668
0.261587
0.272549
0.280329
0.285514
0.288548
0.289785
0.289581
0.288223
0.285978
0.283072
0.279722
0.276074
0.272192
0.268137
0.264127
0.2604
0.0485748
0.113708
0.158057
0.19533
0.224815
0.24689
0.263204
0.275109
0.283775
0.28985
0.293794
0.295968
0.29668
0.29621
0.294795
0.292644
0.28992
0.286794
0.283437
0.279944
0.276237
0.272339
0.268785
0.0584513
0.131575
0.180124
0.217725
0.244282
0.262684
0.27594
0.285687
0.292758
0.297673
0.300831
0.302533
0.303022
0.302519
0.301215
0.299279
0.29679
0.293868
0.290796
0.287927
0.284766
0.280531
0.276571
0.0640961
0.146128
0.202939
0.239925
0.260051
0.274597
0.285604
0.293798
0.299761
0.303941
0.306699
0.308263
0.308788
0.308437
0.307373
0.305864
0.303745
0.300874
0.297678
0.294678
0.291514
0.287358
0.283405
0.0653945
0.160006
0.235579
0.262408
0.271687
0.283469
0.29254
0.299447
0.304678
0.308518
0.311268
0.313074
0.313936
0.313899
0.313003
0.311563
0.309496
0.306454
0.30292
0.299436
0.295838
0.291808
0.287832
0.0660087
0.154634
0.229285
0.259991
0.278716
0.290757
0.296756
0.302343
0.307197
0.311011
0.313892
0.315833
0.316857
0.316825
0.31584
0.314096
0.311928
0.309146
0.306049
0.302846
0.299411
0.295619
0.291568
0.0546476
0.134429
0.203433
0.240229
0.270287
0.287308
0.295753
0.301983
0.307063
0.310858
0.313609
0.315467
0.316516
0.316726
0.316176
0.315025
0.313376
0.31124
0.308756
0.30594
0.30268
0.299006
0.294905
0.0530576
0.129572
0.182467
0.219586
0.248812
0.270237
0.285767
0.296725
0.303775
0.308273
0.311408
0.313604
0.315032
0.315802
0.315896
0.315367
0.314285
0.312721
0.310716
0.30818
0.305063
0.301462
0.297392
0.0546161
0.117811
0.162045
0.196985
0.226613
0.25065
0.269754
0.284181
0.294277
0.301138
0.305832
0.309099
0.311411
0.312949
0.313761
0.313849
0.313295
0.312211
0.310607
0.308387
0.305489
0.302034
0.298074
0.048288
0.104284
0.142235
0.174384
0.203281
0.228373
0.249316
0.266131
0.278919
0.288291
0.295093
0.300027
0.30362
0.306208
0.307904
0.308761
0.308876
0.308347
0.307207
0.305405
0.302895
0.299758
0.296064
0.0414941
0.0900555
0.123553
0.152768
0.179845
0.204429
0.225857
0.243895
0.258485
0.269902
0.278682
0.285388
0.290501
0.294356
0.29714
0.298958
0.299932
0.300165
0.299691
0.298497
0.296565
0.293968
0.290766
0.0355523
0.077385
0.106882
0.132918
0.157425
0.180361
0.201088
0.21921
0.234568
0.247226
0.257468
0.265676
0.272216
0.277371
0.281329
0.284233
0.286212
0.287377
0.287778
0.287417
0.286303
0.284489
0.282036
0.0308054
0.066683
0.0924392
0.115372
0.137102
0.157716
0.176805
0.194039
0.209215
0.222242
0.233239
0.242427
0.250047
0.256309
0.261374
0.265368
0.268414
0.270611
0.272019
0.272658
0.272545
0.271728
0.270261
0.0269583
0.0576736
0.0801548
0.100245
0.119339
0.137554
0.154639
0.170353
0.184545
0.197145
0.208178
0.217743
0.225975
0.233008
0.238952
0.243905
0.247958
0.251187
0.253643
0.255352
0.256335
0.256633
0.256287
0.023739
0.0502802
0.0699579
0.0875064
0.104197
0.120164
0.135249
0.149285
0.162174
0.173878
0.184411
0.193827
0.2022
0.209607
0.216116
0.221785
0.226668
0.23081
0.234239
0.236973
0.239025
0.240422
0.24119
0.0210916
0.0443851
0.0617275
0.0770748
0.0916405
0.105605
0.118873
0.131323
0.14289
0.15356
0.163356
0.172322
0.180512
0.187973
0.194744
0.200854
0.206322
0.211163
0.215383
0.21898
0.221954
0.224315
0.226073
0.0189981
0.0398504
0.0553076
0.0688151
0.0815619
0.0937958
0.105485
0.116547
0.126929
0.136627
0.145666
0.15409
0.161944
0.169264
0.176073
0.182382
0.18819
0.193489
0.198265
0.202499
0.206175
0.209286
0.211827
0.0174191
0.0365048
0.0504848
0.0625089
0.0737518
0.0845308
0.0948828
0.104765
0.11414
0.123
0.131366
0.139273
0.146758
0.15385
0.160564
0.166903
0.172853
0.178394
0.183498
0.188134
0.192275
0.195901
0.198993
0.0162815
0.0341377
0.046984
0.0578458
0.0678856
0.0774762
0.0867177
0.0956111
0.104138
0.11229
0.120079
0.127528
0.134662
0.141502
0.148055
0.154318
0.160272
0.16589
0.171138
0.175978
0.180375
0.184302
0.187729
0.0154885
0.0325174
0.0444986
0.0544636
0.063563
0.0722062
0.0805423
0.0886127
0.0964213
0.103966
0.111253
0.118292
0.125097
0.131679
0.138037
0.144161
0.150029
0.155611
0.16087
0.165765
0.170258
0.174317
0.177907
0.014942
0.0314239
0.042738
0.0520097
0.0603799
0.0682779
0.0758852
0.0832749
0.0904723
0.0974857
0.104319
0.110978
0.117464
0.12378
0.129917
0.135859
0.141581
0.147051
0.152229
0.157075
0.16155
0.165619
0.169246
0.0145588
0.0306757
0.041462
0.050189
0.0579897
0.0653012
0.0723235
0.0791508
0.0858263
0.0923686
0.0987852
0.105078
0.111246
0.117283
0.123174
0.128899
0.13443
0.139732
0.144766
0.149491
0.153869
0.157863
0.161437
0.0142795
0.0301418
0.0404965
0.0487835
0.0561302
0.0629737
0.069522
0.0758822
0.0821095
0.0882315
0.0942607
0.1002
0.106046
0.111789
0.117411
0.122888
0.128191
0.133284
0.138126
0.142678
0.146901
0.15076
0.154219
0.0140666
0.0297392
0.039729
0.047649
0.0546229
0.0610833
0.0672403
0.0732067
0.0790452
0.0847902
0.0904585
0.0960556
0.101578
0.107015
0.112349
0.117554
0.122599
0.127448
0.132062
0.136401
0.140428
0.144108
0.147406
0.0138996
0.0294225
0.0390962
0.0467005
0.0533577
0.0594944
0.0653189
0.0709459
0.0764418
0.081845
0.0871763
0.0924435
0.097645
0.102771
0.107803
0.112716
0.117481
0.122062
0.126421
0.130518
0.134317
0.137786
0.140891
0.0137692
0.0291712
0.0385677
0.045894
0.0522733
0.0581269
0.0636598
0.0689861
0.0741738
0.0792635
0.0842783
0.0892286
0.0941146
0.0989278
0.103652
0.108264
0.112735
0.117032
0.121117
0.124953
0.128504
0.131739
0.134627
0.0136719
0.0289794
0.0381325
0.0452106
0.05134
0.0569383
0.0622073
0.0672599
0.0721643
0.0769621
0.0816781
0.0863244
0.0909032
0.0954079
0.0998244
0.104132
0.108304
0.112309
0.116112
0.119677
0.12297
0.125961
0.128619
0.0136069
0.0288475
0.0377891
0.0446442
0.0505455
0.0559083
0.0609327
0.0657306
0.0703698
0.0748928
0.0793252
0.0836805
0.0879625
0.0921669
0.0962819
0.100289
0.104165
0.10788
0.111403
0.114699
0.117734
0.120479
0.122907
0.0135743
0.0287767
0.0375374
0.0441932
0.0498846
0.0550279
0.0598226
0.0643804
0.0687693
0.0730321
0.0771953
0.0812734
0.085272
0.0891884
0.0930135
0.0967317
0.100322
0.103759
0.107012
0.11005
0.112839
0.115349
0.117556
0.0135729
0.0287656
0.037375
0.0438539
0.0493533
0.0542921
0.0588711
0.0632029
0.067356
0.0713739
0.0752838
0.0791015
0.0828335
0.0864794
0.0900321
0.0934789
0.096802
0.0999789
0.102983
0.105783
0.108346
0.110642
0.112646
0.0135997
0.0288077
0.0372935
0.0436179
0.048944
0.0536952
0.0580749
0.0621975
0.0661326
0.0699246
0.0736016
0.0771802
0.0806684
0.0840671
0.0873715
0.0905715
0.0936525
0.0965953
0.099376
0.101967
0.104334
0.106445
0.108272
0.0136484
0.0288891
0.0372769
0.04347
0.0486446
0.0532295
0.0574317
0.0613678
0.0651091
0.0687009
0.0721722
0.0755405
0.0788149
0.0819976
0.0850855
0.0880709
0.0909418
0.0936824
0.0962723
0.0986865
0.100894
0.102856
0.104537
0.0137082
0.0289864
0.0373015
0.0433895
0.0484393
0.0528859
0.0569403
0.0607212
0.0643016
0.0677279
0.0710299
0.074226
0.0773258
0.0803327
0.0832448
0.086056
0.0887564
0.0913328
0.0937687
0.0960427
0.0981269
0.0999835
0.101563
0.0137624
0.0290674
0.0373376
0.0433509
0.0483091
0.0526539
0.0565994
0.0602665
0.0637294
0.0670356
0.0702155
0.0732878
0.0762629
0.0791444
0.0819313
0.0846181
0.0871962
0.0896541
0.0919776
0.0941495
0.0961481
0.0979421
0.0994867
0.0137904
0.0291098
0.0373583
0.0433301
0.0482373
0.0525256
0.0564115
0.0600171
0.0634172
0.0666597
0.0697754
0.0727831
0.0756934
0.0785102
0.0812323
0.0838545
0.0863682
0.0887623
0.0910229
0.0931344
0.0950797
0.0968425
0.0984185
0.0835337
0.0832547
0.0914798
0.105553
0.15888
0.157335
0.158099
0.160621
0.192696
0.19119
0.190493
0.190439
0.213276
0.211649
0.210436
0.209591
0.22779
0.226075
0.224637
0.22347
0.239075
0.23729
0.235709
0.234355
0.248619
0.246779
0.245079
0.243563
0.257387
0.255427
0.253573
0.251872
0.266066
0.263964
0.261843
0.2599
0.274814
0.272663
0.269745
0.267334
0.280865
0.278627
0.275903
0.273549
0.28464
0.282296
0.279879
0.277613
0.288122
0.285854
0.283588
0.281377
0.291461
0.289247
0.287035
0.284831
0.293997
0.291814
0.289608
0.287387
0.294779
0.292642
0.290463
0.288255
0.292971
0.290944
0.28886
0.286736
0.288036
0.28622
0.284334
0.282397
0.279856
0.278369
0.276799
0.275164
0.268793
0.267738
0.266584
0.265347
0.255625
0.25507
0.254407
0.253651
0.241338
0.241309
0.241163
0.240913
0.226949
0.227411
0.227753
0.227979
0.213292
0.214162
0.214913
0.215542
0.200881
0.202055
0.203111
0.204043
0.189886
0.191257
0.192512
0.193648
0.180205
0.181681
0.183046
0.184295
0.17159
0.1731
0.174504
0.175798
0.163758
0.165252
0.166646
0.167932
0.156469
0.157912
0.159258
0.160503
0.149549
0.150918
0.152194
0.153372
0.142904
0.144181
0.145369
0.146464
0.136494
0.137669
0.138759
0.139761
0.130331
0.131399
0.132386
0.133289
0.124462
0.125422
0.126305
0.127108
0.118956
0.119812
0.120595
0.121302
0.113902
0.114662
0.115352
0.11597
0.1094
0.110074
0.11068
0.111218
0.105557
0.106158
0.106692
0.107159
0.102504
0.103045
0.103513
0.103908
0.100413
0.100901
0.101289
0.101588
0.0995293
0.0999168
0.100144
0.100277
0.124841
0.149938
0.156647
0.156812
0.153696
0.149397
0.145154
0.141473
0.138614
0.136425
0.13445
0.132312
0.129507
0.125171
0.117827
0.106851
0.092992
0.0787529
0.0371487
0.165299
0.172843
0.17499
0.173825
0.170752
0.166857
0.162921
0.159355
0.156351
0.153347
0.149629
0.145002
0.139179
0.131557
0.121591
0.10903
0.0943059
0.0786671
0.0345553
0.190968
0.192514
0.192485
0.19096
0.188291
0.184888
0.181212
0.177657
0.174243
0.170137
0.164636
0.157649
0.149252
0.139236
0.127184
0.11245
0.0950582
0.0759163
0.0334217
0.208771
0.208379
0.207757
0.206632
0.20492
0.20255
0.199563
0.196118
0.191917
0.186306
0.178828
0.169624
0.159118
0.147411
0.133789
0.116336
0.094571
0.0704893
0.0325074
0.222092
0.221051
0.220446
0.21992
0.219164
0.217867
0.215732
0.212528
0.207585
0.200595
0.191378
0.180376
0.168348
0.155689
0.141246
0.120706
0.0926982
0.0633162
0.0309534
0.232662
0.231317
0.23077
0.230638
0.230488
0.229834
0.228171
0.224837
0.21947
0.211902
0.201841
0.189765
0.176987
0.164562
0.150699
0.127392
0.0894554
0.0551755
0.0273398
0.241583
0.239911
0.239245
0.239214
0.239311
0.238943
0.237334
0.233934
0.228602
0.221298
0.211039
0.198115
0.185455
0.175641
0.162118
0.126762
0.084339
0.0495426
0.0265791
0.249584
0.247548
0.246702
0.246751
0.247158
0.247098
0.245682
0.242259
0.237216
0.231212
0.219932
0.204785
0.190361
0.175454
0.150366
0.116968
0.085203
0.0557483
0.0326964
0.257232
0.254914
0.254164
0.254755
0.255924
0.256572
0.255186
0.250371
0.243423
0.23449
0.218324
0.200256
0.18279
0.166251
0.147443
0.123824
0.0997389
0.0741543
0.0398635
0.264325
0.261412
0.259726
0.259004
0.25856
0.257263
0.253384
0.246101
0.237317
0.22647
0.211125
0.194438
0.179758
0.167334
0.153944
0.136175
0.114919
0.0888249
0.0450838
0.270251
0.266265
0.262842
0.259789
0.256694
0.252874
0.247326
0.239319
0.229716
0.218798
0.205902
0.19279
0.181429
0.171701
0.161124
0.146173
0.125345
0.0970603
0.0477805
0.274311
0.269803
0.265365
0.260782
0.25588
0.250306
0.243652
0.235672
0.226584
0.216465
0.205401
0.194553
0.184794
0.175597
0.164897
0.150119
0.129748
0.100866
0.0488952
0.277995
0.273105
0.268027
0.262633
0.256855
0.25056
0.243594
0.235847
0.227272
0.217861
0.207914
0.198077
0.188514
0.178526
0.166778
0.151604
0.131338
0.102536
0.0502898
0.281358
0.276194
0.270755
0.264986
0.258873
0.252366
0.245392
0.237863
0.229668
0.22077
0.211368
0.20175
0.191811
0.180985
0.168378
0.152847
0.132793
0.104378
0.0520618
0.283825
0.278505
0.272911
0.26702
0.260832
0.254316
0.247415
0.240045
0.232094
0.223505
0.214359
0.204736
0.194464
0.183123
0.1701
0.154512
0.134789
0.106785
0.0539148
0.284666
0.279321
0.273737
0.267889
0.261772
0.255353
0.248573
0.241351
0.233591
0.22523
0.216267
0.206678
0.1963
0.184818
0.171767
0.156372
0.137038
0.109365
0.0557433
0.28323
0.278041
0.272635
0.266981
0.261065
0.254848
0.248269
0.241256
0.233728
0.225622
0.216896
0.207489
0.19725
0.185924
0.173116
0.158078
0.139143
0.111718
0.0575463
0.279134
0.27433
0.269296
0.264004
0.258437
0.252551
0.246293
0.239598
0.232402
0.224646
0.216275
0.207212
0.197316
0.186354
0.173957
0.159376
0.140917
0.113804
0.0590341
0.272345
0.268168
0.263713
0.258966
0.253907
0.248499
0.242697
0.23645
0.229707
0.222417
0.214522
0.205945
0.19655
0.186117
0.174256
0.160191
0.142186
0.115343
0.0600663
0.263172
0.259855
0.256176
0.252136
0.24773
0.242933
0.237712
0.232032
0.225853
0.219133
0.211818
0.203827
0.195027
0.18519
0.173903
0.160361
0.14279
0.116214
0.0606035
0.252249
0.249927
0.247148
0.243931
0.240283
0.236193
0.231643
0.226612
0.221072
0.214988
0.20831
0.200954
0.192782
0.183554
0.172835
0.159796
0.142639
0.116355
0.0606415
0.240328
0.239033
0.237195
0.234845
0.231998
0.228657
0.224816
0.220467
0.215593
0.210164
0.204131
0.197409
0.189851
0.181204
0.171019
0.158448
0.141687
0.115738
0.0601865
0.228165
0.227828
0.226883
0.225365
0.223293
0.220679
0.217529
0.213844
0.209613
0.204811
0.19939
0.193259
0.186266
0.178145
0.168438
0.156291
0.13991
0.114354
0.0592598
0.216384
0.216855
0.216682
0.215893
0.214509
0.212547
0.21002
0.206933
0.203282
0.199043
0.194165
0.188555
0.182052
0.174386
0.165092
0.153321
0.13731
0.112215
0.0578841
0.205385
0.206475
0.206907
0.206702
0.205878
0.204455
0.202447
0.199864
0.196701
0.192934
0.188511
0.183334
0.177237
0.169946
0.160997
0.149557
0.133909
0.109347
0.0560924
0.195325
0.196838
0.197699
0.19792
0.197514
0.196501
0.194894
0.192704
0.189924
0.186529
0.182464
0.177627
0.171849
0.164854
0.156186
0.145035
0.129749
0.105795
0.0539201
0.186163
0.187929
0.189058
0.189556
0.189432
0.188702
0.18738
0.185473
0.182973
0.179852
0.176051
0.171466
0.165925
0.159156
0.150713
0.139819
0.124897
0.101622
0.0514132
0.177744
0.179625
0.180892
0.181543
0.181584
0.181029
0.179888
0.178165
0.175852
0.172916
0.169297
0.164887
0.159515
0.152914
0.144654
0.133994
0.119443
0.0969122
0.0486223
0.169872
0.171771
0.173077
0.173785
0.173899
0.17343
0.172386
0.170768
0.168565
0.165743
0.162238
0.157943
0.152688
0.146213
0.138106
0.127667
0.1135
0.0917685
0.0456104
0.162379
0.164224
0.165498
0.166195
0.166314
0.165865
0.164854
0.16328
0.161129
0.158367
0.154928
0.150705
0.145534
0.139161
0.131195
0.120977
0.107208
0.0863194
0.0424491
0.155144
0.156886
0.15808
0.158716
0.158793
0.158317
0.157294
0.155721
0.153584
0.150846
0.147444
0.143272
0.138169
0.131893
0.124072
0.114088
0.100738
0.0807196
0.0392273
0.148107
0.149713
0.150793
0.151334
0.151335
0.150803
0.149739
0.148143
0.145997
0.143268
0.139892
0.135768
0.130741
0.124577
0.116923
0.107201
0.0942949
0.0751572
0.0360494
0.141257
0.142706
0.14365
0.144075
0.143982
0.143375
0.142258
0.140628
0.13847
0.135752
0.132413
0.128355
0.123429
0.117413
0.10997
0.100552
0.0881202
0.0698555
0.0330437
0.134631
0.13591
0.136705
0.137005
0.136809
0.136123
0.134951
0.133293
0.131136
0.128449
0.125176
0.121223
0.116449
0.11064
0.103471
0.0944185
0.0824971
0.0650767
0.0303595
0.128294
0.1294
0.130044
0.130217
0.129919
0.12916
0.127947
0.126282
0.124155
0.121538
0.118381
0.114594
0.110044
0.104523
0.0977158
0.0891094
0.0777444
0.0611172
0.0281682
0.122338
0.123275
0.123772
0.123824
0.123437
0.122624
0.121395
0.119758
0.117707
0.115217
0.112243
0.108704
0.10447
0.0993434
0.0930103
0.0849542
0.0742061
0.058301
0.0266526
0.116866
0.117644
0.118005
0.117951
0.117495
0.116657
0.115454
0.113894
0.111978
0.109686
0.106978
0.103781
0.0999746
0.0953662
0.0896444
0.0822753
0.0722358
0.0569769
0.0260077
0.111988
0.112618
0.112857
0.112719
0.112226
0.111405
0.110276
0.108854
0.107143
0.105128
0.102776
0.100023
0.096759
0.0928052
0.0878556
0.0813559
0.0721871
0.0575475
0.0264719
0.107811
0.108302
0.108435
0.108239
0.107749
0.106995
0.106002
0.104785
0.103351
0.101692
0.0997808
0.0975651
0.0949531
0.0917876
0.0877875
0.0824026
0.0744132
0.0605639
0.0284683
0.104438
0.104786
0.104827
0.10461
0.104172
0.103545
0.102752
0.101808
0.100721
0.0994847
0.0980827
0.0964765
0.0945986
0.0923304
0.0894506
0.0854866
0.0792356
0.0669259
0.0331047
0.101953
0.102138
0.10211
0.101917
0.101593
0.101159
0.100633
0.100024
0.0993389
0.098576
0.0977256
0.0967665
0.0956608
0.0943427
0.0926899
0.0904267
0.0867261
0.0780917
0.0446453
0.100393
0.100409
0.100358
0.100259
0.100121
0.0999503
0.099752
0.0995301
0.0992871
0.0990232
0.0987362
0.0984206
0.098067
0.0976616
0.0971854
0.0966154
0.0959139
0.0947933
0.0870768
)
;

boundaryField
{
    leftWall
    {
        type            kqRWallFunction;
        value           nonuniform List<scalar> 
50
(
0.00191745
0.00456125
0.00642727
0.00789951
0.00899274
0.00978482
0.0103774
0.0109523
0.0118842
0.0145099
0.0187557
0.0207159
0.0214453
0.0235929
0.0286008
0.0372717
0.0485748
0.0584513
0.0640961
0.0653945
0.0660087
0.0546476
0.0530576
0.0546161
0.048288
0.0414941
0.0355523
0.0308054
0.0269583
0.023739
0.0210916
0.0189981
0.0174191
0.0162815
0.0154885
0.014942
0.0145588
0.0142795
0.0140666
0.0138996
0.0137692
0.0136719
0.0136069
0.0135743
0.0135729
0.0135997
0.0136484
0.0137082
0.0137624
0.0137904
)
;
    }
    rightWall
    {
        type            kqRWallFunction;
        value           nonuniform List<scalar> 
50
(
0.00886675
0.0178636
0.0251907
0.0319773
0.0362394
0.0383957
0.0390824
0.038875
0.0371487
0.0345553
0.0334217
0.0325074
0.0309534
0.0273398
0.0265791
0.0326964
0.0398635
0.0450838
0.0477805
0.0488952
0.0502898
0.0520618
0.0539148
0.0557433
0.0575463
0.0590341
0.0600663
0.0606035
0.0606415
0.0601865
0.0592598
0.0578841
0.0560924
0.0539201
0.0514132
0.0486223
0.0456104
0.0424491
0.0392273
0.0360494
0.0330437
0.0303595
0.0281682
0.0266526
0.0260077
0.0264719
0.0284683
0.0331047
0.0446453
0.0870768
)
;
    }
    lowerWall
    {
        type            kqRWallFunction;
        value           nonuniform List<scalar> 
62
(
0.00191745
0.00398492
0.00592788
0.00791625
0.0100346
0.0123177
0.0147935
0.017529
0.0205051
0.0235782
0.0265593
0.029264
0.0315488
0.0333267
0.0345111
0.0350156
0.0347811
0.0337102
0.0316246
0.0281964
0.0229794
0.01544
0.00512992
0.00512992
0.012207
0.0174613
0.0228264
0.0288926
0.0364546
0.0473955
0.0656221
0.0835337
0.0832547
0.0914798
0.105553
0.0164292
0.0261135
0.0296205
0.0318104
0.0357249
0.0429105
0.0550336
0.0755171
0.0164292
0.0272469
0.0323327
0.0317668
0.0294865
0.0277381
0.0286186
0.0305885
0.0325416
0.0317197
0.0309078
0.0300655
0.0265569
0.0203574
0.0189962
0.0210042
0.0222082
0.020545
0.00886675
)
;
    }
    atmosphere
    {
        type            inletOutlet;
        inletValue      uniform 0.1;
        value           nonuniform List<scalar> 
46
(
0.0137904
0.0291098
0.0373583
0.0433301
0.0482373
0.0525256
0.0564115
0.0600171
0.0634172
0.0666597
0.0697754
0.0727831
0.0756934
0.0785102
0.0812323
0.0838545
0.0863682
0.0887623
0.0910229
0.0931344
0.0950797
0.0968425
0.0984185
0.1
0.1
0.1
0.1
0.1
0.1
0.1
0.1
0.1
0.1
0.1
0.1
0.1
0.1
0.1
0.1
0.1
0.1
0.1
0.1
0.1
0.1
0.1
)
;
    }
    defaultFaces
    {
        type            empty;
    }
}


// ************************************************************************* //
