/*--------------------------------*- C++ -*----------------------------------*\
  =========                 |
  \\      /  F ield         | OpenFOAM: The Open Source CFD Toolbox
   \\    /   O peration     | Website:  https://openfoam.org
    \\  /    A nd           | Version:  13
     \\/     M anipulation  |
\*---------------------------------------------------------------------------*/
FoamFile
{
    format      ascii;
    class       volScalarField;
    location    "1.1";
    object      nut;
}
// * * * * * * * * * * * * * * * * * * * * * * * * * * * * * * * * * * * * * //

dimensions      [0 2 -1 0 0 0 0];

internalField   nonuniform List<scalar> 
2268
(
2.97864e-05
4.1595e-05
5.08468e-05
5.89006e-05
6.63533e-05
7.35477e-05
8.06194e-05
8.78028e-05
9.51228e-05
0.000102055
0.000108271
0.000113527
0.000117676
0.000120722
0.000122745
0.000123551
0.000123067
0.000121111
0.000117283
0.000110733
0.000100021
8.20172e-05
4.75878e-05
9.56392e-05
0.000306695
0.000422176
0.000524708
0.000613999
0.000695489
0.000771164
0.000846391
0.000920999
0.000992545
0.00105684
0.0011107
0.00115193
0.00117947
0.00119421
0.00119551
0.00118184
0.00115024
0.00109496
0.00100566
0.000863444
0.000630964
0.000154915
0.000112752
0.000534131
0.000797152
0.00100862
0.00118927
0.00134975
0.00149808
0.00164394
0.00178806
0.00192584
0.00204906
0.00215105
0.00222778
0.00227721
0.00229846
0.00229033
0.00224881
0.00216694
0.00203215
0.001823
0.00150342
0.00101164
0.000184758
0.000124675
0.000701174
0.00110621
0.00141676
0.00167218
0.00189413
0.00209853
0.00229948
0.0024989
0.00269023
0.00286231
0.00300487
0.00311171
0.00317917
0.00320451
0.00318494
0.00311405
0.00298116
0.00276841
0.00244671
0.00196832
0.00125684
0.000210908
0.000132969
0.000813588
0.00134903
0.00175086
0.00206857
0.00233815
0.00258597
0.00283072
0.00307508
0.00331063
0.00352368
0.0037013
0.00383469
0.00391842
0.00394787
0.00391854
0.00382186
0.00364407
0.00336373
0.00294733
0.00233848
0.00144967
0.000236386
0.000138806
0.000881621
0.00153414
0.00202105
0.00239243
0.0027008
0.00298458
0.00326663
0.00354957
0.00382309
0.00407139
0.00427964
0.00443693
0.004536
0.00457067
0.00453461
0.00441773
0.00420385
0.00386936
0.00337928
0.00266959
0.00164058
0.000264379
0.00014338
0.00092282
0.00167816
0.00224172
0.0026589
0.00300058
0.00331677
0.00363298
0.00395065
0.00425776
0.00453694
0.0047721
0.00495092
0.00506466
0.00510587
0.00506655
0.00493576
0.0046955
0.00432096
0.00377817
0.00299419
0.00184711
0.000301022
0.000148529
0.000960496
0.00180356
0.00242949
0.00288299
0.00325432
0.0036017
0.00395071
0.00430046
0.0046375
0.00494358
0.00520213
0.00540016
0.00552781
0.00557666
0.00553762
0.00539927
0.00514294
0.0047423
0.00416533
0.00333066
0.00208761
0.000348784
8.56311e-05
0.000108294
0.000116044
0.000113676
0.000108882
0.000109102
0.000114386
0.000119978
0.000122534
0.000120538
0.000121502
0.00012212
0.000115045
0.000101604
9.93478e-05
0.000102007
0.000100591
9.40094e-05
6.09196e-05
0.000255256
0.000752145
0.000908997
0.000868245
0.000768386
0.000682504
0.000713171
0.000851507
0.000965247
0.00101361
0.00108155
0.00114975
0.00115343
0.00105194
0.000978026
0.000940064
0.00086228
0.000702515
0.000207654
0.000274619
0.00127967
0.00163
0.0016226
0.00149255
0.00135758
0.00137124
0.00155868
0.00175605
0.00187665
0.00200437
0.00209714
0.00208078
0.00194659
0.00180342
0.00167717
0.00147583
0.0011212
0.000248386
0.00028348
0.00166015
0.00220245
0.00226698
0.0021587
0.00203393
0.00203904
0.00220668
0.00240665
0.0025571
0.0027112
0.00279951
0.00275903
0.00261395
0.00243467
0.00222823
0.00191521
0.00139698
0.000280331
0.000291327
0.00195207
0.00267269
0.00282764
0.00276507
0.00267406
0.00267798
0.00280794
0.00297821
0.00313191
0.0032916
0.00336539
0.00330539
0.00314347
0.0029331
0.00265718
0.00224195
0.00157899
0.000298099
0.000313157
0.00221076
0.00308915
0.00334157
0.00332941
0.00327118
0.00327738
0.00337147
0.00350611
0.0036494
0.0037985
0.00385268
0.00377466
0.00359223
0.00334309
0.00299851
0.00248571
0.00169699
0.000306864
0.000348822
0.00245594
0.00348759
0.00383352
0.00387325
0.00383987
0.00384397
0.00390709
0.00400853
0.00413337
0.00425939
0.00428813
0.00418816
0.00398222
0.00368986
0.00327458
0.00266606
0.0017754
0.000310073
0.000404592
0.00274059
0.00389923
0.00431845
0.00440427
0.00439139
0.00438911
0.0044244
0.00449598
0.00459581
0.00468892
0.00468499
0.00455795
0.00432179
0.00397856
0.00349178
0.00279462
0.00182721
0.000310691
0.000156964
0.00103932
0.00199427
0.00269272
0.00318913
0.0036038
0.00399944
0.00439758
0.00479424
0.00517337
0.00551619
0.00580631
0.00603061
0.00617842
0.0062403
0.00620661
0.00606507
0.00579809
0.00537933
0.0047763
0.00391525
0.00270112
0.00127002
0.00017714
0.00125113
0.00232809
0.00304954
0.00356629
0.00402618
0.00448313
0.00494197
0.00539187
0.00581638
0.00619775
0.00652034
0.00677146
0.00694099
0.00701997
0.0070003
0.00687275
0.00662526
0.00625172
0.00573812
0.00504881
0.00419163
0.00327889
0.000200677
0.00166256
0.00271924
0.00338579
0.00392963
0.00445317
0.00497233
0.00548482
0.00597824
0.00643685
0.00684478
0.00718819
0.00745581
0.00763962
0.00773204
0.0077278
0.00762485
0.00742199
0.00712505
0.00674497
0.00628104
0.00576114
0.00527884
0.00021317
0.00187417
0.00297235
0.00367695
0.00429256
0.00489133
0.00547485
0.0060352
0.00656265
0.00704448
0.00746768
0.00782127
0.0080959
0.00828699
0.00838859
0.00840054
0.00832913
0.00818717
0.00798656
0.00774432
0.0074747
0.00720542
0.0069942
0.000220493
0.00203508
0.00319198
0.00397746
0.00468062
0.00535164
0.00599067
0.00658703
0.00713659
0.00763037
0.00805848
0.00841247
0.00868457
0.00887451
0.00898341
0.00902005
0.0089939
0.00892114
0.00881515
0.00869118
0.00856398
0.00845304
0.00838711
0.000234757
0.00221226
0.00345339
0.00433108
0.00511158
0.0058366
0.00650884
0.00712614
0.00768429
0.0081775
0.00859769
0.00894161
0.00920679
0.00939989
0.00952645
0.00959648
0.00961999
0.0096113
0.00958305
0.00954694
0.00951314
0.00949198
0.00949454
0.000260411
0.00243405
0.00378399
0.00474167
0.00557317
0.00632631
0.00701126
0.00763133
0.00818218
0.00866186
0.00906775
0.00940243
0.00966874
0.00987305
0.0100222
0.0101256
0.0101931
0.0102362
0.0102654
0.0102885
0.0103107
0.0103356
0.0103654
0.000294742
0.00268029
0.00415693
0.0051753
0.00603159
0.00679018
0.00746953
0.00807554
0.00860867
0.00907181
0.00946799
0.00979996
0.0100718
0.0102898
0.0104608
0.0105933
0.0106959
0.0107775
0.010846
0.0109066
0.0109602
0.0110057
0.011043
0.000333332
0.00291096
0.0045196
0.00558529
0.00644852
0.00719603
0.00785644
0.00843981
0.00895509
0.00940631
0.00979656
0.010129
0.0104081
0.0106395
0.0108298
0.0109861
0.0111153
0.0112238
0.0113181
0.0114018
0.0114726
0.0115252
0.0115615
0.000361081
0.00309271
0.00482752
0.00593509
0.0067925
0.00751773
0.00815318
0.00871672
0.00921752
0.00966001
0.0100473
0.0103824
0.0106693
0.010913
0.0111196
0.0112952
0.0114444
0.0115714
0.0116822
0.0117816
0.0118636
0.0119166
0.0119493
0.000372683
0.00320975
0.00506348
0.00620545
0.00703721
0.00773721
0.0083515
0.00889991
0.00939087
0.00982848
0.0102157
0.0105555
0.0108508
0.0111061
0.0113266
0.0115186
0.0116837
0.011823
0.011942
0.0120466
0.012132
0.0121877
0.0122222
0.000366749
0.00325271
0.0052518
0.00636036
0.00715206
0.00783951
0.00844147
0.00898354
0.00947232
0.00991082
0.0103023
0.0106494
0.0109544
0.0112207
0.0114521
0.0116542
0.0118285
0.0119734
0.0120943
0.0121972
0.0122803
0.0123385
0.0123752
0.000393127
0.00311291
0.00510021
0.00625521
0.00711895
0.00782373
0.00842056
0.0089681
0.00946423
0.00991005
0.0103091
0.0106631
0.0109743
0.0112452
0.0114795
0.011682
0.011858
0.0120076
0.0121347
0.0122424
0.0123297
0.0123941
0.0124359
0.000350273
0.00269232
0.00475899
0.00598916
0.00693648
0.00766631
0.00828801
0.00885226
0.00935969
0.00981212
0.0102145
0.0105704
0.0108839
0.0111586
0.0113983
0.0116077
0.0117898
0.0119473
0.0120833
0.0121991
0.012294
0.0123677
0.0124198
0.000331696
0.00274287
0.00451239
0.0056919
0.00661315
0.00737193
0.00803698
0.00862739
0.00914847
0.00960938
0.010018
0.0103794
0.0106983
0.0109798
0.0112279
0.0114461
0.0116371
0.0118044
0.0119507
0.0120767
0.0121824
0.0122687
0.0123359
0.000347824
0.0026368
0.00424507
0.00534696
0.00623558
0.00699802
0.00767911
0.00828775
0.00882678
0.00930344
0.00972463
0.0100964
0.0104251
0.0107164
0.0109747
0.0112033
0.0114053
0.011584
0.0117423
0.0118809
0.0120004
0.0121023
0.0121877
0.000329952
0.00246152
0.00394984
0.00497428
0.00581707
0.00656268
0.00724104
0.0078569
0.00840952
0.00890167
0.00933816
0.00972432
0.0100663
0.0103703
0.0106413
0.0108827
0.0110978
0.0112902
0.0114624
0.0116161
0.011752
0.0118722
0.011978
0.000305179
0.0022554
0.00364733
0.00459855
0.00538493
0.00609492
0.00675343
0.00736238
0.00791835
0.00842024
0.00886977
0.00927056
0.00962767
0.00994671
0.0102325
0.010489
0.0107198
0.0109283
0.0111171
0.011288
0.0114427
0.0115834
0.0117119
0.000280431
0.00205714
0.00336333
0.00424517
0.0049688
0.00562905
0.00625166
0.00683821
0.00738427
0.00788599
0.00834218
0.00875415
0.00912513
0.00945938
0.00976119
0.0100344
0.0102827
0.0105093
0.0107169
0.0109075
0.0110832
0.0112464
0.0113993
0.000258658
0.00187194
0.00310811
0.00393509
0.00459934
0.00520178
0.00577478
0.00632439
0.00684713
0.00733678
0.00779022
0.0082066
0.00858703
0.00893414
0.00925111
0.0095412
0.00980767
0.0100535
0.0102814
0.0104933
0.0106916
0.0108785
0.0110563
0.0002408
0.00170607
0.00289313
0.00368244
0.00429767
0.00484532
0.00536513
0.00586818
0.00635415
0.00681898
0.00725857
0.00767033
0.00805339
0.00840849
0.00873736
0.00904227
0.00932571
0.00959018
0.00983796
0.0100711
0.0102917
0.0105019
0.0107039
0.000225102
0.00157243
0.00272735
0.00349632
0.00407631
0.00457784
0.00504806
0.00550376
0.00594855
0.00638077
0.00679722
0.00719494
0.00757201
0.00792777
0.00826256
0.00857751
0.00887417
0.00915434
0.0094198
0.00967232
0.00991371
0.0101459
0.0103706
0.00021129
0.00147119
0.00261256
0.00338134
0.00394409
0.00441304
0.00484272
0.00525605
0.00566089
0.00605836
0.00644688
0.00682408
0.00718788
0.0075369
0.00787058
0.00818908
0.00849313
0.0087838
0.00906236
0.00933017
0.00958865
0.00983925
0.0100832
0.000199529
0.00139857
0.00254525
0.00333625
0.00390371
0.00435794
0.00476032
0.00514044
0.00551085
0.00587576
0.00623555
0.00658896
0.00693435
0.00727031
0.00759592
0.00791084
0.00821526
0.00850974
0.00879508
0.00907224
0.00934221
0.00960596
0.00986414
0.000190013
0.00135001
0.00251751
0.00335207
0.00394822
0.00440899
0.00480073
0.00515976
0.00550399
0.00584124
0.00617416
0.00650301
0.00682702
0.00714523
0.00745691
0.00776169
0.00805956
0.00835086
0.0086361
0.0089159
0.00919084
0.00946139
0.00972759
0.000182743
0.00132105
0.00251874
0.00341248
0.00405927
0.00454897
0.00494902
0.00530144
0.00562973
0.00594593
0.0062556
0.00656092
0.00686244
0.00716009
0.00745371
0.00774328
0.00802895
0.00831104
0.00858995
0.00886604
0.00913955
0.00941045
0.00967821
0.000177467
0.00130755
0.0025384
0.00349796
0.00421058
0.00474869
0.00517605
0.00553769
0.00586198
0.00616545
0.00645713
0.00674169
0.00702151
0.00729781
0.00757134
0.0078427
0.00811243
0.008381
0.0086488
0.008916
0.00918254
0.00944795
0.00971114
0.000173762
0.00130567
0.00256809
0.00359125
0.00437536
0.0049746
0.00544495
0.00583101
0.00616415
0.00646483
0.00674569
0.00701435
0.00727543
0.00753181
0.00778547
0.00803783
0.00828995
0.00854258
0.00879614
0.00905069
0.00930587
0.00956083
0.009814
0.000171169
0.00131182
0.00260198
0.00368054
0.00453295
0.00519756
0.0057206
0.00614316
0.00649722
0.00680579
0.00708463
0.00734426
0.00759173
0.00783185
0.00806799
0.00830256
0.00853726
0.00877318
0.00901085
0.00925022
0.00949074
0.00973121
0.00996966
0.00016931
0.00132279
0.00263617
0.0037594
0.00467113
0.00539795
0.00597662
0.00644295
0.00682737
0.00715371
0.00743978
0.00769846
0.00793906
0.00816826
0.0083909
0.00861047
0.00882936
0.00904908
0.00927031
0.009493
0.00971642
0.00993914
0.0101589
0.00016792
0.00133593
0.00266793
0.00382502
0.00478457
0.00556568
0.00619731
0.0067096
0.00713004
0.00748175
0.0077833
0.00804906
0.00829003
0.00851449
0.00872863
0.00893695
0.00914258
0.00934746
0.00955251
0.00975774
0.00996234
0.0101648
0.0103625
0.000166844
0.00134934
0.00269544
0.00387654
0.00487217
0.00569748
0.00637573
0.00693199
0.00739024
0.00777187
0.00809504
0.00837464
0.00862265
0.00884843
0.00905923
0.00926041
0.00945576
0.00964767
0.00983733
0.0100249
0.0102095
0.0103897
0.010563
0.000166001
0.00136182
0.00271754
0.00391407
0.00493495
0.00579397
0.00651069
0.00710609
0.00760076
0.00801378
0.00836212
0.00866035
0.00892064
0.00915292
0.00936505
0.00956301
0.00975108
0.00993207
0.0101074
0.0102775
0.0104415
0.0105982
0.0107451
0.00016536
0.00137273
0.00273374
0.00393824
0.00497486
0.00585769
0.00660422
0.0072324
0.00775984
0.00820322
0.00857782
0.00889727
0.00917335
0.00941596
0.00963315
0.00983119
0.0100147
0.0101866
0.0103488
0.0105016
0.0106447
0.0107768
0.0108961
0.000164911
0.00138176
0.0027439
0.00394999
0.00499425
0.00589214
0.00666019
0.00731428
0.00786957
0.00834047
0.00874043
0.00908175
0.00937534
0.00963065
0.00985549
0.0100561
0.010237
0.0104015
0.0105512
0.010687
0.0108085
0.0109151
0.0110055
0.000164649
0.00138876
0.00274818
0.00395054
0.00499581
0.00590139
0.00668361
0.00735697
0.00793473
0.00842931
0.00885235
0.00921465
0.00952601
0.00979501
0.0100289
0.0102335
0.0104132
0.0105709
0.0107084
0.0108264
0.0109252
0.0110046
0.0110644
0.000164566
0.00139353
0.00274675
0.00394125
0.00498254
0.0058901
0.00668046
0.00736725
0.00796229
0.00847634
0.00891941
0.00930079
0.00962899
0.00991156
0.0101549
0.010364
0.0105427
0.0106936
0.0108179
0.0109164
0.0109897
0.0110387
0.0110648
0.00016464
0.00139582
0.00273988
0.00392373
0.00495785
0.00586352
0.0066576
0.00735315
0.00796095
0.00849043
0.00895019
0.00934814
0.00969151
0.00998663
0.0102388
0.0104521
0.0106294
0.0107722
0.0108813
0.010957
0.0110002
0.0110129
0.0109995
0.000164832
0.00139516
0.00272788
0.00389998
0.00492571
0.00582761
0.00662271
0.00732373
0.00794068
0.00848201
0.00895519
0.00936695
0.00972327
0.0100293
0.0102892
0.0105057
0.0106804
0.0108136
0.0109048
0.0109533
0.0109597
0.010927
0.010863
0.000165075
0.00139086
0.00271147
0.0038728
0.004891
0.00578909
0.00658414
0.00728862
0.00791206
0.00846223
0.00894575
0.00936838
0.00973511
0.01005
0.0103159
0.0105343
0.0107055
0.0108279
0.0108993
0.010917
0.0108798
0.0107894
0.0106552
0.00016527
0.00138254
0.00269292
0.00384668
0.00485989
0.00575549
0.00655055
0.00725741
0.00788533
0.00844166
0.00893248
0.00936288
0.00973709
0.0100583
0.0103283
0.0105477
0.0107151
0.0108274
0.0108802
0.0108681
0.0107852
0.0106261
0.0103894
0.00016531
0.00137449
0.00267888
0.00382915
0.00484027
0.00573499
0.00653037
0.0072387
0.00786915
0.00842888
0.00892369
0.00935832
0.00973658
0.0100611
0.0103334
0.010553
0.0107179
0.0108238
0.0108647
0.0108325
0.0107158
0.010494
0.0101201
0.000396539
0.000393845
0.000412221
0.000441064
0.00271544
0.00258841
0.00256192
0.00268802
0.00504838
0.00499824
0.00504121
0.0051961
0.00693484
0.00694365
0.0070009
0.00710622
0.00839685
0.00842318
0.00846857
0.00853039
0.00952405
0.00954852
0.009577
0.00960785
0.0103946
0.0104112
0.0104244
0.0104337
0.0110657
0.0110742
0.0110758
0.0110704
0.0115791
0.0115815
0.0115753
0.0115613
0.011971
0.01197
0.011955
0.0119343
0.0122385
0.012237
0.012223
0.0122036
0.0123891
0.0123893
0.0123815
0.0123679
0.0124546
0.0124607
0.012461
0.0124561
0.0124492
0.0124638
0.0124737
0.0124791
0.012379
0.0124034
0.0124238
0.0124405
0.012246
0.0122808
0.0123124
0.012341
0.0120522
0.0120979
0.012141
0.0121817
0.0118026
0.0118596
0.0119145
0.0119676
0.0115073
0.0115761
0.0116435
0.0117094
0.011182
0.0112637
0.0113445
0.0114244
0.0108475
0.0109429
0.0110377
0.011132
0.0105311
0.0106393
0.0107472
0.010855
0.0102582
0.0103774
0.0104966
0.0106157
0.01005
0.0101774
0.0103049
0.0104325
0.00991994
0.0100522
0.0101845
0.0103169
0.0098723
0.0100057
0.010139
0.0102723
0.00990228
0.0100331
0.0101638
0.010294
0.00999785
0.0101229
0.0102473
0.0103708
0.0101423
0.0102585
0.0103736
0.0104873
0.0103168
0.0104218
0.0105251
0.0106263
0.010503
0.0105948
0.0106842
0.010771
0.0106836
0.0107608
0.0108351
0.0109062
0.0108442
0.010906
0.0109644
0.011019
0.0109727
0.0110187
0.0110608
0.0110989
0.0110589
0.0110891
0.0111151
0.0111369
0.011094
0.0111083
0.0111185
0.0111245
0.0110692
0.0110673
0.0110618
0.0110528
0.0109755
0.0109561
0.0109344
0.0109109
0.0108033
0.0107634
0.0107243
0.0106865
0.0105433
0.010476
0.0104168
0.0103655
0.010179
0.0100713
0.00999085
0.00993121
0.00963622
0.00948623
0.00940777
0.00936402
0.00154938
0.0035361
0.00462726
0.00509346
0.00523095
0.00524072
0.00522419
0.00521747
0.00523473
0.00526771
0.00527865
0.00520674
0.00502412
0.00472743
0.0043025
0.0037172
0.00291085
0.00186569
0.000305074
0.00357564
0.00489647
0.00570751
0.00609765
0.00623441
0.00625237
0.00622743
0.00619108
0.00615475
0.00609996
0.00600007
0.00582177
0.00554174
0.00514422
0.00460672
0.00389141
0.00294845
0.00179979
0.000290707
0.00562858
0.00636033
0.00686526
0.00712698
0.00721655
0.00720906
0.00715526
0.00707697
0.00697631
0.00683207
0.0066275
0.00634431
0.00596555
0.00547063
0.00482852
0.00399585
0.00293081
0.00168108
0.000282847
0.00732144
0.00769147
0.00796271
0.00810102
0.00812981
0.00808414
0.00799057
0.00786246
0.00769069
0.00746041
0.00715982
0.00677945
0.00630701
0.00571981
0.00497974
0.00404019
0.0028762
0.00154837
0.000275795
0.008637
0.00880533
0.0089218
0.00896272
0.00893324
0.00884681
0.00871337
0.00853575
0.00829712
0.00799047
0.00760474
0.007136
0.00657338
0.00589073
0.00504999
0.00399704
0.00273082
0.00136656
0.000266334
0.00965135
0.00970511
0.00972388
0.00969504
0.00961765
0.00949407
0.00932455
0.00909618
0.00880213
0.00843361
0.0079741
0.00742309
0.0067695
0.00598133
0.0050268
0.00386311
0.00246259
0.00112469
0.000249243
0.0104374
0.0104238
0.0103828
0.0103084
0.010197
0.0100447
0.00983713
0.00956569
0.00922608
0.00880695
0.00827969
0.00764688
0.00689974
0.00599986
0.0048965
0.00357315
0.00215955
0.000933385
0.000258214
0.011049
0.010997
0.0109225
0.010823
0.0106927
0.0105161
0.0102791
0.00997078
0.00959273
0.00913318
0.00853152
0.00779997
0.00691548
0.00585802
0.00464736
0.00338111
0.0021542
0.00103156
0.00029162
0.0115256
0.0114541
0.0113649
0.0112572
0.0111181
0.010931
0.0106713
0.0103176
0.00987961
0.00934107
0.00864548
0.00783706
0.00690206
0.00586193
0.00477793
0.00368645
0.00261218
0.00149773
0.000318255
0.0118917
0.0118117
0.0117128
0.011591
0.0114346
0.0112241
0.0109309
0.0105402
0.0100657
0.00949189
0.00878391
0.00796542
0.00705836
0.00610942
0.00515074
0.00417792
0.00316468
0.00194316
0.000334553
0.0121604
0.0120782
0.0119739
0.011841
0.01167
0.0114448
0.0111441
0.0107531
0.0102772
0.00970833
0.00903004
0.00824969
0.00739465
0.00650646
0.00560214
0.004655
0.00358718
0.00217472
0.000341817
0.0123338
0.0122622
0.0121661
0.0120381
0.0118707
0.0116517
0.0113667
0.0110042
0.0105602
0.0100261
0.0093925
0.00866449
0.00786069
0.0070017
0.00608846
0.00508404
0.00389448
0.00231215
0.000345361
0.0124353
0.0123825
0.0123047
0.0121956
0.0120492
0.011856
0.0116052
0.0112857
0.0108882
0.0104033
0.00982438
0.00915146
0.00838839
0.00753722
0.00658635
0.00549135
0.00415272
0.0023959
0.000350093
0.012475
0.0124472
0.0123958
0.0123157
0.0122014
0.0120451
0.0118372
0.0115664
0.0112213
0.0107912
0.0102678
0.00964466
0.00891408
0.00806456
0.00707211
0.00588426
0.00440158
0.00247879
0.000355594
0.0124557
0.0124572
0.0124379
0.0123929
0.0123167
0.012202
0.0120396
0.0118181
0.0115252
0.0111487
0.0106772
0.0100983
0.00939606
0.00854864
0.00752147
0.00625424
0.00464791
0.00257831
0.000361344
0.0123773
0.0124112
0.0124273
0.0124201
0.0123842
0.0123122
0.0121949
0.012021
0.0117774
0.0114508
0.0110265
0.0104874
0.00981147
0.00896897
0.00791653
0.00658666
0.00487841
0.0026801
0.00036695
0.0122406
0.0123091
0.0123618
0.0123932
0.0123977
0.0123678
0.012294
0.012165
0.0119673
0.0116863
0.0113048
0.0108021
0.0101513
0.00931636
0.00824706
0.00686951
0.00507686
0.00276517
0.000372461
0.0120507
0.0121547
0.012244
0.0123135
0.0123574
0.012368
0.0123356
0.0122487
0.0120934
0.0118539
0.0115112
0.0110417
0.0104148
0.00958888
0.00850898
0.0070967
0.00524453
0.00284617
0.000376981
0.0118181
0.0119574
0.0120824
0.0121885
0.0122699
0.0123187
0.0123251
0.012277
0.0121603
0.0119581
0.0116501
0.0112105
0.0106063
0.00979325
0.00871181
0.00727916
0.00538403
0.00291577
0.0003801
0.0115587
0.0117308
0.0118895
0.0120303
0.0121469
0.0122312
0.0122731
0.0122603
0.0121781
0.0120091
0.0117317
0.011319
0.0107363
0.00993726
0.0088594
0.0074165
0.00549267
0.00297166
0.000381722
0.0112911
0.0114939
0.0116839
0.0118564
0.0120048
0.0121208
0.012194
0.0122117
0.012159
0.012018
0.0117664
0.0113765
0.0108125
0.0100271
0.00895595
0.00751032
0.0055701
0.00301285
0.000381829
0.0110368
0.0112671
0.0114847
0.0116847
0.0118602
0.0120026
0.0121013
0.0121436
0.0121141
0.0119947
0.0117628
0.0113905
0.0108415
0.0100681
0.00900527
0.00756267
0.00561676
0.00303895
0.000380437
0.0108167
0.0110697
0.0113096
0.0115311
0.0117274
0.0118894
0.0120065
0.0120659
0.0120521
0.0119468
0.0117277
0.0113668
0.0108283
0.0100645
0.00901051
0.00757548
0.00563331
0.00304981
0.000377583
0.0106474
0.0109166
0.0111718
0.0114077
0.0116169
0.0117904
0.0119175
0.0119854
0.0119788
0.0118795
0.0116655
0.0113095
0.0107763
0.0100193
0.00897424
0.0075505
0.00562059
0.00304552
0.0003733
0.0105394
0.0108169
0.0110794
0.011321
0.0115343
0.0117103
0.0118382
0.0119053
0.0118969
0.0117951
0.0115787
0.011221
0.0106882
0.00993502
0.00889863
0.0074894
0.00557956
0.0030263
0.000367637
0.0104956
0.0107729
0.0110336
0.0112719
0.0114799
0.0116489
0.0117682
0.0118255
0.0118064
0.011694
0.0114678
0.0111025
0.0105657
0.00981369
0.00878576
0.00739402
0.00551145
0.00299263
0.00036064
0.0105112
0.0107797
0.0110299
0.0112557
0.0114494
0.0116022
0.011704
0.0117429
0.0117053
0.0115751
0.0113329
0.0109549
0.0104102
0.00965743
0.00863802
0.00726654
0.00541786
0.00294516
0.00035238
0.0105757
0.0108272
0.0110587
0.0112636
0.0114347
0.0115633
0.0116398
0.0116531
0.0115903
0.0114364
0.0111733
0.0107788
0.0102238
0.00946893
0.00845843
0.00710985
0.00530097
0.00288494
0.000342935
0.0106745
0.0109021
0.0111075
0.0112845
0.011426
0.0115238
0.0115688
0.0115509
0.011458
0.0112764
0.0109894
0.010576
0.0100092
0.00925196
0.00825112
0.0069278
0.00516373
0.00281339
0.000332426
0.0107914
0.0109893
0.011163
0.0113066
0.0114131
0.0114753
0.0114847
0.011432
0.0113063
0.0110949
0.0107825
0.0103497
0.00977117
0.00901191
0.00802174
0.00672561
0.0050101
0.00273247
0.00032101
0.0109109
0.0110747
0.0112126
0.0113188
0.0113872
0.0114109
0.0113826
0.0112937
0.0111345
0.0108935
0.0105564
0.0101053
0.00951627
0.00875635
0.007778
0.00651026
0.00484536
0.00264482
0.000308929
0.0110188
0.0111457
0.0112453
0.0113123
0.0113411
0.0113259
0.01126
0.0111358
0.0109448
0.0106762
0.0103172
0.00985067
0.00925392
0.00849543
0.00753007
0.00629086
0.00467635
0.00255393
0.00029652
0.0111033
0.0111921
0.0112527
0.0112805
0.0112706
0.011218
0.0111168
0.0109606
0.0107416
0.0104501
0.0100739
0.00959667
0.00899636
0.00824226
0.00729092
0.006079
0.00451174
0.00246413
0.000284281
0.011155
0.0112059
0.0112286
0.0112191
0.0111733
0.0110871
0.0109554
0.0107726
0.0105319
0.0102242
0.00983779
0.00935666
0.0087586
0.0080128
0.0070764
0.00588877
0.00436195
0.00238068
0.000272891
0.0111656
0.0111805
0.0111681
0.0111253
0.0110487
0.0109348
0.0107795
0.0105779
0.0103239
0.010009
0.00962174
0.0091456
0.00855751
0.00782525
0.00690482
0.00573661
0.00423901
0.00230939
0.000263243
0.0111275
0.0111095
0.0110667
0.0109965
0.0108962
0.0107627
0.0105929
0.0103824
0.0101258
0.00981485
0.00943805
0.00897814
0.00841012
0.00769868
0.00679612
0.00564093
0.00415641
0.00225652
0.000256387
0.0110319
0.0109857
0.010919
0.0108294
0.0107144
0.0105714
0.0103978
0.01019
0.00994289
0.00964881
0.0092959
0.00886583
0.00833092
0.00765095
0.00677102
0.00562259
0.00413009
0.00222915
0.000253486
0.0108685
0.0108003
0.0107182
0.0106189
0.0104999
0.0103588
0.0101934
0.0100007
0.00977624
0.00951272
0.00919833
0.00881385
0.00832877
0.00769658
0.0068509
0.00570769
0.00418279
0.0022374
0.000255818
0.0106254
0.0105435
0.0104564
0.0103588
0.0102474
0.0101202
0.00997515
0.00980997
0.00962082
0.00940125
0.00914013
0.00881842
0.00840412
0.00784483
0.00705918
0.00593464
0.00435507
0.00230033
0.000265239
0.0102908
0.010207
0.0101272
0.0100434
0.00995153
0.0098496
0.00973615
0.00960941
0.00946653
0.00930237
0.00910766
0.00886573
0.00854666
0.00809681
0.00742162
0.00636589
0.00473077
0.00246269
0.000285965
0.00985598
0.00978713
0.00972875
0.00967075
0.0096092
0.00954251
0.00946975
0.00938989
0.0093012
0.00920043
0.00908152
0.00893304
0.00873309
0.00843814
0.00795774
0.00710042
0.00550394
0.00285817
0.000333079
0.00932072
0.0092903
0.00926742
0.0092457
0.00922317
0.00919918
0.00917344
0.00914564
0.00911524
0.0090812
0.0090415
0.00899221
0.00892547
0.00882402
0.00864441
0.00825509
0.00719164
0.00411911
0.000467553
)
;

boundaryField
{
    leftWall
    {
        type            nutkWallFunction;
        Cmu             0.09;
        kappa           0.41;
        E               9.8;
        value           nonuniform List<scalar> 
50
(
3.26154e-06
9.58675e-06
1.12055e-05
1.23082e-05
1.30561e-05
1.35676e-05
1.39356e-05
1.4282e-05
1.49423e-05
1.85901e-05
2.21087e-05
2.31442e-05
2.35157e-05
2.45706e-05
2.68411e-05
3.03037e-05
3.42062e-05
3.72234e-05
3.88279e-05
3.93972e-05
4.25863e-05
3.81936e-05
3.7541e-05
3.81814e-05
3.55102e-05
3.24118e-05
2.9457e-05
2.68885e-05
2.46369e-05
2.26081e-05
2.08192e-05
1.9312e-05
1.81116e-05
1.72078e-05
1.65564e-05
1.60963e-05
1.5768e-05
1.55255e-05
1.53389e-05
1.51914e-05
1.50755e-05
1.49886e-05
1.49304e-05
1.49011e-05
1.48999e-05
1.4924e-05
1.49676e-05
1.50211e-05
1.50694e-05
1.50944e-05
)
;
    }
    rightWall
    {
        type            nutkWallFunction;
        Cmu             0.09;
        kappa           0.41;
        E               9.8;
        value           nonuniform List<scalar> 
50
(
6.63504e-06
1.98681e-05
2.3335e-05
2.61348e-05
2.80703e-05
3.01223e-05
3.13401e-05
3.19434e-05
3.21707e-05
3.14086e-05
3.10387e-05
3.12877e-05
3.06196e-05
2.89139e-05
2.87053e-05
3.18804e-05
3.59176e-05
3.86096e-05
3.99308e-05
4.04593e-05
4.1117e-05
4.19418e-05
4.27844e-05
4.36e-05
4.43879e-05
4.5029e-05
4.54692e-05
4.56951e-05
4.57094e-05
4.55172e-05
4.51232e-05
4.45318e-05
4.37497e-05
4.27822e-05
4.16381e-05
4.03267e-05
3.88628e-05
3.72664e-05
3.55688e-05
3.38152e-05
3.20742e-05
3.0442e-05
2.9048e-05
2.80475e-05
2.7612e-05
2.79261e-05
2.92424e-05
3.21104e-05
3.83822e-05
5.57289e-05
)
;
    }
    lowerWall
    {
        type            nutkWallFunction;
        Cmu             0.09;
        kappa           0.41;
        E               9.8;
        value           nonuniform List<scalar> 
62
(
3.26154e-06
4.55623e-06
5.46029e-06
6.22892e-06
6.93871e-06
7.617e-06
8.27882e-06
8.94308e-06
9.60434e-06
1.02343e-05
1.08039e-05
1.12913e-05
1.16843e-05
1.19794e-05
1.21713e-05
1.2252e-05
1.22146e-05
1.2042e-05
1.1697e-05
1.1102e-05
1.01153e-05
8.44161e-06
5.11232e-06
5.11232e-06
1.50053e-05
1.76629e-05
1.99573e-05
2.22819e-05
2.64991e-05
3.38331e-05
3.75555e-05
4.3981e-05
4.39036e-05
4.58298e-05
4.89563e-05
9.93776e-06
2.68688e-05
2.84719e-05
2.94455e-05
3.10887e-05
3.41141e-05
3.87639e-05
4.58029e-05
9.93776e-06
1.25366e-05
1.32276e-05
1.25538e-05
1.21292e-05
1.22188e-05
1.23509e-05
1.19413e-05
1.19631e-05
1.19053e-05
1.18774e-05
1.17256e-05
1.09635e-05
9.63702e-06
9.37965e-06
9.83661e-06
1.01062e-05
9.73698e-06
6.63504e-06
)
;
    }
    atmosphere
    {
        type            calculated;
        value           nonuniform List<scalar> 
46
(
0.00016531
0.00137449
0.00267888
0.00382915
0.00484027
0.00573499
0.00653037
0.0072387
0.00786915
0.00842888
0.00892369
0.00935832
0.00973658
0.0100611
0.0103334
0.010553
0.0107179
0.0108238
0.0108647
0.0108325
0.0107158
0.010494
0.0101201
0.009
0.009
0.009
0.009
0.009
0.009
0.009
0.009
0.009
0.009
0.009
0.009
0.009
0.009
0.009
0.009
0.009
0.009
0.009
0.009
0.009
0.009
0.009
)
;
    }
    defaultFaces
    {
        type            empty;
    }
}


// ************************************************************************* //
