/*--------------------------------*- C++ -*----------------------------------*\
  =========                 |
  \\      /  F ield         | OpenFOAM: The Open Source CFD Toolbox
   \\    /   O peration     | Website:  https://openfoam.org
    \\  /    A nd           | Version:  13
     \\/     M anipulation  |
\*---------------------------------------------------------------------------*/
FoamFile
{
    format      ascii;
    class       volScalarField;
    location    "1.1";
    object      p_rgh;
}
// * * * * * * * * * * * * * * * * * * * * * * * * * * * * * * * * * * * * * //

dimensions      [1 -1 -2 0 0 0 0];

internalField   nonuniform List<scalar> 
2268
(
8118.87
8054.24
7920.3
7716.2
7464.29
7182.87
6888.46
6598.88
6326.51
6080.58
5866.53
5685.21
5534.91
5410.4
5306.98
5220.55
5146.58
5081
5020.55
4964.53
4914.53
4878.77
4868.13
8125.68
8069.17
7940.26
7733.11
7478.31
7194.76
6899.57
6608.96
6334.8
6086.26
5869.2
5684.62
5529.89
5402.58
5297.5
5209.35
5133.5
5065.85
5003.57
4947.32
4900.5
4872.69
4868.87
8148.32
8089.95
7965.35
7756.06
7498.68
7212.43
6914.85
6621.56
6344.18
6091.86
5870.97
5682.83
5525.21
5395.07
5287.66
5197.75
5120.51
5051.82
4989.06
4934.33
4892.41
4873.72
4867.88
8189.56
8130.36
8004.38
7790.01
7525.99
7233.24
6929.5
6631.01
6348.4
6091.13
5866.43
5675.3
5515.53
5383.99
5275.71
5185.55
5108.59
5040.59
4978.44
4925.1
4886.18
4874.22
4863.24
8249.62
8191.9
8060.29
7836.39
7560.53
7257.58
6942.69
6633.63
6340.45
6073.54
5843.73
5650.85
5492.01
5342.67
5214.12
5103.17
5005
4913.11
4819.18
4722.03
4648.89
4644.38
4704.07
8326.55
8273.78
8132.69
7894.46
7602.12
7283.6
6945.26
6607.54
6229.46
5588.56
4918.91
4276.85
3698.24
3285.24
2985.93
2764.1
2588
2433.07
2273.83
2110.01
2044.01
2145.57
2222.91
8417.07
8373.44
8220.35
7962.64
7644.26
7289.93
6540.91
4991.94
3280.64
2265.41
1697.82
1437.56
1362.87
1313.76
1271.2
1230.45
1191.95
1156.82
1129.06
1109.6
1060.37
971.855
920.095
8528.59
8496.56
8327.82
8032.17
7435.11
5463.1
2834.72
1697.34
1512.01
1470.82
1431.19
1391.76
1351.37
1310.78
1270.49
1231.04
1193.25
1158.26
1130.62
1145.35
1139.08
1031.47
924.108
1137.96
1166.05
1251.4
1424.19
1627.89
1738.42
1847.17
2334.05
3107.92
3426.74
3575.47
3628.9
3503.09
3266.74
3092.33
2955.17
2874.37
2991.38
3067.35
1128.51
1228.73
1332.18
1505.79
1742.9
1848.34
1825.24
2357.67
3205.55
3594.74
3736.62
3688.99
3450.57
3171.94
3069.2
2908.78
2725.53
2890.92
3049.56
1107.33
1230.72
1261.95
1351.57
1790.09
2079.17
2103.22
2535.4
3315.61
3542.54
3841.15
3993.05
3688.56
2576.8
2475.67
2296.72
2171.64
2807.18
2941.36
1079.92
1088.6
1064.03
1072.76
1168.8
2190.51
2990.51
3002.93
3008.67
3210.83
3793.98
3974.47
3349.47
2341.54
2197.84
2067.85
2013.01
2276.26
2787.8
1053.85
1050.79
1040.62
1053.15
1052.35
1206.1
2066.7
2076.61
1482.18
1484.04
2650.62
3639.38
3463.27
3021.26
2441.79
2111.59
2450.17
1742.33
2221.94
1073.87
924.807
1014.74
1037.35
1035.85
1001.85
954.781
929.789
929.994
953.538
1828.86
2678.61
2553.68
3034.13
3190.32
3213.14
2196.38
1291.91
1318.85
911.263
844.791
894.621
1021.71
1022.3
996.533
960.764
935.882
934.689
963.164
1574.12
1869.04
1946.54
1864.96
1857.69
1636.75
1259.76
904.437
933.274
757.582
734.824
774.696
958.621
1010.7
995.669
968.14
947.816
943.374
986.308
1116.52
842.49
615.152
670.826
770.492
875.009
771.308
695.626
774.818
7918.29
7847.08
6957.27
5057.38
2777.78
1670.26
1543.14
1517.63
1489.97
1458.56
1424.14
1387.63
1349.39
1310.42
1271.33
1232.93
1195.61
1159
1120.45
1188.67
1052.74
921.942
762.678
2228.96
2297.65
1647.36
1516.62
1529.52
1534.71
1525.87
1508.57
1483.98
1453.87
1420.19
1384.34
1347.06
1309.52
1270.98
1232.39
1176.08
984.668
788.072
751.893
799.998
792.544
788.641
1522.74
1513.95
1520.15
1526.2
1532.03
1532.35
1522.97
1504.8
1479.49
1449.07
1415.53
1380.27
1342.42
1307.33
1199.41
967.19
778.843
803.268
818.666
807.451
801.072
792.363
785.572
1558.24
1547.3
1546.35
1547.88
1547.24
1540.4
1526.01
1504.42
1476.89
1445.14
1409.84
1378.01
1157.67
953.213
769.757
832.187
817.226
828.891
825.677
812.876
800.276
789.576
780.077
1597.05
1586.32
1579.95
1574.77
1566.94
1553.72
1533.94
1508.13
1477.05
1432.22
1141.34
966.319
755.28
800.214
827.692
855.398
845.075
833.246
821.248
808.741
796.221
784.302
773.265
1637.04
1625.88
1615.07
1604.46
1590.85
1571.88
1547.14
1509.13
1227.77
1013.17
774.6
776.409
851.358
873.842
863.296
851.527
840.231
827.994
815.381
802.789
790.101
777.431
765.35
1678.69
1665.27
1650.99
1636.68
1618.98
1596.28
1479.24
1155.94
886.632
737.018
863.687
886.249
880.909
870.42
859.44
847.506
835.252
822.175
808.828
795.998
783.426
769.608
754.576
1722.19
1704
1687.53
1671.56
1653.04
1563.65
1091.22
741.918
836.658
896.368
896.568
888.16
878.852
868.226
856.625
844.097
830.76
815.62
799.099
784.078
772.086
695.034
462.935
1769.71
1746
1726.95
1711.88
1639.54
1107.43
847.547
905.804
911.811
905.085
897.399
888.792
878.961
867.591
854.493
839.76
812.726
685.874
482.454
306.86
226.682
154.984
33.674
1815.66
1785.38
1728.47
1537.95
1055.4
925.262
929.784
924.081
916.784
908.41
899.823
890.47
854.148
758.823
608.213
405.005
217.644
102.083
24.3132
5.87071
5.78946
5.54555
5.4861
1688.71
1011.85
600.385
434.013
730.55
947.896
943.862
936.353
835.573
677.509
530.578
371.348
219.022
119.627
44.0183
7.06421
5.85795
5.82053
5.76767
5.67302
5.56819
5.46918
5.40291
347.983
23.2957
6.67795
14.6705
216.548
396.854
429.114
307.815
136.726
49.8988
16.721
5.8299
5.84197
5.88466
5.91547
5.86408
5.79349
5.74026
5.69739
5.64467
5.56863
5.50062
5.43019
5.96503
5.82074
5.88083
6.01181
5.90013
6.02845
5.78171
5.62654
5.71834
5.83238
5.88045
5.86776
5.84144
5.8373
5.83866
5.82758
5.79199
5.74711
5.70177
5.64541
5.57707
5.50893
5.43875
5.89965
5.83959
5.86975
5.84866
5.81535
5.82597
5.80444
5.80827
5.83117
5.85726
5.87019
5.86849
5.85943
5.86847
5.87614
5.84585
5.80724
5.76236
5.70695
5.64575
5.57597
5.5071
5.43109
5.91863
5.87627
5.90511
5.905
5.88043
5.87296
5.86264
5.85989
5.86569
5.87524
5.88388
5.88498
5.88246
5.87969
6.01827
6.01003
5.92095
5.77064
5.716
5.65214
5.58256
5.51466
5.43562
5.93507
5.92417
5.93515
5.93236
5.92424
5.91569
5.90114
5.89429
5.89646
5.90112
5.90387
5.903
5.89629
5.88356
5.90041
6.04831
6.03619
5.99614
5.87975
5.64967
5.5843
5.52002
5.44859
5.98066
5.96379
5.95725
5.95001
5.94339
5.93646
5.9265
5.92052
5.91952
5.91985
5.91822
5.91272
5.90242
5.88739
5.86578
5.85121
5.89054
5.91573
5.90524
5.79516
5.61175
5.52228
5.45324
5.98687
5.97456
5.96786
5.96088
5.95477
5.94937
5.94312
5.93834
5.93537
5.93231
5.92747
5.91951
5.90723
5.8903
5.86824
5.8396
5.80345
5.7607
5.7202
5.686
5.62139
5.53576
5.46913
5.98294
5.97771
5.97489
5.97012
5.96504
5.96042
5.95559
5.95109
5.94693
5.94199
5.93523
5.92568
5.91234
5.89458
5.87197
5.84382
5.8093
5.76796
5.71952
5.66606
5.60862
5.55315
5.49018
5.98255
5.98148
5.98097
5.97815
5.97428
5.9702
5.96579
5.9612
5.95628
5.95023
5.94229
5.93172
5.91778
5.89983
5.87735
5.84981
5.81655
5.77708
5.73143
5.68063
5.62648
5.57291
5.51372
5.98392
5.98509
5.98602
5.98465
5.9819
5.97847
5.97441
5.96975
5.9643
5.95752
5.94885
5.9377
5.92346
5.90559
5.8836
5.85696
5.82509
5.78749
5.74413
5.69603
5.64475
5.5939
5.53806
5.98491
5.98755
5.98963
5.98947
5.98772
5.98495
5.98127
5.97668
5.97099
5.96384
5.95478
5.94335
5.92905
5.91143
5.89003
5.86439
5.83397
5.79827
5.75725
5.71179
5.66335
5.61521
5.56259
5.98507
5.98866
5.99161
5.99246
5.99159
5.98947
5.98622
5.98182
5.97612
5.96884
5.95966
5.94818
5.93402
5.91679
5.8961
5.87152
5.84256
5.80876
5.77006
5.72725
5.68164
5.63625
5.58666
5.98408
5.98822
5.9918
5.99345
5.99332
5.9918
5.98899
5.98488
5.97932
5.97212
5.963
5.95167
5.93782
5.92112
5.90124
5.87778
5.85031
5.81841
5.78202
5.74184
5.69907
5.65647
5.61004
5.98157
5.98597
5.98999
5.99226
5.99276
5.99176
5.98939
5.9856
5.98029
5.97329
5.9644
5.95338
5.93997
5.92392
5.90493
5.88267
5.85674
5.82675
5.79266
5.7551
5.71517
5.67541
5.63209
5.97727
5.98174
5.98604
5.98879
5.9898
5.98927
5.98728
5.98383
5.97883
5.97213
5.96357
5.95297
5.94013
5.92483
5.90683
5.88583
5.86148
5.83343
5.80163
5.76667
5.72957
5.69264
5.6525
5.97107
5.97547
5.97991
5.98301
5.98442
5.98429
5.98267
5.97956
5.97489
5.96854
5.9604
5.95032
5.93813
5.92367
5.90673
5.88705
5.86431
5.83821
5.8087
5.77633
5.74203
5.70798
5.67098
5.96298
5.9672
5.97164
5.97494
5.97667
5.97687
5.97559
5.97282
5.96851
5.96257
5.9549
5.9454
5.93394
5.92039
5.90457
5.88625
5.86516
5.84101
5.81377
5.78397
5.75246
5.72128
5.68749
5.95308
5.95702
5.96135
5.96472
5.96665
5.96712
5.96615
5.96372
5.95978
5.95428
5.94714
5.93828
5.92761
5.91501
5.90035
5.88343
5.864
5.84181
5.81683
5.78956
5.7608
5.73247
5.7018
5.94148
5.9451
5.94919
5.9525
5.95452
5.95519
5.95449
5.95238
5.94883
5.9438
5.93723
5.92905
5.91921
5.90762
5.89415
5.87865
5.8609
5.84065
5.81792
5.79314
5.7671
5.74154
5.71393
5.92837
5.93161
5.93538
5.93851
5.94051
5.94128
5.94079
5.93898
5.93582
5.93127
5.92529
5.91784
5.90887
5.89831
5.88607
5.87201
5.85594
5.83764
5.81713
5.79484
5.77146
5.74864
5.72397
5.9139
5.91676
5.92014
5.92299
5.92487
5.92566
5.9253
5.92375
5.92096
5.9169
5.91152
5.90481
5.89673
5.88724
5.87625
5.86364
5.84926
5.83291
5.81461
5.79477
5.77404
5.75389
5.73214
5.89829
5.90075
5.90369
5.90619
5.90786
5.90859
5.90831
5.90697
5.90451
5.90092
5.89615
5.8902
5.88302
5.8746
5.86487
5.85373
5.84104
5.82663
5.81053
5.79312
5.77496
5.75741
5.73845
5.8817
5.88378
5.88627
5.88838
5.88978
5.89038
5.89012
5.88893
5.88678
5.88363
5.87946
5.87425
5.86799
5.86065
5.85218
5.8425
5.83148
5.81899
5.80505
5.79001
5.77437
5.75931
5.74301
5.86435
5.86606
5.86809
5.8698
5.87091
5.87134
5.87104
5.86997
5.86809
5.86536
5.86177
5.85729
5.85193
5.84565
5.83843
5.83018
5.82082
5.81021
5.79839
5.78565
5.77243
5.75975
5.74598
5.84641
5.84779
5.8494
5.8507
5.8515
5.85174
5.85139
5.85042
5.84877
5.84644
5.8434
5.83964
5.83515
5.82991
5.8239
5.81706
5.8093
5.80052
5.79074
5.78022
5.76934
5.75893
5.74756
5.82808
5.82916
5.83036
5.83129
5.8318
5.83185
5.83145
5.83055
5.82913
5.82717
5.82466
5.82158
5.81794
5.81371
5.80887
5.80338
5.79716
5.79014
5.78232
5.77394
5.76528
5.75701
5.74789
5.80951
5.81033
5.81117
5.81176
5.81199
5.81188
5.81142
5.8106
5.8094
5.8078
5.8058
5.80338
5.80055
5.79728
5.79357
5.78937
5.78463
5.77928
5.77334
5.76698
5.76045
5.7542
5.74722
5.79088
5.79146
5.79198
5.79225
5.79223
5.79197
5.79147
5.79074
5.78975
5.7885
5.78699
5.7852
5.78314
5.78079
5.77815
5.77518
5.77184
5.76808
5.76394
5.75954
5.75503
5.75078
5.74594
5.77237
5.7727
5.77288
5.77281
5.77253
5.77211
5.77156
5.7709
5.77011
5.7692
5.76815
5.76697
5.76565
5.76418
5.76256
5.76078
5.7588
5.7566
5.75421
5.75174
5.74931
5.7472
5.74494
5.7542
5.75417
5.75387
5.75335
5.75275
5.75213
5.75151
5.75091
5.75031
5.74972
5.74914
5.74855
5.74797
5.74739
5.74681
5.74623
5.74564
5.74505
5.74451
5.74411
5.74397
5.74447
5.74662
5.73681
5.73666
5.73628
5.73578
5.73528
5.73482
5.73441
5.73406
5.73378
5.73357
5.73342
5.73334
5.73334
5.7334
5.73355
5.73378
5.7341
5.73455
5.73518
5.73608
5.73751
5.74053
5.74586
780.928
773.044
763.82
740.238
782.259
777.136
773.525
773.726
778.533
773.925
770.511
769.266
772.782
768.037
763.83
760.737
765.706
760.714
755.914
751.781
757.78
752.412
746.911
742.102
751.953
748.802
741.381
733.519
510.318
651.152
600.731
480.493
23.8707
49.9078
41.8664
23.1192
5.39344
5.33257
5.19166
4.99081
5.26442
5.12678
4.96325
4.83283
5.2992
5.14466
4.96643
4.82151
5.29319
5.13434
4.95551
4.81559
5.28178
5.12172
4.94437
4.80977
5.28401
5.12735
4.95348
4.8219
5.30911
5.15817
4.98503
4.85126
5.32256
5.18206
5.01645
4.88639
5.3449
5.2084
5.05267
4.93093
5.37338
5.24535
5.09787
4.98145
5.40455
5.2845
5.145
5.033
5.43632
5.32417
5.19259
5.08591
5.46774
5.36319
5.24002
5.13902
5.49846
5.40123
5.28601
5.19097
5.52812
5.43784
5.33055
5.24128
5.55622
5.47245
5.37244
5.28895
5.58219
5.50448
5.41164
5.33378
5.60603
5.53403
5.44779
5.3755
5.62769
5.56116
5.48143
5.41447
5.64703
5.58579
5.51221
5.45058
5.66396
5.60785
5.54053
5.48417
5.67876
5.62776
5.56648
5.51538
5.69165
5.64574
5.59059
5.5446
5.70264
5.66182
5.61264
5.57172
5.71173
5.67592
5.63279
5.59685
5.71912
5.68825
5.65096
5.61991
5.72498
5.69892
5.66741
5.64105
5.72939
5.70797
5.68195
5.66013
5.73252
5.71547
5.69477
5.67727
5.73475
5.72177
5.70597
5.69252
5.73672
5.72724
5.71591
5.70614
5.74028
5.73261
5.72456
5.71798
5.74667
5.74016
5.73392
5.72941
747.049
794.778
787.916
773.745
877.245
986.368
981.798
966.152
957.075
968.939
967.715
790.443
784.515
836.296
881.285
778.585
743.344
637.43
582.006
782.083
778.28
769.341
753.04
726.776
755.461
927.489
991.826
979.544
964.715
947.637
935.681
880.321
795.155
666.575
600.422
574.317
563.074
511.101
768.655
762.366
753.015
738.371
717.858
691.58
676.869
771.375
909.74
942.405
895.833
771.862
641.265
572.65
570.762
569.573
568.44
545.116
491.507
756.516
748.989
739.548
726.407
709.038
687.437
663.258
638.512
624.463
619.321
595.336
576.953
573.502
570.726
568.425
567.174
569.686
564.92
451.06
745.653
737.29
727.956
716.22
701.438
683.761
663.985
643.555
623.966
606.843
593.234
584.454
578.846
548.693
477.639
434.814
492.426
544.963
538.892
734.984
726.312
717.095
706.19
693.244
678.623
662.397
645.764
630.215
617.736
595.012
513.666
346.409
162.652
64.2852
44.3882
121.699
311.543
437.149
723.813
716.13
708.474
699.259
688.443
675.274
655.416
619.731
550.337
407.387
208.307
60.8936
4.46275
4.70489
5.14545
5.82651
17.1389
87.078
108.084
446.632
442.228
443.656
419.086
371.089
305.882
224.911
133.674
46.8066
3.94423
4.11496
4.50046
4.5701
4.58668
4.70601
12.4692
15.0635
4.29056
4.17215
14.3685
9.36819
6.18309
4.31363
4.18758
4.07216
3.9741
4.00045
4.34884
4.45866
4.63014
4.99088
4.87987
4.60443
6.1435
8.40432
6.12801
4.3112
4.28315
4.7786
4.68673
4.62837
4.56699
4.51055
4.46242
4.41698
4.39115
4.41325
4.43748
5.34454
5.5433
5.50834
4.45161
4.40596
4.34587
4.30982
4.29737
4.2869
4.71871
4.65544
4.58666
4.5221
4.46517
4.41712
4.38061
4.36304
4.34973
4.41365
4.92944
4.98057
4.35064
4.37755
4.37615
4.35096
4.32145
4.30757
4.3052
4.69292
4.63414
4.57248
4.5089
4.45248
4.40318
4.36708
4.34867
4.34294
4.32278
4.31184
4.32112
4.3435
4.35993
4.36222
4.34964
4.33358
4.32344
4.32181
4.69138
4.63528
4.57885
4.5208
4.46718
4.42058
4.38339
4.35881
4.34629
4.33575
4.32984
4.33473
4.34593
4.35549
4.35769
4.35255
4.3452
4.34025
4.33919
4.69516
4.64501
4.59384
4.54002
4.48983
4.44598
4.41057
4.38497
4.36802
4.35558
4.34853
4.34896
4.35372
4.35865
4.36087
4.36019
4.35858
4.35748
4.35937
4.71117
4.66469
4.61716
4.56624
4.51846
4.47636
4.44156
4.41467
4.39482
4.38001
4.37076
4.36739
4.36798
4.37015
4.37232
4.37411
4.37594
4.3778
4.38196
4.73913
4.69495
4.64956
4.60046
4.55404
4.51265
4.47762
4.44928
4.42714
4.41027
4.39865
4.39226
4.38991
4.39012
4.39188
4.39484
4.39877
4.40305
4.40963
4.77883
4.73484
4.69014
4.64195
4.59613
4.55482
4.51915
4.48941
4.46535
4.44653
4.43281
4.42401
4.41937
4.41796
4.41915
4.42257
4.42783
4.43443
4.4424
4.82524
4.78103
4.73709
4.68928
4.64363
4.60208
4.56566
4.53467
4.50901
4.48847
4.47291
4.46214
4.45569
4.45299
4.4536
4.45721
4.46347
4.47207
4.48211
4.87794
4.83188
4.78848
4.74109
4.69555
4.65374
4.61667
4.58468
4.55776
4.53582
4.51876
4.50643
4.49855
4.49479
4.49487
4.49851
4.50555
4.51574
4.52795
4.93185
4.88728
4.84366
4.79661
4.75131
4.70942
4.67194
4.63924
4.6114
4.58839
4.57015
4.5566
4.54759
4.54291
4.54238
4.54589
4.55336
4.56446
4.5778
4.98824
4.9444
4.90136
4.85496
4.81012
4.76839
4.73078
4.69768
4.66922
4.64543
4.62629
4.61178
4.60181
4.5963
4.59516
4.59832
4.60596
4.6178
4.63123
5.04522
5.00231
4.96022
4.91479
4.87072
4.82946
4.79204
4.75888
4.73013
4.70587
4.68612
4.67088
4.66015
4.65389
4.6521
4.65483
4.66237
4.67459
4.68876
5.10172
5.0599
5.01907
4.97493
4.93196
4.89153
4.85466
4.82178
4.79309
4.76867
4.74858
4.73286
4.72153
4.71462
4.71219
4.71434
4.72154
4.73386
4.74823
5.15653
5.11624
5.07695
5.03443
4.9929
4.95365
4.91767
4.88542
4.85711
4.83283
4.81267
4.79668
4.78493
4.77747
4.77439
4.77589
4.78254
4.79453
4.80878
5.20916
5.17064
5.13317
5.09256
5.05278
5.01503
4.98028
4.94898
4.92134
4.89748
4.87749
4.86143
4.8494
4.84148
4.83779
4.83854
4.84445
4.85584
4.86952
5.25898
5.22265
5.18724
5.1488
5.11104
5.07508
5.04184
5.01175
4.98505
4.96184
4.94222
4.92629
4.91411
4.90581
4.90151
4.90151
4.90652
4.91696
4.92979
5.30601
5.27205
5.23889
5.20282
5.16729
5.13334
5.10184
5.0732
5.04764
5.02527
5.0062
4.99052
4.97831
4.96971
4.96486
4.96405
4.96805
4.97735
4.98897
5.35011
5.31877
5.28799
5.25444
5.2213
5.18953
5.15993
5.1329
5.10863
5.08724
5.06884
5.05352
5.04138
5.03255
5.02718
5.0256
5.02856
5.03646
5.04668
5.39155
5.36283
5.33453
5.30358
5.27292
5.24343
5.21584
5.19051
5.16764
5.14733
5.12968
5.1148
5.1028
5.0938
5.08798
5.08564
5.08751
5.09399
5.10259
5.43034
5.40434
5.37852
5.35021
5.32206
5.29489
5.26937
5.24581
5.22438
5.20519
5.18836
5.17397
5.16215
5.15304
5.14683
5.14385
5.14469
5.14959
5.15657
5.4668
5.44339
5.42003
5.39432
5.36868
5.34384
5.32038
5.29859
5.27862
5.26059
5.24458
5.23072
5.21913
5.20997
5.20345
5.19988
5.1997
5.2032
5.20851
5.50097
5.48007
5.45908
5.43592
5.41274
5.39019
5.36878
5.34875
5.33023
5.31334
5.29817
5.28485
5.27352
5.26436
5.2576
5.25355
5.2525
5.2546
5.25846
5.53299
5.51442
5.49571
5.47502
5.45423
5.43391
5.4145
5.39619
5.37911
5.36335
5.34902
5.33626
5.32522
5.31611
5.30919
5.30469
5.30296
5.30394
5.30645
5.56279
5.54645
5.52991
5.51159
5.49312
5.47497
5.45751
5.4409
5.42523
5.41061
5.39713
5.38494
5.37422
5.36522
5.35817
5.35337
5.35107
5.35113
5.35266
5.59044
5.57615
5.56168
5.54565
5.52942
5.51338
5.49783
5.48289
5.46865
5.45517
5.44258
5.431
5.42065
5.41178
5.4047
5.39968
5.39695
5.39648
5.39718
5.61586
5.60353
5.59103
5.5772
5.56315
5.54918
5.53551
5.52225
5.50945
5.49718
5.48553
5.47464
5.46472
5.45606
5.44898
5.44385
5.44092
5.44
5.44021
5.63911
5.6286
5.61799
5.60628
5.59435
5.58242
5.57065
5.5591
5.54782
5.53684
5.52625
5.51616
5.50678
5.49839
5.49138
5.48617
5.4831
5.48196
5.48195
5.66014
5.65138
5.6426
5.63297
5.62312
5.61323
5.60338
5.59362
5.58396
5.57442
5.56505
5.55594
5.54726
5.53928
5.5324
5.52713
5.52388
5.52257
5.52265
5.6791
5.67198
5.66498
5.65739
5.64964
5.64181
5.63395
5.62608
5.61819
5.61029
5.60238
5.59452
5.58681
5.57945
5.57281
5.56739
5.56382
5.56228
5.56249
5.69606
5.69055
5.68535
5.67984
5.67423
5.66854
5.66279
5.65697
5.65106
5.64505
5.63893
5.63269
5.62635
5.62
5.61385
5.60832
5.604
5.60156
5.60154
5.71095
5.70695
5.7036
5.7002
5.69677
5.69328
5.68973
5.68609
5.68235
5.67849
5.67449
5.6703
5.66588
5.6612
5.65624
5.651
5.64547
5.64082
5.63961
5.72452
5.72208
5.7206
5.71928
5.718
5.71671
5.71541
5.71408
5.71272
5.71132
5.70987
5.70836
5.70672
5.70491
5.70282
5.70018
5.69609
5.69106
5.69246
)
;

boundaryField
{
    leftWall
    {
        type            fixedFluxPressure;
        gradient        uniform 0;
        value           nonuniform List<scalar> 
50
(
8118.87
8125.68
8148.32
8189.56
8249.62
8326.55
8417.07
8528.59
7918.29
2228.96
1522.74
1558.24
1597.05
1637.04
1678.69
1722.19
1769.71
1815.66
1688.71
347.983
5.96503
5.89965
5.91863
5.93507
5.98066
5.98687
5.98294
5.98255
5.98392
5.98491
5.98507
5.98408
5.98157
5.97727
5.97107
5.96298
5.95308
5.94148
5.92837
5.9139
5.89829
5.8817
5.86435
5.84641
5.82808
5.80951
5.79088
5.77237
5.7542
5.73681
)
;
    }
    rightWall
    {
        type            fixedFluxPressure;
        gradient        uniform 0;
        value           nonuniform List<scalar> 
50
(
3067.35
3049.56
2941.36
2787.8
2221.94
1318.85
933.274
774.818
582.006
511.101
491.507
451.06
538.892
437.149
108.084
4.17215
4.28315
4.2869
4.3052
4.32181
4.33919
4.35937
4.38196
4.40963
4.4424
4.48211
4.52795
4.5778
4.63123
4.68876
4.74823
4.80878
4.86952
4.92979
4.98897
5.04668
5.10259
5.15657
5.20851
5.25846
5.30645
5.35266
5.39718
5.44021
5.48195
5.52265
5.56249
5.60154
5.63961
5.69246
)
;
    }
    lowerWall
    {
        type            fixedFluxPressure;
        gradient        uniform 0;
        value           nonuniform List<scalar> 
62
(
8118.87
8054.24
7920.3
7716.2
7464.29
7182.87
6888.46
6598.88
6326.51
6080.58
5866.53
5685.21
5534.91
5410.4
5306.98
5220.55
5146.58
5081
5020.55
4964.53
4914.53
4878.77
4868.13
4868.13
4868.87
4867.88
4863.24
4704.07
2222.91
920.095
924.108
780.928
773.044
763.82
740.238
1137.96
1128.51
1107.33
1079.92
1053.85
1073.87
911.263
757.582
1137.96
1166.05
1251.4
1424.19
1627.89
1738.42
1847.17
2334.05
3107.92
3426.74
3575.47
3628.9
3503.09
3266.74
3092.33
2955.17
2874.37
2991.38
3067.35
)
;
    }
    atmosphere
    {
        type            prghTotalPressure;
        rho             rho;
        psi             none;
        gamma           1;
        p0              uniform 0;
        value           nonuniform List<scalar> 
46
(
5.72904
5.72904
5.72904
5.72904
5.72904
5.72904
5.72904
5.72904
5.72904
5.72904
5.72904
5.72904
5.72904
5.72904
5.72904
5.72904
5.72904
5.72904
5.72904
5.72904
5.72904
5.72904
5.72904
5.72903
5.72903
5.72901
5.72898
5.7289
5.72873
5.72853
5.72832
5.7281
5.72789
5.7277
5.72754
5.72742
5.72735
5.72732
5.72734
5.72741
5.72752
5.72764
5.72777
5.72789
5.72806
5.72902
)
;
        rho             rho;
    }
    defaultFaces
    {
        type            empty;
    }
}


// ************************************************************************* //
