/*--------------------------------*- C++ -*----------------------------------*\
  =========                 |
  \\      /  F ield         | OpenFOAM: The Open Source CFD Toolbox
   \\    /   O peration     | Website:  https://openfoam.org
    \\  /    A nd           | Version:  13
     \\/     M anipulation  |
\*---------------------------------------------------------------------------*/
FoamFile
{
    format      ascii;
    class       surfaceScalarField;
    location    "1.1";
    object      phi;
}
// * * * * * * * * * * * * * * * * * * * * * * * * * * * * * * * * * * * * * //

dimensions      [0 3 -1 0 0 0 0];

internalField   nonuniform List<scalar> 
4432
(
3.16175e-06
-3.16174e-06
3.10458e-06
5.71629e-08
2.65024e-06
4.5435e-07
2.26748e-06
3.82758e-07
1.80076e-06
4.66714e-07
1.26964e-06
5.31131e-07
5.68134e-07
7.01504e-07
-2.27442e-07
7.95577e-07
-1.02683e-06
7.99386e-07
-1.71712e-06
6.90296e-07
-2.22669e-06
5.09575e-07
-2.53585e-06
3.09159e-07
-2.65314e-06
1.17291e-07
-2.6121e-06
-4.10434e-08
-2.43216e-06
-1.79937e-07
-2.12388e-06
-3.08281e-07
-1.67841e-06
-4.45466e-07
-1.07387e-06
-6.04546e-07
-3.00687e-07
-7.73184e-07
5.99131e-07
-8.9982e-07
1.44532e-06
-8.46192e-07
1.77281e-06
-3.27493e-07
1.77281e-06
1.78418e-06
-4.94594e-06
2.62947e-06
-7.88132e-07
3.10859e-06
-2.47668e-08
3.23093e-06
2.60412e-07
2.98707e-06
7.10577e-07
2.40884e-06
1.10936e-06
1.5698e-06
1.54054e-06
6.12211e-07
1.75317e-06
-3.28891e-07
1.74049e-06
-1.14244e-06
1.50385e-06
-1.76322e-06
1.13035e-06
-2.17952e-06
7.25457e-07
-2.41283e-06
3.50596e-07
-2.47642e-06
2.25488e-08
-2.39962e-06
-2.56741e-07
-2.20037e-06
-5.07534e-07
-1.88498e-06
-7.60848e-07
-1.45606e-06
-1.03346e-06
-9.30318e-07
-1.29893e-06
-3.55166e-07
-1.47497e-06
1.6793e-07
-1.36929e-06
5.18755e-07
-6.78317e-07
2.29157e-06
1.31984e-06
-6.26577e-06
2.79857e-06
-2.26686e-06
3.82107e-06
-1.04727e-06
4.22167e-06
-1.40185e-07
4.03915e-06
8.93102e-07
3.38974e-06
1.75877e-06
2.42561e-06
2.50468e-06
1.3382e-06
2.84058e-06
2.86324e-07
2.79237e-06
-6.18869e-07
2.40904e-06
-1.31936e-06
1.83084e-06
-1.80992e-06
1.21602e-06
-2.11116e-06
6.5184e-07
-2.24603e-06
1.57417e-07
-2.24153e-06
-2.6124e-07
-2.12189e-06
-6.27176e-07
-1.90397e-06
-9.78766e-07
-1.60346e-06
-1.33397e-06
-1.24725e-06
-1.65514e-06
-8.84019e-07
-1.8382e-06
-5.91316e-07
-1.66199e-06
-3.46225e-07
-9.23407e-07
1.94535e-06
1.46753e-06
-7.73331e-06
3.44326e-06
-4.24259e-06
4.79447e-06
-2.39848e-06
5.32424e-06
-6.69961e-07
5.11876e-06
1.09858e-06
4.36647e-06
2.51106e-06
3.27175e-06
3.59939e-06
2.06664e-06
4.04568e-06
9.15344e-07
3.94366e-06
-7.32642e-08
3.39764e-06
-8.43697e-07
2.60126e-06
-1.39664e-06
1.76896e-06
-1.75556e-06
1.01075e-06
-1.94685e-06
3.48701e-07
-2.00141e-06
-2.06675e-07
-1.9482e-06
-6.80383e-07
-1.81238e-06
-1.11459e-06
-1.61739e-06
-1.52896e-06
-1.38969e-06
-1.88284e-06
-1.17051e-06
-2.05737e-06
-1.05095e-06
-1.78155e-06
-9.78179e-07
-9.96177e-07
9.67172e-07
2.0576e-06
-9.7909e-06
4.41785e-06
-6.60284e-06
5.95231e-06
-3.93294e-06
6.50962e-06
-1.22727e-06
6.22519e-06
1.38301e-06
5.36006e-06
3.37618e-06
4.13621e-06
4.82324e-06
2.81812e-06
5.36376e-06
1.58305e-06
5.17872e-06
5.24247e-07
4.45644e-06
-3.05632e-07
3.43114e-06
-9.10876e-07
2.3742e-06
-1.32133e-06
1.42121e-06
-1.5589e-06
5.86278e-07
-1.66279e-06
-1.02788e-07
-1.66657e-06
-6.76597e-07
-1.60304e-06
-1.17812e-06
-1.50231e-06
-1.62968e-06
-1.37886e-06
-2.00629e-06
-1.23659e-06
-2.19963e-06
-1.18495e-06
-1.83319e-06
-1.24441e-06
-9.36722e-07
-2.77239e-07
2.94037e-06
-1.27313e-05
5.57259e-06
-9.23505e-06
7.1707e-06
-5.53105e-06
7.69138e-06
-1.74795e-06
7.29405e-06
1.78034e-06
6.30886e-06
4.36137e-06
4.9869e-06
6.14518e-06
3.60172e-06
6.74893e-06
2.30932e-06
6.47112e-06
1.23793e-06
5.52782e-06
3.94176e-07
4.27489e-06
-2.24536e-07
2.99291e-06
-6.39801e-07
1.83647e-06
-8.94942e-07
8.4142e-07
-1.03493e-06
3.72018e-08
-1.09661e-06
-6.14911e-07
-1.11901e-06
-1.15572e-06
-1.14379e-06
-1.6049e-06
-1.1454e-06
-2.00468e-06
-9.69643e-07
-2.37538e-06
-7.39749e-07
-2.06309e-06
-6.38846e-07
-1.03764e-06
-9.16101e-07
3.89791e-06
-1.66292e-05
6.67917e-06
-1.20163e-05
8.2598e-06
-7.11167e-06
8.70194e-06
-2.1901e-06
8.21435e-06
2.26793e-06
7.17172e-06
5.40399e-06
5.83361e-06
7.48327e-06
4.54746e-06
8.03506e-06
3.38341e-06
7.63515e-06
2.43628e-06
6.47493e-06
1.6621e-06
5.04906e-06
1.09185e-06
3.56316e-06
7.44973e-07
2.18334e-06
5.1411e-07
1.07229e-06
3.38121e-07
2.13195e-07
1.69182e-07
-4.45967e-07
-4.63339e-08
-9.40202e-07
-3.90551e-07
-1.26068e-06
-7.2963e-07
-1.6656e-06
-3.8848e-07
-2.71653e-06
3.90653e-07
-2.84223e-06
1.45856e-06
-2.10557e-06
5.42464e-07
4.57436e-06
-2.12035e-05
7.39248e-06
-1.48344e-05
8.94845e-06
-8.66764e-06
9.40471e-06
-2.64636e-06
8.88683e-06
2.78581e-06
7.95904e-06
6.33176e-06
6.67528e-06
8.76702e-06
5.47794e-06
9.23238e-06
4.84611e-06
8.26697e-06
4.55163e-06
6.7694e-06
4.35264e-06
5.24805e-06
4.06587e-06
3.84994e-06
3.65682e-06
2.59239e-06
3.20051e-06
1.52859e-06
2.68723e-06
7.26481e-07
2.08958e-06
1.51687e-07
1.35008e-06
-2.007e-07
3.49284e-07
-2.59885e-07
-7.28703e-07
-5.87617e-07
-7.49453e-07
-2.69579e-06
-4.10352e-07
-3.18134e-06
-4.09111e-08
-2.47501e-06
5.01526e-07
-2.02341e-05
2.02341e-05
-2.25829e-05
2.34876e-06
-2.50824e-05
2.49952e-06
-3.02527e-05
5.17025e-06
-3.88595e-05
8.6068e-06
-4.97438e-05
1.08843e-05
-5.80901e-05
8.34623e-06
-5.53497e-05
-2.74039e-06
-4.62272e-05
-9.1225e-06
-3.84439e-05
-7.78332e-06
-2.9845e-05
-8.59887e-06
-1.98502e-05
-9.99489e-06
-1.35443e-05
-6.30585e-06
-1.46209e-05
1.07661e-06
-1.4868e-05
2.47069e-07
-1.30409e-05
-1.82713e-06
-1.05608e-05
-2.48014e-06
-4.41038e-06
-6.15037e-06
-4.41038e-06
-1.24007e-05
3.26348e-05
-1.41195e-05
4.06749e-06
-1.8639e-05
7.01907e-06
-2.52201e-05
1.17513e-05
-3.16711e-05
1.50577e-05
-3.78359e-05
1.70491e-05
-4.16115e-05
1.21218e-05
-4.172e-05
-2.63189e-06
-3.92127e-05
-1.16298e-05
-3.55475e-05
-1.14485e-05
-2.94836e-05
-1.46627e-05
-2.10707e-05
-1.84078e-05
-1.28389e-05
-1.45377e-05
-1.04266e-05
-1.33567e-06
-8.65062e-06
-1.52891e-06
-6.07573e-06
-4.40203e-06
-3.27045e-06
-5.28543e-06
-1.08967e-07
-9.31185e-06
-4.51935e-06
-6.42057e-06
3.90554e-05
-1.05955e-05
8.24242e-06
-1.69203e-05
1.33439e-05
-2.40487e-05
1.88797e-05
-2.992e-05
2.0929e-05
-3.24547e-05
1.95837e-05
-3.29496e-05
1.26168e-05
-3.43675e-05
-1.21398e-06
-3.47637e-05
-1.12337e-05
-3.31577e-05
-1.30545e-05
-2.86064e-05
-1.9214e-05
-2.22358e-05
-2.47784e-05
-1.52079e-05
-2.15657e-05
-8.83982e-06
-7.70373e-06
-4.123e-06
-6.24574e-06
4.28248e-08
-8.56786e-06
3.66461e-06
-8.90723e-06
3.64907e-06
-9.29631e-06
-8.70274e-07
-2.25431e-06
4.13096e-05
-8.87557e-06
1.48637e-05
-1.5883e-05
2.03513e-05
-2.25044e-05
2.5501e-05
-2.82019e-05
2.66265e-05
-2.94813e-05
2.0863e-05
-2.90046e-05
1.21401e-05
-3.00606e-05
-1.57936e-07
-3.1551e-05
-9.74334e-06
-3.10973e-05
-1.35082e-05
-2.74673e-05
-2.28441e-05
-2.25337e-05
-2.97119e-05
-1.73332e-05
-2.67662e-05
-9.1481e-06
-1.58888e-05
-1.94028e-06
-1.34536e-05
4.45047e-06
-1.49586e-05
9.52377e-06
-1.39805e-05
7.3199e-06
-7.09244e-06
6.44962e-06
4.80199e-08
4.12616e-05
-8.3203e-06
2.3232e-05
-1.46706e-05
2.67015e-05
-1.95484e-05
3.03788e-05
-2.35958e-05
3.0674e-05
-2.60744e-05
2.33416e-05
-2.6061e-05
1.21267e-05
-2.70633e-05
8.44381e-07
-2.89708e-05
-7.83583e-06
-2.89306e-05
-1.35483e-05
-2.55218e-05
-2.62529e-05
-2.15316e-05
-3.37021e-05
-1.72015e-05
-3.10963e-05
-1.02656e-05
-2.28247e-05
-2.56398e-06
-2.11551e-05
5.24905e-06
-2.27716e-05
1.05629e-05
-1.92944e-05
9.48025e-06
-6.00979e-06
1.59299e-05
-3.50683e-07
4.16123e-05
-8.69997e-06
3.15812e-05
-1.41556e-05
3.21572e-05
-1.72732e-05
3.34964e-05
-1.94391e-05
3.28399e-05
-2.12283e-05
2.51307e-05
-2.2589e-05
1.34874e-05
-2.41818e-05
2.43719e-06
-2.5782e-05
-6.23567e-06
-2.5511e-05
-1.38192e-05
-2.28131e-05
-2.89508e-05
-1.98937e-05
-3.66215e-05
-1.59433e-05
-3.50467e-05
-1.00861e-05
-2.86818e-05
-3.26895e-06
-2.79723e-05
3.56532e-06
-2.96059e-05
8.36548e-06
-2.40945e-05
9.4257e-06
-7.07002e-06
2.53556e-05
-2.8496e-06
4.44618e-05
-9.32676e-06
3.80583e-05
-1.37813e-05
3.66117e-05
-1.58636e-05
3.55787e-05
-1.68693e-05
3.38457e-05
-1.77251e-05
2.59864e-05
-1.88949e-05
1.46572e-05
-2.04219e-05
3.96419e-06
-2.16155e-05
-5.0421e-06
-2.09909e-05
-1.44439e-05
-1.95763e-05
-3.03654e-05
-1.79313e-05
-3.82664e-05
-1.48393e-05
-3.81386e-05
-9.76679e-06
-3.37543e-05
-3.51894e-06
-3.42201e-05
2.01657e-06
-3.51414e-05
5.92327e-06
-2.80012e-05
7.75432e-06
-8.90108e-06
3.31099e-05
-7.10323e-06
5.1565e-05
-1.01477e-05
4.11028e-05
-1.29208e-05
3.93848e-05
-1.47162e-05
3.7374e-05
-1.52909e-05
3.44204e-05
-1.5619e-05
2.63146e-05
-1.63494e-05
1.53877e-05
-1.73134e-05
4.92812e-06
-1.77931e-05
-4.56237e-06
-1.68176e-05
-1.54194e-05
-1.6252e-05
-3.0931e-05
-1.56592e-05
-3.88592e-05
-1.32378e-05
-4.056e-05
-8.45351e-06
-3.85386e-05
-3.00161e-06
-3.9672e-05
1.01543e-06
-3.91584e-05
4.21432e-06
-3.12001e-05
6.13861e-06
-1.08254e-05
3.92485e-05
1.01012e-05
-3.13047e-05
1.60286e-05
-2.07618e-05
1.93159e-05
-1.19549e-05
2.11261e-05
-4.45657e-06
1.97211e-05
4.19075e-06
1.69384e-05
9.11449e-06
1.57286e-05
9.9768e-06
1.54798e-05
9.48119e-06
1.56601e-05
8.08663e-06
1.57618e-05
6.66774e-06
1.54649e-05
5.54492e-06
1.4665e-05
4.64992e-06
1.33347e-05
3.92263e-06
1.16187e-05
3.24466e-06
9.53206e-06
2.81307e-06
7.08204e-06
2.60171e-06
4.36374e-06
2.5176e-06
8.2712e-07
3.27673e-06
-3.34895e-06
3.58844e-06
-6.22453e-06
1.7977e-07
-9.04327e-06
-3.62621e-07
-1.37335e-05
2.21518e-06
8.59345e-06
-2.18254e-05
7.89595e-06
-3.92006e-05
1.02033e-05
-2.30692e-05
8.7107e-06
-1.04623e-05
7.57577e-06
-3.32164e-06
8.41916e-06
3.34736e-06
1.07373e-05
6.79637e-06
1.3168e-05
7.54612e-06
1.54009e-05
7.24832e-06
1.67665e-05
6.72103e-06
1.71214e-05
6.31279e-06
1.65459e-05
6.12046e-06
1.51825e-05
6.01329e-06
1.30742e-05
6.03096e-06
1.05281e-05
5.79077e-06
7.56761e-06
5.77356e-06
3.87461e-06
6.2947e-06
-2.67083e-07
6.65929e-06
-4.53047e-06
7.54011e-06
-9.83482e-06
8.89278e-06
-1.7247e-05
7.59188e-06
-2.44555e-05
6.84592e-06
-3.13023e-05
9.06197e-06
1.24111e-05
-3.51199e-05
-6.20915e-06
-3.29915e-05
-7.62116e-06
-2.16572e-05
-5.76202e-06
-1.23215e-05
-3.21382e-06
-5.86983e-06
1.08801e-06
-9.54468e-07
5.91763e-06
1.96676e-06
1.00241e-05
3.43966e-06
1.28527e-05
4.4197e-06
1.4253e-05
5.32079e-06
1.42992e-05
6.26654e-06
1.31793e-05
7.24043e-06
1.13511e-05
7.84145e-06
8.483e-06
8.89905e-06
5.00757e-06
9.26621e-06
8.32689e-07
9.94844e-06
-4.10396e-06
1.12314e-05
-1.10153e-05
1.35706e-05
-1.7678e-05
1.42028e-05
-2.33307e-05
1.45455e-05
-2.94289e-05
1.369e-05
-3.56008e-05
1.30179e-05
-4.03333e-05
1.37944e-05
1.51883e-05
-4.31105e-05
-8.70899e-06
-2.42825e-05
-1.0906e-05
-1.94601e-05
-9.54313e-06
-1.36844e-05
-6.27825e-06
-9.13471e-06
-1.73484e-06
-5.49787e-06
2.8844e-06
-2.65248e-06
6.54913e-06
-2.25055e-07
8.76676e-06
2.20208e-06
9.45918e-06
4.62837e-06
8.94341e-06
6.7823e-06
6.96277e-06
9.22107e-06
4.40882e-06
1.03954e-05
5.7427e-07
1.27336e-05
-4.4099e-06
1.42504e-05
-1.10324e-05
1.65709e-05
-1.73956e-05
1.75946e-05
-2.30324e-05
1.92074e-05
-2.8354e-05
1.95243e-05
-3.31599e-05
1.93515e-05
-3.79856e-05
1.85158e-05
-4.26049e-05
1.76371e-05
-4.61645e-05
1.73541e-05
1.73872e-05
-4.83634e-05
-5.95198e-06
-1.83305e-05
-8.84961e-06
-1.65625e-05
-8.74851e-06
-1.37855e-05
-6.68547e-06
-1.11977e-05
-3.5213e-06
-8.66203e-06
-3.0536e-07
-5.86841e-06
2.02076e-06
-2.55117e-06
3.09479e-06
1.12806e-06
2.5534e-06
5.16976e-06
1.01763e-06
8.31807e-06
-2.08164e-06
1.23203e-05
-6.52617e-06
1.48399e-05
-1.19733e-05
1.81807e-05
-1.76094e-05
1.98865e-05
-2.25588e-05
2.15203e-05
-2.73557e-05
2.23915e-05
-3.1564e-05
2.34157e-05
-3.57299e-05
2.36903e-05
-3.97273e-05
2.33489e-05
-4.35966e-05
2.2385e-05
-4.71291e-05
2.11696e-05
-4.99875e-05
2.02125e-05
1.93565e-05
-5.19568e-05
-4.34312e-06
-1.39873e-05
-7.49009e-06
-1.34155e-05
-8.65772e-06
-1.26178e-05
-8.14325e-06
-1.17122e-05
-6.64564e-06
-1.01596e-05
-5.12336e-06
-7.39068e-06
-4.39079e-06
-3.28374e-06
-4.97126e-06
1.70854e-06
-6.96852e-06
7.16703e-06
-1.07112e-05
1.20608e-05
-1.49687e-05
1.65778e-05
-1.96875e-05
1.95588e-05
-2.34004e-05
2.18935e-05
-2.70004e-05
2.34866e-05
-3.03714e-05
2.48913e-05
-3.38261e-05
2.58462e-05
-3.70635e-05
2.66532e-05
-4.03274e-05
2.69541e-05
-4.35977e-05
2.66192e-05
-4.67214e-05
2.55088e-05
-4.95284e-05
2.39766e-05
-5.19919e-05
2.2676e-05
2.14146e-05
-5.40499e-05
-4.63694e-06
-9.3504e-06
-8.70782e-06
-9.34462e-06
-1.11571e-05
-1.01686e-05
-1.21132e-05
-1.0756e-05
-1.22125e-05
-1.00603e-05
-1.21769e-05
-7.42632e-06
-1.32508e-05
-2.20978e-06
-1.59994e-05
4.45714e-06
-1.93614e-05
1.0529e-05
-2.31943e-05
1.58936e-05
-2.60405e-05
1.9424e-05
-2.85792e-05
2.20976e-05
-3.0884e-05
2.41983e-05
-3.31798e-05
2.57824e-05
-3.54308e-05
2.71423e-05
-3.77494e-05
2.81648e-05
-4.00457e-05
2.89495e-05
-4.24831e-05
2.93914e-05
-4.51311e-05
2.92672e-05
-4.7718e-05
2.80956e-05
-4.98972e-05
2.61558e-05
-5.20454e-05
2.48242e-05
2.44652e-05
-5.50961e-05
-7.08663e-06
-2.26379e-06
-1.26298e-05
-3.80141e-06
-1.62595e-05
-6.53895e-06
-1.85404e-05
-8.47509e-06
-1.98841e-05
-8.71663e-06
-2.15808e-05
-5.72964e-06
-2.42766e-05
4.86014e-07
-2.73411e-05
7.52162e-06
-2.98934e-05
1.30813e-05
-3.16286e-05
1.76289e-05
-3.31931e-05
2.09885e-05
-3.45615e-05
2.3466e-05
-3.58105e-05
2.54473e-05
-3.70656e-05
2.70374e-05
-3.83311e-05
2.84078e-05
-3.96492e-05
2.94828e-05
-4.09515e-05
3.02518e-05
-4.24948e-05
3.09347e-05
-4.45672e-05
3.13395e-05
-4.69621e-05
3.04905e-05
-4.87381e-05
2.79317e-05
-5.01377e-05
2.62238e-05
2.91026e-05
-5.47752e-05
-1.08558e-05
8.59199e-06
-1.77766e-05
3.11936e-06
-2.24522e-05
-1.86335e-06
-2.60141e-05
-4.91319e-06
-2.89879e-05
-5.74286e-06
-3.19897e-05
-2.72786e-06
-3.44172e-05
2.91354e-06
-3.56264e-05
8.73073e-06
-3.65597e-05
1.40147e-05
-3.73405e-05
1.84096e-05
-3.79557e-05
2.16037e-05
-3.84332e-05
2.39435e-05
-3.8821e-05
2.5835e-05
-3.91891e-05
2.74055e-05
-3.96107e-05
2.88294e-05
-4.02149e-05
3.00869e-05
-4.07728e-05
3.08097e-05
-4.12453e-05
3.14073e-05
-4.2481e-05
3.25752e-05
-4.47029e-05
3.27123e-05
-4.63236e-05
2.95524e-05
-4.64075e-05
2.63077e-05
3.24937e-05
-4.97987e-05
-1.28518e-05
2.14438e-05
-2.14812e-05
1.17487e-05
-2.7711e-05
4.36642e-06
-3.37208e-05
1.09662e-06
-3.84828e-05
-9.80904e-07
-4.08487e-05
-3.62003e-07
-4.14669e-05
3.53174e-06
-4.13348e-05
8.59865e-06
-4.1148e-05
1.38279e-05
-4.10732e-05
1.83348e-05
-4.09785e-05
2.1509e-05
-4.08402e-05
2.38051e-05
-4.06681e-05
2.56629e-05
-4.03508e-05
2.70881e-05
-3.99929e-05
2.84715e-05
-3.99312e-05
3.00252e-05
-4.00057e-05
3.08841e-05
-3.96353e-05
3.10368e-05
-4.05276e-05
3.34673e-05
-4.23962e-05
3.45807e-05
-4.55491e-05
3.27051e-05
-4.88013e-05
2.95597e-05
3.02895e-05
-4.65978e-05
-9.63879e-06
3.10825e-05
-1.89148e-05
2.10246e-05
-3.02205e-05
1.5672e-05
-4.3822e-05
1.46981e-05
-4.76521e-05
2.84906e-06
-4.78617e-05
-1.5243e-07
-4.70173e-05
2.68737e-06
-4.57892e-05
7.37054e-06
-4.46626e-05
1.27012e-05
-4.37057e-05
1.73779e-05
-4.28007e-05
2.06041e-05
-4.20003e-05
2.30047e-05
-4.1423e-05
2.50856e-05
-4.05634e-05
2.62284e-05
-3.99338e-05
2.78417e-05
-4.10045e-05
3.10957e-05
-4.2191e-05
3.20705e-05
-4.42568e-05
3.31023e-05
-4.68829e-05
3.60932e-05
-5.01412e-05
3.78388e-05
-5.30178e-05
3.55816e-05
-5.61777e-05
3.27193e-05
2.87915e-05
-5.46805e-05
2.00689e-06
2.90747e-05
-1.26251e-05
3.56554e-05
-3.4076e-05
3.7122e-05
-5.44089e-05
3.50304e-05
-5.26262e-05
1.06626e-06
-5.20217e-05
-7.56949e-07
-5.10771e-05
1.7427e-06
-4.92674e-05
5.56093e-06
-4.7542e-05
1.09758e-05
-4.59085e-05
1.57442e-05
-4.46057e-05
1.93012e-05
-4.42349e-05
2.26336e-05
-4.42928e-05
2.51432e-05
-4.56346e-05
2.757e-05
-4.88679e-05
3.10748e-05
-5.2903e-05
3.51306e-05
-5.65406e-05
3.57079e-05
-5.90957e-05
3.56573e-05
-5.97978e-05
3.67953e-05
-5.94146e-05
3.74559e-05
-5.96004e-05
3.57676e-05
-5.90999e-05
3.22188e-05
2.79699e-05
-5.8279e-05
-1.31775e-05
4.22498e-05
-1.10013e-05
3.34777e-05
-2.57743e-05
5.18938e-05
-3.08787e-05
4.01343e-05
-4.26606e-05
1.2848e-05
-5.36749e-05
1.02572e-05
-5.60279e-05
4.09565e-06
-5.52802e-05
4.81322e-06
-5.43443e-05
1.00398e-05
-5.46512e-05
1.60509e-05
-5.6889e-05
2.15387e-05
-5.97223e-05
2.54666e-05
-6.23005e-05
2.77212e-05
-6.42532e-05
2.95226e-05
-6.52863e-05
3.21078e-05
-6.53769e-05
3.52212e-05
-6.60894e-05
3.64205e-05
-6.67135e-05
3.62815e-05
-6.60876e-05
3.61695e-05
-6.45056e-05
3.58741e-05
-6.2486e-05
3.37482e-05
-6.03912e-05
3.01241e-05
2.56877e-05
-5.81098e-05
1.04866e-05
3.17634e-05
-2.0868e-06
4.60513e-05
-1.23596e-05
6.21668e-05
-2.17688e-05
4.95434e-05
-3.70308e-05
2.811e-05
-4.69526e-05
2.0179e-05
-5.59085e-05
1.30515e-05
-6.17241e-05
1.06288e-05
-6.50241e-05
1.33398e-05
-6.68584e-05
1.78853e-05
-6.79988e-05
2.26791e-05
-6.89358e-05
2.64037e-05
-7.03153e-05
2.91009e-05
-7.15252e-05
3.07326e-05
-7.18344e-05
3.24172e-05
-7.10476e-05
3.44346e-05
-6.98322e-05
3.52052e-05
-6.84711e-05
3.49204e-05
-6.65027e-05
3.42012e-05
-6.37126e-05
3.30843e-05
-6.06942e-05
3.073e-05
-5.77104e-05
2.71402e-05
2.28245e-05
-5.48478e-05
-1.26312e-06
3.30281e-05
-1.31394e-05
5.79284e-05
-1.69016e-05
6.59295e-05
-2.1255e-05
5.38972e-05
-3.1161e-05
3.80162e-05
-4.05152e-05
2.95333e-05
-4.95504e-05
2.20867e-05
-5.74298e-05
1.85082e-05
-6.31469e-05
1.90569e-05
-6.67065e-05
2.1445e-05
-6.85416e-05
2.45144e-05
-6.97684e-05
2.76306e-05
-7.0388e-05
2.97207e-05
-7.07574e-05
3.11021e-05
-7.0522e-05
3.21819e-05
-6.91154e-05
3.30281e-05
-6.70269e-05
3.31168e-05
-6.46079e-05
3.25014e-05
-6.17446e-05
3.1338e-05
-5.85125e-05
2.98524e-05
-5.51331e-05
2.73507e-05
-5.18283e-05
2.38355e-05
1.96566e-05
-4.86611e-05
-1.43519e-05
4.73809e-05
-1.73865e-05
6.09637e-05
-1.5942e-05
6.44856e-05
-1.8378e-05
5.63336e-05
-2.53147e-05
4.49532e-05
-3.27846e-05
3.70033e-05
-4.09958e-05
3.0298e-05
-4.8698e-05
2.62104e-05
-5.47228e-05
2.50818e-05
-5.90278e-05
2.575e-05
-6.17998e-05
2.72865e-05
-6.31899e-05
2.90209e-05
-6.37686e-05
3.02995e-05
-6.3751e-05
3.10846e-05
-6.30928e-05
3.15238e-05
-6.15756e-05
3.1511e-05
-5.94043e-05
3.09454e-05
-5.67159e-05
2.9813e-05
-5.36333e-05
2.82554e-05
-5.02048e-05
2.64241e-05
-4.67407e-05
2.38869e-05
-4.33712e-05
2.04658e-05
1.64327e-05
-4.01481e-05
-9.15106e-06
5.65325e-05
-1.12063e-05
6.30194e-05
-1.0689e-05
6.39686e-05
-1.25136e-05
5.81584e-05
-1.74834e-05
4.99232e-05
-2.3581e-05
4.3101e-05
-3.04968e-05
3.72138e-05
-3.72893e-05
3.3003e-05
-4.30044e-05
3.07969e-05
-4.73165e-05
3.00622e-05
-5.02254e-05
3.01955e-05
-5.18684e-05
3.06639e-05
-5.25574e-05
3.09885e-05
-5.25013e-05
3.10286e-05
-5.17442e-05
3.07666e-05
-5.03335e-05
3.01003e-05
-4.83155e-05
2.89273e-05
-4.58357e-05
2.7333e-05
-4.29701e-05
2.53897e-05
-3.97053e-05
2.31595e-05
-3.63224e-05
2.0504e-05
-3.30391e-05
1.71824e-05
1.33051e-05
-2.99124e-05
-4.58319e-06
6.11156e-05
-5.32197e-06
6.37583e-05
-4.70781e-06
6.33546e-05
-5.77522e-06
5.92259e-05
-9.16855e-06
5.33166e-05
-1.3796e-05
4.77284e-05
-1.92098e-05
4.26276e-05
-2.47221e-05
3.85153e-05
-2.96138e-05
3.56886e-05
-3.35043e-05
3.39526e-05
-3.62658e-05
3.2957e-05
-3.79298e-05
3.2328e-05
-3.86732e-05
3.17319e-05
-3.8645e-05
3.10004e-05
-3.79279e-05
3.00495e-05
-3.66245e-05
2.87969e-05
-3.48511e-05
2.71538e-05
-3.26951e-05
2.5177e-05
-3.02025e-05
2.28971e-05
-2.74065e-05
2.03636e-05
-2.44069e-05
1.75046e-05
-2.14169e-05
1.41921e-05
1.04693e-05
-1.8582e-05
-1.40419e-06
6.25198e-05
-7.81545e-07
6.31356e-05
3.79827e-07
6.21932e-05
3.42471e-07
5.92633e-05
-1.42111e-06
5.50802e-05
-4.38678e-06
5.06941e-05
-8.15882e-06
4.63997e-05
-1.22153e-05
4.25718e-05
-1.60065e-05
3.94797e-05
-1.9161e-05
3.71071e-05
-2.14932e-05
3.52892e-05
-2.29626e-05
3.37974e-05
-2.36435e-05
3.24128e-05
-2.36346e-05
3.09916e-05
-2.30183e-05
2.94332e-05
-2.18811e-05
2.76596e-05
-2.03513e-05
2.56239e-05
-1.84981e-05
2.33237e-05
-1.63989e-05
2.07979e-05
-1.40823e-05
1.80471e-05
-1.16189e-05
1.50412e-05
-9.13865e-06
1.17119e-05
8.08584e-06
-6.75607e-06
8.02284e-07
6.17171e-05
2.44705e-06
6.14906e-05
4.26221e-06
6.03779e-05
5.25906e-06
5.82664e-05
5.0251e-06
5.53141e-05
3.7501e-06
5.19691e-05
1.6873e-06
4.84624e-05
-8.01588e-07
4.50606e-05
-3.31022e-06
4.19884e-05
-5.51277e-06
3.93096e-05
-7.20196e-06
3.69783e-05
-8.28848e-06
3.48839e-05
-8.77771e-06
3.2902e-05
-8.71679e-06
3.09307e-05
-8.17186e-06
2.88883e-05
-7.22045e-06
2.67082e-05
-5.94572e-06
2.43492e-05
-4.42705e-06
2.1805e-05
-2.71581e-06
1.90866e-05
-8.6776e-07
1.61992e-05
1.05707e-06
1.31164e-05
2.97833e-06
9.79042e-06
6.26517e-06
4.79817e-06
2.21652e-06
5.95004e-05
4.62346e-06
5.90835e-05
7.01781e-06
5.79835e-05
8.89438e-06
5.63898e-05
9.94242e-06
5.4266e-05
1.01668e-05
5.17447e-05
9.68612e-06
4.89431e-05
8.72085e-06
4.60259e-05
7.54974e-06
4.31594e-05
6.42468e-06
4.04347e-05
5.53203e-06
3.7871e-05
4.9791e-06
3.54368e-05
4.80425e-06
3.30769e-05
5.00148e-06
3.07334e-05
5.53715e-06
2.83526e-05
6.35807e-06
2.58872e-05
7.40178e-06
2.33054e-05
8.61238e-06
2.05943e-05
9.94487e-06
1.77541e-05
1.13607e-05
1.47835e-05
1.28094e-05
1.16677e-05
1.42195e-05
8.38032e-06
4.95789e-06
1.55259e-05
3.05631e-06
5.64438e-05
5.97896e-06
5.61607e-05
8.82162e-06
5.51407e-05
1.1355e-05
5.38563e-05
1.33672e-05
5.22538e-05
1.47854e-05
5.03265e-05
1.5629e-05
4.80995e-05
1.60026e-05
4.56522e-05
1.60709e-05
4.30911e-05
1.60062e-05
4.04994e-05
1.59542e-05
3.7923e-05
1.60166e-05
3.53744e-05
1.625e-05
3.28435e-05
1.6675e-05
3.03084e-05
1.72858e-05
2.77418e-05
1.80569e-05
2.5116e-05
1.89527e-05
2.24096e-05
1.9936e-05
1.96109e-05
2.09743e-05
1.67158e-05
2.20363e-05
1.37217e-05
2.30846e-05
1.06195e-05
2.40694e-05
7.39543e-06
4.08674e-06
2.49398e-05
3.52805e-06
5.29158e-05
6.77065e-06
5.2918e-05
9.90389e-06
5.20074e-05
1.28557e-05
5.09044e-05
1.55014e-05
4.96081e-05
1.77544e-05
4.80735e-05
1.95789e-05
4.62749e-05
2.09993e-05
4.42319e-05
2.20911e-05
4.19993e-05
2.29537e-05
3.96368e-05
2.36845e-05
3.71922e-05
2.43631e-05
3.46957e-05
2.50453e-05
3.21613e-05
2.57634e-05
2.95904e-05
2.65295e-05
2.69757e-05
2.73399e-05
2.43057e-05
2.81801e-05
2.15693e-05
2.90315e-05
1.87595e-05
2.98742e-05
1.58731e-05
3.06878e-05
1.29082e-05
3.1446e-05
9.86131e-06
3.21137e-05
6.72782e-06
3.53619e-06
3.26635e-05
3.76431e-06
4.91512e-05
7.18145e-06
4.95008e-05
1.04643e-05
4.87245e-05
1.36267e-05
4.77421e-05
1.66132e-05
4.66215e-05
1.9357e-05
4.53297e-05
2.18053e-05
4.38266e-05
2.39377e-05
4.20996e-05
2.57704e-05
4.01666e-05
2.73454e-05
3.80618e-05
2.87155e-05
3.5822e-05
2.99327e-05
3.34786e-05
3.10401e-05
3.10539e-05
3.20696e-05
2.85609e-05
3.30407e-05
2.60046e-05
3.39616e-05
2.33847e-05
3.48322e-05
2.06987e-05
3.56471e-05
1.79446e-05
3.6398e-05
1.51223e-05
3.70733e-05
1.22331e-05
3.76568e-05
9.27792e-06
3.81271e-05
6.25744e-06
3.19893e-06
3.84636e-05
3.82796e-06
4.53233e-05
7.31114e-06
4.60176e-05
1.0637e-05
4.53986e-05
1.38566e-05
4.45225e-05
1.69625e-05
4.35156e-05
1.99185e-05
4.23737e-05
2.26794e-05
4.10657e-05
2.52096e-05
3.95693e-05
2.7494e-05
3.78822e-05
2.95375e-05
3.60184e-05
3.13588e-05
3.40007e-05
3.29838e-05
3.18536e-05
3.44394e-05
2.95983e-05
3.57494e-05
2.72509e-05
3.69323e-05
2.48218e-05
3.8e-05
2.2317e-05
3.89592e-05
1.97395e-05
3.98118e-05
1.7092e-05
4.05562e-05
1.43778e-05
4.11885e-05
1.1601e-05
4.17e-05
8.76646e-06
4.20774e-05
5.88003e-06
2.96219e-06
4.23135e-05
3.75076e-06
4.15723e-05
7.21152e-06
4.25567e-05
1.05026e-05
4.21076e-05
1.36792e-05
4.13458e-05
1.67601e-05
4.04347e-05
1.97357e-05
3.9398e-05
2.25787e-05
3.82226e-05
2.52575e-05
3.68905e-05
2.7747e-05
3.53927e-05
3.00335e-05
3.37319e-05
3.21149e-05
3.19193e-05
3.39978e-05
2.99706e-05
3.5694e-05
2.79021e-05
3.72169e-05
2.5728e-05
3.85791e-05
2.34596e-05
3.9791e-05
2.11051e-05
4.08599e-05
1.86706e-05
4.179e-05
1.61618e-05
4.25833e-05
1.35845e-05
4.32392e-05
1.09453e-05
4.37536e-05
8.25215e-06
4.41204e-05
5.51312e-06
2.74706e-06
4.4335e-05
3.56128e-06
3.80111e-05
6.92058e-06
3.91974e-05
1.01164e-05
3.89117e-05
1.31878e-05
3.82743e-05
1.61607e-05
3.74618e-05
1.90423e-05
3.65165e-05
2.18225e-05
3.54424e-05
2.44812e-05
3.42318e-05
2.69961e-05
3.28778e-05
2.9349e-05
3.1379e-05
3.15285e-05
2.97399e-05
3.35298e-05
2.79693e-05
3.53538e-05
2.60781e-05
3.70048e-05
2.4077e-05
3.84887e-05
2.19757e-05
3.98115e-05
1.97823e-05
4.0978e-05
1.75041e-05
4.19917e-05
1.51481e-05
4.28543e-05
1.27219e-05
4.35664e-05
1.02334e-05
4.41264e-05
7.69224e-06
4.45303e-05
5.10928e-06
2.49649e-06
4.47803e-05
3.29054e-06
3.47204e-05
6.47951e-06
3.60084e-05
9.52964e-06
3.58615e-05
1.24551e-05
3.53488e-05
1.52765e-05
3.46404e-05
1.80068e-05
3.37861e-05
2.06474e-05
3.28018e-05
2.31892e-05
3.16899e-05
2.5618e-05
3.0449e-05
2.79184e-05
2.90786e-05
3.00775e-05
2.75807e-05
3.20863e-05
2.59605e-05
3.39397e-05
2.42247e-05
3.56361e-05
2.23807e-05
3.71757e-05
2.04361e-05
3.856e-05
1.83981e-05
3.97903e-05
1.62737e-05
4.08679e-05
1.40705e-05
4.17932e-05
1.17966e-05
4.25659e-05
9.46087e-06
4.3184e-05
7.07426e-06
4.36451e-05
4.64809e-06
2.19133e-06
4.39497e-05
2.9709e-06
3.17496e-05
5.93443e-06
3.30448e-05
8.79695e-06
3.29989e-05
1.15473e-05
3.25985e-05
1.41941e-05
3.19935e-05
1.67485e-05
3.12317e-05
1.92161e-05
3.03342e-05
2.15955e-05
2.93105e-05
2.38797e-05
2.81648e-05
2.6059e-05
2.68993e-05
2.8123e-05
2.55167e-05
3.00628e-05
2.40207e-05
3.18716e-05
2.24159e-05
3.35448e-05
2.07076e-05
3.50792e-05
1.89017e-05
3.6473e-05
1.70043e-05
3.77247e-05
1.50219e-05
3.88333e-05
1.2962e-05
3.97969e-05
1.0833e-05
4.06138e-05
8.6441e-06
4.12816e-05
6.40654e-06
4.17964e-05
4.13329e-06
1.82656e-06
4.21607e-05
2.6307e-06
2.91187e-05
5.33166e-06
3.03438e-05
7.97421e-06
3.03564e-05
1.05271e-05
3.00456e-05
1.29859e-05
2.95347e-05
1.53549e-05
2.88626e-05
1.76391e-05
2.805e-05
1.98401e-05
2.71095e-05
2.19558e-05
2.60491e-05
2.39813e-05
2.48739e-05
2.59099e-05
2.35881e-05
2.77349e-05
2.21957e-05
2.94502e-05
2.07006e-05
3.10504e-05
1.91074e-05
3.25314e-05
1.74207e-05
3.38896e-05
1.56461e-05
3.51218e-05
1.37898e-05
3.62249e-05
1.18589e-05
3.7196e-05
9.86193e-06
3.80319e-05
7.80832e-06
3.87283e-05
5.71022e-06
3.92811e-05
3.58044e-06
1.41717e-06
3.96901e-05
2.29221e-06
2.68266e-05
4.71125e-06
2.79248e-05
7.11297e-06
2.79546e-05
9.45248e-06
2.77061e-05
1.1714e-05
2.72731e-05
1.38942e-05
2.66824e-05
1.59941e-05
2.59502e-05
1.80149e-05
2.50887e-05
1.99567e-05
2.41073e-05
2.18172e-05
2.30133e-05
2.35931e-05
2.18122e-05
2.52801e-05
2.05087e-05
2.68737e-05
1.91071e-05
2.83695e-05
1.76116e-05
2.97633e-05
1.60269e-05
3.10513e-05
1.43581e-05
3.22298e-05
1.26113e-05
3.3295e-05
1.07937e-05
3.4243e-05
8.91399e-06
3.50693e-05
6.98215e-06
3.57695e-05
5.0101e-06
3.63375e-05
3.01251e-06
9.81214e-07
3.67731e-05
1.97095e-06
2.48556e-05
4.1047e-06
2.5791e-05
6.25566e-06
2.58037e-05
8.37242e-06
2.55893e-05
1.04311e-05
2.52145e-05
1.24212e-05
2.46923e-05
1.43388e-05
2.40325e-05
1.61831e-05
2.32444e-05
1.79535e-05
2.23369e-05
1.96491e-05
2.13177e-05
2.12682e-05
2.01931e-05
2.28084e-05
1.89685e-05
2.42668e-05
1.76486e-05
2.56405e-05
1.6238e-05
2.69261e-05
1.47413e-05
2.81204e-05
1.31638e-05
2.92199e-05
1.15118e-05
3.0221e-05
9.79261e-06
3.11197e-05
8.0153e-06
3.19118e-05
6.19022e-06
3.2591e-05
4.33099e-06
3.3151e-05
2.45246e-06
5.43529e-07
3.35883e-05
1.67672e-06
2.31791e-05
3.53386e-06
2.3934e-05
5.43466e-06
2.39029e-05
7.32616e-06
2.36978e-05
9.17995e-06
2.33607e-05
1.09802e-05
2.28921e-05
1.27187e-05
2.2294e-05
1.43912e-05
2.15719e-05
1.59957e-05
2.07325e-05
1.75308e-05
1.97826e-05
1.89954e-05
1.87285e-05
2.03881e-05
1.75758e-05
2.17073e-05
1.63295e-05
2.29509e-05
1.49944e-05
2.41168e-05
1.35754e-05
2.52027e-05
1.20779e-05
2.6206e-05
1.05085e-05
2.71239e-05
8.87473e-06
2.7953e-05
7.18628e-06
2.86888e-05
5.45456e-06
2.93261e-05
3.69371e-06
2.98571e-05
1.92145e-06
1.22589e-07
3.02777e-05
1.41503e-06
2.17641e-05
3.0134e-06
2.23357e-05
4.67278e-06
2.22436e-05
6.34308e-06
2.20276e-05
7.99431e-06
2.17095e-05
9.6074e-06
2.1279e-05
1.11705e-05
2.0731e-05
1.26764e-05
2.0066e-05
1.4121e-05
1.92879e-05
1.55017e-05
1.84018e-05
1.68171e-05
1.74132e-05
1.80657e-05
1.63272e-05
1.92465e-05
1.51488e-05
2.03581e-05
1.38827e-05
2.13994e-05
1.25341e-05
2.23689e-05
1.11084e-05
2.32652e-05
9.61224e-06
2.40864e-05
8.05351e-06
2.48305e-05
6.44224e-06
2.54945e-05
4.79061e-06
2.60729e-05
3.11543e-06
2.65584e-05
1.43594e-06
-2.64102e-07
2.69448e-05
1.18846e-06
2.05758e-05
2.55199e-06
2.09723e-05
3.98603e-06
2.08096e-05
5.44536e-06
2.05683e-05
6.90089e-06
2.0254e-05
8.33223e-06
1.98477e-05
9.72526e-06
1.9338e-05
1.10705e-05
1.87208e-05
1.23616e-05
1.79968e-05
1.35947e-05
1.71688e-05
1.47672e-05
1.62408e-05
1.58772e-05
1.52172e-05
1.69234e-05
1.41025e-05
1.79049e-05
1.29013e-05
1.88208e-05
1.16183e-05
1.96703e-05
1.0259e-05
2.0453e-05
8.82955e-06
2.11685e-05
7.33797e-06
2.18164e-05
5.79442e-06
2.23949e-05
4.21222e-06
2.29013e-05
2.60902e-06
2.33285e-05
1.00873e-06
-6.04673e-07
2.36688e-05
9.98459e-07
1.95775e-05
2.15585e-06
1.9815e-05
3.38591e-06
1.95797e-05
4.65005e-06
1.93042e-05
5.92148e-06
1.89826e-05
7.18006e-06
1.85891e-05
8.41076e-06
1.81073e-05
9.6026e-06
1.7529e-05
1.07478e-05
1.68516e-05
1.18408e-05
1.60758e-05
1.28777e-05
1.52038e-05
1.3856e-05
1.4239e-05
1.47735e-05
1.3185e-05
1.56288e-05
1.2046e-05
1.64211e-05
1.08261e-05
1.71497e-05
9.53031e-06
1.7815e-05
8.16427e-06
1.84178e-05
6.73518e-06
1.89596e-05
5.25269e-06
1.94421e-05
3.72981e-06
1.98642e-05
2.18687e-06
2.02217e-05
6.51263e-07
-8.87925e-07
2.05047e-05
8.46186e-07
1.87315e-05
1.82993e-06
1.88314e-05
2.8827e-06
1.8527e-05
3.9723e-06
1.82147e-05
5.07553e-06
1.78794e-05
6.17397e-06
1.74907e-05
7.25299e-06
1.70283e-05
8.30109e-06
1.64809e-05
9.30946e-06
1.58433e-05
1.02714e-05
1.51139e-05
1.11818e-05
1.42935e-05
1.20366e-05
1.33842e-05
1.28328e-05
1.23888e-05
1.35681e-05
1.13108e-05
1.42405e-05
1.01537e-05
1.48494e-05
8.92146e-06
1.53949e-05
7.61879e-06
1.58788e-05
6.25132e-06
1.63044e-05
4.82705e-06
1.66764e-05
3.35795e-06
1.7e-05
1.86325e-06
1.72757e-05
3.7549e-07
-1.10601e-06
1.74936e-05
7.34158e-07
1.79975e-05
1.58116e-06
1.79845e-05
2.48708e-06
1.76212e-05
3.42666e-06
1.72752e-05
4.38132e-06
1.69248e-05
5.33573e-06
1.65363e-05
6.27686e-06
1.60872e-05
7.19367e-06
1.55642e-05
8.07698e-06
1.496e-05
8.91917e-06
1.42717e-05
9.71393e-06
1.34988e-05
1.04559e-05
1.26422e-05
1.11405e-05
1.17043e-05
1.17639e-05
1.06875e-05
1.23227e-05
9.59482e-06
1.28148e-05
8.42935e-06
1.32395e-05
7.19418e-06
1.35979e-05
5.89286e-06
1.38949e-05
4.53015e-06