/*--------------------------------*- C++ -*----------------------------------*\
  =========                 |
  \\      /  F ield         | OpenFOAM: The Open Source CFD Toolbox
   \\    /   O peration     | Website:  https://openfoam.org
    \\  /    A nd           | Version:  13
     \\/     M anipulation  |
\*---------------------------------------------------------------------------*/
FoamFile
{
    format      ascii;
    class       volScalarField;
    location    "1.1";
    object      rho;
}
// * * * * * * * * * * * * * * * * * * * * * * * * * * * * * * * * * * * * * //

dimensions      [1 -3 0 0 0 0 0];

internalField   nonuniform List<scalar> 
2268
(
13529
13529
13529
13529
13529
13529
13529
13529
13529
13529
13529
13529
13529
13529
13529
13529
13529
13529
13529
13529
13527.7
13521.8
13521.6
13529
13529
13529
13529
13529
13529
13529
13529
13529
13529
13529
13529
13529
13529
13529
13529
13529
13529
13529
13529
13529
13527.5
13521.6
13529
13529
13529
13529
13529
13529
13529
13529
13529
13529
13529
13529
13529
13529
13529
13529
13529
13529
13529
13529
13529
13529
13527.4
13529
13529
13529
13529
13529
13529
13529
13529
13529
13529
13529
13529
13529
13529
13529
13529
13529
13529
13529
13529
13529
13529
13528.9
13529
13529
13529
13529
13529
13529
13529
13529
13529
13529
13529
13529
13529
13441.6
13340.9
13238.5
13135.6
13023.6
12883.1
12698.6
12565.1
12595.2
12888.8
13529
13529
13529
13529
13529
13529
13529
13529
13312.9
12078.9
10579
9026.34
7566.14
6546.44
5834.02
5331.55
4948.02
4612.2
4243
3832.99
3741.24
4157.1
4478.81
13529
13529
13529
13529
13529
13529
12498.1
9163.9
5195.25
2863.28
1601.63
1082.64
1013.6
1000.7
1000
999.999
999.996
999.973
999.747
998.355
960.655
848.377
791.829
13529
13529
13529
13522.4
12965
9159.88
3658.15
1307.19
1000
1000
1000
1000
1000
1000
1000
1000
999.999
999.997
1000.79
1077.78
1145.06
985.49
811.88
962.162
942.249
1361.65
2776.76
2835.68
1647.45
1736.29
5179.76
9831.95
7404.53
5513.68
5506.55
6901.27
9422.59
9491.11
9522.06
9531.34
9377.75
9458.06
986.255
2045.5
2665.52
3775.4
4392.61
3219.87
1646.53
6338.15
11766.8
11775.4
10064.7
8339.01
7495.75
8504.46
9408.06
9343.91
8364.19
8913.02
9365.75
998.73
2016.96
2070.57
2462.95
4760.92
5100.81
3975.21
7222.88
11817.3
11831.7
11814
11773.9
10280.5
4001.93
4476.84
4265.49
4025.67
8498.72
8474.99
979.881
1214.08
1033.33
1001.82
1391.17
5787.28
8899.59
9286.19
9457.61
10075.6
11645.1
11625.4
8466.66
3225.7
3139.21
3140.28
3384.98
5661.5
7640.03
957.895
1084.27
1002.4
1001.29
1003.02
1654.1
4832.71
4988.09
2873.82
2791.37
6559.05
9777.29
8936.56
6691.54
4588.41
3662
5517.66
3636.91
5304
1109.52
705.984
969.43
999.896
1001.63
1003.1
1003.03
1015.45
1003.17
1007.47
3523.32
6051.34
5680.13
7023.41
7451.67
7636.02
4755.02
2266.06
2317.06
702.105
539.488
680.065
993.587
999.75
1001.55
1003.05
1003.14
1003.02
1038.23
2633.98
3465.52
3746.09
3581.32
3552.62
3015.84
2051.48
1218.56
1269.47
372.295
315.35
426.423
865.022
993.546
999.754
1000.51
1001.55
1002.4
1092.83
1446.18
889.269
424.601
558.738
782.289
1059.08
839.943
725.312
907.188
11775.2
11663.1
10230.5
7017.97
3081.65
1175.14
1000
1000
1000
1000
1000
1000
1000
1000
1000
1000
1000
1000.02
985.065
1155.43
942.493
730.085
452.619
2037.39
2147.13
1198.2
1000
1000
1000
1000
1000
1000
1000
1000
1000
1000
1000
1000
1000
964.055
710.077
440.215
410.23
500.016
499.76
498.427
1000
1000
1000
1000
1000
1000
1000
1000
1000
1000
1000
1000
1000
999.992
900.833
632.462
412.358
455.354
487.79
491.485
500
500
500.002
1000
1000
1000
1000
1000
1000
1000
1000
1000
1000
1000
1000
788.083
582.676
394.19
471.589
465.641
490.955
500.012
499.998
499.999
500
500
1000
1000
1000
1000
1000
1000
1000
1000
1000
985.654
728.918
574.022
377.416
427.28
462.345
499.961
499.993
499.994
499.996
499.997
500
500
500
1000
1000
1000
1000
1000
1000
999.989
991.564
770.074
598.399
396.961
402.488
472.018
499.9
499.999
500
499.989
499.993
499.997
499.999
500
500
500
1000
1000
1000
1000
1000
999.866
928.877
692.034
487.636
373.242
473.871
497.12
500
500
499.999
499.989
499.989
500
500
500
500
500
500
1000
1000
1000
1000
999.988
951.847
626.882
381.762
449.88
494.767
499.999
500
500
500
499.999
499.998
500
500
500
500
499.258
454.5
300.918
1000
1000
999.999
999.928
962.26
622.154
454.047
492.679
499.985
500
500
500
500
500
500
500
491.879
418.888
295.443
186.694
137.303
93.6507
18.0103
1000
1000
973.631
863.447
574.403
495.309
499.955
499.992
500.01
500.004
500
500
484.069
432.777
348.356
231.707
123.183
56.5339
11.5932
1.00015
1.00023
1.00018
1.00019
903.911
541.229
316.118
223.842
381.692
499.945
500.046
500.03
448.585
364.171
285.004
198.713
116.109
62.3991
21.5522
1.61318
0.999989
1.00005
1.00022
1.00006
1.00008
1.00025
1.00032
174.229
9.64
1.08101
4.83954
107.056
198.081
215.717
154.947
67.7688
23.4456
6.53317
1.00053
1.00034
1.00042
1.00027
1.00009
1.00004
1
1.00001
1.00003
1.00011
1.00059
1.00086
1.00095
1.00307
1.00497
1.05175
1.00002
1.00053
1.04055
1.00152
1.00025
1.00029
1.00039
1.00032
1.00022
1.00044
1.00086
1.00044
1
1.00001
1.00002
1.00002
1.00004
1.00029
1.00043
0.999915
1.00014
1.00133
1.00136
1.00012
1.00009
1.00009
1.0001
1.00009
1.00013
1.00013
1.0001
1.00015
1.00754
1.01442
1.00645
1.00234
1.0017
1.00041
1.00001
1.00002
1.00004
1.00008
1.0001
1.00002
1.00029
1.00042
1.00004
1.00006
1.00005
1.00003
1.00004
1.00007
1.00008
1.00008
1.00006
1.00282
1.06968
1.0751
1.05034
1.00392
1.00392
1.00393
1.00391
1.00381
1.00248
1.00001
1.00002
1.00006
1.00015
1.00004
1.00009
1.00005
1.00002
1.00002
1.00004
1.00006
1.00007
1.00007
1.00007
1.01548
1.08791
1.09749
1.09903
1.07311
1.00307
1.0036
1.00403
1.00469
1.00001
1.00002
1.00003
1.00003
1.00003
1.0001
1.00008
1.00002
1.00002
1.00002
1.00003
1.00005
1.00007
1.00011
1.00009
1.00601
1.03618
1.06388
1.08019
1.05966
1.01201
1.00092
1.00099
1.00001
1.00001
1.00002
1.00002
1.00002
1.00009
1.00009
1.00002
1.00002
1.00001
1.00002
1.00003
1.00004
1.00006
1.00007
1.00004
1.00002
1.00051
1.00469
1.01299
1.01084
1.00057
1.00005
1.00001
1.00001
1.00001
1.00001
1.00001
1.00005
1.00007
1.00003
1.00002
1.00001
1.00001
1.00001
1.00002
1.00003
1.00004
1.00003
1.00002
1.00001
1.00001
1.00015
1.00004
1.00021
1.00002
1.00001
1
1
1
1.00001
1.00002
1.00003
1.00002
1.00001
1.00001
1.00001
1.00001
1.00001
1.00001
1.00002
1.00002
1.00001
1.00001
1.00001
1.00001
1.00001
1.00001
1.00001
1
1
1
1
1
1.00001
1.00001
1.00001
1.00001
1.00001
1
1
1.00001
1.00001
1.00001
1.00001
1.00001
1.00001
1
1
1
1
1
1
1
1
1
1
1
1.00001
1
1
1
1
1
1
1
1
1
1
1
1
1
1
1
1
1
1
1
1
1
1
1
1
1
1
1
1
1
1
1
1
1
1
1
1
1
1
1
1
1
1
1
1
1
1
1
1
1
1
1
1
1
1
1
1
1
1
1
1
1
1
1
1
1
1
1
1
1
1
1
1
1
1
1
1
1
1
1
1
1
1
1
1
1
1
1
1
1
1
1
1
1
1
1
1
1
1
1
1
1
1
1
1
1
1
1
1
1
1
1
1
1
1
1
1
1
1
1
1
1
1
1
1
1
1
1
1
1
1
1
1
1
1
1
1
1
1
1
1
1
1
1
1
1
1
1
1
1
1
1
1
1
1
1
1
1
1
1
1
1
1
1
1
1
1
1
1
1
1
1
1
1
1
1
1
1
1
1
1
1
1
1
1
1
1
1
1
1
1
1
1
1
1
1
1
1
1
1
1
1
1
1
1
1
1
1
1
1
1
1
1
1
1
1
1
1
1
1
1
1
1
1
1
1
1
1
1
1
1
1
1
1
1
1
1
1
1
1
1
1
1
1
1
1
1
1
1
1
1
1
1
1
1
1
1
1
1
1
1
1
1
1
1
1
1
1
1
1
1
1
1
1
1
1
1
1
1
1
1
1
1
1
1
1
1
1
1
1
1
1
1
1
1
1
1
1
1
1
1
1
1
1
1
1
1
1
1
1
1
1
1
1
1
1
1
1
1
1
1
1
1
1
1
1
1
1
1
1
1
1
1
1
1
1
1
1
1
1
1
1
1
1
1
1
1
1
1
1
1
1
1
1
1
1
1
1
1
1
1
1
1
1
1
1
1
1
1
1
1
1
1
1
1
1
1
1
1
1
1
1
1
1
1
1
1
1
1
1
1
1
1
1
1
1
1
1
1
1
1
1
1
1
1
1
1
1
1
1
1
1
1
1
1
1
1
1
1
1
1
1
1
1
1
1
1
1
1
1
1
1
1
1
1
1
1
1
1
1
1
1
1
1
1
1
1
1
1
1
1
1
1
1
1
1
1
1
1
1
1
1
1
1
1
1
1
1
1
1
1
1
1
1
1
1
1
506.389
506.328
504.311
460.695
500.742
500.939
500.103
498.055
499.964
500.011
499.997
500
500
500
500
500
500
500
500
500
500
500
500
500
500
500
500
500
332.93
431.378
400.207
321.196
11.6918
28.234
23.4577
12.1261
1.00015
1.00012
1.00059
1.00061
1.00038
1.00058
1.00072
1.0008
1.00084
1.00095
1.00099
1.00098
1.00037
1.00048
1.0009
1.00098
1.00005
1.00006
1.00011
1.00012
1.0001
1.00013
1.00028
1.00026
1.00486
1.00501
1.00349
1.00149
1.0016
1.00304
1.00218
1.00045
1.00015
1.00009
1.00006
1.00001
1.00002
1.00001
1.00001
1.00001
1.00001
1.00001
1.00001
1.00001
1
1.00001
1.00001
1.00001
1
1
1
1
1
1
1
1
1
1
1
1
1
1
1
1
1
1
1
1
1
1
1
1
1
1
1
1
1
1
1
1
1
1
1
1
1
1
1
1
1
1
1
1
1
1
1
1
1
1
1
1
1
1
1
1
1
1
1
1
1
1
1
1
1
1
1
1
1
1
1
1
1
1
1
1
1
1
1
1
1
1
1
1
413.906
493.76
498.02
502.841
728.595
971.4
999.471
999.932
1001.12
1043.14
1079.85
764.666
751.525
848.436
968.601
821.457
780.457
614.915
520.576
500
500
500.002
499.981
496.323
580.161
875.73
999.732
1000.71
1000.57
998.519
991.641
918.291
803.288
625.13
535.189
503.581
496.41
418.427
500.001
500.001
500.001
500.003
500.007
499.891
517.33
667.426
866.945
929.204
888.741
743.097
583.736
499.462
498.737
497.837
497.15
470.353
400.77
500
500
500
500.002
500.004
500.004
500.002
499.982
509.146
523.16
511.422
499.595
499.704
499.348
499.625
499.585
499.368
489.99
360.156
500
500
500
500
500.001
500.001
500.001
500.001
500.001
499.998
499.74
499.984
500.235
477.953
416.138
376.876
425.162
465.36
450.35
500
500
500
500
500
500
500
500
500
500
488.217
422.731
282.998
129.41
47.9762
31.1961
93.3098
249.151
352.468
500
500
500
500
499.794
497.437
489.528
467.861
417.782
309.157
156.629
43.8437
1.00013
1.00038
1.01016
1.09207
9.55438
62.7109
78.3919
301.212
299.68
302.655
287.78
256.038
211.936
156.129
92.4681
31.2844
1
1.00004
1.00002
1.00013
1.00369
1.02602
6.45749
8.4401
1.0017
1.00191
7.06839
4.02968
2.10533
1
1
1.00001
1.00002
1.00002
1
1.00005
1.11322
1.33585
1.24198
1.05628
2.03911
3.55156
2.16752
1.00118
1.00121
1.00049
1.00012
1.00007
1.00007
1.00008
1.00019
1.00028
1.00014
1
1.01883
1.57095
1.69441
1.65591
1.01479
1.00058
1.00056
1.0005
1.00122
1.00142
1.0007
1.0004
1.00025
1.00016
1.00013
1.00034
1.00136
1.00172
1.00029
1.04037
1.34095
1.36247
1.00032
1.00006
1.00013
1.00017
1.00032
1.00063
1.00139
1.00098
1.00099
1.00085
1.00009
1.00006
1.00011
1.0016
1.00295
1.0026
1.00048
1
1
1.00001
1.00009
1.00025
1.00039
1.00037
1.00005
1.00046
1.00098
1.00076
1.00041
1.00006
1.00004
1.00011
1.00015
1.00009
1
1
1
1.00001
1.00003
1.00012
1.00021
1.00027
1.00014
1.00005
1.00032
1.00009
1.00003
1.00002
1.00002
1.00002
1.00001
1
1
1
1
1
1.00001
1.00001
1.00002
1.00004
1.00002
1
1.00006
1.00086
1.00014
1.00001
1.00001
1.00001
1.00001
1.00001
1
1
1
1
1
1
1
1
1
1
1
1.00006
1.00084
1.00002
1.00003
1.00003
1.00003
1.00001
1.00001
1.00001
1
1
1
1
1
1
1
1
1
1
1.00006
1.00082
1.00026
1.00016
1.00005
1.00003
1.00002
1.00001
1.00001
1
1
1
1
1
1
1
1
1
1
1.00012
1.00048
1.00001
1.00001
1.00006
1.00003
1.00001
1.00001
1.00001
1
1
1
1
1
1
1
1
1
1
1.00014
1.00046
1.00001
1.00001
1.00002
1.00001
1.00001
1.00001
1.00001
1
1
1
1
1
1
1
1
1
1
1.00014
1.00059
1.00001
1.00001
1.00001
1.00001
1.00001
1
1
1
1
1
1
1
1
1
1
1
1
1.00005
1.00036
1.00001
1.00001
1
1
1
1
1
1
1
1
1
1
1
1
1
1
1
1.00001
1.00001
1
1
1
1
1
1
1
1
1
1
1
1
1
1
1
1
1
1
1.00001
1
1
1
1
1
1
1
1
1
1
1
1
1
1
1
1
1
1.00001
1.00001
1
1
1
1
1
1
1
1
1
1
1
1
1
1
1
1
1.00001
1.00001
1.00001
1
1
1
1
1
1
1
1
1
1
1
1
1
1
1
1
1.00001
1.00001
1.00001
1
1
1
1
1
1
1
1
1
1
1
1
1
1
1
1
1.00001
1.00001
1.00001
1
1
1
1
1
1
1
1
1
1
1
1
1
1
1
1.00001
1.00001
1.00002
1.00001
1
1
1
1
1
1
1
1
1
1
1
1
1
1
1
1.00001
1.00003
1.00003
1.00001
1
1
1
1
1
1
1
1
1
1
1
1
1
1
1
1.00002
1.00004
1.00005
1.00001
1
1
1
1
1
1
1
1
1
1
1
1
1
1
1.00001
1.00003
1.00006
1.00005
1.00001
1
1
1
1
1
1
1
1
1
1
1
1
1
1
1.00001
1.00004
1.00006
1.00006
1.00001
1
1
1
1
1
1
1
1
1
1
1
1
1
1
1.00001
1.00004
1.00006
1.00004
1.00001
1
1
1
1
1
1
1
1
1
1
1
1
1
1
1.00001
1.00003
1.00005
1.00003
1
1
1
1
1
1
1
1
1
1
1
1
1
1
1.00001
1.00001
1.00002
1.00003
1.00001
1
1
1
1
1
1
1
1
1
1
1
1
1
1
1
1.00001
1.00001
1
1
1
1
1
1
1
1
1
1
1
1
1
1
1
1
1
1
1
1
1
1
1
1
1
1
1
1
1
1
1
1
1
1
1
1
1
1
1
1
1
1
1
1
1
1
1
1
1
1
1
1
1
1
1
1
1
1
1
1
1
1
1
1
1
1
1
1
1
1
1
1
1
1
1
1
1
1
1
1
1
1
1
1
1
1
1
1
1
1
1
1
1
1
1
1
1
1
1
1
1
1
1
1
1
1
1
1
1
1
1
1
1
1
1
1
1
1
1
1
1
1
1
1
1
1
1
1
1
1
1
1
1
1
1
1
)
;

boundaryField
{
    leftWall
    {
        type            calculated;
        value           nonuniform List<scalar> 
50
(
13529
13529
13529
13529
13529
13529
13529
13529
11775.2
2037.39
1000
1000
1000
1000
1000
1000
1000
1000
903.911
174.229
1.00095
0.999915
1.0001
1.00001
1.00001
1.00001
1.00001
1.00001
1
1
1
1
1
1
1
1
1
1
1
1
1
1
1
1
1
1
1
1
1
1
)
;
    }
    rightWall
    {
        type            calculated;
        value           nonuniform List<scalar> 
50
(
9458.06
9365.75
8474.99
7640.03
5304
2317.06
1269.47
907.188
520.576
418.427
400.77
360.156
450.35
352.468
78.3919
1.00191
1.00121
1.00142
1.00139
1.00046
1.00032
1.00086
1.00084
1.00082
1.00048
1.00046
1.00059
1.00036
1.00001
1.00001
1.00001
1.00001
1.00001
1.00001
1.00001
1.00001
1.00001
1.00001
1.00001
1.00001
1
1
1
1
1
1
1
1
1
1
)
;
    }
    lowerWall
    {
        type            calculated;
        value           nonuniform List<scalar> 
62
(
13529
13529
13529
13529
13529
13529
13529
13529
13529
13529
13529
13529
13529
13529
13529
13529
13529
13529
13529
13529
13527.7
13521.8
13521.6
13521.6
13521.6
13527.4
13528.9
12888.8
4478.81
791.829
811.88
506.389
506.328
504.311
460.695
962.162
986.255
998.73
979.881
957.895
1109.52
702.105
372.295
962.162
942.249
1361.65
2776.76
2835.68
1647.45
1736.29
5179.76
9831.95
7404.53
5513.68
5506.55
6901.27
9422.59
9491.11
9522.06
9531.34
9377.75
9458.06
)
;
    }
    atmosphere
    {
        type            calculated;
        value           nonuniform List<scalar> 
46
(
1
1
1
1
1
1
1
1
1
1
1
1
1
1
1
1
1
1
1
1
1
1
1
1
1
1
1
1
1
1
1
1
1
1
1
1
1
1
1
1
1
1
1
1
1
1
)
;
    }
    defaultFaces
    {
        type            empty;
    }
}


// ************************************************************************* //
