/*--------------------------------*- C++ -*----------------------------------*\
  =========                 |
  \\      /  F ield         | OpenFOAM: The Open Source CFD Toolbox
   \\    /   O peration     | Website:  https://openfoam.org
    \\  /    A nd           | Version:  13
     \\/     M anipulation  |
\*---------------------------------------------------------------------------*/
FoamFile
{
    format      ascii;
    class       volVectorField;
    location    "1.1";
    object      U;
}
// * * * * * * * * * * * * * * * * * * * * * * * * * * * * * * * * * * * * * //

dimensions      [0 1 -1 0 0 0 0];

internalField   nonuniform List<vector> 
2268
(
(0.028728 -0.0115998 0)
(0.0409465 0.00350936 0)
(0.0306896 0.00525323 0)
(0.0275811 0.00358314 0)
(0.0226296 0.00277646 0)
(0.0174949 0.00210208 0)
(0.0102795 0.00213007 0)
(0.00164768 0.00219922 0)
(-0.00756169 0.00213235 0)
(-0.0161034 0.00171446 0)
(-0.0229111 0.00106209 0)
(-0.0275123 0.000384596 0)
(-0.0298809 -0.000214128 0)
(-0.030261 -0.000871576 0)
(-0.0289603 -0.0014206 0)
(-0.0261742 -0.00192294 0)
(-0.021914 -0.00251282 0)
(-0.0159884 -0.00327942 0)
(-0.00824517 -0.00418675 0)
(0.00138725 -0.00497551 0)
(0.0115005 -0.00490583 0)
(0.0197702 -0.00227387 0)
(0.0212988 0.00738586 0)
(0.0113672 -0.0235529 0)
(0.0288315 -0.00176727 0)
(0.0319015 0.00161717 0)
(0.0368294 0.00205421 0)
(0.0359652 0.00341751 0)
(0.0313821 0.00459403 0)
(0.0230046 0.00621941 0)
(0.0123895 0.00705058 0)
(0.00125716 0.00700065 0)
(-0.00892387 0.00602169 0)
(-0.0171333 0.00447223 0)
(-0.0229999 0.00280917 0)
(-0.0266353 0.00130202 0)
(-0.0282582 -8.21093e-05 0)
(-0.0281207 -0.0012797 0)
(-0.0265166 -0.00235883 0)
(-0.0235847 -0.00347575 0)
(-0.0193471 -0.00471508 0)
(-0.0139008 -0.00595526 0)
(-0.00746591 -0.00678746 0)
(-0.00110716 -0.00622102 0)
(0.00467321 -0.0024355 0)
(0.00828529 0.0124682 0)
(0.00286406 -0.0302488 0)
(0.0266557 -0.00768226 0)
(0.0380844 -0.00251265 0)
(0.0474053 0.000509 0)
(0.048271 0.00434879 0)
(0.0433288 0.00766528 0)
(0.0336819 0.0107718 0)
(0.0214573 0.0122333 0)
(0.00889759 0.0121254 0)
(-0.00246656 0.0105016 0)
(-0.0116581 0.0079605 0)
(-0.0184006 0.00521843 0)
(-0.022845 0.00267227 0)
(-0.0252592 0.000445976 0)
(-0.0259253 -0.00145681 0)
(-0.025165 -0.00314441 0)
(-0.0232059 -0.00480352 0)
(-0.020214 -0.00652543 0)
(-0.0164348 -0.00812776 0)
(-0.0121522 -0.00908256 0)
(-0.00834895 -0.00824726 0)
(-0.00494712 -0.00417423 0)
(-0.0029022 0.0124473 0)
(0.00156385 -0.0372032 0)
(0.0310992 -0.0170141 0)
(0.0481714 -0.00898341 0)
(0.0597931 -0.00206941 0)
(0.0611432 0.00529076 0)
(0.0552497 0.0112896 0)
(0.044139 0.0163064 0)
(0.0304095 0.0185771 0)
(0.0166188 0.0182575 0)
(0.00419502 0.01582 0)
(-0.00585891 0.0121234 0)
(-0.0133548 0.00818305 0)
(-0.0184772 0.004557 0)
(-0.0215327 0.00137455 0)
(-0.0228476 -0.0013075 0)
(-0.0227837 -0.00361583 0)
(-0.0216412 -0.00576865 0)
(-0.0196968 -0.00786947 0)
(-0.0172739 -0.0097115 0)
(-0.0145521 -0.0106704 0)
(-0.0124693 -0.00941702 0)
(-0.0109354 -0.00513208 0)
(-0.0123172 0.00848689 0)
(0.00581294 -0.0462887 0)
(0.0402327 -0.0286708 0)
(0.061018 -0.0168359 0)
(0.0735449 -0.00509955 0)
(0.0744736 0.00659884 0)
(0.0673173 0.0159009 0)
(0.0547731 0.0228913 0)
(0.0395527 0.0257744 0)
(0.0246397 0.0250449 0)
(0.0113855 0.0214223 0)
(0.000602194 0.016291 0)
(-0.0075345 0.0110437 0)
(-0.0132355 0.00635422 0)
(-0.0168327 0.00231647 0)
(-0.0186865 -0.0010335 0)
(-0.0192162 -0.00383278 0)
(-0.0187826 -0.00633409 0)
(-0.017778 -0.00866304 0)
(-0.0165654 -0.0106377 0)
(-0.0149548 -0.0116217 0)
(-0.0136268 -0.0100619 0)
(-0.0126441 -0.0059014 0)
(-0.0175203 0.00088636 0)
(0.0142833 -0.0594494 0)
(0.0521395 -0.0423481 0)
(0.075005 -0.0254734 0)
(0.0874724 -0.00802583 0)
(0.0875583 0.00863247 0)
(0.078837 0.0212868 0)
(0.064868 0.0300877 0)
(0.0485966 0.0325707 0)
(0.0331581 0.0306444 0)
(0.0196626 0.0258511 0)
(0.00872483 0.0196735 0)
(0.00038748 0.0134837 0)
(-0.00538122 0.00800225 0)
(-0.00909719 0.0033119 0)
(-0.0112657 -0.000574491 0)
(-0.0123273 -0.00377748 0)
(-0.0126858 -0.00654951 0)
(-0.012895 -0.00901271 0)
(-0.0132972 -0.0110435 0)
(-0.0124238 -0.0121864 0)
(-0.0100435 -0.0102131 0)
(-0.00699398 -0.00588699 0)
(-0.0105413 -0.00489326 0)
(0.024959 -0.0790494 0)
(0.0640952 -0.0576783 0)
(0.0877942 -0.0343232 0)
(0.0996406 -0.0105688 0)
(0.0985644 0.011268 0)
(0.0882955 0.0261679 0)
(0.0742122 0.0356175 0)
(0.0586891 0.0381459 0)
(0.0447924 0.0359569 0)
(0.0328271 0.0305214 0)
(0.0229985 0.0236927 0)
(0.0152132 0.0168529 0)
(0.0101328 0.0105851 0)
(0.00698247 0.00506076 0)
(0.00477013 0.000532822 0)
(0.00290067 -0.00312846 0)
(0.000879479 -0.00610494 0)
(-0.00225229 -0.0084109 0)
(-0.00682604 -0.0104784 0)
(-0.00761843 -0.0136894 0)
(-0.00153971 -0.0127431 0)
(0.00766788 -0.00765755 0)
(0.0165048 -9.1274e-05 0)
(0.0339572 -0.102238 0)
(0.0721007 -0.0721166 0)
(0.0956367 -0.0418411 0)
(0.106811 -0.0123605 0)
(0.105546 0.0134556 0)
(0.0961377 0.0306853 0)
(0.0837451 0.0413676 0)
(0.0690451 0.0446188 0)
(0.0580848 0.0438959 0)
(0.0530684 0.0382565 0)
(0.0509874 0.0304743 0)
(0.0485336 0.0219304 0)
(0.044189 0.0137683 0)
(0.0392416 0.00724357 0)
(0.0337654 0.00236621 0)
(0.0274952 -0.00118806 0)
(0.0200682 -0.00362588 0)
(0.0101987 -0.00462303 0)
(-0.0025338 -0.00661907 0)
(-0.0105473 -0.0154996 0)
(-0.00878053 -0.0175319 0)
(-0.00243534 -0.0134939 0)
(-0.00556421 -0.000891179 0)
(-0.226056 0.0618466 0)
(-0.239634 0.00310675 0)
(-0.267901 0.00482355 0)
(-0.30584 0.019815 0)
(-0.359497 0.0350062 0)
(-0.513504 0.0446458 0)
(-0.684414 0.0130496 0)
(-0.652317 -0.0277087 0)
(-0.553943 -0.0467212 0)
(-0.480758 -0.0364409 0)
(-0.393674 -0.0359637 0)
(-0.283063 -0.0361869 0)
(-0.174302 -0.0160234 0)
(-0.16106 0.00661998 0)
(-0.177285 0.000274176 0)
(-0.168988 -0.0104744 0)
(-0.140124 -0.016814 0)
(-0.0728935 -0.0339401 0)
(-0.036937 -0.0277403 0)
(-0.156723 0.128669 0)
(-0.134211 0.0161798 0)
(-0.180087 0.024742 0)
(-0.253601 0.0432459 0)
(-0.318992 0.0610879 0)
(-0.389569 0.0745598 0)
(-0.479466 0.0597784 0)
(-0.485941 -0.00935182 0)
(-0.458269 -0.0507081 0)
(-0.429891 -0.0499793 0)
(-0.377662 -0.0617105 0)
(-0.291061 -0.076636 0)
(-0.18914 -0.0573994 0)
(-0.123295 0.00229049 0)
(-0.110044 0.000428114 0)
(-0.0903821 -0.0130505 0)
(-0.0582214 -0.018406 0)
(-0.00321942 -0.0412079 0)
(0.00326782 -0.0218487 0)
(-0.084564 0.174563 0)
(-0.0811656 0.0274807 0)
(-0.153634 0.0458705 0)
(-0.237167 0.0707105 0)
(-0.317036 0.0853042 0)
(-0.355221 0.0902484 0)
(-0.375096 0.0620811 0)
(-0.389683 -0.00827394 0)
(-0.397289 -0.0541269 0)
(-0.394498 -0.0599353 0)
(-0.358459 -0.0837797 0)
(-0.292149 -0.106737 0)
(-0.217341 -0.0883654 0)
(-0.13303 -0.014133 0)
(-0.0701295 -0.0115631 0)
(-0.0270218 -0.0246529 0)
(0.0275934 -0.0277054 0)
(0.0552457 -0.0454016 0)
(0.0422268 -0.0169518 0)
(-0.0161944 0.202156 0)
(-0.0517319 0.0545694 0)
(-0.143024 0.0806857 0)
(-0.218208 0.107446 0)
(-0.305378 0.112889 0)
(-0.331836 0.0975089 0)
(-0.331169 0.0607353 0)
(-0.335139 -2.81639e-05 0)
(-0.354867 -0.0501897 0)
(-0.366682 -0.0650846 0)
(-0.338841 -0.101845 0)
(-0.286428 -0.132773 0)
(-0.231064 -0.118406 0)
(-0.155646 -0.0601149 0)
(-0.0614098 -0.0451383 0)
(0.0146554 -0.0527563 0)
(0.0948811 -0.056289 0)
(0.102202 -0.0402012 0)
(0.0894179 0.00869191 0)
(0.0320896 0.20183 0)
(-0.0444322 0.0916813 0)
(-0.13755 0.116689 0)
(-0.194786 0.139428 0)
(-0.250263 0.143574 0)
(-0.294166 0.104496 0)
(-0.296804 0.0593697 0)
(-0.298893 0.00247947 0)
(-0.322292 -0.045556 0)
(-0.342627 -0.0667386 0)
(-0.311774 -0.118427 0)
(-0.269401 -0.154163 0)
(-0.225495 -0.142029 0)
(-0.161119 -0.100284 0)
(-0.0753397 -0.0919416 0)
(0.0173512 -0.0996654 0)
(0.101732 -0.0850537 0)
(0.119888 -0.0332622 0)
(0.122195 0.0477908 0)
(0.0407444 0.192451 0)
(-0.0558151 0.131735 0)
(-0.138441 0.143285 0)
(-0.18149 0.15639 0)
(-0.210451 0.156231 0)
(-0.23517 0.120103 0)
(-0.253043 0.0585901 0)
(-0.263949 0.00389661 0)
(-0.287501 -0.0346484 0)
(-0.303213 -0.0657845 0)
(-0.274347 -0.135134 0)
(-0.246328 -0.17085 0)
(-0.20966 -0.159962 0)
(-0.152542 -0.125442 0)
(-0.0773767 -0.121406 0)
(0.00316092 -0.128909 0)
(0.0764211 -0.104699 0)
(0.103124 -0.0313483 0)
(0.129568 0.0994337 0)
(0.00978206 0.209148 0)
(-0.0758445 0.169973 0)
(-0.139515 0.166927 0)
(-0.172107 0.168624 0)
(-0.188133 0.162485 0)
(-0.198118 0.125017 0)
(-0.209402 0.0699425 0)
(-0.223442 0.0167816 0)
(-0.242436 -0.0255997 0)
(-0.247739 -0.0676605 0)
(-0.231466 -0.144724 0)
(-0.216607 -0.181032 0)
(-0.193003 -0.176351 0)
(-0.146245 -0.147664 0)
(-0.075664 -0.144585 0)
(-0.00522971 -0.151444 0)
(0.052772 -0.123036 0)
(0.0740982 -0.035607 0)
(0.114217 0.147871 0)
(-0.0545414 0.24746 0)
(-0.101273 0.199519 0)
(-0.134826 0.187929 0)
(-0.161135 0.177473 0)
(-0.17257 0.166378 0)
(-0.176394 0.127682 0)
(-0.18241 0.0730189 0)
(-0.192046 0.022558 0)
(-0.202629 -0.022067 0)
(-0.199008 -0.0726988 0)
(-0.187825 -0.149858 0)
(-0.184323 -0.18948 0)
(-0.173935 -0.190639 0)
(-0.127416 -0.170862 0)
(-0.0635602 -0.177763 0)
(-0.00742958 -0.180943 0)
(0.0341618 -0.145579 0)
(0.0529844 -0.0465009 0)
(0.0946815 0.178325 0)
(0.0389382 -0.116982 0)
(0.0732487 -0.0830927 0)
(0.0947769 -0.049315 0)
(0.107302 -0.0168789 0)
(0.110481 0.0162623 0)
(0.100494 0.0399997 0)
(0.0879018 0.0594451 0)
(0.0832375 0.0633741 0)
(0.083272 0.051978 0)
(0.0845551 0.03977 0)
(0.0843786 0.0302948 0)
(0.081521 0.0228507 0)
(0.0756469 0.0167922 0)
(0.0673492 0.0116545 0)
(0.0571848 0.00805576 0)
(0.045049 0.00587205 0)
(0.0310612 0.00459223 0)
(0.0144602 0.00521921 0)
(-0.00620379 0.00299931 0)
(-0.0272329 -0.011112 0)
(-0.0413075 -0.0136602 0)
(-0.0575987 -0.00480605 0)
(-0.0850335 0.0256597 0)
(0.0359935 -0.199696 0)
(0.0474417 -0.128866 0)
(0.0511725 -0.0701128 0)
(0.0452428 -0.0251752 0)
(0.0422253 0.0251554 0)
(0.0497911 0.0531537 0)
(0.0635368 0.0535441 0)
(0.077322 0.0474718 0)
(0.0873722 0.0406331 0)
(0.0920505 0.0348913 0)
(0.0913757 0.0308816 0)
(0.0860445 0.0279483 0)
(0.0766517 0.0260805 0)
(0.0638627 0.0235031 0)
(0.0489195 0.0218501 0)
(0.0309499 0.0213387 0)
(0.00987007 0.022503 0)
(-0.0121927 0.0283961 0)
(-0.0357762 0.0329837 0)
(-0.0714287 0.0156482 0)
(-0.112893 0.0132564 0)
(-0.150001 0.0304252 0)
(-0.177919 0.0572127 0)
(-0.04226 -0.235706 0)
(-0.0374467 -0.13435 0)
(-0.0358602 -0.0599259 0)
(-0.0254094 -0.0191887 0)
(-0.00673673 0.01046 0)
(0.0189789 0.0258743 0)
(0.0439872 0.0301054 0)
(0.0629666 0.0311747 0)
(0.0743606 0.0317767 0)
(0.0781202 0.0330074 0)
(0.0750428 0.0352602 0)
(0.0666071 0.0363812 0)
(0.0540726 0.0386432 0)
(0.0365229 0.038393 0)
(0.0164439 0.0406794 0)
(-0.00728441 0.0463243 0)
(-0.0376558 0.0522978 0)
(-0.0777243 0.0571453 0)
(-0.110677 0.0646799 0)
(-0.14192 0.0607726 0)
(-0.175474 0.05671 0)
(-0.205551 0.0636139 0)
(-0.225203 0.0754723 0)
(-0.0512627 -0.143071 0)
(-0.05591 -0.108974 0)
(-0.0562423 -0.0693369 0)
(-0.0438806 -0.040685 0)
(-0.0220931 -0.0184376 0)
(0.00377497 -0.00299129 0)
(0.0268884 0.00735744 0)
(0.0429324 0.0163755 0)
(0.0506833 0.0254777 0)
(0.0506651 0.0337482 0)
(0.0438784 0.0425058 0)
(0.0306934 0.0476022 0)
(0.0151151 0.0567144 0)
(-0.008199 0.062264 0)
(-0.0390064 0.0695995 0)
(-0.0774405 0.0774073 0)
(-0.109173 0.0907505 0)
(-0.138645 0.0930579 0)
(-0.165297 0.0927227 0)
(-0.19116 0.0883081 0)
(-0.217225 0.0841999 0)
(-0.239838 0.0851125 0)
(-0.255104 0.0883673 0)
(-0.0306195 -0.114069 0)
(-0.0437141 -0.0972076 0)
(-0.0492471 -0.0757047 0)
(-0.0429315 -0.0568937 0)
(-0.0279094 -0.0404033 0)
(-0.0096462 -0.0253166 0)
(0.00609173 -0.00976873 0)
(0.0153181 0.00686789 0)
(0.0165347 0.0244463 0)
(0.0101019 0.039362 0)
(-0.000892235 0.0564861 0)
(-0.0209301 0.0668938 0)
(-0.0473337 0.0829412 0)
(-0.0801532 0.0927239 0)
(-0.1088 0.105382 0)
(-0.134491 0.11013 0)
(-0.158378 0.116677 0)
(-0.180814 0.117949 0)
(-0.202639 0.116154 0)
(-0.223937 0.111239 0)
(-0.244225 0.105602 0)
(-0.261731 0.10179 0)
(-0.274849 0.0991669 0)
(-0.0195005 -0.086087 0)
(-0.035251 -0.081621 0)
(-0.0451753 -0.0728806 0)
(-0.0464853 -0.0638107 0)
(-0.0402079 -0.0529666 0)
(-0.0311097 -0.0383033 0)
(-0.0245297 -0.0179052 0)
(-0.0243324 0.00616538 0)
(-0.0306373 0.0316332 0)
(-0.0451526 0.0536082 0)
(-0.0668013 0.0779978 0)
(-0.0934068 0.093555 0)
(-0.116888 0.110397 0)
(-0.135539 0.119499 0)
(-0.154149 0.127213 0)
(-0.172348 0.131703 0)
(-0.190309 0.136243 0)
(-0.207689 0.137587 0)
(-0.225307 0.135572 0)
(-0.242661 0.13004 0)
(-0.258832 0.122424 0)
(-0.272972 0.116085 0)
(-0.285532 0.110156 0)
(-0.0190332 -0.064328 0)
(-0.0394013 -0.0628442 0)
(-0.054873 -0.0631395 0)
(-0.0636854 -0.0625288 0)
(-0.0659816 -0.0570309 0)
(-0.0655314 -0.0417365 0)
(-0.0676802 -0.0163704 0)
(-0.0767359 0.0152181 0)
(-0.0929105 0.0472906 0)
(-0.113607 0.0759248 0)
(-0.133671 0.0989424 0)
(-0.146994 0.114673 0)
(-0.159885 0.126183 0)
(-0.171913 0.134324 0)
(-0.184111 0.1416 0)
(-0.196374 0.146986 0)
(-0.208687 0.151202 0)
(-0.221291 0.153333 0)
(-0.234948 0.152355 0)
(-0.24948 0.146384 0)
(-0.262293 0.137169 0)
(-0.273183 0.129617 0)
(-0.288908 0.123504 0)
(-0.0317223 -0.034332 0)
(-0.0569987 -0.0381918 0)
(-0.0786573 -0.0471757 0)
(-0.0947594 -0.0542425 0)
(-0.104247 -0.0521238 0)
(-0.111614 -0.0362658 0)
(-0.121799 -0.00539699 0)
(-0.136878 0.031951 0)
(-0.154632 0.0649701 0)
(-0.1659 0.0924687 0)
(-0.174404 0.110694 0)
(-0.181998 0.124251 0)
(-0.188891 0.135088 0)
(-0.195608 0.143845 0)
(-0.202266 0.15139 0)
(-0.209198 0.157322 0)
(-0.21616 0.161713 0)
(-0.223467 0.164491 0)
(-0.233493 0.163905 0)
(-0.245725 0.156257 0)
(-0.256466 0.144155 0)
(-0.266314 0.135306 0)
(-0.279786 0.132849 0)
(-0.0532364 0.0154608 0)
(-0.080732 -0.00183101 0)
(-0.108933 -0.0227881 0)
(-0.13123 -0.0363375 0)
(-0.149098 -0.0387707 0)
(-0.16353 -0.0233558 0)
(-0.178049 0.00933113 0)
(-0.189351 0.045903 0)
(-0.194033 0.0750095 0)
(-0.198608 0.0988292 0)
(-0.20221 0.11631 0)
(-0.205106 0.129453 0)
(-0.207409 0.140015 0)
(-0.209238 0.148547 0)
(-0.211439 0.155799 0)
(-0.214277 0.160953 0)
(-0.217346 0.164046 0)
(-0.220519 0.166371 0)
(-0.224173 0.167947 0)
(-0.232841 0.163975 0)
(-0.243868 0.149305 0)
(-0.252652 0.141845 0)
(-0.257928 0.154604 0)
(-0.0685615 0.0822981 0)
(-0.0943791 0.0437433 0)
(-0.130766 0.0117419 0)
(-0.166362 -0.00691163 0)
(-0.195327 -0.0163106 0)
(-0.215521 -0.00625379 0)
(-0.223202 0.0192724 0)
(-0.222352 0.0484472 0)
(-0.221477 0.0766117 0)
(-0.220508 0.100604 0)
(-0.220209 0.117629 0)
(-0.219724 0.129653 0)
(-0.218767 0.139286 0)
(-0.21775 0.146713 0)
(-0.21578 0.153544 0)
(-0.214534 0.160735 0)
(-0.214925 0.164496 0)
(-0.215081 0.168268 0)
(-0.214852 0.174034 0)
(-0.218599 0.167961 0)
(-0.231017 0.149829 0)
(-0.261092 0.132652 0)
(-0.258615 0.188186 0)
(-0.070143 0.134916 0)
(-0.0648974 0.0814228 0)
(-0.12898 0.0336658 0)
(-0.20364 0.0147222 0)
(-0.250247 0.00242325 0)
(-0.260637 0.00217652 0)
(-0.255764 0.0217076 0)
(-0.2498 0.0471213 0)
(-0.24281 0.0744279 0)
(-0.236922 0.0974942 0)
(-0.231687 0.114083 0)
(-0.227729 0.126649 0)
(-0.224215 0.13627 0)
(-0.220423 0.144541 0)
(-0.217018 0.152187 0)
(-0.21461 0.157416 0)
(-0.220786 0.15964 0)
(-0.231182 0.162362 0)
(-0.242142 0.188216 0)
(-0.262795 0.216886 0)
(-0.27714 0.20849 0)
(-0.294483 0.19118 0)
(-0.296757 0.165565 0)
(-0.0671332 0.149878 0)
(0.0236093 0.0831324 0)
(-0.111258 0.033116 0)
(-0.274453 0.0579903 0)
(-0.274772 0.0136326 0)
(-0.281578 0.00173727 0)
(-0.280068 0.0144324 0)
(-0.271662 0.0388308 0)
(-0.26028 0.0680487 0)
(-0.250401 0.0940056 0)
(-0.241657 0.110477 0)
(-0.237117 0.119756 0)
(-0.23607 0.129568 0)
(-0.238885 0.135048 0)
(-0.248193 0.148695 0)
(-0.278292 0.183343 0)
(-0.293822 0.192702 0)
(-0.311613 0.195761 0)
(-0.32034 0.206026 0)
(-0.320221 0.206264 0)
(-0.32056 0.198659 0)
(-0.318545 0.177354 0)
(-0.309909 0.158149 0)
(-0.217146 0.159666 0)
(0.0255924 0.281542 0)
(-0.106439 0.37104 0)
(-0.166038 0.280758 0)
(-0.172168 -0.0152196 0)
(-0.279991 -0.0260207 0)
(-0.30149 0.000899626 0)
(-0.299695 0.0305717 0)
(-0.292501 0.0576999 0)
(-0.287785 0.0799154 0)
(-0.297278 0.101642 0)
(-0.317636 0.129733 0)
(-0.327251 0.144963 0)
(-0.339341 0.160115 0)
(-0.348588 0.17932 0)
(-0.350712 0.193583 0)
(-0.352946 0.198824 0)
(-0.357262 0.198686 0)
(-0.35768 0.199018 0)
(-0.351469 0.200947 0)
(-0.341798 0.18918 0)
(-0.329214 0.169384 0)
(-0.311394 0.143919 0)
(0.0215861 0.282363 0)
(0.0424121 0.171737 0)
(-0.0444958 0.316915 0)
(-0.0958121 0.282056 0)
(-0.150087 0.15308 0)
(-0.232541 0.117302 0)
(-0.28121 0.0454514 0)
(-0.318708 0.0218159 0)
(-0.340857 0.0465256 0)
(-0.354525 0.0850719 0)
(-0.363187 0.120762 0)
(-0.367806 0.139151 0)
(-0.373278 0.156548 0)
(-0.381182 0.165884 0)
(-0.385773 0.176227 0)
(-0.384303 0.190451 0)
(-0.378504 0.195862 0)
(-0.371726 0.194254 0)
(-0.363267 0.191724 0)
(-0.35025 0.186408 0)
(-0.334353 0.174035 0)
(-0.316724 0.154587 0)
(-0.295716 0.131158 0)
(-0.00768233 0.0865104 0)
(-0.0256404 0.310715 0)
(-0.0861433 0.36062 0)
(-0.0987032 0.28061 0)
(-0.137397 0.185393 0)
(-0.19372 0.143245 0)
(-0.242833 0.0951871 0)
(-0.289317 0.0763434 0)
(-0.32634 0.086915 0)
(-0.350734 0.106247 0)
(-0.364395 0.126317 0)
(-0.371932 0.147541 0)
(-0.376543 0.159416 0)
(-0.379168 0.167813 0)
(-0.38038 0.175455 0)
(-0.37594 0.182116 0)
(-0.365905 0.183892 0)
(-0.353757 0.181938 0)
(-0.339713 0.177022 0)
(-0.323314 0.170101 0)
(-0.305227 0.156916 0)
(-0.285921 0.137647 0)
(-0.263736 0.114862 0)
(-0.0779769 0.279638 0)
(-0.0895251 0.333482 0)
(-0.0877687 0.352251 0)
(-0.0850605 0.297944 0)
(-0.113939 0.225026 0)
(-0.156138 0.179429 0)
(-0.198346 0.142559 0)
(-0.242145 0.121815 0)
(-0.27953 0.119235 0)
(-0.307172 0.1273 0)
(-0.326191 0.139792 0)
(-0.336893 0.151878 0)
(-0.341375 0.161116 0)
(-0.342929 0.167363 0)
(-0.341501 0.17166 0)
(-0.335646 0.17407 0)
(-0.325381 0.172711 0)
(-0.312071 0.167798 0)
(-0.296785 0.1604 0)
(-0.278934 0.151581 0)
(-0.260401 0.138193 0)
(-0.240779 0.119549 0)
(-0.218364 0.0974037 0)
(-0.0515636 0.266382 0)
(-0.0591827 0.329279 0)
(-0.0579924 0.344661 0)
(-0.0569175 0.308565 0)
(-0.0773334 0.256427 0)
(-0.109486 0.216623 0)
(-0.144981 0.183252 0)
(-0.182707 0.160962 0)
(-0.216978 0.151379 0)
(-0.24411 0.15052 0)
(-0.26352 0.154647 0)
(-0.275483 0.160591 0)
(-0.281296 0.165009 0)
(-0.282681 0.167291 0)
(-0.280653 0.16788 0)
(-0.274858 0.165975 0)
(-0.265468 0.161548 0)
(-0.253255 0.154179 0)
(-0.238835 0.144618 0)
(-0.222267 0.133282 0)
(-0.204192 0.119281 0)
(-0.185133 0.101288 0)
(-0.163433 0.0800167 0)
(-0.0273157 0.316697 0)
(-0.0290527 0.341274 0)
(-0.0263183 0.343353 0)
(-0.0246375 0.317909 0)
(-0.0374677 0.280669 0)
(-0.0604864 0.247049 0)
(-0.0880779 0.217264 0)
(-0.118227 0.19451 0)
(-0.146857 0.180463 0)
(-0.170757 0.173363 0)
(-0.188692 0.170693 0)
(-0.200431 0.170001 0)
(-0.206675 0.169199 0)
(-0.208413 0.167284 0)
(-0.206241 0.163809 0)
(-0.20076 0.158518 0)
(-0.192359 0.150677 0)
(-0.181784 0.141204 0)
(-0.169402 0.129809 0)
(-0.154912 0.117084 0)
(-0.139303 0.10211 0)
(-0.122118 0.0841016 0)
(-0.101893 0.0636684 0)
(-0.0110186 0.339764 0)
(-0.00642629 0.344513 0)
(-0.000677067 0.3397 0)
(0.00413536 0.321237 0)
(-0.000799874 0.294799 0)
(-0.0142783 0.267989 0)
(-0.0329503 0.242432 0)
(-0.0546368 0.220673 0)
(-0.0763246 0.204289 0)
(-0.0953356 0.192794 0)
(-0.110203 0.184818 0)
(-0.120375 0.178773 0)
(-0.126029 0.173212 0)
(-0.127717 0.167293 0)
(-0.125922 0.160402 0)
(-0.121065 0.152021 0)
(-0.113781 0.14199 0)
(-0.104632 0.130223 0)
(-0.0940311 0.117245 0)
(-0.0821437 0.102933 0)
(-0.0692191 0.0871057 0)
(-0.0549293 0.0692563 0)
(-0.0374903 0.049376 0)
(-0.000484446 0.339412 0)
(0.00899695 0.338006 0)
(0.0182923 0.331697 0)
(0.0269382 0.318454 0)
(0.0291816 0.2998 0)
(0.0247719 0.279214 0)
(0.015415 0.258211 0)
(0.00270571 0.23854 0)
(-0.0112016 0.221581 0)
(-0.0242188 0.207544 0)
(-0.0348548 0.195951 0)
(-0.0423514 0.185921 0)
(-0.0465415 0.176557 0)
(-0.0476182 0.167189 0)
(-0.0458966 0.157324 0)
(-0.0417697 0.146536 0)
(-0.0356916 0.134532 0)
(-0.0281296 0.121351 0)
(-0.0194398 0.107039 0)
(-0.00981177 0.0917288 0)
(0.000296458 0.0752673 0)
(0.0115158 0.0572689 0)
(0.0258214 0.0380082 0)
(0.00624644 0.328918 0)
(0.0189724 0.326269 0)
(0.0313968 0.320081 0)
(0.0435218 0.310388 0)
(0.051673 0.29716 0)
(0.0549989 0.281655 0)
(0.0540905 0.264785 0)
(0.0498867 0.247711 0)
(0.0437898 0.231501 0)
(0.037326 0.216634 0)
(0.031717 0.20309 0)
(0.0277425 0.190539 0)
(0.0257686 0.178528 0)
(0.0258552 0.166635 0)
(0.0278816 0.154493 0)
(0.0316028 0.141796 0)
(0.0366833 0.128348 0)
(0.0427736 0.11407 0)
(0.0496152 0.0989833 0)
(0.0570473 0.0830868 0)
(0.0647228 0.0662891 0)
(0.0731788 0.0484268 0)
(0.08441 0.0296674 0)
(0.0102552 0.313878 0)
(0.0249676 0.311517 0)
(0.0397929 0.305709 0)
(0.0545737 0.298153 0)
(0.0670728 0.288446 0)
(0.0763391 0.27675 0)
(0.0823346 0.263383 0)
(0.085427 0.248979 0)
(0.0863838 0.234267 0)
(0.0861757 0.219747 0)
(0.0856958 0.205638 0)
(0.0856177 0.19193 0)
(0.0863592 0.178478 0)
(0.0881159 0.165084 0)
(0.0909184 0.151534 0)
(0.0946714 0.13763 0)
(0.0991911 0.123226 0)
(0.104257 0.108256 0)
(0.109685 0.0926986 0)
(0.115373 0.0765344 0)
(0.121001 0.0597028 0)
(0.127153 0.0420925 0)
(0.13584 0.0239194 0)
(0.0125179 0.295731 0)
(0.0283798 0.294662 0)
(0.0448 0.289372 0)
(0.0612601 0.283034 0)
(0.0765246 0.275436 0)
(0.0897909 0.266341 0)
(0.100755 0.255683 0)
(0.109402 0.243689 0)
(0.116026 0.230778 0)
(0.121137 0.217341 0)
(0.125293 0.203658 0)
(0.128983 0.189871 0)
(0.132575 0.176017 0)
(0.136302 0.162059 0)
(0.140281 0.147913 0)
(0.144527 0.13348 0)
(0.148976 0.118675 0)
(0.153519 0.103444 0)
(0.15806 0.0877639 0)
(0.162535 0.0716211 0)
(0.166716 0.0549786 0)
(0.171164 0.0377974 0)
(0.177838 0.020238 0)
(0.0136354 0.275699 0)
(0.0301228 0.276496 0)
(0.0474382 0.271876 0)
(0.0647086 0.266278 0)
(0.0813756 0.259873 0)
(0.0968756 0.25241 0)
(0.110875 0.243668 0)
(0.123178 0.233629 0)
(0.133782 0.222463 0)
(0.142862 0.21042 0)
(0.150694 0.197735 0)
(0.157572 0.184591 0)
(0.163759 0.171101 0)
(0.169459 0.157321 0)
(0.17481 0.143254 0)
(0.179884 0.128876 0)
(0.184693 0.114153 0)
(0.189206 0.0990622 0)
(0.193389 0.0835931 0)
(0.197239 0.0677439 0)
(0.200566 0.0515091 0)
(0.20395 0.0348765 0)
(0.209299 0.0180003 0)
(0.0139154 0.254905 0)
(0.0306445 0.257707 0)
(0.0483131 0.253904 0)
(0.0657527 0.248879 0)
(0.0828209 0.243179 0)
(0.0991825 0.236699 0)
(0.114596 0.229226 0)
(0.128838 0.22064 0)
(0.14177 0.21096 0)
(0.153368 0.200305 0)
(0.163709 0.188834 0)
(0.172921 0.176701 0)
(0.181153 0.164034 0)
(0.188547 0.150919 0)
(0.195217 0.137406 0)
(0.201245 0.123517 0)
(0.206676 0.109257 0)
(0.211519 0.0946298 0)
(0.215783 0.079646 0)
(0.219486 0.0643193 0)
(0.222502 0.0486662 0)
(0.225395 0.0327101 0)
(0.229954 0.0165695 0)
(0.0135374 0.234222 0)
(0.0301602 0.238829 0)
(0.0477503 0.235944 0)
(0.0649306 0.231508 0)
(0.0817613 0.226335 0)
(0.0980721 0.220489 0)
(0.113743 0.213849 0)
(0.128609 0.206293 0)
(0.142509 0.197776 0)
(0.155338 0.188331 0)
(0.167057 0.178042 0)
(0.177683 0.167016 0)
(0.18727 0.155357 0)
(0.195891 0.14315 0)
(0.203619 0.130458 0)
(0.210516 0.117324 0)
(0.216626 0.103775 0)
(0.22197 0.0898368 0)
(0.226569 0.0755353 0)
(0.230464 0.0609001 0)
(0.233548 0.0459686 0)
(0.236368 0.0307759 0)
(0.240649 0.0154341 0)
(0.0126817 0.214322 0)
(0.0288339 0.220308 0)
(0.045978 0.218358 0)
(0.0626077 0.214579 0)
(0.0788332 0.209921 0)
(0.0945717 0.204579 0)
(0.1098 0.198536 0)
(0.124433 0.191719 0)
(0.138349 0.184079 0)
(0.151435 0.17561 0)
(0.163609 0.166349 0)
(0.174831 0.156356 0)
(0.185093 0.145704 0)
(0.194412 0.134459 0)
(0.202818 0.122681 0)
(0.210344 0.110415 0)
(0.217016 0.097699 0)
(0.222847 0.0845698 0)
(0.227859 0.0710644 0)
(0.232087 0.0572241 0)
(0.235445 0.0430959 0)
(0.238456 0.0287365 0)
(0.2427 0.0142223 0)
(0.0115235 0.195728 0)
(0.0268604 0.202548 0)
(0.0432319 0.201438 0)
(0.0590933 0.198351 0)
(0.0745073 0.194247 0)
(0.0894145 0.189392 0)
(0.103843 0.183847 0)
(0.117774 0.177603 0)
(0.131137 0.170635 0)
(0.14385 0.162935 0)
(0.155833 0.154516 0)
(0.167028 0.14541 0)
(0.177398 0.135662 0)
(0.186925 0.12532 0)
(0.195609 0.11443 0)
(0.203455 0.103034 0)
(0.210468 0.0911713 0)
(0.216646 0.0788823 0)
(0.221999 0.0662099 0)
(0.226559 0.0532014 0)
(0.23024 0.0399129 0)
(0.233524 0.0264039 0)
(0.237894 0.0127352 0)
(0.0102256 0.178781 0)
(0.0244544 0.185885 0)
(0.0397861 0.185435 0)
(0.0547014 0.183004 0)
(0.0691774 0.179472 0)
(0.0831364 0.175116 0)
(0.0966175 0.170044 0)
(0.109636 0.164294 0)
(0.122166 0.157874 0)
(0.13416 0.15079 0)
(0.145561 0.143051 0)
(0.156317 0.134679 0)
(0.166385 0.1257 0)
(0.175736 0.116149 0)
(0.184348 0.106061 0)
(0.19221 0.0954695 0)
(0.199309 0.0844132 0)
(0.205632 0.0729317 0)
(0.211176 0.0610703 0)
(0.215959 0.0488782 0)
(0.219892 0.0364153 0)
(0.223437 0.0237499 0)
(0.227899 0.010908 0)
(0.00890496 0.163661 0)
(0.0218306 0.170569 0)
(0.0359226 0.17055 0)
(0.0497496 0.168673 0)
(0.0631991 0.165685 0)
(0.076156 0.161828 0)
(0.0886431 0.157221 0)
(0.100683 0.15193 0)
(0.112275 0.145991 0)
(0.123398 0.139423 0)
(0.134019 0.132247 0)
(0.144102 0.12448 0)
(0.153611 0.116144 0)
(0.162516 0.107265 0)
(0.170791 0.0978707 0)
(0.178417 0.0879905 0)
(0.18537 0.0776591 0)
(0.191629 0.0669157 0)
(0.197181 0.0558055 0)
(0.202037 0.0443791 0)
(0.206108 0.0327003 0)
(0.209795 0.0208356 0)
(0.21432 0.00879164 0)
(0.00764449 0.150401 0)
(0.0191629 0.156748 0)
(0.0318992 0.156925 0)
(0.044536 0.15546 0)
(0.0568937 0.152943 0)
(0.0688191 0.149554 0)
(0.0803052 0.145397 0)
(0.0913645 0.140545 0)
(0.102002 0.135046 0)
(0.11221 0.128936 0)
(0.121975 0.122242 0)
(0.131275 0.114987 0)
(0.140086 0.107193 0)
(0.148383 0.0988818 0)
(0.156145 0.0900792 0)
(0.163348 0.0808129 0)
(0.169971 0.0711154 0)
(0.175986 0.0610255 0)
(0.181378 0.0505889 0)
(0.186148 0.0398583 0)
(0.190203 0.0288974 0)
(0.193926 0.0177827 0)
(0.198365 0.006482 0)
(0.00648828 0.138939 0)
(0.0165878 0.144477 0)
(0.0279211 0.144642 0)
(0.0393116 0.143434 0)
(0.0505365 0.141285 0)
(0.0614133 0.138304 0)
(0.0719038 0.134564 0)
(0.0820009 0.130124 0)
(0.0917029 0.125038 0)
(0.101007 0.119347 0)
(0.109905 0.113083 0)
(0.118388 0.106276 0)
(0.12644 0.0989486 0)
(0.134045 0.091125 0)
(0.141188 0.08283 0)
(0.147849 0.0740912 0)
(0.154008 0.0649417 0)
(0.15964 0.0554209 0)
(0.164728 0.045576 0)
(0.169274 0.035462 0)
(0.173192 0.0251473 0)
(0.176802 0.0147096 0)
(0.181062 0.00409922 0)
(0.00546322 0.129146 0)
(0.0141905 0.133735 0)
(0.0241414 0.133723 0)
(0.0342743 0.132625 0)
(0.0443513 0.130733 0)
(0.0541747 0.128083 0)
(0.0636794 0.124706 0)
(0.0728371 0.120645 0)
(0.0816336 0.115942 0)
(0.0900608 0.110639 0)
(0.0981129 0.10477 0)
(0.105783 0.0983665 0)
(0.113064 0.0914542 0)
(0.119945 0.0840587 0)
(0.126416 0.0762062 0)
(0.132464 0.0679256 0)
(0.138073 0.0592508 0)
(0.143223 0.0502229 0)
(0.147903 0.0408919 0)
(0.152113 0.0313161 0)
(0.155764 0.0215696 0)
(0.159171 0.011741 0)
(0.163108 0.00175425 0)
(0.00457482 0.120856 0)
(0.0120302 0.124446 0)
(0.020662 0.124139 0)
(0.0295672 0.123029 0)
(0.038511 0.121286 0)
(0.0472926 0.118882 0)
(0.0558283 0.115807 0)
(0.0640714 0.112079 0)
(0.0719936 0.107726 0)
(0.0795783 0.102782 0)
(0.0868154 0.0972794 0)
(0.0936979 0.0912476 0)
(0.10022 0.0847143 0)
(0.106374 0.0777057 0)
(0.112155 0.0702489 0)
(0.117554 0.0623738 0)
(0.122563 0.0541156 0)
(0.127166 0.0455171 0)
(0.131358 0.0366312 0)
(0.135144 0.0275212 0)
(0.138457 0.0182711 0)
(0.141543 0.00897667 0)
(0.14511 -0.000444543 0)
(0.00382575 0.113883 0)
(0.0101335 0.116495 0)
(0.017552 0.115823 0)
(0.0252954 0.114608 0)
(0.0331491 0.112921 0)
(0.0409202 0.110681 0)
(0.0485149 0.107844 0)
(0.0558733 0.104398 0)
(0.0629547 0.100357 0)
(0.0697329 0.0957418 0)
(0.0761911 0.0905788 0)
(0.0823184 0.0848943 0)
(0.088107 0.0787142 0)
(0.0935508 0.0720641 0)
(0.0986446 0.0649711 0)
(0.103384 0.0574648 0)
(0.107764 0.0495805 0)
(0.111778 0.0413617 0)
(0.115428 0.0328632 0)
(0.118726 0.0241547 0)
(0.121611 0.0153282 0)
(0.124332 0.0065009 0)
(0.127438 -0.00242139 0)
(0.00320946 0.108032 0)
(0.00852406 0.109738 0)
(0.0148571 0.108671 0)
(0.0215365 0.107288 0)
(0.0283717 0.105586 0)
(0.0351857 0.103442 0)
(0.041883 0.100781 0)
(0.0483963 0.0975683 0)
(0.0546764 0.0937981 0)
(0.0606886 0.08948 0)
(0.0664087 0.0846313 0)
(0.0718199 0.0792729 0)
(0.0769099 0.0734271 0)
(0.0816699 0.0671174 0)
(0.0860933 0.0603687 0)
(0.0901761 0.053209 0)
(0.0939156 0.0456715 0)
(0.097311 0.0377976 0)
(0.100372 0.0296421 0)
(0.10312 0.0212776 0)
(0.105532 0.0128077 0)
(0.107796 0.00436841 0)
(0.11042 -0.00411591 0)
(0.00272502 0.103102 0)
(0.00721387 0.104007 0)
(0.0126199 0.102552 0)
(0.0183595 0.100971 0)
(0.0242726 0.0992066 0)
(0.0302044 0.0971061 0)
(0.0360653 0.0945695 0)
(0.041787 0.0915432 0)
(0.0473158 0.0880052 0)
(0.0526109 0.0839526 0)
(0.0576412 0.0793937 0)
(0.062383 0.0743428 0)
(0.0668177 0.0688177 0)
(0.0709308 0.0628382 0)
(0.0747112 0.0564261 0)
(0.0781513 0.0496054 0)
(0.0812476 0.0424047 0)
(0.0840012 0.0348595 0)
(0.0864297 0.0270195 0)
(0.0885683 0.0189544 0)
(0.0904062 0.0107739 0)
(0.0921637 0.00264144 0)
(0.0942381 -0.00548401 0)
(0.00236864 0.0988818 0)
(0.00623322 0.0991164 0)
(0.0108866 0.0973117 0)
(0.0158323 0.095534 0)
(0.0209403 0.0936867 0)
(0.0260842 0.0915958 0)
(0.0311875 0.0891447 0)
(0.036187 0.0862657 0)
(0.0410289 0.0829243 0)
(0.0456686 0.0791072 0)
(0.0500691 0.0748147 0)
(0.0541996 0.0700551 0)
(0.0580338 0.0648415 0)
(0.0615491 0.0591898 0)
(0.064726 0.0531176 0)
(0.0675495 0.0466439 0)
(0.0700091 0.0397896 0)
(0.072103 0.0325807 0)
(0.0738484 0.0250532 0)
(0.075288 0.0172639 0)
(0.0764637 0.00931668 0)
(0.0775698 0.00139026 0)
(0.0790476 -0.00648085 0)
(0.00215498 0.095144 0)
(0.0056338 0.0948652 0)
(0.00973074 0.0927892 0)
(0.0140372 0.0908536 0)
(0.0184652 0.0889304 0)
(0.0229268 0.0868345 0)
(0.0273658 0.0844423 0)
(0.0317286 0.0816788 0)
(0.0359641 0.0785023 0)
(0.0400259 0.0748927 0)
(0.0438721 0.0708447 0)
(0.0474647 0.0663618 0)
(0.0507687 0.0614537 0)
(0.0537511 0.056133 0)
(0.0563815 0.0504137 0)
(0.0586315 0.0443095 0)
(0.0604777 0.0378331 0)
(0.0619043 0.0309964 0)
(0.062918 0.023814 0)
(0.0635597 0.0163134 0)
(0.0638775 0.00855979 0)
(0.0641559 0.000722912 0)
(0.0648847 -0.00707869 0)
(0.00216826 0.0916223 0)
(0.00556345 0.0910332 0)