/*--------------------------------*- C++ -*----------------------------------*\
  =========                 |
  \\      /  F ield         | OpenFOAM: The Open Source CFD Toolbox
   \\    /   O peration     | Website:  https://openfoam.org
    \\  /    A nd           | Version:  13
     \\/     M anipulation  |
\*---------------------------------------------------------------------------*/
FoamFile
{
    format      ascii;
    class       volScalarField;
    location    "2.4";
    object      alpha.mercury;
}
// * * * * * * * * * * * * * * * * * * * * * * * * * * * * * * * * * * * * * //

dimensions      [];

internalField   nonuniform List<scalar> 
2268
(
1
1
1
1
1
1
1
1
1
1
1
1
1
1
1
1
1
1
1
0.999985
0.999611
0.999433
0.999433
1
1
1
1
1
1
1
1
1
1
1
1
1
1
1
1
1
1
1
0.999994
0.999967
0.999903
0.999662
1
1
1
1
1
1
1
1
1
1
1
1
1
1
1
1
1
1
1
1
1
1
0.999997
1
1
1
1
1
1
1
1
1
1
1
1
1
1
1
1
1
1
1
1
1
1
1
1
1
1
1
1
1
1
1
1
1
1
1
1
1
1
1
1
1
1
1
1
1
1
0.815685
0.842362
0.860203
0.873946
0.89184
0.914246
0.938354
0.960725
0.978594
0.990634
0.997102
0.999595
1
1
1
1
1
1
0.999999
0.999998
0.999997
1
0.999873
0.0593627
0.0870349
0.106362
0.121049
0.14104
0.171429
0.213987
0.268638
0.333852
0.406125
0.479127
0.545624
0.594582
0.622431
0.640709
0.64743
0.643899
0.632864
0.619169
0.608179
0.606529
0.648615
0.7724
-1.9051e-27
5.11925e-28
5.46152e-22
-4.9315e-09
-1.93271e-09
-2.91896e-10
7.47588e-21
2.32889e-20
3.68417e-20
4.0227e-20
7.26683e-20
2.4515e-20
0.00383548
0.0155654
0.0200841
0.0210601
0.0193117
0.0160795
0.012933
0.0105249
0.00995418
0.0168208
0.0600998
0.852201
0.863592
0.87665
0.877665
0.877659
0.877561
0.866298
0.642834
0.635415
0.637474
0.633093
0.613449
0.614331
0.677807
0.751579
0.751599
0.751623
0.751682
0.751745
0.505206
0.495015
0.51956
0.570507
0.607622
0.76356
0.798885
0.827049
0.82653
0.82875
0.828236
0.752585
0.70913
0.751512
0.751556
0.751638
0.75168
0.751742
0.751663
0.140559
0.135047
0.12832
0.131768
0.230537
0.328641
0.430161
0.527214
0.610174
0.779094
0.786908
0.777694
0.741228
0.724822
0.742302
0.746549
0.730487
0.632811
0.57221
0.134085
0.142297
0.14602
0.14575
0.112783
0.0477563
0.0710155
0.115285
0.175068
0.201096
0.34832
0.381519
0.360999
0.332897
0.340996
0.290465
0.267486
0.341031
0.412974
0.092245
0.0980072
0.0995431
0.127972
0.118568
0.0352493
0.0337756
0.0349183
0.0466057
0.00776682
0.0184703
0.179612
0.248813
0.225589
0.128562
0.0792096
0.0377663
0.019347
0.0564953
0.0159827
0.0288075
0.0700895
0.0637955
0.108997
0.0958391
0.0719727
0.0715719
0.069023
0.00789673
0.000440164
0.00129243
0.0402559
0.0639519
0.0285298
0.000662652
-1.61835e-09
-3.04917e-09
8.47693e-21
0.00787436
0.00290815
0.0028886
0.0168802
0.0807163
0.102399
0.0993765
0.0778806
0.0361454
0.00666759
0.000431534
2.14428e-06
1.11177e-13
-3.08948e-08
-1.35027e-11
6.9447e-24
2.11632e-12
7.01217e-08
4.1731e-09
0.040055
0.0107052
0.00408794
0.00793576
0.0373353
0.0908958
0.0658085
0.0130157
0.000615424
0.000831776
0.000307865
4.554e-05
3.65416e-08
2.41548e-07
-1.78998e-12
5.42611e-07
3.67942e-06
8.86176e-10
9.02759e-10
2.6843e-10
2.73518e-10
2.82733e-10
2.87498e-10
3.19249e-10
3.34981e-10
3.46801e-10
3.31539e-10
3.38533e-10
3.93887e-10
4.11128e-10
3.13676e-10
2.99902e-10
5.73157e-08
5.88206e-08
6.17659e-08
1.24967e-07
1.02511e-07
7.87367e-10
1.4107e-10
3.32813e-06
1.87996e-05
3.34073e-05
3.14637e-10
3.36397e-10
4.13369e-10
6.02764e-10
7.52626e-10
8.19318e-10
7.58374e-10
7.11953e-10
7.81211e-10
1.22704e-09
1.80708e-09
9.65338e-10
5.03753e-10
5.03386e-10
6.60026e-10
1.22198e-09
4.82194e-09
3.55706e-09
3.51665e-09
2.30958e-09
1.00976e-09
2.37995e-10
6.14897e-07
3.59168e-10
4.43328e-10
6.49882e-10
9.01373e-10
1.13546e-09
1.20831e-09
1.20089e-09
1.17979e-09
1.10873e-09
9.64555e-10
8.07481e-10
6.46469e-10
5.15112e-10
5.09922e-10
5.4593e-10
7.65357e-10
1.8165e-09
2.63371e-09
2.52875e-09
1.80868e-09
1.04803e-09
1.81809e-10
4.16537e-10
3.87327e-10
4.81684e-10
6.35097e-10
7.07157e-10
7.53155e-10
8.05393e-10
8.42793e-10
8.70725e-10
9.2725e-10
9.9817e-10
1.08294e-09
1.13152e-09
1.14207e-09
1.17702e-09
1.33715e-09
1.59777e-09
2.19447e-09
3.23042e-09
3.57099e-09
1.79344e-09
4.26641e-10
1.55417e-10
6.78119e-05
3.99425e-10
4.62293e-10
5.45426e-10
6.03312e-10
6.79981e-10
8.10335e-10
9.61539e-10
1.12655e-09
1.29335e-09
1.4931e-09
1.70438e-09
1.85231e-09
1.92106e-09
1.92578e-09
1.91893e-09
2.10894e-09
3.4207e-09
4.59051e-09
3.24207e-09
1.74379e-09
3.23876e-07
2.85471e-06
1.80565e-05
4.53961e-10
5.38453e-10
5.9917e-10
6.44134e-10
7.65644e-10
1.01113e-09
1.14434e-09
1.21399e-09
1.27316e-09
1.34833e-09
1.41842e-09
1.4515e-09
1.46313e-09
1.41381e-09
1.38371e-09
2.29753e-09
4.95209e-09
5.8144e-09
5.34572e-09
2.99665e-09
3.18381e-09
1.3311e-06
1.53815e-05
4.70806e-10
4.8397e-10
4.86279e-10
5.43852e-10
6.25812e-10
7.21709e-10
6.92276e-10
6.32863e-10
6.13756e-10
6.33051e-10
7.20625e-10
8.28306e-10
9.90608e-10
1.14963e-09
1.28301e-09
1.50406e-09
1.71116e-09
1.991e-09
2.01493e-09
1.91111e-09
3.50775e-07
8.00598e-07
9.63927e-07
4.67122e-10
4.41275e-10
3.52832e-10
3.21168e-10
3.10192e-10
2.95971e-10
2.21705e-10
1.69471e-10
1.58692e-10
1.68664e-10
2.59437e-10
4.05835e-10
6.20126e-10
9.74441e-10
1.35611e-09
1.69798e-09
2.46762e-09
7.05724e-09
1.36705e-08
1.3272e-08
6.33785e-09
4.07532e-10
4.15101e-10
4.67674e-10
4.61171e-10
3.10275e-10
1.77927e-10
1.28985e-10
9.17919e-11
5.29428e-11
3.60882e-11
3.28015e-11
3.56913e-11
7.37355e-11
1.29351e-10
1.61631e-10
1.82027e-10
2.15295e-10
3.19722e-10
5.44169e-10
7.3295e-10
7.81625e-10
7.7278e-10
4.99964e-10
8.84462e-10
1.46682e-09
4.49183e-10
4.54996e-10
3.42981e-10
1.82362e-10
1.18145e-10
7.5336e-11
3.94582e-11
2.49696e-11
2.19024e-11
2.0768e-11
2.14002e-11
2.54422e-11
2.61083e-11
2.68707e-11
2.73221e-11
3.0339e-11
3.91047e-11
5.76305e-11
9.30514e-11
2.45278e-10
5.3687e-10
1.09134e-09
2.21247e-09
3.87415e-10
4.11417e-10
3.56844e-10
2.3144e-10
1.73193e-10
1.44154e-10
1.12173e-10
7.51801e-11
4.77848e-11
2.5526e-11
1.68763e-11
1.32502e-11
1.16371e-11
1.07766e-11
1.0543e-11
1.16077e-11
1.29924e-11
1.57627e-11
2.90188e-11
2.05232e-10
5.50454e-10
1.29295e-09
3.16831e-09
2.91481e-10
3.02485e-10
3.53157e-10
3.22454e-10
2.55229e-10
2.08189e-10
1.87586e-10
1.57942e-10
1.1202e-10
7.00499e-11
3.68051e-11
1.82183e-11
1.12745e-11
8.43805e-12
7.00291e-12
6.03773e-12
5.91449e-12
6.67257e-12
9.43438e-12
2.17302e-11
4.33318e-11
6.33219e-11
4.08813e-11
1.74972e-10
2.39016e-10
3.47096e-10
3.86954e-10
3.21034e-10
3.0286e-10
2.57815e-10
2.1626e-10
1.70666e-10
1.19239e-10
6.65009e-11
3.14884e-11
1.72174e-11
1.03728e-11
6.92045e-12
4.64391e-12
3.64429e-12
3.19738e-12
3.10545e-12
3.45351e-12
3.52417e-12
3.22575e-12
2.41973e-12
1.63612e-10
2.42331e-10
3.58957e-10
4.04374e-10
3.77277e-10
3.47211e-10
2.95401e-10
2.47281e-10
1.9853e-10
1.54243e-10
9.8285e-11
5.58686e-11
2.52891e-11
1.47476e-11
9.29998e-12
5.38198e-12
3.48296e-12
2.4936e-12
1.76675e-12
1.49029e-12
1.53734e-12
2.12865e-12
2.42852e-12
1.54518e-10
2.61129e-10
3.75176e-10
4.0508e-10
3.87524e-10
3.49662e-10
2.95401e-10
2.46465e-10
2.05434e-10
1.63863e-10
1.09859e-10
6.90804e-11
3.48398e-11
1.89497e-11
1.14422e-11
6.96113e-12
4.16453e-12
2.66053e-12
1.61764e-12
1.12823e-12
8.83128e-13
8.20795e-13
1.18883e-12
1.3442e-10
2.63929e-10
3.65413e-10
3.89399e-10
3.6652e-10
3.22414e-10
2.75622e-10
2.19032e-10
1.85105e-10
1.4788e-10
1.10814e-10
7.07357e-11
3.84154e-11
2.33557e-11
1.41183e-11
8.41743e-12
5.12729e-12
3.08703e-12
1.85759e-12
1.15166e-12
8.40303e-13
6.13958e-13
5.34012e-13
1.10404e-10
2.41539e-10
3.23944e-10
3.19239e-10
3.00055e-10
2.58519e-10
2.08046e-10
1.76087e-10
1.4735e-10
1.15774e-10
8.72843e-11
6.0828e-11
3.6705e-11
2.22801e-11
1.52794e-11
9.10609e-12
5.44784e-12
3.32839e-12
2.01937e-12
1.16289e-12
8.78236e-13
6.0976e-13
4.32067e-13
9.52306e-11
2.01208e-10
2.61064e-10
2.4879e-10
2.14421e-10
1.813e-10
1.43183e-10
1.22912e-10
1.04629e-10
8.44308e-11
6.46096e-11
4.51306e-11
3.17828e-11
2.04018e-11
1.33272e-11
8.49111e-12
5.20303e-12
3.25464e-12
1.95982e-12
1.18919e-12
8.7978e-13
5.84194e-13
4.17944e-13
7.96589e-11
1.55285e-10
1.98923e-10
1.90754e-10
1.67411e-10
1.43892e-10
1.09706e-10
8.90207e-11
6.95903e-11
5.60486e-11
4.16564e-11
2.88698e-11
2.2965e-11
1.55916e-11
9.88328e-12
6.72731e-12
4.53927e-12
2.8082e-12
1.7073e-12
1.10641e-12
7.81126e-13
5.49448e-13
3.82524e-13
5.96271e-11
1.12294e-10
1.39945e-10
1.33313e-10
1.18347e-10
1.00749e-10
7.86735e-11
6.1662e-11
4.77657e-11
3.105e-11
2.20468e-11
1.66511e-11
1.3285e-11
9.53556e-12
6.48496e-12
4.82121e-12
3.34064e-12
2.26585e-12
1.43697e-12
9.41977e-13
6.89457e-13
4.71272e-13
3.30999e-13
4.35179e-11
7.7307e-11
9.2639e-11
8.7691e-11
7.7683e-11
6.40938e-11
5.18685e-11
4.09354e-11
2.95253e-11
1.87732e-11
1.2109e-11
9.40866e-12
7.32844e-12
5.41249e-12
4.08453e-12
3.12891e-12
2.24635e-12
1.60734e-12
1.14516e-12
7.85522e-13
5.70591e-13
4.02041e-13
2.75311e-13
3.04539e-11
5.1959e-11
5.92092e-11
5.56403e-11
4.93214e-11
4.00254e-11
3.28275e-11
2.60422e-11
1.78815e-11
1.12595e-11
7.66231e-12
5.30635e-12
4.13422e-12
3.2258e-12
2.48739e-12
1.92206e-12
1.41934e-12
1.07661e-12
8.1513e-13
5.98736e-13
4.32058e-13
2.99782e-13
2.16351e-13
2.01164e-11
3.43473e-11
3.74705e-11
3.52884e-11
3.01986e-11
2.52352e-11
2.05399e-11
1.59563e-11
1.14613e-11
7.3149e-12
4.57069e-12
3.3886e-12
2.50827e-12
1.90423e-12
1.47753e-12
1.13162e-12
8.56688e-13
6.83307e-13
5.30253e-13
4.01102e-13
2.90144e-13
2.13821e-13
1.52109e-13
1.38255e-11
2.29131e-11
2.40246e-11
2.18829e-11
1.90781e-11
1.58424e-11
1.29064e-11
9.8889e-12
7.13312e-12
4.77101e-12
3.16759e-12
2.17695e-12
1.53503e-12
1.12001e-12
8.30286e-13
6.22695e-13
4.79693e-13
3.97145e-13
3.13685e-13
2.40818e-13
1.80986e-13
1.26524e-13
9.48897e-14
9.06863e-12
1.42507e-11
1.45412e-11
1.31247e-11
1.12041e-11
9.56577e-12
7.78572e-12
6.03604e-12
4.4808e-12
3.1455e-12
2.10641e-12
1.40685e-12
9.4263e-13
6.46516e-13
4.47852e-13
3.29693e-13
2.5866e-13
2.0624e-13
1.64642e-13
1.27833e-13
9.22326e-14
7.09883e-14
5.14557e-14
6.1375e-12
9.10309e-12
8.80818e-12
7.48903e-12
6.53542e-12
5.4982e-12
4.45613e-12
3.5358e-12
2.72151e-12
1.99348e-12
1.37833e-12
8.81894e-13
5.66421e-13
3.5679e-13
2.33744e-13
1.65502e-13
1.22761e-13
9.68386e-14
7.50084e-14
5.75639e-14
4.41518e-14
3.17125e-14
2.37652e-14
3.7042e-12
5.36835e-12
4.93961e-12
4.17376e-12
3.4381e-12
2.85961e-12
2.34742e-12
1.87255e-12
1.47716e-12
1.13734e-12
8.12064e-13
5.3539e-13
3.394e-13
2.03169e-13
1.23472e-13
7.92662e-14
5.46182e-14
4.0069e-14
2.99661e-14
2.29377e-14
1.67709e-14
1.29533e-14
9.27339e-15
2.30061e-12
3.15969e-12
2.78196e-12
2.21603e-12
1.72195e-12
1.35665e-12
1.07768e-12
8.86918e-13
7.34896e-13
5.91136e-13
4.36777e-13
2.93953e-13
1.81855e-13
1.09034e-13
6.39069e-14
3.77843e-14
2.35415e-14
1.58843e-14
1.09401e-14
8.01107e-15
6.06173e-15
4.22525e-15
3.13995e-15
1.33656e-12
1.76047e-12
1.46056e-12
1.08948e-12
8.01667e-13
6.1034e-13
4.7417e-13
3.80398e-13
3.14718e-13
2.60411e-13
1.9997e-13
1.4211e-13
8.94099e-14
5.3943e-14
3.08856e-14
1.71551e-14
9.6795e-15
5.73937e-15
3.71459e-15
2.56798e-15
1.78279e-15
1.26452e-15
8.77643e-16
7.50708e-13
9.05017e-13
7.00461e-13
4.88076e-13
3.37871e-13
2.4805e-13
1.901e-13
1.44968e-13
1.21355e-13
1.02578e-13
7.99271e-14
5.82329e-14
3.7964e-14
2.32609e-14
1.31361e-14
7.05133e-15
3.67991e-15
2.00906e-15
1.14643e-15
7.26609e-16
5.04711e-16
3.17241e-16
2.24574e-16
3.74723e-13
4.24687e-13
3.05129e-13
1.98215e-13
1.28715e-13
9.05982e-14
6.46339e-14
5.01639e-14
4.11582e-14
3.48156e-14
2.83821e-14
2.07244e-14
1.38959e-14
8.5896e-15
4.80268e-15
2.54403e-15
1.28364e-15
6.24972e-16
3.36421e-16
1.95641e-16
1.16094e-16
7.44481e-17
4.90438e-17
1.87042e-13
1.83865e-13
1.2036e-13
7.30884e-14
4.47568e-14
3.00504e-14
2.08296e-14
1.60868e-14
1.26158e-14
1.05549e-14
8.70072e-15
6.55538e-15
4.40294e-15
2.64295e-15
1.51871e-15
7.94528e-16
3.81329e-16
1.79382e-16
8.24687e-17
4.46897e-17
2.63213e-17
1.48834e-17
9.43304e-18
7.22827e-14
6.54839e-14
4.40374e-14
2.50595e-14
1.35464e-14
8.39276e-15
5.96496e-15
4.29013e-15
3.39972e-15
2.86444e-15
2.39131e-15
1.82876e-15
1.22933e-15
7.32111e-16
4.06533e-16
2.04095e-16
9.39254e-17
4.19661e-17
1.88202e-17
9.12945e-18
4.82017e-18
2.7013e-18
1.56792e-18
2.89335e-14
2.14997e-14
1.17263e-14
6.3367e-15
3.46973e-15
2.11922e-15
1.48218e-15
1.14463e-15
8.86625e-16
7.38364e-16
6.15998e-16
4.55844e-16
2.97541e-16
1.70804e-16
9.1172e-17
4.56423e-17
2.0108e-17
8.29368e-18
3.41609e-18
1.5684e-18
7.7073e-19
4.02979e-19
2.17404e-19
7.31751e-15
6.11559e-15
3.36461e-15
1.72277e-15
8.94158e-16
5.30386e-16
3.59214e-16
2.62543e-16
2.01688e-16
1.67509e-16
1.36389e-16
9.91108e-17
6.24895e-17
3.57961e-17
1.85885e-17
8.56053e-18
3.62602e-18
1.3726e-18
5.42421e-19
2.3166e-19
1.08617e-19
5.33654e-20
2.64146e-20
2.17939e-15
1.56187e-15
8.10824e-16
3.86538e-16
1.93629e-16
1.123e-16
7.49137e-17
5.44309e-17
4.02655e-17
3.25803e-17
2.63331e-17
1.91948e-17
1.19789e-17
6.90686e-18
3.45459e-18
1.51501e-18
5.78731e-19
2.05287e-19
7.65159e-20
3.03817e-20
1.31558e-20
5.93691e-21
2.66683e-21
4.65126e-16
2.81253e-16
1.38631e-16
7.37054e-17
3.66595e-17
2.03452e-17
1.3466e-17
9.38587e-18
7.37858e-18
6.0387e-18
4.96471e-18
3.63777e-18
2.31061e-18
1.23303e-18
5.81816e-19
2.36896e-19
8.30537e-20
2.73055e-20
9.45166e-21
3.46615e-21
1.40467e-21
5.61714e-22
2.21062e-22
8.79435e-17
4.69253e-17
2.28649e-17
1.07283e-17
5.39764e-18
3.09515e-18
2.15071e-18
1.73799e-18
1.4132e-18
1.16208e-18
9.28658e-19
6.38237e-19
3.84566e-19
1.97082e-19
8.75347e-20
3.24422e-20
1.05291e-20
3.15827e-21
1.03356e-21
3.60549e-22
1.27777e-22
4.45982e-23
1.81024e-23
9.68212e-18
5.75129e-18
3.04139e-18
1.56167e-18
8.34268e-19
5.0614e-19
3.44127e-19
2.7533e-19
2.27615e-19
1.90511e-19
1.52182e-19
1.07006e-19
6.21002e-20
2.98686e-20
1.20761e-20
4.07084e-21
1.21707e-21
3.49842e-22
1.04047e-22
3.26712e-23
1.03215e-23
3.1526e-24
8.94456e-25
6.91915e-19
4.48334e-19
3.1032e-19
1.71125e-19
9.72883e-20
6.35833e-20
4.92913e-20
4.27402e-20
3.6392e-20
3.09037e-20
2.43722e-20
1.66842e-20
9.30247e-21
4.18308e-21
1.56118e-21
4.86251e-22
1.36044e-22
3.52548e-23
9.31452e-24
2.53527e-24
6.78096e-25
1.74627e-25
1.23886e-26
1.02654e-20
1.51722e-20
2.4137e-20
1.91623e-20
1.2145e-20
8.25176e-21
6.61453e-21
5.91033e-21
5.30511e-21
4.73681e-21
3.69156e-21
2.44268e-21
1.32308e-21
5.65237e-22
1.95916e-22
5.66934e-23
1.40586e-23
3.45361e-24
8.49482e-25
1.96957e-25
4.65395e-26
2.92904e-27
1.73204e-28
6.34937e-28
1.23542e-22
1.4598e-21
1.75504e-21
1.28544e-21
9.27955e-22
7.74525e-22
7.05986e-22
7.2326e-22
6.84674e-22
5.21674e-22
3.31796e-22
1.74554e-22
7.34921e-23
2.39862e-23
6.54457e-24
1.5297e-24
3.47202e-25
7.65364e-26
1.5201e-26
2.03727e-27
4.59119e-29
5.45982e-29
9.26949e-06
1.46874e-07
-3.55275e-07
0.0213274
6.97287e-25
-3.69322e-08
8.42185e-07
0.0109539
0.000209592
0.0010528
0.00106749
0.000748788
0.000295244
0.000266173
0.00062306
0.000659862
0.000124175
0.000233421
0.000200241
0.000185501
1.98343e-05
1.51114e-05
4.18075e-07
1.349e-09
3.72103e-10
3.61371e-10
3.41273e-10
1.34674e-09
4.53243e-10
4.77916e-10
7.41477e-10
2.98029e-09
1.88102e-09
2.349e-09
5.17286e-09
8.83384e-09
3.3405e-09
3.67893e-09
3.90437e-09
3.78986e-09
4.44735e-09
5.01643e-09
5.32779e-09
5.11634e-09
2.44022e-12
1.24069e-11
5.41555e-11
2.13473e-10
2.3558e-12
2.23949e-12
2.03141e-12
1.61446e-12
2.00674e-12
1.52209e-12
1.45106e-12
1.48573e-12
1.36347e-12
1.32564e-12
1.33534e-12
1.45219e-12
6.42497e-13
7.79161e-13
1.01865e-12
1.53341e-12
3.41668e-13
3.12465e-13
3.09566e-13
4.05783e-13
3.0896e-13
2.56263e-13
2.06769e-13
1.7214e-13
2.9541e-13
2.39305e-13
2.06217e-13
1.7048e-13
2.65391e-13
2.25351e-13
1.86873e-13
1.68533e-13
2.27091e-13
1.88115e-13
1.61023e-13
1.42167e-13
1.77162e-13
1.48675e-13
1.27208e-13
1.10863e-13
1.29563e-13
1.08742e-13
9.23064e-14
8.11826e-14
8.1101e-14
6.78814e-14
5.98977e-14
5.20039e-14
4.43192e-14
3.8284e-14
3.1332e-14
2.8558e-14
2.04234e-14
1.72094e-14
1.52613e-14
1.32637e-14
8.31492e-15
6.98554e-15
5.64021e-15
5.08028e-15
2.57701e-15
2.25204e-15
1.96835e-15
1.6393e-15
7.80233e-16
6.45361e-16
5.21049e-16
4.48845e-16
1.82591e-16
1.51668e-16
1.3002e-16
1.07059e-16
4.04124e-17
3.30457e-17
2.77127e-17
2.21906e-17
7.48706e-18
6.1627e-18
4.95455e-18
3.70934e-18
1.22851e-18
9.30889e-19
7.10741e-19
5.22341e-19
1.56753e-19
1.23712e-19
9.1867e-20
6.20703e-20
1.89092e-20
1.32184e-20
9.14006e-21
5.8548e-21
1.75091e-21
1.16577e-21
7.59747e-22
4.74163e-22
1.34051e-22
8.98727e-23
4.20071e-23
8.97213e-24
4.81364e-24
1.62678e-24
4.51331e-25
4.79182e-26
3.94698e-26
8.22666e-27
3.29221e-27
4.36694e-27
2.14803e-28
5.51546e-28
1.71664e-27
5.41758e-27
2.12865e-28
5.72007e-28
2.01347e-27
6.43782e-27
1.48739e-28
5.081e-28
1.69269e-27
4.984e-27
0.0395462
0.0160768
0.00121784
0.010569
0.0384256
0.0235786
0.000765629
0.000156348
2.95991e-05
7.49811e-05
0.000113436
0.000110129
6.31231e-05
2.05582e-05
7.42709e-06
2.14761e-05
4.40455e-05
3.37625e-05
8.6589e-05
0.0104264
0.000950832
0.000982153
0.0109728
0.0161656
0.000931347
0.000182826
0.000179052
3.1851e-05
2.4199e-05
5.75352e-05
6.35359e-05
5.60563e-05
2.63608e-05
1.86257e-05
8.75822e-05
0.00034941
0.00355786
0.00409035
0.000419421
0.000521384
0.000752706
0.00137835
8.38958e-07
0.000149585
0.000226416
0.000182437
3.43677e-05
1.1235e-06
1.52174e-06
5.63516e-06
5.5811e-06
5.48349e-06
7.14126e-05
0.000132657
0.000421845
0.006396
0.00689106
0.000463971
3.04732e-05
4.30761e-06
9.07071e-07
8.80888e-07
3.69761e-05
0.000111154
3.97504e-05
1.46669e-05
5.15024e-06
1.07393e-06
1.80231e-06
1.52061e-06
2.1315e-05
8.3081e-05
7.10391e-05
0.000154136
0.00240262
0.00667357
3.60316e-05
3.08576e-06
2.49375e-06
2.76413e-06
2.72162e-06
1.28541e-11
8.23963e-12
4.26332e-12
2.37739e-06
2.40352e-06
4.31695e-07
3.84274e-07
1.09358e-06
6.01503e-06
1.60022e-05
1.60112e-05
3.96913e-05
0.000136219
0.000519051
5.89897e-08
1.36009e-07
6.11768e-07
1.56414e-06
1.00521e-06
8.18748e-08
2.54093e-09
-3.88179e-14
-4.8404e-14
-1.17565e-11
1.3592e-08
7.22039e-08
7.42847e-08
9.54962e-08
2.01352e-07
2.49258e-07
2.3161e-07
1.68953e-05
0.000110816
1.80277e-08
1.07254e-07
1.27015e-07
1.65326e-07
1.05759e-07
3.85443e-08
6.26276e-09
6.93202e-10
3.44909e-11
2.42761e-09
4.51956e-08
1.03422e-06
2.48145e-05
0.000259271
0.0010334
0.00182886
0.00185932
0.00138038
0.000446619
5.81727e-08
1.50949e-07
1.51433e-07
1.08181e-07
2.24682e-08
8.581e-09
1.35156e-08
1.89892e-07
2.71019e-08
2.65149e-09
3.50753e-08
5.16729e-08
0.000443484
0.00255319
0.00273012
0.00273079
0.0025278
0.00172783
0.00119827
1.43626e-08
2.25612e-08
3.03838e-08
3.6081e-08
5.44347e-08
8.36211e-08
1.42108e-07
1.15583e-07
8.47908e-06
2.18699e-05
1.68066e-05
0.000196931
0.000580414
0.000735022
0.000653537
0.000432826
0.000395218
0.00050837
0.000630153
4.3698e-09
5.96543e-09
2.4836e-08
9.37009e-08
2.37474e-07
1.26768e-06
4.30309e-06
9.85701e-06
4.43545e-05
0.000110553
0.000116269
7.21024e-05
2.52583e-06
1.00736e-16
-1.65468e-10
6.01105e-07
1.00966e-06
1.29639e-06
4.95964e-07
1.34524e-08
2.61254e-08
3.58086e-08
2.68925e-08
3.70009e-08
1.45296e-06
5.05591e-06
1.01328e-05
1.17125e-05
8.44636e-06
1.45785e-07
2.0316e-08
2.80528e-08
1.28638e-08
8.4063e-09
7.31949e-08
9.40716e-08
1.83502e-07
1.14437e-07
5.2922e-10
2.32325e-09
5.36163e-09
4.48928e-09
1.73828e-09
8.85938e-12
7.85268e-12
8.28828e-12
9.30799e-09
2.29516e-08
3.7152e-08
7.67874e-08
7.70497e-08
2.99416e-08
2.31895e-09
9.38776e-09
8.63987e-09
2.69241e-09
1.49266e-10
1.29026e-12
1.26261e-12
1.35344e-12
1.26261e-12
1.26814e-12
6.19064e-11
3.20723e-10
2.1725e-09
1.18597e-08
3.0173e-08
7.03785e-08
7.63917e-08
5.3467e-08
7.62361e-09
1.25227e-09
4.86082e-09
5.42247e-09
1.65894e-09
1.50179e-10
1.63245e-12
2.40862e-12
4.71706e-12
2.99619e-11
1.33568e-10
4.61872e-10
1.06921e-09
2.39739e-09
7.81756e-09
1.74436e-08
3.18668e-08
2.32162e-08
5.10171e-09
2.5662e-09
8.88453e-10
9.34441e-10
1.0531e-09
3.34679e-10
7.69876e-11
1.8087e-12
3.26748e-12
8.13985e-12
5.79797e-11
2.20276e-10
7.4535e-10
1.30465e-09
2.48097e-09
4.00794e-09
4.4258e-09
2.50038e-09
1.71889e-09
8.69747e-10
8.38412e-10
6.3312e-10
2.86622e-10
1.22224e-10
4.83969e-11
3.59935e-11
2.75638e-12
7.48928e-12
2.24186e-11
5.97551e-11
1.4047e-10
2.77449e-10
4.33606e-10
7.88701e-10
1.87484e-09
3.51481e-09
4.38452e-09
4.1431e-09
2.36342e-09
1.42087e-09
7.34813e-10
1.80052e-10
3.65444e-11
1.57389e-11
1.0997e-11
2.75723e-12
8.1239e-12
2.14424e-11
5.28685e-11
1.20656e-10
2.35037e-10
4.03038e-10
5.7005e-10
7.0542e-10
1.29462e-09
1.96921e-09
2.40059e-09
2.18212e-09
1.16146e-09
4.81322e-10
1.30581e-10
2.15321e-11
5.32014e-12
4.22084e-12
1.69671e-12
8.28104e-12
1.92346e-11
4.11608e-11
8.93098e-11
1.56598e-10
2.63191e-10
4.23736e-10
5.78381e-10
7.01403e-10
6.9549e-10
6.00877e-10
5.26492e-10
3.60809e-10
1.46053e-10
4.17975e-11
6.44802e-12
2.24784e-12
1.30244e-12
5.73777e-13
4.43517e-12
1.54173e-11
3.19502e-11
5.47884e-11
8.01471e-11
1.50466e-10
2.51987e-10
3.29097e-10
3.74571e-10
3.68728e-10
2.67831e-10
1.61902e-10
8.50742e-11
3.02284e-11
4.23719e-12
9.53678e-13
6.19949e-13
3.09928e-13
2.2521e-13
1.27026e-12
6.23712e-12
1.62324e-11
3.12305e-11
5.27391e-11
7.69393e-11
1.09413e-10
1.36713e-10
1.55634e-10
1.57897e-10
1.31341e-10
8.68782e-11
5.0305e-11
1.54426e-11
1.57126e-12
3.97742e-13
1.49706e-13
5.36286e-14
1.38958e-13
3.98909e-13
1.76367e-12
5.59843e-12
1.18682e-11
2.00446e-11
3.02014e-11
3.91462e-11
4.87235e-11
5.41777e-11
5.27815e-11
4.51719e-11
3.2468e-11
1.81324e-11
5.0122e-12
5.58676e-13
1.01486e-13
2.65248e-14
6.69815e-15
9.61278e-14
1.50344e-13
4.57229e-13
1.33123e-12
2.93944e-12
5.45631e-12
8.1297e-12
1.10804e-11
1.33153e-11
1.45326e-11
1.37487e-11
1.17409e-11
7.87864e-12
3.24509e-12
5.53242e-13
8.10219e-14
1.77362e-14
4.58813e-15
6.41414e-16
6.59375e-14
7.17727e-14
1.23902e-13
2.6502e-13
5.72466e-13
1.11458e-12
1.83182e-12
2.52286e-12
3.00229e-12
3.12016e-12
3.0253e-12
2.70429e-12
1.89876e-12
7.86958e-13
1.25912e-13
2.53366e-14
2.90072e-15
5.47839e-16
1.00649e-16
4.06723e-14
3.65877e-14
4.09708e-14
5.7945e-14
8.94577e-14
1.49484e-13
2.51228e-13
3.95095e-13
4.83169e-13
5.11883e-13
4.99148e-13
4.46829e-13
3.21162e-13
1.35264e-13
2.49641e-14
1.70964e-15
3.45364e-16
1.14266e-16
3.39871e-17
2.15047e-14
1.73557e-14
1.53731e-14
1.46071e-14
1.56505e-14
1.97322e-14
3.09775e-14
4.91156e-14
6.12849e-14
6.33874e-14
6.5931e-14
6.20134e-14
4.77298e-14
2.17836e-14
4.70919e-15
3.17494e-16
6.44116e-17
4.75182e-17
2.51336e-17
9.46908e-15
7.21391e-15
5.58761e-15
4.36703e-15
3.64621e-15
3.297e-15
3.53066e-15
4.51817e-15
5.19936e-15
6.1118e-15
6.67191e-15
6.64647e-15
5.62008e-15
2.8476e-15
4.96931e-16
3.61574e-17
2.18345e-17
3.26125e-17
1.66599e-17
3.5418e-15
2.54754e-15
1.85405e-15
1.3209e-15
9.33658e-16
6.56703e-16
4.88583e-16
3.93267e-16
4.0798e-16
4.59646e-16
5.48581e-16
5.86697e-16
5.38886e-16
3.06886e-16
4.38862e-17
8.07363e-18
1.18098e-17
1.97053e-17
1.34298e-17
1.10791e-15
7.5518e-16
5.2205e-16
3.52393e-16
2.38294e-16
1.64375e-16
8.29937e-17
4.29991e-17
3.57808e-17
3.73244e-17
4.25008e-17
4.65989e-17
2.77132e-17
1.1493e-17
3.58308e-18
3.6837e-18
6.40358e-18
1.33896e-17
8.65245e-18
2.8468e-16
1.88035e-16
1.17413e-16
7.38557e-17
5.07765e-17
2.60125e-17
1.21447e-17
7.10696e-18
4.53861e-18
3.25652e-18
3.14669e-18
1.96551e-18
1.08811e-18
5.96722e-19
8.40683e-19
1.61486e-18
3.55602e-18
8.2994e-18
6.70258e-18
6.57801e-17
3.99019e-17
2.27314e-17
1.4702e-17
7.79719e-18
2.48006e-18
9.9408e-19
7.00223e-19
5.25382e-19
3.58773e-19
1.63375e-19
1.0235e-19
1.05152e-19
1.70281e-19
3.79232e-19
9.08122e-19
2.17308e-18
6.35057e-18
3.76417e-18
1.24913e-17
6.56539e-18
3.84089e-18
2.19561e-18
6.49464e-19
1.13144e-19
4.37106e-20
3.88009e-20
3.75795e-20
2.83567e-20
2.40477e-20
3.68706e-20
7.13651e-20
1.44362e-19
2.92833e-19
6.66048e-19
1.68307e-18
3.73757e-18
2.73623e-18
1.98801e-18
1.0202e-18
5.82311e-19
1.87526e-19
2.7679e-20
2.22981e-21
1.63666e-21
2.35084e-21
3.97722e-21
7.63546e-21
1.63394e-20
3.47521e-20
7.20796e-20
1.41211e-19
2.61997e-19
5.74244e-19
1.33806e-18
2.72518e-18
1.33852e-18
2.57055e-19
1.42669e-19
4.50471e-20
6.66161e-21
3.85405e-22
2.37799e-22
4.6256e-22
1.17196e-21
2.92277e-21
7.11189e-21
1.65878e-20
3.61731e-20
7.34165e-20
1.37164e-19
2.4031e-19
5.0014e-19
1.06679e-18
1.46042e-18
9.2323e-19
2.93699e-20
1.27012e-20
1.74957e-21
8.84567e-23
6.85624e-23
1.51179e-22
4.17372e-22
1.12938e-21
2.90269e-21
7.17491e-21
1.68765e-20
3.66846e-20
7.25981e-20
1.27558e-19
2.22096e-19
4.46266e-19
7.58879e-19
1.02892e-18
4.03218e-19
2.71189e-21
5.39198e-22
3.11697e-23
1.85374e-23
4.55671e-23
1.37434e-22
3.98932e-22
1.09646e-21
2.83174e-21
6.88385e-21
1.59911e-20
3.44149e-20
6.62371e-20
1.18526e-19
2.09982e-19
3.61534e-19
5.59223e-19
5.02461e-19
2.58916e-19
1.21131e-22
6.40117e-24
4.05104e-24
1.23231e-23
4.07087e-23
1.29313e-22
3.76644e-22
1.0231e-21
2.67804e-21
6.53737e-21
1.51811e-20
3.22325e-20
6.17224e-20
1.08513e-19
1.76677e-19
2.70333e-19
3.65256e-19
3.30802e-19
9.9232e-20
6.87793e-25
6.98076e-25
2.77468e-24
1.08608e-23
3.62143e-23
1.14549e-22
3.29855e-22
9.01217e-22
2.30944e-21
5.60769e-21
1.28765e-20
2.70398e-20
5.10499e-20
8.92849e-20
1.38912e-19
1.98978e-19
2.30356e-19
1.47595e-19
5.46746e-20
9.13414e-26
5.55783e-25
2.42143e-24
9.13833e-24
3.02593e-23
9.23236e-23
2.66379e-22
7.11445e-22
1.81005e-21
4.37363e-21
9.90467e-21
2.06946e-20
3.88134e-20
6.54304e-20
9.9708e-20
1.26716e-19
1.18625e-19
8.15209e-20
2.09242e-20
8.63824e-26
4.63333e-25
1.92826e-24
6.84011e-24
2.20842e-23
6.61012e-23
1.85244e-22
4.9165e-22
1.23751e-21
2.96872e-21
6.70653e-21
1.38108e-20
2.57436e-20
4.34847e-20
5.93063e-20
7.66924e-20
6.34569e-20
2.95782e-20
1.17129e-20
7.35972e-26
3.42489e-25
1.27621e-24
4.16945e-24
1.28361e-23
3.64962e-23
1.01637e-22
2.72493e-22
6.91207e-22
1.68814e-21
3.85432e-21
8.01543e-21
1.49803e-20
2.50337e-20
3.25726e-20
3.99218e-20
2.54657e-20
1.40063e-20
5.95941e-21
4.85495e-26
1.90044e-25
6.34355e-25
1.91659e-24
5.6678e-24
1.63577e-23
4.54925e-23
1.2282e-22
3.19849e-22
7.94389e-22
1.83772e-21
3.85664e-21
7.16799e-21
1.20942e-20
1.57001e-20
1.75319e-20
9.21034e-21
5.89039e-21
2.20674e-21
1.78209e-26
5.66608e-26
1.65149e-25
4.58696e-25
1.40554e-24
4.33922e-24
1.26995e-23
3.44728e-23
9.05911e-23
2.26732e-22
5.34782e-22
1.16931e-21
2.18258e-21
3.63485e-21
4.58495e-21
4.79311e-21
2.63309e-21
1.29965e-21
1.77891e-22
)
;

boundaryField
{
    leftWall
    {
        type            alphaContactAngle;
        contactAngleProperties 
        {
            air             
            {
                theta0          90;
            }
            water           
            {
                theta0          90;
            }
            oil             
            {
                theta0          90;
            }
        }
        value           nonuniform List<scalar> 
50
(
1
1
1
1
1
0.815685
0.0593627
-1.9051e-27
2.6843e-10
3.14637e-10
3.59168e-10
3.87327e-10
3.99425e-10
4.53961e-10
4.70806e-10
4.67122e-10
4.67674e-10
4.49183e-10
3.87415e-10
2.91481e-10
1.74972e-10
1.63612e-10
1.54518e-10
1.3442e-10
1.10404e-10
9.52306e-11
7.96589e-11
5.96271e-11
4.35179e-11
3.04539e-11
2.01164e-11
1.38255e-11
9.06863e-12
6.1375e-12
3.7042e-12
2.30061e-12
1.33656e-12
7.50708e-13
3.74723e-13
1.87042e-13
7.22827e-14
2.89335e-14
7.31751e-15
2.17939e-15
4.65126e-16
8.79435e-17
9.68212e-18
6.91915e-19
1.02654e-20
6.34937e-28
)
;
    }
    rightWall
    {
        type            alphaContactAngle;
        contactAngleProperties 
        {
            air             
            {
                theta0          90;
            }
            water           
            {
                theta0          90;
            }
            oil             
            {
                theta0          90;
            }
        }
        value           nonuniform List<scalar> 
50
(
0.751745
0.751663
0.57221
0.412974
0.0564953
8.47693e-21
4.1731e-09
9.02759e-10
8.6589e-05
0.00409035
0.00689106
0.00667357
0.000519051
0.000110816
0.000446619
0.00119827
0.000630153
4.95964e-07
1.14437e-07
1.49266e-10
1.50179e-10
7.69876e-11
3.59935e-11
1.0997e-11
4.22084e-12
1.30244e-12
3.09928e-13
5.36286e-14
6.69815e-15
6.41414e-16
1.00649e-16
3.39871e-17
2.51336e-17
1.66599e-17
1.34298e-17
8.65245e-18
6.70258e-18
3.76417e-18
2.73623e-18
1.33852e-18
9.2323e-19
4.03218e-19
2.58916e-19
9.9232e-20
5.46746e-20
2.09242e-20
1.17129e-20
5.95941e-21
2.20674e-21
1.77891e-22
)
;
    }
    lowerWall
    {
        type            alphaContactAngle;
        contactAngleProperties 
        {
            air             
            {
                theta0          90;
            }
            water           
            {
                theta0          90;
            }
            oil             
            {
                theta0          90;
            }
        }
        value           nonuniform List<scalar> 
62
(
1
1
1
1
1
1
1
1
1
1
1
1
1
1
1
1
1
1
1
0.999985
0.999611
0.999433
0.999433
0.999433
0.999662
0.999997
1
1
0.999873
0.7724
0.0600998
9.26949e-06
1.46874e-07
-3.55275e-07
0.0213274
0.852201
0.505206
0.140559
0.134085
0.092245
0.0159827
0.00787436
0.040055
0.852201
0.863592
0.87665
0.877665
0.877659
0.877561
0.866298
0.642834
0.635415
0.637474
0.633093
0.613449
0.614331
0.677807
0.751579
0.751599
0.751623
0.751682
0.751745
)
;
    }
    atmosphere
    {
        type            inletOutlet;
        inletValue      uniform 0;
        value           nonuniform List<scalar> 
46
(
0
0
1.4598e-21
1.75504e-21
1.28544e-21
9.27954e-22
7.74525e-22
7.05986e-22
7.2326e-22
6.84674e-22
5.21674e-22
3.31796e-22
1.74554e-22
7.3492e-23
2.39862e-23
0
0
0
0
0
0
0
0
0
0
0
0
0
0
0
0
0
0
0
3.44728e-23
9.05911e-23
2.26732e-22
5.34782e-22
1.16931e-21
2.18258e-21
3.63485e-21
4.58496e-21
4.79311e-21
0
0
0
)
;
    }
    defaultFaces
    {
        type            empty;
    }
}


// ************************************************************************* //
