/*--------------------------------*- C++ -*----------------------------------*\
  =========                 |
  \\      /  F ield         | OpenFOAM: The Open Source CFD Toolbox
   \\    /   O peration     | Website:  https://openfoam.org
    \\  /    A nd           | Version:  13
     \\/     M anipulation  |
\*---------------------------------------------------------------------------*/
FoamFile
{
    format      ascii;
    class       volScalarField;
    location    "2.4";
    object      alpha.oil;
}
// * * * * * * * * * * * * * * * * * * * * * * * * * * * * * * * * * * * * * //

dimensions      [];

internalField   nonuniform List<scalar> 
2268
(
1.36968e-14
9.45505e-14
5.06188e-13
1.71274e-12
4.38771e-12
9.66407e-12
1.96048e-11
3.65339e-11
6.84608e-11
1.26692e-10
2.34621e-10
4.29682e-10
8.05538e-10
1.46698e-09
2.97357e-09
5.82597e-09
1.07406e-08
1.11096e-08
1.19119e-08
1.50853e-05
0.000389329
0.000567144
0.000567144
1.51163e-14
9.35093e-14
3.93682e-13
1.97003e-12
4.98152e-12
1.10209e-11
2.25333e-11
4.55095e-11
8.5518e-11
1.56714e-10
2.81476e-10
5.36308e-10
9.95877e-10
1.79559e-09
3.69041e-09
7.22192e-09
1.42477e-08
1.7172e-08
1.2346e-08
6.20139e-06
3.32008e-05
9.68325e-05
0.000338476
4.87514e-14
1.99734e-13
3.39848e-13
1.79021e-12
4.68232e-12
1.02159e-11
2.22328e-11
4.44809e-11
8.6693e-11
1.62097e-10
2.88938e-10
5.79382e-10
9.99346e-10
1.78334e-09
3.17588e-09
5.52676e-09
8.94693e-09
1.28286e-08
1.31573e-08
4.04384e-08
5.3568e-08
5.8041e-08
2.77633e-06
1.31598e-12
9.34294e-13
8.9398e-13
1.68167e-12
3.70901e-12
8.0992e-12
1.89597e-11
4.13143e-11
8.80123e-11
1.81479e-10
3.6126e-10
7.09545e-10
1.20901e-09
1.96648e-09
4.00804e-09
6.19904e-09
8.42097e-09
9.31484e-09
9.71247e-09
1.25027e-08
1.49174e-08
1.74831e-08
2.07776e-07
1.66947e-11
1.04792e-11
7.85518e-12
6.31338e-12
5.54332e-12
7.62997e-12
1.41767e-11
2.97442e-11
5.78529e-11
1.45332e-10
3.22318e-10
6.95173e-10
1.48197e-09
2.42121e-09
4.11748e-09
7.77764e-09
2.17889e-08
1.95325e-08
1.94399e-08
1.84649e-08
1.40528e-08
1.30952e-08
1.28874e-08
7.56705e-10
5.6374e-10
3.85483e-10
2.72204e-10
1.87519e-10
1.27357e-10
6.51734e-11
3.7736e-11
4.34298e-11
7.89698e-11
1.81344e-10
4.80124e-10
1.22434e-09
2.32381e-09
3.0808e-09
3.43866e-09
5.86948e-09
3.43654e-07
1.30695e-06
1.14831e-06
1.08015e-07
3.86123e-08
1.41101e-05
2.98603e-09
2.57042e-09
1.93153e-09
1.4721e-09
1.1812e-09
8.99469e-10
6.40169e-10
3.19715e-10
1.27098e-10
8.42109e-11
1.0075e-10
2.12108e-10
4.97931e-10
1.32556e-09
1.4379e-09
7.2622e-10
7.09878e-10
1.19141e-06
1.85477e-06
1.25023e-06
1.19273e-06
3.75582e-05
4.77972e-05
3.7299e-09
3.48028e-09
2.76482e-09
2.20508e-09
1.86786e-09
1.48e-09
1.30742e-09
8.50649e-10
4.40622e-10
2.41125e-10
1.68348e-10
1.87376e-10
3.10467e-10
6.08549e-10
6.30095e-10
6.38707e-10
2.03033e-09
4.81174e-07
1.37166e-06
9.84952e-08
3.23478e-06
3.38617e-05
4.76756e-05
0.136719
0.125338
0.103051
0.0547854
0.0318352
0.031659
0.0487795
0.292011
0.307577
0.319766
0.319654
0.318656
0.276493
0.124145
0.0670914
0.101803
0.169284
0.231726
0.221377
0.400087
0.399649
0.388052
0.373186
0.332515
0.0712491
0.0393624
0.086082
0.127276
0.0884069
0.0990873
0.19185
0.222042
0.0796674
0.0656094
0.0907417
0.21068
0.231748
0.222242
0.374295
0.231946
0.356774
0.554919
0.555748
0.397167
0.0396434
0.000297255
0.00067346
0.000134576
0.0148431
0.0543486
0.153288
0.140221
0.0659061
0.109555
0.23874
0.351232
0.412999
0.0252077
0.00366411
0.00368782
0.023844
0.319552
0.733005
0.470669
0.078588
-1.3897e-10
5.79693e-08
0.0135948
0.0674765
0.179434
0.178535
0.113254
0.220977
0.418595
0.471249
0.471239
0.00751794
0.00387029
0.0037119
0.00374606
0.304782
0.741857
0.741868
0.605849
0.12516
-3.38813e-23
0.00199332
0.103528
0.177986
0.201241
0.297048
0.311363
0.283509
0.2953
0.466641
0.0382596
0.028486
0.0178475
0.0390582
0.49385
0.741898
0.741887
0.67802
0.12725
9.45283e-15
1.32886e-17
0.0755693
0.305994
0.322909
0.320449
0.301338
0.1183
0.00387647
0.292755
0.047436
0.0381432
0.0395705
0.101718
0.676656
0.738503
0.671885
0.231837
0.0160076
4.58507e-14
9.46635e-15
0.0504948
0.27446
0.304965
0.3017
0.0337449
0.000239894
0.00432433
0.401004
0.0674793
0.0380745
0.0431984
0.0974521
0.673569
0.620295
0.133107
-1.07782e-08
3.29409e-05
1.89826e-06
1.44661e-12
0.023166
0.226153
0.277547
0.0916644
0.000218426
0.000208403
0.0285874
0.403481
3.78326e-09
3.7664e-09
3.09733e-09
2.51062e-09
2.26807e-09
1.47697e-09
1.91382e-09
1.42425e-09
7.89626e-10
5.01485e-10
3.03158e-10
2.71936e-10
3.6987e-10
5.4546e-10
1.16953e-09
3.49899e-09
1.00155e-08
1.03648e-08
3.17079e-09
3.92774e-10
1.35011e-06
1.75487e-06
1.56288e-05
2.53369e-09
1.90101e-09
1.48173e-09
1.4595e-09
1.52089e-09
1.0163e-08
3.44651e-09
2.1752e-09
2.13521e-09
1.91804e-09
1.19732e-09
3.02716e-10
3.8196e-10
5.13173e-10
7.56661e-10
1.65656e-09
1.71132e-09
4.97335e-26
1.21237e-12
1.36424e-09
5.11678e-12
7.57661e-13
2.08467e-11
3.80082e-10
3.55964e-10
4.08746e-10
3.56021e-10
4.089e-10
7.69924e-08
4.81688e-09
6.6695e-09
2.19039e-08
2.62214e-08
2.26964e-08
5.27856e-20
5.9821e-20
-2.42477e-20
-6.31316e-21
6.24311e-20
1.8314e-19
-1.24442e-15
-4.81927e-30
1.58913e-23
0.000215438
0.0641635
0.189202
3.77257e-10
0.0018528
0.0347297
0.0595483
0.0658318
0.0294467
0.00223006
0.00681112
0.0261437
0.0415574
0.0571301
0.0769469
0.082745
0.0793679
0.115754
0.194982
0.278818
0.367307
0.437516
0.519482
0.720421
0.83426
0.794938
0.109753
0.447638
0.662197
0.738619
0.734669
0.551203
0.452424
0.52156
0.616142
0.652816
0.693706
0.765554
0.828186
0.863913
0.86682
0.836974
0.857906
0.962774
0.978976
0.981201
0.988143
0.926061
0.904946
0.621341
0.999631
0.99959
0.998682
0.974153
0.901292
0.915334
0.983103
0.982112
0.963129
0.974952
0.999999
1
0.999989
0.989208
0.985552
0.992571
0.999653
0.999949
0.99941
0.994395
0.98919
0.997173
0.96227
0.998974
0.999829
0.999975
1
0.999985
1
1
1
1
1
1
1
1
1
1
1
1
0.99995
0.999949
0.999991
0.999998
0.999998
0.988268
0.998551
0.999801
0.986834
0.969195
0.931478
0.91774
0.942279
0.947507
0.950644
0.959905
0.972845
0.983389
0.990042
0.994427
0.997095
0.998481
0.999305
0.999819
1
1
1
0.999998
0.984612
0.822373
0.533713
0.333126
0.22904
0.198257
0.248584
0.257997
0.249116
0.246011
0.275694
0.323428
0.367932
0.40629
0.44277
0.476205
0.502724
0.525906
0.554889
0.584025
0.597478
0.593218
0.591027
0.333712
0.201188
0.0151901
3.68488e-06
3.27225e-06
1.09243e-06
3.9129e-07
6.01877e-17
9.35818e-12
-7.525e-24
-1.69373e-25
2.79198e-34
1.5886e-17
3.24339e-17
1.52223e-17
2.69931e-18
5.18556e-26
-5.29484e-26
5.95615e-26
7.12936e-18
1.13436e-25
1.03131e-26
4.80372e-26
4.58917e-06
1.83757e-06
3.65896e-06
1.48212e-06
1.07061e-06
5.76366e-07
2.75445e-07
1.57552e-07
4.25502e-23
-4.54442e-23
-8.39165e-25
7.60043e-11
2.86016e-08
2.04043e-08
1.28998e-08
6.62201e-09
6.18412e-09
8.44607e-09
7.76904e-09
8.51232e-09
1.56113e-08
2.32081e-08
5.45367e-08
1.08195e-06
1.35679e-06
1.87196e-06
4.10493e-06
3.45888e-05
5.69283e-06
1.41458e-07
6.97067e-07
1.37911e-05
3.64044e-05
9.40502e-07
4.07971e-07
6.23265e-08
6.71173e-08
6.02317e-08
4.74558e-08
7.4529e-08
9.60261e-08
9.35669e-08
8.64464e-08
7.36384e-08
8.44939e-08
1.50119e-07
1.08216e-06
1.22607e-06
4.94544e-06
5.50478e-05
5.65019e-05
2.64568e-05
5.06924e-07
1.28458e-05
0.000124087
0.00016358
6.05476e-05
4.07471e-06
3.66887e-16
2.34476e-12
1.59142e-08
7.40556e-08
2.11104e-07
2.21558e-07
1.73632e-07
1.41891e-07
1.15937e-07
9.74482e-08
1.00991e-07
1.19772e-06
1.23059e-06
8.67775e-06
5.8539e-05
5.79798e-05
1.42336e-05
1.71357e-07
9.7337e-06
0.00016358
0.00016358
0.00016358
5.25935e-05
-1.1589e-21
3.17356e-10
9.35925e-10
1.27154e-07
2.82088e-07
2.81333e-07
2.42991e-07
1.95655e-07
1.60186e-07
9.98822e-08
7.04158e-08
1.10104e-06
1.79723e-06
4.13342e-06
1.37012e-05
9.10856e-06
3.98387e-07
5.32847e-08
4.60872e-07
0.000102561
0.00016358
0.00016358
6.96296e-05
1.85436e-21
3.83246e-09
3.44253e-09
4.10272e-08
2.45209e-07
2.82037e-07
2.66234e-07
2.18865e-07
1.65346e-07
1.12487e-07
6.35313e-08
8.29367e-07
1.65265e-06
2.20779e-06
5.0785e-08
5.22716e-08
4.77102e-08
5.19008e-08
5.01545e-08
5.30211e-06
8.7573e-05
9.15474e-05
1.06187e-05
-5.73023e-10
4.76214e-08
1.53459e-08
6.23227e-09
4.97063e-08
2.53974e-07
2.64538e-07
2.09968e-07
1.70977e-07
1.06088e-07
6.65768e-08
4.33384e-07
9.58731e-07
9.47452e-07
1.16464e-07
5.08392e-08
7.71887e-08
7.49896e-08
1.21074e-07
3.84674e-07
1.59138e-06
1.80592e-07
1.779e-07
4.39051e-07
1.52169e-07
5.97772e-08
6.28887e-09
6.6606e-09
4.4758e-08
1.7315e-07
1.6113e-07
1.15188e-07
1.02584e-07
6.20204e-08
3.09876e-07
4.90284e-07
3.82884e-07
1.30435e-07
9.20934e-08
9.46866e-08
1.01591e-07
1.35459e-07
9.25311e-08
1.67803e-07
1.65712e-07
2.82915e-07
8.48738e-07
8.12488e-07
1.7748e-07
8.27712e-09
6.44344e-09
1.34279e-08
7.35572e-08
1.02169e-07
8.02047e-08
5.25543e-08
4.71346e-08
1.97305e-07
2.37946e-07
1.82746e-07
9.72797e-08
7.99257e-08
7.79762e-08
8.09346e-08
9.04964e-08
4.27765e-08
3.2147e-08
3.32511e-08
5.13267e-07
8.42814e-07
8.43256e-07
1.92768e-07
2.85199e-08
8.47862e-09
9.31307e-09
2.79173e-08
4.15758e-08
3.42225e-08
3.39751e-08
2.50706e-08
9.15938e-08
1.31724e-07
1.04465e-07
7.42835e-08
6.27805e-08
5.60261e-08
5.34115e-08
4.61327e-08
3.22047e-08
2.96786e-08
4.49179e-08
2.81079e-07
6.38375e-07
3.87023e-07
1.0113e-07
3.16631e-08
1.14243e-08
9.55272e-09
1.29644e-08
1.85155e-08
1.8127e-08
1.34339e-08
1.17496e-08
6.61318e-08
9.46292e-08
8.12573e-08
6.20063e-08
4.86694e-08
3.56728e-08
3.33049e-08
2.76529e-08
2.46541e-08
3.0381e-08
4.88399e-08
1.04822e-07
1.34361e-07
8.96598e-08
4.58549e-08
2.20794e-08
1.14134e-08
9.37976e-09
9.17608e-09
1.01147e-08
9.6657e-09
8.32985e-09
6.35415e-09
5.28136e-08
8.00429e-08
7.18772e-08
5.47122e-08
4.09417e-08
2.70198e-08
2.24919e-08
1.86657e-08
1.76964e-08
2.19089e-08
3.10192e-08
3.70658e-08
3.00494e-08
2.61367e-08
1.86258e-08
1.28103e-08
9.14688e-09
7.78504e-09
7.02276e-09
6.58801e-09
5.99265e-09
4.90371e-09
4.16841e-09
3.97287e-08
6.72186e-08
6.45897e-08
5.04198e-08
3.45877e-08
2.31483e-08
1.70713e-08
1.34287e-08
1.18944e-08
1.31293e-08
1.53621e-08
1.49633e-08
1.23003e-08
1.02878e-08
8.82977e-09
7.52236e-09
6.27799e-09
5.46973e-09
4.73501e-09
4.27918e-09
3.81927e-09
3.43875e-09
2.83118e-09
3.31757e-08
5.77595e-08
5.69529e-08
4.36845e-08
3.12448e-08
2.01473e-08
1.39465e-08
9.8556e-09
7.79977e-09
7.13435e-09
7.03223e-09
6.34695e-09
5.45106e-09
4.86613e-09
4.49014e-09
4.1756e-09
3.66722e-09
3.26573e-09
2.83497e-09
2.56079e-09
2.35152e-09
1.99923e-09
1.76369e-09
2.40022e-08
3.95914e-08
4.05794e-08
3.3433e-08
2.43304e-08
1.69033e-08
1.12445e-08
7.30199e-09
5.17114e-09
4.109e-09
3.55663e-09
3.14678e-09
2.79882e-09
2.59025e-09
2.41435e-09
2.21588e-09
1.985e-09
1.71919e-09
1.51876e-09
1.37433e-09
1.21437e-09
1.12245e-09
9.62442e-10
1.86002e-08
2.95957e-08
2.91973e-08
2.28453e-08
1.84038e-08
1.3337e-08
8.68048e-09
5.44731e-09
3.53907e-09
2.5187e-09
1.97492e-09
1.61747e-09
1.43172e-09
1.31135e-09
1.22024e-09
1.11579e-09
9.73252e-10
8.56267e-10
7.45567e-10
6.65659e-10
5.98318e-10
5.14799e-10
4.49604e-10
1.18007e-08
1.90621e-08
1.8326e-08
1.52814e-08
1.17735e-08
9.01292e-09
6.18056e-09
3.80569e-09
2.32024e-09
1.53078e-09
1.08704e-09
8.46324e-10
7.259e-10
6.46707e-10
5.83575e-10
5.19026e-10
4.52717e-10
3.91867e-10
3.39235e-10
2.97622e-10
2.5372e-10
2.24428e-10
1.86035e-10
8.18702e-09
1.28252e-08
1.20904e-08
9.61688e-09
7.09138e-09
5.30239e-09
3.73691e-09
2.39275e-09
1.48137e-09
9.26488e-10
6.06876e-10
4.25077e-10
3.29151e-10
2.81838e-10
2.52315e-10
2.24068e-10
1.95732e-10
1.69736e-10
1.43246e-10
1.22112e-10
1.0475e-10
8.40375e-11
7.03041e-11
5.29188e-09
8.07097e-09
7.23498e-09
5.46856e-09
3.86595e-09
2.86223e-09
2.06701e-09
1.33581e-09
8.25007e-10
5.03879e-10
3.13135e-10
2.07603e-10
1.46208e-10
1.16245e-10
9.83079e-11
8.62318e-11
7.53834e-11
6.39201e-11
5.39884e-11
4.54374e-11
3.68081e-11
2.95998e-11
2.30996e-11
3.32976e-09
4.59718e-09
3.86844e-09
2.77911e-09
1.86479e-09
1.34653e-09
9.88569e-10
6.369e-10
4.04441e-10
2.47454e-10
1.47038e-10
9.21736e-11
6.05198e-11
4.42564e-11
3.49929e-11
2.94298e-11
2.52414e-11
2.18021e-11
1.81938e-11
1.49576e-11
1.21473e-11
8.93077e-12
7.01687e-12
1.84969e-09
2.36394e-09
1.8577e-09
1.26564e-09
8.03764e-10
5.57561e-10
3.8881e-10
2.64549e-10
1.70176e-10
1.03222e-10
6.19675e-11
3.68993e-11
2.29949e-11
1.55681e-11
1.1377e-11
9.13253e-12
7.72823e-12
6.49046e-12
5.48524e-12
4.44925e-12
3.32676e-12
2.49538e-12
1.83682e-12
1.02698e-09
1.11673e-09
8.03429e-10
5.19663e-10
3.14098e-10
2.06637e-10
1.40992e-10
9.79389e-11
6.22407e-11
3.76366e-11
2.2345e-11
1.31857e-11
7.85476e-12
4.84898e-12
3.42926e-12
2.62526e-12
2.15164e-12
1.80322e-12
1.43501e-12
1.13346e-12
8.61654e-13
5.86535e-13
4.20937e-13
4.3985e-10
4.33757e-10
3.20718e-10
1.96748e-10
1.06553e-10
6.41835e-11
4.45669e-11
2.93963e-11
1.93119e-11
1.18697e-11
7.03186e-12
4.10536e-12
2.37477e-12
1.40254e-12
9.20518e-13
6.70133e-13
5.30136e-13
4.34666e-13
3.45103e-13
2.59681e-13
1.84864e-13
1.26307e-13
8.35949e-14
1.93464e-10
1.54423e-10
9.37391e-11
5.52105e-11
3.05455e-11
1.79764e-11
1.20822e-11
8.51832e-12
5.53988e-12
3.39807e-12
2.00165e-12
1.12002e-12
6.19315e-13
3.46632e-13
2.17375e-13
1.57267e-13
1.19585e-13
9.24646e-14
7.0126e-14
5.13171e-14
3.46445e-14
2.23515e-14
1.39177e-14
5.46442e-11
4.77497e-11
2.89442e-11
1.62179e-11
8.5741e-12
4.86108e-12
3.11341e-12
2.08264e-12
1.35582e-12
8.37117e-13
4.80351e-13
2.61712e-13
1.38949e-13
7.7513e-14
4.75878e-14
3.20498e-14
2.43424e-14
1.80206e-14
1.31428e-14
8.93095e-15
5.82061e-15
3.55408e-15
2.0457e-15
1.7591e-11
1.31647e-11
7.48517e-12
3.91958e-12
2.01618e-12
1.11106e-12
6.88493e-13
4.54542e-13
2.85833e-13
1.72974e-13
9.80551e-14
5.34899e-14
2.79676e-14
1.59519e-14
9.65942e-15
6.4409e-15
4.57075e-15
3.25334e-15
2.25674e-15
1.4359e-15
8.57589e-16
4.8037e-16
2.59793e-16
4.05781e-12
2.55309e-12
1.37165e-12
7.99294e-13
4.10463e-13
2.15531e-13
1.30279e-13
8.15161e-14
5.43577e-14
3.33178e-14
1.91164e-14
1.04762e-14
5.65831e-15
3.05019e-15
1.81284e-15
1.18638e-15
8.14272e-16
5.49725e-16
3.50857e-16
2.04022e-16
1.12089e-16
5.68012e-17
3.2574e-17
8.22822e-13
4.54154e-13
2.40291e-13
1.24081e-13
6.48292e-14
3.49913e-14
2.17735e-14
1.55108e-14
1.06167e-14
6.49427e-15
3.62981e-15
1.87722e-15
9.82498e-16
5.28708e-16
3.12215e-16
1.992e-16
1.33605e-16
8.48431e-17
4.9847e-17
2.64343e-17
1.28436e-17
6.60617e-18
6.91515e-18
9.69196e-14
5.90478e-14
3.37843e-14
1.91088e-14
1.06041e-14
6.01901e-15
3.60215e-15
2.49494e-15
1.7235e-15
1.06152e-15
5.94164e-16
3.19089e-16
1.65855e-16
8.78749e-17
5.07075e-17
3.20918e-17
2.07717e-17
1.22444e-17
6.43074e-18
3.097e-18
1.48928e-18
1.11277e-18
3.36674e-18
7.33825e-15
4.86712e-15
3.63427e-15
2.20826e-15
1.30289e-15
7.89528e-16
5.27716e-16
3.92371e-16
2.75653e-16
1.70276e-16
9.47255e-17
5.04964e-17
2.61411e-17
1.37421e-17
8.00834e-18
5.07465e-18
3.15128e-18
1.63881e-18
7.62068e-19
3.42758e-19
2.1635e-19
4.46734e-19
2.51994e-18
1.14352e-16
1.74078e-16
2.97723e-16
2.60087e-16
1.69843e-16
1.05865e-16
7.20722e-17
5.45966e-17
3.98306e-17
2.54798e-17
1.42079e-17
7.52637e-18
3.95823e-18
2.11824e-18
1.25477e-18
7.81172e-19
4.35564e-19
2.18786e-19
9.67248e-20
4.95614e-20
6.91993e-20
2.84667e-19
1.84679e-18
1.04878e-23
1.51584e-18
1.89737e-17
2.49841e-17
1.86416e-17
1.2191e-17
8.529e-18
6.54139e-18
5.3557e-18
3.57411e-18
1.98294e-18
1.04455e-18
5.61618e-19
3.21081e-19
1.93989e-19
1.19857e-19
6.57731e-20
3.08948e-20
1.41734e-20
1.11867e-20
3.10944e-20
1.49893e-19
1.02231e-18
1.09189e-05
5.81364e-06
2.60036e-06
0.000391172
9.37936e-15
-2.74687e-08
9.4718e-15
0.380715
0.259971
0.396187
0.721444
0.755908
0.828954
0.891207
0.913595
0.902321
0.962088
0.997392
0.999418
0.999797
0.999939
0.999966
0.999976
0.999968
0.999996
0.999994
0.999981
0.99998
0.999996
0.999996
0.999908
0.999682
0.59832
0.582655
0.568509
0.551158
1.09139e-25
3.78444e-09
2.96058e-25
3.69807e-09
9.34168e-08
1.1755e-07
1.35248e-07
1.28386e-07
3.06309e-07
2.98143e-07
3.01139e-07
3.01022e-07
1.73566e-07
1.93313e-07
2.22488e-07
2.19209e-07
1.0669e-07
1.05249e-07
1.12594e-07
1.38687e-07
6.28623e-08
6.24697e-08
7.376e-08
7.72045e-08
4.35487e-08
4.33078e-08
4.4367e-08
5.12926e-08
3.83726e-08
2.66424e-08
3.03926e-08
2.86916e-08
3.1018e-08
2.30623e-08
1.53162e-08
1.62062e-08
1.93925e-08
1.17204e-08
1.17388e-08
9.06869e-09
9.36926e-09
7.93994e-09
5.91836e-09
4.94463e-09
5.62283e-09
4.30304e-09
3.87653e-09
3.23376e-09
3.60968e-09
3.04638e-09
2.70845e-09
2.38313e-09
2.59376e-09
2.25499e-09
1.97845e-09
1.80256e-09
1.62068e-09
1.42189e-09
1.33038e-09
1.20064e-09
8.84614e-10
8.18258e-10
7.03084e-10
6.77662e-10
4.15445e-10
3.68331e-10
3.51935e-10
3.23149e-10
1.77173e-10
1.59392e-10
1.36674e-10
1.30414e-10
6.16261e-11
5.61077e-11
5.223e-11
4.59818e-11
2.14421e-11
1.87505e-11
1.59073e-11
1.44102e-11
6.02565e-12
5.201e-12
4.65507e-12
4.00618e-12
1.5951e-12
1.36136e-12
1.17768e-12
9.83589e-13
3.51885e-13
3.00257e-13
2.50672e-13
1.96067e-13
6.91315e-14
5.4816e-14
4.33453e-14
3.33242e-14
1.06682e-14
8.76767e-15
6.79497e-15
4.87168e-15
1.56854e-15
1.17203e-15
8.77675e-16
6.51007e-16
1.92604e-16
1.49968e-16
1.25763e-16
1.2281e-16
2.7961e-17
2.83382e-17
3.61151e-17
5.94651e-17
8.73193e-18
1.2801e-17
2.4052e-17
5.76743e-17
5.45584e-18
1.00905e-17
2.61799e-17
7.74678e-17
4.47311e-18
1.06001e-17
3.45602e-17
1.12297e-16
3.68648e-18
1.16975e-17
4.23527e-17
1.37548e-16
3.06143e-18
1.07151e-17
3.61762e-17
1.08298e-16
0.224098
0.0860053
0.0406104
0.0399509
0.637986
0.386239
0.000635348
1.01209e-10
-2.7355e-21
2.11758e-24
-1.52182e-09
0.000977637
0.0103086
0.0165896
0.00025875
0.000174392
0.000186777
0.0304211
0.244163
0.502336
0.0925293
0.0927242
0.443812
0.76771
0.295422
0.0247389
0.13077
0.125444
0.044276
-2.65047e-08
2.65047e-08
0.000447313
0.000631016
0.00308743
0.0251508
0.0489567
0.0931088
0.100773
0.661143
0.794199
0.900153
0.93488
0.840309
0.587115
0.626893
0.858651
0.871361
0.79582
0.694434
0.585958
0.503566
0.499748
0.549878
0.620025
0.684252
0.749715
0.812648
0.964363
0.998301
0.999202
0.990033
0.907545
0.890977
0.952886
0.998085
0.999923
0.999991
0.99998
0.999891
0.997726
0.997104
0.998326
0.999717
0.999645
0.986963
0.961158
0.999947
0.999742
0.999259
0.996002
0.99634
0.998985
0.999998
1
0.999991
0.999993
0.999999
0.999999
0.999998
0.999899
0.999741
0.999764
0.99978
0.999773
0.99922
0.999965
0.999958
0.999848
0.999998
0.999999
1
1
1
1
1
1
1
1
1
0.999999
0.999999
0.999997
0.999516
0.998896
0.999995
1
1
1
1
1
1
1
1
1
0.999999
0.999989
0.999783
0.996513
0.969064
0.924086
0.89126
0.908858
0.960621
0.998941
0.998253
0.998588
0.999305
0.999754
0.999903
0.983082
0.949953
0.907017
0.855267
0.791107
0.693237
0.519121
0.322228
0.211877
0.1553
0.140185
0.19489
0.333668
0.521418
0.498744
0.476509
0.449278
0.409633
0.348613
0.284759
0.219381
0.152789
0.0889253
0.0331834
0.000168619
7.7309e-05
9.15327e-14
-1.38541e-16
-1.69095e-10
-1.9298e-10
-7.4997e-11
-2.58668e-13
3.12031e-09
1.39344e-09
2.96547e-09
4.68375e-23
2.31651e-22
5.57782e-22
-3.63114e-22
1.89921e-23
1.05879e-24
-1.33053e-10
8.59738e-09
0.000163297
0.000352998
0.000263609
1.98035e-05
2.92149e-07
5.33482e-08
9.1918e-09
2.35484e-11
8.94905e-08
6.37796e-08
2.2177e-07
4.8003e-06
9.86146e-05
0.000219404
0.000153794
2.16833e-05
3.6826e-06
1.34426e-05
0.000647901
0.00103174
0.00103277
0.000130138
1.3195e-06
3.95864e-07
5.0783e-07
3.65694e-07
2.98288e-07
2.81678e-07
2.77296e-07
1.05664e-06
6.12764e-05
0.000898881
0.000978684
0.000979118
0.000244802
4.5173e-07
3.67905e-05
0.000724003
0.000929755
8.67678e-05
3.22913e-07
4.09724e-07
5.48129e-07
5.435e-07
4.15532e-07
5.20726e-07
2.37123e-07
2.45727e-07
5.0423e-07
2.87353e-06
0.000430013
0.000945186
0.000967519
0.000342138
3.05583e-07
1.33302e-07
1.34071e-07
1.33915e-07
1.36684e-07
3.20927e-07
4.06431e-07
4.31246e-07
3.20083e-07
3.84211e-07
5.78817e-07
1.50512e-07
2.09729e-07
3.24043e-07
3.65485e-07
1.33453e-07
7.28352e-07
6.41902e-07
1.3206e-05
1.09179e-05
1.45928e-07
1.72851e-07
3.13009e-07
3.38115e-07
2.32234e-07
1.90949e-07
1.53267e-07
1.53138e-07
2.70277e-07
3.38095e-07
9.89187e-08
1.31913e-07
1.71193e-07
1.53092e-07
1.35974e-07
1.38446e-07
1.41544e-07
1.38846e-07
1.45527e-07
2.36719e-07
3.83559e-07
4.80665e-07
4.42798e-07
3.3012e-07
1.4634e-07
6.9863e-08
8.02195e-08
1.00165e-07
6.62969e-08
5.3263e-08
6.60529e-08
9.17842e-08
1.19975e-07
1.75791e-07
2.72463e-07
3.39735e-07
3.27247e-07
2.25133e-07
1.23474e-07
1.35501e-07
2.73956e-07
4.05337e-07
2.94e-07
1.26068e-07
3.38931e-08
3.35763e-08
2.69027e-08
1.42923e-08
2.9674e-08
3.46102e-08
4.10513e-08
4.76183e-08
7.68804e-08
1.65649e-07
3.13964e-07
3.58822e-07
2.89645e-07
1.50234e-07
4.61282e-08
6.89388e-08
1.23237e-07
1.07801e-07
4.1333e-08
2.71753e-08
2.58601e-08
1.38914e-08
1.36252e-08
1.4917e-08
1.73932e-08
2.16655e-08
2.32568e-08
2.35839e-08
2.92696e-08
5.50898e-08
1.13387e-07
1.06791e-07
5.5636e-08
3.74772e-08
2.39222e-08
1.44113e-08
1.27001e-08
1.31328e-08
1.71944e-08
1.49395e-08
1.38924e-08
1.40016e-08
7.37713e-09
7.11044e-09
9.91801e-09
1.24346e-08
1.48293e-08
1.54369e-08
1.19727e-08
9.42185e-09
9.71745e-09
1.29175e-08
1.8565e-08
1.74398e-08
1.22169e-08
8.51572e-09
1.02257e-08
1.15351e-08
1.2263e-08
1.44678e-08
1.5206e-08
3.66788e-09
3.16755e-09
3.77399e-09
5.34338e-09
6.76387e-09
8.52585e-09
9.41605e-09
9.25666e-09
8.88646e-09
9.92218e-09
1.06911e-08
1.03575e-08
8.71993e-09
7.6087e-09
7.70811e-09
9.75198e-09
1.20477e-08
1.71379e-08
1.67258e-08
2.3474e-09
1.89453e-09
1.8081e-09
2.10294e-09
2.8156e-09
3.44546e-09
4.16615e-09
4.4839e-09
5.08566e-09
5.32846e-09
5.1049e-09
4.73901e-09
4.45355e-09
4.59876e-09
5.53917e-09
7.84217e-09
1.28374e-08
1.91117e-08
2.67796e-08
1.75475e-09
1.40366e-09
1.21846e-09
1.14591e-09
1.14426e-09
1.3321e-09
1.53262e-09
1.81577e-09
2.04026e-09
2.17506e-09
2.15334e-09
2.07841e-09
2.31378e-09
2.96325e-09
4.15183e-09
6.86521e-09
1.4148e-08
3.43067e-08
2.88913e-08
1.3903e-09
1.09604e-09
8.90865e-10
7.36013e-10
6.54342e-10
6.16912e-10
6.34207e-10
7.18356e-10
8.2079e-10
9.20924e-10
1.05507e-09
1.27827e-09
1.64734e-09
2.34148e-09
3.65822e-09
6.69098e-09
1.69912e-08
3.98372e-08
5.52465e-08
9.6442e-10
7.60421e-10
6.17412e-10
4.89699e-10
3.84624e-10
3.18983e-10
2.84719e-10
2.90153e-10
3.39083e-10
4.35935e-10
5.82342e-10
8.19822e-10
1.22903e-09
1.974e-09
3.37952e-09
6.97505e-09
1.8893e-08
7.1254e-08
6.44001e-08
5.5116e-10
4.45406e-10
3.6053e-10
2.77935e-10
2.15441e-10
1.65992e-10
1.45451e-10
1.46671e-10
1.80038e-10
2.52365e-10
3.92384e-10
6.316e-10
1.05116e-09
1.80248e-09
3.31135e-09
7.20382e-09
2.29866e-08
7.43477e-08
8.57639e-08
2.56801e-10
2.11018e-10
1.69082e-10
1.3056e-10
1.00535e-10
7.84951e-11
7.20074e-11
8.12108e-11
1.12255e-10
1.80539e-10
3.08624e-10
5.49226e-10
9.75317e-10
1.74531e-09
3.28182e-09
7.76936e-09
2.67166e-08
8.78459e-08
8.5256e-08
1.02141e-10
8.13871e-11
6.41277e-11
4.90408e-11
3.79646e-11
3.23328e-11
3.48143e-11
4.8264e-11
7.94698e-11
1.44442e-10
2.71354e-10
5.1259e-10
9.53308e-10
1.73112e-09
3.32316e-09
8.35315e-09
3.16927e-08
8.83398e-08
6.84588e-08
3.49719e-11
2.66044e-11
2.02689e-11
1.52758e-11
1.26129e-11
1.31167e-11
1.84713e-11
3.19395e-11
6.40494e-11
1.26678e-10
2.53953e-10
5.04868e-10
9.66084e-10
1.78297e-09
3.36948e-09
9.26009e-09
3.65459e-08
9.63283e-08
5.2956e-08
1.01799e-11
7.48605e-12
5.30684e-12
4.10675e-12
4.13604e-12
6.23777e-12
1.20451e-11
2.51337e-11
5.55174e-11
1.18471e-10
2.49617e-10
5.18044e-10
1.01966e-09
1.89614e-09
3.50458e-09
9.90938e-09
4.30537e-08
9.63245e-08
5.27396e-08
2.72145e-12
1.84746e-12
1.28761e-12
1.22082e-12
1.8742e-12
4.04666e-12
9.34262e-12
2.21549e-11
5.04414e-11
1.15731e-10
2.54902e-10
5.47893e-10
1.10352e-09
2.03395e-09
3.75401e-09
1.073e-08
4.62946e-08
9.62837e-08
3.1857e-08
6.07994e-13
3.73938e-13
3.19898e-13
5.03991e-13
1.23339e-12
3.18636e-12
8.1975e-12
2.02997e-11
4.89445e-11
1.17142e-10
2.70088e-10
5.87673e-10
1.20392e-09
2.27677e-09
4.06229e-09
1.09382e-08
4.62407e-08
7.81176e-08
2.96693e-08
1.16316e-13
7.8952e-14
1.13438e-13
3.21041e-13
9.88251e-13
2.78165e-12
7.57741e-12
1.95256e-11
4.83757e-11
1.22751e-10
2.90194e-10
6.44657e-10
1.34423e-09
2.54007e-09
4.46092e-09
1.23496e-08
3.5941e-08
5.72349e-08
1.01442e-08
1.92473e-14
2.13475e-14
6.90682e-14
2.62765e-13
8.5868e-13
2.54581e-12
7.14139e-12
1.94126e-11
5.08479e-11
1.29145e-10
3.14668e-10
7.06703e-10
1.46432e-09
2.77027e-09
4.73611e-09
1.2287e-08
2.81293e-08
9.89951e-09
8.87882e-09
3.8599e-15
1.28228e-14
6.03077e-14
2.41233e-13
7.94102e-13
2.4711e-12
7.22413e-12
2.00549e-11
5.32573e-11
1.36789e-10
3.3584e-10
7.52814e-10
1.56591e-09
2.87453e-09
4.91251e-09
1.16884e-08
1.45914e-08
1.31387e-08
2.92798e-09
1.78861e-15
1.20651e-14
5.84205e-14
2.27847e-13
7.78398e-13
2.46149e-12
7.30769e-12
2.07214e-11
5.57481e-11
1.43083e-10
3.48543e-10
7.78615e-10
1.58631e-09
2.88346e-09
4.92758e-09
9.1588e-09
1.02942e-08
4.17887e-09
2.71292e-09
1.6068e-15
1.17549e-14
5.53443e-14
2.22196e-13
7.59782e-13
2.46479e-12
7.34711e-12
2.053e-11
5.56747e-11
1.42264e-10
3.45076e-10
7.55976e-10
1.52424e-09
2.72829e-09
4.26408e-09
6.79133e-09
5.21617e-09
3.76117e-09
1.04724e-09
1.67244e-15
1.14342e-14
5.29243e-14
2.12156e-13
7.23371e-13
2.34202e-12
6.92086e-12
1.9462e-11
5.17619e-11
1.31391e-10
3.14445e-10
6.79605e-10
1.34046e-09
2.37062e-09
3.46024e-09
4.90953e-09
3.6855e-09
1.30316e-09
7.0147e-10
1.71675e-15
1.1078e-14
4.92068e-14
1.90362e-13
6.46757e-13
2.02792e-12
6.02083e-12
1.66037e-11
4.37967e-11
1.10465e-10
2.60242e-10
5.58279e-10
1.08436e-09
1.82409e-09
2.61844e-09
2.81825e-09
1.79632e-09
8.41858e-10
2.89212e-10
1.77961e-15
9.71931e-15
4.15022e-14
1.51646e-13
5.04562e-13
1.55595e-12
4.50186e-12
1.23705e-11
3.23259e-11
8.0872e-11
1.90013e-10
4.01339e-10
7.64248e-10
1.2844e-09
1.63153e-09
1.797e-09
1.05242e-09
3.06387e-10
1.79918e-10
1.57622e-15
7.52433e-15
2.89751e-14
9.80357e-14
3.12516e-13
9.19995e-13
2.65169e-12
7.37461e-12
1.94476e-11
4.94455e-11
1.1737e-10
2.50331e-10
4.72926e-10
7.86478e-10
9.79315e-10
9.87568e-10
4.49059e-10
1.68097e-10
9.41721e-11
1.07166e-15
4.32943e-15
1.49923e-14
4.70942e-14
1.44673e-13
4.3372e-13
1.25112e-12
3.5154e-12
9.53428e-12
2.46857e-11
5.94082e-11
1.28203e-10
2.39615e-10
4.04533e-10
5.18048e-10
4.64017e-10
1.85649e-10
7.97913e-11
3.45918e-11
3.98722e-16
1.31274e-15
3.98248e-15
1.155e-14
3.6916e-14
1.18859e-13
3.61748e-13
1.02456e-12
2.81285e-12
7.3574e-12
1.80801e-11
4.07177e-11
7.63336e-11
1.27754e-10
1.61573e-10
1.35748e-10
5.79385e-11
1.90471e-11
2.60109e-12
)
;

boundaryField
{
    leftWall
    {
        type            alphaContactAngle;
        contactAngleProperties 
        {
            mercury         
            {
                theta0          90;
            }
            air             
            {
                theta0          90;
            }
            water           
            {
                theta0          90;
            }
        }
        value           nonuniform List<scalar> 
50
(
1.36968e-14
1.51163e-14
4.87514e-14
1.31598e-12
1.66947e-11
7.56705e-10
2.98603e-09
3.7299e-09
3.78326e-09
2.53369e-09
3.80082e-10
3.77257e-10
0.109753
0.621341
0.96227
0.988268
0.984612
0.333712
4.58917e-06
1.08195e-06
1.08216e-06
1.19772e-06
1.10104e-06
8.29367e-07
4.33384e-07
3.09876e-07
1.97305e-07
9.15938e-08
6.61318e-08
5.28136e-08
3.97287e-08
3.31757e-08
2.40022e-08
1.86002e-08
1.18007e-08
8.18702e-09
5.29188e-09
3.32976e-09
1.84969e-09
1.02698e-09
4.3985e-10
1.93464e-10
5.46442e-11
1.7591e-11
4.05781e-12
8.22822e-13
9.69196e-14
7.33825e-15
1.14352e-16
1.04878e-23
)
;
    }
    rightWall
    {
        type            alphaContactAngle;
        contactAngleProperties 
        {
            mercury         
            {
                theta0          90;
            }
            air             
            {
                theta0          90;
            }
            water           
            {
                theta0          90;
            }
        }
        value           nonuniform List<scalar> 
50
(
0.221377
0.222242
0.412999
0.471239
0.466641
0.292755
0.401004
0.403481
0.244163
0.100773
0.812648
0.961158
0.99922
0.998896
0.960621
0.333668
-2.58668e-13
2.35484e-11
2.98288e-07
5.20726e-07
5.78817e-07
3.38095e-07
6.62969e-08
1.42923e-08
1.36252e-08
1.40016e-08
1.5206e-08
1.67258e-08
2.67796e-08
2.88913e-08
5.52465e-08
6.44001e-08
8.57639e-08
8.5256e-08
6.84588e-08
5.2956e-08
5.27396e-08
3.1857e-08
2.96693e-08
1.01442e-08
8.87882e-09
2.92798e-09
2.71292e-09
1.04724e-09
7.0147e-10
2.89212e-10
1.79918e-10
9.41721e-11
3.45918e-11
2.60109e-12
)
;
    }
    lowerWall
    {
        type            alphaContactAngle;
        contactAngleProperties 
        {
            mercury         
            {
                theta0          90;
            }
            air             
            {
                theta0          90;
            }
            water           
            {
                theta0          90;
            }
        }
        value           nonuniform List<scalar> 
62
(
1.36968e-14
9.45505e-14
5.06188e-13
1.71274e-12
4.38771e-12
9.66407e-12
1.96048e-11
3.65339e-11
6.84608e-11
1.26692e-10
2.34621e-10
4.29682e-10
8.05538e-10
1.46698e-09
2.97357e-09
5.82597e-09
1.07406e-08
1.11096e-08
1.19119e-08
1.50853e-05
0.000389329
0.000567144
0.000567144
0.000567144
0.000338476
2.77633e-06
2.07776e-07
1.28874e-08
1.41101e-05
4.77972e-05
4.76756e-05
1.09189e-05
5.81364e-06
2.60036e-06
0.000391172
0.136719
0.400087
0.374295
0.0252077
0.00751794
0.0382596
0.047436
0.0674793
0.136719
0.125338
0.103051
0.0547854
0.0318352
0.031659
0.0487795
0.292011
0.307577
0.319766
0.319654
0.318656
0.276493
0.124145
0.0670914
0.101803
0.169284
0.231726
0.221377
)
;
    }
    atmosphere
    {
        type            inletOutlet;
        inletValue      uniform 0;
        value           nonuniform List<scalar> 
46
(
0
0
1.89737e-17
2.49841e-17
1.86416e-17
1.2191e-17
8.52899e-18
6.54139e-18
5.3557e-18
3.57411e-18
1.98294e-18
1.04455e-18
5.61617e-19
3.21081e-19
1.93988e-19
0
0
0
0
0
0
0
0
0
0
0
0
0
0
0
0
0
0
0
1.02456e-12
2.81285e-12
7.3574e-12
1.80801e-11
4.07177e-11
7.63336e-11
1.27754e-10
1.61574e-10
1.35748e-10
0
0
0
)
;
    }
    defaultFaces
    {
        type            empty;
    }
}


// ************************************************************************* //
