/*--------------------------------*- C++ -*----------------------------------*\
  =========                 |
  \\      /  F ield         | OpenFOAM: The Open Source CFD Toolbox
   \\    /   O peration     | Website:  https://openfoam.org
    \\  /    A nd           | Version:  13
     \\/     M anipulation  |
\*---------------------------------------------------------------------------*/
FoamFile
{
    format      ascii;
    class       volScalarField;
    location    "2.4";
    object      alpha.air;
}
// * * * * * * * * * * * * * * * * * * * * * * * * * * * * * * * * * * * * * //

dimensions      [];

internalField   nonuniform List<scalar> 
2268
(
5.55174e-13
5.33657e-13
5.41466e-13
4.74292e-13
3.74128e-13
2.5123e-13
1.35504e-13
6.4362e-14
2.69461e-14
1.48874e-14
1.38161e-14
1.60701e-14
2.68664e-14
7.0284e-14
1.68937e-13
2.68291e-13
3.87681e-13
8.33696e-13
2.14645e-12
2.97456e-12
1.72502e-12
3.49729e-13
3.49556e-13
2.16305e-12
2.36885e-12
2.25867e-12
1.92412e-12
1.62322e-12
1.12811e-12
6.05018e-13
3.03104e-13
1.61158e-13
1.2781e-13
1.56889e-13
2.90087e-13
7.16809e-13
1.83542e-12
3.75691e-12
5.08926e-12
7.29479e-12
1.803e-11
3.29527e-11
4.6772e-11
7.14166e-11
3.18364e-10
3.54387e-11
5.7069e-12
7.10619e-12
6.40711e-12
5.7457e-12
5.02359e-12
3.55909e-12
1.65365e-12
6.71559e-13
4.27571e-13
4.76908e-13
7.95832e-13
2.03279e-12
4.7503e-12
1.16882e-11
2.6506e-11
6.01162e-11
1.17424e-10
1.80343e-10
3.21853e-10
6.58532e-10
1.74303e-09
3.28085e-09
1.26489e-09
1.83127e-11
1.60375e-11
1.45577e-11
1.33127e-11
1.26987e-11
1.139e-11
9.26499e-12
5.00035e-12
2.762e-12
2.09966e-12
2.61018e-12
5.27351e-12
1.21012e-11
2.85164e-11
7.76785e-11
1.53519e-10
2.75907e-10
4.50033e-10
6.57346e-10
9.19009e-10
1.44494e-09
2.40833e-09
1.17771e-09
3.62274e-11
2.13815e-11
6.12165e-11
1.25607e-11
1.25169e-11
1.26888e-11
1.65206e-11
1.78047e-11
1.49927e-11
1.13382e-11
9.5236e-12
1.1197e-11
2.05687e-11
4.37578e-11
9.13858e-11
1.41849e-10
1.97918e-10
2.87215e-10
2.95209e-10
3.36799e-10
4.80833e-10
9.72691e-10
5.24964e-10
7.1789e-10
3.94797e-10
7.43432e-10
8.05484e-08
6.51211e-09
1.32552e-11
1.30944e-11
3.01923e-11
5.21935e-11
4.539e-11
3.72049e-11
3.61065e-11
4.20002e-11
5.70402e-11
7.80861e-11
9.54758e-11
1.20814e-10
8.24632e-12
1.81677e-11
1.29771e-06
3.08506e-06
1.82814e-07
0.000112729
4.41039e-09
8.05096e-09
1.88822e-09
1.16549e-06
1.13448e-06
2.67125e-07
1.82612e-08
2.62525e-09
6.84093e-10
3.54499e-10
2.63452e-10
2.17819e-10
2.65536e-10
2.31233e-10
1.00361e-10
1.02086e-10
6.14543e-08
3.4231e-08
5.94218e-10
1.81849e-11
0.000218168
0.00101688
0.00107362
7.66888e-09
1.97465e-08
1.08139e-07
1.14676e-06
2.0665e-06
6.69809e-07
1.34464e-07
2.13209e-08
3.76259e-09
1.40519e-09
1.07704e-09
9.90467e-10
1.16614e-09
8.32656e-10
9.63196e-11
1.63217e-08
6.0975e-08
3.24533e-08
1.97506e-11
2.66497e-05
0.00017791
0.000454269
0.000754907
0.00034003
0.000342533
0.00213852
0.0152813
0.0264115
0.0358794
0.0643978
0.0642553
0.0563341
0.0420782
0.046416
0.0662896
0.0768313
0.0736151
0.0569212
0.022121
0.0138389
0.0138046
0.0138067
0.00650349
0.00696746
0.00609872
0.00415708
0.00332891
0.00368017
0.00934311
0.026103
0.0240597
0.0415494
0.0629557
0.0547303
0.0547293
0.0822329
0.0746716
0.0580397
0.0170418
0.0137895
0.0138019
0.016861
0.0177211
0.0197652
0.0233808
0.0231664
0.00603202
0.00123377
2.58843e-05
0.000105484
0.0680216
0.175939
0.167174
0.101324
0.12822
0.188171
0.142956
0.0297828
0.0137887
0.0137832
0.0136551
0.0136264
0.0168185
0.0264737
0.0264704
0.01496
3.41674e-05
5.66419e-05
0.000821721
0.0533405
0.448149
0.550259
0.458802
0.487809
0.544909
0.487661
0.312976
0.182152
0.114782
0.0158101
0.0136461
0.0135111
0.0135011
0.0171199
0.0162539
0.00234017
2.55824e-05
0.00197675
0.00792195
0.328623
0.572348
0.572348
0.572348
0.572286
0.527406
0.472128
0.416986
0.425472
0.0612808
0.0581309
0.0275864
0.0127198
0.01273
0.0376172
0.0607558
0.0443224
0.0061535
2.71747e-05
0.0261209
0.572348
0.572348
0.572348
0.493399
0.0368854
4.80249e-05
0.0674041
0.406801
0.0601667
0.0744202
0.0729658
0.0181072
0.0330254
0.049406
0.0868976
0.0545028
0.00229432
2.33339e-05
2.8055e-05
0.179414
0.572208
0.53169
0.0881802
5.08566e-06
5.36185e-06
3.84363e-06
0.192712
0.0708365
0.0746145
0.0682439
0.056348
0.151173
0.17728
0.128757
0.0136445
6.67834e-05
2.07636e-05
1.91065e-05
1.803e-05
0.181401
0.164938
9.71343e-07
2.21382e-05
2.07032e-05
3.93098e-06
0.00188897
1.18431e-08
3.44514e-08
2.90684e-08
5.92749e-07
5.24566e-06
1.07657e-06
9.14721e-08
9.84938e-09
3.28829e-09
2.60581e-09
2.66373e-09
3.01364e-09
3.34669e-09
3.20186e-09
1.3022e-08
3.33583e-08
2.5826e-13
3.77532e-08
4.0736e-06
1.08073e-05
6.93427e-07
5.51706e-07
1.6797e-07
1.44218e-07
1.27696e-07
0.000401924
0.00025795
2.89927e-05
1.8203e-07
8.25228e-08
4.11539e-08
2.77703e-08
1.36582e-08
9.15689e-09
3.12869e-09
3.32316e-09
-2.1831e-12
0
1.01379e-22
-6.46227e-11
-1.78092e-09
-4.02899e-08
1.03218e-11
0.000664023
0.000901474
0.00536062
0.000387888
0.00297953
0.00234607
0.00046369
9.61398e-06
2.37064e-07
1.92149e-07
1.43045e-07
1.0834e-07
7.27071e-08
5.49478e-08
0.000148968
0.00192419
0.00280219
0.000617058
0.00287457
0.00499089
0.0107791
0.0454018
0.0947257
0.102153
0.0927603
0.024228
0.082635
0.0265331
0.00121211
1.21321e-05
1.04982e-05
0.0172311
0.0707322
0.0879646
0.0863755
0.0879146
0.0910744
0.0998618
0.126491
0.150481
0.155836
0.155511
0.156744
0.15889
0.159972
0.149287
0.0795031
0.0711519
0.141525
0.133123
0.0273009
7.5468e-05
8.32732e-05
0.00119593
0.109466
0.201343
0.201276
0.196504
0.201315
0.201192
0.185729
0.15754
0.131048
0.1255
0.149219
0.132833
0.0358313
0.0209967
0.0187991
0.0118562
0.073936
0.0950364
0.128688
3.2508e-06
0.000409792
0.00131803
0.025848
0.0987089
0.0846655
0.0168968
0.0178882
0.0368708
0.0250483
1.42073e-06
9.16482e-08
1.05427e-05
0.0107916
0.0144482
0.00742935
0.000347238
5.13034e-05
0.000590158
0.00560296
0.0108067
0.00279451
0.0298358
-3.71341e-09
-1.43077e-07
-6.38688e-07
4.39189e-07
1.46668e-05
2.50609e-07
1.6218e-07
1.7871e-07
1.29422e-07
6.21507e-08
4.30642e-08
1.29679e-08
2.14759e-09
2.24448e-09
-6.15052e-21
2.35456e-09
1.3855e-07
4.94755e-05
5.06471e-05
8.00145e-06
1.98634e-21
6.93129e-22
0.0117305
-6.6418e-21
8.6396e-05
0.0131663
0.0308043
0.068522
0.08226
0.0577213
0.0524924
0.0493558
0.040095
0.0271554
0.016611
0.00995784
0.00557291
0.00290526
0.00151935
0.000694659
0.000180602
1.80862e-08
1.67301e-07
6.46959e-08
1.12657e-19
0.0153881
0.176992
0.46625
0.666874
0.77096
0.801742
0.751415
0.742002
0.750884
0.753989
0.724306
0.676572
0.632068
0.59371
0.55723
0.523795
0.497275
0.474093
0.445111
0.415975
0.402522
0.406782
0.408973
0.666288
0.798812
0.984803
0.999996
0.999997
0.999999
0.999999
1
1
1
1
1
1
1
1
1
1
1
1
1
1
1
1
0.999995
0.999997
0.999993
0.999995
0.999998
0.999999
1
1
1
1
1
1
1
1
1
1
1
1
1
1
1
1
1
0.999999
0.999998
0.999996
0.99999
0.999961
0.999994
1
0.999999
0.999986
0.999963
0.999998
0.999999
1
1
1
1
1
1
1
1
1
1
1
0.999999
0.999998
0.999994
0.999939
0.999938
0.999973
0.999999
0.999987
0.999876
0.999834
0.999936
0.999995
0.999999
1
1
1
1
1
1
1
1
1
1
0.999999
0.999999
0.999991
0.99994
0.999938
0.999985
1
0.99999
0.999836
0.999834
0.999833
0.999944
0.999998
0.999999
0.999999
0.999999
0.999999
1
1
1
1
1
1
0.999999
0.999998
0.999996
0.999986
0.999991
1
1
1
0.999897
0.999836
0.999834
0.999927
0.999997
0.999997
0.999997
0.999998
0.999999
1
1
1
1
1
1
0.999999
0.999998
0.999998
1
1
1
1
1
0.999995
0.999912
0.999908
0.999987
0.999997
0.999997
0.999997
0.999997
0.999999
1
1
1
1
1
1
1
0.999999
0.999999
1
1
1
1
1
1
0.999998
1
1
0.999998
0.999997
0.999998
1
1
1
1
1
1
1
1
1
0.999999
1
1
1
1
1
1
1
1
1
1
0.999999
0.999999
1
1
1
1
1
1
1
1
1
1
1
1
1
1
1
1
1
1
1
1
0.999999
0.999999
0.999999
1
1
1
1
1
1
1
1
1
1
1
1
1
1
1
1
1
1
1
1
1
0.999999
1
1
1
1
1
1
1
1
1
1
1
1
1
1
1
1
1
1
1
1
1
1
1
1
1
1
1
1
1
1
1
1
1
1
1
1
1
1
1
1
1
1
1
1
1
1
1
1
1
1
1
1
1
1
1
1
1
1
1
1
1
1
1
1
1
1
1
1
1
1
1
1
1
1
1
1
1
1
1
1
1
1
1
1
1
1
1
1
1
1
1
1
1
1
1
1
1
1
1
1
1
1
1
1
1
1
1
1
1
1
1
1
1
1
1
1
1
1
1
1
1
1
1
1
1
1
1
1
1
1
1
1
1
1
1
1
1
1
1
1
1
1
1
1
1
1
1
1
1
1
1
1
1
1
1
1
1
1
1
1
1
1
1
1
1
1
1
1
1
1
1
1
1
1
1
1
1
1
1
1
1
1
1
1
1
1
1
1
1
1
1
1
1
1
1
1
1
1
1
1
1
1
1
1
1
1
1
1
1
1
1
1
1
1
1
1
1
1
1
1
1
1
1
1
1
1
1
1
1
1
1
1
1
1
1
1
1
1
1
1
1
1
1
1
1
1
1
1
1
1
1
1
1
1
1
1
1
1
1
1
1
1
1
1
1
1
1
1
1
1
1
1
1
1
1
1
1
1
1
1
1
1
1
1
1
1
1
1
1
1
1
1
1
1
1
1
1
1
1
1
1
1
1
1
1
1
1
1
1
1
1
1
1
1
1
1
1
1
1
1
1
1
1
1
1
1
1
1
1
1
1
1
1
1
1
1
1
1
1
1
1
1
1
1
1
1
1
1
1
1
1
1
1
1
1
1
1
1
1
1
1
1
1
1
1
1
1
1
1
1
1
1
1
1
1
1
1
1
1
1
1
1
1
1
1
1
1
1
1
1
1
1
1
1
1
1
1
1
1
1
1
1
1
1
1
1
1
1
1
1
1
1
1
1
1
1
1
1
1
1
1
1
1
1
1
1
1
1
1
1
1
1
1
1
1
1
1
1
1
1
1
1
1
1
1
1
1
1
1
1
1
1
1
1
1
1
1
1
1
1
1
1
1
1
1
1
1
1
1
1
1
1
1
1
1
1
1
1
1
1
1
1
1
1
1
1
1
1
1
1
1
1
1
1
1
1
1
1
1
1
1
1
1
1
1
1
1
1
1
1
1
1
1
1
1
1
-3.29178e-06
-1.1265e-06
8.86739e-05
0.000197302
0.00414801
0.00119261
0.000199878
0.0382101
0.0454787
0.171889
0.17865
0.178703
0.143658
0.10588
0.0750833
0.0777456
0.0377877
0.00150294
-1.15572e-19
9.73642e-21
2.21144e-06
2.22344e-06
9.18203e-06
1.33992e-05
2.24908e-06
3.09807e-06
2.81662e-06
7.17756e-07
-5.78063e-19
-7.92184e-13
9.06151e-05
0.000317255
0.401678
0.417344
0.431491
0.448842
1
1
1
1
1
1
1
1
1
1
1
1
1
1
1
1
1
1
1
1
1
1
1
1
1
1
1
1
1
1
1
1
1
1
1
1
1
1
1
1
1
1
1
1
1
1
1
1
1
1
1
1
1
1
1
1
1
1
1
1
1
1
1
1
1
1
1
1
1
1
1
1
1
1
1
1
1
1
1
1
1
1
1
1
1
1
1
1
1
1
1
1
1
1
1
1
1
1
1
1
1
1
1
1
1
1
1
1
1
1
1
1
1
1
1
1
1
1
1
1
1
1
1
1
1
1
1
1
1
1
1
1
0.112647
0.128267
0.0922401
0.171789
0.178371
0.178349
0.0672944
0.0038616
0.00257967
0.000860809
0.000264736
1.80046e-05
-4.31763e-07
-2.40225e-07
6.65851e-06
6.87304e-05
0.00100977
0.00264819
0.00186915
0.186443
0.180453
0.178908
0.178935
0.178909
0.178348
0.160261
0.0392225
0.00324783
0.00114894
0.00111238
0.000976864
0.000352037
0.000188726
0.000211831
0.000122114
0.00463697
0.0476349
0.0469067
0.186476
0.119599
0.0388156
0.059814
0.130085
0.178284
0.172648
0.0305198
0.0021825
0.000254956
0.000655186
0.00093995
0.000590245
0.000296715
0.000202746
0.000130088
0.00317505
0.0633203
0.063647
0.032296
0.0016518
0.000789193
0.00981347
0.0755117
0.108004
0.047003
0.00187498
6.26302e-05
3.85681e-06
1.88948e-05
5.39984e-05
7.70636e-05
0.000152721
0.000240886
0.000201055
0.000186303
0.0106162
0.0321469
-1.21478e-08
0.000238354
0.000734299
0.00384071
0.00365316
0.00101527
2.20272e-06
4.48005e-07
6.774e-06
4.13633e-06
3.39629e-09
2.03826e-09
1.12749e-08
9.51482e-05
0.000242547
0.000212287
0.000128457
2.56494e-05
1.36528e-22
1.56314e-05
3.6471e-05
0.000151238
3.28972e-09
2.84822e-09
2.87317e-09
2.69733e-07
4.27917e-07
3.92128e-07
2.64409e-07
4.48781e-08
1.04856e-08
1.468e-07
3.21304e-07
3.92854e-07
4.78906e-07
-9.33755e-08
-8.93984e-19
-2.41185e-09
7.91907e-08
1.23543e-07
8.17217e-08
4.2846e-09
3.28981e-09
4.14993e-08
5.25924e-08
1.51515e-08
8.6144e-09
1.27065e-14
-3.28957e-12
-3.42674e-11
-1.4174e-08
0.00199976
0.0260704
0.0684837
0.101391
0.0844513
0.0338425
0.00105865
0.001747
0.00141151
0.000694875
0.000245592
9.66646e-05
0.0169176
0.0500467
0.0929833
0.144733
0.208893
0.306763
0.477448
0.665485
0.775517
0.832093
0.848776
0.797589
0.659678
0.478582
0.501256
0.523491
0.550722
0.590367
0.651386
0.715241
0.780618
0.847166
0.910984
0.966799
0.998673
0.996696
0.99612
0.996834
0.998099
0.998253
0.998182
0.996696
1
1
1
1
0.999999
0.999995
0.999983
0.999961
0.999811
0.999452
0.999418
0.999485
0.999636
0.999736
0.99998
0.999997
0.999995
0.999996
0.999997
1
1
1
0.999995
0.999901
0.999776
0.999828
0.999933
0.999937
0.999942
0.999351
0.998968
0.998967
0.99987
0.999999
0.999999
0.999999
0.999999
0.999999
1
1
0.999999
0.999939
0.999101
0.999021
0.999021
0.999755
1
0.999963
0.999276
0.99907
0.999913
1
1
0.999999
0.999999
1
0.999999
1
1
0.999999
0.999997
0.99957
0.999055
0.999032
0.999658
1
1
1
1
1
1
1
1
1
1
0.999999
1
1
1
1
1
0.999999
0.999999
0.999987
0.999989
1
1
1
1
1
1
1
1
1
1
1
1
1
1
1
1
1
1
1
1
1
1
1
1
1
1
1
1
1
1
1
1
1
1
1
1
1
1
1
1
1
1
1
1
1
1
1
1
1
1
1
1
1
1
1
1
1
1
1
1
1
1
1
1
1
1
1
1
1
1
1
1
1
1
1
1
1
1
1
1
1
1
1
1
1
1
1
1
1
1
1
1
1
1
1
1
1
1
1
1
1
1
1
1
1
1
1
1
1
1
1
1
1
1
1
1
1
1
1
1
1
1
1
1
1
1
1
1
1
1
1
1
1
1
1
1
1
1
1
1
1
1
1
1
1
1
1
1
1
1
1
1
1
1
1
1
1
1
1
1
1
1
1
1
1
1
1
1
1
1
1
1
1
1
1
1
1
1
1
1
1
1
1
1
1
1
1
1
1
1
1
1
1
1
1
1
1
1
1
1
1
1
1
1
1
1
1
1
1
1
1
1
1
1
1
1
1
1
1
1
1
1
1
1
1
1
1
1
1
1
1
1
1
1
1
1
1
1
1
1
1
1
1
1
1
1
1
1
1
1
1
1
1
1
1
1
1
1
1
1
1
1
1
1
1
1
1
1
1
1
1
1
1
1
1
1
1
1
1
1
1
1
1
1
1
1
1
1
1
1
1
1
1
1
1
1
1
1
1
1
1
1
1
1
1
1
1
1
1
1
1
1
1
1
1
1
1
1
1
1
1
1
1
1
1
1
1
1
1
1
1
1
1
1
1
1
1
1
1
1
1
1
1
1
1
1
1
1
1
1
1
1
1
1
1
1
1
1
1
1
1
1
1
1
1
1
1
1
1
1
1
1
1
1
1
1
1
1
1
1
1
1
1
1
1
1
1
1
1
1
1
1
1
1
1
1
1
1
1
1
1
1
1
1
1
1
1
1
1
1
1
1
1
1
1
1
1
1
1
1
1
1
1
1
1
1
1
1
1
1
1
1
1
1
1
1
1
1
1
1
1
1
1
1
1
1
1
1
1
1
1
1
1
1
1
1
1
1
1
1
1
1
1
1
1
1
1
1
1
1
1
1
1
1
1
1
1
1
1
1
1
1
1
1
1
1
1
1
1
1
1
1
1
1
1
1
1
1
1
1
1
1
1
1
1
1
1
1
1
1
1
1
1
1
1
1
1
1
1
1
1
1
1
1
1
1
1
1
1
1
1
1
1
1
1
1
1
1
1
1
1
1
)
;

boundaryField
{
    leftWall
    {
        type            alphaContactAngle;
        contactAngleProperties 
        {
            mercury         
            {
                theta0          90;
            }
            water           
            {
                theta0          90;
            }
            oil             
            {
                theta0          90;
            }
        }
        value           nonuniform List<scalar> 
50
(
5.55174e-13
2.16305e-12
5.7069e-12
1.83127e-11
3.62274e-11
7.1789e-10
4.41039e-09
7.66888e-09
1.18431e-08
1.44218e-07
0.000387888
0.082635
0.133123
0.128688
0.0298358
0.0117305
0.0153881
0.666288
0.999995
0.999999
0.999999
0.999999
0.999999
0.999999
1
1
1
1
1
1
1
1
1
1
1
1
1
1
1
1
1
1
1
1
1
1
1
1
1
1
)
;
    }
    rightWall
    {
        type            alphaContactAngle;
        contactAngleProperties 
        {
            mercury         
            {
                theta0          90;
            }
            water           
            {
                theta0          90;
            }
            oil             
            {
                theta0          90;
            }
        }
        value           nonuniform List<scalar> 
50
(
0.0138067
0.0138019
0.0137832
0.114782
0.425472
0.406801
0.192712
0.00188897
0.00186915
0.0469067
0.063647
0.0321469
1.36528e-22
-2.41185e-09
0.0338425
0.659678
0.996696
0.999997
0.999999
0.999999
0.999999
1
1
1
1
1
1
1
1
1
1
1
1
1
1
1
1
1
1
1
1
1
1
1
1
1
1
1
1
1
)
;
    }
    lowerWall
    {
        type            alphaContactAngle;
        contactAngleProperties 
        {
            mercury         
            {
                theta0          90;
            }
            water           
            {
                theta0          90;
            }
            oil             
            {
                theta0          90;
            }
        }
        value           nonuniform List<scalar> 
62
(
5.55174e-13
5.33657e-13
5.41466e-13
4.74292e-13
3.74128e-13
2.5123e-13
1.35504e-13
6.4362e-14
2.69461e-14
1.48874e-14
1.38161e-14
1.60701e-14
2.68664e-14
7.0284e-14
1.68937e-13
2.68291e-13
3.87681e-13
8.33696e-13
2.14645e-12
2.97456e-12
1.72502e-12
3.49729e-13
3.49556e-13
3.49556e-13
3.54387e-11
1.26489e-09
1.17771e-09
5.24964e-10
0.000112729
0.00107362
0.000754907
-3.29178e-06
-1.1265e-06
8.86739e-05
0.000197302
0.00034003
0.00650349
0.016861
0.0136551
0.0158101
0.0612808
0.0601667
0.0708365
0.00034003
0.000342533
0.00213852
0.0152813
0.0264115
0.0358794
0.0643978
0.0642553
0.0563341
0.0420782
0.046416
0.0662896
0.0768313
0.0736151
0.0569212
0.022121
0.0138389
0.0138046
0.0138067
)
;
    }
    atmosphere
    {
        type            inletOutlet;
        inletValue      uniform 1;
        value           nonuniform List<scalar> 
46
(
1
1
0.999999
0.999999
0.999999
0.999999
0.999999
1
1
1
1
1
1
1
1
1
1
1
1
1
1
1
1
1
1
1
1
1
1
1
1
1
1
1
1
1
1
1
1
1
1
1
1
1
1
1
)
;
    }
    defaultFaces
    {
        type            empty;
    }
}


// ************************************************************************* //
