/*--------------------------------*- C++ -*----------------------------------*\
  =========                 |
  \\      /  F ield         | OpenFOAM: The Open Source CFD Toolbox
   \\    /   O peration     | Website:  https://openfoam.org
    \\  /    A nd           | Version:  13
     \\/     M anipulation  |
\*---------------------------------------------------------------------------*/
FoamFile
{
    format      ascii;
    class       volScalarField;
    location    "2.4";
    object      alphas;
}
// * * * * * * * * * * * * * * * * * * * * * * * * * * * * * * * * * * * * * //

dimensions      [];

internalField   nonuniform List<scalar> 
2268
(
2
2
2
2
2
2
2
2
2
2
2
2
2
2
2
2
2
2
2
1.99998
1.99961
1.99943
1.99943
2
2
2
2
2
2
2
2
2
2
2
2
2
2
2
2
2
2
2
1.99999
1.99997
1.9999
1.99966
2
2
2
2
2
2
2
2
2
2
2
2
2
2
2
2
2
2
2
2
2
2
2
2
2
2
2
2
2
2
2
2
2
2
2
2
2
2
2
2
2
2
2
2
2
2
2
2
2
2
2
2
2
2
2
2
2
2
2
2
2
2
2
2
2
2
2
2
2
1.63137
1.68472
1.72041
1.74789
1.78368
1.82849
1.87671
1.92145
1.95719
1.98127
1.9942
1.99919
2
2
2
2
2
2
2
2
2
2
2.0001
0.118725
0.17407
0.212725
0.242101
0.282083
0.342859
0.427974
0.537277
0.667704
0.812251
0.958254
1.09125
1.18916
1.24486
1.28142
1.29486
1.2878
1.26573
1.23834
1.21636
1.21371
1.30032
1.54807
2.67365e-08
6.27198e-08
3.27182e-07
3.43263e-06
6.1975e-06
2.01032e-06
4.047e-07
6.48134e-08
1.17284e-08
4.45671e-09
3.39947e-09
3.15878e-09
0.00767096
0.0311307
0.0401683
0.0421203
0.0386235
0.0321596
0.0258673
0.0211299
0.0204453
0.0350383
0.122512
1.84214
1.85355
1.86277
1.85596
1.86639
1.89442
1.97457
1.77044
1.74741
1.72095
1.72509
1.74442
1.73565
1.7006
1.74101
1.67136
1.71405
1.7765
1.76629
1.43001
1.41058
1.44547
1.52667
1.55775
1.60941
1.66516
1.81849
1.85251
1.87056
1.94443
1.86121
1.80449
1.82939
1.79274
1.76814
1.76516
1.7766
1.76697
0.705995
0.555203
0.67271
0.888597
1.08632
1.07255
0.903666
1.0548
1.22134
1.76239
2.11648
2.11126
1.93971
1.97453
2.11502
2.03152
1.78906
1.65822
1.59877
0.334343
0.329137
0.346184
0.394766
0.62453
0.873398
0.612803
0.309328
0.352602
0.562212
2.05468
2.48129
2.27784
2.30776
2.42997
2.26489
1.8925
1.69977
1.64153
0.239438
0.240823
0.243331
0.300193
0.593278
0.861118
0.81644
0.675762
0.224301
0.0392995
1.0248
2.1798
2.39266
2.36946
2.27103
2.052
1.77543
1.58495
1.85605
0.254067
0.260494
0.240786
0.204809
0.750035
1.04643
1.0681
0.954131
0.283757
0.015875
0.079243
1.7952
2.10355
2.16786
1.85771
0.413319
0.118444
0.206089
1.51316
0.243685
0.26722
0.264245
0.189801
0.937164
1.09152
1.13133
0.551107
0.0951813
0.0134052
0.000947233
0.58874
1.99108
1.90004
0.566241
0.0337602
0.00025598
0.004336
0.979139
0.360099
0.283328
0.256106
0.282368
1.20176
1.33393
0.650995
0.0669649
0.00146414
0.00172774
0.00067305
0.0233112
0.770357
0.772362
0.0916673
0.000285926
0.000277871
0.0285992
0.409148
3.98495e-08
1.07668e-07
9.0868e-08
1.78133e-06
1.57399e-05
3.23184e-06
2.77024e-07
3.16355e-08
1.13316e-08
9.10669e-09
9.1166e-09
9.94021e-09
1.10098e-08
1.24782e-07
1.57877e-07
2.27106e-07
2.5995e-07
3.28647e-07
1.22255e-05
3.24226e-05
1.00867e-05
4.10092e-05
8.29473e-05
4.35817e-07
3.8566e-07
0.00120577
0.000773852
8.69812e-05
5.57891e-07
2.52532e-07
1.27061e-07
8.70085e-08
4.53467e-08
3.22821e-08
1.16195e-08
1.1359e-08
1.5134e-09
2.07671e-09
4.10051e-09
1.11613e-08
1.77136e-09
-1.13835e-07
6.01437e-09
0.00199207
0.00270442
0.0160831
0.00116367
0.0089386
0.00703821
0.00139107
2.88446e-05
7.90602e-07
5.83666e-07
4.38163e-07
3.49142e-07
2.46272e-07
1.89155e-07
0.000446905
0.00577256
0.00840657
0.00185117
0.00862372
0.0149727
0.0323373
0.136205
0.284177
0.306674
0.342444
0.261886
0.247905
0.0814522
0.038366
0.0595847
0.0658633
0.0811401
0.214427
0.270705
0.28527
0.305301
0.330353
0.376532
0.462218
0.530811
0.583262
0.661515
0.74905
0.843977
0.917431
0.967343
0.95893
1.04772
1.21965
0.509124
0.529541
0.662424
0.738869
0.738257
0.8796
1.05645
1.12539
1.20565
1.25676
1.29728
1.32274
1.30081
1.25706
1.24332
1.28463
1.25641
1.07027
1.04197
1.0376
1.02371
1.14787
1.19009
1.0074
0.999641
1.00082
1.00264
1.0517
1.19742
1.16933
1.03379
1.03578
1.07374
1.0501
1
1
1.00002
1.02158
1.0289
1.01486
1.00069
1.0001
1.00118
1.0112
1.02161
1.00559
1.05178
0.998974
0.999829
0.999973
1
1.00003
1
1
1
1
1
1
1
1
1
1
1
1
1.0001
1.0001
1.00002
1
0.999999
1.02346
0.998551
1.00006
1.02633
1.06161
1.13704
1.16452
1.11544
1.10498
1.09871
1.08019
1.05431
1.03322
1.01992
1.01115
1.00581
1.00304
1.00139
1.00036
1
1
1
0.999998
1.03078
1.35335
1.93246
2.33375
2.54192
2.60348
2.50283
2.484
2.50177
2.50798
2.44861
2.35314
2.26414
2.18742
2.11446
2.04759
1.99455
1.94819
1.89022
1.83195
1.80504
1.81356
1.81794
2.33258
2.59762
2.9696
2.99999
2.99999
3
3
3
3
3
3
3
3
3
3
3
3
3
3
3
3
3
3
2.99999
2.99999
2.99998
2.99999
3
3
3
3
3
3
3
3
3
3
3
3
3
3
3
3
3
3
3
3
2.99999
2.99999
2.99997
2.99992
2.99999
3
3
2.99997
2.99992
3
3
3
3
3
3
3
3
3
3
3
3
3
3
3
2.99999
2.99987
2.99987
2.99994
3
2.99997
2.99975
2.99967
2.99987
2.99999
3
3
3
3
3
3
3
3
3
3
3
3
3
2.99998
2.99988
2.99987
2.99997
3
2.99998
2.99967
2.99967
2.99966
2.99989
2.99999
3
3
3
3
3
3
3
3
3
3
3
3
2.99999
2.99997
2.99998
3
3
3
2.99979
2.99967
2.99967
2.99985
2.99999
2.99999
2.99999
2.99999
3
3
3
3
3
3
3
3
3
3
3
3
3
3
3
2.99999
2.99982
2.99982
2.99997
2.99999
2.99999
2.99999
2.99999
3
3
3
3
3
3
3
3
3
3
3
3
3
3
3
3
3
3
3
3
2.99999
2.99999
3
3
3
3
3
3
3
3
3
3
3
3
3
3
3
3
3
3
3
3
3
3
3
3
3
3
3
3
3
3
3
3
3
3
3
3
3
3
3
3
3
3
3
3
3
3
3
3
3
3
3
3
3
3
3
3
3
3
3
3
3
3
3
3
3
3
3
3
3
3
3
3
3
3
3
3
3
3
3
3
3
3
3
3
3
3
3
3
3
3
3
3
3
3
3
3
3
3
3
3
3
3
3
3
3
3
3
3
3
3
3
3
3
3
3
3
3
3
3
3
3
3
3
3
3
3
3
3
3
3
3
3
3
3
3
3
3
3
3
3
3
3
3
3
3
3
3
3
3
3
3
3
3
3
3
3
3
3
3
3
3
3
3
3
3
3
3
3
3
3
3
3
3
3
3
3
3
3
3
3
3
3
3
3
3
3
3
3
3
3
3
3
3
3
3
3
3
3
3
3
3
3
3
3
3
3
3
3
3
3
3
3
3
3
3
3
3
3
3
3
3
3
3
3
3
3
3
3
3
3
3
3
3
3
3
3
3
3
3
3
3
3
3
3
3
3
3
3
3
3
3
3
3
3
3
3
3
3
3
3
3
3
3
3
3
3
3
3
3
3
3
3
3
3
3
3
3
3
3
3
3
3
3
3
3
3
3
3
3
3
3
3
3
3
3
3
3
3
3
3
3
3
3
3
3
3
3
3
3
3
3
3
3
3
3
3
3
3
3
3
3
3
3
3
3
3
3
3
3
3
3
3
3
3
3
3
3
3
3
3
3
3
3
3
3
3
3
3
3
3
3
3
3
3
3
3
3
3
3
3
3
3
3
3
3
3
3
3
3
3
3
3
3
3
3
3
3
3
3
3
3
3
3
3
3
3
3
3
3
3
3
3
3
3
3
3
3
3
3
3
3
3
3
3
3
3
3
3
3
3
3
3
3
3
3
3
3
3
3
3
3
3
3
3
3
3
3
3
3
3
3
3
3
3
3
3
3
3
3
3
3
3
3
3
3
3
3
3
3
3
3
3
3
3
3
3
3
3
3
3
3
3
3
3
3
3
3
3
3
3
3
3
3
3
3
3
3
3
3
3
3
3
3
3
3
3
3
3
3
3
3
3
3
3
3
3
3
3
3
3
3
3
3
3
3
3
3
3
3
3
3
3
3
3
3
3
3
3
3
3
3
3
3
3
3
3
3
3
3
3
3
3
3
3
3
3
3
3
3
3
3
3
3
3
3
3
3
3
3
3
3
3
3
3
3
3
3
3
3
3
3
3
3
3
3
3
3
3
3
3
3
3
3
3
3
3
3
3
3
3
3
3
3
1.95825e-05
2.72789e-06
0.000267911
0.0436379
0.012444
0.00357774
0.000601318
0.517253
0.396826
0.913959
1.25953
1.29351
1.26052
1.20938
1.14009
1.13688
1.0757
1.00237
0.999819
1.00017
0.999985
1
1
1.00001
1
1
0.99999
0.999982
0.999996
0.999996
1.00018
1.00063
1.80335
1.83469
1.86298
1.89768
3
3
3
3
3
3
3
3
3
3
3
3
3
3
3
3
3
3
3
3
3
3
3
3
3
3
3
3
3
3
3
3
3
3
3
3
3
3
3
3
3
3
3
3
3
3
3
3
3
3
3
3
3
3
3
3
3
3
3
3
3
3
3
3
3
3
3
3
3
3
3
3
3
3
3
3
3
3
3
3
3
3
3
3
3
3
3
3
3
3
3
3
3
3
3
3
3
3
3
3
3
3
3
3
3
3
3
3
3
3
3
3
3
3
3
3
3
3
3
3
3
3
3
3
3
3
3
3
3
3
3
3
0.641132
0.502961
0.319767
0.576457
1.24995
0.968442
0.20405
0.0118975
0.00779822
0.00273239
0.00102108
0.00125191
0.0104336
0.0166299
0.000293579
0.000423535
0.00330417
0.0384332
0.249944
1.08252
0.635789
0.631413
1.00256
1.33677
0.832329
0.505887
0.248796
0.135251
0.0477712
0.00345218
0.00305769
0.00161554
0.00124992
0.00376017
0.0256923
0.0635665
0.243129
0.249674
1.22141
1.15404
1.0181
1.11708
1.23056
1.12227
1.14529
0.950575
0.877977
0.796587
0.696402
0.588789
0.505348
0.500649
0.550629
0.620681
0.694621
0.952468
1.01737
1.06218
1.00332
1.00158
1.01947
1.13408
1.21506
1.09412
1.00379
1.00014
1.00001
1.00004
1.00006
0.99796
0.997605
0.999215
1.00046
1.00051
1.02362
1.07095
1.00002
1.00046
1.00147
1.00753
1.00731
1.00203
1
1
1.00002
1.00001
1
1
1
1.0002
1.0005
1.00043
1.00024
1.00012
1.00026
1.00001
1.00007
1.0003
1
1
1
1
1
1
1
1
1
1
1
1
1
0.999997
0.999549
0.999117
0.999996
1
1
1
1
1
1
1
1
1
0.999999
0.999991
0.999832
1.00303
1.04934
1.13319
1.19915
1.16497
1.06304
1.00212
1.00349
1.00282
1.00139
1.00049
1.00019
1.03384
1.10009
1.18597
1.28947
1.41779
1.61353
1.95235
2.32379
2.54389
2.65704
2.69157
2.59111
2.3151
1.95716
2.00251
2.04698
2.10144
2.18073
2.30277
2.43048
2.56124
2.6943
2.82192
2.93361
2.99658
2.99132
2.98983
2.99181
2.99516
2.99555
2.99556
2.99135
3
3
3
3
3
2.99999
2.99996
2.9999
2.99952
2.99858
2.99849
2.99876
2.99927
2.99947
2.99996
2.99999
2.99999
2.99999
2.99999
3
3
3
2.99999
2.9998
2.99955
2.99965
2.99984
2.99984
2.99986
2.9987
2.99794
2.99793
2.99974
3
3
3
3
3
3
3
3
2.99988
2.9982
2.99804
2.99804
2.99951
3
2.99993
2.99855
2.99814
2.99983
3
3
3
3
3
3
3
3
3
2.99999
2.99914
2.99811
2.99806
2.99932
3
3
3
3
3
3
3
3
3
3
3
3
3
3
3
3
3
3
2.99997
2.99998
3
3
3
3
3
3
3
3
3
3
3
3
3
3
3
3
3
3
3
3
3
3
3
3
3
3
3
3
3
3
3
3
3
3
3
3
3
3
3
3
3
3
3
3
3
3
3
3
3
3
3
3
3
3
3
3
3
3
3
3
3
3
3
3
3
3
3
3
3
3
3
3
3
3
3
3
3
3
3
3
3
3
3
3
3
3
3
3
3
3
3
3
3
3
3
3
3
3
3
3
3
3
3
3
3
3
3
3
3
3
3
3
3
3
3
3
3
3
3
3
3
3
3
3
3
3
3
3
3
3
3
3
3
3
3
3
3
3
3
3
3
3
3
3
3
3
3
3
3
3
3
3
3
3
3
3
3
3
3
3
3
3
3
3
3
3
3
3
3
3
3
3
3
3
3
3
3
3
3
3
3
3
3
3
3
3
3
3
3
3
3
3
3
3
3
3
3
3
3
3
3
3
3
3
3
3
3
3
3
3
3
3
3
3
3
3
3
3
3
3
3
3
3
3
3
3
3
3
3
3
3
3
3
3
3
3
3
3
3
3
3
3
3
3
3
3
3
3
3
3
3
3
3
3
3
3
3
3
3
3
3
3
3
3
3
3
3
3
3
3
3
3
3
3
3
3
3
3
3
3
3
3
3
3
3
3
3
3
3
3
3
3
3
3
3
3
3
3
3
3
3
3
3
3
3
3
3
3
3
3
3
3
3
3
3
3
3
3
3
3
3
3
3
3
3
3
3
3
3
3
3
3
3
3
3
3
3
3
3
3
3
3
3
3
3
3
3
3
3
3
3
3
3
3
3
3
3
3
3
3
3
3
3
3
3
3
3
3
3
3
3
3
3
3
3
3
3
3
3
3
3
3
3
3
3
3
3
3
3
3
3
3
3
3
3
3
3
3
3
3
3
3
3
3
3
3
3
3
3
3
3
3
3
3
3
3
3
3
3
3
3
3
3
3
3
3
3
3
3
3
3
3
3
3
3
3
3
3
3
3
3
3
3
3
3
3
3
3
3
3
3
3
3
3
3
3
3
3
3
3
3
3
3
3
3
3
3
3
3
3
3
3
3
3
3
3
3
3
3
3
3
3
3
3
3
3
3
3
3
3
3
3
3
3
3
3
3
3
3
3
3
3
3
3
3
3
3
3
3
3
3
3
3
3
3
3
3
3
3
3
3
3
3
3
3
3
3
3
3
3
3
3
3
3
3
3
3
3
3
3
3
3
)
;

boundaryField
{
    leftWall
    {
        type            calculated;
        value           nonuniform List<scalar> 
50
(
2
2
2
2
2
1.63137
0.118725
2.67365e-08
3.98495e-08
4.35817e-07
0.00116367
0.247905
0.509124
1.0074
1.05178
1.02346
1.03078
2.33258
2.99999
3
3
3
3
3
3
3
3
3
3
3
3
3
3
3
3
3
3
3
3
3
3
3
3
3
3
3
3
3
3
3
)
;
    }
    rightWall
    {
        type            calculated;
        value           nonuniform List<scalar> 
50
(
1.76629
1.76697
1.59877
1.64153
1.85605
1.51316
0.979139
0.409148
0.249944
0.249674
1.01737
1.07095
1.00026
0.999117
1.06304
2.3151
2.99135
2.99999
3
3
3
3
3
3
3
3
3
3
3
3
3
3
3
3
3
3
3
3
3
3
3
3
3
3
3
3
3
3
3
3
)
;
    }
    lowerWall
    {
        type            calculated;
        value           nonuniform List<scalar> 
62
(
2
2
2
2
2
2
2
2
2
2
2
2
2
2
2
2
2
2
2
1.99998
1.99961
1.99943
1.99943
1.99943
1.99966
2
2
2
2.0001
1.54807
0.122512
1.95825e-05
2.72789e-06
0.000267911
0.0436379
1.84214
1.43001
0.705995
0.334343
0.239438
0.254067
0.243685
0.360099
1.84214
1.85355
1.86277
1.85596
1.86639
1.89442
1.97457
1.77044
1.74741
1.72095
1.72509
1.74442
1.73565
1.7006
1.74101
1.67136
1.71405
1.7765
1.76629
)
;
    }
    atmosphere
    {
        type            calculated;
        value           nonuniform List<scalar> 
46
(
3
3
3
3
3
3
3
3
3
3
3
3
3
3
3
3
3
3
3
3
3
3
3
3
3
3
3
3
3
3
3
3
3
3
3
3
3
3
3
3
3
3
3
3
3
3
)
;
    }
    defaultFaces
    {
        type            empty;
    }
}


// ************************************************************************* //
