/*--------------------------------*- C++ -*----------------------------------*\
  =========                 |
  \\      /  F ield         | OpenFOAM: The Open Source CFD Toolbox
   \\    /   O peration     | Website:  https://openfoam.org
    \\  /    A nd           | Version:  13
     \\/     M anipulation  |
\*---------------------------------------------------------------------------*/
FoamFile
{
    format      ascii;
    class       volScalarField;
    location    "2.4";
    object      alpha.water;
}
// * * * * * * * * * * * * * * * * * * * * * * * * * * * * * * * * * * * * * //

dimensions      [];

internalField   nonuniform List<scalar> 
2268
(
9.86592e-11
1.15665e-10
1.30337e-10
1.36831e-10
1.44038e-10
1.5198e-10
1.59074e-10
1.64722e-10
1.68723e-10
1.7231e-10
1.78401e-10
1.89863e-10
2.11579e-10
2.4784e-10
3.0697e-10
3.85937e-10
4.93974e-10
6.16839e-10
1.01016e-09
1.79337e-09
2.62625e-09
2.77882e-09
2.77882e-09
2.33264e-10
2.93302e-10
2.78557e-10
2.67051e-10
2.78476e-10
3.02534e-10
3.37248e-10
3.80798e-10
4.25558e-10
4.64939e-10
4.95168e-10
5.16235e-10
5.38487e-10
5.61955e-10
5.86821e-10
6.14924e-10
6.76855e-10
7.95054e-10
1.11901e-09
1.61177e-09
2.32281e-09
2.62154e-09
2.56967e-09
3.14334e-10
4.23588e-10
3.70947e-10
3.22543e-10
3.33594e-10
3.62657e-10
4.15064e-10
4.96275e-10
6.01656e-10
7.21047e-10
8.43717e-10
9.85206e-10
1.04327e-09
1.05384e-09
9.99006e-10
8.61395e-10
9.45758e-10
1.14934e-09
1.42086e-09
1.69167e-09
2.05944e-09
2.53646e-09
1.67354e-09
2.39685e-10
3.60864e-10
2.82962e-10
2.25774e-10
2.35694e-10
2.51421e-10
2.72407e-10
3.48561e-10
4.72027e-10
6.21441e-10
8.5129e-10
1.11968e-09
1.29813e-09
1.31062e-09
1.08264e-09
7.31272e-10
7.14186e-10
8.34272e-10
9.4813e-10
1.11127e-09
1.24054e-09
1.65162e-09
1.37989e-09
8.86658e-11
9.02629e-11
8.84776e-11
9.48928e-11
9.76847e-11
9.29134e-11
9.80668e-11
9.26618e-11
9.80668e-11
9.29134e-11
9.83339e-11
9.50067e-11
3.77282e-10
2.71949e-10
1.48858e-10
1.14518e-10
1.37847e-10
2.18995e-10
2.12719e-10
2.11963e-10
2.77277e-10
4.79728e-10
3.59584e-10
0.184315
0.157638
0.139797
0.126054
0.10816
0.0857545
0.0616462
0.0392753
0.0214062
0.00936577
0.0028976
0.00040456
3.88882e-10
2.01558e-09
1.73831e-08
3.46037e-08
5.4448e-08
-7.83378e-13
5.16988e-28
-2.29413e-27
-4.80676e-11
7.40019e-22
1.25591e-20
0.940637
0.912965
0.893638
0.87895
0.858959
0.82857
0.786013
0.731362
0.666148
0.593875
0.520873
0.454376
0.405418
0.377569
0.359291
0.35257
0.356101
0.367134
0.38083
0.391819
0.393252
0.35033
0.226479
1
1
1
0.999999
0.999998
0.999999
1
1
1
1
1
1
0.996165
0.984435
0.979916
0.97894
0.980688
0.98392
0.987066
0.989448
0.989865
0.982691
0.939098
0.0107401
0.0107279
0.0181596
0.0522685
0.0640939
0.0549007
0.0205244
0.000900327
0.000673291
0.000681799
0.000837506
0.00160565
0.0323446
0.124433
0.124408
0.124477
0.065254
0.00278762
0.0130717
0.0882031
0.0983687
0.086289
0.0521494
0.0565335
0.16151
0.152409
0.060766
0.0221346
0.0412933
0.00972067
0.0008344
0.0140996
0.0865877
0.108163
0.099581
0.0205988
0.00272004
0.0122927
0.468286
0.615286
0.49514
0.289932
0.190549
0.26816
0.528962
0.472463
0.389047
0.15275
0.0223099
0.000782828
0.00416087
0.00673696
0.00362084
0.000939762
0.000989641
0.00216903
0.00100739
0.827052
0.840412
0.833473
0.803932
0.541194
0.204279
0.458281
0.806071
0.82411
0.745564
0.189936
0.00074589
0.000764489
0.000759395
0.000840979
0.000897015
0.000942653
0.00556736
0.00100533
0.884427
0.884476
0.883234
0.854781
0.55953
0.206639
0.222016
0.359207
0.826258
0.984311
0.650914
0.144513
0.000853127
0.000822189
0.00210404
0.0820211
0.206597
0.268367
0.0513912
0.884477
0.884576
0.884477
0.884427
0.384422
0.124646
0.125384
0.206086
0.797573
0.992076
0.973439
0.35079
0.0814015
0.0407909
0.157623
0.661114
0.881652
0.928719
0.300445
0.884523
0.884528
0.884575
0.863294
0.209603
0.109692
0.141841
0.63578
0.945553
0.993309
0.99954
0.770089
0.153332
0.163344
0.61012
0.96625
0.999755
0.995672
0.406284
0.821629
0.876606
0.88447
0.838264
0.137923
0.111528
0.672327
0.97334
0.999285
0.999146
0.999673
0.97677
0.592445
0.557515
0.908335
0.999759
0.999767
0.971409
0.59463
1
1
1
0.999999
0.999995
0.999999
1
1
1
1
1
1
1
1
1
1
1
1
0.999996
0.999989
0.999995
0.999979
0.999951
1
1
0.999598
0.999742
0.999971
1
1
1
1
1
1
1
1
1
1
1
1
1
1
1
0.999336
0.999099
0.994639
0.999612
0.99702
0.997654
0.999536
0.99999
1
1
1
1
1
1
0.999851
0.998076
0.997198
0.999383
0.997125
0.995009
0.989221
0.954598
0.905274
0.897632
0.843076
0.78657
0.917365
0.971614
0.964058
0.94044
0.934158
0.953322
0.927038
0.905224
0.887481
0.870528
0.851796
0.823191
0.790764
0.770151
0.72841
0.649507
0.564438
0.473803
0.402513
0.331231
0.200076
0.0945881
0.0634694
0.757123
0.525061
0.337727
0.261298
0.264135
0.339331
0.346232
0.277164
0.187354
0.145869
0.105102
0.048717
0.0142742
0.00503889
0.00768024
0.0138073
0.00926093
0.00139508
2.76135e-05
-2.83119e-21
8.21148e-20
-3.10743e-19
2.85227e-12
0.249971
0.000365746
0
0
-6.08733e-07
-5.71232e-07
-7.54291e-29
-1.06392e-26
3.83832e-27
-1.07144e-26
-3.53091e-16
-4.72012e-15
1.63661e-11
2.39198e-18
1.43934e-18
1.53666e-18
1.05216e-15
2.84479e-15
5.61865e-10
2.95754e-07
1.68888e-06
2.40045e-06
1.74387e-05
0.00789412
0.00102605
0.000171174
2.53824e-05
-8.11458e-10
1.98967e-08
1.03104e-08
4.12489e-09
7.18539e-09
3.82067e-09
2.19222e-09
4.85404e-09
1.60786e-08
2.44993e-08
2.76368e-08
2.43593e-08
2.55606e-08
2.53383e-08
2.06647e-07
6.22283e-07
7.16824e-07
8.03979e-07
1.51593e-06
1.70626e-06
0.00144914
0.00011235
2.3312e-08
2.89699e-07
3.03896e-07
1.6931e-07
1.0464e-07
1.16122e-07
6.25815e-09
1.20317e-09
1.46656e-09
5.95526e-08
1.2443e-07
1.22517e-07
9.3071e-08
1.37709e-07
3.17309e-07
3.18708e-07
2.64188e-07
1.7662e-07
2.44064e-07
1.60695e-06
2.52526e-08
0.000634502
3.77604e-05
1.75055e-08
7.25346e-08
2.34211e-07
2.48703e-07
2.48053e-07
2.30815e-07
2.39023e-08
1.2275e-09
2.76007e-09
1.06315e-07
1.99673e-07
1.98787e-07
1.99673e-07
1.35432e-07
1.6541e-09
7.62431e-10
7.34117e-10
9.90515e-08
2.91535e-07
9.7486e-07
3.05785e-08
2.52489e-08
6.57927e-06
1.82076e-08
1.75057e-08
4.66296e-08
1.25316e-07
1.13526e-07
8.01086e-08
4.64156e-08
2.50582e-08
1.58239e-08
2.84867e-08
5.91972e-08
8.81599e-08
5.63623e-08
3.39299e-09
2.47695e-09
1.89472e-09
6.86269e-10
1.56757e-11
-3.94695e-11
-1.40391e-10
1.94869e-07
1.14091e-06
2.94528e-06
3.89246e-06
6.36698e-07
3.41314e-08
1.07557e-08
1.0058e-08
1.07092e-08
3.44876e-09
4.55371e-09
3.84333e-09
2.59672e-09
2.41429e-09
2.60531e-09
2.4637e-09
5.86802e-09
6.46189e-09
2.88423e-09
1.17818e-09
9.16985e-10
2.32045e-09
7.14546e-09
5.76521e-08
1.01857e-06
2.58078e-06
5.77881e-06
4.31651e-06
2.2641e-08
1.52393e-09
1.1719e-08
2.59964e-07
7.53486e-07
6.70724e-07
1.4852e-07
8.09828e-08
2.70003e-08
2.41679e-08
3.33982e-08
2.51533e-08
4.93809e-09
2.44081e-09
2.21535e-09
1.08364e-09
7.29885e-10
3.37334e-10
1.3004e-08
4.17644e-07
1.40948e-06
5.66372e-06
5.02526e-06
7.77542e-07
2.62137e-10
2.6507e-10
2.89162e-07
2.44659e-06
3.10516e-06
9.82012e-07
5.4823e-07
2.27566e-07
2.56166e-07
2.42475e-07
8.69466e-08
6.33655e-09
5.49064e-09
4.60063e-09
2.98299e-09
1.72518e-09
3.59756e-10
9.34551e-09
4.90675e-08
1.43087e-07
1.38285e-06
3.78058e-06
4.92679e-07
2.30522e-10
2.25125e-10
6.81466e-08
1.99051e-06
3.14849e-06
3.16839e-06
2.02515e-06
1.15666e-06
1.08645e-06
8.42271e-07
2.58433e-07
4.79134e-08
9.39021e-09
8.95489e-09
6.85834e-09
4.2945e-09
1.95943e-09
1.31578e-08
1.36815e-08
2.77891e-08
1.19706e-08
3.23235e-07
2.49763e-08
1.16277e-09
2.94502e-10
1.90808e-10
4.63395e-07
2.40828e-06
3.16338e-06
3.16562e-06
3.0808e-06
2.50742e-06
1.86293e-06
4.07579e-07
6.35282e-08
1.84342e-08
1.39692e-08
1.29554e-08
1.0862e-08
7.36966e-09
2.15277e-08
1.74987e-08
4.58958e-08
1.06641e-08
8.05071e-10
8.17882e-10
8.63865e-10
2.78513e-10
1.91847e-10
1.91375e-10
1.72959e-07
2.75958e-06
3.13313e-06
3.14949e-06
3.15979e-06
2.50603e-06
5.61728e-07
6.26904e-08
2.88695e-08
1.96822e-08
2.46097e-08
2.13947e-08
1.31583e-08
2.14368e-08
1.54125e-08
4.19548e-08
1.20125e-08
2.63703e-09
1.72489e-09
5.95601e-10
2.74731e-10
3.39023e-10
3.76655e-10
6.05889e-10
8.65593e-08
1.11197e-06
2.95016e-06
2.02567e-06
3.89017e-07
2.84203e-07
1.5069e-07
3.00884e-08
1.3881e-08
2.43542e-08
2.42969e-08
1.91312e-08
2.03322e-08
1.23353e-08
1.79141e-08
8.20467e-09
4.14245e-09
1.93353e-09
5.92091e-10
4.92243e-10
7.31467e-10
8.18255e-10
5.16364e-10
5.98042e-10
4.1522e-07
4.90355e-07
1.80015e-07
1.24367e-07
7.10356e-08
9.42219e-08
4.14617e-08
1.34923e-08
1.85578e-08
1.66989e-08
1.51937e-08
1.84039e-08
9.02348e-09
9.06954e-09
5.66767e-09
3.65252e-09
2.14439e-09
1.02751e-09
1.03231e-09
1.26634e-09
1.46932e-09
7.24896e-10
7.24614e-09
7.5956e-08
3.50247e-08
2.44413e-08
3.16187e-08
3.9692e-08
4.02627e-08
2.80955e-08
1.33369e-08
1.1749e-08
1.23625e-08
1.08526e-08
1.65756e-08
6.40344e-09
5.15024e-09
4.00878e-09
2.99132e-09
2.10254e-09
1.59839e-09
1.38662e-09
1.36781e-09
1.53066e-09
1.84076e-09
5.387e-09
1.71852e-09
1.26732e-09
3.42114e-09
1.35949e-08
1.86443e-08
1.87226e-08
1.47698e-08
8.77134e-09
7.55026e-09
6.69481e-09
6.53776e-09
1.75361e-08
4.9347e-09
3.51607e-09
3.06469e-09
2.51806e-09
1.9837e-09
1.61182e-09
1.36617e-09
1.21932e-09
1.31532e-09
1.55848e-09
2.1582e-09
1.53768e-09
1.26741e-09
2.19572e-09
5.41227e-09
8.45306e-09
8.61019e-09
7.24838e-09
5.09825e-09
4.12481e-09
3.77003e-09
3.49174e-09
1.79334e-08
4.36469e-09
2.76309e-09
2.55025e-09
2.23053e-09
1.83964e-09
1.52295e-09
1.29159e-09
1.03953e-09
9.71806e-10
1.02529e-09
1.04681e-09
9.17399e-10
8.93797e-10
1.27132e-09
2.31325e-09
3.64946e-09
3.65366e-09
3.19501e-09
2.49918e-09
1.91437e-09
1.55436e-09
1.56475e-09
1.79335e-08
4.32587e-09
2.25765e-09
2.26642e-09
2.00627e-09
1.68134e-09
1.39139e-09
1.14384e-09
9.29799e-10
7.43322e-10
6.2479e-10
5.58415e-10
4.88307e-10
4.90906e-10
6.72526e-10
1.01391e-09
1.43718e-09
1.45541e-09
1.24517e-09
9.71484e-10
7.37546e-10
6.40402e-10
6.02832e-10
1.79334e-08
5.01655e-09
2.08219e-09
2.08606e-09
1.8319e-09
1.49635e-09
1.22516e-09
9.80109e-10
7.73136e-10
5.88973e-10
4.51441e-10
3.48144e-10
2.78599e-10
2.64877e-10
3.04553e-10
3.86731e-10
5.00313e-10
5.00864e-10
4.23404e-10
3.28902e-10
2.54151e-10
2.03595e-10
2.01383e-10
1.72714e-08
7.05772e-09
2.16039e-09
1.99212e-09
1.62716e-09
1.28336e-09
1.01338e-09
7.95184e-10
6.21011e-10
4.74224e-10
3.51034e-10
2.56481e-10
1.87493e-10
1.50418e-10
1.39715e-10
1.40358e-10
1.57016e-10
1.4613e-10
1.22654e-10
9.65917e-11
7.21173e-11
6.35632e-11
6.03764e-11
1.67013e-08
7.37502e-09
2.82844e-09
1.95645e-09
1.45553e-09
1.07534e-09
7.98335e-10
6.09152e-10
4.68852e-10
3.59506e-10
2.7108e-10
1.93623e-10
1.36718e-10
9.47039e-11
7.01369e-11
5.68095e-11
4.85662e-11
4.1867e-11
3.37079e-11
2.67259e-11
2.14714e-11
1.8055e-11
1.71595e-11
1.43916e-08
6.95859e-09
3.32279e-09
1.90616e-09
1.26714e-09
8.68272e-10
6.02555e-10
4.33898e-10
3.21122e-10
2.4512e-10
1.85999e-10
1.36839e-10
9.75492e-11
6.52705e-11
4.29998e-11
2.85154e-11
1.95922e-11
1.39474e-11
1.02639e-11
8.14901e-12
6.55556e-12
5.81404e-12
5.1951e-12
1.28995e-08
6.42991e-09
3.25023e-09
1.78001e-09
1.08609e-09
6.77983e-10
4.30717e-10
2.91824e-10
2.08792e-10
1.54082e-10
1.15317e-10
8.49215e-11
6.00971e-11
4.12851e-11
2.69614e-11
1.67492e-11
1.01462e-11
6.2823e-12
3.95398e-12
2.88558e-12
2.34595e-12
1.91148e-12
1.69474e-12
1.08661e-08
5.69621e-09
2.97495e-09
1.57687e-09
8.97624e-10
5.19283e-10
3.0462e-10
1.86889e-10
1.23768e-10
8.63635e-11
6.25572e-11
4.63313e-11
3.27098e-11
2.27515e-11
1.50444e-11
9.27133e-12
5.35947e-12
2.9824e-12
1.72645e-12
1.11543e-12
8.06487e-13
6.45129e-13
5.32377e-13
9.11781e-09
4.76736e-09
2.49483e-09
1.28945e-09
6.92938e-10
3.75729e-10
2.04883e-10
1.12561e-10
6.92073e-11
4.51429e-11
3.05638e-11
2.18687e-11
1.53661e-11
1.06946e-11
7.05172e-12
4.36493e-12
2.47616e-12
1.33886e-12
6.91893e-13
3.99954e-13
2.78935e-13
1.96759e-13
1.61006e-13
6.99394e-09
3.66223e-09
1.8859e-09
9.51227e-10
4.87791e-10
2.5147e-10
1.23718e-10
6.42941e-11
3.58256e-11
2.12012e-11
1.37163e-11
9.19468e-12
6.32147e-12
4.31717e-12
2.79968e-12
1.74188e-12
9.9153e-13
5.02721e-13
2.56245e-13
1.36095e-13
8.00924e-14
5.65905e-14
4.30885e-14
5.22352e-09
2.58595e-09
1.27472e-09
6.24689e-10
3.06683e-10
1.49893e-10
6.9538e-11
3.40611e-11
1.69759e-11
9.15565e-12
5.46293e-12
3.50138e-12
2.29428e-12
1.47674e-12
9.6568e-13
5.93226e-13
3.28127e-13
1.66095e-13
7.49808e-14
3.81065e-14
2.24073e-14
1.40321e-14
1.03031e-14
3.13906e-09
1.55304e-09
7.72567e-10
3.65421e-10
1.65247e-10
7.51989e-11
3.45983e-11
1.51135e-11
7.12458e-12
3.54508e-12
1.95616e-12
1.18351e-12
7.38804e-13
4.56775e-13
2.83374e-13
1.66824e-13
8.92529e-14
4.3664e-14
1.96849e-14
9.26453e-15
5.04451e-15
3.17731e-15
2.15765e-15
1.88639e-09
8.09984e-10
3.61074e-10
1.64378e-10
7.42443e-11
3.29275e-11
1.4439e-11
6.28857e-12
2.71552e-12
1.2503e-12
6.42763e-13
3.55759e-13
2.07098e-13
1.20252e-13
7.07705e-14
4.11333e-14
2.10014e-14
9.58036e-15
4.07045e-15
1.88463e-15
9.95837e-16
6.0117e-16
3.83629e-16
7.69247e-10
3.65406e-10
1.57585e-10
6.84566e-11
2.94457e-11
1.25493e-11
5.24965e-12
2.14521e-12
8.79609e-13
3.82076e-13
1.80121e-13
9.27851e-14
5.03683e-14
2.85187e-14
1.60835e-14
8.51881e-15
4.18344e-15
1.75862e-15
7.31208e-16
3.30506e-16
1.75043e-16
1.01698e-16
5.97268e-17
3.28442e-10
1.41496e-10
5.80908e-11
2.32313e-11
9.67428e-12
4.00988e-12
1.6266e-12
6.40139e-13
2.41665e-13
9.72924e-14
4.29765e-14
2.12472e-14
1.09994e-14
6.17872e-15
3.32476e-15
1.66957e-15
7.35829e-16
2.91513e-16
1.17584e-16
5.2014e-17
2.65641e-17
1.44448e-17
7.74726e-18
1.00528e-10
3.8682e-11
1.50522e-11
6.53748e-12
2.65457e-12
1.05064e-12
4.16163e-13
1.50547e-13
5.81343e-14
2.27501e-14
9.6864e-15
4.62119e-15
2.39062e-15
1.22812e-15
6.22399e-16
2.90244e-16
1.17465e-16
4.35081e-17
1.68607e-17
7.26283e-18
3.57903e-18
1.74029e-18
8.25522e-19
2.63636e-11
9.33648e-12
3.6024e-12
1.4166e-12
5.71117e-13
2.27289e-13
9.17361e-14
3.60585e-14
1.36585e-14
5.14553e-15
2.06979e-15
9.05786e-16
4.42255e-16
2.18715e-16
1.04588e-16
4.44307e-17
1.6707e-17
5.76152e-18
2.20177e-18
9.36842e-19
4.12625e-19
1.77372e-19
8.54897e-20
4.02842e-12
1.61118e-12
6.71748e-13
2.8402e-13
1.19373e-13
4.93732e-14
1.8855e-14
6.86254e-15
2.58492e-15
9.57693e-16
3.76919e-16
1.67001e-16
7.88103e-17
3.68115e-17
1.61358e-17
6.27451e-18
2.19111e-18
7.39541e-19
2.69411e-19
1.07433e-19
4.28291e-20
1.60192e-20
5.34531e-21
3.83007e-13
1.73008e-13
9.14006e-14
4.13995e-14
1.82533e-14
7.97211e-15
3.30825e-15
1.28619e-15
4.77735e-16
1.73365e-16
6.63275e-17
2.84489e-17
1.2969e-17
5.72293e-18
2.34084e-18
8.47931e-19
2.80728e-19
8.84417e-20
3.00951e-20
1.06371e-20
3.60484e-21
1.11515e-21
1.04113e-22
7.30453e-15
7.58744e-15
8.74508e-15
5.6354e-15
2.78551e-15
1.25452e-15
5.2618e-16
2.0377e-16
7.63746e-17
2.83615e-17
1.08249e-17
4.53762e-18
2.02831e-18
8.59126e-19
3.29597e-19
1.1163e-19
3.346e-20
1.05046e-20
3.4341e-21
1.05446e-21
3.1326e-22
2.73071e-23
6.28073e-25
5.50245e-21
8.14846e-17
6.26842e-16
5.98732e-16
3.43368e-16
1.64474e-16
7.09533e-17
2.7737e-17
1.12035e-17
4.29025e-18
1.6255e-18
6.66772e-19
2.92721e-19
1.23574e-19
4.50916e-20
1.45808e-20
4.28499e-21
1.30613e-21
3.98684e-22
1.06168e-22
1.74965e-23
4.95758e-25
5.14048e-27
0.999983
0.999995
0.999909
0.978084
0.995852
0.998807
0.999799
0.570121
0.694341
0.430871
0.0988385
0.0646401
0.0270929
0.00264771
0.0106991
0.019273
1.37783e-11
0.000871979
0.000381509
1.7023e-05
3.93997e-05
1.66128e-05
1.42049e-05
1.884e-05
1.52404e-06
2.79671e-06
1.57026e-05
1.96751e-05
4.38878e-06
4.32305e-06
1.68321e-06
4.98298e-07
2.01572e-06
2.64373e-07
1.73301e-09
1.72451e-09
-1.83017e-10
9.48371e-10
6.39315e-09
6.88641e-09
1.01968e-08
1.13041e-08
1.13141e-08
1.00556e-08
2.39293e-10
2.52019e-10
2.42515e-10
4.62227e-10
2.68276e-10
2.3698e-10
1.82293e-10
1.31263e-10
8.14118e-10
7.61993e-10
6.26103e-10
4.11525e-10
4.39448e-09
2.97635e-09
2.10539e-09
1.49428e-09
9.6329e-09
8.00379e-09
5.65485e-09
4.18954e-09
1.26902e-08
8.80333e-09
8.7626e-09
7.08785e-09
1.21755e-08
1.02662e-08
7.87197e-09
7.81669e-09
9.55475e-09
7.50037e-09
7.30446e-09
6.45132e-09
5.94251e-09
5.56769e-09
4.85782e-09
4.52128e-09
3.39885e-09
3.07265e-09
3.00512e-09
2.81976e-09
1.57694e-09
1.45897e-09
1.55363e-09
1.50511e-09
6.2689e-10
6.52998e-10
6.69672e-10
6.73717e-10
2.06869e-10
2.06593e-10
2.47502e-10
2.47861e-10
6.06154e-11
6.51241e-11
6.55905e-11
7.19722e-11
1.73322e-11
1.69592e-11
1.89956e-11
1.8953e-11
5.20827e-12
5.00974e-12
4.64408e-12
4.75578e-12
1.55669e-12
1.46526e-12
1.45207e-12
1.33993e-12
5.09517e-13
4.63209e-13
4.10295e-13
3.90838e-13
1.43556e-13
1.28356e-13
1.20346e-13
1.08633e-13
3.88049e-14
3.45581e-14
3.11613e-14
2.7441e-14
8.89521e-15
7.89821e-15
6.90683e-15
5.6974e-15
1.84037e-15
1.52346e-15
1.25835e-15
1.0148e-15
3.02669e-16
2.57081e-16
2.06265e-16
1.52472e-16
4.66906e-17
3.54913e-17
2.65005e-17
1.86751e-17
5.60765e-18
4.05819e-18
2.87497e-18
1.97652e-18
5.55982e-19
4.01489e-19
2.10913e-19
5.58157e-20
2.98891e-20
1.10084e-20
3.09843e-21
3.70418e-22
4.18196e-22
6.68802e-23
1.50084e-23
9.84361e-25
2.99551e-36
1.1664e-25
1.76649e-26
1.54815e-27
-3.48036e-43
9.88909e-29
4.092e-28
1.34102e-27
-2.82647e-46
9.81231e-29
3.50505e-28
1.03614e-27
0.623709
0.769651
0.865932
0.777691
0.145218
0.411834
0.931305
0.995982
0.997391
0.999064
0.999622
0.998894
0.989629
0.98339
0.999727
0.999735
0.998759
0.966897
0.753881
0.300794
0.726067
0.727385
0.36628
0.0372154
0.525299
0.814817
0.829828
0.871277
0.954551
0.99883
0.99896
0.999145
0.999154
0.996682
0.97464
0.946057
0.855698
0.84823
0.151962
0.0856806
0.060279
0.00392777
0.0296058
0.234451
0.200233
0.110647
0.126422
0.203924
0.30491
0.413096
0.495838
0.499949
0.449848
0.379712
0.312151
0.180569
0.116814
0.00287655
1.66875e-05
4.56096e-06
0.000152955
0.0169429
0.000981942
1.90331e-07
-1.35076e-19
-2.48186e-19
-1.29082e-19
-2.83011e-20
5.34421e-05
0.00219555
0.00272192
0.0013496
1.10567e-05
1.47287e-05
1.82739e-05
2.16435e-05
1.66534e-05
1.62788e-05
4.13411e-06
0.000154542
3.65016e-06
1.29469e-08
1.19713e-08
-4.39696e-25
2.63923e-08
2.45978e-07
2.62579e-07
1.63322e-07
8.57966e-07
1.24894e-12
2.24606e-09
7.50375e-06
5.19353e-05
6.49334e-05
0.000261007
1.97595e-05
5.69856e-06
8.99478e-10
2.03363e-09
5.2108e-08
3.10854e-08
2.74334e-08
3.31263e-08
6.8619e-08
1.16188e-07
1.79514e-07
6.48642e-08
3.02603e-09
-1.58701e-12
1.46122e-10
3.24703e-08
2.5519e-06
0.000467434
0.000993563
4.56271e-06
1.86863e-08
1.06999e-09
4.9018e-09
2.79174e-08
8.01262e-09
8.83992e-09
1.20944e-08
1.6933e-08
6.02265e-08
8.72563e-07
1.03767e-05
0.000192295
0.00122787
0.00383216
0.00560159
0.00549017
0.00531062
0.00508952
7.93529e-07
3.22893e-07
4.33146e-09
1.53089e-09
2.28992e-09
7.35045e-10
3.02483e-08
1.56992e-07
3.16627e-09
1.93679e-09
1.98236e-08
4.73754e-08
0.00298737
0.00973358
0.00987592
0.0098756
0.00851168
0.00579365
0.00545547
1.73301e-09
1.35087e-08
3.26508e-09
2.33779e-08
1.69857e-07
2.4484e-07
4.21234e-07
2.16608e-07
3.65108e-05
6.84959e-05
5.21833e-07
0.000961551
0.0026467
0.00314494
0.00251206
0.00146768
0.00135173
0.00130997
0.00267399
8.36939e-09
1.13326e-08
5.52859e-08
2.67885e-07
6.51582e-07
3.45274e-06
1.24323e-05
2.93007e-05
0.000144934
0.000437288
0.00046564
0.000279749
8.31328e-06
3.23481e-17
-6.64275e-11
2.04473e-06
3.4509e-06
3.09033e-06
2.10242e-06
2.85676e-08
5.62221e-08
1.02435e-07
9.56433e-08
9.42291e-08
3.00088e-06
1.27526e-05
3.54171e-05
4.75157e-05
3.56185e-05
5.37776e-07
7.38778e-09
6.26709e-09
3.6707e-09
3.31681e-09
2.15387e-07
3.15684e-07
3.83893e-07
3.84829e-07
1.39443e-09
7.11848e-09
1.59517e-08
1.33235e-08
2.72163e-09
3.75716e-11
3.58831e-11
3.72e-11
3.14573e-08
1.3791e-08
1.92226e-08
4.40271e-08
2.49302e-08
1.95607e-09
3.34951e-09
3.34484e-09
1.76941e-09
6.71647e-10
5.84257e-10
6.89224e-11
3.8956e-11
4.02078e-11
3.87267e-11
3.98447e-11
5.99283e-11
8.91851e-11
7.20811e-10
7.96789e-09
2.71648e-08
4.62382e-08
4.63817e-08
2.26336e-08
1.00581e-09
1.26687e-09
2.17101e-09
1.38033e-09
5.54512e-10
7.31458e-10
2.2711e-10
1.04913e-10
8.10575e-11
8.09264e-11
1.07446e-10
1.92564e-10
3.25113e-10
7.58064e-10
5.32456e-09
1.63778e-08
3.54256e-08
2.34988e-08
2.85714e-09
1.42723e-09
5.20479e-10
5.43739e-10
3.93472e-10
2.10261e-10
4.10963e-10
7.49189e-10
1.70035e-10
9.61658e-11
9.13557e-11
1.17637e-10
2.50655e-10
4.14514e-10
7.98594e-10
1.37231e-09
1.5661e-09
9.37163e-10
1.0102e-09
4.0047e-10
4.59748e-10
2.77279e-10
1.26199e-10
7.06705e-11
7.62894e-11
2.10421e-10
2.76805e-09
3.66893e-10
1.12568e-10
9.95573e-11
1.00655e-10
1.21017e-10
1.54927e-10
2.51751e-10
6.36306e-10
1.21517e-09
1.42712e-09
1.10359e-09
3.90772e-10
3.22164e-10
1.84847e-10
5.76806e-11
1.94737e-11
3.17299e-11
8.53303e-11
5.98919e-09
1.2418e-09
1.50631e-10
1.27288e-10
1.08682e-10
1.13597e-10
1.44456e-10
1.91019e-10
2.5371e-10
3.78735e-10
3.94179e-10
3.5763e-10
3.60815e-10
2.49574e-10
1.16794e-10
3.58229e-11
8.93311e-12
1.17e-11
4.1024e-11
6.78468e-09
3.33032e-09
5.94161e-10
2.17788e-10
1.32222e-10
1.13541e-10
1.20834e-10
1.44628e-10
1.78745e-10
2.15245e-10
2.09522e-10
1.53102e-10
1.14092e-10
8.43931e-11
3.86535e-11
1.1826e-11
2.89362e-12
5.09702e-12
1.42092e-11
5.67591e-09
4.50454e-09
1.82801e-09
7.70892e-10
3.4678e-10
1.86105e-10
1.40298e-10
1.27348e-10
1.25126e-10
1.24572e-10
1.11481e-10
8.31249e-11
5.09242e-11
2.63395e-11
8.64534e-12
1.33338e-12
7.78909e-13
1.40028e-12
3.6235e-12
4.01071e-09
3.47036e-09
2.45786e-09
1.37401e-09
8.02587e-10
4.54851e-10
2.47942e-10
1.50738e-10
1.02511e-10
7.25157e-11
5.65213e-11
4.34614e-11
2.70799e-11
1.5363e-11
4.81928e-12
6.8762e-13
3.4522e-13
3.16171e-13
6.85143e-13
2.50805e-09
2.1883e-09
1.86915e-09
1.41758e-09
9.51478e-10
5.99802e-10
3.61119e-10
2.04623e-10
1.05149e-10
5.13505e-11
3.46234e-11
2.20541e-11
1.21615e-11
5.76843e-12
1.53456e-12
2.64682e-13
8.8427e-14
5.33574e-14
9.51673e-14
1.3435e-09
1.23766e-09
1.09067e-09
9.36442e-10
7.51707e-10
5.43283e-10
3.62584e-10
2.18055e-10
1.15632e-10
4.9355e-11
2.61341e-11
1.30679e-11
4.64578e-12
1.38565e-12
3.09982e-13
9.13362e-14
1.94443e-14
9.39631e-15
9.72116e-15
6.35642e-10
6.02305e-10
5.41997e-10
4.65769e-10
4.01694e-10
3.30791e-10
2.57221e-10
1.72496e-10
1.00356e-10
5.04945e-11
2.08021e-11
7.03948e-12
2.06304e-12
5.49889e-13
1.33626e-13
4.1261e-14
4.47191e-15
1.78431e-15
1.29316e-15
2.38927e-10
2.31282e-10
2.21511e-10
1.99698e-10
1.70192e-10
1.43162e-10
1.17082e-10
9.57505e-11
6.43302e-11
3.57123e-11
1.58632e-11
5.19043e-12
1.2235e-12
2.44927e-13
5.84654e-14
7.04122e-15
1.05306e-15
6.88526e-16
2.92913e-16
6.88838e-11
6.98678e-11
6.88455e-11
6.34885e-11
5.73391e-11
4.89049e-11
4.27159e-11
3.70141e-11
2.82044e-11
1.79206e-11
9.37876e-12
3.33741e-12
7.3236e-13
1.15687e-13
2.23314e-14
2.00116e-15
4.31308e-16
4.01137e-16
1.9761e-16
1.72558e-11
1.73671e-11
1.70216e-11
1.60223e-11
1.47914e-11
1.3287e-11
1.21243e-11
1.09476e-11
8.97577e-12
6.82371e-12
4.14075e-12
1.66877e-12
3.76027e-13
5.04858e-14
4.78395e-15
3.25819e-16
2.0606e-16
2.73293e-16
1.24855e-16
4.26404e-12
4.02735e-12
3.78221e-12
3.47507e-12
3.16145e-12
2.90337e-12
2.73308e-12
2.5114e-12
2.28428e-12
1.90965e-12
1.31841e-12
6.07529e-13
1.53724e-13
1.88616e-14
8.51313e-16
8.53996e-17
1.01463e-16
1.51406e-16
9.98306e-17
1.1453e-12
9.98801e-13
8.70848e-13
7.43446e-13
6.40545e-13
5.70777e-13
5.05053e-13
4.77951e-13
4.67183e-13
4.27619e-13
3.21623e-13
1.67074e-13
3.21225e-14
2.31648e-15
1.22027e-16
3.54119e-17
4.81618e-17
9.94216e-17
6.20495e-17
3.08457e-13
2.54083e-13
1.97971e-13
1.53345e-13
1.2496e-13
9.15968e-14
7.85423e-14
7.74135e-14
7.62351e-14
7.12252e-14
5.69767e-14
2.12212e-14
3.19208e-15
1.82132e-16
1.45225e-17
1.2713e-17
2.32776e-17
5.83984e-17
4.69336e-17
8.21646e-14
6.14505e-14
4.36267e-14
3.36066e-14
2.24224e-14
1.13336e-14
8.18455e-15
8.20456e-15
8.14789e-15
7.99201e-15
4.79782e-15
1.61635e-15
2.20572e-16
7.52643e-18
2.02918e-18
4.26448e-18
1.2068e-17
4.30969e-17
2.48554e-17
1.87517e-14
1.22693e-14
8.76037e-15
6.07926e-15
2.79347e-15
8.77124e-16
4.78621e-16
5.02773e-16
5.69268e-16
4.79877e-16
3.02347e-16
8.97456e-17
7.59907e-18
2.59165e-19
4.90832e-19
2.15678e-18
8.40163e-18
2.3368e-17
1.74037e-17
3.68658e-15
2.31405e-15
1.5774e-15
7.29953e-16
2.05161e-16
3.04559e-17
1.3692e-17
1.68657e-17
2.07536e-17
1.56928e-17
8.44885e-18
2.43202e-18
2.02137e-19
8.42566e-20
2.87966e-19
1.57139e-18
6.08735e-18
1.60466e-17
7.6814e-18
5.95567e-16
3.89384e-16
1.69865e-16
4.40544e-17
5.25593e-18
2.66238e-19
1.96324e-19
3.62439e-19
3.66622e-19
3.16234e-19
1.55455e-19
3.13289e-20
2.31797e-20
5.03877e-20
2.05385e-19
1.20184e-18
4.37635e-18
7.46313e-18
4.97938e-18
8.59522e-17
4.46777e-17
9.87827e-18
9.21827e-19
3.44338e-20
1.87482e-21
2.57901e-21
4.68369e-21
5.92565e-21
6.07842e-21
6.1624e-21
9.78355e-21
1.81497e-20
4.2566e-20
1.75473e-19
9.75751e-19
2.61068e-18
4.81215e-18
1.84114e-18
1.01987e-17
2.69504e-18
2.21406e-19
4.25209e-21
9.78522e-23
9.18686e-23
1.50832e-22
3.35086e-22
7.51637e-22
1.71501e-21
3.9776e-21
8.71051e-21
1.68252e-20
3.94685e-20
1.64544e-19
6.78086e-19
1.64652e-18
1.8989e-18
1.07065e-18
6.11464e-19
4.26888e-20
6.2297e-22
1.0735e-23
1.39164e-23
3.22656e-23
8.85479e-23
2.40268e-22
6.38612e-22
1.59255e-21
3.79072e-21
8.19275e-21
1.57358e-20
3.63092e-20
1.27457e-19
4.15563e-19
9.03229e-19
1.09036e-18
3.13143e-19
5.20187e-21
1.01188e-22
1.81422e-24
2.78125e-24
8.15124e-24
2.57582e-23
7.51287e-23
2.08711e-22
5.45732e-22
1.35619e-21
3.19175e-21
6.83456e-21
1.29907e-20
2.94529e-20
9.25994e-20
2.70705e-19
5.03442e-19
3.5575e-19
1.44455e-19
1.65736e-23
4.83922e-25
5.81761e-25
2.00362e-24
6.66971e-24
2.05889e-23
6.02624e-23
1.63649e-22
4.24748e-22
1.05006e-21
2.43554e-21
5.19277e-21
9.84295e-21
2.11388e-20
6.11228e-20
1.55728e-19
2.10298e-19
1.64438e-19
3.60367e-20
4.87928e-26
1.01197e-25
4.15278e-25
1.48402e-24
4.83768e-24
1.46505e-23
4.16321e-23
1.12313e-22
2.88197e-22
7.06905e-22
1.63441e-21
3.43385e-21
6.48523e-21
1.38493e-20
3.22678e-20
8.90968e-20
9.19524e-20
4.28343e-20
1.55473e-20
1.55642e-26
7.27814e-26
2.7294e-25
8.98117e-25
2.79041e-24
8.02429e-24
2.26626e-23
6.17658e-23
1.59634e-22
3.9845e-22
9.30506e-22
1.97406e-21
3.75263e-21
7.92954e-21
1.64554e-20
4.17694e-20
2.93127e-20
1.58417e-20
6.1254e-21
1.02001e-26
4.0124e-26
1.34666e-25
4.096e-25
1.22258e-24
3.57017e-24
1.00716e-23
2.76441e-23
7.33443e-23
1.86074e-22
4.40055e-22
9.42e-22
1.78908e-21
3.80913e-21
7.47219e-21
1.61304e-20
8.59262e-21
5.47242e-21
1.74592e-21
3.7183e-27
1.18675e-26
3.47549e-26
9.71448e-26
3.00909e-25
9.41089e-25
2.79585e-24
7.71779e-24
2.06599e-23
5.27899e-23
1.2723e-22
2.838e-22
5.41744e-22
1.12589e-21
2.06591e-21
3.87489e-21
2.14931e-21
1.01139e-21
1.07489e-22
)
;

boundaryField
{
    leftWall
    {
        type            alphaContactAngle;
        contactAngleProperties 
        {
            mercury         
            {
                theta0          90;
            }
            air             
            {
                theta0          90;
            }
            oil             
            {
                theta0          90;
            }
        }
        value           nonuniform List<scalar> 
50
(
9.86592e-11
2.33264e-10
3.14334e-10
2.39685e-10
8.86658e-11
0.184315
0.940637
1
1
1
0.999612
0.917365
0.757123
0.249971
0.00789412
1.70626e-06
2.52526e-08
3.05785e-08
1.94869e-07
5.76521e-08
1.3004e-08
9.34551e-09
1.31578e-08
2.15277e-08
2.14368e-08
2.03322e-08
1.84039e-08
1.65756e-08
1.75361e-08
1.79334e-08
1.79335e-08
1.79334e-08
1.72714e-08
1.67013e-08
1.43916e-08
1.28995e-08
1.08661e-08
9.11781e-09
6.99394e-09
5.22352e-09
3.13906e-09
1.88639e-09
7.69247e-10
3.28442e-10
1.00528e-10
2.63636e-11
4.02842e-12
3.83007e-13
7.30453e-15
5.50245e-21
)
;
    }
    rightWall
    {
        type            alphaContactAngle;
        contactAngleProperties 
        {
            mercury         
            {
                theta0          90;
            }
            air             
            {
                theta0          90;
            }
            oil             
            {
                theta0          90;
            }
        }
        value           nonuniform List<scalar> 
50
(
0.0130717
0.0122927
0.00100739
0.00100533
0.0513912
0.300445
0.406284
0.59463
0.753881
0.84823
0.116814
2.16435e-05
0.000261007
0.000993563
0.00508952
0.00545547
0.00267399
2.10242e-06
3.84829e-07
5.84257e-10
7.31458e-10
4.10963e-10
2.10421e-10
8.53303e-11
4.1024e-11
1.42092e-11
3.6235e-12
6.85143e-13
9.51673e-14
9.72116e-15
1.29316e-15
2.92913e-16
1.9761e-16
1.24855e-16
9.98306e-17
6.20495e-17
4.69336e-17
2.48554e-17
1.74037e-17
7.6814e-18
4.97938e-18
1.84114e-18
1.07065e-18
3.13143e-19
1.44455e-19
3.60367e-20
1.55473e-20
6.1254e-21
1.74592e-21
1.07489e-22
)
;
    }
    lowerWall
    {
        type            alphaContactAngle;
        contactAngleProperties 
        {
            mercury         
            {
                theta0          90;
            }
            air             
            {
                theta0          90;
            }
            oil             
            {
                theta0          90;
            }
        }
        value           nonuniform List<scalar> 
62
(
9.86592e-11
1.15665e-10
1.30337e-10
1.36831e-10
1.44038e-10
1.5198e-10
1.59074e-10
1.64722e-10
1.68723e-10
1.7231e-10
1.78401e-10
1.89863e-10
2.11579e-10
2.4784e-10
3.0697e-10
3.85937e-10
4.93974e-10
6.16839e-10
1.01016e-09
1.79337e-09
2.62625e-09
2.77882e-09
2.77882e-09
2.77882e-09
2.56967e-09
1.67354e-09
1.37989e-09
3.59584e-10
1.25591e-20
0.226479
0.939098
0.999983
0.999995
0.999909
0.978084
0.0107401
0.0882031
0.468286
0.827052
0.884427
0.884477
0.884523
0.821629
0.0107401
0.0107279
0.0181596
0.0522685
0.0640939
0.0549007
0.0205244
0.000900327
0.000673291
0.000681799
0.000837506
0.00160565
0.0323446
0.124433
0.124408
0.124477
0.065254
0.00278762
0.0130717
)
;
    }
    atmosphere
    {
        type            inletOutlet;
        inletValue      uniform 0;
        value           nonuniform List<scalar> 
46
(
0
0
6.26842e-16
5.98732e-16
3.43367e-16
1.64474e-16
7.09533e-17
2.7737e-17
1.12035e-17
4.29025e-18
1.6255e-18
6.66772e-19
2.92721e-19
1.23574e-19
4.50915e-20
0
0
0
0
0
0
0
0
0
0
0
0
0
0
0
0
0
0
0
7.71779e-24
2.06599e-23
5.27899e-23
1.2723e-22
2.838e-22
5.41744e-22
1.12589e-21
2.06591e-21
3.87489e-21
0
0
0
)
;
    }
    defaultFaces
    {
        type            empty;
    }
}

