/*--------------------------------*- C++ -*----------------------------------*\
  =========                 |
  \\      /  F ield         | OpenFOAM: The Open Source CFD Toolbox
   \\    /   O peration     | Website:  https://openfoam.org
    \\  /    A nd           | Version:  13
     \\/     M anipulation  |
\*---------------------------------------------------------------------------*/
FoamFile
{
    format      ascii;
    class       volScalarField;
    location    "2.4";
    object      epsilon;
}
// * * * * * * * * * * * * * * * * * * * * * * * * * * * * * * * * * * * * * //

dimensions      [0 2 -3 0 0 0 0];

internalField   nonuniform List<scalar> 
2268
(
0.00370488
0.0159437
0.0302482
0.0443362
0.0578606
0.0707379
0.082882
0.0941795
0.104467
0.113549
0.121262
0.127566
0.132717
0.137649
0.141451
0.143442
0.143028
0.13943
0.131464
0.117279
0.0941219
0.0587623
0.00973469
0.00666192
0.0107554
0.015965
0.021191
0.0262762
0.0311954
0.0359381
0.0404923
0.0448394
0.0489586
0.0528445
0.0565293
0.0601105
0.0637542
0.067103
0.0697666
0.0713749
0.0714748
0.0694425
0.0643603
0.0548819
0.0398315
0.0228079
0.0107957
0.0118541
0.0150994
0.0186247
0.022206
0.0257697
0.0292729
0.0326876
0.0359957
0.0391904
0.0422826
0.0453068
0.048314
0.0513338
0.0541749
0.0565721
0.0582429
0.0588504
0.0579686
0.055044
0.0494169
0.0411951
0.0421629
0.0147335
0.0137275
0.0160139
0.01886
0.0219202
0.0250544
0.0281768
0.031234
0.0341955
0.0370502
0.0398075
0.042496
0.0451484
0.0477676
0.0502376
0.0523622
0.0539231
0.0546709
0.0543242
0.0525999
0.0493779
0.0459245
0.0629528
0.0185972
0.0158475
0.0175222
0.0200313
0.0228912
0.0258891
0.0288962
0.0318356
0.0346643
0.0373644
0.0399407
0.0424157
0.0448128
0.047131
0.0492998
0.0511722
0.0525853
0.0533683
0.0533703
0.0525531
0.0513144
0.052191
0.0851447
0.0227635
0.0182166
0.0194034
0.0217323
0.0245446
0.0275424
0.0305529
0.0334788
0.0362662
0.0388909
0.0413534
0.0436724
0.0458677
0.0479395
0.0498488
0.0514884
0.0527463
0.0535259
0.0537997
0.0537656
0.0543731
0.0598031
0.110623
0.027853
0.0209785
0.0216281
0.0238461
0.0266957
0.0297675
0.0328422
0.0358059
0.0385962
0.0411838
0.043566
0.0457598
0.0477851
0.0496449
0.0513223
0.0527456
0.0538491
0.0546064
0.0551051
0.0557655
0.0581334
0.0688429
0.147032
0.0345852
0.024133
0.0241233
0.0262901
0.029241
0.0324354
0.0356104
0.0386419
0.0414611
0.0440345
0.0463564
0.048444
0.0503189
0.0519882
0.053456
0.0546786
0.0556321
0.0563531
0.0570294
0.0582621
0.0621052
0.0784583
0.228835
0.00950751
0.055887
0.0920997
0.11462
0.126126
0.132241
0.13198
0.126729
0.128231
0.12792
0.12212
0.105643
0.0867164
0.0799357
0.0765928
0.0642784
0.0495036
0.0296318
0.00710303
0.0194914
0.0360799
0.0505482
0.0612923
0.069074
0.0740991
0.0748829
0.0734584
0.070794
0.0662479
0.0602119
0.0526752
0.0454132
0.0400858
0.0361334
0.0312364
0.0256961
0.0187965
0.0108776
0.0335879
0.0388899
0.0469102
0.0532362
0.0583716
0.0633634
0.0648376
0.0633039
0.0613302
0.0579547
0.0522348
0.0458777
0.0400207
0.0350935
0.03109
0.0275311
0.0239895
0.0201123
0.0176441
0.0488469
0.0459204
0.0492017
0.052151
0.0549576
0.0585689
0.0606666
0.0596862
0.0585183
0.0568225
0.0515972
0.0454144
0.0396211
0.0345598
0.0305062
0.0275856
0.0253122
0.0237
0.0250709
0.0689505
0.0566473
0.0541912
0.0536859
0.0543536
0.0559254
0.0572652
0.0569204
0.0562238
0.0559056
0.0524981
0.0468098
0.040707
0.0351993
0.0311186
0.0286638
0.0275022
0.0280952
0.036261
0.102284
0.0724584
0.0611644
0.0567362
0.0552269
0.0550925
0.0552042
0.0545809
0.0537597
0.05318
0.0511098
0.0475461
0.0423971
0.0363864
0.0320777
0.0298149
0.0291364
0.0309253
0.0479257
0.160737
0.0930091
0.0689358
0.0603094
0.0569111
0.0551467
0.0543169
0.0532923
0.0521698
0.0510514
0.0490429
0.0463801
0.0430732
0.0378535
0.0332835
0.030704
0.0294993
0.0301124
0.042753
0.255012
0.110685
0.074517
0.0631544
0.0586425
0.0556653
0.0540653
0.0527331
0.0513513
0.0498789
0.0478284
0.0452956
0.0423934
0.0384042
0.0343305
0.0315649
0.0298684
0.0298075
0.0391587
0.0443859
0.0286022
0.0280574
0.0303482
0.033562
0.0369998
0.0403576
0.0435137
0.0463975
0.0489757
0.0512432
0.0532153
0.0549186
0.0563585
0.0575426
0.0584849
0.0592174
0.0598513
0.0606772
0.0624262
0.0671127
0.0814777
0.135235
0.0640171
0.036333
0.0347546
0.0371973
0.0407221
0.0443878
0.0478721
0.0510837
0.0539633
0.056498
0.0586885
0.0605544
0.0621163
0.063377
0.0643331
0.065067
0.0656621
0.0662404
0.0670764
0.0688006
0.0727389
0.0818163
0.102012
0.0908181
0.0467849
0.043241
0.0452775
0.0487163
0.0523187
0.0557193
0.0588309
0.0615983
0.0640372
0.0661544
0.0679534
0.0694534
0.0706428
0.0714991
0.0721142
0.0726294
0.0731398
0.0738498
0.0751975
0.0778464
0.082829
0.0907967
0.126584
0.060919
0.0539097
0.0547187
0.0574951
0.0606383
0.0636945
0.0665105
0.0690224
0.0712876
0.0732829
0.0749923
0.0764112
0.0775056
0.0782637
0.0787758
0.0791783
0.0795282
0.0799398
0.0806764
0.0819662
0.0841224
0.0869131
0.173192
0.0785591
0.0665077
0.0652637
0.066806
0.0690581
0.0714156
0.0736472
0.0757218
0.0776884
0.0794674
0.0809901
0.0822207
0.0831146
0.0836826
0.084043
0.0842463
0.0842782
0.0842535
0.0843111
0.0844897
0.0848819
0.0851798
0.236412
0.0989444
0.080015
0.0759114
0.0756502
0.0765537
0.0777947
0.0791291
0.080595
0.0821889
0.0837271
0.0850552
0.0861097
0.0868456
0.0872856
0.0875089
0.0875239
0.0873121
0.0869757
0.0865811
0.0861369
0.085658
0.0848927
0.292968
0.118147
0.0933483
0.0862186
0.0835939
0.0826085
0.0824739
0.0829109
0.0838307
0.0851171
0.0864838
0.0876914
0.0886315
0.0892677
0.0896255
0.0897448
0.0896289
0.0892971
0.0888339
0.0882692
0.0875764
0.0866997
0.0854604
0.299373
0.132814
0.107924
0.0981636
0.0924316
0.0887714
0.0866839
0.086059
0.0864962
0.0875515
0.0887772
0.0898595
0.0906569
0.0911431
0.0913484
0.0913138
0.0910691
0.0906642
0.09017
0.0895985
0.0888898
0.0879269
0.0865368
0.274598
0.146946
0.127253
0.115007
0.104099
0.0961135
0.0911046
0.0890501
0.0888955
0.0897468
0.0908737
0.0918564
0.0925223
0.0928422
0.0928608
0.0926472
0.0922707
0.0918064
0.0913242
0.0908392
0.0902734
0.0894452
0.088155
0.269653
0.1658
0.157067
0.142469
0.118672
0.103641
0.095399
0.0915112
0.090496
0.0912199
0.0924171
0.0934383
0.0940921
0.0943541
0.0942675
0.093932
0.09346
0.0929583
0.0925166
0.0921835
0.0918983
0.0913755
0.0902816
0.341844
0.170412
0.145878
0.129515
0.112943
0.101001
0.0939665
0.0903495
0.0896491
0.0906736
0.0920189
0.0929807
0.0934503
0.0934761
0.0931584
0.0926253
0.0920063
0.0914124
0.0909343
0.0906093
0.0903485
0.0898851
0.0889262
0.231601
0.141174
0.124245
0.112016
0.100566
0.0926925
0.088214
0.0864582
0.0866308
0.0878534
0.0892519
0.0903095
0.0909289
0.0911603
0.0910731
0.0907423
0.0902438
0.0896487
0.0890141
0.0883665
0.0876806
0.0868636
0.085824
0.188978
0.119325
0.105085
0.096376
0.0896933
0.0848841
0.082347
0.081737
0.0824273
0.0838091
0.0853288
0.0865796
0.087418
0.0878736
0.0880311
0.0879616
0.0877073
0.0872871
0.0867157
0.0860119
0.085198
0.0842726
0.0832142
0.205162
0.102791
0.0901062
0.0846259
0.0803998
0.07751
0.0762922
0.0765403
0.0777346
0.0793681
0.0810633
0.0825234
0.0835866
0.0842763
0.084692
0.0848997
0.0849162
0.0847267
0.0843213
0.0837201
0.0829677
0.0820972
0.081115
0.179906
0.0899418
0.0789734
0.0749477
0.0722407
0.0706393
0.0703246
0.071166
0.0727673
0.0746769
0.0765508
0.0781687
0.0794145
0.0803373
0.0810233
0.0815147
0.0818048
0.0818638
0.081674
0.0812563
0.0806608
0.0799328
0.0790964
0.150616
0.0782381
0.0694669
0.0666851
0.0651066
0.0644252
0.0647201
0.065905
0.0677129
0.0697973
0.0717911
0.0735099
0.0749082
0.0760539
0.0770031
0.0777653
0.0783172
0.0786242
0.0786676
0.0784653
0.0780631
0.0775109
0.076851
0.12719
0.0690775
0.0619326
0.0599578
0.0591377
0.0590566
0.0597088
0.0610251
0.0628307
0.0648824
0.066887
0.0686634
0.0701953
0.0715347
0.0727062
0.0736975
0.0744762
0.0750076
0.0752731
0.0752849
0.0750814
0.074714
0.0742408
0.112438
0.063048
0.0564956
0.054799
0.0543465
0.0545742
0.0553736
0.0566652
0.0583251
0.0601908
0.0620917
0.0638613
0.0654791
0.0669491
0.0682727
0.0694262
0.0703748
0.0710847
0.0715375
0.0717401
0.0717227
0.0715357
0.0712463
0.10393
0.0592141
0.0525815
0.0508514
0.0505088
0.0508415
0.0516498
0.0528336
0.0542976
0.0559366
0.0576464
0.0593412
0.0609529
0.0624666
0.0638601
0.0650989
0.0661494
0.0669801
0.0675727
0.0679295
0.0680738
0.0680517
0.0679321
0.0984869
0.0562198
0.0494626
0.0476385
0.0472966
0.0476349
0.048392
0.0494497
0.0507281
0.0521574
0.0536732
0.0552234
0.0567592
0.0582318
0.0596112
0.0608634
0.0619514
0.0628451
0.0635275
0.0639973
0.0642716
0.0643907
0.0644185
0.0944597
0.0534532
0.0466662
0.0447897
0.0444315
0.0447499
0.0454501
0.0464023
0.0475342
0.0487945
0.0501407
0.0515357
0.0529462
0.0543273
0.0556375
0.056844
0.0579149
0.0588237
0.059552
0.0600954
0.0604666
0.0606984
0.0608463
0.0908245
0.0506867
0.0439768
0.0421056
0.0417475
0.0420529
0.0427134
0.0435934
0.044623
0.0457598
0.0469716
0.0482298
0.0495067
0.050774
0.0519885
0.05312
0.0541411
0.0550289
0.0557677
0.0563523
0.0567905
0.057107
0.0573471
0.0870426
0.0478767
0.0413367
0.039515
0.039175
0.03948
0.0401199
0.0409568
0.0419216
0.0429744
0.0440877
0.0452376
0.0464009
0.0475542
0.0486715
0.0497202
0.0506789
0.0515289
0.0522572
0.0528591
0.0533393
0.0537161
0.0540237
0.0829178
0.045048
0.038754
0.0370106
0.0367005
0.0370135
0.0376457
0.0384597
0.0393859
0.0403849
0.0414303
0.0425008
0.0435766
0.0446384
0.0456683
0.0466413
0.0475396
0.0483486
0.0490582
0.0496645
0.0501708
0.05059
0.0509458
0.078446
0.0422394
0.0362521
0.034607
0.0343341
0.0346599
0.0352915
0.0360941
0.0369982
0.0379639
0.0389648
0.0399808
0.0409942
0.0419889
0.0429503
0.0438635
0.0447123
0.0454862
0.0461779
0.0467847
0.0473093
0.0477599
0.0481517
0.0737241
0.0394883
0.0338536
0.0323229
0.0320938
0.0324361
0.033071
0.0338687
0.0347603
0.0357056
0.0366783
0.0376586
0.0386302
0.0395794
0.0404942
0.0413642
0.0421778
0.0429273
0.0436076
0.0442173
0.0447585
0.0452364
0.0456585
0.0688876
0.0368304
0.0315799
0.0301776
0.0299999
0.0303631
0.0310049
0.0318015
0.0326861
0.033619
0.0345738
0.0355314
0.0364766
0.037397
0.0382827
0.0391261
0.0399194
0.0406566
0.0413348
0.0419533
0.0425141
0.0430195
0.0434716
0.064092
0.0343041
0.029455
0.0281928
0.0280748
0.0284646
0.0291171
0.0299157
0.0307967
0.0317216
0.0326648
0.0336078
0.0345367
0.0354403
0.0363104
0.0371411
0.0379271
0.0386641
0.0393503
0.0399859
0.0405721
0.0411093
0.0415946
0.0594924
0.0319538
0.0275087
0.0263945
0.0263439
0.0267659
0.0274329
0.0282359
0.0291152
0.0300342
0.0309689
0.031902
0.0328209
0.0337158
0.0345801
0.0354091
0.0361993
0.0369475
0.0376526
0.0383148
0.0389346
0.0395104
0.0400354
0.0552435
0.0298315
0.0257778
0.0248142
0.0248357
0.025294
0.0259779
0.0267864
0.0276641
0.0285773
0.0295041
0.0304292
0.0313416
0.0322334
0.0330993
0.0339361
0.0347413
0.0355124
0.0362483
0.0369487
0.0376129
0.038237
0.0388107
0.0514811
0.0279949
0.0243054
0.0234876
0.0235815
0.0240764
0.0247766
0.0255888
0.0264625
0.0273677
0.0282851
0.029202
0.0301097
0.0310025
0.031877
0.0327312
0.0335633
0.034371
0.0351526
0.0359061
0.0366289
0.0373143
0.0379485
0.0483141
0.0265017
0.0231368
0.0224527
0.0226129
0.0231396
0.0238506
0.0246607
0.0255246
0.0264165
0.0273207
0.0282276
0.0291318
0.0300301
0.0309215
0.0318054
0.0326802
0.0335431
0.0343904
0.0352175
0.0360181
0.036782
0.0374915
0.0458015
0.0254022
0.022316
0.0217471
0.0219612
0.0225081
0.0232183
0.0240147
0.0248582
0.0257279
0.0266126
0.027507
0.0284091
0.0293197
0.0302406
0.0311725
0.0321136
0.0330589
0.0340007
0.0349295
0.0358339
0.0366986
0.0375017
0.0439491
0.0247339
0.0218845
0.0214097
0.0216588
0.0222058
0.0228948
0.0236581
0.0244644
0.0252987
0.0261553
0.0270339
0.0279378
0.0288726
0.0298438
0.0308533
0.0318975
0.0329661
0.0340443
0.0351142
0.0361568
0.0371505
0.038068
0.0427068
0.0245265
0.0218923
0.0214918
0.0217474
0.0222607
0.0228942
0.0235937
0.0243374
0.0251178
0.0259353
0.026796
0.0277103
0.028691
0.0297482
0.0308846
0.0320904
0.0333446
0.0346191
0.0358833
0.0371075
0.0382626
0.0393165
0.0420069
0.02484
0.0224411
0.0220913
0.0222998
0.022716
0.0232342
0.0238205
0.0244645
0.0251659
0.0259315
0.0267754
0.0277182
0.0287838
0.0299898
0.0313361
0.0327977
0.0343314
0.0358859
0.0374119
0.0388675
0.0402165
0.0414238
0.0418806
0.0259113
0.023817
0.023438
0.0234624
0.0236461
0.0239399
0.0243334
0.0248242
0.0254144
0.0261151
0.0269499
0.027956
0.0291768
0.0306425
0.0323424
0.0342127
0.0361648
0.0381091
0.0399735
0.0417064
0.0432704
0.0446331
0.0429491
0.0287372
0.026887
0.026086
0.0255247
0.0251724
0.0250402
0.0251164
0.0253812
0.0258224
0.0264479
0.0272932
0.0284245
0.0299246
0.0318495
0.0341595
0.0366893
0.0392595
0.0417212
0.0439874
0.0460149
0.0477813
0.049268
0.0489292
0.0374014
0.0341756
0.0312564
0.0289769
0.0274423
0.0265406
0.0261241
0.0260768
0.0263322
0.0268796
0.0277714
0.029128
0.0311163
0.0338605
0.0372609
0.0408688
0.0443261
0.0474107
0.0500725
0.0523313
0.0542151
0.0557364
0.0846664
0.0663753
0.0516862
0.0409906
0.0343447
0.0304894
0.028347
0.0272476
0.0268156
0.0268642
0.0273435
0.0283317
0.0300482
0.0328408
0.0370372
0.0424835
0.0478927
0.052536
0.0562027
0.0590664
0.0613302
0.063125
0.0645095
0.304878
0.141537
0.0851005
0.0560883
0.04127
0.0338763
0.0301418
0.0282778
0.0274579
0.0273162
0.0277498
0.0288745
0.031065
0.0350163
0.0416399
0.0511222
0.059779
0.0656583
0.069402
0.0719069
0.073709
0.0750621
0.0760598
1.57385
0.209337
0.113664
0.0696484
0.0469017
0.03634
0.0313366
0.0289208
0.0278415
0.0275805
0.0279939
0.0292341
0.0318368
0.0369585
0.0467183
0.0635792
0.0804072
0.0858678
0.0880819
0.08921
0.0899193
0.0904234
0.0907793
0.375442
0.300678
0.263738
0.276209
0.126174
0.128934
0.127191
0.124356
0.0962755
0.0981593
0.0983916
0.0969993
0.0880207
0.0881393
0.0876147
0.0863615
0.0847252
0.0841438
0.0832548
0.0820273
0.0838158
0.0829418
0.0818906
0.0806752
0.0841368
0.0831653
0.0820827
0.0809112
0.0851057
0.084106
0.0830577
0.0819843
0.086794
0.0858338
0.0848301
0.0838193
0.0889748
0.0880341
0.0870829
0.086141
0.0878831
0.0871984
0.0865344
0.0858778
0.0848827
0.0842633
0.0836494
0.0830283
0.0822864
0.0816585
0.0810088
0.0803416
0.0802379
0.0796222
0.0789695
0.0782877
0.0783223
0.077759
0.0771472
0.0764936
0.0762144
0.075733
0.0751963
0.074609
0.073755
0.0733685
0.0729241
0.0724252
0.0709086
0.0706182
0.0702703
0.0698673
0.0677304
0.0675295
0.0672733
0.0669636
0.0643336
0.0642111
0.0640368
0.0638113
0.0608566
0.0607993
0.0606938
0.0605403
0.0574313
0.0574257
0.0573758
0.0572814
0.054163
0.0541972
0.0541912
0.0541443
0.0511245
0.0511889
0.051217
0.0512079
0.0483601
0.0484482
0.0485033
0.0485246
0.0458916
0.0459997
0.0460778
0.0461249
0.0437287
0.0438556
0.0439549
0.0440256
0.0418775
0.0420239
0.0421447
0.0422385
0.0403483
0.0405162
0.0406597
0.0407774
0.0391593
0.0393517
0.0395204
0.039664
0.0383401
0.038561
0.0387584
0.0389307
0.0379347
0.0381891
0.0384192
0.0386235
0.0380066
0.0382998
0.0385671
0.0388067
0.0386452
0.0389825
0.0392909
0.0395689
0.0399748
0.0403602
0.0407121
0.0410294
0.0421667
0.0426004
0.042994
0.0433476
0.0454521
0.0459263
0.0463526
0.0467321
0.0501332
0.0506277
0.0510657
0.0514503
0.0565861
0.0570629
0.057477
0.057833
0.0652455
0.0656495
0.06599
0.0662733
0.0765639
0.0768336
0.0770513
0.0772223
0.0909503
0.0910395
0.0911075
0.0911578
0.158708
0.102692
0.0769067
0.0657482
0.060592
0.0567924
0.0543249
0.0525457
0.0508773
0.049074
0.046918
0.0444717
0.041718
0.0385989
0.0355686
0.0329767
0.0309194
0.0303582
0.0373746
0.110822
0.0888364
0.0744274
0.0662321
0.0615323
0.0580294
0.0554872
0.053497
0.0516492
0.0496462
0.0474122
0.0450356
0.042448
0.0397173
0.0372671
0.0351712
0.0330234
0.0312075
0.0376062
0.0914515
0.0808099
0.0722095
0.0662825
0.0622147
0.0591522
0.0567802
0.0548036
0.0529313
0.0509265
0.048752
0.0464727
0.0440283
0.0414898
0.0392002
0.037247
0.0351681
0.0329939
0.0440062
0.0829829
0.0766909
0.0710726
0.066746
0.0634163
0.060603
0.0582315
0.0561705
0.0542356
0.0522495
0.0501616
0.0479983
0.0457306
0.04339
0.0411738
0.0391355
0.03704
0.0358404
0.0579554
0.079419
0.0750347
0.070989
0.0676776
0.0649301
0.0623831
0.0600168
0.0578303
0.0557734
0.0537391
0.0516689
0.0495563
0.0473872
0.0451544
0.042909
0.0406799
0.038597
0.0390656
0.0746857
0.0784043
0.0749627
0.0717975
0.069103
0.0667298
0.0644114
0.0620959
0.059847
0.0576983
0.0556105
0.0535372
0.0514499
0.0493205
0.0471197
0.0448278
0.0424705
0.0404052
0.041562
0.0833989
0.0788525
0.075958
0.0733326
0.0710408
0.0689259
0.0667683
0.0645154
0.0622439
0.0600383
0.057916
0.0558477
0.0538003
0.0517249
0.0495744
0.0473159
0.0450296
0.0431432
0.0445162
0.088434
0.0801706
0.0777144
0.0755185
0.0735877
0.0717371
0.0697321
0.0675206
0.065212
0.0629671
0.060839
0.0587842
0.056789
0.054792
0.0527242
0.0505841
0.0487354
0.0474093
0.0486688
0.0906416
0.0821599
0.0800909
0.0783754
0.0769581
0.0755491
0.0737589
0.0715138
0.0690578
0.0667709
0.0647088
0.0626779
0.0607032
0.0587981
0.0568632
0.0548209
0.0536593
0.052746
0.0509697
0.0882973
0.0846277
0.0830491
0.0820058
0.0814235
0.0808038
0.07928
0.0767415
0.0737746
0.0713963
0.069534
0.0676726
0.0658676
0.0641238
0.0622632
0.0595556
0.0565085
0.0529076
0.0491675
0.0757054
0.0848259
0.0836804
0.0830403
0.0829915
0.0828706
0.081637
0.0789044
0.0757611
0.0738141
0.0725845
0.0708606
0.0684649
0.0662938
0.0640178
0.0599686
0.0553913
0.0522779
0.0509859
0.0679385
0.0820233
0.0807118
0.0797087
0.0790417
0.0782238
0.0767817
0.0746504
0.0725137
0.0710829
0.0699608
0.0678564
0.06504
0.0622968
0.0594878
0.0563014
0.0537849
0.052961
0.0548024
0.0698192
0.0792653
0.0777539
0.0763779
0.0751638
0.0738272
0.0721137
0.0701098
0.0681793
0.066596
0.0650598
0.0629877
0.0603616
0.0578937
0.0558331
0.0542826
0.0537961
0.0550644
0.0592515
0.0767328
0.0771726
0.0755011
0.0738274
0.0722161
0.0705921
0.0688157
0.0668758
0.06491
0.0630603
0.0612199
0.0592357
0.0572038
0.0554768
0.0542666
0.0537548
0.0543292
0.0565527
0.0621499
0.0843769
0.0754014
0.0736665
0.0718231
0.0700033
0.0682661
0.066553
0.0647595
0.0628583
0.0609207
0.0589939
0.0571614
0.0555495
0.0542925
0.0534879
0.0533102
0.05411
0.0565984
0.0631961
0.0909637
0.0736028
0.0719192
0.0700588
0.0681973
0.0664486
0.0647987
0.0631379
0.0613716
0.0595013
0.0576314
0.0558965
0.0544187
0.0532576
0.0524708
0.0522292
0.0529118
0.0554123
0.0628015
0.0961143
0.0715469
0.0700015
0.068236
0.0664406
0.0647385
0.063141
0.0615615
0.0599008
0.0581379
0.0563469
0.0546542
0.0531582
0.0519109
0.050983
0.0505621
0.0510732
0.0535604
0.0615816
0.0998227
0.0691347
0.0677725
0.066162
0.0644885
0.0628667
0.0613187
0.0597882
0.0581984
0.0565203
0.0548006
0.053128
0.0515863
0.0502353
0.0491726
0.0486115
0.049018
0.0515305
0.0600283
0.102115
0.0663768
0.0652104
0.0637783
0.0622523
0.0607333
0.0592475
0.0577635
0.0562305
0.0546248
0.0529716
0.0513311
0.0497744
0.0483733
0.0472457
0.0466251
0.0470012
0.0495586
0.0583883
0.103174
0.063359
0.0623819
0.0611317
0.0597638
0.0583652
0.0569628
0.0555426
0.0540752
0.0525452
0.050968
0.0493862
0.0478599
0.0464717
0.0453491
0.0447343
0.0451242
0.0477299
0.0567145
0.103181
0.0602052
0.0594011
0.0583264
0.0571192
0.0558539
0.0545563
0.053223
0.0518396
0.050399
0.0489134
0.0474163
0.0459613
0.04463
0.0435567
0.0429857
0.0434107
0.0460281
0.0550146
0.102364
0.0570442
0.0563926
0.0554817
0.0544321
0.053307
0.0521296
0.0509025
0.0496207
0.0482833
0.0469026
0.0455074
0.044147
0.0429003
0.0418997
0.0413839
0.0418343
0.0444256
0.0533134
0.100901
0.0539875
0.0534666
0.052705
0.0518052
0.0508205
0.0497707
0.048661
0.0474915
0.0462656
0.044996
0.0437094
0.0424513
0.0412967
0.0403726
0.0399087
0.0403708
0.042907
0.0516189
0.098986
0.0511162
0.0507073
0.0500794
0.0493182
0.0484684
0.047546
0.0465561
0.0455015
0.044388
0.0432286
0.0420483
0.0408896
0.0398231
0.0389693
0.0385483
0.0390102
0.0414757
0.0499824
0.0967957
0.0484856
0.048172
0.0476617
0.0470269
0.0463026
0.0455012
0.0446269
0.0436834
0.0426771
0.0416212
0.0405394
0.0394713
0.0384834
0.0376903
0.0373027
0.0377567
0.0401463
0.048433
0.0945565
0.0461308
0.0458989
0.0454921
0.0449696
0.0443589
0.0436683
0.0429008
0.0420599
0.0411522
0.0401902
0.0391962
0.0382076
0.0372875
0.0365451
0.0361838
0.0366275
0.0389481
0.0470372
0.0924149
0.0440722
0.0439126
0.0435972
0.0431744
0.0426649
0.0420737
0.0414024
0.0406537
0.0398337
0.0389544
0.038037
0.037117
0.0362544
0.0355547
0.0352156
0.0356521
0.0379169
0.0458375
0.090595
0.0423245
0.0422316
0.0419982
0.0416643
0.041245
0.0407425
0.0401568
0.0394898
0.0387472
0.0379405
0.0370897
0.0362287
0.0354156
0.0347526
0.0344335
0.0348678
0.0370975
0.0449065
0.0891094
0.040904
0.0408753
0.0407175
0.0404641
0.0401259
0.0397027
0.0391935
0.0385995
0.0379257
0.0371833
0.0363913
0.0355828
0.0348137
0.0341844
0.0338857
0.0343244
0.0365382
0.0442935
0.0881978
0.0398339
0.0398694
0.0397833
0.0396044
0.0393403
0.0389893
0.0385495
0.0380215
0.0374104
0.0367266
0.035989
0.0352295
0.0345028
0.0339074
0.0336327
0.0340842
0.0363019
0.0440573
0.0878785
0.0391478
0.0392492
0.0392329
0.0391245
0.0389296
0.0386456
0.03827
0.0378037
0.0372515
0.0366239
0.0359396
0.0352297
0.0345481
0.0339918
0.0337486
0.0342255
0.0364707
0.044292
0.0884363
0.0388926
0.0390629
0.0391156
0.0390752
0.038946
0.0387252
0.0384107
0.0380035
0.0375091
0.0369384
0.0363101
0.0356555
0.0350275
0.0345213
0.0343242
0.0348462
0.0371503
0.0451118
0.0899293
0.0391328
0.0393747
0.039496
0.0395212
0.0394547
0.0392944
0.0390388
0.03869
0.0382544
0.037744
0.0371789
0.0365904
0.0360312
0.0355959
0.0354706
0.0360713
0.0384833
0.0466892
0.0927857
0.0399554
0.0402697
0.0404573
0.0405445
0.0405371
0.0404341
0.0402354
0.0399447
0.0395703
0.0391266
0.0386346
0.0381284
0.0376623
0.0373322
0.0373259
0.0380628
0.0406631
0.0492578
0.0972633
0.0414764
0.0418589
0.0421064
0.0422489
0.0422941
0.0422431
0.0420978
0.0418638
0.0415528
0.041181
0.0407745
0.0403718
0.0400336
0.0398623
0.0400514
0.0410292
0.0439592
0.0531857
0.104192
0.043848
0.044286
0.0445795
0.0447634
0.0448491
0.04484
0.0447396
0.0445564
0.0443046
0.0440068
0.043696
0.0434209
0.0432565
0.0433218
0.0438296
0.0452311
0.0487519
0.0590305
0.114498
0.0472678
0.0477349
0.0480475
0.0482463
0.0483492
0.0483615
0.0482864
0.0481327
0.0479233
0.0476893
0.0474752
0.0473483
0.0474104
0.0478178
0.0488321
0.0509686
0.0555727
0.067734
0.130386
0.0519871
0.0524379
0.0527221
0.0528859
0.0529616
0.052953
0.0528569
0.0526774
0.0524625
0.0522554
0.0521176
0.0521443
0.0524843
0.053364
0.0551497
0.058517
0.0651174
0.0808928
0.155707
0.0583182
0.0586863
0.0588661
0.0589024
0.058868
0.0587497
0.0585267
0.0581821
0.0578483
0.0575846
0.0574665
0.0576242
0.0582786
0.0597721
0.0626595
0.0679434
0.0781217
0.101398
0.200471
0.0666433
0.0668528
0.0668268
0.0665784
0.0662904
0.0658487
0.0652728
0.0644122
0.0637269
0.0632608
0.0630662
0.0632993
0.0642782
0.0665119
0.0708242
0.0786729
0.0945401
0.133804
0.292122
0.0774257
0.0774396
0.0771481
0.0764353
0.0757018
0.0742555
0.0728896
0.0706723
0.0692438
0.0683979
0.0680259
0.0682654
0.069545
0.0725808
0.078491
0.0888052
0.110509
0.179311
0.529055
0.0912072
0.0911378
0.0907991
0.0898605
0.0887413
0.0831154
0.0804395
0.0753855
0.0728938
0.071629
0.0710745
0.0712866
0.0727822
0.0764968
0.0838105
0.0954849
0.112297
0.195299
1.46087
)
;

boundaryField
{
    leftWall
    {
        type            epsilonWallFunction;
        value           nonuniform List<scalar> 
50
(
0.00370488
0.00666192
0.0107957
0.0147335
0.0185972
0.0227635
0.027853
0.0345852
0.0443859
0.0640171
0.0908181
0.126584
0.173192
0.236412
0.292968
0.299373
0.274598
0.269653
0.341844
0.231601
0.188978
0.205162
0.179906
0.150616
0.12719
0.112438
0.10393
0.0984869
0.0944597
0.0908245
0.0870426
0.0829178
0.078446
0.0737241
0.0688876
0.064092
0.0594924
0.0552435
0.0514811
0.0483141
0.0458015
0.0439491
0.0427068
0.0420069
0.0418806
0.0429491
0.0489292
0.0846664
0.304878
1.57385
)
;
    }
    rightWall
    {
        type            epsilonWallFunction;
        value           nonuniform List<scalar> 
50
(
0.00710303
0.0108776
0.0176441
0.0250709
0.036261
0.0479257
0.042753
0.0391587
0.0373746
0.0376062
0.0440062
0.0579554
0.0746857
0.0833989
0.088434
0.0906416
0.0882973
0.0757054
0.0679385
0.0698192
0.0767328
0.0843769
0.0909637
0.0961143
0.0998227
0.102115
0.103174
0.103181
0.102364
0.100901
0.098986
0.0967957
0.0945565
0.0924149
0.090595
0.0891094
0.0881978
0.0878785
0.0884363
0.0899293
0.0927857
0.0972633
0.104192
0.114498
0.130386
0.155707
0.200471
0.292122
0.529055
1.46087
)
;
    }
    lowerWall
    {
        type            epsilonWallFunction;
        value           nonuniform List<scalar> 
62
(
0.00370488
0.0159437
0.0302482
0.0443362
0.0578606
0.0707379
0.082882
0.0941795
0.104467
0.113549
0.121262
0.127566
0.132717
0.137649
0.141451
0.143442
0.143028
0.13943
0.131464
0.117279
0.0941219
0.0587623
0.00973469
0.00973469
0.0228079
0.0421629
0.0629528
0.0851447
0.110623
0.147032
0.228835
0.375442
0.300678
0.263738
0.276209
0.00950751
0.0194914
0.0335879
0.0488469
0.0689505
0.102284
0.160737
0.255012
0.00950751
0.055887
0.0920997
0.11462
0.126126
0.132241
0.13198
0.126729
0.128231
0.12792
0.12212
0.105643
0.0867164
0.0799357
0.0765928
0.0642784
0.0495036
0.0296318
0.00710303
)
;
    }
    atmosphere
    {
        type            inletOutlet;
        inletValue      uniform 0.1;
        value           nonuniform List<scalar> 
46
(
0.1
0.1
0.1
0.0696484
0.0469017
0.03634
0.0313366
0.0289208
0.0278415
0.0275805
0.0279939
0.0292341
0.0318368
0.0369585
0.0467183
0.0635792
0.1
0.1
0.1
0.1
0.1
0.1
0.1
0.1
0.1
0.1
0.1
0.1
0.1
0.1
0.1
0.1
0.0831154
0.0804395
0.0753855
0.0728938
0.071629
0.0710745
0.0712866
0.0727822
0.0764968
0.0838105
0.1
0.1
0.1
0.1
)
;
    }
    defaultFaces
    {
        type            empty;
    }
}


// ************************************************************************* //
