/*--------------------------------*- C++ -*----------------------------------*\
  =========                 |
  \\      /  F ield         | OpenFOAM: The Open Source CFD Toolbox
   \\    /   O peration     | Website:  https://openfoam.org
    \\  /    A nd           | Version:  13
     \\/     M anipulation  |
\*---------------------------------------------------------------------------*/
FoamFile
{
    format      ascii;
    class       volScalarField;
    location    "2.4";
    object      nut;
}
// * * * * * * * * * * * * * * * * * * * * * * * * * * * * * * * * * * * * * //

dimensions      [0 2 -1 0 0 0 0];

internalField   nonuniform List<scalar> 
2268
(
1.97275e-05
3.27503e-05
4.07654e-05
4.65002e-05
5.10407e-05
5.48135e-05
5.80004e-05
6.06839e-05
6.29001e-05
6.46654e-05
6.59944e-05
6.69121e-05
6.74358e-05
6.77625e-05
6.80186e-05
6.8032e-05
6.77158e-05
6.69498e-05
6.55201e-05
6.30185e-05
5.86061e-05
5.02766e-05
2.75569e-05
6.58855e-05
0.000257386
0.000371179
0.000452475
0.000516458
0.000568598
0.000611032
0.000644695
0.000670101
0.000687697
0.000698019
0.000701672
0.000698864
0.000689013
0.000676288
0.000661823
0.000645372
0.000625815
0.000600705
0.000565213
0.000509608
0.000407855
0.000100892
7.75969e-05
0.000413346
0.000670424
0.000868202
0.00102664
0.00115521
0.00125852
0.00133908
0.00139849
0.00143811
0.0014594
0.0014641
0.00145403
0.00143098
0.00140095
0.00136594
0.00132572
0.00127791
0.00121662
0.00112929
0.000988719
0.00072271
0.00012405
8.6308e-05
0.000517225
0.000899568
0.00120864
0.0014594
0.00166268
0.00182536
0.00195195
0.00204564
0.00210899
0.00214448
0.00215487
0.00214334
0.00211337
0.00207151
0.00202007
0.00195862
0.00188334
0.00178443
0.00164029
0.00140369
0.000961492
0.000141697
9.36586e-05
0.000599585
0.00109312
0.00150209
0.0018349
0.00210381
0.00231837
0.00248549
0.00261015
0.00269624
0.00274722
0.00276667
0.00275853
0.00272699
0.00267843
0.00261512
0.00253611
0.00243595
0.00230078
0.00209971
0.00176553
0.00115274
0.000156385
0.000100814
0.000675642
0.00127318
0.00177114
0.00217444
0.00249853
0.00275632
0.00295732
0.00310838
0.00321467
0.00328055
0.00331023
0.00330801
0.00327825
0.00322669
0.00315534
0.00306245
0.00294086
0.00277288
0.00251893
0.00209284
0.00132033
0.000170017
0.000108708
0.000755498
0.00145282
0.00202959
0.00249221
0.00286143
0.00315416
0.00338253
0.00355515
0.00367843
0.00375749
0.00379698
0.00380142
0.00377514
0.00372296
0.00364657
0.00354327
0.00340433
0.00320892
0.00291055
0.00240669
0.00148979
0.000186044
0.000117841
0.000847171
0.00163975
0.00228532
0.00279684
0.00320223
0.00352251
0.00377238
0.00396203
0.00409893
0.00418889
0.00423693
0.00424762
0.00422505
0.00417381
0.00409474
0.00398427
0.00383251
0.00361673
0.00328701
0.00273229
0.0017073
0.000214528
2.73008e-05
4.86071e-05
5.73253e-05
6.17402e-05
6.36944e-05
6.46708e-05
6.45177e-05
6.37546e-05
6.45967e-05
6.52023e-05
6.4426e-05
6.12365e-05
5.78677e-05
5.70055e-05
5.57461e-05
5.23518e-05
4.77737e-05
3.97775e-05
2.45446e-05
0.000107819
0.000393092
0.000519601
0.000570308
0.000576588
0.000576056
0.000566723
0.000538416
0.000566541
0.000601883
0.000599636
0.000583724
0.000553914
0.00054116
0.000512672
0.000474012
0.000411202
0.000297307
8.76007e-05
0.00012854
0.000641884
0.000942797
0.00109279
0.00113638
0.0011208
0.00110228
0.00108292
0.00111432
0.00115367
0.00115063
0.00112561
0.00108025
0.00103166
0.000963836
0.000870213
0.000724721
0.000479688
0.00010377
0.000145089
0.000777522
0.00124984
0.0015239
0.00162804
0.00160726
0.00158661
0.00157567
0.00159698
0.00161346
0.00160507
0.00157047
0.00150919
0.00142752
0.00131635
0.00116963
0.000955291
0.000617803
0.000117936
0.000162399
0.000834901
0.001466
0.00187333
0.00205445
0.00205002
0.00202849
0.00201788
0.00202202
0.00200213
0.00198169
0.00193662
0.00185932
0.00174838
0.00159753
0.00140318
0.00113611
0.000730404
0.000136573
0.000185394
0.000847483
0.0016194
0.0021607
0.00242405
0.0024609
0.00244249
0.00242407
0.00240617
0.0023478
0.00230286
0.00224593
0.00215239
0.0020151
0.00183102
0.00159198
0.00126878
0.000793858
0.000149884
0.000216032
0.00086373
0.00175271
0.00241161
0.00274897
0.00283475
0.00282845
0.00280206
0.00276177
0.00267435
0.00259951
0.00251906
0.00240513
0.00224581
0.00203475
0.00175061
0.00136239
0.000815371
0.000142471
0.000251787
0.00096946
0.00193648
0.00265654
0.0030439
0.0031726
0.00318257
0.00315042
0.00309079
0.00298405
0.00288194
0.00277224
0.00263054
0.00244992
0.00221522
0.00188957
0.00143614
0.000806689
0.000135939
0.00012926
0.00101931
0.00194216
0.00267677
0.00324997
0.00369982
0.00405339
0.00432908
0.00453945
0.00469358
0.00479837
0.00485933
0.00488106
0.00486693
0.00481936
0.00473944
0.0046228
0.00445849
0.00422323
0.00386978
0.00330586
0.00238093
0.00102608
0.000147256
0.00128476
0.00238921
0.00321964
0.00384838
0.00433332
0.00471038
0.00500275
0.00522587
0.00539074
0.00550531
0.00557555
0.00560586
0.00559887
0.0055549
0.00547585
0.00535801
0.00519154
0.0049576
0.00462348
0.00413655
0.00343377
0.00251951
0.000165201
0.00152728
0.00280206
0.00372312
0.00439934
0.00490937
0.00529972
0.00559943
0.00582734
0.00599657
0.00611606
0.0061919
0.00622852
0.0062284
0.00619168
0.00611851
0.00600784
0.00585208
0.00563865
0.00534976
0.00496356
0.00446851
0.00391046
0.000183368
0.0017173
0.00315137
0.00416269
0.00488577
0.00541833
0.00581835
0.00612164
0.00635115
0.00652254
0.00664546
0.00672631
0.0067694
0.00677712
0.00675005
0.00668774
0.00658975
0.0064519
0.00626762
0.00602921
0.0057309
0.00537995
0.00501963
0.000201978
0.00187306
0.00344338
0.00453829
0.00530583
0.00585897
0.0062665
0.00657149
0.00680169
0.00697515
0.0071022
0.00718906
0.00723972
0.00725649
0.00724046
0.00719244
0.00711181
0.00699669
0.00684467
0.00665435
0.00642624
0.00617216
0.00592504
0.000220839
0.0019947
0.00367781
0.00484389
0.00565065
0.0062217
0.00663504
0.00694117
0.00717294
0.00735056
0.00748469
0.00758091
0.00764251
0.00767155
0.00766964
0.00763841
0.00757842
0.00748937
0.00737105
0.00722443
0.00705377
0.00687032
0.00669511
0.000233304
0.00207546
0.00383744
0.0050584
0.00590061
0.0064905
0.0069126
0.00722398
0.00746167
0.00764797
0.00779388
0.00790417
0.00798112
0.00802626
0.00804146
0.00802881
0.00799007
0.00792681
0.00784078
0.00773414
0.00761066
0.00747763
0.00734724
0.000232601
0.00210269
0.00389843
0.00516146
0.00604163
0.00665877
0.00709719
0.00742056
0.00767023
0.00787031
0.00803252
0.00816112
0.00825727
0.00832175
0.00835615
0.00836296
0.00834509
0.00830555
0.00824723
0.00817242
0.00808361
0.00798489
0.00788237
0.00022459
0.0019709
0.00382028
0.00515375
0.00607716
0.00672661
0.00718876
0.00753218
0.00779969
0.00801819
0.00820052
0.00835094
0.00846958
0.00855615
0.00861165
0.00863871
0.00864101
0.00862257
0.00858692
0.00853627
0.00847194
0.00839575
0.00831073
0.000225039
0.00174817
0.00364001
0.00511379
0.006039
0.00670524
0.00719514
0.00756379
0.00785389
0.00809572
0.00830238
0.00847772
0.0086211
0.00873133
0.00880875
0.008856
0.00887731
0.00887727
0.00885983
0.00882739
0.00878081
0.00872036
0.00864702
0.000241448
0.00198429
0.00364829
0.00494258
0.00588168
0.00658252
0.00711061
0.00751468
0.00784014
0.00811423
0.00834924
0.00854945
0.0087149
0.00884457
0.00893925
0.0090023
0.00903866
0.00905336
0.00905055
0.00903255
0.00899965
0.00895113
0.00888678
0.000233986
0.00201146
0.00353831
0.00472913
0.00565418
0.00638221
0.00695346
0.00740657
0.00777622
0.0080873
0.0083527
0.00857768
0.00876372
0.00891123
0.0090219
0.00909975
0.00915
0.0091777
0.00918695
0.00918015
0.00915741
0.00911798
0.00906177
0.000221102
0.00193158
0.00338271
0.00451633
0.00543081
0.00617299
0.00677602
0.0072687
0.0076776
0.00802333
0.00831774
0.00856653
0.00877244
0.00893733
0.00906395
0.00915673
0.00922099
0.00926171
0.00928281
0.00928671
0.00927369
0.00924306
0.00919465
0.000216869
0.00181116
0.00321945
0.00431493
0.00521333
0.00596298
0.00659001
0.00711556
0.00755898
0.00793594
0.00825668
0.00852726
0.00875158
0.00893291
0.00907495
0.00918248
0.00926083
0.00931481
0.00934813
0.009363
0.00935987
0.00933837
0.00929854
0.000206785
0.00169986
0.00305044
0.0041157
0.0050039
0.00575949
0.00640516
0.00695746
0.00743037
0.00783476
0.0081788
0.00846845
0.00870889
0.00890493
0.00906121
0.00918284
0.009275
0.00934218
0.00938777
0.00941389
0.00942119
0.00940968
0.00937955
0.000194688
0.00158519
0.00288027
0.00392495
0.00480864
0.00556893
0.006228
0.00680029
0.0072961
0.0077235
0.00808732
0.00839339
0.00864807
0.00885746
0.00902702
0.00916209
0.0092676
0.00934767
0.00940542
0.00944288
0.00946099
0.00946014
0.00944061
0.0001826
0.00147486
0.00272287
0.00375259
0.00463045
0.00539534
0.00606556
0.00665215
0.00716331
0.00760533
0.00798377
0.00830377
0.00857125
0.00879305
0.00897526
0.00912325
0.0092417
0.00933437
0.00940411
0.00945295
0.00948206
0.00949218
0.00948374
0.000172579
0.00137798
0.00258316
0.00360167
0.0044804
0.00524961
0.00592562
0.00651888
0.00703729
0.00748717
0.00787376
0.00820314
0.00848175
0.0087149
0.00890902
0.00906934
0.00920022
0.00930508
0.00938658
0.0094467
0.0094868
0.00950789
0.00951059
0.000166356
0.00129948
0.00247706
0.00349065
0.00436902
0.00513748
0.00581213
0.0064042
0.00692231
0.00737346
0.00776354
0.00809832
0.00838419
0.00862696
0.0088319
0.00900359
0.00914609
0.00926251
0.0093553
0.00942641
0.00947728
0.00950912
0.00952265
0.000162316
0.00125639
0.00241589
0.00342304
0.00429588
0.00505729
0.00572404
0.00630854
0.00682052
0.00726782
0.00765703
0.00799401
0.00828451
0.00853412
0.00874765
0.00892932
0.00908231
0.00920935
0.00931275
0.00939434
0.00945558
0.00949773
0.00952157
0.000159569
0.0012406
0.00238985
0.00338855
0.00425146
0.00500127
0.00565586
0.00622896
0.00673132
0.00717161
0.00755693
0.00789335
0.00818623
0.00844052
0.00866062
0.00885013
0.00901195
0.00914849
0.00926162
0.00935299
0.00942401
0.00947588
0.00950934
0.000157393
0.00123839
0.00238213
0.0033716
0.00422259
0.00495896
0.00559995
0.00616043
0.00665206
0.00708412
0.00746411
0.00779824
0.00809174
0.00834897
0.00857386
0.00876957
0.00893866
0.0090832
0.00920488
0.00930515
0.00938524
0.00944609
0.00948838
0.000155301
0.00123899
0.00237833
0.00335841
0.00419742
0.00492076
0.0055489
0.00609763
0.00657927
0.00700353
0.00737817
0.00770947
0.00800256
0.00826158
0.00848994
0.00869051
0.00886555
0.00901687
0.00914598
0.00925412
0.00934226
0.00941122
0.00946144
0.000153026
0.00123618
0.00236949
0.00333996
0.00416788
0.00487986
0.0054972
0.00603631
0.00650989
0.00692789
0.0072982
0.00762712
0.00791969
0.00817994
0.008411
0.00861548
0.00879544
0.00895252
0.00908804
0.00920305
0.00929832
0.00937441
0.00943158
0.00015047
0.00122736
0.00235161
0.00331203
0.00413003
0.00483276
0.00544186
0.00597398
0.00644195
0.0068558
0.0072234
0.00755102
0.00784364
0.00810517
0.00833867
0.00854655
0.00873075
0.00889279
0.00903385
0.00915483
0.0092563
0.00933858
0.00940174
0.000147626
0.0012123
0.00232428
0.00327415
0.00408333
0.00477884
0.00538219
0.00590991
0.00637476
0.00678665
0.00715337
0.00748108
0.00777467
0.00803799
0.00827405
0.00848519
0.00867325
0.00883969
0.0089856
0.00911176
0.00921857
0.00930615
0.00937438
0.000144545
0.00119209
0.00228931
0.00322827
0.00402959
0.00471959
0.00531928
0.00584482
0.00630868
0.00672058
0.0070881
0.00741727
0.00771287
0.00797869
0.00821769
0.00843217
0.00862395
0.00879444
0.00894466
0.00907531
0.00918668
0.0092787
0.00935114
0.000141304
0.00116851
0.00224957
0.00317763
0.00397187
0.00465762
0.00525517
0.00578016
0.00624466
0.00665807
0.00702776
0.00735955
0.0076581
0.00792711
0.0081695
0.00838755
0.00858304
0.00875734
0.00891145
0.00904599
0.00916117
0.00925683
0.00933264
0.000138009
0.00114357
0.00220826
0.0031257
0.00391344
0.00459571
0.00519205
0.0057175
0.00618369
0.00659963
0.00697242
0.00730768
0.00760991
0.0078827
0.0081289
0.00835075
0.00854997
0.0087279
0.00888549
0.00902331
0.00914154
0.00923998
0.00931828
0.000134774
0.00111909
0.00216809
0.00307535
0.00385685
0.00453595
0.00513146
0.00565786
0.00612627
0.00654532
0.00692181
0.00726111
0.00756754
0.00784455
0.0080949
0.00832071
0.00852363
0.00870493
0.0088655
0.00900589
0.00912629
0.00922652
0.00930634
0.00013173
0.0010964
0.00213067
0.00302796
0.00380317
0.004479
0.00507369
0.00560118
0.00607208
0.0064946
0.00687517
0.00721892
0.00752996
0.00781156
0.00806629
0.00829613
0.0085026
0.00868683
0.00884965
0.00899165
0.00911307
0.00921388
0.00929405
0.000128997
0.00107594
0.00209596
0.00298298
0.00375144
0.00442371
0.00501753
0.00554624
0.00601991
0.00644625
0.00683133
0.00717997
0.00749605
0.00778259
0.00804191
0.00827575
0.00848539
0.0086718
0.00883579
0.00897801
0.00909895
0.00919882
0.00927791
0.000126676
0.00105718
0.00206219
0.00293785
0.0036988
0.00436724
0.00496036
0.00549077
0.00596783
0.00639868
0.00678896
0.00714318
0.0074649
0.00775686
0.00802099
0.00825862
0.00847071
0.00865807
0.00882156
0.00896211
0.00908057
0.00917763
0.00925407
0.000124818
0.00103881
0.00202626
0.00288847
0.00364092
0.00430559
0.00489877
0.005432
0.0059137
0.0063503
0.00674695
0.00710782
0.00743614
0.00773418
0.00800331
0.00824426
0.00845756
0.00864394
0.00880456
0.00894089
0.00905448
0.00914669
0.00921887
0.000123433
0.00101921
0.00198455
0.00283007
0.0035729
0.00423438
0.00482923
0.00536732
0.00585572
0.00629998
0.00670476
0.00707387
0.00741013
0.00771513
0.00798936
0.00823266
0.00844513
0.0086277
0.00878229
0.0089114
0.0090176
0.00910304
0.00916969
0.000122508
0.00099728
0.00193376
0.00275789
0.00348987
0.00414957
0.00474886
0.00529491
0.00579293
0.00624748
0.00666271
0.00704215
0.00738805
0.00770099
0.00798002
0.00822384
0.00843236
0.0086074
0.00875238
0.00887134
0.00896808
0.00904556
0.00910617
0.000122162
0.000973816
0.00187142
0.00266747
0.00338753
0.00404813
0.00465599
0.00521423
0.00572562
0.00619359
0.00662201
0.00701418
0.0073716
0.00769314
0.00797572
0.00821687
0.00841734
0.00858094
0.00871339
0.00882049
0.00890709
0.00897666
0.00903174
0.000123179
0.000954729
0.00179791
0.00255652
0.00326384
0.00392931
0.00455121
0.00512671
0.00565556
0.0061402
0.00658454
0.00699177
0.00736216
0.00769183
0.00797484
0.00820858
0.00839729
0.00854753
0.0086674
0.00876362
0.00884142
0.00890444
0.00895515
0.000129496
0.000964617
0.00173282
0.00243665
0.0031255
0.00379812
0.00443907
0.00503654
0.00558635
0.0060902
0.00655242
0.00697612
0.00735947
0.0076944
0.00797207
0.00819353
0.00837193
0.00851287
0.00862513
0.00871455
0.00878622
0.00884412
0.00889107
0.000160675
0.00110863
0.00178085
0.00236589
0.00300141
0.00367087
0.00433052
0.00495163
0.00552363
0.00604721
0.00652737
0.00696688
0.00736043
0.00769435
0.00795944
0.00816988
0.00835587
0.00850062
0.00861316
0.00869916
0.00876516
0.00881683
0.00885818
0.000248356
0.00166798
0.00223293
0.00247308
0.00294697
0.00357619
0.00424326
0.0048836
0.00547469
0.00601511
0.00651023
0.00696184
0.00735982
0.00768434
0.00793358
0.00815494
0.00840491
0.00856725
0.00867679
0.00875181
0.00880479
0.00884392
0.00887435
0.000417326
0.00338829
0.00388444
0.00286949
0.00299346
0.00353715
0.00419552
0.00484506
0.00544725
0.00599759
0.0065013
0.00695891
0.00735551
0.00766563
0.00790146
0.00817979
0.0086552
0.00880131
0.00886482
0.00890021
0.00892273
0.00893837
0.00895019
0.0002578
0.00023999
0.000228818
0.000228936
0.00190105
0.00178035
0.00177534
0.00184492
0.00358043
0.00344186
0.00338313
0.00339564
0.00481029
0.00470667
0.00464516
0.00462833
0.00578325
0.00571025
0.00565936
0.00563157
0.00659036
0.00653332
0.00648765
0.00645362
0.00726263
0.00721311
0.0071688
0.00712981
0.0078083
0.00776238
0.00771851
0.00767683
0.00824362
0.00820005
0.0081565
0.0081133
0.00858445
0.00854261
0.00849988
0.00845651
0.00882916
0.00879019
0.00874973
0.00870745
0.00900834
0.00897105
0.00893103
0.00888803
0.00914533
0.00910984
0.00907067
0.0090278
0.00925448
0.00922165
0.00918453
0.0091433
0.00934194
0.00931277
0.00927892
0.0092407
0.00941051
0.00938589
0.00935635
0.00932231
0.00946178
0.00944224
0.00941769
0.0093886
0.00949691
0.00948265
0.00946334
0.00943952
0.00951706
0.00950799
0.00949387
0.00947528
0.00952364
0.00951951
0.00951034
0.0094967
0.00951852
0.00951898
0.00951441
0.00950534
0.00950405
0.00950871
0.00950834
0.00950342
0.00948296
0.00949142
0.00949484
0.00949363
0.00945825
0.00947008
0.00947686
0.00947896
0.00943284
0.00944762
0.00945734
0.00946232
0.00940925
0.00942654
0.00943879
0.00944624
0.00938913
0.00940851
0.00942288
0.00943243
0.00937312
0.00939419
0.00941027
0.00942152
0.00936062
0.00938294
0.00940033
0.0094129
0.00934983
0.00937296
0.00939123
0.00940472
0.00933789
0.00936133
0.00938001
0.009394
0.00932122
0.00934443
0.00936303
0.0093771
0.0092959
0.00931833
0.0093364
0.00935015
0.00925837
0.0092796
0.00929677
0.00930993
0.00920633
0.0092261
0.00924223
0.00925474
0.00913993
0.00915832
0.00917353
0.00918555
0.00906312
0.00908049
0.00909513
0.00910698
0.00898486
0.00900158
0.00901595
0.00902788
0.00891911
0.00893509
0.00894902
0.00896078
0.00888298
0.00889717
0.00890961
0.00892018
0.00889245
0.00890279
0.00891184
0.00891951
0.00895715
0.00896112
0.00896455
0.00896742
0.000735179
0.00156128
0.00240672
0.00307803
0.00348499
0.00365882
0.00369383
0.00365669
0.00357332
0.00344399
0.00330326
0.00314768
0.00296064
0.00273961
0.00246116
0.00207655
0.0015356
0.000792111
0.000133
0.00217316
0.00272396
0.00328271
0.003753
0.00406649
0.00422305
0.00426015
0.0042147
0.00410906
0.00395596
0.0037763
0.00357227
0.00333632
0.00306481
0.00273593
0.00230842
0.00170755
0.000868313
0.000135163
0.00353152
0.00383909
0.00417565
0.00446228
0.00465628
0.00475556
0.00476447
0.00469829
0.00457071
0.00439415
0.00418168
0.00393745
0.00365899
0.00334256
0.00297252
0.00251676
0.00191352
0.00104601
0.000144818
0.00466787
0.00482254
0.00500171
0.00515019
0.00524136
0.0052697
0.00523211
0.00513276
0.0049775
0.00477444
0.00453146
0.0042524
0.00393692
0.00358222
0.00317858
0.00270032
0.00209455
0.00124779
0.000160595
0.00562108
0.00567261
0.00574042
0.00578864
0.00579835
0.00576169
0.00567453
0.00553619
0.00534876
0.00511614
0.00484247
0.00453039
0.00418034
0.00379054
0.00335418
0.00285164
0.00223304
0.0013637
0.000177098
0.00641484
0.00639796
0.00638932
0.00636586
0.00631336
0.00622368
0.00609188
0.0059162
0.00569686
0.00543505
0.00513221
0.00478943
0.00440693
0.00398349
0.00351403
0.00298261
0.00234159
0.00144051
0.000185624
0.00707298
0.00701136
0.0069515
0.00687831
0.00678034
0.00664971
0.00648162
0.00627414
0.0060268
0.00573915
0.00541048
0.00504023
0.00462779
0.0041721
0.00366889
0.00310411
0.00243202
0.00149713
0.00019002
0.00761047
0.00752313
0.0074317
0.00732593
0.00719668
0.00703633
0.00684055
0.00660791
0.00633801
0.00602896
0.00567776
0.0052821
0.00484002
0.00435052
0.00380926
0.00320401
0.0024905
0.00152199
0.000191044
0.00804164
0.00794018
0.00783158
0.00770792
0.00756036
0.00738025
0.00716378
0.00691104
0.00662303
0.00629601
0.00592379
0.00550263
0.00502828
0.00449744
0.00390291
0.00323915
0.00246885
0.00147207
0.000193915
0.00838302
0.00827543
0.00815876
0.00802715
0.00787155
0.00767888
0.00744516
0.0071732
0.00686879
0.0065244
0.0061293
0.00568001
0.0051725
0.00458983
0.00391835
0.00316099
0.00230858
0.00130224
0.000187403
0.00863402
0.00852064
0.00839514
0.00825586
0.0080946
0.00789439
0.00764739
0.00735949
0.00704155
0.00668251
0.00626528
0.0057803
0.00522425
0.00457494
0.00381903
0.00296999
0.00204064
0.00103884
0.00017156
0.00881248
0.00869014
0.00855267
0.00839961
0.00822394
0.00801318
0.00776035
0.00746704
0.00713754
0.00676446
0.00632721
0.00581234
0.00521355
0.0045195
0.00372352
0.00284042
0.00189317
0.000933093
0.000164768
0.0089518
0.00882577
0.00868199
0.00852019
0.0083342
0.00811407
0.00785392
0.00755366
0.00721456
0.00682943
0.00638088
0.00585261
0.00523789
0.00453293
0.00373517
0.00285509
0.00191683
0.000965614
0.000166438
0.00906943
0.0089444
0.00879924
0.00863389
0.00844392
0.00822127
0.00795995
0.00765844
0.0073166
0.00692765
0.00647814
0.00595431
0.00534716
0.00465284
0.00386862
0.00299802
0.00205109
0.00105536
0.000171343
0.00917136
0.0090513
0.00890907
0.00874529
0.00855725
0.0083388
0.00808383
0.00778912
0.00745291
0.00706965
0.00662911
0.00611911
0.00552947
0.00485233
0.00408055
0.00320813
0.00223109
0.00116192
0.000176228
0.00925959
0.00914793
0.00901257
0.00885481
0.00867317
0.00846296
0.00821859
0.00793575
0.00761118
0.0072398
0.00681285
0.00631906
0.00574669
0.00508381
0.00431747
0.00343279
0.00241415
0.00126325
0.000180156
0.00933391
0.00923308
0.00910745
0.00895869
0.00878613
0.00858615
0.00835374
0.00808419
0.00777327
0.0074155
0.00700254
0.00652309
0.00596402
0.00531003
0.00454294
0.00364051
0.00257826
0.00135048
0.000183376
0.00939349
0.00930468
0.00919021
0.00905186
0.00888944
0.00870005
0.00847924
0.00822221
0.00792406
0.00757883
0.007178
0.00670964
0.00615966
0.00551015
0.00473875
0.00381755
0.00271547
0.00142151
0.000185563
0.00943787
0.00936116
0.00925808
0.00913034
0.00897798
0.00879859
0.00858815
0.00834191
0.00805456
0.0077196
0.00732818
0.00686805
0.00632391
0.00567607
0.00489912
0.00396101
0.00282586
0.00147782
0.000186877
0.00946747
0.00940219
0.00930995
0.00919227
0.00904927
0.00887884
0.00867731
0.00843997
0.00816127
0.00783428
0.00744985
0.00699559
0.0064551
0.00580747
0.00502524
0.00407339
0.00291179
0.00152211
0.000187473
0.00948363
0.00942874
0.0093464
0.00923787
0.00910328
0.00894069
0.00874665
0.00851653
0.00824462
0.00792371
0.00754438
0.00709405
0.006556
0.00590817
0.00512152
0.00415892
0.002978
0.00155698
0.000187513
0.00948848
0.00944285
0.00936932
0.00926895
0.00914179
0.00898601
0.00879826
0.00857401
0.00830744
0.00799118
0.00761563
0.00716804
0.00663142
0.00598315
0.00519324
0.00422314
0.00302824
0.00158325
0.000187106
0.00948471
0.00944719
0.00938147
0.00928832
0.0091677
0.00901782
0.00883542
0.00861599
0.0083537
0.00804107
0.00766837
0.00722275
0.00668706
0.00603835
0.00524607
0.00427066
0.00306572
0.00160322
0.000186381
0.00947531
0.00944486
0.00938599
0.0092992
0.00918436
0.00903966
0.00886189
0.00864653
0.00838774
0.00807799
0.00770747
0.00726324
0.00672808
0.00607885
0.00528465
0.00430526
0.00309289
0.00161713
0.000185434
0.00946327
0.00943888
0.00938596
0.00930481
0.00919511
0.00905502
0.00888133
0.00866951
0.00841367
0.00810624
0.00773738
0.00729406
0.006759
0.00610898
0.00531294
0.00433028
0.00311236
0.00162733
0.000184398
0.00945113
0.00943194
0.00938418
0.00930798
0.00920285
0.00906687
0.00889682
0.00868815
0.00843492
0.00812949
0.0077619
0.00731908
0.00678368
0.00613248
0.00533439
0.0043486
0.00312573
0.00163373
0.000183366
0.00944064
0.00942588
0.00938261
0.00931078
0.00920975
0.00907754
0.00891084
0.00870507
0.00845422
0.00815054
0.00778396
0.00734131
0.00680518
0.0061523
0.00535156
0.0043622
0.00313525
0.00163821
0.000182447
0.00943246
0.00942142
0.00938204
0.00931409
0.00921681
0.00908811
0.00892463
0.00872169
0.00847319
0.00817124
0.00780562
0.00736304
0.00682595
0.00617106
0.00536726
0.00437388
0.00314216
0.00164052
0.00018179
0.00942599
0.00941802
0.00938197
0.00931749
0.00922369
0.0090984
0.00893816
0.0087382
0.00849227
0.00819229
0.00782787
0.00738551
0.00684754
0.00619057
0.00538356
0.00438593
0.00314921
0.00164263
0.000181507
0.00941935
0.00941381
0.00938061
0.00931929
0.00922884
0.00910703
0.00895029
0.00875371
0.00851087
0.00821347
0.00785085
0.00740926
0.00687082
0.00621204
0.00540194
0.0044001
0.00315833
0.00164657
0.0001816
0.00940957
0.00940587
0.00937513
0.00931679
0.00922976
0.00911172
0.008959
0.00876655
0.00852772
0.00823394
0.00787419
0.00743438
0.00689632
0.00623636
0.00542353
0.00441767
0.00317084
0.00165318
0.000182246
0.00939299
0.00939063
0.00936209
0.00930675
0.00922344
0.00910976
0.00896195
0.00877479
0.00854137
0.00825277
0.00789755
0.00746109
0.00692474
0.00626456
0.00544958
0.00443994
0.003188
0.00166363
0.000183518
0.00936588
0.00936449
0.00933813
0.00928606
0.00920706
0.00909867
0.00895704
0.00877679
0.00855072
0.00826951
0.00792115
0.00749032
0.00695766
0.00629867
0.00548219
0.00446873
0.00321119
0.00167868
0.000185656
0.00932516
0.0093247
0.00930076
0.00925251
0.00917872
0.00907688
0.00894308
0.00877179
0.00855558
0.00828465
0.00794631
0.00752433
0.00699821
0.0063424
0.00552517
0.0045073
0.00324268
0.00169988
0.000188822
0.00926948
0.00927022
0.00924922
0.00920562
0.00913813
0.00904429
0.0089202
0.00876025
0.00855682
0.00829975
0.00797557
0.00756684
0.00705141
0.00640183
0.00558488
0.00456118
0.00328613
0.00172875
0.000193412
0.00920013
0.00920263
0.00918528
0.00914717
0.00908706
0.00900261
0.00888999
0.00874371
0.0085562
0.00831704
0.00801205
0.00762239
0.00712363
0.00648525
0.00567079
0.00463916
0.00334747
0.00176793
0.000199824
0.00912193
0.00912675
0.00911358
0.00908157
0.00902953
0.00895527
0.00885525
0.00872437
0.00855545
0.00833822
0.00805803
0.00769467
0.00722101
0.00660212
0.00579548
0.00475434
0.00343595
0.00182021
0.00020889
0.00904344
0.00905069
0.00904173
0.00901587
0.00897171
0.00890725
0.00881954
0.00870426
0.00855517
0.00836297
0.00811298
0.00778411
0.00734679
0.00676098
0.00597448
0.00492686
0.00356818
0.00189102
0.00022187
0.00897647
0.00898528
0.00897981
0.00895966
0.00892203
0.00886495
0.00878687
0.00868472
0.00855413
0.0083879
0.00817194
0.00788539
0.00749795
0.00696629
0.00622653
0.00519083
0.00377986
0.00199403
0.000241579
0.00893437
0.00894284
0.0089397
0.00892507
0.00889155
0.00883609
0.00876164
0.00866687
0.00854979
0.0084072
0.00822575
0.00798635
0.00766186
0.00721328
0.00657249
0.00561055
0.00416101
0.00217691
0.000274024
0.00892969
0.0089355
0.00893384
0.00892629
0.00889415
0.00882703
0.00874671
0.00865227
0.0085408
0.0084159
0.00826415
0.00806948
0.00781318
0.00747652
0.00702031
0.0063141
0.00496068
0.00260687
0.000335564
0.00897114
0.00897301
0.00897297
0.00897453
0.00894603
0.0088288
0.00873367
0.00864194
0.00853094
0.00841555
0.00828192
0.00811682
0.00791219
0.00768252
0.00748601
0.00758306
0.00690888
0.00403489
0.000468636
)
;

boundaryField
{
    leftWall
    {
        type            nutkWallFunction;
        Cmu             0.09;
        kappa           0.41;
        E               9.8;
        value           nonuniform List<scalar> 
50
(
2.30496e-06
6.89233e-06
7.984e-06
8.77906e-06
9.4303e-06
1.01517e-05
1.23535e-05
1.37358e-05
1.488e-05
1.6705e-05
1.86065e-05
2.05835e-05
2.26265e-05
2.48113e-05
2.63894e-05
2.65012e-05
2.57731e-05
2.57884e-05
2.6611e-05
2.31303e-05
2.11399e-05
2.16111e-05
2.02866e-05
1.86022e-05
1.70331e-05
1.58769e-05
1.51575e-05
1.46788e-05
1.43251e-05
1.40104e-05
1.36821e-05
1.33152e-05
1.29022e-05
1.24462e-05
1.19554e-05
1.14424e-05
1.09227e-05
1.04151e-05
9.94041e-06
9.51912e-06
9.16807e-06
8.8968e-06
8.70604e-06
8.59167e-06
8.56395e-06
8.72319e-06
9.60083e-06
1.37188e-05
2.58561e-05
4.91854e-05
)
;
    }
    rightWall
    {
        type            nutkWallFunction;
        Cmu             0.09;
        kappa           0.41;
        E               9.8;
        value           nonuniform List<scalar> 
50
(
2.83636e-06
9.12208e-06
1.06758e-05
1.20052e-05
1.46085e-05
1.73101e-05
1.66497e-05
1.6131e-05
1.58746e-05
1.59008e-05
1.66472e-05
1.81584e-05
1.99022e-05
2.0654e-05
2.10366e-05
2.11526e-05
2.17742e-05
1.66435e-05
1.53412e-05
1.52435e-05
1.58959e-05
1.6688e-05
1.73637e-05
1.78789e-05
1.82556e-05
1.84922e-05
1.86117e-05
1.86341e-05
1.85809e-05
1.84669e-05
1.83092e-05
1.81222e-05
1.79259e-05
1.7734e-05
1.75673e-05
1.74332e-05
1.73546e-05
1.73339e-05
1.73994e-05
1.75569e-05
1.7844e-05
1.8278e-05
1.89179e-05
1.98139e-05
2.1085e-05
2.28977e-05
2.56388e-05
3.01063e-05
3.8266e-05
5.57772e-05
)
;
    }
    lowerWall
    {
        type            nutkWallFunction;
        Cmu             0.09;
        kappa           0.41;
        E               9.8;
        value           nonuniform List<scalar> 
62
(
2.30496e-06
3.62043e-06
4.40542e-06
4.95316e-06
5.37579e-06
5.71963e-06
6.00647e-06
6.24771e-06
6.4493e-06
6.61433e-06
6.74512e-06
6.84482e-06
6.91901e-06
6.98436e-06
7.03383e-06
7.05655e-06
7.04443e-06
6.98562e-06
6.85898e-06
6.62415e-06
6.19757e-06
5.37634e-06
3.10846e-06
3.10846e-06
1.00471e-05
1.21104e-05
1.36748e-05
1.49806e-05
1.62064e-05
1.78946e-05
2.33818e-05
2.87149e-05
2.68459e-05
2.5767e-05
2.5557e-05
3.09837e-06
1.11054e-05
1.40906e-05
1.59797e-05
1.8054e-05
2.13265e-05
2.46843e-05
2.76291e-05
3.09837e-06
5.29699e-06
6.16082e-06
6.58935e-06
6.7825e-06
6.87621e-06
6.85976e-06
6.83545e-06
6.87868e-06
6.89206e-06
6.80168e-06
6.50787e-06
6.14625e-06
6.01199e-06
5.90654e-06
5.60022e-06
5.1598e-06
4.39354e-06
2.83636e-06
)
;
    }
    atmosphere
    {
        type            calculated;
        value           nonuniform List<scalar> 
46
(
0.009
0.009
0.009
0.00286949
0.00299346
0.00353715
0.00419552
0.00484506
0.00544725
0.00599759
0.0065013
0.00695891
0.00735551
0.00766563
0.00790146
0.00817979
0.009
0.009
0.009
0.009
0.009
0.009
0.009
0.009
0.009
0.009
0.009
0.009
0.009
0.009
0.009
0.009
0.0088288
0.00873367
0.00864194
0.00853094
0.00841555
0.00828192
0.00811682
0.00791219
0.00768252
0.00748601
0.009
0.009
0.009
0.009
)
;
    }
    defaultFaces
    {
        type            empty;
    }
}


// ************************************************************************* //
