/*--------------------------------*- C++ -*----------------------------------*\
  =========                 |
  \\      /  F ield         | OpenFOAM: The Open Source CFD Toolbox
   \\    /   O peration     | Website:  https://openfoam.org
    \\  /    A nd           | Version:  13
     \\/     M anipulation  |
\*---------------------------------------------------------------------------*/
FoamFile
{
    format      ascii;
    class       volScalarField;
    location    "2.4";
    object      p;
}
// * * * * * * * * * * * * * * * * * * * * * * * * * * * * * * * * * * * * * //

dimensions      [1 -1 -2 0 0 0 0];

internalField   nonuniform List<scalar> 
2268
(
5256.73
5275.52
5298.99
5326.92
5358.2
5392.61
5429.81
5468.86
5508.34
5546.57
5581.95
5613.22
5639.6
5660.3
5676.31
5688.39
5697.99
5707.08
5718.3
5734.64
5758.1
5787.76
5822.8
4455.9
4473.07
4493.93
4519.02
4548.25
4581.55
4618.54
4658.21
4699.09
4739.53
4777.87
4812.65
4842.79
4867.57
4887.09
4902.26
4914.39
4925.34
4937.58
4953.91
4975.65
5002.31
5033.5
3653.93
3670.22
3688.56
3710.28
3736.68
3768.22
3804.6
3844.82
3887.35
3930.46
3972.36
4011.3
4045.91
4074.88
4098.22
4116.54
4130.98
4143.22
4155.57
4170.57
4189.25
4213.56
4245.25
2849.67
2866.78
2883.17
2901.63
2924.96
2954.49
2990.2
3031.08
3075.48
3121.55
3167.23
3210.45
3249.52
3282.35
3309.02
3329.82
3345.66
3358.02
3368.99
3380.99
3395.7
3419.31
3457.23
2043.69
2064.62
2079.8
2095.32
2115.57
2142.97
2177.78
2219.01
2265.02
2313.84
2363.25
2410.75
2453.99
2490.63
2520.35
2543.22
2559.81
2571.29
2579.57
2587.04
2596.77
2619.89
2667.6
1307.4
1327.4
1337.83
1346.89
1359.23
1378.12
1404.67
1438.86
1479.8
1525.88
1574.51
1622.17
1665.16
1701.71
1731.03
1752.35
1765.89
1772.63
1774.61
1774.68
1778.02
1802.66
1872.11
925.264
932.582
933.889
933.698
933.52
935.078
939.419
947.357
959.276
975.056
993.806
1013.94
1034.79
1055.15
1071.11
1082.27
1088.34
1089.67
1087.41
1083.3
1080.89
1090.46
1145.68
843.39
843.257
839.937
835.076
828.565
820.518
811.226
801.302
791.365
782.069
774.106
768.021
765.208
766.419
767.807
769.121
769.926
769.743
768.09
764.915
760.407
752.507
758.113
2042.09
2055.62
2087.9
2140.86
2215.2
2328.65
2422.55
2468.66
2542.36
2618.78
2663.62
2659.14
2644.89
2654.09
2649.78
2620.33
2582.02
2546.11
2529.77
1486.45
1497.26
1515.45
1550.88
1613.82
1682.89
1777.66
1883.06
1962.59
2035.97
2080.54
2104.62
2099.68
2068.35
2031.9
1998.32
1962.63
1932.44
1921.56
1201.46
1214.37
1227.99
1244.2
1254.79
1229.86
1270.61
1327.32
1382.86
1410.33
1451.23
1495.87
1506.82
1469.66
1426.91
1387.53
1359.3
1367.03
1381.63
1045.3
1055.9
1071.4
1089.17
1081.49
1037.04
1024.62
1025.41
1035.04
996.752
1000.64
1042.68
1067.4
1048.74
999.607
971.092
950.827
961.382
973.708
902.014
908.765
921.43
932.625
950.124
955.991
937.183
919.114
899.385
854.676
827.176
822.939
831.599
831.356
811.638
815.429
812.496
795.406
770.777
803.687
805.324
802.241
804.632
824.738
863.038
858.244
840.251
806.803
783.646
767.363
735.075
711.685
714.617
735.815
753.901
759.059
747.54
725.283
737.587
738.378
721.907
717.849
719.557
752.92
756.819
738.934
717.079
716.421
708.423
697.013
679.985
676.459
693.021
701.509
702.249
693.452
689.095
665.509
676.557
663.695
653.932
644.375
652.348
655.866
652.857
648.087
653.862
650.856
647.326
648.168
645.886
644.832
644.687
644.648
639.395
643.703
749.135
749.169
747.117
742.707
736.728
729.614
721.666
713.339
704.97
696.874
689.272
682.346
676.293
671.442
667.948
665.137
662.462
659.339
655.058
649.22
641.153
628.924
611.745
623.05
621.473
618.464
613.394
606.995
599.616
591.603
583.506
575.671
568.346
561.703
555.772
550.733
546.664
543.479
540.601
537.814
534.514
529.77
523.522
515.866
505.898
494.202
499.764
496.564
492.163
485.971
479.048
471.393
462.905
454.864
447.483
440.898
435.102
430.029
425.74
422.439
419.582
416.878
414.513
412.137
409.057
405.044
399.714
392.964
386.847
384.257
376.986
369.159
361.523
354.607
347.444
340.171
333.285
326.86
321.796
317.853
314.825
312.967
311.998
311.276
310.861
311.349
312.67
313.315
313.145
311.547
309.217
307.87
283.346
273.379
266.151
260.069
254.138
248.758
245.475
242.487
239.351
236.976
235.767
235.496
235.722
236.305
237.27
238.948
241.196
243.602
245.497
246.802
247.618
248.304
248.856
204.6
197.786
193.224
189.059
184.877
181.91
180.039
178.731
177.62
176.775
176.651
176.975
177.356
177.854
178.785
180.144
181.299
182.081
183.299
184.455
185.454
186.591
186.946
146.204
139.478
134.132
129.483
125.291
122.115
119.169
116.287
114.299
113.165
112.612
112.53
112.87
113.489
114.511
115.684
116.763
117.858
119.137
120.358
121.415
122.294
122.781
93.3892
86.8315
77.7266
68.8474
61.6338
57.0452
55.1966
52.8534
50.3917
48.9079
48.8713
49.593
50.3339
51.0693
51.9924
53.0752
54.199
55.4059
56.7972
58.1071
58.9993
59.4981
59.4845
43.4789
38.9589
27.2921
19.0558
14.3172
12.5483
13.0048
12.3709
11.3666
10.8095
11.2068
11.9883
12.6224
13.1109
13.6119
14.1271
14.6066
15.1358
15.8304
16.4916
16.7942
16.8165
16.9281
13.4532
9.57795
4.47005
3.61859
3.48288
3.42417
3.35857
3.32876
3.29017
3.26334
3.23094
3.18774
3.13636
3.08507
3.03837
2.99572
2.95805
2.92638
2.89817
2.87055
2.84252
2.82233
2.79143
3.01144
3.07807
3.16622
3.14541
3.11899
3.12385
3.13189
3.14074
3.14566
3.14381
3.13216
3.11327
3.08989
3.06409
3.03658
3.00751
2.97754
2.94753
2.91802
2.88946
2.86223
2.83846
2.81354
2.96086
2.96757
2.98585
3.00792
3.02059
3.02504
3.02364
3.02211
3.01848
3.00973
2.99371
2.97224
2.94778
2.92126
2.89332
2.8645
2.83523
2.80587
2.77678
2.74869
2.72228
2.69963
2.67697
2.86474
2.87104
2.88829
2.90411
2.91529
2.91363
2.90729
2.89936
2.89092
2.87856
2.86161
2.83979
2.81518
2.7892
2.7622
2.73455
2.70659
2.67854
2.65061
2.6235
2.59824
2.57754
2.5585
2.77045
2.77115
2.78108
2.79436
2.79854
2.79523
2.78806
2.77833
2.76714
2.75354
2.73751
2.71728
2.6946
2.67054
2.64526
2.61917
2.59258
2.56569
2.53876
2.51258
2.48819
2.46851
2.45084
2.67446
2.67243
2.67732
2.68263
2.68346
2.67986
2.67255
2.66205
2.64879
2.635
2.61878
2.60019
2.58023
2.55819
2.53453
2.50983
2.48444
2.45855
2.43248
2.40706
2.38342
2.36448
2.34739
2.57304
2.57048
2.57201
2.57402
2.57328
2.56889
2.56106
2.55015
2.53621
2.52106
2.50481
2.48796
2.46974
2.44912
2.42679
2.40332
2.37909
2.35422
2.32903
2.30443
2.28155
2.26329
2.24691
2.46885
2.46741
2.46792
2.46802
2.46588
2.46074
2.45265
2.44182
2.42839
2.413
2.39709
2.38091
2.36302
2.34323
2.32192
2.29961
2.27647
2.2526
2.22835
2.20459
2.18248
2.16489
2.14908
2.36501
2.36468
2.36473
2.36362
2.36046
2.3548
2.34659
2.33596
2.32313
2.30865
2.2932
2.27688
2.25922
2.24008
2.21976
2.19849
2.17637
2.15349
2.13019
2.10733
2.08599
2.06899
2.05383
2.26223
2.26242
2.26213
2.2603
2.25651
2.25053
2.24232
2.23197
2.21969
2.20583
2.19083
2.17482
2.15761
2.13923
2.11985
2.09958
2.07847
2.0566
2.03429
2.01232
1.99182
1.97547
1.96083
2.16028
2.16058
2.16001
2.1578
2.15372
2.14765
2.13958
2.12957
2.11781
2.10455
2.09009
2.07457
2.058
2.0404
2.02191
2.00261
1.98252
1.96169
1.94039
1.91939
1.89974
1.88403
1.8701
2.05913
2.05935
2.05857
2.05619
2.05203
2.04605
2.03823
2.02864
2.01742
2.00478
1.99094
1.97606
1.96023
1.94347
1.92587
1.90749
1.88838
1.86857
1.84831
1.82828
1.80953
1.79453
1.78104
1.95888
1.95894
1.95802
1.95559
1.95149
1.94569
1.9382
1.92907
1.91844
1.90645
1.89331
1.87916
1.86411
1.84825
1.83159
1.81418
1.79605
1.77723
1.75797
1.73894
1.72109
1.7068
1.69371
1.85956
1.85948
1.85847
1.85606
1.8521
1.84656
1.83944
1.8308
1.82077
1.80947
1.79707
1.78371
1.76951
1.75456
1.73888
1.72249
1.70539
1.68763
1.66941
1.65136
1.63443
1.62083
1.60846
1.76116
1.76096
1.75992
1.7576
1.75382
1.74856
1.74184
1.73373
1.72431
1.71372
1.7021
1.68957
1.67625
1.66224
1.64758
1.63224
1.61623
1.59958
1.58248
1.56555
1.54961
1.53679
1.5254
1.66358
1.66334
1.66233
1.66012
1.65656
1.65162
1.64532
1.63773
1.62895
1.61908
1.60825
1.59659
1.58419
1.57114
1.55751
1.54325
1.52837
1.51289
1.49699
1.4812
1.46636
1.45446
1.44383
1.56675
1.56652
1.56559
1.56353
1.56021
1.5556
1.54974
1.5427
1.53455
1.52542
1.5154
1.50461
1.49315
1.4811
1.4685
1.45535
1.44163
1.42734
1.41265
1.39809
1.38436
1.37333
1.36364
1.47058
1.47039
1.46957
1.4677
1.46464
1.46038
1.45498
1.44849
1.44099
1.4326
1.4234
1.41351
1.403
1.39195
1.3804
1.36836
1.3558
1.34273
1.32929
1.31593
1.30337
1.29331
1.28437
1.37496
1.37485
1.37416
1.37249
1.36971
1.36584
1.3609
1.35498
1.34815
1.3405
1.33213
1.32312
1.31357
1.30353
1.29304
1.2821
1.27071
1.25885
1.24664
1.23454
1.22314
1.21405
1.20614
1.27977
1.27978
1.27925
1.2778
1.27533
1.27184
1.2674
1.26205
1.25589
1.24899
1.24144
1.23332
1.22472
1.21568
1.20624
1.19641
1.18617
1.17551
1.16455
1.15366
1.14345
1.13536
1.12822
1.18494
1.18508
1.18472
1.18352
1.18137
1.1783
1.17435
1.16959
1.16409
1.15794
1.15121
1.14397
1.1363
1.12825
1.11985
1.11112
1.10202
1.09255
1.08282
1.07318
1.06411
1.05694
1.05072
1.09034
1.09063
1.09048
1.08953
1.08773
1.08509
1.08165
1.07748
1.07265
1.06723
1.0613
1.05492
1.04817
1.04109
1.03371
1.02605
1.01808
1.00979
1.00129
0.99287
0.985017
0.978863
0.973419
0.995876
0.996329
0.996397
0.99575
0.994316
0.992118
0.989198
0.985613
0.981432
0.976726
0.971567
0.966023
0.960156
0.954012
0.947629
0.941013
0.934153
0.92704
0.91976
0.91262
0.905983
0.900865
0.896538
0.901416
0.902056
0.902376
0.902051
0.901008
0.899267
0.896866
0.893857
0.890308
0.886288
0.88187
0.877121
0.8721
0.866856
0.861429
0.855825
0.85004
0.844075
0.838018
0.832102
0.8267
0.822681
0.81928
0.80684
0.807681
0.808283
0.808309
0.80768
0.806408
0.804523
0.802076
0.799133
0.795766
0.792049
0.788048
0.783827
0.779435
0.774912
0.77027
0.765511
0.760642
0.755738
0.751034
0.746789
0.743738
0.741384
0.711979
0.713051
0.71397
0.71438
0.714191
0.713401
0.712029
0.710126
0.70776
0.705008
0.701946
0.698644
0.695167
0.691569
0.687888
0.684138
0.680326
0.676468
0.672643
0.669021
0.665878
0.663788
0.662232
0.616677
0.618002
0.619274
0.620111
0.620398
0.620109
0.619248
0.61787
0.616051
0.613877
0.611426
0.60877
0.605978
0.603108
0.600191
0.597242
0.594266
0.591295
0.588406
0.585786
0.583598
0.582329
0.581692
0.520731
0.522351
0.524034
0.525358
0.526176
0.526416
0.526069
0.525197
0.523899
0.522268
0.520389
0.518334
0.516171
0.513958
0.511721
0.509457
0.507165
0.50492
0.502823
0.501003
0.499631
0.499078
0.498986
0.423956
0.425922
0.428101
0.43002
0.431459
0.432269
0.432436
0.432055
0.431251
0.430139
0.428806
0.427323
0.425748
0.424139
0.422496
0.420771
0.418963
0.417249
0.415755
0.414619
0.413902
0.413855
0.414273
0.326141
0.328572
0.331447
0.334135
0.33631
0.337717
0.338381
0.338459
0.338124
0.337512
0.336716
0.335802
0.334821
0.333817
0.332716
0.331342
0.329747
0.328365
0.327355
0.326786
0.326696
0.327209
0.328033
0.227155
0.230372
0.234418
0.238037
0.240958
0.242892
0.243969
0.244447
0.244548
0.244421
0.244167
0.243854
0.243532
0.24323
0.242895
0.241716
0.239976
0.238808
0.238179
0.238185
0.238736
0.239878
0.241785
0.127206
0.131558
0.137926
0.142558
0.145753
0.147898
0.149215
0.150008
0.150505
0.150847
0.151132
0.151443
0.151868
0.152561
0.153741
0.151658
0.149169
0.148019
0.147717
0.148114
0.14911
0.150733
0.153975
0.0373858
0.0363112
0.0434823
0.0465274
0.0483738
0.0496861
0.0505313
0.0511065
0.0515466
0.0519304
0.0523185
0.0527696
0.0533725
0.0543252
0.0562392
0.0559666
0.0531651
0.0521397
0.0515747
0.0516596
0.0521132
0.052975
0.0550857
589.14
585.143
584.488
581.638
480.58
472.094
466.353
460.15
381.233
378.431
377.038
376.422
309.405
311.048
312.416
312.335
248.795
248.813
248.754
248.566
186.433
186.083
185.863
185.513
123.083
123.093
122.855
122.359
58.2886
57.8244
57.8226
58.1946
17.0842
17.0019
16.9
16.8005
2.72346
2.69184
2.66682
2.66593
2.78432
2.75041
2.70939
2.67728
2.63545
2.59399
2.55109
2.52422
2.52238
2.48209
2.43722
2.40742
2.4161
2.37583
2.33035
2.29966
2.31325
2.27324
2.2276
2.19669
2.21353
2.17408
2.12884
2.09784
2.11673
2.07811
2.03329
2.00253
2.02238
1.98472
1.94093
1.91058
1.93062
1.89413
1.85129
1.82161
1.8411
1.80597
1.76464
1.73562
1.75349
1.71987
1.67991
1.65191
1.66736
1.63532
1.59739
1.57054
1.58352
1.55308
1.51681
1.49131
1.5019
1.47312
1.43872
1.41412
1.42208
1.39508
1.36229
1.3389
1.3433
1.31807
1.28752
1.26537
1.26576
1.24238
1.21368
1.193
1.18913
1.16765
1.14129
1.12188
1.11302
1.0935
1.06909
1.05123
1.03692
1.01928
0.997395
0.981089
0.961344
0.945639
0.925793
0.911153
0.886149
0.872413
0.85497
0.841617
0.810822
0.799065
0.783483
0.771509
0.734442
0.724499
0.711208
0.700485
0.656952
0.648757
0.637195
0.627793
0.577812
0.571244
0.561676
0.553295
0.496457
0.491374
0.483274
0.476076
0.41249
0.408608
0.402316
0.396276
0.327105
0.324327
0.319316
0.314476
0.242126
0.240646
0.237093
0.232813
0.158008
0.15854
0.155999
0.151436
0.0589805
0.0601455
0.0592379
0.0563862
566.602
575.576
572.635
563.302
553.136
548.372
552.925
557.401
558.196
561.563
561.169
560.77
564.1
562.788
558.058
555.513
555.474
555.318
559.491
452.906
457.39
458.557
451.846
446
443.661
442.983
440.584
439.463
439.782
439.449
439.464
440.331
438.623
434.948
432.71
433.088
435.409
438.398
375.138
374.11
373.378
371.645
368.821
363.463
357.044
351.906
347.269
342.902
338.83
335.616
333.146
330.39
327.878
327.102
328.64
332.234
335.372
311.128
310.279
308.829
307.707
305.501
299.426
293.404
287.171
281.019
274.62
268.054
261.925
256.822
253.149
251.114
250.937
252.476
255.308
259.221
247.886
246.746
245.384
243.952
241.867
237.592
231.436
224.914
218.688
212.432
206.133
200.151
194.859
190.684
187.893
186.613
186.706
188.202
191.478
184.676
183.453
181.985
180.25
177.728
173.668
168.393
162.545
156.545
150.423
144.271
138.23
132.534
127.779
124.257
122.072
121.33
123.087
127.866
121.322
120.097
118.629
116.753
114.163
110.476
105.787
100.425
94.7172
88.8051
82.7666
76.4427
69.7213
63.7849
59.0641
56.0569
54.9077
56.9947
63.4124
58.954
58.2777
56.9871
55.2056
52.7193
49.4317
45.6915
41.5966
37.3235
32.9209
28.6682
24.8092
21.048
17.7878
15.0075
13.259
12.7227
13.583
16.9126
16.4667
15.9633
15.3575
14.5625
13.4507
11.9275
10.3278
8.71588
7.08782
5.51193
4.09339
3.3636
3.60575
3.77938
3.75775
3.61594
3.59666
3.60833
3.7391
2.68192
2.67491
2.67113
2.68227
2.71033
2.72893
2.71955
2.70484
2.75638
2.86932
2.93107
2.89697
2.82313
2.80323
2.82185
2.84538
2.85559
2.84925
2.86237
2.64742
2.64076
2.6417
2.65215
2.67251
2.67546
2.65817
2.62801
2.61726
2.63322
2.66407
2.67664
2.66962
2.66391
2.67543
2.68887
2.70034
2.70842
2.72159
2.51095
2.51112
2.51055
2.51182
2.5196
2.5197
2.50811
2.48944
2.48489
2.49188
2.50595
2.5163
2.52596
2.54448
2.56028
2.57561
2.58658
2.59285
2.59772
2.38997
2.38991
2.38689
2.37944
2.36823
2.36508
2.3626
2.36321
2.36797
2.37149
2.374
2.38717
2.40892
2.42839
2.44551
2.46031
2.47154
2.47704
2.47756
2.28063
2.27996
2.27566
2.26625
2.2522
2.24157
2.23934
2.24761
2.25597
2.26132
2.26707
2.27798
2.29413
2.31103
2.32672
2.34042
2.35079
2.35638
2.35721
2.17733
2.17631
2.1716
2.16279
2.15242
2.14457
2.14188
2.14463
2.14933
2.15425
2.16011
2.16946
2.18221
2.19589
2.20913
2.22106
2.23051
2.23605
2.23741
2.07818
2.07694
2.07211
2.06377
2.05486
2.04786
2.04449
2.04462
2.04697
2.05025
2.05523
2.06296
2.07303
2.0841
2.09523
2.10562
2.11417
2.11945
2.1211
1.9829
1.98139
1.97647
1.9683
1.95991
1.95307
1.9488
1.94729
1.94765
1.94959
1.95334
1.95931
1.96716
1.97611
1.98548
1.99454
2.00223
2.00722
2.00895
1.891
1.88935
1.8843
1.87612
1.86782
1.86075
1.85569
1.85276
1.85167
1.85225
1.85464
1.85895
1.86494
1.87213
1.87999
1.88787
1.89478
1.89949
1.90135
1.80236
1.80047
1.7953
1.78703
1.77861
1.77117
1.76535
1.7613
1.75894
1.75824
1.75925
1.76206
1.76648
1.77217
1.77872
1.78555
1.7918
1.79631
1.79839
1.71653
1.71447
1.70917
1.70079
1.69215
1.6843
1.67779
1.67279
1.66934
1.66746
1.66722
1.66867
1.67172
1.67612
1.68154
1.68747
1.69316
1.69755
1.69979
1.63341
1.63107
1.62567
1.61716
1.60829
1.60003
1.59289
1.58709
1.58269
1.57979
1.57844
1.57871
1.58055
1.58382
1.58826
1.59341
1.59863
1.6029
1.60518
1.5526
1.54999
1.54453
1.53592
1.52683
1.51819
1.51051
1.50402
1.49882
1.49502
1.49271
1.49196
1.49277
1.49507
1.49863
1.50311
1.50787
1.51193
1.51422
1.47429
1.47083
1.46551
1.45684
1.44756
1.4386
1.43046
1.42338
1.41749
1.41292
1.40979
1.40816
1.40809
1.40954
1.41234
1.41616
1.42046
1.4243
1.4265
1.39736
1.39437
1.38865
1.37982
1.37036
1.3611
1.35255
1.34496
1.33848
1.33324
1.32939
1.32701
1.32617
1.32686
1.32896
1.33219
1.33603
1.33957
1.3417
1.32281
1.31966
1.31374
1.30479
1.29516
1.28564
1.27673
1.26868
1.26167
1.25585
1.25135
1.2483
1.24676
1.24676
1.24821
1.25083
1.2542
1.25744
1.25942
1.24984
1.2466
1.24054
1.23153
1.22179
1.21208
1.20287
1.19444
1.18697
1.18062
1.17554
1.17185
1.16967
1.16901
1.1698
1.17185
1.1747
1.17756
1.17938
1.17838
1.1749
1.16876
1.15975
1.14996
1.14012
1.1307
1.12196
1.11409
1.10727
1.10166
1.09739
1.09458
1.09327
1.09343
1.09485
1.09716
1.09965
1.10126
1.10785
1.1043
1.09811
1.08916
1.07939
1.06949
1.05992
1.05094
1.04274
1.0355
1.0294
1.02458
1.02117
1.01923
1.01872
1.01954
1.0213
1.02334
1.02478
1.03824
1.03451
1.02835
1.0195
1.0098
0.999911
0.990252
0.981086
0.972613
0.965019
0.958475
0.953138
0.949137
0.946555
0.945405
0.945554
0.946747
0.948376
0.949593
0.968986
0.965288
0.959161
0.95047
0.940903
0.931074
0.921393
0.912113
0.903431
0.895532
0.888587
0.882758
0.878184
0.874961
0.873132
0.872658
0.873262
0.874413
0.875438
0.900174
0.896326
0.890257
0.881748
0.87236
0.862659
0.853026
0.843703
0.834881
0.826737
0.819441
0.813154
0.80802
0.804165
0.801676
0.800513
0.800535
0.80124
0.802012
0.831197
0.827277
0.821246
0.812957
0.803805
0.794302
0.784798
0.775516
0.766634
0.758318
0.75073
0.744028
0.738369
0.733914
0.730751
0.728933
0.728335
0.728539
0.729089
0.761866
0.757686
0.751718
0.743683
0.734829
0.725608
0.716328
0.707186
0.698343
0.689947
0.682144
0.675089
0.668962
0.663936
0.660134
0.657601
0.656371
0.656124
0.6564
0.691356
0.68708
0.681193
0.67347
0.664999
0.656162
0.647222
0.638343
0.629661
0.621301
0.613385
0.606067
0.599536
0.593967
0.589516
0.586334
0.584455
0.583719
0.583768
0.619428
0.614948
0.609204
0.601867
0.593883
0.585559
0.577101
0.568638
0.560275
0.552098
0.544207
0.536742
0.529873
0.523795
0.518735
0.514862
0.512374
0.511206
0.51099
0.545323
0.540841
0.53531
0.528468
0.521102
0.513446
0.505649
0.497792
0.489946
0.482151
0.474468
0.466995
0.45988
0.453337
0.447654
0.443149
0.440043
0.438395
0.437968
0.468917
0.464434
0.459235
0.452999
0.44639
0.439583
0.432659
0.42565
0.418576
0.411417
0.404167
0.396869
0.389636
0.382692
0.376408
0.371161
0.367386
0.365265
0.364585
0.389923
0.38572
0.380942
0.375418
0.369712
0.363937
0.358132
0.352274
0.346291
0.340064
0.333516
0.326635
0.319483
0.312227
0.305299
0.299226
0.294531
0.291708
0.290819
0.309131
0.305037
0.300725
0.295958
0.291275
0.286709
0.282308
0.277958
0.273412
0.268429
0.262887
0.256752
0.249987
0.242626
0.235158
0.227909
0.221713
0.217801
0.21656
0.227317
0.222945
0.219036
0.214989
0.211423
0.208203
0.205446
0.2032
0.200429
0.196991
0.192829
0.187926
0.182134
0.17531
0.167699
0.159136
0.14956
0.143353
0.141484
0.143306
0.138001
0.134661
0.131455
0.129046
0.127029
0.125664
0.127442
0.127057
0.125417
0.123046
0.120032
0.116173
0.111109
0.104447
0.0952145
0.0808311
0.0692445
0.0657793
0.0503491
0.0472018
0.04557
0.0439138
0.0430673
0.0423268
0.0418125
0.0439215
0.0445359
0.0442923
0.0436587
0.0427672
0.0414925
0.0395973
0.0367389
0.0324857
0.0233589
0.0113273
0.0086207
)
;

boundaryField
{
    leftWall
    {
        type            calculated;
        value           nonuniform List<scalar> 
50
(
5256.73
4455.9
3653.93
2849.67
2043.69
1307.4
925.264
843.39
749.135
623.05
499.764
384.257
283.346
204.6
146.204
93.3892
43.4789
13.4532
3.01144
2.96086
2.86474
2.77045
2.67446
2.57304
2.46885
2.36501
2.26223
2.16028
2.05913
1.95888
1.85956
1.76116
1.66358
1.56675
1.47058
1.37496
1.27977
1.18494
1.09034
0.995876
0.901416
0.80684
0.711979
0.616677
0.520731
0.423956
0.326141
0.227155
0.127206
0.0373858
)
;
    }
    rightWall
    {
        type            calculated;
        value           nonuniform List<scalar> 
50
(
2529.77
1921.56
1381.63
973.708
770.777
725.283
689.095
643.703
559.491
438.398
335.372
259.221
191.478
127.866
63.4124
16.9126
3.7391
2.86237
2.72159
2.59772
2.47756
2.35721
2.23741
2.1211
2.00895
1.90135
1.79839
1.69979
1.60518
1.51422
1.4265
1.3417
1.25942
1.17938
1.10126
1.02478
0.949593
0.875438
0.802012
0.729089
0.6564
0.583768
0.51099
0.437968
0.364585
0.290819
0.21656
0.141484
0.0657793
0.0086207
)
;
    }
    lowerWall
    {
        type            calculated;
        value           nonuniform List<scalar> 
62
(
5654.88
5673.67
5697.14
5725.07
5756.35
5790.76
5827.96
5867.01
5906.49
5944.72
5980.1
6011.37
6037.75
6058.45
6074.46
6086.54
6096.14
6105.23
6116.45
6132.78
6156.1
6185.7
6220.74
5822.8
5033.5
4245.25
3457.23
2667.6
1872.11
1145.68
758.113
651.744
647.74
647.079
660.937
2042.09
1486.45
1201.46
1045.3
902.014
803.687
737.587
665.509
2383.72
2401.62
2438.99
2492.65
2567
2680.13
2768.79
2728.93
2799.9
2877.32
2920.41
2908.13
2894.51
2929.45
2953.67
2924.74
2885.69
2848.89
2832.72
)
;
    }
    atmosphere
    {
        type            calculated;
        value           nonuniform List<scalar> 
46
(
-3.41295e-05
0
0
0
0
0
0
0
0
0
0
0
0
0
0
0
0
0
0
0
0
0
0
-5.74119e-06
-6.80658e-06
-3.82998e-06
0
0
0
0
0
0
0
0
0
0
0
0
0
0
0
0
0
0
-4.20864e-05
-0.000599644
)
;
    }
    defaultFaces
    {
        type            empty;
    }
}


// ************************************************************************* //
