/*--------------------------------*- C++ -*----------------------------------*\
  =========                 |
  \\      /  F ield         | OpenFOAM: The Open Source CFD Toolbox
   \\    /   O peration     | Website:  https://openfoam.org
    \\  /    A nd           | Version:  13
     \\/     M anipulation  |
\*---------------------------------------------------------------------------*/
FoamFile
{
    format      ascii;
    class       volScalarField;
    location    "2.4";
    object      p_rgh;
}
// * * * * * * * * * * * * * * * * * * * * * * * * * * * * * * * * * * * * * //

dimensions      [1 -1 -2 0 0 0 0];

internalField   nonuniform List<scalar> 
2268
(
5654.88
5673.67
5697.14
5725.07
5756.35
5790.76
5827.96
5867.01
5906.49
5944.72
5980.1
6011.37
6037.75
6058.45
6074.46
6086.54
6096.14
6105.23
6116.45
6132.78
6156.1
6185.7
6220.74
5650.35
5667.52
5688.38
5713.47
5742.7
5776
5812.99
5852.65
5893.54
5933.98
5972.32
6007.1
6037.24
6062.02
6081.54
6096.71
6108.84
6119.79
6132.03
6148.35
6170.06
6196.65
6227.56
5644.67
5660.97
5679.31
5701.03
5727.43
5758.97
5795.35
5835.57
5878.1
5921.21
5963.11
6002.05
6036.66
6065.63
6088.97
6107.29
6121.73
6133.97
6146.32
6161.32
6179.99
6204.31
6235.99
5636.72
5653.83
5670.21
5688.68
5712.01
5741.54
5777.25
5818.13
5862.53
5908.6
5954.28
5997.5
6036.57
6069.4
6096.07
6116.86
6132.71
6145.07
6156.04
6168.04
6182.75
6206.36
6244.27
5627.04
5647.96
5663.15
5678.67
5698.92
5726.32
5761.13
5802.36
5848.36
5897.19
5946.6
5994.1
6037.34
6073.97
6103.7
6126.57
6143.16
6154.64
6162.92
6170.39
6180.12
6203.24
6250.95
4939.48
5067.68
5150.47
5215.27
5300.19
5409.95
5534.29
5659.21
5772.63
5867.54
5942.41
6000.18
6044.81
6081.35
6110.68
6132
6145.54
6152.27
6154.25
6154.32
6157.66
6182.31
6251.21
1592.39
1732.35
1826.3
1896.51
1992.16
2139.38
2347.72
2617.62
2942.13
3304.34
3673.02
4011.89
4267.42
4421.27
4524.84
4568.22
4557.37
4505.8
4437.89
4381.11
4370.7
4581.69
5230.23
1284.83
1284.7
1281.38
1276.52
1270
1261.96
1252.67
1242.74
1232.81
1223.51
1215.55
1209.46
1227.86
1293.95
1320.33
1327.04
1318.18
1300.12
1281.06
1264.55
1256.82
1286.77
1531.61
2383.72
2401.62
2438.99
2492.65
2567
2680.13
2768.79
2728.93
2799.9
2877.32
2920.41
2908.13
2894.51
2929.45
2953.67
2924.74
2885.69
2848.89
2832.72
2115.34
2114.85
2160.79
2253.4
2359.26
2612.33
2747.08
2880.09
2957.41
3033.43
3075.06
3012.09
2957.75
2977.16
2942.05
2908.92
2871.59
2840.83
2830.28
1577.72
1590.82
1582.55
1590.01
1782.66
1952.78
2207.71
2446.42
2654.86
2983.81
3022.17
3048.21
2994.33
2923.93
2910.05
2881.94
2831.23
2652.96
2551.29
1591.97
1626
1650.45
1663.46
1540.24
1287.72
1365.43
1520.87
1692.74
1710.82
2012.05
2113.21
2092.25
1995.18
1961.93
1803.68
1739.7
1961.58
2173.46
1467.81
1494.74
1512.56
1618.09
1563.56
1235.28
1215.26
1219.61
1301.81
1143.22
1066.12
1518.69
1747.13
1666.74
1312.37
1162.36
1040.22
975.031
1048.74
1166.22
1222.48
1398.43
1376.67
1506.49
1443.23
1334.15
1330.19
1387.89
1139.39
1084.42
866.711
964.057
1060.36
963.819
1019.61
1063.62
1048.84
870.062
1125.84
1099.16
1082.88
1154.97
1346.98
1466.19
1454.01
1429.65
1268.98
1130.95
1093.06
1001.37
791.367
797.491
984.188
1077.63
1084.78
1075.21
921.314
1282.35
1135.9
1088.11
1092.9
1076.97
1381.42
1375.12
1160.27
1092.89
1099.89
1093.99
1083.9
959.694
953.33
1066.04
1086.07
1086.05
1074.52
995.254
1282.6
1282.64
1280.58
1276.17
1270.19
1263.08
1255.13
1246.81
1238.44
1230.34
1222.74
1215.81
1209.76
1204.91
1201.42
1198.6
1195.93
1192.81
1188.52
1182.68
1174.64
1162.52
1145.43
1281.71
1280.13
1276.86
1271.89
1265.64
1258.28
1250.26
1242.17
1234.33
1227.01
1220.36
1214.43
1209.39
1205.33
1202.14
1199.26
1196.48
1193.18
1188.43
1182.18
1174.09
1163.97
1149.34
1283.32
1278.09
1274.18
1269.46
1262.9
1255.25
1246.76
1238.72
1231.34
1224.75
1218.96
1213.77
1208.09
1204.1
1202.95
1198.48
1194.46
1187.55
1157.36
1114.72
1103.49
1079.03
1077.58
1218.26
1261.1
1261.32
1243.5
1233.73
1227.46
1183.97
1159.36
1145.59
1132.12
1118.23
1098.21
1069.54
1048.32
1026.19
990.061
951.324
910.476
878.227
850.504
820.948
774.459
727.848
1123.29
1047.93
957.881
912.272
907.233
884.862
837.731
799.061
751.945
725.634
703.408
681.959
678.921
688.401
693.595
686.2
694.554
742.954
751.798
754.222
758.626
727.307
717.175
854.779
777.716
772.707
768.016
749.642
704.521
710.775
748.675
746.99
735.163
741.879
756.694
757.076
757.568
752.262
751.504
756.721
761.6
762.989
763.833
761.934
760.08
765.292
774.466
782.454
776.559
771.817
767.608
764.423
761.486
758.604
756.616
755.482
754.929
754.847
755.187
755.807
756.829
758.001
759.081
760.176
761.423
762.643
763.733
764.625
765.116
790.052
792.767
782.659
764.499
744.877
713.754
702.241
717.161
718.377
719.1
725.579
735.403
743.562
748.978
752.986
755.946
758.045
759.832
761.585
763.022
763.914
764.413
764.4
799.204
671.386
437.696
275.758
191.292
165.944
204.95
211.526
203.719
200.783
223.917
261.262
295.985
325.855
354.298
380.425
401.217
419.503
442.397
465.376
475.984
472.743
471.177
291.577
177.912
18.7254
5.2819
5.14584
5.08537
5.01932
4.98917
4.95052
4.92363
4.8912
4.84798
4.79663
4.74538
4.69874
4.65603
4.61827
4.58661
4.55839
4.53077
4.50275
4.48257
4.4517
4.8013
4.86717
4.96015
4.93909
4.90649
4.90984
4.91757
4.92631
4.93109
4.92923
4.91758
4.89869
4.87533
4.84953
4.822
4.79293
4.76297
4.73296
4.70345
4.67488
4.64767
4.62393
4.59909
4.87262
4.88143
4.90317
4.93348
4.97241
4.94112
4.93439
4.93341
4.94273
4.95648
4.9065
4.88352
4.8586
4.83198
4.80403
4.77521
4.74596
4.71658
4.68749
4.65938
4.63296
4.61032
4.58772
4.90167
4.90894
4.93199
5.00736
5.01872
4.9779
4.94361
4.94822
5.05337
5.08551
4.96524
4.88173
4.8521
4.82546
4.79854
4.77092
4.74279
4.71458
4.6866
4.65946
4.63417
4.61344
4.5944
4.93276
4.93358
4.95175
5.02148
5.03023
4.97265
4.94925
4.94983
5.10468
5.09523
5.0817
4.94183
4.85997
4.83403
4.8086
4.78213
4.75444
4.7271
4.70004
4.67381
4.64938
4.62963
4.61192
4.96194
4.96071
4.9683
4.98449
4.98079
4.96657
4.95881
4.94877
5.05199
5.10887
5.09709
4.97304
4.87365
4.85142
4.82645
4.80033
4.77184
4.74521
4.71901
4.69353
4.66983
4.65082
4.63367
4.98548
4.9839
4.98617
4.98551
4.98474
4.98035
4.97252
4.9616
4.95399
5.03782
5.02677
4.91877
4.88867
4.86815
4.8458
4.82075
4.79189
4.76606
4.7408
4.71612
4.6932
4.67485
4.65841
5.00604
5.00525
5.00581
5.00479
5.00254
4.99743
4.98933
4.97856
4.96547
4.95159
4.93391
4.91794
4.90298
4.88747
4.86371
4.83718
4.81377
4.78961
4.76522
4.74141
4.71927
4.70167
4.68579
5.02725
5.02715
5.02707
5.0256
5.02237
5.01671
5.0085
4.99792
4.98503
4.97065
4.95519
4.93903
4.92323
4.90423
4.88225
4.86061
4.83834
4.81553
4.79217
4.76927
4.74792
4.73088
4.71571
5.04952
5.04975
5.04938
5.04743
5.0436
5.03762
5.02941
5.01907
5.00672
4.99285
4.97785
4.96252
4.94596
4.92747
4.90716
4.88668
4.86556
4.8437
4.82138
4.79939
4.77887
4.76252
4.74786
5.07263
5.07296
5.07235
5.07009
5.06598
5.05991
5.05183
5.04181
5.03003
5.01676
5.00232
4.98716
4.9711
4.95313
4.93423
4.91486
4.89475
4.87392
4.85261
4.83161
4.81195
4.79623
4.7823
5.09664
5.09687
5.09607
5.09365
5.08947
5.08347
5.07564
5.06604
5.05482
5.04219
5.02838
5.01359
4.99779
4.98097
4.9633
4.9449
4.92578
4.90597
4.8857
4.86567
4.84691
4.83192
4.81842
5.12158
5.12164
5.1207
5.11824
5.11412
5.1083
5.10079
5.09166
5.08102
5.06904
5.05591
5.04177
5.02672
5.01085
4.99418
4.97676
4.95862
4.93981
4.92054
4.90151
4.88366
4.86937
4.85627
5.14744
5.14735
5.14633
5.1439
5.13991
5.13435
5.12722
5.11858
5.10854
5.09724
5.08485
5.07148
5.05728
5.04233
5.02665
5.01025
4.99315
4.97539
4.95717
4.93912
4.92218
4.90859
4.89622
5.17422
5.17402
5.17297
5.17062
5.16682
5.16154
5.15481
5.14669
5.13727
5.12668
5.11505
5.10252
5.0892
5.0752
5.06053
5.04519
5.02918
5.01253
4.99543
4.9785
4.96256
4.94974
4.93834
5.20182
5.20157
5.20055
5.19833
5.19475
5.18979
5.18348
5.17588
5.16709
5.15722
5.1464
5.13473
5.12233
5.10929
5.09565
5.08139
5.06651
5.05103
5.03512
5.01934
5.0045
4.9926
4.98197
5.23018
5.22993
5.22898
5.22691
5.22358
5.21896
5.21309
5.20604
5.19789
5.18875
5.17874
5.16795
5.15649
5.14443
5.13184
5.11868
5.10496
5.09067
5.07599
5.06142
5.04769
5.03666
5.02697
5.25918
5.25898
5.25814
5.25626
5.25319
5.24893
5.24352
5.23702
5.22953
5.22113
5.21193
5.20203
5.19152
5.18047
5.16893
5.15689
5.14433
5.13125
5.11781
5.10445
5.09189
5.08184
5.0729
5.28874
5.28862
5.28792
5.28624
5.28345
5.27957
5.27463
5.2687
5.26187
5.25422
5.24585
5.23684
5.22729
5.21725
5.20676
5.19582
5.18443
5.17257
5.16036
5.14826
5.13686
5.12777
5.11986
5.31874
5.31873
5.31819
5.31673
5.31425
5.31077
5.30632
5.30097
5.2948
5.2879
5.28035
5.27224
5.26363
5.25459
5.24515
5.23533
5.22509
5.21443
5.20347
5.19258
5.18236
5.17428
5.16714
5.34909
5.34921
5.34885
5.34764
5.34548
5.34241
5.33846
5.3337
5.3282
5.32205
5.31531
5.30808
5.30041
5.29236
5.28396
5.27523
5.26613
5.25666
5.24692
5.23728
5.22822
5.22105
5.21483
5.37967
5.37995
5.37979
5.37884
5.37704
5.37439
5.37096
5.36679
5.36195
5.35653
5.3506
5.34422
5.33747
5.33039
5.32301
5.31535
5.30738
5.2991
5.2906
5.28217
5.27432
5.26817
5.26272
5.4104
5.41084
5.4109
5.41025
5.40882
5.40662
5.4037
5.40011
5.39593
5.39122
5.38606
5.38052
5.37465
5.36851
5.36213
5.35551
5.34865
5.34154
5.33426
5.32712
5.32048
5.31536
5.31103
5.44112
5.44176
5.44207
5.44175
5.4407
5.43896
5.43656
5.43355
5.43
5.42598
5.42156
5.41681
5.41179
5.40655
5.40112
5.39552
5.38973
5.38377
5.37771
5.37179
5.36639
5.36237
5.35897
5.47174
5.47257
5.47317
5.4732
5.47257
5.47129
5.46941
5.46696
5.46402
5.46065
5.45694
5.45293
5.44871
5.44432
5.4398
5.43516
5.4304
5.42553
5.42062
5.41592
5.41168
5.40862
5.40627
5.50206
5.50313
5.50405
5.50446
5.50427
5.50348
5.50211
5.50021
5.49784
5.49509
5.49203
5.48873
5.48525
5.48165
5.47797
5.47422
5.47041
5.46655
5.46272
5.4591
5.45596
5.45387
5.45231
5.53195
5.53328
5.53455
5.53539
5.53567
5.53538
5.53452
5.53315
5.53133
5.52915
5.5267
5.52405
5.52125
5.51838
5.51547
5.51252
5.50954
5.50657
5.50368
5.50106
5.49887
5.4976
5.49697
5.5612
5.56282
5.5645
5.56583
5.56665
5.56689
5.56654
5.56567
5.56437
5.56274
5.56086
5.5588
5.55664
5.55443
5.55219
5.54993
5.54764
5.54539
5.54329
5.54147
5.5401
5.53955
5.53946
5.58962
5.59159
5.59377
5.59568
5.59712
5.59793
5.5981
5.59772
5.59692
5.5958
5.59447
5.59299
5.59141
5.5898
5.58816
5.58644
5.58463
5.58291
5.58142
5.58028
5.57957
5.57952
5.57994
5.617
5.61943
5.62231
5.62499
5.62717
5.62858
5.62924
5.62932
5.62898
5.62837
5.62758
5.62666
5.62568
5.62468
5.62358
5.6222
5.62061
5.61922
5.61821
5.61765
5.61755
5.61807
5.61889
5.64321
5.64643
5.65047
5.65409
5.65701
5.65895
5.66002
5.6605
5.6606
5.66047
5.66022
5.65991
5.65959
5.65928
5.65895
5.65777
5.65603
5.65486
5.65423
5.65424
5.65479
5.65593
5.65784
5.66845
5.67281
5.67917
5.68381
5.687
5.68915
5.69046
5.69126
5.69175
5.6921
5.69238
5.69269
5.69312
5.69381
5.69499
5.69291
5.69042
5.68927
5.68897
5.68936
5.69036
5.69198
5.69522
5.70383
5.70275
5.70993
5.71297
5.71482
5.71613
5.71697
5.71755
5.71799
5.71837
5.71876
5.71921
5.71982
5.72077
5.72268
5.72241
5.71961
5.71858
5.71802
5.7181
5.71856
5.71942
5.72153
1122.67
1118.61
1117.9
1257.44
1136.51
1129.97
1124.89
1058.68
1029.64
882.749
748.728
731.433
714.576
721.901
745.124
748.169
748.089
768.756
768.772
768.197
766.474
766.04
765.592
765.236
765.399
765.41
765.18
764.689
763.206
762.742
762.674
762.886
476.921
464.838
453.899
440.51
4.38375
4.35214
4.32713
4.32625
4.56994
4.53607
4.49507
4.46294
4.54635
4.50488
4.46199
4.43512
4.55836
4.51809
4.47324
4.44344
4.57721
4.53694
4.49147
4.46081
4.59952
4.55951
4.51388
4.48297
4.62499
4.58554
4.54029
4.5093
4.65339
4.61475
4.56993
4.53917
4.68423
4.64655
4.60274
4.57239
4.71764
4.68114
4.6383
4.60861
4.7533
4.71816
4.67682
4.6478
4.79086
4.75725
4.71728
4.68928
4.82993
4.79789
4.75995
4.7331
4.87127
4.84084
4.80456
4.77906
4.91484
4.88606
4.85166
4.82707
4.96021
4.93322
4.90043
4.87704
5.00663
4.9814
4.95085
4.92871
5.05429
5.0309
5.0022
4.98152
5.10285
5.08137
5.05501
5.0356
5.15193
5.13242
5.108
5.09014
5.20103
5.18339
5.1615
5.1452
5.25065
5.23494
5.2151
5.20046
5.30065
5.28691
5.26947
5.25611
5.35051
5.33876
5.32318
5.3112
5.39933
5.38939
5.37609
5.36537
5.44703
5.43884
5.42728
5.41787
5.49309
5.48652
5.47695
5.46857
5.53693
5.53184
5.52374
5.51655
5.57815
5.57427
5.56798
5.56194
5.61796
5.61519
5.61018
5.60534
5.65818
5.6567
5.65315
5.64887
5.69926
5.69979
5.69725
5.69268
5.72542
5.72659
5.72568
5.72283
1244.58
1125.2
1054.25
1065.2
1078.2
1041.36
1055.48
1089.86
1090.49
1095.07
1095.25
1094.7
1095.24
1091.97
1091.5
1089.04
1088.65
1079.49
1027.41
909.495
974.687
977.065
937.159
867.513
895.364
989.554
1031.85
1054.94
1083.31
1097.85
1098.01
1099.08
1097.17
1092.61
1083.73
1075.46
1061.42
1066.76
757.969
758.163
781.436
755.793
721.479
779.071
762.231
777.125
788.243
814.665
850.02
889.138
919.233
918.202
896.764
869.154
845.976
835.486
818.565
757.806
764.424
763.049
757.861
733.485
705.843
727.924
741.317
735.69
729.204
722.583
716.471
712.329
709.095
707.128
706.217
708.75
733.483
778.216
765.502
763.796
762.164
759.209
757.143
754.191
748.557
742.036
735.839
729.585
723.262
717.279
711.997
707.839
705.106
703.846
704.324
707.18
715.73
764.399
763.157
761.627
759.994
757.463
753.389
748.113
742.265
736.265
730.142
723.991
717.951
712.254
707.5
703.98
701.796
701.055
703.333
709.836
763.642
762.416
760.948
759.073
756.482
752.793
748.104
742.742
737.034
731.122
725.085
718.784
712.577
709.948
704.427
688.682
666.877
671.691
694.78
763.125
761.966
760.911
759.633
757.461
754.278
738.705
711.307
676.824
636.015
586.626
513.915
400.327
308.29
231.452
189.914
172.952
193.212
283.597
417.396
399.525
381.888
360.235
328.756
280.494
229.985
178.295
125.888
75.7208
31.396
10.5917
21.3114
25.4004
22.7162
16.3896
15.4116
17.7089
22.4603
4.34225
4.33528
4.332
4.34504
4.37696
4.42335
4.49703
4.63503
5.65316
7.73775
7.97492
6.77583
4.8463
4.68183
4.49847
4.52273
4.54425
4.54372
4.53721
4.43329
4.42696
4.42836
4.44266
4.54685
4.69679
4.72546
4.74065
4.7736
4.69814
5.03119
5.38176
5.37583
4.56558
4.46223
4.47678
4.48904
4.49928
4.51072
4.42184
4.42207
4.42234
4.48099
5.28724
5.36338
5.3522
4.63344
4.39623
4.43818
5.10781
5.3154
4.52133
4.45617
4.47135
4.48699
4.49794
4.50392
4.50883
4.42601
4.42596
4.4232
4.41816
4.84086
5.36106
5.38128
4.74664
4.40443
4.40831
4.41197
4.4253
4.44638
4.46473
4.48177
4.49668
4.50782
4.51328
4.51396
4.44179
4.44119
4.437
4.42764
4.41335
4.40337
4.40106
4.42292
4.42898
4.42301
4.42926
4.44004
4.45564
4.47235
4.48794
4.50161
4.51199
4.51768
4.51857
4.46364
4.46265
4.45799
4.44915
4.43877
4.43094
4.42827
4.43106
4.43581
4.44085
4.44681
4.45626
4.46894
4.48249
4.49551
4.50734
4.51679
4.52236
4.52368
4.48964
4.48841
4.48361
4.47531
4.46646
4.45958
4.4563
4.45642
4.45869
4.4619
4.46693
4.47481
4.48498
4.49589
4.50679
4.51706
4.52559
4.53087
4.53251
4.51953
4.51802
4.5131
4.50494
4.49659
4.48987
4.48579
4.48434
4.48462
4.4864
4.49005
4.49606
4.50397
4.51287
4.52213
4.53116
4.53884
4.54382
4.54555
4.55281
4.55115
4.5461
4.53793
4.52963
4.52257
4.51755
4.5147
4.5136
4.51412
4.51648
4.52078
4.52676
4.53393
4.54178
4.54967
4.55658
4.56128
4.56314
4.58936
4.58746
4.58229
4.57402
4.5656
4.55817
4.55234
4.5483
4.54594
4.54524
4.54626
4.54906
4.55348
4.55916
4.56571
4.57253
4.57878
4.5833
4.58538
4.62871
4.62665
4.62135
4.61296
4.60433
4.59648
4.58997
4.58497
4.58152
4.57965
4.57941
4.58085
4.5839
4.5883
4.59371
4.59965
4.60534
4.60973
4.61197
4.67078
4.66844
4.66303
4.65452
4.64565
4.63739
4.63026
4.62445
4.62006
4.61716
4.61581
4.61607
4.61791
4.62119
4.62563
4.63078
4.636
4.64029
4.64258
4.71516
4.71255
4.70709
4.69847
4.68938
4.68075
4.67307
4.66657
4.66137
4.65758
4.65527
4.65452
4.65533
4.65762
4.66119
4.66568
4.67045
4.67454
4.67682
4.76204
4.75858
4.75326
4.74459
4.73531
4.72635
4.71821
4.71113
4.70524
4.70067
4.69753
4.69591
4.69584
4.69729
4.70009
4.70392
4.70824
4.71212
4.71434
4.81031
4.80732
4.80159
4.79277
4.7833
4.77404
4.7655
4.7579
4.75142
4.74619
4.74233
4.73995
4.73911
4.7398
4.7419
4.74515
4.749
4.75264
4.75475
4.86094
4.8578
4.85187
4.84293
4.83329
4.82378
4.81486
4.80682
4.79981
4.79399
4.78949
4.78643
4.7849
4.7849
4.78635
4.78898
4.79238
4.79571
4.79771
4.91317
4.90993
4.90387
4.89486
4.88512
4.87541
4.86621
4.85777
4.8503
4.84395
4.83887
4.83519
4.833
4.83234
4.83314
4.83519
4.83808
4.84105
4.84287
4.96691
4.96342
4.95729
4.94827
4.93848
4.92865
4.91923
4.91049
4.90262
4.89579
4.89018
4.88592
4.88311
4.8818
4.88196
4.88339
4.88575
4.88834
4.88991
5.02157
5.01802
5.01183
5.00288
4.99311
4.98321
4.97364
4.96466
4.95646
4.94922
4.94312
4.9383
4.93489
4.93295
4.93245
4.93327
4.93509
4.93725
4.9386
5.07715
5.07342
5.06726
5.05841
5.04872
5.03882
5.02917
5.02
5.01153
5.00393
4.99739
4.99205
4.98805
4.98547
4.98433
4.98449
4.98575
4.98748
4.98861
5.13309
5.1294
5.12327
5.11458
5.10501
5.09518
5.0855
5.07622
5.06754
5.05964
5.0527
5.04687
5.04229
5.03907
5.03725
5.03679
5.03747
5.03872
5.03961
5.18948
5.18563
5.17956
5.17105
5.16166
5.15196
5.14233
5.13301
5.12418
5.11604
5.10874
5.10246
5.09733
5.09347
5.09099
5.08984
5.08994
5.09071
5.09138
5.24569
5.24177
5.23574
5.22745
5.2183
5.2088
5.1993
5.19001
5.18113
5.17282
5.16523
5.15853
5.15287
5.14842
5.14526
5.14346
5.14291
5.14316
5.14361
5.30156
5.29738
5.29141
5.28337
5.27452
5.2653
5.25602
5.24688
5.23803
5.22964
5.22184
5.21478
5.20866
5.20363
5.19984
5.19732
5.19613
5.19584
5.19611
5.35624
5.35197
5.34608
5.33836
5.32989
5.32105
5.31211
5.30323
5.29455
5.28619
5.27827
5.27096
5.26443
5.25886
5.25441
5.25125
5.24938
5.24864
5.24866
5.40951
5.40503
5.39928
5.39195
5.38396
5.37564
5.36718
5.35872
5.35036
5.34218
5.33429
5.32683
5.31996
5.31388
5.30883
5.30497
5.30248
5.3013
5.30108
5.4606
5.45612
5.45059
5.44374
5.43638
5.42872
5.42092
5.41307
5.40522
5.39743
5.38974
5.38227
5.37516
5.36862
5.36294
5.35844
5.35533
5.35368
5.35325
5.50939
5.5049
5.49971
5.49347
5.48686
5.48005
5.47313
5.46612
5.45905
5.45189
5.44464
5.43734
5.43011
5.42317
5.41689
5.41164
5.40787
5.40574
5.40506
5.55559
5.55138
5.54661
5.54108
5.53538
5.5296
5.5238
5.51794
5.51196
5.50573
5.49918
5.4923
5.48515
5.4779
5.47097
5.4649
5.4602
5.45737
5.45648
5.59999
5.5959
5.59158
5.58682
5.58213
5.57757
5.57317
5.56882
5.56427
5.55929
5.55375
5.54761
5.54085
5.53349
5.52602
5.51877
5.51258
5.50866
5.50742
5.64337
5.639
5.63509
5.63104
5.62748
5.62426
5.6215
5.61925
5.61648
5.61304
5.60888
5.60398
5.59819
5.59137
5.58376
5.57519
5.56562
5.55941
5.55754
5.68455
5.67925
5.67591
5.6727
5.67029
5.66828
5.66691
5.66869
5.66831
5.66667
5.66429
5.66128
5.65742
5.65236
5.6457
5.63646
5.62208
5.61049
5.60703
5.71679
5.71364
5.71201
5.71036
5.70951
5.70877
5.70826
5.71036
5.71098
5.71074
5.7101
5.70921
5.70794
5.70604
5.70318
5.69893
5.6898
5.67777
5.67506
)
;

boundaryField
{
    leftWall
    {
        type            fixedFluxPressure;
        gradient        uniform 0;
        value           nonuniform List<scalar> 
50
(
5654.88
5650.35
5644.67
5636.72
5627.04
4939.48
1592.39
1284.83
1282.6
1281.71
1283.32
1218.26
1123.29
854.779
774.466
790.052
799.204
291.577
4.8013
4.87262
4.90167
4.93276
4.96194
4.98548
5.00604
5.02725
5.04952
5.07263
5.09664
5.12158
5.14744
5.17422
5.20182
5.23018
5.25918
5.28874
5.31874
5.34909
5.37967
5.4104
5.44112
5.47174
5.50206
5.53195
5.5612
5.58962
5.617
5.64321
5.66845
5.70383
)
;
    }
    rightWall
    {
        type            fixedFluxPressure;
        gradient        uniform 0;
        value           nonuniform List<scalar> 
50
(
2832.72
2830.28
2551.29
2173.46
1048.74
870.062
921.314
995.254
1027.41
1066.76
818.565
778.216
715.73
709.836
694.78
283.597
22.4603
4.53721
4.51072
4.50883
4.51396
4.51857
4.52368
4.53251
4.54555
4.56314
4.58538
4.61197
4.64258
4.67682
4.71434
4.75475
4.79771
4.84287
4.88991
4.9386
4.98861
5.03961
5.09138
5.14361
5.19611
5.24866
5.30108
5.35325
5.40506
5.45648
5.50742
5.55754
5.60703
5.67506
)
;
    }
    lowerWall
    {
        type            fixedFluxPressure;
        gradient        uniform 0;
        value           nonuniform List<scalar> 
62
(
5654.88
5673.67
5697.14
5725.07
5756.35
5790.76
5827.96
5867.01
5906.49
5944.72
5980.1
6011.37
6037.75
6058.45
6074.46
6086.54
6096.14
6105.23
6116.45
6132.78
6156.1
6185.7
6220.74
6220.74
6227.56
6235.99
6244.27
6250.95
6251.21
5230.23
1531.61
1122.67
1118.61
1117.9
1257.44
2383.72
2115.34
1577.72
1591.97
1467.81
1166.22
1125.84
1282.35
2383.72
2401.62
2438.99
2492.65
2567
2680.13
2768.79
2728.93
2799.9
2877.32
2920.41
2908.13
2894.51
2929.45
2953.67
2924.74
2885.69
2848.89
2832.72
)
;
    }
    atmosphere
    {
        type            prghTotalPressure;
        rho             rho;
        psi             none;
        gamma           1;
        p0              uniform 0;
        value           nonuniform List<scalar> 
46
(
5.72901
5.72904
5.72904
5.72904
5.72904
5.72904
5.72904
5.72904
5.72904
5.72904
5.72904
5.72904
5.72904
5.72904
5.72904
5.72904
5.72904
5.72904
5.72904
5.72904
5.72904
5.72904
5.72904
5.72903
5.72903
5.72904
5.72904
5.72904
5.72904
5.72904
5.72904
5.72904
5.72904
5.72904
5.72904
5.72904
5.72904
5.72904
5.72904
5.72904
5.72904
5.72904
5.72904
5.72904
5.729
5.72844
)
;
        rho             rho;
    }
    defaultFaces
    {
        type            empty;
    }
}


// ************************************************************************* //
