/*--------------------------------*- C++ -*----------------------------------*\
  =========                 |
  \\      /  F ield         | OpenFOAM: The Open Source CFD Toolbox
   \\    /   O peration     | Website:  https://openfoam.org
    \\  /    A nd           | Version:  13
     \\/     M anipulation  |
\*---------------------------------------------------------------------------*/
FoamFile
{
    format      ascii;
    class       surfaceScalarField;
    location    "2.4";
    object      phi;
}
// * * * * * * * * * * * * * * * * * * * * * * * * * * * * * * * * * * * * * //

dimensions      [0 3 -1 0 0 0 0];

internalField   nonuniform List<scalar> 
4432
(
2.54904e-07
-2.54917e-07
8.81354e-07
-6.26457e-07
1.86748e-06
-9.8613e-07
2.99437e-06
-1.12689e-06
4.15907e-06
-1.16471e-06
5.3129e-06
-1.15383e-06
6.42524e-06
-1.11235e-06
7.46962e-06
-1.04439e-06
8.41512e-06
-9.45506e-07
9.22239e-06
-8.07278e-07
9.84495e-06
-6.22564e-07
1.02383e-05
-3.93317e-07
1.0363e-05
-1.2469e-07
1.02053e-05
1.5764e-07
9.76201e-06
4.43301e-07
9.03557e-06
7.26436e-07
8.02979e-06
1.00578e-06
6.74996e-06
1.27984e-06
5.20699e-06
1.54297e-06
3.43678e-06
1.77021e-06
1.581e-06
1.85578e-06
2.3953e-07
1.34147e-06
2.39536e-07
5.43347e-07
-7.98296e-07
1.41532e-06
-1.49845e-06
2.38366e-06
-1.95447e-06
3.39274e-06
-2.13597e-06
4.41023e-06
-2.18219e-06
5.41931e-06
-2.1629e-06
6.40474e-06
-2.09777e-06
7.34686e-06
-1.98649e-06
8.2185e-06
-1.81715e-06
8.98398e-06
-1.57275e-06
9.59999e-06
-1.23858e-06
1.00207e-05
-8.14012e-07
1.02095e-05
-3.13461e-07
1.01368e-05
2.3028e-07
9.79671e-06
7.83415e-07
9.18919e-06
1.33396e-06
8.31707e-06
1.8779e-06
7.18528e-06
2.41162e-06
5.80362e-06
2.92464e-06
4.19936e-06
3.37448e-06
2.47205e-06
3.58309e-06
8.42394e-07
2.97113e-06
1.08192e-06
8.56673e-07
-1.65497e-06
1.8246e-06
-2.46637e-06
2.74387e-06
-2.87373e-06
3.6432e-06
-3.03529e-06
4.53483e-06
-3.07381e-06
5.42267e-06
-3.05074e-06
6.30061e-06
-2.97571e-06
7.15297e-06
-2.83884e-06
7.95537e-06
-2.61955e-06
8.67539e-06
-2.29276e-06
9.27356e-06
-1.83674e-06
9.70701e-06
-1.24746e-06
9.93632e-06
-5.42769e-07
9.9293e-06
2.37294e-07
9.67481e-06
1.03791e-06
9.17073e-06
1.83803e-06
8.41909e-06
2.62954e-06
7.42528e-06
3.40543e-06
6.19978e-06
4.15014e-06
4.76354e-06
4.81072e-06
3.16503e-06
5.18159e-06
1.45822e-06
4.67794e-06
2.54015e-06
1.14611e-06
-2.80108e-06
2.17137e-06
-3.49162e-06
3.03943e-06
-3.74178e-06
3.84339e-06
-3.83922e-06
4.62926e-06
-3.85965e-06
5.41589e-06
-3.83733e-06
6.20272e-06
-3.7625e-06
6.97633e-06
-3.61242e-06
7.71447e-06
-3.35766e-06
8.38793e-06
-2.96619e-06
8.96148e-06
-2.41027e-06
9.39619e-06
-1.68216e-06
9.6545e-06
-8.0106e-07
9.69958e-06
1.92217e-07
9.51735e-06
1.22013e-06
9.10381e-06
2.25156e-06
8.46027e-06
3.27306e-06
7.59271e-06
4.27296e-06
6.51237e-06
5.23045e-06
5.23287e-06
6.09018e-06
3.75616e-06
6.65826e-06
2.00113e-06
6.43294e-06
4.54123e-06
1.39524e-06
-4.19632e-06
2.45279e-06
-4.54917e-06
3.28042e-06
-4.5694e-06
4.00944e-06
-4.56824e-06
4.71141e-06
-4.56162e-06
5.41631e-06
-4.54223e-06
6.12708e-06
-4.47327e-06
6.83196e-06
-4.31729e-06
7.51072e-06
-4.03643e-06
8.13725e-06
-3.59272e-06
8.68028e-06
-2.9533e-06
9.10573e-06
-2.10762e-06
9.37814e-06
-1.07346e-06
9.46166e-06
1.08687e-07
9.33855e-06
1.34324e-06
9.00252e-06
2.58759e-06
8.45384e-06
3.82172e-06
7.69873e-06
5.02806e-06
6.74892e-06
6.18025e-06
5.61162e-06
7.22747e-06
4.25012e-06
8.01975e-06
2.4595e-06
8.22355e-06
7.00074e-06
1.65074e-06
-5.84708e-06
2.69042e-06
-5.58888e-06
3.49077e-06
-5.36977e-06
4.17034e-06
-5.24782e-06
4.81331e-06
-5.2046e-06
5.45542e-06
-5.18434e-06
6.10129e-06
-5.11915e-06
6.74101e-06
-4.95702e-06
7.35713e-06
-4.65255e-06
7.92751e-06
-4.1631e-06
8.42366e-06
-3.44945e-06
8.82167e-06
-2.50563e-06
9.09304e-06
-1.34483e-06
9.19978e-06
1.95178e-09
9.11918e-06
1.42383e-06
8.8441e-06
2.86267e-06
8.37331e-06
4.29251e-06
7.71304e-06
5.68832e-06
6.8764e-06
7.01689e-06
5.87079e-06
8.23307e-06
4.63279e-06
9.25776e-06
2.82189e-06
1.00345e-05
9.82257e-06
1.8922e-06
-7.73927e-06
2.90679e-06
-6.60349e-06
3.69602e-06
-6.15901e-06
4.3367e-06
-5.88851e-06
4.9303e-06
-5.7982e-06
5.51827e-06
-5.77229e-06
6.10649e-06
-5.70735e-06
6.68751e-06
-5.53802e-06
7.2456e-06
-5.21062e-06
7.75909e-06
-4.67657e-06
8.2032e-06
-3.89355e-06
8.54756e-06
-2.84999e-06
8.77881e-06
-1.57608e-06
8.88574e-06
-1.04978e-07
8.83476e-06
1.4748e-06
8.61017e-06
3.08724e-06
8.21054e-06
4.69212e-06
7.64186e-06
6.25697e-06
6.9184e-06
7.74032e-06
6.05145e-06
9.09998e-06
4.98749e-06
1.03217e-05
3.37933e-06
1.16426e-05
1.32018e-05
2.3445e-06
-1.00838e-05
3.34746e-06
-7.60646e-06
4.04006e-06
-6.85161e-06
4.617e-06
-6.46544e-06
5.14423e-06
-6.32542e-06
5.65514e-06
-6.28319e-06
6.15377e-06
-6.20597e-06
6.63986e-06
-6.02409e-06
7.10339e-06
-5.67413e-06
7.52644e-06
-5.0996e-06
7.88169e-06
-4.24879e-06
8.14605e-06
-3.11435e-06
8.32626e-06
-1.75629e-06
8.42938e-06
-2.08104e-07
8.39906e-06
1.5051e-06
8.23013e-06
3.25616e-06
7.92086e-06
5.00136e-06
7.48334e-06
6.69446e-06
6.93418e-06
8.28945e-06
6.29516e-06
9.73897e-06
5.60408e-06
1.10127e-05
4.90132e-06
1.23453e-05
1.81031e-05
3.10553e-07
-3.10538e-07
6.21738e-07
-3.11177e-07
6.02938e-07
1.88009e-08
-2.17082e-07
8.20017e-07
-1.92057e-06
1.70348e-06
-3.47232e-06
1.55175e-06
-5.07306e-06
1.60073e-06
-8.25002e-06
3.17694e-06
-9.86143e-06
1.6114e-06
-9.59397e-06
-2.67468e-07
-8.28198e-06
-1.31199e-06
-7.56927e-06
-7.12711e-07
-7.92736e-06
3.58103e-07
-6.96587e-06
-9.61484e-07
-4.61989e-06
-2.34597e-06
-2.50781e-06
-2.11207e-06
-5.63907e-07
-1.94388e-06
7.2508e-07
-1.28896e-06
7.25095e-07
5.47687e-07
-8.58179e-07
8.2988e-07
-5.93348e-07
7.2635e-07
1.22345e-07
1.82048e-07
1.36432e-06
-6.5714e-07
2.54266e-06
-2.79601e-06
3.69061e-06
-5.34877e-06
4.15348e-06
-6.89098e-06
4.71913e-06
-8.05014e-06
2.77055e-06
-8.42156e-06
1.03942e-07
-8.38675e-06
-1.3468e-06
-7.67843e-06
-1.42102e-06
-6.51033e-06
-8.09971e-07
-5.2904e-06
-2.18138e-06
-3.99702e-06
-3.63932e-06
-2.49996e-06
-3.60909e-06
-1.14748e-06
-3.29632e-06
-2.98384e-07
-2.13804e-06
4.26743e-07
1.2847e-07
-9.86619e-07
5.65803e-07
-1.03067e-06
7.3151e-07
-4.33583e-08
1.01379e-06
1.08205e-06
1.01616e-06
2.54029e-06
-1.85532e-06
6.56208e-06
-4.28649e-06
6.58466e-06
-5.61104e-06
6.04369e-06
-6.2875e-06
3.44701e-06
-7.42943e-06
1.24587e-06
-8.00122e-06
-7.75013e-07
-7.44982e-06
-1.97242e-06
-5.99832e-06
-2.26147e-06
-4.68188e-06
-3.4978e-06
-3.57197e-06
-4.74923e-06
-2.49373e-06
-4.68735e-06
-1.84178e-06
-3.94828e-06
-1.42325e-06
-2.55657e-06
-9.96519e-07
3.9844e-07
-1.38497e-06
6.89843e-07
-1.32203e-06
9.24645e-07
-2.78135e-07
1.57922e-06
4.27485e-07
2.23721e-06
1.88231e-06
-1.07239e-07
8.90656e-06
-2.34728e-06
8.82473e-06
-3.495e-06
7.19143e-06
-3.7706e-06
3.72263e-06
-5.85248e-06
3.32775e-06
-7.18105e-06
5.53578e-07
-6.91403e-06
-2.23942e-06
-5.58588e-06
-3.58959e-06
-4.09564e-06
-4.98802e-06
-3.32557e-06
-5.51927e-06
-2.35358e-06
-5.65929e-06
-1.71025e-06
-4.59158e-06
-1.09024e-06
-3.17655e-06
-2.08669e-06
1.42235e-06
-2.80733e-06
1.25392e-06
-1.1536e-06
1.35116e-06
-3.75376e-07
1.04688e-06
7.31759e-07
1.2493e-06
1.67989e-06
1.56491e-06
8.59094e-06
6.67821e-07
9.72182e-06
-2.86371e-08
7.88789e-06
-3.64327e-07
4.05832e-06
-2.51917e-06
5.48261e-06
-4.83075e-06
2.86517e-06
-5.50246e-06
-1.56771e-06
-5.11609e-06
-3.97598e-06
-4.15772e-06
-5.94644e-06
-3.87019e-06
-5.80683e-06
-2.6031e-06
-6.92641e-06
-1.53517e-07
-7.04119e-06
3.00206e-06
-6.33213e-06
9.15263e-07
3.30527e-06
-6.11254e-06
2.85883e-06
-7.07127e-07
2.10826e-06
3.75211e-07
1.01711e-06
1.82293e-06
5.11686e-07
2.18532e-06
1.59459e-06
7.50804e-06
2.05309e-06
9.26331e-06
2.16845e-06
7.77253e-06
1.74595e-06
4.48083e-06
6.41729e-07
6.58685e-06
-4.63158e-07
3.97008e-06
-2.4803e-06
4.49463e-07
-4.25348e-06
-2.20278e-06
-5.04054e-06
-5.15937e-06
-4.63944e-06
-6.20791e-06
-2.84511e-06
-8.72071e-06
2.17237e-07
-1.01035e-05
5.99634e-06
-1.21112e-05
6.91177e-06
5.62334e-06
-1.17358e-05
5.29999e-06
-3.83745e-07
3.35857e-06
2.31664e-06
1.92176e-06
3.25976e-06
6.54975e-07
3.45212e-06
1.45684e-06
6.70618e-06
2.43394e-06
8.28621e-06
2.69336e-06
7.51313e-06
1.98517e-06
5.18904e-06
1.8268e-06
6.74524e-06
1.47114e-06
4.32576e-06
9.49101e-07
9.71536e-07
-1.64184e-06
3.88195e-07
-4.1709e-06
-2.63029e-06
-3.60657e-06
-6.77221e-06
-2.42974e-06
-9.8975e-06
-5.20648e-07
-1.20126e-05
1.61185e-06
-1.42436e-05
8.52358e-06
6.68352e-06
-1.84193e-05
6.61817e-06
-3.18379e-07
4.89922e-06
4.03561e-06
3.24729e-06
4.91169e-06
1.52423e-06
5.17519e-06
1.57726e-06
6.65317e-06
2.25042e-06
7.61306e-06
2.4913e-06
7.27227e-06
2.00269e-06
5.67766e-06
2.14137e-06
6.60658e-06
2.0207e-06
4.44643e-06
1.34662e-06
1.64562e-06
1.75095e-07
1.55973e-06
-1.31255e-06
-1.14262e-06
-1.84386e-06
-6.24088e-06
-1.73577e-06
-1.00056e-05
-1.20761e-06
-1.25407e-05
-1.06938e-06
-1.43819e-05
7.45428e-06
3.71523e-06
-1.3799e-05
6.29073e-06
-1.01819e-05
7.81933e-06
-8.38018e-06
8.86133e-06
-7.50741e-06
9.72415e-06
-7.1882e-06
1.05153e-05
-7.07426e-06
1.12336e-05
-6.92434e-06
1.19006e-05
-6.69103e-06
1.25188e-05
-6.2923e-06
1.30828e-05
-5.66355e-06
1.35823e-05
-4.74834e-06
1.40092e-05
-3.54117e-06
1.43482e-05
-2.0953e-06
1.46314e-05
-4.91387e-07
1.48944e-05
1.24207e-06
1.51307e-05
3.01987e-06
1.53894e-05
4.74262e-06
1.57306e-05
6.35329e-06
1.61847e-05
7.8353e-06
1.69379e-05
8.98567e-06
1.84344e-05
9.51627e-06
2.14083e-05
9.37126e-06
8.75277e-06
3.07585e-05
1.9722e-06
-1.57713e-05
3.32921e-06
-1.1539e-05
4.12554e-06
-9.17653e-06
4.61209e-06
-7.99399e-06
5.02903e-06
-7.60516e-06
5.43232e-06
-7.47756e-06
5.78431e-06
-7.27635e-06
6.10978e-06
-7.01651e-06
6.43771e-06
-6.62023e-06
6.79278e-06
-6.01862e-06
7.19753e-06
-5.15308e-06
7.65254e-06
-3.99618e-06
8.18602e-06
-2.62878e-06
8.83898e-06
-1.14434e-06
9.65275e-06
4.28304e-07
1.0589e-05
2.08364e-06
1.17029e-05
3.62872e-06
1.30566e-05
4.99951e-06
1.45731e-05
6.31887e-06
1.62696e-05
7.28909e-06
1.84131e-05
7.37276e-06
2.10844e-05
6.7e-06
4.87515e-06
2.49619e-05
2.2382e-07
-1.59951e-05
3.68374e-07
-1.16835e-05
1.16422e-07
-8.92459e-06
-2.51634e-07
-7.62595e-06
-4.55451e-07
-7.40136e-06
-4.60372e-07
-7.47267e-06
-4.6786e-07
-7.26889e-06
-3.97823e-07
-7.08657e-06
-2.46769e-07
-6.77131e-06
1.82582e-08
-6.28367e-06
4.42994e-07
-5.57784e-06
1.02927e-06
-4.58247e-06
1.77284e-06
-3.37235e-06
2.76001e-06
-2.13151e-06
3.95634e-06
-7.68017e-07
5.27934e-06
7.60648e-07
6.771e-06
2.13708e-06
8.49366e-06
3.27687e-06
1.04099e-05
4.40271e-06
1.24557e-05
5.24325e-06
1.44693e-05
5.3592e-06
1.60595e-05
5.10984e-06
3.7702e-06
1.71644e-05
-5.24054e-07
-1.5471e-05
-1.97491e-06
-1.02327e-05
-3.57581e-06
-7.32367e-06
-4.88363e-06
-6.31813e-06
-5.77821e-06
-6.50679e-06
-6.36047e-06
-6.89042e-06
-6.73877e-06
-6.8906e-06
-6.87113e-06
-6.95424e-06
-6.90986e-06
-6.7326e-06
-6.77398e-06
-6.41958e-06
-6.42682e-06
-5.92503e-06
-5.86309e-06
-5.14622e-06
-5.0449e-06
-4.19055e-06
-3.95693e-06
-3.21949e-06
-2.6675e-06
-2.05745e-06
-1.26641e-06
-6.40427e-07
2.88498e-07
5.82194e-07
2.12896e-06
1.43643e-06
4.14847e-06
2.38324e-06
6.27153e-06
3.12025e-06
8.09408e-06
3.53671e-06
9.15174e-06
4.05222e-06
3.98814e-06
8.9338e-06
-1.78257e-06
-1.36885e-05
-4.97663e-06
-7.03861e-06
-7.5585e-06
-4.7418e-06
-9.58949e-06
-4.28714e-06
-1.12594e-05
-4.83693e-06
-1.28014e-05
-5.34843e-06
-1.38096e-05
-5.88238e-06
-1.42723e-05
-6.49151e-06
-1.45273e-05
-6.47762e-06
-1.46241e-05
-6.32281e-06
-1.4434e-05
-6.11522e-06
-1.38555e-05
-5.72466e-06
-1.29326e-05
-5.11355e-06
-1.17641e-05
-4.38798e-06
-1.04381e-05
-3.38341e-06
-8.89115e-06
-2.18738e-06
-7.12713e-06
-1.18182e-06
-5.15579e-06
-5.34894e-07
-3.08651e-06
3.13992e-07
-1.04218e-06
1.07596e-06
7.68708e-07
1.72585e-06
2.30477e-06
2.51619e-06
2.69517e-06
3.59773e-06
-5.63405e-06
-8.05447e-06
-9.61132e-06
-3.06138e-06
-1.27059e-05
-1.64725e-06
-1.53866e-05
-1.60639e-06
-1.79271e-05
-2.29652e-06
-2.02311e-05
-3.04439e-06
-2.1802e-05
-4.31146e-06
-2.27053e-05
-5.58826e-06
-2.31062e-05
-6.07677e-06
-2.31816e-05
-6.24739e-06
-2.28321e-05
-6.46478e-06
-2.19685e-05
-6.58826e-06
-2.0712e-05
-6.37002e-06
-1.92086e-05
-5.89144e-06
-1.74793e-05
-5.11267e-06
-1.54636e-05
-4.20312e-06
-1.32524e-05
-3.39299e-06
-1.10857e-05
-2.70155e-06
-8.81644e-06
-1.95527e-06
-6.53631e-06
-1.20415e-06
-4.36815e-06
-4.42282e-07
-2.15371e-06
3.01764e-07
5.743e-07
-3.28563e-08
-7.78489e-06
-2.69696e-07
-1.18935e-05
1.04714e-06
-1.5704e-05
2.16319e-06
-1.93705e-05
2.06019e-06
-2.28166e-05
1.14953e-06
-2.54597e-05
-4.01294e-07
-2.71739e-05
-2.59724e-06
-2.8233e-05
-4.52916e-06
-2.87354e-05
-5.5744e-06
-2.87255e-05
-6.25726e-06
-2.82106e-05
-6.97964e-06
-2.72259e-05
-7.57298e-06
-2.58082e-05
-7.7877e-06
-2.40884e-05
-7.61125e-06
-2.20846e-05
-7.11651e-06
-1.98453e-05
-6.44234e-06
-1.74972e-05
-5.74107e-06
-1.51156e-05
-5.08312e-06
-1.26484e-05
-4.42254e-06
-1.01208e-05
-3.7317e-06
-7.59156e-06
-2.97149e-06
-5.05754e-06
-2.23224e-06
-1.79968e-06
-2.68355e-06
-3.97895e-06
3.70912e-06
-8.02448e-06
5.09262e-06
-1.35444e-05
7.68315e-06
-1.89116e-05
7.42752e-06
-2.3792e-05
6.02994e-06
-2.76927e-05
3.49954e-06
-2.98528e-05
-4.37173e-07
-3.10422e-05
-3.33975e-06
-3.16617e-05
-4.95498e-06
-3.1801e-05
-6.11805e-06
-3.13505e-05
-7.43016e-06
-3.03041e-05
-8.61939e-06
-2.88051e-05
-9.28682e-06
-2.69665e-05
-9.44983e-06
-2.48421e-05
-9.24103e-06
-2.24972e-05
-8.78732e-06
-2.00354e-05
-8.20287e-06
-1.75179e-05
-7.60069e-06
-1.49e-05
-7.04042e-06
-1.21668e-05
-6.46499e-06
-9.39058e-06
-5.74773e-06
-6.63881e-06
-4.98404e-06
-4.48868e-06
-3.94985e-06
3.26299e-06
4.46059e-07
1.71597e-06
6.63992e-06
-5.708e-06
1.51073e-05
-1.39543e-05
1.56738e-05
-2.13349e-05
1.34106e-05
-2.73435e-05
9.50811e-06
-2.98735e-05
2.09285e-06
-3.14438e-05
-1.76954e-06
-3.23603e-05
-4.03853e-06
-3.27982e-05
-5.68016e-06
-3.25271e-05
-7.70129e-06
-3.15922e-05
-9.55432e-06
-3.01583e-05
-1.07207e-05
-2.83375e-05
-1.12707e-05
-2.61882e-05
-1.13903e-05
-2.379e-05
-1.11856e-05
-2.1255e-05
-1.07379e-05
-1.86644e-05
-1.01913e-05
-1.59913e-05
-9.71355e-06
-1.32016e-05
-9.25462e-06
-1.03514e-05
-8.59796e-06
-7.54046e-06
-7.795e-06
-7.20015e-06
-4.82902e-06
1.34724e-05
-1.30265e-05
1.60805e-05
4.03196e-06
-3.23802e-07
3.15121e-05
-1.1785e-05
2.71353e-05
-1.86904e-05
2.03157e-05
-2.30406e-05
1.38583e-05
-2.71936e-05
6.2458e-06
-3.01416e-05
1.1784e-06
-3.1409e-05
-2.77122e-06
-3.15516e-05
-5.53748e-06
-3.13348e-05
-7.918e-06
-3.08886e-05
-1.00004e-05
-2.99726e-05
-1.16367e-05
-2.84847e-05
-1.27585e-05
-2.65428e-05
-1.33321e-05
-2.42763e-05
-1.3452e-05
-2.17773e-05
-1.32368e-05
-1.91373e-05
-1.28312e-05
-1.6473e-05
-1.23778e-05
-1.38144e-05
-1.19131e-05
-1.10235e-05
-1.13887e-05
-8.08561e-06
-1.07329e-05
-1.00758e-05
-5.20981e-06
-5.48139e-06
-7.54587e-06
-7.93459e-06
6.48544e-06
-5.06027e-06
2.86378e-05
-1.01805e-05
3.22545e-05
-1.52444e-05
2.53791e-05
-1.93488e-05
1.79625e-05
-2.2905e-05
9.80191e-06
-2.48009e-05
3.07444e-06
-2.52078e-05
-2.36403e-06
-2.46374e-05
-6.10754e-06
-2.39488e-05
-8.60615e-06
-2.33721e-05
-1.05766e-05
-2.28889e-05
-1.21194e-05
-2.24593e-05
-1.31876e-05
-2.20304e-05
-1.37605e-05
-2.15495e-05
-1.39323e-05
-2.0979e-05
-1.38069e-05
-2.03087e-05
-1.3501e-05
-1.95122e-05
-1.31739e-05
-1.84943e-05
-1.29306e-05
-1.71765e-05
-1.27062e-05
-1.55959e-05
-1.23131e-05
-1.14384e-05
-1.42334e-05
-6.70219e-06
-8.43816e-07
-1.33783e-05
1.31614e-05
-1.2128e-05
2.73869e-05
-1.032e-05
3.04458e-05
-1.19873e-05
2.70461e-05
-1.38759e-05
1.98509e-05
-1.5933e-05
1.1859e-05
-1.73972e-05
4.53866e-06
-1.79476e-05
-1.81341e-06
-1.77586e-05
-6.29626e-06
-1.74489e-05
-8.91558e-06
-1.74435e-05
-1.05817e-05
-1.77895e-05
-1.1773e-05
-1.83882e-05
-1.25885e-05
-1.91005e-05
-1.30478e-05
-1.98118e-05
-1.32206e-05
-2.04299e-05
-1.31884e-05
-2.08905e-05
-1.30401e-05
-2.11572e-05
-1.2907e-05
-2.11964e-05
-1.2891e-05
-2.09563e-05
-1.29459e-05
-2.04111e-05
-1.28583e-05
-1.21831e-05
-1.96664e-05
-5.99146e-06
5.14836e-06
-1.20375e-05
1.92075e-05
-1.19901e-05
2.73391e-05
-1.11871e-05
2.96429e-05
-1.01666e-05
2.60257e-05
-1.0042e-05
1.97263e-05
-1.0697e-05
1.25141e-05
-1.15649e-05
5.40662e-06
-1.21267e-05
-1.25163e-06
-1.24991e-05
-5.92384e-06
-1.28071e-05
-8.60752e-06
-1.34779e-05
-9.91073e-06
-1.44881e-05
-1.07627e-05
-1.56645e-05
-1.1412e-05
-1.68842e-05
-1.1828e-05
-1.80543e-05
-1.20504e-05
-1.91063e-05
-1.21363e-05
-1.99935e-05
-1.21528e-05
-2.07117e-05
-1.21887e-05
-2.1278e-05
-1.23247e-05
-2.16982e-05
-1.25256e-05
-2.19579e-05
-1.25985e-05
-1.21063e-05
-2.20349e-05
-8.27012e-06
1.34195e-05
-1.12812e-05
2.22192e-05
-1.09368e-05
2.69951e-05
-8.67854e-06
2.7385e-05
-6.71783e-06
2.40653e-05
-5.72264e-06
1.87313e-05
-5.68541e-06
1.24769e-05
-6.32696e-06
6.04822e-06
-7.29571e-06
-2.8286e-07
-8.35083e-06
-4.86871e-06
-9.35724e-06
-7.60109e-06
-1.05526e-05
-8.71538e-06
-1.19578e-05
-9.35742e-06
-1.33936e-05
-9.97623e-06
-1.47781e-05
-1.04434e-05
-1.60568e-05
-1.07716e-05
-1.72029e-05
-1.09902e-05
-1.8204e-05
-1.11516e-05
-1.9079e-05
-1.13136e-05
-1.98734e-05
-1.15301e-05
-2.06163e-05
-1.17827e-05
-2.12854e-05
-1.19295e-05
-1.1597e-05
-2.17948e-05
-6.24852e-06
1.96686e-05
-7.92611e-06
2.38973e-05
-6.86697e-06
2.59363e-05
-4.72607e-06
2.52445e-05
-2.76984e-06
2.21093e-05
-1.56003e-06
1.75217e-05
-1.27291e-06
1.21899e-05
-1.83134e-06
6.60672e-06
-3.20528e-06
1.09113e-06
-4.76897e-06
-3.30498e-06
-6.3948e-06
-5.97523e-06
-7.99333e-06
-7.1168e-06
-9.53798e-06
-7.81272e-06
-1.10301e-05
-8.48406e-06
-1.24219e-05
-9.05148e-06
-1.36952e-05
-9.4983e-06
-1.48457e-05
-9.8396e-06
-1.5881e-05
-1.01164e-05
-1.68297e-05
-1.03648e-05
-1.77349e-05
-1.06249e-05
-1.86253e-05
-1.08922e-05
-1.947e-05
-1.10848e-05
-1.08928e-05
-2.01745e-05
-3.63004e-06
2.32992e-05
-4.18452e-06
2.44521e-05
-2.86311e-06
2.46152e-05
-8.4703e-07
2.32286e-05
9.36004e-07
2.03265e-05
2.04951e-06
1.64083e-05
2.34173e-06
1.18978e-05
1.79156e-06
7.15697e-06
3.48926e-07
2.53384e-06
-1.55409e-06
-1.40189e-06
-3.55334e-06
-3.9759e-06
-5.35907e-06
-5.31099e-06
-6.94929e-06
-6.22241e-06
-8.42221e-06
-7.01104e-06
-9.78956e-06
-7.68403e-06
-1.10496e-05
-8.23821e-06
-1.22023e-05
-8.68677e-06
-1.32648e-05
-9.05392e-06
-1.42614e-05
-9.36812e-06
-1.52262e-05
-9.65999e-06
-1.61729e-05
-9.94553e-06
-1.70688e-05
-1.0189e-05
-1.0106e-05
-1.78558e-05
-1.36212e-06
2.46615e-05
-9.37849e-07
2.40281e-05
5.22328e-07
2.31552e-05
2.31288e-06
2.14382e-05
3.83021e-06
1.88093e-05
4.76619e-06
1.54724e-05
4.98092e-06
1.16832e-05
4.42887e-06
7.70912e-06
3.12304e-06
3.83975e-06
1.22882e-06
4.92427e-07
-8.09199e-07
-1.93778e-06
-2.61845e-06
-3.50162e-06
-4.21507e-06
-4.62568e-06
-5.67036e-06
-5.55563e-06
-7.01931e-06
-6.33496e-06
-8.27104e-06
-6.98637e-06
-9.43097e-06
-7.52675e-06
-1.05139e-05
-7.97099e-06
-1.15389e-05
-8.34299e-06
-1.25228e-05
-8.67601e-06
-1.34731e-05
-8.99523e-06
-1.43634e-05
-9.29854e-06
-9.32035e-06
-1.51494e-05
2.49141e-07
2.44127e-05
1.31932e-06
2.29581e-05
2.8587e-06
2.16159e-05
4.44321e-06
1.98538e-05
5.72874e-06
1.75238e-05
6.50744e-06
1.46938e-05
6.67161e-06
1.15191e-05
6.18107e-06
8.19975e-06
5.05269e-06
4.96823e-06
3.43776e-06
2.10746e-06
1.65189e-06
-1.51788e-07
-3.77863e-08
-1.81181e-06
-1.57131e-06
-3.09202e-06
-2.98493e-06
-4.14188e-06
-4.30012e-06
-5.01964e-06
-5.52746e-06
-5.75892e-06
-6.67733e-06
-6.37679e-06
-7.75835e-06
-6.8899e-06
-8.77955e-06
-7.32175e-06
-9.75129e-06
-7.70417e-06
-1.06708e-05
-8.07566e-06
-1.15175e-05
-8.45194e-06
-8.56161e-06
-1.22764e-05
1.1638e-06
2.32489e-05
2.58195e-06
2.154e-05
4.11203e-06
2.00859e-05
5.5386e-06
1.84273e-05
6.66886e-06
1.63936e-05
7.36548e-06
1.39972e-05
7.54769e-06
1.1337e-05
7.18781e-06
8.55971e-06
6.3141e-06
5.84204e-06
5.04609e-06
3.37558e-06
3.58783e-06
1.3066e-06
2.1317e-06
-3.55549e-07
7.46258e-07
-1.70645e-06
-5.63745e-07
-2.83174e-06
-1.80037e-06
-3.78288e-06
-2.96884e-06
-4.59033e-06
-4.07272e-06
-5.27281e-06
-5.11549e-06
-5.84708e-06
-6.09953e-06
-6.33764e-06
-7.02467e-06
-6.77894e-06
-7.88934e-06
-7.211e-06
-8.68027e-06
-7.66087e-06
-7.85939e-06
-9.38278e-06
1.49163e-06
2.17576e-05
3.00586e-06
2.0026e-05
4.47867e-06
1.86132e-05
5.79624e-06
1.71098e-05
6.84237e-06
1.53476e-05
7.52416e-06
1.33155e-05
7.78319e-06
1.1078e-05
7.60076e-06
8.74224e-06
7.00493e-06
6.43797e-06
6.08266e-06
4.29797e-06
4.96989e-06
2.41949e-06
3.79173e-06
8.22752e-07
2.61647e-06
-5.31045e-07
1.4702e-06
-1.68533e-06
3.62802e-07
-2.67535e-06
-7.01174e-07
-3.52624e-06
-1.71842e-06
-4.25548e-06
-2.68461e-06
-4.88083e-06
-3.59585e-06
-5.42636e-06
-4.4509e-06
-5.9238e-06
-5.2423e-06
-6.41951e-06
-5.96103e-06
-6.94237e-06
-7.20658e-06
-6.61398e-06
1.45016e-06
2.03076e-05
2.89543e-06
1.85809e-05
4.26996e-06
1.72388e-05
5.49822e-06
1.58816e-05
6.49918e-06
1.43467e-05
7.20375e-06
1.2611e-05
7.56649e-06
1.07153e-05
7.57256e-06
8.73627e-06
7.24311e-06
6.76753e-06
6.63887e-06
4.90232e-06
5.84883e-06
3.20966e-06
4.9576e-06
1.71411e-06
4.0224e-06
4.04302e-07
3.07567e-06
-7.38464e-07
2.13572e-06
-1.73528e-06
1.21418e-06
-2.60458e-06
3.20358e-07
-3.36157e-06
-5.37233e-07
-4.02319e-06
-1.35126e-06
-4.61228e-06
-2.11304e-06
-5.16195e-06
-2.81918e-06
-5.71343e-06
-3.46254e-06
-6.29887e-06
-6.62312e-06
-4.04631e-06
1.24009e-06
1.9068e-05
2.52702e-06
1.72942e-05
3.77362e-06
1.59924e-05
4.91348e-06
1.47419e-05
5.87946e-06
1.33808e-05
6.61382e-06
1.18768e-05
7.07724e-06
1.0252e-05
7.25469e-06
8.55892e-06
7.15864e-06
6.86369e-06
6.82894e-06
5.23215e-06
6.32396e-06
3.71478e-06
5.70199e-06
2.33622e-06
5.00788e-06
1.09855e-06
4.27367e-06
-4.12119e-09
3.51929e-06
-9.80771e-07
2.76087e-06
-1.84605e-06
2.01167e-06
-2.61229e-06
1.28348e-06
-3.29494e-06
5.86929e-07
-3.91569e-06
-7.19842e-08
-4.50296e-06
-6.87241e-07
-5.09808e-06
-1.25462e-06
-5.73172e-06
-6.1099e-06
-1.76793e-06
9.91352e-07
1.80766e-05
2.09131e-06
1.61944e-05
3.19757e-06
1.48863e-05
4.24471e-06
1.36948e-05
5.1709e-06
1.24547e-05
5.92378e-06
1.1124e-05
6.46665e-06
9.70925e-06
6.78252e-06
8.24318e-06
6.87571e-06
6.77061e-06
6.77051e-06
5.33748e-06
6.50461e-06
3.98081e-06
6.11836e-06
2.7226e-06
5.64627e-06
1.57079e-06
5.11643e-06
5.2585e-07
4.54814e-06
-4.1235e-07
3.95778e-06
-1.25559e-06
3.3605e-06
-2.01492e-06
2.76921e-06
-2.7036e-06
2.19449e-06
-3.34092e-06
1.64687e-06
-3.95526e-06
1.13052e-06
-4.58177e-06
6.50064e-07
-5.25108e-06
-5.66316e-06
2.03044e-07
7.71316e-07
1.73059e-05
1.69614e-06
1.52699e-05
2.66825e-06
1.39144e-05
3.62232e-06
1.27409e-05
4.50045e-06
1.15767e-05
5.25411e-06
1.03704e-05
5.84828e-06
9.1152e-06
6.26406e-06
7.82752e-06
6.4994e-06
6.53539e-06
6.56746e-06
5.26955e-06
6.49197e-06
4.05644e-06
6.3006e-06
2.91411e-06
6.01948e-06
1.85204e-06
5.67128e-06
8.74187e-07
5.27443e-06
-1.53817e-08
4.84318e-06
-8.24234e-07
4.39231e-06
-1.56397e-06
3.93485e-06
-2.24609e-06
3.48202e-06
-2.88806e-06
3.04004e-06
-3.51321e-06
2.6171e-06
-4.15874e-06
2.21675e-06
-4.85103e-06
-5.26868e-06
1.82217e-06
6.09573e-07
1.66965e-05
1.39333e-06
1.44864e-05
2.24982e-06
1.30581e-05
3.11716e-06
1.18738e-05
3.94195e-06
1.07521e-05
4.67979e-06
9.63272e-06
5.29784e-06
8.49728e-06
5.77645e-06
7.34904e-06
6.10938e-06
6.20259e-06
6.30233e-06
5.07673e-06
6.36968e-06
3.98924e-06
6.33016e-06
2.95376e-06
6.20316e-06
1.97918e-06
6.00659e-06
1.07088e-06
5.75669e-06
2.34631e-07
5.46552e-06
-5.3296e-07
5.1463e-06
-1.24467e-06
4.81063e-06
-1.91038e-06
4.46754e-06
-2.54493e-06
4.12661e-06
-3.17222e-06
3.78932e-06
-3.82157e-06
3.45706e-06
-4.51859e-06
-4.94126e-06
3.12931e-06
5.12368e-07
1.61848e-05
1.19828e-06
1.38008e-05
1.96591e-06
1.22907e-05
2.75876e-06
1.10811e-05
3.52961e-06
9.98139e-06
4.23935e-06
8.92313e-06
4.85839e-06
7.87837e-06
5.36784e-06
6.83973e-06
5.75942e-06
5.81114e-06
6.03435e-06
4.80193e-06
6.20101e-06
3.82271e-06
6.27203e-06
2.88288e-06
6.26163e-06
1.98971e-06
6.18382e-06
1.14881e-06
6.0517e-06
3.6686e-07
5.87597e-06
-3.57131e-07
5.66742e-06
-1.03605e-06
5.43603e-06
-1.67895e-06
5.19046e-06
-2.29935e-06
4.93418e-06
-2.9159e-06
4.67297e-06
-3.56029e-06
4.40814e-06
-4.2541e-06
-4.65979e-06
4.12661e-06
4.76807e-07
1.57081e-05
1.10851e-06
1.31694e-05
1.81548e-06
1.1584e-05
2.54932e-06
1.03475e-05
3.26991e-06
9.26098e-06
3.94425e-06
8.24894e-06
4.54717e-06
7.2756e-06
5.06193e-06
6.32511e-06
5.48015e-06
5.39306e-06
5.80091e-06
4.48131e-06
6.0291e-06
3.59465e-06
6.17342e-06
2.73869e-06
6.2444e-06
1.91886e-06
6.25292e-06
1.14041e-06
6.20906e-06
4.1083e-07
6.12236e-06
-2.70348e-07
6.00162e-06
-9.15243e-07
5.85457e-06
-1.53188e-06
5.68695e-06
-2.1317e-06
5.50483e-06
-2.73376e-06
5.30727e-06
-3.36283e-06
5.09331e-06
-4.03992e-06
-4.43329e-06
4.86649e-06
4.93227e-07
1.52157e-05
1.10989e-06
1.25532e-05
1.78389e-06
1.09103e-05
2.47517e-06
9.65641e-06
3.15174e-06
8.58459e-06
3.78751e-06
7.61333e-06
4.36257e-06
6.70069e-06
4.8635e-06
5.82432e-06
5.28332e-06
4.97338e-06
5.62078e-06
4.14398e-06
5.87919e-06
3.33636e-06
6.06499e-06
2.55301e-06
6.18629e-06
1.79767e-06
6.25164e-06
1.07518e-06
6.26864e-06
3.93922e-07
6.24584e-06
-2.47465e-07
6.19015e-06
-8.59501e-07
6.10762e-06
-1.44932e-06
6.00305e-06
-2.02714e-06
5.8766e-06
-2.60727e-06
5.73078e-06
-3.21694e-06
5.56389e-06
-3.87344e-06
-4.23278e-06
5.36331e-06
5.51594e-07
1.46642e-05
1.18546e-06
1.19196e-05
1.84964e-06
1.02464e-05
2.51363e-06
8.99265e-06
3.15358e-06
7.94483e-06
3.75054e-06
7.01653e-06
4.29039e-06
6.16099e-06
4.76391e-06
5.35094e-06
5.16662e-06
4.5708e-06
5.49827e-06
3.81246e-06
5.76201e-06
3.07275e-06
5.96333e-06
2.35181e-06
6.10897e-06
1.65213e-06
6.2059e-06
9.78347e-07
6.26001e-06
3.39891e-07
6.27885e-06
-2.66235e-07
6.26799e-06
-8.48595e-07
6.23138e-06
-1.41269e-06
6.17085e-06
-1.9666e-06
6.08952e-06
-2.52593e-06
5.98268e-06
-3.11028e-06
5.8464e-06
-3.73693e-06
-4.06954e-06
5.68278e-06
6.40306e-07
1.40247e-05
1.31615e-06
1.12442e-05
1.98968e-06
9.57315e-06
2.63937e-06
8.34317e-06
3.2497e-06
7.33468e-06
3.80904e-06
6.45734e-06
4.30939e-06
5.66078e-06
4.74622e-06
4.91424e-06
5.11833e-06
4.19881e-06
5.42741e-06
3.50349e-06
5.67746e-06
2.8228e-06
5.87402e-06
2.15535e-06
6.02333e-06
1.50291e-06
6.1313e-06
8.70455e-07
6.20309e-06
2.6817e-07
6.24517e-06
-3.0826e-07
6.26168e-06
-8.65078e-07
6.255e-06
-1.406e-06
6.22662e-06
-1.93824e-06
6.17328e-06
-2.47258e-06
6.09478e-06
-3.0317e-06
5.98704e-06
-3.62961e-06
-3.92029e-06
5.83775e-06
7.51192e-07
1.32734e-05
1.4866e-06
1.0509e-05
2.18278e-06
8.87716e-06
2.8279e-06
7.69822e-06
3.41427e-06
6.74846e-06
3.93747e-06
5.93427e-06
4.39574e-06
5.20263e-06
4.78959e-06
4.52049e-06
5.12159e-06
3.86691e-06
5.39597e-06
3.22919e-06
5.61828e-06
2.60058e-06
5.79482e-06
1.97888e-06
5.93201e-06
1.3658e-06
6.03516e-06
7.67364e-07
6.1096e-06
1.93778e-07
6.16055e-06
-3.59185e-07
6.19092e-06
-8.95435e-07
6.20134e-06
-1.41644e-06
6.19051e-06
-1.92743e-06
6.158e-06
-2.44008e-06
6.09703e-06
-2.9709e-06
6.0016e-06
-3.53392e-06
-3.79467e-06
5.87566e-06
8.76998e-07
1.23971e-05
1.68397e-06
9.70228e-06
2.41242e-06
8.14888e-06
3.05932e-06
7.05145e-06
3.62505e-06
6.18283e-06
4.1126e-06
5.44681e-06
4.52661e-06
4.78871e-06
4.87285e-06
4.17432e-06
5.15789e-06
3.58194e-06
5.38887e-06
2.99827e-06
5.57327e-06
2.41622e-06
5.71865e-06
1.83355e-06
5.83208e-06
1.2524e-06
5.91891e-06
6.80565e-07
5.98501e-06
1.27701e-07
6.03438e-06
-4.08555e-07
6.06835e-06
-9.29418e-07
6.08623e-06
-1.43435e-06
6.08605e-06
-1.9273e-06
6.06174e-06
-2.4158e-06
6.01003e-06
-2.91915e-06
5.92445e-06
-3.44883e-06
-3.66478e-06
5.79445e-06
1.01511e-06
1.13817e-05
1.90231e-06
8.81507e-06
2.66829e-06
7.38294e-06
3.31965e-06
6.40014e-06
3.86514e-06
5.63738e-06
4.31558e-06
4.99641e-06
4.68243e-06
4.42189e-06
4.9769e-06
3.87987e-06
5.20968e-06
3.34918e-06
5.39086e-06
2.8171e-06
5.53003e-06
2.27706e-06
5.6362e-06
1.72738e-06
5.71755e-06
1.17104e-06
5.78021e-06
6.17896e-07
5.83037e-06
7.75186e-08
5.87101e-06
-4.49225e-07
5.90185e-06
-9.60309e-07
5.92013e-06
-1.4527e-06
5.92092e-06
-1.92817e-06
5.90097e-06
-2.39592e-06
5.85047e-06
-2.86893e-06
5.76097e-06
-3.35919e-06
-3.54315e-06
5.63891e-06
1.16561e-06
1.02164e-05
2.14141e-06
7.83926e-06
2.94819e-06
6.57612e-06
3.60271e-06
5.74558e-06
4.12419e-06
5.11587e-06
4.53294e-06
4.58764e-06
4.84796e-06
4.10685e-06
5.08608e-06
3.64172e-06
5.26195e-06
3.17328e-06
5.38839e-06
2.69063e-06
5.47689e-06
2.18852e-06
5.53801e-06
1.66623e-06
5.58132e-06
1.12769e-06
5.61447e-06
5.84697e-07
5.64388e-06
4.80473e-08
5.67157e-06
-4.76978e-07
5.69503e-06
-9.83852e-07
5.7091e-06
-1.46687e-06
5.70803e-06
-1.92721e-06
5.68268e-06
-2.37071e-06
5.6277e-06
-2.81399e-06
5.53535e-06
-3.26738e-06
-3.40982e-06
5.40186e-06
1.33559e-06
8.8801e-06
2.4107e-06
6.76383e-06
3.25797e-06
5.72868e-06
3.90878e-06
5.09464e-06
4.39717e-06
4.6274e-06
4.75565e-06
4.22908e-06
5.01188e-06
3.85054e-06
5.18829e-06
3.46523e-06
5.30292e-06
3.05857e-06
5.37064e-06
2.62284e-06
5.40432e-06
2.15476e-06
5.41586e-06
1.65461e-06
5.41654e-06
1.12693e-06
5.41627e-06
5.84878e-07
5.42221e-06
4.20247e-08
5.43519e-06
-4.90062e-07
5.44966e-06
-9.98438e-07
5.4568e-06
-1.47413e-06
5.44733e-06
-1.91789e-06
5.41511e-06
-2.33861e-06
5.34977e-06
-2.74895e-06
5.24296e-06
-3.16048e-06
-3.27655e-06
5.10926e-06
1.53759e-06
7.34242e-06
2.72697e-06
5.57416e-06
3.61024e-06
4.84516e-06
4.24236e-06
4.46233e-06
4.68143e-06
4.18817e-06
4.97661e-06
3.93377e-06
5.16511e-06
3.66193e-06
5.27418e-06
3.35605e-06
5.32397e-06
3.00867e-06
5.33006e-06
2.61664e-06
5.30574e-06
2.17898e-06
5.26377e-06
1.69647e-06
5.21749e-06
1.1731e-06
5.18031e-06
6.21944e-07
5.1612e-06
6.10225e-08
5.15976e-06
-4.88748e-07
5.16501e-06
-1.00383e-06
5.16312e-06
-1.4724e-06
5.14332e-06
-1.89826e-06
5.09575e-06
-2.2912e-06
5.01507e-06
-2.66838e-06
4.89514e-06
-3.04117e-06
-3.12086e-06
4.73921e-06
1.79275e-06
5.54875e-06
3.11363e-06
4.25274e-06
4.01808e-06
3.94034e-06
4.6045e-06
3.87565e-06
4.97038e-06
3.82209e-06
5.18619e-06
3.71778e-06
5.29807e-06
3.54989e-06
5.33583e-06
3.31814e-06
5.31929e-06
3.02507e-06
5.26272e-06
2.67308e-06
5.17828e-06
2.26328e-06
5.07893e-06
1.79568e-06
4.98045e-06
1.27144e-06
4.90161e-06
7.00649e-07
4.85605e-06
1.06425e-07
4.84158e-06
-4.74435e-07
4.83777e-06
-1.00019e-06
4.82335e-06
-1.45816e-06
4.7844e-06
-1.85951e-06
4.71722e-06
-2.22422e-06
4.61455e-06
-2.5661e-06
4.47209e-06
-2.89872e-06
-2.95828e-06
4.30899e-06
2.12681e-06
3.42155e-06
3.58947e-06
2.78955e-06
4.48232e-06
3.04713e-06
4.9806e-06
3.37709e-06
5.24435e-06
3.55812e-06
5.36675e-06
3.59519e-06
5.39802e-06
3.51844e-06
5.36579e-06
3.3502e-06
5.28598e-06
3.10472e-06
5.16893e-06