/*--------------------------------*- C++ -*----------------------------------*\
  =========                 |
  \\      /  F ield         | OpenFOAM: The Open Source CFD Toolbox
   \\    /   O peration     | Website:  https://openfoam.org
    \\  /    A nd           | Version:  13
     \\/     M anipulation  |
\*---------------------------------------------------------------------------*/
FoamFile
{
    format      ascii;
    class       volScalarField;
    location    "2.4";
    object      rho;
}
// * * * * * * * * * * * * * * * * * * * * * * * * * * * * * * * * * * * * * //

dimensions      [1 -3 0 0 0 0 0];

internalField   nonuniform List<scalar> 
2268
(
13529
13529
13529
13529
13529
13529
13529
13529
13529
13529
13529
13529
13529
13529
13529
13529
13529
13529
13529
13528.8
13523.9
13521.6
13521.6
13529
13529
13529
13529
13529
13529
13529
13529
13529
13529
13529
13529
13529
13529
13529
13529
13529
13529
13529
13528.9
13528.6
13527.7
13524.6
13529
13529
13529
13529
13529
13529
13529
13529
13529
13529
13529
13529
13529
13529
13529
13529
13529
13529
13529
13529
13529
13529
13529
13529
13529
13529
13529
13529
13529
13529
13529
13529
13529
13529
13529
13529
13529
13529
13529
13529
13529
13529
13529
13529
13529
13529
13529
13529
13529
13529
13529
13529
13529
13529
13529
13529
13529
13529
13529
13529
13529
13529
13529
13529
13529
13529
13529
13529
13529
11219.7
11554
11777.5
11949.7
12173.9
12454.6
12756.6
13036.9
13260.8
13411.7
13492.7
13523.9
13529
13529
13529
13529
13529
13529
13529
13529
13529
13529
13527.3
1743.75
2090.46
2332.61
2516.62
2767.09
3147.84
3681.04
4365.77
5182.83
6088.34
7002.98
7836.12
8449.52
8798.43
9027.44
9111.65
9067.42
8929.16
8757.56
8619.88
8598.98
9125.46
10676.3
1000
1000
1000
999.999
999.998
999.999
1000
1000
1000
1000
1000
1000
1048.05
1195.02
1251.63
1263.86
1241.96
1201.46
1162.04
1131.84
1124.54
1210.28
1752.21
11608.5
11756.9
11929.9
11953.6
11953.9
11943.3
11765.1
8843.87
8751.05
8785
8725.82
8460.35
8481.96
9356.63
10326.1
10343.8
10318.6
10288.2
10294.1
7123.18
6995.26
7309.45
7957.14
8443.32
10527.3
10980.2
11293
11267.9
11297.7
11264.5
10278.5
9718.99
10293.7
10308.8
10313.9
10295.4
10288.9
10292.7
2557.07
2558.33
2409.59
2350.1
3587.38
4912.94
6368.43
7605.29
8644.42
10693.2
10676
10549.6
10109
9883.09
10079.4
10155.9
10003.2
8739.09
7948.95
2653.7
2767.4
2810.84
2787.74
2226.84
1216.89
1654.38
2405.05
3192.61
3466.24
4909.61
5196.6
4974.9
4594.28
4671.35
4041.58
3829.37
4855.19
5823.86
2136.18
2212.36
2231.82
2588
2316.04
1054.47
1049.9
1134.54
1519.37
1089.4
902.123
2626.82
3456.61
3154
1890.51
1309.86
859.763
678.179
1049.46
1119.9
1288.61
1841.67
1767.06
2105.99
1792.24
1470.11
1513.44
1795.02
1098.91
979.42
406.632
779.593
1068.02
704.32
820.785
940.802
930.725
447.229
1014.83
943.019
943.513
1142.54
1639.97
1864.35
1822.34
1805.4
1442.57
1083.51
1005.38
795.545
291.134
316.358
761.058
983.122
999.875
997.835
606.979
1397.34
1040.55
961.443
994.409
979.968
1651.58
1629.33
1149.44
1007.63
1010.4
1003.84
988.97
705.704
696.456
954.167
999.875
999.921
985.702
796.373
1000
1000
1000
999.999
999.995
999.999
1000
1000
1000
1000
1000
1000
1000
1000
1000
1000
1000
1000
999.996
999.989
1000.04
1000.23
1000.41
1000
1000
999.598
999.742
999.971
1000
1000
1000
1000
1000
1000
1000
1000
1000
1000
1000
1000
1000
1000
1000
999.337
999.099
994.652
999.613
997.023
997.656
999.537
999.99
1000
1000
1000
1000
1000
1000
999.851
998.078
997.201
999.384
997.128
995.014
989.232
954.644
905.369
897.842
875.251
881.195
917.448
972.567
981.424
970.214
967.074
968.063
928.224
908.718
900.639
891.395
880.452
861.765
832.263
809.985
786.443
747.154
704.004
657.615
621.43
591.121
560.366
511.789
461.997
812.133
748.907
668.826
630.607
631.471
615.042
572.646
538.145
495.622
472.479
452.156
431.68
428.525
437.126
441.216
432.444
438.347
482.818
489.537
490.619
494.088
463.143
452.812
560.77
500.181
499.796
499.342
487.102
450.744
457.752
491.569
491.074
481.601
487.501
499.999
500
499.995
494.615
492.79
496.293
499.827
499.974
499.706
497.205
494.626
498.815
489.059
500.513
500.086
500.013
500
499.993
500
500
500
500
500
500
500
500
500
500
500
500
499.975
499.975
500.001
500.011
500.013
494.147
500.725
500.013
493.43
484.629
465.808
458.952
471.197
473.806
475.371
479.993
486.449
491.711
495.031
497.219
498.55
499.242
499.654
499.91
500
500
500
500.001
492.321
411.998
267.36
167.23
115.291
99.9306
125.044
129.741
125.309
123.759
138.571
162.391
184.598
203.739
221.942
238.627
251.86
263.427
277.89
292.429
299.142
297.016
295.923
167.522
101.393
8.58644
1.00186
1.00165
1.00059
1.00032
1.00011
1.00008
1.00005
1.00003
1.00002
1.00003
1.00006
1.00009
1.00006
1
1
1
1
1.00001
1.00001
1.00003
1.00249
1.00206
1.00477
1.00463
1.00117
1.00032
1.00015
1.00009
1.00001
1
1
1
1.00002
1.00001
1.00001
1.00001
1.00001
1.00001
1.00001
1.00001
1.00002
1.00003
1.00008
1.0006
1.0017
1.00352
1.00783
1.02158
1.00287
1.00007
1.00036
1.00714
1.01892
1.00114
1.00035
1.00011
1.00006
1.00005
1.00006
1.00006
1.00005
1.00005
1.00005
1.00004
1.00004
1.00008
1.00056
1.00103
1.00388
1.03313
1.03322
1.01398
1.00026
1.00641
1.06221
1.08407
1.03332
1.00301
1.00055
1.00023
1.00026
1.00028
1.00019
1.00012
1.00009
1.00008
1.00006
1.00005
1.00005
1.00061
1.00067
1.00448
1.0306
1.03271
1.0076
1.00009
1.00486
1.0817
1.08362
1.08477
1.02941
1.00202
1.00116
1.00109
1.0009
1.0004
1.00019
1.00013
1.00011
1.00009
1.00005
1.00004
1.00056
1.00091
1.0021
1.00685
1.00487
1.00023
1.00003
1.00023
1.05118
1.08209
1.08403
1.03791
1.00316
1.00308
1.00251
1.00188
1.00053
1.0002
1.00015
1.00012
1.0001
1.00007
1.00004
1.00044
1.00085
1.00115
1.00004
1.00003
1.00003
1.00003
1.00003
1.00265
1.0437
1.04586
1.00806
1.00313
1.00317
1.00316
1.00251
1.00059
1.00019
1.00016
1.00012
1.00011
1.00007
1.00005
1.00024
1.0005
1.00052
1.00007
1.00003
1.00004
1.00004
1.00006
1.00019
1.0008
1.00009
1.00018
1.00133
1.00302
1.00205
1.00039
1.00029
1.00017
1.00012
1.00009
1.00008
1.00008
1.00005
1.00018
1.00026
1.00021
1.00008
1.00005
1.00005
1.00005
1.00007
1.00005
1.00009
1.00008
1.00014
1.00084
1.0009
1.00027
1.00013
1.00007
1.0001
1.00008
1.00006
1.00006
1.00004
1.00004
1.00012
1.00013
1.0001
1.00006
1.00005
1.00004
1.00004
1.00005
1.00002
1.00002
1.00002
1.00026
1.0005
1.00046
1.00012
1.00005
1.00004
1.00004
1.00004
1.00003
1.00003
1.00003
1.00002
1.00006
1.00007
1.00006
1.00004
1.00004
1.00003
1.00003
1.00003
1.00002
1.00002
1.00002
1.00015
1.00032
1.00019
1.00005
1.00003
1.00002
1.00002
1.00002
1.00002
1.00002
1.00001
1.00001
1.00005
1.00005
1.00005
1.00004
1.00003
1.00002
1.00002
1.00002
1.00001
1.00002
1.00003
1.00005
1.00007
1.00005
1.00003
1.00002
1.00001
1.00001
1.00001
1.00001
1.00001
1.00001
1.00001
1.00004
1.00005
1.00004
1.00003
1.00002
1.00002
1.00001
1.00001
1.00001
1.00001
1.00002
1.00002
1.00002
1.00001
1.00001
1.00001
1.00001
1.00001
1.00001
1.00001
1
1
1
1.00004
1.00004
1.00003
1.00003
1.00002
1.00001
1.00001
1.00001
1.00001
1.00001
1.00001
1.00001
1.00001
1.00001
1.00001
1
1
1
1
1
1
1
1
1.00003
1.00003
1.00003
1.00002
1.00002
1.00001
1.00001
1.00001
1
1
1
1
1
1
1
1
1
1
1
1
1
1
1
1.00003
1.00003
1.00002
1.00002
1.00001
1.00001
1.00001
1
1
1
1
1
1
1
1
1
1
1
1
1
1
1
1
1.00003
1.00002
1.00002
1.00001
1.00001
1.00001
1.00001
1
1
1
1
1
1
1
1
1
1
1
1
1
1
1
1
1.00002
1.00002
1.00001
1.00001
1.00001
1.00001
1
1
1
1
1
1
1
1
1
1
1
1
1
1
1
1
1
1.00002
1.00001
1.00001
1.00001
1
1
1
1
1
1
1
1
1
1
1
1
1
1
1
1
1
1
1
1.00001
1.00001
1.00001
1
1
1
1
1
1
1
1
1
1
1
1
1
1
1
1
1
1
1
1
1.00001
1.00001
1
1
1
1
1
1
1
1
1
1
1
1
1
1
1
1
1
1
1
1
1
1.00001
1
1
1
1
1
1
1
1
1
1
1
1
1
1
1
1
1
1
1
1
1
1
1.00001
1
1
1
1
1
1
1
1
1
1
1
1
1
1
1
1
1
1
1
1
1
1
1
1
1
1
1
1
1
1
1
1
1
1
1
1
1
1
1
1
1
1
1
1
1
1
1
1
1
1
1
1
1
1
1
1
1
1
1
1
1
1
1
1
1
1
1
1
1
1
1
1
1
1
1
1
1
1
1
1
1
1
1
1
1
1
1
1
1
1
1
1
1
1
1
1
1
1
1
1
1
1
1
1
1
1
1
1
1
1
1
1
1
1
1
1
1
1
1
1
1
1
1
1
1
1
1
1
1
1
1
1
1
1
1
1
1
1
1
1
1
1
1
1
1
1
1
1
1
1
1
1
1
1
1
1
1
1
1
1
1
1
1
1
1
1
1
1
1
1
1
1
1
1
1
1
1
1
1
1
1
1
1
1
1
1
1
1
1
1
1
1
1
1
1
1
1
1
1
1
1
1
1
1
1
1
1
1
1
1
1
1
1
1
1
1
1
1
1
1
1
1
1
1
1
1
1
1
1
1
1
1
1
1
1
1
1
1
1
1
1
1
1
1
1
1
1
1
1
1
1
1
1000.11
1000
999.906
1266.82
995.856
998.808
999.811
908.712
827.207
643.38
474.181
452.903
445.708
451.958
476.001
479.439
482.762
502.727
502.8
502.425
500.277
500.204
500.008
500.003
500
500
500.006
500.009
500.002
500.002
499.956
499.842
299.564
291.745
284.686
276.028
1.00005
1.00005
1.00006
1.00006
1.00012
1.00014
1.00015
1.00014
1.00015
1.00015
1.00015
1.00015
1.00009
1.0001
1.00011
1.00011
1.00005
1.00005
1.00006
1.00007
1.00004
1.00003
1.00004
1.00004
1.00003
1.00003
1.00003
1.00003
1.00003
1.00002
1.00002
1.00002
1.00003
1.00002
1.00002
1.00002
1.00002
1.00001
1.00001
1.00001
1.00001
1.00001
1.00001
1.00001
1.00001
1.00001
1
1
1
1
1
1
1
1
1
1
1
1
1
1
1
1
1
1
1
1
1
1
1
1
1
1
1
1
1
1
1
1
1
1
1
1
1
1
1
1
1
1
1
1
1
1
1
1
1
1
1
1
1
1
1
1
1
1
1
1
1
1
1
1
1
1
1
1
1
1
1
1
1
1
1
1
1
1
1
1
1
1
1
1
1
1
1270.89
1030.29
902.805
940.826
984.249
924.126
942.048
998.101
997.794
1000.08
1001.16
1000.87
995.637
991.963
999.957
1000.11
999.45
982.567
877.136
693.207
785.376
787.214
736.816
639.954
685.788
829.821
897.675
934.433
977.017
999.61
999.82
1000.13
999.826
998.478
988.4
975.267
950.435
954.002
488.394
489.954
520.577
490.075
449.902
530.211
516.915
542.471
562.57
601.849
652.148
706.152
747.697
749.898
725.753
691.519
659.988
642.021
616.431
491.368
499.581
499.665
495.191
470.803
447.079
477.994
499.582
500.16
500.065
500.005
500.023
501.079
501.562
501.637
500.831
501.923
526.015
570.919
500.478
499.929
499.668
498.197
498.214
499.493
499.999
500
500.028
500.029
500.006
500.005
500.015
500.031
500.087
500.106
500.479
501.794
506.893
500.003
499.986
499.933
500.02
500.013
500.001
500
500
500
500
500
500.001
500.001
500.001
500.002
500.003
500.004
500.454
501.941
500.002
500.001
500.002
500.002
500.001
500
500
500
500
500
500.001
500.019
500.419
502.994
502.371
492.456
476.376
478.499
491.476
499.473
499.13
499.298
499.655
499.878
499.952
491.558
475.029
453.602
427.778
395.763
346.926
269.025
206.055
153.526
125.303
113.651
127.412
189.161
261.188
249.873
238.779
225.19
205.408
174.959
143.097
110.473
77.3931
45.738
17.7864
4.70882
11.5345
14.0852
12.3506
8.32148
7.69689
9.18589
12.196
1.00007
1.00009
1.00039
1.00154
1.00386
1.0206
1.07063
1.16262
1.74482
2.93241
3.03806
2.33636
1.21862
1.13154
1.00988
1.01032
1.01713
1.02063
1.00881
1.00026
1.00044
1.0007
1.00285
1.0498
1.13214
1.15788
1.18328
1.20775
1.15655
1.32581
1.51512
1.51574
1.06512
1.00078
1.0014
1.00184
1.00305
1.00208
1.00015
1.00018
1.00062
1.03065
1.44857
1.48836
1.48858
1.12216
1.00038
1.01868
1.3618
1.46503
1.04436
1.00057
1.00024
1.0004
1.00039
1.00024
1.00026
1.00012
1.00012
1.00025
1.00143
1.21458
1.47165
1.4828
1.17076
1.00032
1.0005
1.00107
1.00115
1.00081
1.00026
1.00022
1.00028
1.00023
1.00021
1.00029
1.00008
1.0001
1.00016
1.00018
1.00007
1.00037
1.00034
1.00662
1.00556
1.00033
1.00055
1.00049
1.00024
1.00015
1.00011
1.00009
1.00009
1.00014
1.00017
1.00005
1.00007
1.00009
1.00008
1.00007
1.00008
1.00009
1.0001
1.00013
1.00018
1.00023
1.00026
1.00023
1.00018
1.00008
1.00004
1.00004
1.00005
1.00003
1.00003
1.00003
1.00005
1.00006
1.00009
1.00014
1.00018
1.00017
1.00014
1.00011
1.00013
1.00019
1.00023
1.00017
1.00007
1.00002
1.00002
1.00001
1.00001
1.00002
1.00002
1.00002
1.00002
1.00004
1.00009
1.00016
1.00019
1.00015
1.00009
1.00005
1.00007
1.00009
1.00007
1.00003
1.00002
1.00001
1.00001
1.00001
1.00001
1.00001
1.00001
1.00001
1.00001
1.00002
1.00003
1.00006
1.00006
1.00004
1.00003
1.00002
1.00001
1.00001
1.00001
1.00001
1.00001
1.00001
1.00001
1.00001
1.00001
1.00001
1.00001
1.00001
1.00001
1.00001
1.00001
1.00001
1.00001
1.00001
1.00001
1.00001
1.00001
1.00001
1.00001
1.00001
1.00001
1.00001
1.00001
1.00001
1
1
1
1.00001
1.00001
1.00001
1.00001
1.00001
1.00001
1.00001
1.00001
1
1
1
1.00001
1.00001
1.00001
1
1
1
1
1
1
1
1
1
1
1
1
1
1
1
1
1.00001
1.00001
1.00001
1
1
1
1
1
1
1
1
1
1
1
1
1
1
1
1
1.00001
1.00002
1.00001
1
1
1
1
1
1
1
1
1
1
1
1
1
1
1
1
1.00001
1.00002
1.00003
1
1
1
1
1
1
1
1
1
1
1
1
1
1
1
1
1.00001
1.00004
1.00003
1
1
1
1
1
1
1
1
1
1
1
1
1
1
1
1
1.00001
1.00004
1.00004
1
1
1
1
1
1
1
1
1
1
1
1
1
1
1
1
1.00001
1.00004
1.00004
1
1
1
1
1
1
1
1
1
1
1
1
1
1
1
1
1.00002
1.00004
1.00003
1
1
1
1
1
1
1
1
1
1
1
1
1
1
1
1
1.00002
1.00005
1.00003
1
1
1
1
1
1
1
1
1
1
1
1
1
1
1
1
1.00002
1.00005
1.00003
1
1
1
1
1
1
1
1
1
1
1
1
1
1
1
1.00001
1.00002
1.00005
1.00002
1
1
1
1
1
1
1
1
1
1
1
1
1
1
1
1.00001
1.00002
1.00004
1.00001
1
1
1
1
1
1
1
1
1
1
1
1
1
1
1
1.00001
1.00002
1.00003
1.00001
1
1
1
1
1
1
1
1
1
1
1
1
1
1
1
1.00001
1.00001
1
1
1
1
1
1
1
1
1
1
1
1
1
1
1
1
1
1.00001
1.00001
1.00001
1
1
1
1
1
1
1
1
1
1
1
1
1
1
1
1
1
1.00001
1
1
1
1
1
1
1
1
1
1
1
1
1
1
1
1
1
1
1
1
1
1
1
1
1
1
1
1
1
1
1
1
1
1
1
1
1
1
1
1
1
1
1
1
1
1
1
1
1
1
1
1
1
1
1
1
1
1
1
1
1
1
1
1
1
1
1
1
1
1
1
1
1
1
1
1
1
1
1
1
1
1
1
1
1
1
1
1
1
1
1
1
1
1
1
1
1
1
1
1
1
1
1
1
1
1
1
1
1
1
1
1
1
1
1
1
1
1
1
1
1
1
1
1
1
1
1
1
1
1
1
1
1
1
1
)
;

boundaryField
{
    leftWall
    {
        type            calculated;
        value           nonuniform List<scalar> 
50
(
13529
13529
13529
13529
13529
11219.7
1743.75
1000
1000
1000
999.613
917.448
812.133
560.77
489.059
494.147
492.321
167.522
1.00249
1.0006
1.00056
1.00061
1.00056
1.00044
1.00024
1.00018
1.00012
1.00006
1.00005
1.00004
1.00004
1.00003
1.00003
1.00003
1.00002
1.00002
1.00001
1.00001
1.00001
1.00001
1
1
1
1
1
1
1
1
1
1
)
;
    }
    rightWall
    {
        type            calculated;
        value           nonuniform List<scalar> 
50
(
10294.1
10292.7
7948.95
5823.86
1049.46
447.229
606.979
796.373
877.136
954.002
616.431
570.919
506.893
501.941
491.476
189.161
12.196
1.00881
1.00208
1.00026
1.00029
1.00017
1.00003
1.00001
1.00001
1.00001
1.00001
1.00001
1.00001
1.00001
1.00003
1.00003
1.00004
1.00004
1.00003
1.00003
1.00003
1.00002
1.00001
1.00001
1
1
1
1
1
1
1
1
1
1
)
;
    }
    lowerWall
    {
        type            calculated;
        value           nonuniform List<scalar> 
62
(
13529
13529
13529
13529
13529
13529
13529
13529
13529
13529
13529
13529
13529
13529
13529
13529
13529
13529
13529
13528.8
13523.9
13521.6
13521.6
13521.6
13524.6
13529
13529
13529
13527.3
10676.3
1752.21
1000.11
1000
999.906
1266.82
11608.5
7123.18
2557.07
2653.7
2136.18
1119.9
1014.83
1397.34
11608.5
11756.9
11929.9
11953.6
11953.9
11943.3
11765.1
8843.87
8751.05
8785
8725.82
8460.35
8481.96
9356.63
10326.1
10343.8
10318.6
10288.2
10294.1
)
;
    }
    atmosphere
    {
        type            calculated;
        value           nonuniform List<scalar> 
46
(
1
1
0.999999
0.999999
0.999999
0.999999
0.999999
1
1
1
1
1
1
1
1
1
1
1
1
1
1
1
1
1
1
1
1
1
1
1
1
1
1
1
1
1
1
1
1
1
1
1
1
1
1
1
)
;
    }
    defaultFaces
    {
        type            empty;
    }
}


// ************************************************************************* //
