/*--------------------------------*- C++ -*----------------------------------*\
  =========                 |
  \\      /  F ield         | OpenFOAM: The Open Source CFD Toolbox
   \\    /   O peration     | Website:  https://openfoam.org
    \\  /    A nd           | Version:  13
     \\/     M anipulation  |
\*---------------------------------------------------------------------------*/
FoamFile
{
    format      ascii;
    class       volVectorField;
    location    "2.4";
    object      U;
}
// * * * * * * * * * * * * * * * * * * * * * * * * * * * * * * * * * * * * * //

dimensions      [0 1 -1 0 0 0 0];

internalField   nonuniform List<vector> 
2268
(
(0.00216651 -0.00145148 0)
(0.00539527 -0.00239253 0)
(0.0153923 -0.0042154 0)
(0.0277442 -0.00498652 0)
(0.0409228 -0.00519069 0)
(0.0542316 -0.00509759 0)
(0.0672406 -0.00482031 0)
(0.0796241 -0.00440679 0)
(0.0910613 -0.00385956 0)
(0.101158 -0.00315526 0)
(0.109419 -0.00227519 0)
(0.115305 -0.00124303 0)
(0.118316 -0.000138518 0)
(0.118127 0.00104565 0)
(0.114667 0.00221152 0)
(0.107948 0.00333825 0)
(0.0980025 0.00442651 0)
(0.0848868 0.00546643 0)
(0.0687005 0.00643171 0)
(0.0497329 0.00722736 0)
(0.0285022 0.00741081 0)
(0.00805111 0.00479768 0)
(0.000211026 0.000668552 0)
(0.0032824 -0.00218416 0)
(0.0108744 -0.00570485 0)
(0.0215163 -0.00820165 0)
(0.0329565 -0.0092149 0)
(0.0445778 -0.0094986 0)
(0.0561905 -0.00943193 0)
(0.0676291 -0.00913447 0)
(0.078697 -0.00862236 0)
(0.0891344 -0.00785004 0)
(0.0985857 -0.00674522 0)
(0.106591 -0.0052462 0)
(0.112623 -0.00336001 0)
(0.116185 -0.00117986 0)
(0.116875 0.00117017 0)
(0.114513 0.00354537 0)
(0.109085 0.00589635 0)
(0.10061 0.00821331 0)
(0.089131 0.0104846 0)
(0.0747343 0.0126672 0)
(0.0576411 0.0145677 0)
(0.0381494 0.0153329 0)
(0.0183503 0.0119847 0)
(0.00397763 0.00297201 0)
(0.00568657 -0.00607181 0)
(0.0155007 -0.0104931 0)
(0.0261069 -0.0129786 0)
(0.0364911 -0.0139916 0)
(0.0467017 -0.0142511 0)
(0.0568698 -0.0141352 0)
(0.0669865 -0.0137393 0)
(0.0769211 -0.0130453 0)
(0.0864462 -0.0119713 0)
(0.0952381 -0.0104072 0)
(0.102879 -0.00825658 0)
(0.108886 -0.00550734 0)
(0.112768 -0.00225178 0)
(0.114085 0.00132694 0)
(0.112597 0.00498026 0)
(0.108259 0.00861975 0)
(0.101071 0.0122143 0)
(0.0910764 0.0157379 0)
(0.0783641 0.0191212 0)
(0.0631318 0.0220974 0)
(0.0455046 0.0235836 0)
(0.0266826 0.0203868 0)
(0.00946659 0.00930771 0)
(0.00838825 -0.0119079 0)
(0.0194876 -0.0163419 0)
(0.0299429 -0.0181778 0)
(0.0393611 -0.0188908 0)
(0.0483735 -0.0190469 0)
(0.0573391 -0.0189083 0)
(0.0663495 -0.018478 0)
(0.0753099 -0.0176707 0)
(0.0840122 -0.0163526 0)
(0.0921623 -0.0143694 0)
(0.099386 -0.0115866 0)
(0.10525 -0.00797302 0)
(0.109313 -0.00361481 0)
(0.111109 0.00120668 0)
(0.11034 0.00617704 0)
(0.106937 0.0111546 0)
(0.100887 0.0160841 0)
(0.0922297 0.0209156 0)
(0.0810663 0.025549 0)
(0.067572 0.0296791 0)
(0.0517097 0.0321929 0)
(0.0338457 0.0301 0)
(0.014975 0.0189727 0)
(0.0113753 -0.0195717 0)
(0.0226244 -0.0221449 0)
(0.0330545 -0.0228593 0)
(0.0417182 -0.0231082 0)
(0.0497872 -0.023161 0)
(0.0577938 -0.0230736 0)
(0.0658983 -0.0227084 0)
(0.0740275 -0.0218915 0)
(0.0819919 -0.0204319 0)
(0.0895266 -0.0181347 0)
(0.0962971 -0.0148344 0)
(0.101922 -0.0104783 0)
(0.106007 -0.00519754 0)
(0.108113 0.000823422 0)
(0.107911 0.0070544 0)
(0.105293 0.0133199 0)
(0.100229 0.0195286 0)
(0.0927546 0.0256003 0)
(0.0829766 0.0314021 0)
(0.0710506 0.0366394 0)
(0.0568139 0.0403747 0)
(0.0398558 0.040288 0)
(0.0200486 0.0313797 0)
(0.0151848 -0.0275365 0)
(0.0252015 -0.0269834 0)
(0.0356886 -0.0264902 0)
(0.0438589 -0.0262674 0)
(0.051293 -0.0261656 0)
(0.0586 -0.0260402 0)
(0.0659731 -0.0256468 0)
(0.0733567 -0.0247656 0)
(0.0805861 -0.0231833 0)
(0.087433 -0.0206863 0)
(0.0936161 -0.0170775 0)
(0.0987577 -0.0123085 0)
(0.102673 -0.00643923 0)
(0.104945 0.000351952 0)
(0.10511 0.00751609 0)
(0.103091 0.0147411 0)
(0.098819 0.0218937 0)
(0.0923264 0.0288499 0)
(0.0837293 0.0354473 0)
(0.07318 0.0414259 0)
(0.0604896 0.0461655 0)
(0.0445285 0.0485378 0)
(0.0253768 0.0440081 0)
(0.0195542 -0.0332416 0)
(0.0273384 -0.0306058 0)
(0.0382376 -0.0292498 0)
(0.0460095 -0.0285489 0)
(0.0529138 -0.0283757 0)
(0.0596251 -0.0284029 0)
(0.0663573 -0.0282163 0)
(0.0730736 -0.0274911 0)
(0.0796353 -0.0259427 0)
(0.0858286 -0.0233099 0)
(0.0913642 -0.0193713 0)
(0.0959393 -0.0140931 0)
(0.0992505 -0.00756937 0)
(0.101242 -5.81458e-05 0)
(0.10164 0.00791875 0)
(0.100075 0.0160015 0)
(0.0965008 0.0240234 0)
(0.0909372 0.0318337 0)
(0.0835023 0.039241 0)
(0.0743713 0.0460097 0)
(0.0634906 0.051793 0)
(0.0489828 0.0566628 0)
(0.034854 0.0569386 0)
(0.0228036 -0.0497932 0)
(0.0328676 -0.0393666 0)
(0.0425955 -0.035846 0)
(0.0495908 -0.0338192 0)
(0.0557458 -0.0330039 0)
(0.061627 -0.0325934 0)
(0.0673917 -0.03194 0)
(0.0730348 -0.0307053 0)
(0.0785044 -0.0286305 0)
(0.0836281 -0.0255013 0)
(0.088183 -0.0211228 0)
(0.0916833 -0.0154213 0)
(0.0942945 -0.00872461 0)
(0.0960243 -0.000815458 0)
(0.0964456 0.00772298 0)
(0.0953409 0.0164584 0)
(0.0925933 0.0251692 0)
(0.0882854 0.0336863 0)
(0.0825831 0.0417956 0)
(0.0757354 0.0493007 0)
(0.0682185 0.0561542 0)
(0.057723 0.0641929 0)
(0.0572509 0.0883019 0)
(0.00160147 -0.00104467 0)
(0.00585351 -0.00196807 0)
(0.00831038 -0.000863238 0)
(0.00393237 0.00275188 0)
(-0.0103691 0.00692413 0)
(-0.0291416 0.00617262 0)
(-0.0461053 0.0066408 0)
(-0.0786574 0.015014 0)
(-0.106698 0.00738755 0)
(-0.112515 -0.00214399 0)
(-0.10244 -0.005929 0)
(-0.0902338 -0.00234689 0)
(-0.0898586 0.00377985 0)
(-0.0867285 -0.00283959 0)
(-0.0668515 -0.00999229 0)
(-0.0412514 -0.00897683 0)
(-0.0183107 -0.00877992 0)
(0.00291496 -0.0066518 0)
(0.0122577 0.00254573 0)
(0.00576703 -0.00285126 0)
(0.00806754 -0.00228491 0)
(0.00956832 0.000505133 0)
(0.00584458 0.00556925 0)
(0.000426247 0.0105744 0)
(-0.0165465 0.0133681 0)
(-0.0470088 0.0146984 0)
(-0.0718025 0.0197369 0)
(-0.0869961 0.0115381 0)
(-0.0949011 -0.000225887 0)
(-0.0978412 -0.00631082 0)
(-0.0929674 -0.00547906 0)
(-0.0819215 -0.0017005 0)
(-0.0684042 -0.00818978 0)
(-0.0533773 -0.0156319 0)
(-0.0370471 -0.0153724 0)
(-0.020775 -0.0141017 0)
(-0.00704432 -0.0087551 0)
(-0.000456942 0.00393717 0)
(0.00121955 -0.00406999 0)
(0.00443589 -0.00369214 0)
(0.00794242 0.000682778 0)
(0.0100223 0.00659244 0)
(0.0160314 0.012819 0)
(-0.00128306 0.0236737 0)
(-0.037234 0.0248506 0)
(-0.0586857 0.0254949 0)
(-0.067662 0.015058 0)
(-0.0784378 0.0033855 0)
(-0.0904295 -0.00498531 0)
(-0.0906258 -0.00805782 0)
(-0.0782307 -0.00754267 0)
(-0.0608384 -0.0137539 0)
(-0.0468593 -0.0204028 0)
(-0.0347741 -0.0202971 0)
(-0.0241768 -0.0176423 0)
(-0.0161224 -0.0113827 0)
(-0.0153026 -0.000348935 0)
(0.00501243 -0.00635647 0)
(0.00644945 -0.00623824 0)
(0.010008 -0.00125653 0)
(0.0142416 0.00304977 0)
(0.0238679 0.0105129 0)
(0.0176074 0.0380693 0)
(-0.0167758 0.0363362 0)
(-0.0358875 0.0316884 0)
(-0.0387405 0.0171487 0)
(-0.0549045 0.00909545 0)
(-0.0774032 -0.00182754 0)
(-0.0830323 -0.0105137 0)
(-0.0730064 -0.0140402 0)
(-0.0549671 -0.020339 0)
(-0.0421722 -0.0242848 0)
(-0.0330647 -0.0243064 0)
(-0.0229443 -0.0200057 0)
(-0.0130696 -0.0142228 0)
(-0.00972407 -0.0110859 0)
(0.0193871 -0.00805996 0)
(0.0144002 -0.00630482 0)
(0.0159461 -0.00210076 0)
(0.0133518 0.00216785 0)
(0.0132883 0.00843561 0)
(0.0182801 0.0454343 0)
(0.0129917 0.0485607 0)
(0.00216642 0.0379963 0)
(0.000213203 0.0187052 0)
(-0.0129007 0.0206702 0)
(-0.0459241 0.00661558 0)
(-0.0614672 -0.00911441 0)
(-0.061752 -0.0185809 0)
(-0.0536752 -0.0264916 0)
(-0.0460803 -0.0278738 0)
(-0.0385872 -0.0290439 0)
(-0.0179961 -0.0249499 0)
(0.0137264 -0.0175034 0)
(0.0383223 -0.00701827 0)
(0.0445909 -0.0165188 0)
(0.0338845 -0.00362797 0)
(0.0290436 -0.000796137 0)
(0.0173428 0.00509986 0)
(0.00629208 0.00894059 0)
(0.0111594 0.0388716 0)
(0.0219572 0.0467925 0)
(0.0246324 0.038596 0)
(0.0230742 0.0211106 0)
(0.0159154 0.0316764 0)
(0.00306401 0.0184122 0)
(-0.0181467 -0.00557391 0)
(-0.0413034 -0.0183006 0)
(-0.053506 -0.0295126 0)
(-0.0574825 -0.0297036 0)
(-0.0454539 -0.0392106 0)
(-0.0179589 -0.0432726 0)
(0.0218585 -0.047902 0)
(0.0814207 0.0181226 0)
(0.0748691 -0.0506796 0)
(0.0626203 -0.0021037 0)
(0.0486324 0.00590022 0)
(0.0302347 0.0119781 0)
(0.0105895 0.0130006 0)
(0.0100208 0.0343306 0)
(0.0227506 0.0424366 0)
(0.0309532 0.0374451 0)
(0.0274997 0.0238308 0)
(0.0217228 0.0330286 0)
(0.019262 0.0213903 0)
(0.0155761 0.00518999 0)
(-0.00150484 -0.00436372 0)
(-0.0381866 -0.0196733 0)
(-0.04573 -0.0322466 0)
(-0.0367785 -0.0464016 0)
(-0.0180068 -0.0556238 0)
(0.00137371 -0.0655298 0)
(0.0336412 0.041414 0)
(0.0936551 -0.0789889 0)
(0.07512 -0.00296987 0)
(0.0657383 0.0157197 0)
(0.0473313 0.0201325 0)
(0.023284 0.0205404 0)
(0.0149024 0.032275 0)
(0.0218653 0.0387406 0)
(0.0287562 0.0358386 0)
(0.0261175 0.0261899 0)
(0.0230743 0.0329504 0)
(0.0241827 0.0215796 0)
(0.021013 0.00730799 0)
(0.0113542 0.00649194 0)
(-0.00878358 -0.00830496 0)
(-0.0204307 -0.0319161 0)
(-0.0215334 -0.0492379 0)
(-0.0163613 -0.0605184 0)
(-0.0162596 -0.0702865 0)
(-0.00152476 0.0408291 0)
(0.0137318 -0.0696066 0)
(0.0289913 -0.0523737 0)
(0.0383681 -0.0448375 0)
(0.0449269 -0.0410591 0)
(0.0499108 -0.0397887 0)
(0.0543161 -0.0395684 0)
(0.0583743 -0.0393085 0)
(0.062089 -0.0385144 0)
(0.0655506 -0.0366893 0)
(0.0687544 -0.0333364 0)
(0.0716236 -0.0280279 0)
(0.0741144 -0.0208394 0)
(0.0761507 -0.0117588 0)
(0.0778868 -0.00206789 0)
(0.0793642 0.00885102 0)
(0.0806512 0.0200333 0)
(0.0819186 0.0311317 0)
(0.0834697 0.0417652 0)
(0.0855072 0.0516426 0)
(0.0884518 0.0601166 0)
(0.0939722 0.0666171 0)
(0.104269 0.0718881 0)
(0.133911 0.0844723 0)
(0.00457249 -0.0825131 0)
(0.0156405 -0.0609361 0)
(0.0202891 -0.0490712 0)
(0.0235036 -0.0430593 0)
(0.0258116 -0.0408353 0)
(0.0280201 -0.0400422 0)
(0.030094 -0.0389063 0)
(0.0318865 -0.0374776 0)
(0.0336215 -0.035206 0)
(0.0354353 -0.0317763 0)
(0.0374689 -0.0268515 0)
(0.0397428 -0.0202319 0)
(0.042377 -0.0126309 0)
(0.0455455 -0.00399666 0)
(0.0494897 0.0049861 0)
(0.0541839 0.0143523 0)
(0.0596477 0.0232585 0)
(0.06623 0.0313673 0)
(0.0739243 0.0389706 0)
(0.0824906 0.0446808 0)
(0.0924566 0.0460104 0)
(0.104955 0.0426726 0)
(0.124287 0.0335837 0)
(-0.0011461 -0.08625 0)
(0.00277421 -0.0638248 0)
(0.00130471 -0.0497594 0)
(-0.000556206 -0.0427638 0)
(-0.00216669 -0.0410018 0)
(-0.00270099 -0.040738 0)
(-0.00262309 -0.0395891 0)
(-0.0024565 -0.038241 0)
(-0.00184551 -0.0362754 0)
(-0.000800611 -0.033285 0)
(0.00101954 -0.0289922 0)
(0.00371918 -0.0231857 0)
(0.00727676 -0.0160852 0)
(0.0118973 -0.00875186 0)
(0.0178072 -0.000822927 0)
(0.0246187 0.00777251 0)
(0.0321362 0.0157098 0)
(0.0407209 0.0226391 0)
(0.0505327 0.0293088 0)
(0.0613333 0.0340008 0)
(0.072398 0.034275 0)
(0.082245 0.0312176 0)
(0.0908285 0.022472 0)
(-0.00349712 -0.085011 0)
(-0.00651809 -0.0595826 0)
(-0.0155566 -0.0448584 0)
(-0.0230637 -0.0387664 0)
(-0.0289769 -0.0384918 0)
(-0.0330259 -0.0395381 0)
(-0.0354754 -0.0388446 0)
(-0.0368158 -0.0384261 0)
(-0.0372092 -0.0368196 0)
(-0.0369023 -0.0344451 0)
(-0.0357441 -0.030963 0)
(-0.0333231 -0.0258338 0)
(-0.0295472 -0.0197938 0)
(-0.0244197 -0.0136697 0)
(-0.0180542 -0.00679153 0)
(-0.0107759 0.00123356 0)
(-0.00280734 0.0083958 0)
(0.00622671 0.0136603 0)
(0.0167232 0.0190201 0)
(0.0280923 0.0230879 0)
(0.0389445 0.0242708 0)
(0.0470335 0.0248813 0)
(0.0498222 0.0207189 0)
(-0.00946517 -0.0801752 0)
(-0.0188516 -0.0488047 0)
(-0.0340807 -0.0345291 0)
(-0.0463807 -0.0303018 0)
(-0.0565166 -0.0322422 0)
(-0.0650238 -0.0343576 0)
(-0.0718543 -0.0350555 0)
(-0.076015 -0.0363591 0)
(-0.0775815 -0.0354627 0)
(-0.0785547 -0.0340722 0)
(-0.0783449 -0.0319885 0)
(-0.0763827 -0.0288078 0)
(-0.0722878 -0.0246156 0)
(-0.0665457 -0.0201317 0)
(-0.0598581 -0.0142712 0)
(-0.0521522 -0.00722934 0)
(-0.0430826 -0.00148343 0)
(-0.0330952 0.00228768 0)
(-0.0222314 0.00710786 0)
(-0.0109449 0.0111863 0)
(-0.000421046 0.0142582 0)
(0.00870902 0.0182557 0)
(0.0161636 0.0188237 0)
(-0.0318132 -0.0641245 0)
(-0.0415235 -0.0308882 0)
(-0.060208 -0.0194465 0)
(-0.0757205 -0.0174002 0)
(-0.0898412 -0.020157 0)
(-0.102919 -0.0230876 0)
(-0.113722 -0.028008 0)
(-0.120171 -0.0328384 0)
(-0.123551 -0.0338388 0)
(-0.124678 -0.0337207 0)
(-0.124044 -0.0337788 0)
(-0.120845 -0.0330813 0)
(-0.11498 -0.0307689 0)
(-0.107474 -0.0274579 0)
(-0.0987164 -0.0226415 0)
(-0.0886531 -0.0169986 0)
(-0.0772444 -0.0120719 0)
(-0.0653491 -0.00834786 0)
(-0.0534437 -0.00404532 0)
(-0.0411553 0.000117176 0)
(-0.0291169 0.00413556 0)
(-0.017376 0.0082744 0)
(-0.00561551 0.00974289 0)
(-0.0466869 -0.0235742 0)
(-0.0529054 -0.00514253 0)
(-0.073893 0.00254927 0)
(-0.0943741 0.00250998 0)
(-0.113805 -0.00186347 0)
(-0.130683 -0.00833646 0)
(-0.142471 -0.0179799 0)
(-0.149556 -0.0272911 0)
(-0.153494 -0.0318432 0)
(-0.154839 -0.0343432 0)
(-0.153446 -0.0370046 0)
(-0.14936 -0.0389964 0)
(-0.142815 -0.039175 0)
(-0.134256 -0.037492 0)
(-0.124217 -0.0341247 0)
(-0.112745 -0.02987 0)
(-0.100313 -0.0257406 0)
(-0.087573 -0.0220901 0)
(-0.0745843 -0.0182359 0)
(-0.0611364 -0.0142595 0)
(-0.0475032 -0.0100572 0)
(-0.0338852 -0.00594186 0)
(-0.020544 -0.00368846 0)
(-0.0226804 0.0142733 0)
(-0.0308747 0.0236221 0)
(-0.0582419 0.0283651 0)
(-0.0875234 0.0244407 0)
(-0.115798 0.0162472 0)
(-0.139706 0.00470705 0)
(-0.155878 -0.0100169 0)
(-0.164621 -0.0221427 0)
(-0.169118 -0.0293022 0)
(-0.17096 -0.0343587 0)
(-0.170121 -0.0395502 0)
(-0.166081 -0.0440707 0)
(-0.159172 -0.0462903 0)
(-0.150095 -0.0463148 0)
(-0.139357 -0.0445248 0)
(-0.12725 -0.0416024 0)
(-0.114247 -0.0382433 0)
(-0.100855 -0.034928 0)
(-0.0870854 -0.0316801 0)
(-0.072712 -0.028263 0)
(-0.0578899 -0.024276 0)
(-0.042866 -0.0203088 0)
(-0.0280029 -0.0182446 0)
(0.014389 0.0340489 0)
(0.0181825 0.0369466 0)
(-0.00716989 0.0500846 0)
(-0.053991 0.0438989 0)
(-0.0957679 0.0346235 0)
(-0.13251 0.0210873 0)
(-0.155424 -0.000138203 0)
(-0.166196 -0.0163311 0)
(-0.172399 -0.0250587 0)
(-0.175574 -0.0316063 0)
(-0.175824 -0.0389488 0)
(-0.17274 -0.0457431 0)
(-0.166365 -0.0497871 0)
(-0.157492 -0.0510438 0)
(-0.146691 -0.0502881 0)
(-0.134376 -0.0482043 0)
(-0.12104 -0.0453609 0)
(-0.107192 -0.0423341 0)
(-0.0930244 -0.0395276 0)
(-0.0784149 -0.0366704 0)
(-0.0633347 -0.0330584 0)
(-0.0480239 -0.029085 0)
(-0.0329384 -0.0257536 0)
(0.0498719 -0.00371484 0)
(0.0702424 0.0334224 0)
(0.0518472 0.0550058 0)
(-0.0319912 0.0550626 0)
(-0.0860103 0.0551822 0)
(-0.113171 0.0396579 0)
(-0.134761 0.00533843 0)
(-0.156548 -0.0110694 0)
(-0.167245 -0.0190043 0)
(-0.169688 -0.0253003 0)
(-0.168936 -0.0355781 0)
(-0.167452 -0.0444422 0)
(-0.16418 -0.0492544 0)
(-0.157577 -0.0509497 0)
(-0.148171 -0.0507036 0)
(-0.136743 -0.0489975 0)
(-0.123842 -0.0463175 0)
(-0.109899 -0.043491 0)
(-0.0955043 -0.0411624 0)
(-0.0813109 -0.0387285 0)
(-0.0670128 -0.0350597 0)
(-0.0512227 -0.0310229 0)
(-0.0353146 -0.0290034 0)
(-0.0027932 -0.0984862 0)
(-0.0433885 -0.00408522 0)
(-0.0221713 0.228546 0)
(-0.0511016 0.250473 0)
(-0.0647417 0.183637 0)
(-0.0926223 0.130245 0)
(-0.115004 0.0683124 0)
(-0.129992 0.0237336 0)
(-0.135637 -0.0114956 0)
(-0.134381 -0.0357518 0)
(-0.130483 -0.0528699 0)
(-0.127085 -0.0682804 0)
(-0.124155 -0.0815936 0)
(-0.121662 -0.0917909 0)
(-0.119454 -0.0980582 0)
(-0.117131 -0.100899 0)
(-0.114319 -0.100968 0)
(-0.110946 -0.099155 0)
(-0.107085 -0.0967492 0)
(-0.102378 -0.0946491 0)
(-0.0963078 -0.092692 0)
(-0.0876742 -0.0893901 0)
(-0.0791285 -0.0840382 0)
(-0.0168539 -0.0129446 0)
(-0.0589041 0.0742756 0)
(-0.0764393 0.183884 0)
(-0.0516445 0.172191 0)
(-0.0592503 0.149243 0)
(-0.0700333 0.106131 0)
(-0.0802327 0.0611104 0)
(-0.0903647 0.0210464 0)
(-0.0958668 -0.0119826 0)
(-0.0963672 -0.0347362 0)
(-0.094505 -0.0489097 0)
(-0.0932357 -0.0588469 0)
(-0.0941741 -0.0664847 0)
(-0.0968885 -0.071682 0)
(-0.100578 -0.0744536 0)
(-0.104524 -0.0753369 0)
(-0.108187 -0.074842 0)
(-0.11115 -0.073465 0)
(-0.113155 -0.0721124 0)
(-0.114003 -0.0714457 0)
(-0.113641 -0.0711029 0)
(-0.11087 -0.0697318 0)
(-0.105103 -0.0647329 0)
(-0.0102538 -0.0195076 0)
(-0.0551054 0.0807817 0)
(-0.0664759 0.139697 0)
(-0.0613878 0.165915 0)
(-0.0573523 0.143417 0)
(-0.0534063 0.106964 0)
(-0.055212 0.0657726 0)
(-0.0597682 0.0266957 0)
(-0.0638754 -0.0086787 0)
(-0.0662238 -0.0337504 0)
(-0.0676606 -0.0480864 0)
(-0.0701826 -0.0558262 0)
(-0.0747675 -0.0609966 0)
(-0.0808111 -0.0646207 0)
(-0.0873897 -0.0667159 0)
(-0.0938991 -0.0676022 0)
(-0.0999283 -0.0676597 0)
(-0.105171 -0.0673019 0)
(-0.109489 -0.0670701 0)
(-0.112921 -0.0674669 0)
(-0.115685 -0.0683182 0)
(-0.116963 -0.0684841 0)
(-0.116095 -0.065523 0)
(-0.0435658 0.0743651 0)
(-0.0530362 0.121191 0)
(-0.0614477 0.150587 0)
(-0.0532765 0.152634 0)
(-0.0405611 0.134496 0)
(-0.0322348 0.103707 0)
(-0.0295887 0.0677244 0)
(-0.0316494 0.0311052 0)
(-0.0362981 -0.00417981 0)
(-0.0419168 -0.0293887 0)
(-0.0473956 -0.0439837 0)
(-0.0531903 -0.0503766 0)
(-0.0603228 -0.0541404 0)
(-0.0680849 -0.0573615 0)
(-0.0757446 -0.0596336 0)
(-0.082931 -0.0610803 0)
(-0.0894544 -0.0619255 0)
(-0.0952226 -0.0624749 0)
(-0.100239 -0.0631048 0)
(-0.10464 -0.0641599 0)
(-0.108914 -0.0654859 0)
(-0.112166 -0.0661721 0)
(-0.113757 -0.0640968 0)
(-0.0348943 0.086715 0)
(-0.0393362 0.124256 0)
(-0.0410447 0.142161 0)
(-0.0314175 0.141569 0)
(-0.0194281 0.124456 0)
(-0.0104639 0.0979338 0)
(-0.00643589 0.0667799 0)
(-0.00733364 0.0341721 0)
(-0.0128698 0.00193047 0)
(-0.0212164 -0.0224893 0)
(-0.0299693 -0.0370501 0)
(-0.0386297 -0.0430113 0)
(-0.0471139 -0.0464377 0)
(-0.0553771 -0.0497813 0)
(-0.0631174 -0.052534 0)
(-0.0702706 -0.0546371 0)
(-0.0767646 -0.0561756 0)
(-0.0826201 -0.057401 0)
(-0.0879147 -0.0585521 0)
(-0.0928282 -0.0598705 0)
(-0.0977706 -0.0612889 0)
(-0.101923 -0.0622155 0)
(-0.104562 -0.0608409 0)
(-0.0214372 0.113149 0)
(-0.0225089 0.130409 0)
(-0.0197997 0.136568 0)
(-0.0098959 0.130506 0)
(0.000958856 0.114164 0)
(0.00899028 0.0913911 0)
(0.0129086 0.0649701 0)
(0.0122069 0.037244 0)
(0.00660983 0.00971128 0)
(-0.00296896 -0.0128621 0)
(-0.0137678 -0.0270943 0)
(-0.024101 -0.0336485 0)
(-0.0332751 -0.0378606 0)
(-0.041447 -0.041752 0)
(-0.0490568 -0.045109 0)
(-0.0560851 -0.0478297 0)
(-0.062537 -0.0499911 0)
(-0.068477 -0.0517514 0)
(-0.0739859 -0.0532838 0)
(-0.0791888 -0.054768 0)
(-0.0844857 -0.0562404 0)
(-0.0888916 -0.0573973 0)
(-0.0918449 -0.056675 0)
(-0.00965775 0.131466 0)
(-0.00710606 0.13172 0)
(-0.00161952 0.129079 0)
(0.00785628 0.120285 0)
(0.0171198 0.10528 0)
(0.0239415 0.0858088 0)
(0.0271486 0.0635785 0)
(0.0262776 0.0402186 0)
(0.0211085 0.0174414 0)
(0.0120915 -0.0022744 0)
(0.00107692 -0.0158029 0)
(-0.00947259 -0.0236516 0)
(-0.018587 -0.0291488 0)
(-0.0267311 -0.0338295 0)
(-0.0342136 -0.0377704 0)
(-0.0411662 -0.0410437 0)
(-0.0476281 -0.0437301 0)
(-0.0536396 -0.0459325 0)
(-0.0592931 -0.0477849 0)
(-0.0646649 -0.049455 0)
(-0.0699882 -0.0510591 0)
(-0.0744084 -0.0525207 0)
(-0.0773646 -0.0523666 0)
(-0.00143855 0.134773 0)
(0.00416927 0.127509 0)
(0.0111148 0.120854 0)
(0.0198875 0.111191 0)
(0.0278787 0.0978001 0)
(0.0335905 0.0812576 0)
(0.0362114 0.0626013 0)
(0.0353457 0.0430859 0)
(0.0308808 0.0241046 0)
(0.0232085 0.00746087 0)
(0.0136826 -0.00524267 0)
(0.00415715 -0.014029 0)
(-0.00452743 -0.0206495 0)
(-0.0123921 -0.0260472 0)
(-0.0196835 -0.0305398 0)
(-0.0264901 -0.0343177 0)
(-0.0328574 -0.037458 0)
(-0.0388502 -0.0400522 0)
(-0.0445047 -0.0422193 0)
(-0.0498285 -0.0441365 0)
(-0.0550718 -0.045982 0)
(-0.0592644 -0.0478049 0)
(-0.0619944 -0.048175 0)
(0.00318277 0.129437 0)
(0.010422 0.120218 0)
(0.018063 0.11239 0)
(0.0262044 0.103086 0)
(0.0332681 0.09135 0)
(0.0382996 0.077349 0)
(0.0407223 0.061741 0)
(0.0402445 0.0454383 0)
(0.0368304 0.0295351 0)
(0.0308642 0.0152542 0)
(0.0232821 0.00358234 0)
(0.0152769 -0.00548733 0)
(0.00760651 -0.012682 0)
(0.000379421 -0.0186179 0)
(-0.00644691 -0.0236013 0)
(-0.0128906 -0.027797 0)
(-0.0189881 -0.0313266 0)
(-0.0247605 -0.0342712 0)
(-0.0302188 -0.0367629 0)
(-0.0353508 -0.0389801 0)
(-0.040273 -0.0411388 0)
(-0.0442094 -0.0433695 0)
(-0.0466906 -0.0442101 0)
(0.00490024 0.121422 0)
(0.0125471 0.111976 0)
(0.0202646 0.104202 0)
(0.0278614 0.0956957 0)
(0.0343484 0.0855308 0)
(0.0390811 0.0736904 0)
(0.0416525 0.0605998 0)
(0.0418507 0.046933 0)
(0.0396826 0.0335004 0)
(0.0354545 0.0211511 0)
(0.0298177 0.0105037 0)
(0.0235396 0.00165663 0)
(0.0171584 -0.00570991 0)
(0.0109101 -0.0119236 0)
(0.004859 -0.0172092 0)
(-0.000970774 -0.0217245 0)
(-0.0065646 -0.0255577 0)
(-0.0119078 -0.0288072 0)
(-0.0169779 -0.03161 0)
(-0.0217091 -0.0341462 0)
(-0.0262834 -0.0366537 0)
(-0.0298071 -0.0392842 0)
(-0.031958 -0.0405468 0)
(0.00483857 0.113226 0)
(0.012099 0.103878 0)
(0.0194053 0.0964951 0)
(0.0264553 0.0888463 0)
(0.0325466 0.0800383 0)
(0.0371992 0.0699747 0)
(0.0401006 0.0589325 0)
(0.0410845 0.0473991 0)
(0.0401598 0.0359653 0)
(0.0375501 0.0252215 0)
(0.0336893 0.015602 0)
(0.0290861 0.00723053 0)
(0.024126 -3.47043e-06 0)
(0.019041 -0.00624305 0)
(0.0139618 -0.0116442 0)
(0.00895586 -0.0163192 0)
(0.00407019 -0.020359 0)
(-0.000654715 -0.0238565 0)
(-0.00517267 -0.0269353 0)
(-0.00942413 -0.0297716 0)
(-0.013467 -0.0326072 0)
(-0.0166026 -0.0356109 0)
(-0.01846 -0.0372192 0)
(0.00399999 0.105898 0)
(0.0104445 0.0964818 0)
(0.0170395 0.0894229 0)
(0.0234923 0.0824658 0)
(0.0292335 0.0747378 0)
(0.0338616 0.0660886 0)
(0.0371098 0.0566845 0)
(0.0388296 0.0468672 0)
(0.0390112 0.0370592 0)
(0.0378005 0.0276778 0)
(0.0354799 0.0190378 0)
(0.0323876 0.0112757 0)
(0.0288108 0.00437744 0)
(0.0249415 -0.00170848 0)
(0.0209225 -0.00706173 0)
(0.0168466 -0.0117684 0)
(0.0127826 -0.0159017 0)
(0.00878879 -0.0195505 0)
(0.00492726 -0.0228363 0)
(0.00128911 -0.0259267 0)
(-0.00226457 -0.0290426 0)
(-0.00489255 -0.0323529 0)
(-0.00636904 -0.0342729 0)
(0.00300573 0.0999006 0)
(0.00850179 0.0900663 0)
(0.0142658 0.0830922 0)
(0.0200885 0.0765735 0)
(0.0254631 0.0696291 0)
(0.0300283 0.0620583 0)
(0.0335393 0.0539363 0)
(0.0358505 0.0454875 0)
(0.0369275 0.037005 0)
(0.0368522 0.0287829 0)
(0.0358027 0.0210532 0)
(0.0340022 0.0139439 0)
(0.0316618 0.00748849 0)
(0.0289445 0.00167707 0)
(0.0259708 -0.00350528 0)
(0.0228424 -0.00813405 0)
(0.0196351 -0.0122689 0)
(0.0164158 -0.0159868 0)
(0.0132548 -0.0193994 0)
(0.010218 -0.0226587 0)
(0.00727365 -0.0259712 0)
(0.00503881 -0.0295105 0)
(0.00386322 -0.0316625 0)
(0.00215807 0.0952197 0)
(0.00676351 0.0846576 0)
(0.011735 0.0775174 0)
(0.0169437 0.0711882 0)
(0.0219311 0.0647577 0)
(0.0263652 0.0579736 0)
(0.0300163 0.0508328 0)
(0.032739 0.0434636 0)
(0.0344777 0.0360575 0)
(0.0352662 0.0288167 0)
(0.0352111 0.0219095 0)
(0.0344587 0.0154448 0)
(0.0331602 0.00947346 0)
(0.0314497 0.00400964 0)
(0.0294261 -0.00092964 0)
(0.027184 -0.00539832 0)
(0.0247978 -0.00945579 0)
(0.0223306 -0.0131682 0)
(0.0198515 -0.0166344 0)
(0.0174537 -0.0199932 0)
(0.0150006 -0.0234421 0)
(0.0132331 -0.0271286 0)
(0.0123756 -0.0293872 0)
(0.001571 0.0915857 0)
(0.00546411 0.0801143 0)
(0.00976393 0.0726256 0)
(0.0144255 0.0662942 0)
(0.0190293 0.0601644 0)
(0.0232731 0.0539333 0)
(0.0269451 0.0475305 0)
(0.0299041 0.0410056 0)
(0.0320814 0.0344694 0)
(0.0334785 0.028052 0)
(0.0341545 0.0218706 0)
(0.0342037 0.0160107 0)
(0.0337328 0.0105238 0)
(0.0328467 0.00543688 0)
(0.0316299 0.000777733 0)
(0.030159 -0.00347989 0)
(0.0285031 -0.00740316 0)
(0.0267193 -0.011049 0)
(0.024871 -0.0145039 0)
(0.0230114 -0.0178964 0)
(0.0211176 -0.0214049 0)
(0.0196986 -0.0251712 0)
(0.0190658 -0.0274528 0)
(0.00125971 0.0886468 0)
(0.00465624 0.076216 0)
(0.00846247 0.0682877 0)
(0.0126786 0.0618389 0)
(0.0169293 0.0558652 0)
(0.0209473 0.0500174 0)
(0.0245441 0.044168 0)
(0.0275897 0.0383028 0)
(0.0300118 0.0324683 0)
(0.0317937 0.0267375 0)
(0.0329646 0.0211852 0)
(0.0335845 0.015873 0)
(0.033729 0.0108452 0)
(0.0334777 0.00613245 0)
(0.0329003 0.0017684 0)
(0.0320573 -0.0022554 0)
(0.0310114 -0.00600979 0)
(0.0298073 -0.00954559 0)
(0.0284966 -0.0129391 0)
(0.0271567 -0.0163058 0)
(0.0256507 -0.0198087 0)
(0.0246262 -0.0235762 0)
(0.0242678 -0.0258271 0)
(0.0012029 0.0860548 0)
(0.00432552 0.0727211 0)
(0.00781684 0.0643507 0)
(0.0117045 0.0577446 0)
(0.0156535 0.0518506 0)
(0.0194349 0.0462783 0)
(0.0228895 0.0408536 0)
(0.025905 0.0355111 0)
(0.0284146 0.0302465 0)
(0.0303949 0.0250876 0)
(0.031859 0.0200743 0)
(0.032846 0.0152461 0)
(0.0334101 0.0106373 0)
(0.0336121 0.00627753 0)
(0.0335062 0.00220465 0)
(0.0331419 -0.00158279 0)
(0.0325725 -0.00515308 0)
(0.0318345 -0.00855279 0)
(0.0309693 -0.0118493 0)
(0.0300114 -0.0151432 0)
(0.028936 -0.0185865 0)
(0.0281517 -0.0222952 0)
(0.0279461 -0.0244598 0)
(0.00135841 0.0835005 0)
(0.00439489 0.0694041 0)
(0.00775031 0.0606617 0)
(0.0114256 0.0539234 0)
(0.0151334 0.0480923 0)
(0.0186856 0.0427432 0)
(0.0219565 0.0376643 0)
(0.0248573 0.0327503 0)
(0.0273337 0.0279575 0)
(0.0293646 0.0232783 0)
(0.0309573 0.0187247 0)
(0.0321398 0.0143174 0)
(0.0329535 0.0100808 0)
(0.0334458 0.00604179 0)
(0.0336576 0.00224286 0)
(0.0336307 -0.00131936 0)
(0.0334106 -0.00470665 0)
(0.0330223 -0.00796026 0)
(0.0324968 -0.0111388 0)
(0.031889 -0.0143307 0)
(0.0310566 -0.0176785 0)
(0.0305542 -0.0212813 0)
(0.0305076 -0.0233182 0)
(0.00168436 0.0807303 0)
(0.0047903 0.0660712 0)
(0.00815292 0.0570822 0)
(0.0117198 0.050288 0)
(0.0152479 0.044552 0)
(0.0185897 0.0394197 0)
(0.0216556 0.0346502 0)
(0.0243842 0.0301075 0)
(0.0267389 0.0257183 0)
(0.0287079 0.0214482 0)
(0.0303001 0.0172878 0)
(0.0315402 0.0132431 0)
(0.0324628 0.00933011 0)
(0.0331073 0.00557401 0)
(0.0335046 0.00202251 0)
(0.0336915 -0.00133575 0)
(0.033705 -0.00455246 0)
(0.0335641 -0.00766259 0)
(0.033291 -0.0107149 0)
(0.0328944 -0.0137914 0)
(0.0323495 -0.0170171 0)
(0.0319711 -0.0204854 0)
(0.0319639 -0.0223611 0)
(0.00213376 0.0775511 0)
(0.00541881 0.0625681 0)
(0.00891157 0.0534967 0)
(0.0124553 0.0467607 0)
(0.0158574 0.041189 0)
(0.0190106 0.0363036 0)
(0.0218626 0.031841 0)
(0.0243816 0.0276428 0)
(0.0265524 0.0236142 0)
(0.028377 0.0197018 0)
(0.0298714 0.015881 0)
(0.0310623 0.0121472 0)
(0.031983 0.00851101 0)
(0.0326682 0.00499761 0)
(0.033143 0.00166049 0)
(0.0334418 -0.00152135 0)
(0.0335939 -0.00458798 0)
(0.0336095 -0.00756485 0)
(0.033499 -0.0104933 0)
(0.0332963 -0.0134451 0)
(0.0328589 -0.0165324 0)
(0.0326431 -0.0198436 0)
(0.032723 -0.0215318 0)
(0.00267251 0.073819 0)
(0.00621971 0.0587804 0)
(0.00992271 0.0498175 0)
(0.0135069 0.0432796 0)
(0.0168248 0.0379682 0)
(0.0198084 0.0333863 0)
(0.0224433 0.0292535 0)
(0.0247283 0.0253963 0)
(0.026672 0.0217055 0)
(0.0282931 0.0181154 0)
(0.0296185 0.014592 0)
(0.0306807 0.0111243 0)
(0.0315153 0.007721 0)
(0.0321553 0.00441057 0)
(0.0326248 0.00124955 0)
(0.0329563 -0.00178792 0)
(0.033171 -0.00472936 0)
(0.0332733 -0.00758875 0)
(0.033266 -0.0104002 0)
(0.0331402 -0.0132229 0)
(0.0328667 -0.0161638 0)
(0.0326644 -0.0192959 0)
(0.0327072 -0.0207858 0)
(0.0032709 0.0694371 0)
(0.00713347 0.0546316 0)
(0.0111093 0.0459846 0)
(0.0147757 0.0398015 0)
(0.0180352 0.0348645 0)
(0.0208593 0.0306608 0)
(0.0232721 0.0268989 0)
(0.0253044 0.0233956 0)
(0.0269899 0.0200344 0)
(0.0283654 0.0167435 0)
(0.0294705 0.0134844 0)
(0.0303462 0.0102442 0)
(0.0310329 0.00703269 0)
(0.0315646 0.00388639 0)
(0.0319685 0.000859004 0)
(0.032275 -0.00206942 0)
(0.032498 -0.00491301 0)
(0.0326319 -0.00767458 0)
(0.0326706 -0.0103788 0)
(0.0326261 -0.0130763 0)
(0.0323567 -0.0158648 0)
(0.0322181 -0.018812 0)
(0.032238 -0.0200924 0)
(0.00391771 0.0643362 0)
(0.00814419 0.0500694 0)
(0.0124245 0.0419591 0)
(0.0161956 0.0363018 0)
(0.0194048 0.0318664 0)
(0.0220656 0.0281281 0)
(0.0242443 0.0247888 0)
(0.0260049 0.0216626 0)
(0.0274066 0.0186319 0)
(0.0285049 0.0156249 0)
(0.0293527 0.0126037 0)
(0.0300001 0.00955699 0)
(0.0304943 0.00649824 0)
(0.0308738 0.00347503 0)
(0.0311707 0.00053755 0)
(0.0314128 -0.00231935 0)
(0.0316058 -0.00509447 0)
(0.0317366 -0.00777871 0)
(0.0317898 -0.010387 0)
(0.0317329 -0.0129652 0)
(0.0315368 -0.0155994 0)
(0.0313285 -0.0183506 0)
(0.0312186 -0.0194288 0)
(0.00461249 0.0584591 0)
(0.00925122 0.0450516 0)
(0.0138664 0.037718 0)
(0.0177453 0.0327747 0)
(0.0208881 0.0289808 0)
(0.0233619 0.0258025 0)
(0.0252808 0.0229422 0)
(0.0267449 0.0202195 0)
(0.0278385 0.0175235 0)
(0.0286343 0.0147889 0)
(0.029197 0.0119828 0)
(0.0295855 0.00909832 0)
(0.029855 0.0061544 0)
(0.0300515 0.00320975 0)
(0.0302138 0.000317139 0)
(0.0303675 -0.00250828 0)
(0.0305099 -0.0052452 0)
(0.0306135 -0.007871 0)
(0.030647 -0.010393 0)
(0.0306007 -0.0128513 0)
(0.0303374 -0.0153231 0)
(0.0301132 -0.017873 0)
(0.0299387 -0.0187497 0)
(0.00538728 0.0517265 0)
(0.010511 0.0395294 0)
(0.0154766 0.0332524 0)
(0.0194417 0.0292399 0)
(0.0224714 0.0262402 0)
(0.024708 0.0237181 0)
(0.0263249 0.0213897 0)
(0.02746 0.0190927 0)
(0.0282203 0.0167331 0)
(0.0286923 0.014259 0)
(0.0289486 0.0116465 0)
(0.0290549 0.00889476 0)
(0.0290743 0.00602774 0)
(0.0290642 0.00311383 0)
(0.0290738 0.000216755 0)
(0.0291281 -0.00262119 0)
(0.0292111 -0.00535065 0)
(0.0292777 -0.00793292 0)
(0.0292802 -0.0103716 0)
(0.0291676 -0.0127034 0)
(0.028912 -0.0150069 0)
(0.028558 -0.0173371 0)
(0.0282215 -0.0180309 0)
(0.00631104 0.0440138 0)
(0.0120078 0.033437 0)
(0.0173414 0.0285716 0)
(0.0213309 0.0257525 0)
(0.0241565 0.0237109 0)
(0.0260742 0.0219332 0)
(0.0273302 0.0201752 0)
(0.0280988 0.0183131 0)
(0.0285032 0.0162831 0)
(0.0286355 0.0140541 0)
(0.0285702 0.0116144 0)
(0.0283752 0.00896807 0)
(0.028121 0.00614059 0)
(0.0278819 0.00320575 0)
(0.0277242 0.000246072 0)
(0.0276766 -0.00265508 0)
(0.0277045 -0.00540698 0)
(0.0277278 -0.00795409 0)
(0.0276754 -0.0103037 0)
(0.0275195 -0.0125007 0)
(0.0271397 -0.0146256 0)
(0.0267171 -0.0167395 0)
(0.0262604 -0.0172569 0)
(0.00751911 0.0351081 0)
(0.0138766 0.0266797 0)
(0.0195563 0.0237169 0)
(0.0234472 0.022417 0)
(0.0259225 0.0214989 0)
(0.0274117 0.0205281 0)
(0.0282421 0.01935 0)
(0.0286132 0.0179094 0)
(0.0286503 0.0161891 0)
(0.0284387 0.0141859 0)
(0.0280449 0.0119009 0)
(0.0275328 0.00933835 0)
(0.0269792 0.00651658 0)
(0.0264804 0.00350292 0)
(0.0261367 0.000410464 0)