/*--------------------------------*- C++ -*----------------------------------*\
  =========                 |
  \\      /  F ield         | OpenFOAM: The Open Source CFD Toolbox
   \\    /   O peration     | Website:  https://openfoam.org
    \\  /    A nd           | Version:  13
     \\/     M anipulation  |
\*---------------------------------------------------------------------------*/
FoamFile
{
    format      ascii;
    class       volScalarField;
    location    "1.35";
    object      alphas;
}
// * * * * * * * * * * * * * * * * * * * * * * * * * * * * * * * * * * * * * //

dimensions      [];

internalField   nonuniform List<scalar> 
2268
(
2
2
2
2
2
2
2
2
2
2
2
2
2
2
2
2
2
2
2
2
2
1.99953
1.99943
2
2
2
2
2
2
2
2
2
2
2
2
2
2
2
2
2
2
2
2
2
1.9999
1.99943
2
2
2
2
2
2
2
2
2
2
2
2
2
2
2
2
2
2
2
2
2
2
1.99969
2
2
2
2
2
2
2
2
2
2
2
2
2
2
2
2
2
2
2
2
2
2
1.99999
2
2
2
2
2
2
2
2
2
2
2
2
2
2
2
2
2
2
2
2
2
2
2
1.20817
1.25997
1.30677
1.42786
1.60099
1.7881
1.9292
1.99415
2
2
2
2
2
2
2
2
2
2
2
2.00001
2.00007
2.00003
1.99938
2.91962e-09
1.4292e-09
1.14153e-09
0.0132578
0.0946307
0.254602
0.523139
0.903267
1.33012
1.59716
1.76246
1.87455
1.94754
1.96775
1.92877
1.81755
1.65642
1.46631
1.28516
1.13796
1.03957
1.07488
1.27192
3.23331e-09
2.20298e-09
1.81584e-09
1.59736e-09
1.53921e-09
1.56194e-09
1.46299e-09
1.20122e-09
0.00906944
0.169841
0.354789
0.475842
0.521186
0.508417
0.4308
0.301914
0.171383
0.0784604
0.0295666
0.00930732
0.00263333
0.00611936
0.120009
1.8696
1.87937
1.94554
1.93006
1.71869
1.6983
1.6804
1.66837
1.67808
1.68702
1.84504
1.97711
1.87214
1.79461
1.61221
1.61959
1.68984
1.70384
1.70162
1.86613
1.80359
1.74858
1.74746
1.74981
1.75935
1.78253
1.9809
2.10533
2.07479
1.95358
2.02218
2.22974
2.06008
1.76592
1.56202
1.63057
1.74937
1.62367
1.85833
1.27628
1.0012
0.870699
0.785381
0.72544
0.957428
2.11038
2.37851
2.40735
2.11041
2.09159
2.18588
2.24544
2.25773
2.08607
1.94376
1.79887
1.50292
1.27106
0.991476
0.446673
0.00122254
0.00143692
0.0062563
0.403876
1.34522
1.79043
1.92465
2.15694
2.20717
2.07962
2.03898
2.11159
2.176
2.12936
1.58934
1.23023
1.09447
1.30239
0.284848
0.000302306
0.000286419
0.000974201
0.00247777
0.0224358
0.176719
0.570916
1.25623
1.78874
1.65589
0.948384
0.940394
1.11822
0.877358
0.748025
0.799124
1.09512
1.34583
0.100813
0.000225112
0.000207019
0.00211231
0.0035218
0.00286155
0.000618466
0.00889317
0.127583
0.374622
0.413139
0.230666
0.214095
0.241208
0.228865
0.307684
0.737172
1.0963
1.24565
0.107535
0.000207308
0.000191739
0.000190784
0.000404991
0.000198815
0.000246587
0.000351217
0.000330997
0.0823555
0.092919
0.152772
0.287268
0.381417
0.343965
0.457131
0.814219
1.105
0.917278
0.103638
0.000222349
0.000231559
0.000429001
0.000983175
0.000248414
0.000274763
0.000513023
0.00116874
0.0115444
0.106467
0.446815
0.774988
0.905266
0.882596
0.783654
1.03724
9.9296e-09
9.09114e-09
7.83608e-09
7.37187e-09
7.22538e-09
6.48652e-09
4.56138e-09
2.90147e-09
1.96973e-09
1.40097e-09
1.17828e-09
1.26785e-09
1.56904e-09
1.62346e-08
9.80337e-08
9.78135e-08
7.83612e-08
3.60953e-08
3.43315e-06
1.53984e-06
3.17609e-06
0.00405561
0.471632
1.83201e-08
1.72347e-08
1.59688e-08
1.90341e-08
2.80957e-08
3.45758e-08
2.78383e-08
1.86536e-08
1.02697e-08
5.08295e-09
2.9542e-09
3.14686e-09
4.64805e-09
6.66995e-09
1.06376e-08
1.7717e-08
1.01535e-08
8.6532e-09
1.1598e-08
7.25096e-08
4.27862e-05
0.466382
1.06199
3.24367e-08
2.11639e-08
1.6413e-08
4.2192e-08
7.81523e-08
9.99841e-08
8.71391e-08
6.63307e-08
4.37785e-08
2.22534e-08
9.14635e-09
6.87228e-09
7.84783e-09
8.88334e-09
8.06575e-09
8.48324e-09
5.21134e-09
2.73158e-09
2.23972e-09
0.16711
0.491677
0.919975
1.33446
3.41127e-08
2.07609e-08
3.05064e-08
1.65186e-07
2.5466e-07
2.83263e-07
2.47096e-07
1.98801e-07
1.3572e-07
8.81854e-08
2.36583e-08
1.52823e-08
1.78299e-08
1.18007e-11
0.0009184
-2.3976e-08
0.0199474
0.332933
0.645284
0.744614
1.19228
1.15156
1.00414
2.63258e-08
9.27304e-08
9.43336e-07
0.0136774
0.032485
0.0718011
0.139115
0.179438
0.127152
0.14314
0.210522
0.194905
0.145958
0.235638
0.617581
0.814235
0.874311
1.13633
1.28921
1.18298
1.05713
1.0002
1
2.37965e-08
0.000707643
0.311344
0.50952
0.664323
0.80982
1.05586
0.976186
0.96889
1.0136
1.22249
1.21938
1.24387
1.35499
1.4452
1.33014
1.1815
1.10679
1.02743
1.00035
1
1
1
1.31942
1.33301
1.34416
1.04838
1.02557
1.1577
1.27574
1.36109
1.27113
1.32831
1.2484
1.19728
1.13325
1.0706
1.02687
1.00448
1.00004
1
0.999998
0.999998
0.999999
1
1
2.95807
2.53653
1.21721
1
0.999993
1
1
1
1
1
1
1
1
1
1
1
1
1
1
0.999999
1
1
1
2.96635
2.52974
2.17043
1.90958
1.51501
1.20949
1.06335
1.00699
1
1
1
1
1
1
1
1
1
1
1
1
1
1
1
2.95486
2.97741
2.99995
2.9999
2.95736
2.71124
2.41026
2.07291
1.71775
1.46412
1.29866
1.18108
1.10334
1.05574
1.02836
1.01375
1.00717
1.00588
1.00554
1.00462
1.00357
1.01078
1.06417
2.98259
2.99999
2.99999
3
3
3
3
3
3
2.9212
2.79998
2.66434
2.52174
2.3835
2.25718
2.14885
2.07012
2.04522
2.05957
2.1051
2.22429
2.43161
2.6156
2.99818
2.99966
2.99999
3
3
3
3
3
3
3
3
3
3
3
3
3
3
3
3
3
3
3
3
3
2.99999
3
3
3
3
3
3
3
3
3
3
3
3
3
3
3
3
3
3
3
3
3
3
2.99999
2.99999
3
3
3
3
3
2.99999
2.99995
2.99988
2.99997
3
3
3
3
3
3
3
3
3
3
3
3
3
3
3
3
3
3
3
3
2.99984
2.99965
2.99976
2.99999
3
3
3
3
3
3
3
3
3
3
3
3
3
3
3
3
3
3
3
2.99986
2.99965
2.99965
2.99981
2.99999
3
3
2.99999
2.99999
3
3
3
3
3
3
3
3
3
3
3
3
3
3
3
2.99984
2.99965
2.99965
2.99992
2.99999
2.99999
2.99999
2.99999
2.99999
3
3
3
3
3
3
3
3
3
3
3
3
3
3
3
2.99994
2.99977
2.99976
2.99999
2.99999
3
2.99999
2.99999
3
3
3
3
3
3
3
3
3
3
3
3
3
3
3
3
3
2.99997
2.99995
3
3
3
3
3
3
3
3
3
3
3
3
3
3
3
3
3
3
3
3
3
3
3
2.99999
2.99999
3
3
3
3
3
3
3
3
3
3
3
3
3
3
3
3
3
3
3
3
3
3
3
3
3
3
3
3
3
3
3
3
3
3
3
3
3
3
3
3
3
3
3
3
3
3
3
3
3
3
3
3
3
3
3
3
3
3
3
3
3
3
3
3
3
3
3
3
3
3
3
3
3
3
3
3
3
3
3
3
3
3
3
3
3
3
3
3
3
3
3
3
3
3
3
3
3
3
3
3
3
3
3
3
3
3
3
3
3
3
3
3
3
3
3
3
3
3
3
3
3
3
3
3
3
3
3
3
3
3
3
3
3
3
3
3
3
3
3
3
3
3
3
3
3
3
3
3
3
3
3
3
3
3
3
3
3
3
3
3
3
3
3
3
3
3
3
3
3
3
3
3
3
3
3
3
3
3
3
3
3
3
3
3
3
3
3
3
3
3
3
3
3
3
3
3
3
3
3
3
3
3
3
3
3
3
3
3
3
3
3
3
3
3
3
3
3
3
3
3
3
3
3
3
3
3
3
3
3
3
3
3
3
3
3
3
3
3
3
3
3
3
3
3
3
3
3
3
3
3
3
3
3
3
3
3
3
3
3
3
3
3
3
3
3
3
3
3
3
3
3
3
3
3
3
3
3
3
3
3
3
3
3
3
3
3
3
3
3
3
3
3
3
3
3
3
3
3
3
3
3
3
3
3
3
3
3
3
3
3
3
3
3
3
3
3
3
3
3
3
3
3
3
3
3
3
3
3
3
3
3
3
3
3
3
3
3
3
3
3
3
3
3
3
3
3
3
3
3
3
3
3
3
3
3
3
3
3
3
3
3
3
3
3
3
3
3
3
3
3
3
3
3
3
3
3
3
3
3
3
3
3
3
3
3
3
3
3
3
3
3
3
3
3
3
3
3
3
3
3
3
3
3
3
3
3
3
3
3
3
3
3
3
3
3
3
3
3
3
3
3
3
3
3
3
3
3
3
3
3
3
3
3
3
3
3
3
3
3
3
3
3
3
3
3
3
3
3
3
3
3
3
3
3
3
3
3
3
3
3
3
3
3
3
3
3
3
3
3
3
3
3
3
3
3
3
3
3
3
3
3
3
3
3
3
3
3
3
3
3
3
3
3
3
3
3
3
3
3
3
3
3
3
3
3
3
3
3
3
3
3
3
0.776072
0.842798
1.42084
1.23628
1.28774
1.31854
1.34837
1.16698
1.20873
1.1478
1.01388
0.999486
1.00003
1
1
1.00001
1
1
1
1
1
1
1.00001
1.00001
1
1
1.00001
1.00001
1
1
1
1
1
1
1
1
1.145
1.1757
1.16057
1.15298
2.72491
2.78122
2.84318
2.92787
3
3
3
3
3
3
3
3
3
3
3
3
3
3
3
3
3
3
3
3
3
3
3
3
3
3
3
3
3
3
3
3
3
3
3
3
3
3
3
3
3
3
3
3
3
3
3
3
3
3
3
3
3
3
3
3
3
3
3
3
3
3
3
3
3
3
3
3
3
3
3
3
3
3
3
3
3
3
3
3
3
3
3
3
3
3
3
3
3
3
3
3
3
3
3
3
3
3
3
3
3
3
3
3
3
3
3
3
3
3
3
3
3
3
3
3
3
3
3
3
3
3
3
3
1.13591
0.678064
0.0251157
0.00120291
0.0160272
0.0654703
0.144622
0.227802
0.292887
0.340977
0.414388
0.523684
0.674432
0.863041
0.991185
1.00226
1.00186
0.974425
1.03689
1.30565
0.586798
0.0845225
0.154068
0.277939
0.65407
0.875935
0.937358
0.967958
0.988834
1.00021
1.00046
1.00063
1.00108
1.00183
1.00182
1.00113
0.999573
1.15514
1.31614
1.03032
0.513743
0.581437
0.97763
1.00408
1.00025
1.00055
1.00061
1.0003
1
1.00001
1.00004
1.00009
1.0001
1.00009
1.00009
1.07803
1.48706
1.1162
1.19342
1.09855
1.21102
1.09656
1
1
1
1
1
1
1
1
1.00001
1.00003
1.00004
0.999755
1.35949
1.67361
0.997911
1.18468
1.21631
1.08763
1.00048
1
1
1
1
1.00318
1.00687
1.06829
1.22986
1.25754
1.30115
1.43581
1.50587
1.62136
1.84565
0.999671
1.00225
1.00077
1
1
1
1
1
1.01858
1.1689
1.86867
2.51788
2.66315
2.65502
2.63525
2.64561
2.73502
2.68743
2.65159
1
1
1
1
1
1
1.04174
1.25546
2.16954
2.93124
2.99519
3
3
2.99999
2.99993
2.99969
2.99969
2.99998
2.99999
1
1
1
1
1.07155
1.27703
2.25235
2.99425
3
3
3
3
3
2.99998
2.99594
2.99461
2.99805
3
3
1
1.01391
1.05882
1.41048
2.60844
3
3
3
3
3
3
3
2.99994
2.99239
2.99162
2.99563
2.99903
3
3
1.59745
2.38183
2.90216
3
3
3
3
3
2.99962
2.99824
2.99929
3
2.99964
2.99377
2.99667
2.9999
2.99999
3
3
3
3
3
3
3
3
3
2.99984
2.99782
2.99782
2.99808
3
2.9997
2.99983
3
3
3
3
3
3
3
3
3
3
3
2.99999
2.9998
2.99905
2.99852
2.99942
3
2.99999
3
3
3
3
3
3
3
3
3
3
3
2.99999
2.99999
2.99996
3
2.99999
3
2.99998
3
3
3
3
3
3
3
3
3
3
3
3
3
3
3
3
3
3
3
3
3
3
3
3
3
3
3
3
3
3
3
3
3
3
3
3
3
3
3
3
3
3
3
3
3
3
3
3
3
3
3
3
3
3
3
3
3
3
3
3
3
3
3
3
3
3
3
3
3
3
3
3
3
3
3
3
3
3
3
3
3
3
3
3
3
3
3
3
3
3
3
3
3
3
3
3
3
3
3
3
3
3
3
3
3
3
3
3
3
3
3
3
3
3
3
3
3
3
3
3
3
3
3
3
3
3
3
3
3
3
3
3
3
3
3
3
3
3
3
3
3
3
3
3
3
3
3
3
3
3
3
3
3
3
3
3
3
3
3
3
3
3
3
3
3
3
3
3
3
3
3
3
3
3
3
3
3
3
3
3
3
3
3
3
3
3
3
3
3
3
3
3
3
3
3
3
3
3
3
3
3
3
3
3
3
3
3
3
3
3
3
3
3
3
3
3
3
3
3
3
3
3
3
3
3
3
3
3
3
3
3
3
3
3
3
3
3
3
3
3
3
3
3
3
3
3
3
3
3
3
3
3
3
3
3
3
3
3
3
3
3
3
3
3
3
3
3
3
3
3
3
3
3
3
3
3
3
3
3
3
3
3
3
3
3
3
3
3
3
3
3
3
3
3
3
3
3
3
3
3
3
3
3
3
3
3
3
3
3
3
3
3
3
3
3
3
3
3
3
3
3
3
3
3
3
3
3
3
3
3
3
3
3
3
3
3
3
3
3
3
3
3
3
3
3
3
3
3
3
3
3
3
3
3
3
3
3
3
3
3
3
3
3
3
3
3
3
3
3
3
3
3
3
3
3
3
3
3
3
3
3
3
3
3
3
3
3
3
3
3
3
3
3
3
3
3
3
3
3
3
3
3
3
3
3
3
3
3
3
3
3
3
3
3
3
3
3
3
3
3
3
3
3
3
3
3
3
3
3
3
3
3
3
3
3
3
3
3
3
3
3
3
3
3
3
3
3
3
3
3
3
3
3
3
3
3
3
3
3
3
3
3
3
3
3
3
3
3
3
3
3
3
3
3
3
3
3
3
3
3
3
3
3
3
3
3
3
3
3
3
3
3
3
3
3
3
3
3
3
3
3
3
3
3
3
3
3
3
3
3
3
3
3
3
3
3
3
3
3
3
3
3
3
3
3
3
3
3
3
3
3
3
3
3
3
3
3
3
3
3
3
3
3
3
3
3
3
3
3
3
3
3
3
3
3
3
3
3
)
;

boundaryField
{
    leftWall
    {
        type            calculated;
        value           nonuniform List<scalar> 
50
(
2
2
2
2
2
1.20817
2.91962e-09
3.23331e-09
9.9296e-09
1.83201e-08
3.24367e-08
3.41127e-08
2.63258e-08
2.37965e-08
1.31942
2.95807
2.96635
2.95486
2.98259
2.99818
3
3
3
3
3
3
3
3
3
3
3
3
3
3
3
3
3
3
3
3
3
3
3
3
3
3
3
3
3
3
)
;
    }
    rightWall
    {
        type            calculated;
        value           nonuniform List<scalar> 
50
(
1.70162
1.62367
1.50292
1.23023
0.799124
0.737172
0.814219
1.03724
1.03689
1.15514
1.48706
1.67361
1.84565
2.65159
2.99999
3
3
3
3
3
3
3
3
3
3
3
3
3
3
3
3
3
3
3
3
3
3
3
3
3
3
3
3
3
3
3
3
3
3
3
)
;
    }
    lowerWall
    {
        type            calculated;
        value           nonuniform List<scalar> 
62
(
2
2
2
2
2
2
2
2
2
2
2
2
2
2
2
2
2
2
2
2
2
1.99953
1.99943
1.99943
1.99943
1.99969
1.99999
2
1.99938
1.27192
0.120009
0.776072
0.842798
1.42084
1.23628
1.8696
1.86613
1.85833
1.27106
1.09447
1.09512
1.0963
1.105
1.8696
1.87937
1.94554
1.93006
1.71869
1.6983
1.6804
1.66837
1.67808
1.68702
1.84504
1.97711
1.87214
1.79461
1.61221
1.61959
1.68984
1.70384
1.70162
)
;
    }
    atmosphere
    {
        type            calculated;
        value           nonuniform List<scalar> 
46
(
3
3
3
3
3
3
3
3
3
3
3
3
3
3
3
3
3
3
3
3
3
3
3
3
3
3
3
3
3
3
3
3
3
3
3
3
3
3
3
3
3
3
3
3
3
3
)
;
    }
    defaultFaces
    {
        type            empty;
    }
}


// ************************************************************************* //
