/*--------------------------------*- C++ -*----------------------------------*\
  =========                 |
  \\      /  F ield         | OpenFOAM: The Open Source CFD Toolbox
   \\    /   O peration     | Website:  https://openfoam.org
    \\  /    A nd           | Version:  13
     \\/     M anipulation  |
\*---------------------------------------------------------------------------*/
FoamFile
{
    format      ascii;
    class       volScalarField;
    location    "1.35";
    object      alpha.water;
}
// * * * * * * * * * * * * * * * * * * * * * * * * * * * * * * * * * * * * * //

dimensions      [];

internalField   nonuniform List<scalar> 
2268
(
2.41654e-11
4.17704e-11
6.22233e-11
7.04157e-11
7.22363e-11
7.51918e-11
7.37331e-11
7.30552e-11
7.16423e-11
7.27415e-11
7.83965e-11
9.15168e-11
1.13043e-10
1.43659e-10
1.85966e-10
2.4739e-10
3.36519e-10
4.67982e-10
7.55623e-10
1.2186e-09
1.95988e-09
2.51281e-09
2.57946e-09
7.49429e-11
2.09588e-10
2.6074e-10
2.46268e-10
2.34048e-10
2.4271e-10
2.62496e-10
2.76418e-10
2.83926e-10
2.84158e-10
2.86121e-10
2.98287e-10
3.24187e-10
3.60275e-10
3.94292e-10
4.34511e-10
5.18413e-10
7.39706e-10
1.20144e-09
1.87198e-09
3.00004e-09
3.24293e-09
2.87275e-09
5.56631e-10
7.32798e-10
6.6971e-10
5.28017e-10
4.34927e-10
4.39159e-10
5.05811e-10
5.94735e-10
6.98353e-10
7.94969e-10
8.67186e-10
9.33075e-10
9.79767e-10
9.75645e-10
8.78905e-10
6.74253e-10
6.75906e-10
8.71459e-10
1.19767e-09
1.75751e-09
2.80407e-09
3.22906e-09
2.85461e-09
9.98709e-10
5.31439e-10
4.97855e-10
3.82264e-10
3.73098e-10
3.82783e-10
5.27704e-10
7.12509e-10
9.59338e-10
1.27154e-09
1.60737e-09
1.89226e-09
2.04111e-09
2.00913e-09
1.48088e-09
7.23386e-10
6.32159e-10
7.14332e-10
8.48299e-10
1.02649e-09
1.30014e-09
1.32578e-09
1.11525e-09
5.74933e-10
3.88759e-10
-4.7404e-13
3.80353e-10
4.09836e-19
3.67736e-10
-2.00029e-11
3.68442e-10
5.45941e-10
7.5142e-10
1.01176e-09
1.28577e-09
1.39699e-09
1.13229e-09
5.30894e-10
3.39351e-10
2.00991e-10
1.67589e-10
1.20942e-10
1.27547e-10
1.19362e-10
2.32353e-11
1.39101e-11
0.395913
0.370016
0.346614
0.286072
0.199507
0.105952
0.0353999
0.0029254
4.12649e-10
4.01341e-10
4.13622e-10
4.02317e-10
4.14892e-10
1.90082e-09
1.5957e-09
9.8732e-10
1.38316e-20
6.56085e-22
-9.35875e-11
-6.74895e-11
-1.00948e-10
0
1.02514e-13
1
1
1
0.993371
0.952685
0.872699
0.73843
0.548366
0.334941
0.201419
0.118769
0.062726
0.0262298
0.0161236
0.0356171
0.0912264
0.171788
0.26684
0.357418
0.431063
0.48027
0.462574
0.363677
1
1
1
1
1
1
1
1
0.995465
0.91508
0.822605
0.762079
0.739407
0.745792
0.7846
0.849043
0.914308
0.960768
0.985214
0.995365
0.998708
0.99694
0.939909
0.00671506
0.0242986
0.0454664
0.0285185
0.00748315
0.00464798
0.00522009
0.00339688
0.00286958
0.0018285
0.00125876
0.0173384
0.108789
0.123212
0.123212
0.0882496
0.0221901
0.0189481
0.018891
0.0096661
0.0471845
0.119943
0.126268
0.123914
0.113528
0.106978
0.0482595
0.00666871
0.00126303
0.0013479
0.0048071
0.0166484
0.0633062
0.121177
0.120616
0.0868927
0.0216646
0.018891
0.00924124
0.0998047
0.484573
0.56467
0.607313
0.638058
0.581774
0.18609
0.0367431
0.00127051
0.00127576
0.00129041
0.00130141
0.014166
0.0268389
0.0434227
0.0529257
0.0875642
0.0189
0.00124426
0.168872
0.776698
0.999592
0.99952
0.997914
0.865375
0.484743
0.246605
0.192374
0.0773569
0.0189541
0.0370979
0.0575251
0.0349477
0.0341184
0.0710679
0.206032
0.164815
0.000422699
0.141877
0.857588
0.999898
0.999892
0.999516
0.998574
0.978489
0.866931
0.663244
0.424738
0.289129
0.302478
0.51037
0.500669
0.43413
0.531645
0.431256
0.368736
0.001261
0.165198
0.949709
0.999898
0.999898
0.998944
0.998234
0.998567
0.999687
0.99112
0.872439
0.744026
0.746364
0.845457
0.843856
0.823831
0.817978
0.696072
0.444625
5.19515e-05
0.292236
0.948912
0.999898
0.999898
0.999898
0.999801
0.999896
0.999896
0.999853
0.99983
0.917666
0.907105
0.847239
0.712773
0.62788
0.664941
0.549024
0.435047
3.64545e-05
0.354035
0.952102
0.999898
0.999898
0.999841
0.999654
0.999896
0.999891
0.999806
0.999163
0.988645
0.893584
0.553729
0.225775
0.0950663
0.117581
0.216347
0.208262
1
1
1
1
1
1
1
1
1
1
1
1
1
1
1
1
1
1
0.999998
0.999999
0.999999
0.996244
0.830349
1
1
1
1
1
1
1
1
1
1
1
1
1
1
1
1
1
1
1
1
0.999986
0.843019
0.443083
1
1
1
1
1
1
1
1
1
1
1
1
1
1
1
1
1
1
1
0.944297
0.836108
0.496423
0.00770833
1
1
1
1
1
1
1
1
1
1
1
1
1
1
0.999694
1
0.993351
0.889022
0.784905
0.700252
0.257515
0.00339561
3.34799e-09
1
1
1
0.995441
0.984575
0.971701
0.952845
0.940187
0.957616
0.952287
0.929826
0.935032
0.951347
0.920636
0.792212
0.728589
0.674005
0.411371
0.168669
0.0294956
2.68574e-09
2.81753e-09
6.92034e-08
1
0.99959
0.858837
0.563069
0.394296
0.373826
0.363542
0.449109
0.465789
0.470578
0.421852
0.425273
0.398519
0.288636
0.165626
0.0813114
0.0258663
0.000618812
3.85569e-07
2.94942e-07
3.8732e-07
7.28525e-08
5.36325e-08
0.560194
0.505348
0.114008
-5.35268e-12
1.37109e-13
3.04138e-17
1.23572e-21
1.89435e-16
-3.32026e-08
8.27102e-17
4.77103e-26
-3.34788e-27
3.23115e-28
3.04183e-26
1.22381e-25
-1.06588e-19
9.33934e-20
1.80718e-07
1.86811e-06
1.96025e-06
1.01954e-06
8.81954e-09
1.33234e-08
0.00421443
5.83905e-29
1.25178e-22
1.38098e-06
3.25707e-06
2.37854e-06
4.42111e-07
5.41205e-08
8.77513e-08
3.96991e-08
1.81268e-08
7.36649e-09
5.81487e-09
4.31616e-09
2.36918e-07
4.96196e-07
4.66583e-07
4.10204e-07
1.10316e-06
1.13404e-06
2.89606e-07
3.64289e-08
5.63205e-09
-2.31848e-09
1.46664e-23
7.95871e-06
3.3982e-05
4.09245e-05
2.01795e-05
2.73311e-08
2.15211e-07
4.28095e-07
2.28177e-07
7.40528e-08
1.97931e-08
2.0438e-08
1.97856e-08
1.39032e-07
3.91031e-07
2.29313e-07
2.2358e-08
2.05218e-08
3.19176e-08
8.71358e-09
4.272e-09
1.69097e-09
0
1.93327e-06
1.65209e-05
3.35916e-05
3.70187e-05
1.35716e-05
3.15086e-08
1.75689e-07
5.32149e-07
5.42493e-07
4.43498e-08
2.84931e-08
1.27043e-08
1.03025e-08
1.65635e-08
4.28217e-08
2.60246e-08
6.11731e-09
2.38248e-09
1.54307e-09
6.06372e-10
2.74439e-10
1.53678e-10
-7.70646e-08
1.5133e-06
2.7132e-06
8.67062e-09
1.27094e-09
7.01166e-09
3.49406e-08
7.41669e-08
3.06246e-07
3.95003e-07
1.32362e-07
8.29064e-08
3.43896e-08
4.93359e-10
4.82988e-10
4.93359e-10
5.02037e-10
1.1171e-09
6.87448e-10
3.2396e-10
1.57348e-10
1.00666e-10
1.00476e-10
-2.48127e-07
-2.14004e-08
1.32349e-24
8.97137e-09
1.11828e-08
8.32596e-09
1.85924e-08
1.25753e-08
1.17893e-08
8.10539e-08
3.14499e-07
2.67882e-07
9.1313e-08
1.03833e-09
4.73702e-10
6.36328e-10
9.13205e-10
9.18698e-10
5.69011e-10
3.90916e-10
3.59124e-10
3.70407e-10
3.78437e-10
-6.37176e-08
1.48249e-08
1.05663e-08
1.46108e-08
1.13815e-08
6.45233e-09
1.51722e-09
7.75652e-10
9.98514e-09
1.58074e-07
5.87953e-07
7.21696e-07
5.95652e-08
4.46363e-10
4.35967e-10
4.47505e-10
5.68077e-10
5.48215e-10
5.17473e-10
5.48364e-10
5.94877e-10
5.68352e-10
4.93615e-10
6.64951e-08
4.28538e-08
1.12675e-08
2.57455e-08
2.31891e-08
2.37228e-09
4.75159e-10
7.37072e-10
1.64942e-08
2.51804e-07
2.37372e-06
2.62179e-06
9.06348e-07
6.55892e-08
2.64554e-08
1.27005e-08
1.96471e-08
6.1656e-09
4.54939e-10
5.16348e-10
7.53302e-10
4.73529e-10
4.69594e-10
4.45435e-08
1.20724e-08
1.3321e-08
2.26441e-08
1.14687e-08
2.51197e-09
1.02162e-09
7.79273e-10
2.66775e-09
1.77805e-07
2.22318e-06
2.64856e-06
2.3997e-06
4.77619e-07
2.24861e-07
1.56693e-07
2.57833e-07
1.28502e-07
1.63481e-08
5.14707e-10
3.19915e-09
3.9389e-09
1.11902e-09
1.8411e-08
1.19599e-08
7.7884e-09
5.7226e-09
5.35803e-09
4.93788e-09
1.92697e-09
5.7018e-10
2.87191e-10
2.74332e-10
4.30856e-07
2.26938e-06
2.62049e-06
2.50308e-06
7.57369e-07
1.02985e-06
2.33553e-06
2.34547e-06
1.94804e-07
1.96817e-09
1.13363e-08
3.25343e-08
2.51345e-08
2.18803e-08
1.70381e-08
4.45384e-09
3.14144e-09
3.42316e-09
3.94444e-09
2.90732e-09
1.06819e-09
4.15164e-10
2.80974e-10
2.46033e-10
7.15973e-08
2.11356e-06
3.20029e-06
3.1233e-06
3.15755e-06
3.22789e-06
3.15755e-06
2.61265e-06
2.19281e-09
1.27913e-08
5.02335e-08
6.89053e-08
1.95637e-08
1.60513e-08
4.98353e-09
3.12536e-09
3.32435e-09
3.16431e-09
3.00465e-09
1.7697e-09
6.6301e-10
3.3281e-10
2.39034e-10
2.21937e-10
5.52328e-09
6.9239e-07
1.70171e-06
1.67335e-06
1.52834e-06
3.1873e-06
3.0033e-06
3.11924e-07
4.98925e-09
3.46356e-08
5.74239e-08
1.69505e-08
1.53471e-08
6.20193e-09
3.10356e-09
3.09806e-09
2.76982e-09
2.66802e-09
2.51468e-09
1.31957e-09
4.84237e-10
3.06161e-10
2.26618e-10
2.14191e-10
1.99013e-08
2.24494e-07
4.02524e-07
4.42155e-07
2.94014e-07
3.49934e-07
4.09072e-07
6.21414e-08
1.64976e-08
2.12377e-08
1.3564e-08
1.24574e-08
7.31834e-09
3.31511e-09
2.71328e-09
2.48916e-09
2.40687e-09
2.40101e-09
2.13125e-09
9.99195e-10
4.18929e-10
2.77487e-10
2.18192e-10
2.55844e-10
2.95259e-09
1.29084e-08
3.94251e-08
6.08132e-08
5.13242e-08
5.52242e-08
5.36525e-08
2.16756e-08
8.41247e-09
1.1149e-08
9.63254e-09
6.80407e-09
3.34512e-09
2.58649e-09
2.13563e-09
2.02e-09
2.09536e-09
2.12358e-09
1.54591e-09
8.14399e-10
4.03337e-10
2.74379e-10
2.0754e-10
1.47836e-10
1.44578e-10
1.43234e-10
6.63017e-10
5.14098e-09
6.29024e-09
6.2573e-09
6.20302e-09
1.89323e-09
9.65444e-09
7.15656e-09
5.49811e-09
2.93475e-09
2.3049e-09
1.78055e-09
1.5994e-09
1.56831e-09
1.62119e-09
1.58392e-09
1.12959e-09
6.41794e-10
3.35227e-10
2.02026e-10
1.60408e-10
1.45493e-10
1.64629e-10
2.47233e-10
3.76243e-10
7.85071e-10
9.66621e-10
1.07368e-09
6.38226e-10
7.75661e-09
5.04089e-09
4.02311e-09
2.27477e-09
1.80503e-09
1.39942e-09
1.19322e-09
1.1065e-09
1.12311e-09
1.13439e-09
1.06553e-09
7.39405e-10
4.55235e-10
2.41293e-10
1.28558e-10
9.90266e-11
8.69608e-11
9.08691e-11
1.10841e-10
1.32947e-10
1.5937e-10
1.73535e-10
1.67006e-10
5.33816e-09
3.33495e-09
2.58991e-09
1.53385e-09
1.22248e-09
9.71954e-10
8.17838e-10
7.23508e-10
7.02015e-10
7.14014e-10
6.92713e-10
6.19701e-10
4.38876e-10
2.77005e-10
1.40266e-10
7.36725e-11
5.30731e-11
4.54807e-11
4.5365e-11
5.10135e-11
5.44564e-11
5.69232e-11
5.77349e-11
3.56078e-09
2.15805e-09
1.54761e-09
9.59449e-10
7.11884e-10
5.6949e-10
4.95042e-10
4.35304e-10
4.03216e-10
3.99452e-10
3.98113e-10
3.7137e-10
3.05802e-10
2.2135e-10
1.34229e-10
6.44009e-11
3.48744e-11
2.50157e-11
2.18622e-11
2.20409e-11
2.33208e-11
2.45071e-11
2.56863e-11
1.97432e-09
1.18652e-09
8.15496e-10
5.12792e-10
3.74985e-10
2.89972e-10
2.51985e-10
2.22368e-10
2.03908e-10
1.9974e-10
1.98131e-10
1.85581e-10
1.64558e-10
1.30887e-10
8.97618e-11
4.90117e-11
2.10961e-11
1.38049e-11
1.04593e-11
9.84552e-12
1.03074e-11
1.08983e-11
1.1279e-11
9.64375e-10
6.1591e-10
3.98322e-10
2.49087e-10
1.69949e-10
1.32681e-10
1.15011e-10
9.94797e-11
9.08125e-11
8.56264e-11
8.46366e-11
8.01518e-11
7.2092e-11
6.0608e-11
4.3861e-11
2.67121e-11
1.08735e-11
6.73961e-12
4.80704e-12
4.29882e-12
4.3018e-12
4.43756e-12
4.67249e-12
3.61352e-10
2.42882e-10
1.53213e-10
9.73164e-11
6.74442e-11
5.00809e-11
4.32216e-11
3.81574e-11
3.44443e-11
3.23627e-11
3.0984e-11
2.90506e-11
2.64689e-11
2.28282e-11
1.66929e-11
1.05687e-11
4.40959e-12
2.71592e-12
1.9449e-12
1.71902e-12
1.7316e-12
1.76789e-12
1.74314e-12
1.21036e-10
8.81952e-11
5.32173e-11
3.33095e-11
2.25725e-11
1.60423e-11
1.36355e-11
1.19375e-11
1.10923e-11
1.04732e-11
9.94428e-12
9.27615e-12
8.35435e-12
7.1778e-12
5.22668e-12
3.30472e-12
1.42888e-12
8.91203e-13
6.6726e-13
6.11909e-13
6.1961e-13
6.04515e-13
5.67826e-13
2.96446e-11
2.48538e-11
1.64512e-11
9.42733e-12
6.01441e-12
4.33763e-12
3.63113e-12
3.15147e-12
2.92042e-12
2.78477e-12
2.66986e-12
2.41983e-12
2.19514e-12
1.83229e-12
1.32139e-12
8.33506e-13
4.06295e-13
2.28802e-13
1.98109e-13
1.92466e-13
1.97232e-13
1.88702e-13
1.62782e-13
5.77788e-12
5.62467e-12
3.67934e-12
2.18201e-12
1.44554e-12
1.00579e-12
8.03594e-13
7.03156e-13
6.39714e-13
6.19767e-13
5.90325e-13
5.41948e-13
4.88745e-13
3.96031e-13
2.82818e-13
1.72239e-13
8.9987e-14
5.62604e-14
5.3573e-14
5.43985e-14
5.36079e-14
4.74969e-14
3.78806e-14
1.08349e-12
1.16267e-12
8.07382e-13
4.78211e-13
2.83992e-13
1.86798e-13
1.47155e-13
1.29029e-13
1.14937e-13
1.11848e-13
1.07697e-13
1.01249e-13
8.98125e-14
7.14938e-14
4.83795e-14
2.85819e-14
1.62694e-14
1.28963e-14
1.28969e-14
1.31587e-14
1.26351e-14
1.03572e-14
7.53642e-15
1.79379e-13
2.05432e-13
1.43724e-13
8.45644e-14
4.96922e-14
3.16195e-14
2.11785e-14
1.65116e-14
1.60394e-14
1.56298e-14
1.55149e-14
1.5175e-14
1.35071e-14
1.02423e-14
6.77401e-15
4.13939e-15
2.85987e-15
2.6713e-15
2.76053e-15
2.7342e-15
2.4278e-15
1.72292e-15
1.10755e-15
2.70449e-14
3.00024e-14
2.15763e-14
1.25636e-14
6.97778e-15
4.19477e-15
2.82309e-15
1.95966e-15
1.84991e-15
1.98591e-15
2.05036e-15
1.93047e-15
1.60906e-15
1.19314e-15
8.15044e-16
5.62058e-16
5.04818e-16
5.14769e-16
5.19005e-16
4.74531e-16
3.80669e-16
2.37911e-16
1.35155e-16
3.64535e-15
3.94767e-15
2.77489e-15
1.59268e-15
8.69702e-16
4.69504e-16
3.1114e-16
2.10961e-16
1.92821e-16
2.14978e-16
2.20711e-16
2.06171e-16
1.71798e-16
1.29005e-16
9.20575e-17
8.02379e-17
8.30678e-17
8.62747e-17
8.19796e-17
6.80743e-17
4.75441e-17
2.69453e-17
1.42841e-17
4.29295e-16
4.47827e-16
3.01678e-16
1.70079e-16
8.9996e-17
4.98358e-17
3.12322e-17
2.05875e-17
1.8193e-17
2.02388e-17
2.06884e-17
1.94928e-17
1.64078e-17
1.27087e-17
1.08715e-17
1.13525e-17
1.22517e-17
1.21265e-17
1.05645e-17
7.79767e-18
4.88494e-18
2.44466e-18
1.25485e-18
4.60521e-17
4.41399e-17
2.84169e-17
1.58067e-17
8.43128e-18
4.65967e-18
2.75626e-18
1.7713e-18
1.4536e-18
1.62718e-18
1.69416e-18
1.62002e-18
1.40986e-18
1.25083e-18
1.31399e-18
1.48206e-18
1.57567e-18
1.4711e-18
1.15763e-18
7.56615e-19
4.14885e-19
1.90521e-19
4.12207e-20
4.43987e-18
3.91117e-18
2.41894e-18
1.32793e-18
7.04693e-19
3.81253e-19
2.17874e-19
1.34468e-19
1.02054e-19
1.12212e-19
1.20873e-19
1.20734e-19
1.17647e-19
1.26073e-19
1.50015e-19
1.73134e-19
1.77019e-19
1.54253e-19
1.09092e-19
6.36915e-20
3.11674e-20
6.0487e-21
4.77e-22
3.81751e-19
3.13007e-19
1.88263e-19
1.0204e-19
5.32422e-20
2.82647e-20
1.55411e-20
8.84786e-21
6.23779e-21
6.62882e-21
7.49388e-21
8.44948e-21
9.62797e-21
1.22349e-20
1.56657e-20
1.80579e-20
1.78297e-20
1.44929e-20
9.31881e-21
5.03399e-21
1.18384e-21
1.12072e-22
1.07345e-23
2.90389e-20
2.26254e-20
1.32378e-20
7.06133e-21
3.65512e-21
1.89862e-21
9.99695e-22
5.44383e-22
3.62702e-22
3.80251e-22
4.65449e-22
6.00458e-22
8.40721e-22
1.2059e-21
1.56282e-21
1.76546e-21
1.69252e-21
1.29813e-21
6.9902e-22
2.39857e-22
3.70657e-23
5.15422e-24
2.28508e-25
1.91102e-21
1.44997e-21
8.2979e-22
4.35613e-22
2.23054e-22
1.12328e-22
5.64514e-23
2.87192e-23
1.80796e-23
1.99198e-23
2.85428e-23
4.52658e-23
7.40611e-23
1.12285e-22
1.45288e-22
1.55847e-22
1.43605e-22
9.99242e-23
4.57852e-23
1.24e-23
1.62587e-24
5.56743e-26
5.70958e-28
1.00088e-22
7.79695e-23
4.46755e-23
2.28503e-23
1.14246e-23
5.73501e-24
2.74979e-24
1.32795e-24
8.24501e-25
1.06578e-24
1.86836e-24
3.53121e-24
6.38371e-24
9.87476e-24
1.26171e-23
1.27057e-23
1.11648e-23
7.21738e-24
2.99755e-24
6.93449e-25
6.24451e-26
1.43688e-27
5.37999e-29
0.72852
0.659795
0.0556339
0.02237
0.215809
0.167755
0.0239507
0.012946
2.5898e-08
1.25637e-07
0.00269428
0.000613687
4.11451e-09
2.81628e-07
2.51359e-07
7.02613e-06
2.49542e-07
3.10904e-07
4.97558e-07
5.09404e-07
5.8651e-08
6.29476e-08
-1.33017e-08
4.01272e-07
1.7275e-08
1.00741e-09
4.89311e-08
6.22828e-07
4.75128e-09
1.22393e-09
9.88121e-10
3.54747e-08
5.67576e-10
6.48437e-10
2.33624e-09
7.3302e-09
1.01449e-10
1.37761e-10
2.8698e-10
2.53565e-10
1.046e-10
1.10206e-10
1.18973e-10
1.29424e-10
3.74109e-10
3.7248e-10
3.67233e-10
3.48943e-10
4.48649e-10
4.49365e-10
4.02952e-10
3.3996e-10
6.62367e-10
8.05571e-10
7.65286e-10
6.3552e-10
7.36775e-10
2.98527e-09
4.45779e-09
4.2674e-09
1.53766e-08
1.34845e-08
1.41124e-08
1.25477e-08
6.33509e-08
2.47664e-08
3.23135e-08
2.50162e-08
6.28893e-08
3.25671e-08
3.39732e-08
3.08348e-08
2.60237e-08
2.26742e-08
2.16129e-08
1.98086e-08
4.55575e-09
4.51086e-09
5.02805e-09
5.74561e-09
6.91706e-10
8.62973e-10
9.13236e-10
9.27451e-10
1.94128e-10
2.09573e-10
2.1406e-10
2.13954e-10
9.4537e-11
9.02407e-11
8.86677e-11
8.70332e-11
5.0876e-11
4.85855e-11
4.59582e-11
4.39866e-11
2.47862e-11
2.38219e-11
2.31181e-11
2.17481e-11
1.10391e-11
1.06367e-11
1.0162e-11
9.53512e-12
4.58683e-12
4.40635e-12
4.19571e-12
3.92633e-12
1.70025e-12
1.60098e-12
1.49392e-12
1.38386e-12
5.4448e-13
4.98306e-13
4.60832e-13
4.17051e-13
1.49857e-13
1.32695e-13
1.16898e-13
1.00885e-13
3.22505e-14
2.72048e-14
2.3111e-14
1.9126e-14
6.12144e-15
4.84058e-15
3.72667e-15
2.81474e-15
8.35215e-16
6.12611e-16
4.4024e-16
3.14096e-16
9.54476e-17
6.5281e-17
4.57548e-17
3.06924e-17
9.95744e-18
5.92859e-18
1.60129e-18
1.51427e-19
3.22631e-19
3.62493e-20
6.79199e-22
8.73935e-24
1.6776e-23
1.92184e-27
9.89851e-27
2.97711e-26
2.09718e-28
4.96022e-28
2.10572e-27
7.25461e-27
2.07613e-28
6.09891e-28
2.39619e-27
7.88601e-27
2.05307e-28
6.80111e-28
2.50229e-27
8.09761e-27
2.03193e-28
6.18604e-28
2.143e-27
6.50185e-27
1.27663e-28
4.14715e-28
1.27495e-27
3.27515e-27
1.24206e-05
0.441299
0.98797
0.999599
0.992729
0.944887
0.860601
0.772545
0.707369
0.659375
0.586158
0.476957
0.326052
0.137808
0.0105081
9.25501e-09
9.39852e-09
0.0255752
0.130902
3.64545e-05
0.615585
0.968488
0.948535
0.821518
0.376526
0.12777
0.0628303
0.0322262
0.0113542
2.3842e-13
-8.84914e-13
-2.22572e-13
-8.06072e-22
1.98452e-22
8.70704e-09
8.78337e-09
0.00050216
0.046076
2.65885e-06
0.426371
0.824487
0.764823
0.240564
3.89985e-09
0
-5.65517e-26
-1.99941e-09
-4.39875e-09
-3.47626e-09
-1.21548e-09
-2.05051e-10
-1.60506e-11
-4.98733e-13
5.55255e-11
2.3568e-07
3.21041e-07
0.0213771
3.72774e-07
0.181555
0.273949
0.151689
0.00837978
9.59794e-13
2.71959e-09
2.76402e-09
2.84803e-09
1.29063e-09
1.36319e-09
2.60045e-08
3.83707e-08
1.75805e-08
5.13595e-07
5.32989e-08
0.000294726
0.0199593
0.0227181
0.00318649
0.00240699
3.81984e-10
7.56466e-10
3.81516e-10
2.6536e-09
7.01409e-09
7.19472e-09
7.01197e-09
2.65505e-09
5.22407e-14
5.94195e-08
8.25312e-08
8.94939e-11
2.38942e-06
9.92393e-19
0.000542049
0.0121913
0.0230813
0.00033084
1.59314e-05
3.58652e-09
4.86673e-09
8.59434e-09
8.85384e-09
7.71685e-09
2.61546e-09
1.27489e-09
1.20872e-09
-1.17912e-19
3.0999e-08
6.30076e-08
3.44686e-10
7.79989e-06
8.84724e-06
0.00012917
0.00032398
0.0061662
5.77102e-08
2.24169e-07
2.28672e-08
3.24822e-09
3.26067e-09
3.02905e-09
1.29873e-09
2.52531e-10
2.94238e-11
3.63847e-11
1.8129e-12
1.31419e-09
1.24537e-09
1.96024e-06
9.41748e-06
7.55973e-06
3.37238e-08
1.50239e-10
7.1778e-08
7.70681e-08
4.42607e-08
1.17666e-08
6.26034e-10
2.94397e-10
1.20624e-10
7.07691e-11
6.60425e-11
6.43796e-11
2.3061e-11
5.05372e-10
9.72946e-10
2.48356e-07
5.44066e-06
6.39267e-06
1.08217e-06
7.04657e-08
6.5248e-12
3.72661e-13
8.23018e-09
3.80219e-09
3.87473e-10
1.03454e-10
7.03153e-11
4.88728e-11
3.86755e-11
2.87497e-11
2.71368e-11
1.36509e-11
8.82894e-11
3.19813e-08
1.16992e-06
3.22655e-06
9.81024e-07
1.49845e-07
5.76776e-09
4.33446e-12
1.6783e-13
2.11404e-10
1.24905e-10
8.36717e-11
8.32773e-11
7.88806e-11
7.21752e-11
5.24947e-11
2.47162e-11
1.35287e-11
1.11645e-11
2.2983e-09
1.16334e-07
8.98124e-07
-3.50799e-23
3.89102e-08
-9.66607e-25
1.44004e-12
3.14239e-12
1.68225e-13
1.43894e-10
1.54509e-10
1.5223e-10
1.4234e-10
1.1773e-10
7.70662e-11
4.27046e-11
2.08249e-11
4.24316e-11
7.78273e-10
9.26136e-09
7.53116e-08
4.87295e-08
1.65514e-12
2.64836e-12
1.4415e-12
1.42378e-12
6.33033e-13
1.40009e-13
2.92041e-10
2.26936e-10
1.91168e-10
1.56648e-10
1.16661e-10
7.35305e-11
3.80341e-11
2.2047e-11
2.34789e-11
3.75108e-10
4.27036e-09
1.45187e-08
1.9011e-12
1.84031e-12
2.02404e-12
1.66824e-12
1.27821e-12
5.43675e-13
1.40275e-13
2.93818e-10
2.53465e-10
2.36825e-10
1.86672e-10
1.27103e-10
8.10644e-11
4.45011e-11
2.6408e-11
2.42139e-11
6.05532e-11
1.89355e-10
1.20417e-09
6.35775e-12
2.63848e-12
2.43806e-12
1.9401e-12
1.17607e-12
5.62935e-13
1.40918e-13
5.35759e-10
4.25286e-10
3.56675e-10
2.61069e-10
1.72704e-10
1.06059e-10
6.42517e-11
3.68126e-11
2.32486e-11
1.92218e-11
1.5286e-11
3.8243e-11
8.94422e-12
4.13554e-12
3.06944e-12
2.03353e-12
1.09769e-12
5.28531e-13
1.33394e-13
3.49084e-09
2.24814e-09
9.65388e-10
6.54001e-10
4.10897e-10
1.80208e-10
8.88571e-11
4.89059e-11
2.81023e-11
2.01674e-11
1.62374e-11
1.23857e-11
9.40217e-12
6.23975e-12
3.54251e-12
1.79208e-12
9.86138e-13
4.21413e-13
1.1617e-13
1.10909e-08
7.8966e-09
3.64118e-09
2.89651e-09
1.64907e-09
5.40875e-10
1.50903e-10
7.04337e-11
4.20121e-11
2.79205e-11
2.09196e-11
1.61472e-11
1.03183e-11
6.56352e-12
3.41972e-12
1.68313e-12
8.55511e-13
3.41019e-13
9.39269e-14
1.98062e-08
1.08706e-08
5.58483e-09
4.88146e-09
2.81903e-09
1.58335e-09
6.13626e-10
2.33816e-10
1.00797e-10
4.87551e-11
2.831e-11
1.83657e-11
1.03085e-11
6.1085e-12
3.19929e-12
1.58232e-12
7.17905e-13
2.7368e-13
7.78154e-14
2.56055e-08
1.52521e-08
7.22948e-09
6.34575e-09
4.12374e-09
2.89564e-09
1.57939e-09
7.55441e-10
3.53859e-10
1.4453e-10
4.07641e-11
1.69399e-11
9.21164e-12
5.48995e-12
2.94046e-12
1.36115e-12
5.0226e-13
2.04941e-13
6.48112e-14
1.7919e-08
1.32728e-08
7.77387e-09
6.0937e-09
4.10015e-09
2.90455e-09
1.85577e-09
1.1061e-09
6.24651e-10
2.86715e-10
7.76326e-11
2.02137e-11
7.58005e-12
4.24767e-12
2.24038e-12
8.84294e-13
2.02573e-13
1.39905e-13
5.41474e-14
6.08729e-09
5.9721e-09
5.02695e-09
4.00456e-09
3.18766e-09
2.3074e-09
1.56586e-09
9.88729e-10
5.97701e-10
3.36372e-10
1.21159e-10
2.98073e-11
6.50204e-12
2.74314e-12
1.38652e-12
2.65294e-13
7.30676e-14
7.58803e-14
3.92951e-14
1.10879e-09
1.4896e-09
1.83974e-09
1.93869e-09
1.74921e-09
1.38817e-09
9.98543e-10
6.63537e-10
4.18419e-10
2.62017e-10
1.15759e-10
3.46544e-11
6.09014e-12
1.43282e-12
3.8706e-13
7.32233e-14
3.59855e-14
3.59401e-14
2.09188e-14
2.372e-10
3.29779e-10
5.12867e-10
6.80543e-10
6.95758e-10
5.97137e-10
4.6026e-10
3.2538e-10
2.17313e-10
1.4629e-10
7.84121e-11
2.78132e-11
4.90398e-12
3.68874e-13
3.98177e-14
2.08467e-14
2.00964e-14
1.88338e-14
1.24681e-14
8.67283e-11
9.13548e-11
1.21897e-10
1.81433e-10
2.07472e-10
1.92683e-10
1.59103e-10
1.20557e-10
8.64983e-11
6.21262e-11
3.73871e-11
1.05158e-11
1.25444e-12
6.13835e-14
1.0081e-14
9.81828e-15
1.10352e-14
1.05655e-14
7.14762e-15
4.23837e-11
4.07774e-11
4.26953e-11
5.21257e-11
5.83647e-11
5.61034e-11
4.81558e-11
3.85286e-11
3.00189e-11
2.27832e-11
1.01895e-11
2.03983e-12
1.64186e-13
9.59178e-15
3.7865e-15
4.56079e-15
5.91862e-15
5.93496e-15
3.8896e-15
2.02834e-11
1.8698e-11
1.80584e-11
1.83435e-11
1.7968e-11
1.62256e-11
1.37755e-11
1.13078e-11
9.30233e-12
5.16218e-12
1.32655e-12
2.12663e-13
1.91218e-14
1.61865e-15
1.48904e-15
2.08518e-15
3.12126e-15
3.28941e-15
1.94224e-15
8.66464e-12
7.89634e-12
7.14436e-12
6.41799e-12
5.60083e-12
4.6401e-12
3.79146e-12
3.16301e-12
2.01912e-12
6.55797e-13
1.36442e-13
2.12158e-14
2.03619e-15
4.11834e-16
5.34482e-16
9.6948e-16
1.58408e-15
1.77914e-15
9.54912e-16
3.42716e-12
2.93434e-12
2.40591e-12
1.95841e-12
1.56203e-12
1.2142e-12
1.0025e-12
6.86304e-13
2.65637e-13
5.10673e-14
9.82894e-15
1.76095e-15
2.04537e-16
1.16998e-16
2.06623e-16
4.34859e-16
7.95859e-16
9.02489e-16
4.82616e-16
1.14081e-12
9.34633e-13
7.16305e-13
5.41981e-13
3.93705e-13
3.14177e-13
1.97667e-13
7.29096e-14
1.48616e-14
3.3434e-15
8.90999e-16
1.72297e-16
2.49978e-17
3.13125e-17
7.99127e-17
1.99657e-16
3.77617e-16
4.35089e-16
2.26334e-16
3.19301e-13
2.38859e-13
1.59636e-13
1.1189e-13
8.42773e-14
4.51673e-14
1.36837e-14
2.43694e-15
5.764e-16
2.03976e-16
6.54294e-17
1.01634e-17
3.84475e-18
9.31602e-18
3.16064e-17
8.36137e-17
1.76849e-16
2.14682e-16
1.06613e-16
6.93927e-14
4.73056e-14
2.92751e-14
2.15482e-14
9.54177e-15
2.06258e-15
2.8196e-16
4.88313e-17
1.00668e-17
1.36157e-18
1.55939e-19
1.37262e-19
6.25936e-19
3.00306e-18
1.22665e-17
3.44904e-17
8.11979e-17
1.129e-16
5.65562e-17
1.23292e-14
7.20814e-15
4.96418e-15
1.87311e-15
3.41385e-16
3.40393e-17
2.18708e-18
7.45235e-20
5.56495e-21
6.37951e-21
1.40049e-20
4.02189e-20
2.1019e-19
1.0913e-18
4.64074e-18
1.35394e-17
3.93793e-17
4.91404e-17
2.29037e-17
1.58585e-15
9.86687e-16
3.1934e-16
4.85557e-17
4.9853e-18
5.14399e-19
3.18286e-20
2.25294e-21
2.82518e-21
5.66386e-21
1.24811e-20
2.81319e-20
9.48977e-20
4.54618e-19
1.89667e-18
6.99883e-18
2.1892e-17
2.25207e-17
9.65729e-18
1.84323e-16
4.5534e-17
4.93232e-18
5.5809e-19
8.93285e-20
9.20142e-21
1.0085e-21
1.26034e-21
2.59326e-21
5.89934e-21
1.30393e-20
2.6137e-20
5.73484e-20
2.18387e-19
9.61136e-19
4.46683e-18
8.23869e-18
7.96191e-18
2.84711e-18
6.83699e-18
4.36754e-19
4.73425e-20
1.01406e-20
1.59846e-21
3.39093e-22
4.73003e-22
1.05716e-21
2.61522e-21
6.20125e-21
1.34401e-20
2.56564e-20
4.43306e-20
1.38887e-19
7.35828e-19
2.3306e-18
3.55662e-18
2.39463e-18
7.25222e-19
1.7858e-20
3.23543e-21
7.6218e-22
9.92113e-23
7.8178e-23
1.52793e-22
3.86013e-22
1.00685e-21
2.4917e-21
5.76569e-21
1.26768e-20
2.44093e-20
3.94858e-20
1.18861e-19
4.95429e-19
1.19693e-18
1.29788e-18
7.23914e-19
1.4469e-19
1.46447e-23
1.58129e-23
1.22279e-23
1.68571e-23
4.34208e-23
1.24445e-22
3.42739e-22
8.97605e-22
2.22688e-21
5.1719e-21
1.10757e-20
2.09684e-20
3.42103e-20
8.7378e-20
2.54996e-19
5.35065e-19
4.56592e-19
1.75851e-19
2.9649e-20
1.97712e-25
8.36653e-25
3.09953e-24
1.09061e-23
3.44074e-23
1.01016e-22
2.7654e-22
7.14009e-22
1.73801e-21
3.9816e-21
8.32794e-21
1.53046e-20
2.45942e-20
4.97325e-20
1.18597e-19
1.73483e-19
1.06426e-19
3.48085e-20
5.84205e-21
1.22738e-25
6.01941e-25
2.36154e-24
8.16541e-24
2.54156e-23
7.35316e-23
1.9727e-22
4.93619e-22
1.16265e-21
2.58591e-21
5.21109e-21
9.2399e-21
1.43504e-20
2.69273e-20
4.16641e-20
4.36948e-20
1.91156e-20
6.09163e-21
1.62813e-21
9.36476e-26
4.15667e-25
1.5913e-24
5.20911e-24
1.60893e-23
4.48678e-23
1.16863e-22
2.82962e-22
6.42769e-22
1.37893e-21
2.67951e-21
4.55905e-21
6.72206e-21
1.09149e-20
1.20985e-20
9.61878e-21
3.32507e-21
1.36952e-21
5.88233e-22
6.15147e-26
2.44991e-25
8.58461e-25
2.6635e-24
7.46627e-24
1.97053e-23
4.96342e-23
1.18134e-22
2.61031e-22
5.39583e-22
1.01506e-21
1.69106e-21
2.34871e-21
3.2914e-21
2.95261e-21
2.06318e-21
6.89254e-22
3.55363e-22
2.98673e-22
3.12228e-26
1.08858e-25
3.47502e-25
1.00854e-24
2.73044e-24
7.01264e-24
1.67881e-23
3.93702e-23
8.51674e-23
1.69793e-22
3.04496e-22
4.88461e-22
6.53493e-22
7.99354e-22
6.25583e-22
4.37352e-22
1.40678e-22
1.27359e-22
1.28784e-22
8.89545e-27
2.66802e-26
7.75957e-26
2.07561e-25
5.24722e-25
1.34119e-24
3.0761e-24
6.80186e-24
1.5354e-23
3.11106e-23
5.72246e-23
9.30216e-23
1.25917e-22
1.42544e-22
1.07841e-22
8.23634e-23
3.67586e-23
3.44745e-23
3.01883e-23
)
;

boundaryField
{
    leftWall
    {
        type            alphaContactAngle;
        contactAngleProperties 
        {
            mercury         
            {
                theta0          90;
            }
            air             
            {
                theta0          90;
            }
            oil             
            {
                theta0          90;
            }
        }
        value           nonuniform List<scalar> 
50
(
2.41654e-11
7.49429e-11
5.56631e-10
9.98709e-10
5.74933e-10
0.395913
1
1
1
1
1
1
1
1
0.560194
0.00421443
-2.31848e-09
0
-7.70646e-08
-2.48127e-07
-6.37176e-08
6.64951e-08
4.45435e-08
1.8411e-08
2.18803e-08
1.95637e-08
1.69505e-08
1.3564e-08
1.1149e-08
9.65444e-09
7.75661e-09
5.33816e-09
3.56078e-09
1.97432e-09
9.64375e-10
3.61352e-10
1.21036e-10
2.96446e-11
5.77788e-12
1.08349e-12
1.79379e-13
2.70449e-14
3.64535e-15
4.29295e-16
4.60521e-17
4.43987e-18
3.81751e-19
2.90389e-20
1.91102e-21
1.00088e-22
)
;
    }
    rightWall
    {
        type            alphaContactAngle;
        contactAngleProperties 
        {
            mercury         
            {
                theta0          90;
            }
            air             
            {
                theta0          90;
            }
            oil             
            {
                theta0          90;
            }
        }
        value           nonuniform List<scalar> 
50
(
0.018891
0.018891
0.0189
0.164815
0.368736
0.444625
0.435047
0.208262
0.130902
0.046076
0.0213771
0.0227181
0.0230813
0.0061662
7.1778e-08
3.72661e-13
1.6783e-13
1.68225e-13
1.40009e-13
1.40275e-13
1.40918e-13
1.33394e-13
1.1617e-13
9.39269e-14
7.78154e-14
6.48112e-14
5.41474e-14
3.92951e-14
2.09188e-14
1.24681e-14
7.14762e-15
3.8896e-15
1.94224e-15
9.54912e-16
4.82616e-16
2.26334e-16
1.06613e-16
5.65562e-17
2.29037e-17
9.65729e-18
2.84711e-18
7.25222e-19
1.4469e-19
2.9649e-20
5.84205e-21
1.62813e-21
5.88233e-22
2.98673e-22
1.28784e-22
3.01883e-23
)
;
    }
    lowerWall
    {
        type            alphaContactAngle;
        contactAngleProperties 
        {
            mercury         
            {
                theta0          90;
            }
            air             
            {
                theta0          90;
            }
            oil             
            {
                theta0          90;
            }
        }
        value           nonuniform List<scalar> 
62
(
2.41654e-11
4.17704e-11
6.22233e-11
7.04157e-11
7.22363e-11
7.51918e-11
7.37331e-11
7.30552e-11
7.16423e-11
7.27415e-11
7.83965e-11
9.15168e-11
1.13043e-10
1.43659e-10
1.85966e-10
2.4739e-10
3.36519e-10
4.67982e-10
7.55623e-10
1.2186e-09
1.95988e-09
2.51281e-09
2.57946e-09
2.57946e-09
2.87275e-09
2.85461e-09
1.11525e-09
1.39101e-11
1.02514e-13
0.363677
0.939909
0.72852
0.659795
0.0556339
0.02237
0.00671506
0.0096661
0.00924124
0.00124426
0.000422699
0.001261
5.19515e-05
3.64545e-05
0.00671506
0.0242986
0.0454664
0.0285185
0.00748315
0.00464798
0.00522009
0.00339688
0.00286958
0.0018285
0.00125876
0.0173384
0.108789
0.123212
0.123212
0.0882496
0.0221901
0.0189481
0.018891
)
;
    }
    atmosphere
    {
        type            inletOutlet;
        inletValue      uniform 0;
        value           nonuniform List<scalar> 
46
(
0
0
0
0
0
0
0
0
0
0
0
0
0
0
0
0
0
0
0
0
0
0
0
0
0
0
0
0
0
0
0
0
1.34119e-24
3.0761e-24
6.80187e-24
1.5354e-23
3.11106e-23
5.72246e-23
9.30216e-23
1.25917e-22
1.42544e-22
1.07841e-22
8.23634e-23
3.67586e-23
3.44745e-23
3.01883e-23
)
;
    }
    defaultFaces
    {
        type            empty;
    }
}


// ************************************************************************* //
