/*--------------------------------*- C++ -*----------------------------------*\
  =========                 |
  \\      /  F ield         | OpenFOAM: The Open Source CFD Toolbox
   \\    /   O peration     | Website:  https://openfoam.org
    \\  /    A nd           | Version:  13
     \\/     M anipulation  |
\*---------------------------------------------------------------------------*/
FoamFile
{
    format      ascii;
    class       volScalarField;
    location    "1.35";
    object      alpha.air;
}
// * * * * * * * * * * * * * * * * * * * * * * * * * * * * * * * * * * * * * //

dimensions      [];

internalField   nonuniform List<scalar> 
2268
(
1.27677e-13
1.25756e-13
1.16934e-13
9.30575e-14
6.45912e-14
4.19952e-14
1.69883e-14
7.00145e-15
2.8542e-15
1.57601e-15
1.10803e-15
8.70373e-16
7.41258e-16
6.5497e-16
6.35085e-16
6.69555e-16
7.94139e-16
1.40161e-15
4.61837e-15
2.06311e-14
4.41455e-14
1.74921e-14
2.82162e-15
8.82703e-13
1.08838e-12
1.02777e-12
7.90754e-13
6.88017e-13
4.67112e-13
2.49313e-13
1.03767e-13
4.23998e-14
2.24826e-14
1.4829e-14
1.09165e-14
8.91216e-15
8.19774e-15
8.05756e-15
8.13398e-15
8.63204e-15
1.5097e-14
5.62444e-14
1.51025e-13
4.02046e-13
3.91022e-13
6.47038e-14
4.27681e-12
4.8967e-12
4.02568e-12
3.02769e-12
2.59118e-12
1.92059e-12
1.25923e-12
6.28165e-13
2.78339e-13
1.52903e-13
1.02042e-13
7.41458e-14
5.77806e-14
4.84958e-14
4.48766e-14
4.69415e-14
5.17413e-14
7.57663e-14
2.29003e-13
9.14287e-13
2.01031e-12
2.80459e-12
1.30869e-12
1.16998e-11
1.18426e-11
9.43072e-12
7.86622e-12
6.56383e-12
5.60241e-12
4.11976e-12
2.09142e-12
9.65677e-13
5.32443e-13
3.56247e-13
2.50042e-13
2.22552e-13
2.0587e-13
2.01836e-13
2.16124e-13
2.11689e-13
2.0899e-13
5.38984e-13
1.03987e-12
2.37695e-12
4.00609e-12
5.89765e-12
4.5034e-11
4.62487e-11
4.33924e-11
3.57226e-11
2.44442e-11
1.57193e-11
1.0997e-11
8.45483e-12
5.87799e-12
3.42887e-12
1.88768e-12
1.26431e-12
1.23848e-12
1.80305e-12
1.89089e-12
1.69629e-12
2.18703e-13
3.72936e-13
3.84074e-13
4.20945e-13
1.56677e-13
1.9627e-13
4.7231e-13
2.13805e-10
1.97228e-10
1.80362e-10
1.58403e-10
1.1745e-10
7.19887e-11
3.89396e-11
2.39026e-11
1.84026e-11
1.35858e-11
9.58144e-12
8.81505e-12
1.02538e-11
1.74762e-11
4.17749e-11
3.612e-11
2.32191e-10
2.58916e-08
6.09377e-09
1.6898e-05
7.78945e-05
3.37135e-05
1.96501e-13
3.63995e-10
3.62394e-10
3.52696e-10
3.35997e-10
3.12784e-10
2.76676e-10
2.11253e-10
1.26296e-10
6.75967e-11
4.78738e-11
3.6792e-11
3.13984e-11
3.05597e-11
4.19957e-11
1.13859e-10
6.25384e-11
2.44791e-09
7.34295e-09
1.62215e-09
9.59441e-05
0.000115855
3.31724e-05
4.70766e-09
4.57005e-10
4.52143e-10
4.31173e-10
4.20542e-10
4.57453e-10
4.96712e-10
4.76568e-10
3.94674e-10
2.90645e-10
1.94806e-10
1.47303e-10
1.27826e-10
1.18238e-10
1.4568e-10
3.95123e-10
3.92064e-10
2.12884e-09
4.92438e-10
1.90646e-06
4.48721e-05
5.25632e-05
4.80472e-08
2.77769e-08
1.25032e-05
0.0141249
0.0574708
0.068234
0.0875626
0.0859742
0.07008
0.0470452
0.0467551
0.055506
0.138924
0.198912
0.145162
0.113674
0.0224081
0.00866047
0.0099908
0.0158789
0.0144893
2.75722e-05
0.000287415
2.31586e-10
7.85928e-11
4.44023e-06
0.000109762
0.0108247
0.0922548
0.153487
0.150061
0.141505
0.220015
0.319048
0.243765
0.11965
0.0176913
0.0165805
0.0395923
0.016577
4.48684e-06
2.29695e-06
2.19385e-05
3.87052e-05
7.15908e-06
0.00155598
0.120977
0.50799
0.5583
0.557656
0.40006
0.380829
0.459229
0.497077
0.497033
0.400152
0.299657
0.232167
0.0614157
8.99155e-07
4.17557e-06
6.85341e-05
0.0004075
0.000477597
0.00208526
0.134625
0.414979
0.518516
0.546328
0.549245
0.511469
0.432027
0.432737
0.459648
0.491691
0.490437
0.291764
0.0800434
7.66255e-07
9.98359e-07
2.41051e-05
9.81063e-05
7.23551e-05
7.57879e-06
6.54141e-11
1.80256e-09
0.0217714
0.11708
0.340486
0.511783
0.3818
0.0885554
0.0740196
0.127956
0.0637861
0.000418721
0.0572928
2.55691e-05
0.0203212
0.000285246
2.22264e-05
5.97415e-06
5.916e-06
1.24893e-05
3.69131e-07
-6.80884e-07
6.41551e-18
3.83947e-12
0.0593241
0.0797511
0.0371593
0.0173941
0.00411751
0.000651953
0.000634095
0.085967
0.00070504
0.042407
0.00536474
8.14977e-06
5.88795e-06
1.94193e-05
4.29733e-05
3.76122e-05
6.76579e-05
8.38532e-05
1.94263e-05
5.78297e-09
1.68771e-09
7.65794e-10
1.90454e-05
0.00464688
0.00445276
0.00307751
0.119533
0.00191908
0.040472
0.00881767
2.47653e-05
5.79596e-05
0.000134917
0.000318374
7.20989e-05
8.30434e-05
0.000151288
7.90814e-05
3.00656e-05
4.82323e-06
3.94199e-06
1.88014e-05
1.90456e-05
8.0787e-05
-1.46549e-09
0.115916
1.18471e-09
6.60618e-10
5.10084e-10
5.22688e-10
8.97595e-10
1.28282e-09
1.14656e-09
8.76693e-10
6.42972e-10
4.50667e-10
3.61507e-10
3.31184e-10
3.68758e-10
4.46119e-10
6.97158e-10
6.23197e-10
5.62378e-10
4.05236e-10
9.5766e-07
3.70788e-07
1.0387e-06
-1.98775e-07
0.132332
2.69649e-09
1.21248e-09
5.91546e-10
1.07231e-09
4.616e-09
8.56499e-09
7.44789e-09
5.25495e-09
3.0165e-09
1.51828e-09
8.31638e-10
6.92177e-10
8.29291e-10
1.19586e-09
1.51644e-09
1.54696e-09
1.30773e-09
1.92528e-09
1.99135e-13
1.90752e-09
1.42628e-05
0.15242
0.233114
5.30305e-09
1.80114e-09
6.2604e-10
8.98945e-09
2.09846e-08
3.09646e-08
2.74397e-08
2.1047e-08
1.39637e-08
7.0731e-09
2.21447e-09
7.49423e-10
8.05418e-10
8.84703e-10
1.55188e-10
2.83346e-10
7.91973e-18
-2.06912e-11
4.07355e-19
0.0557032
0.163893
0.206347
0.166748
4.97119e-09
2.80719e-09
7.74975e-09
5.27134e-08
8.01296e-08
9.19408e-08
8.20876e-08
6.60929e-08
4.51624e-08
2.93705e-08
6.41538e-09
-9.22251e-12
-5.54112e-20
2.57353e-20
0.000306133
-8.39361e-09
0.00664912
0.110978
0.215095
0.22243
0.224855
0.0774568
0.00206781
2.39332e-09
3.00263e-08
3.14388e-07
0.00455913
0.00852996
0.0217512
0.0459798
0.0598127
0.042384
0.0477133
0.070174
0.0649682
0.0486527
0.0781368
0.204897
0.271412
0.274158
0.273852
0.228941
0.106236
0.0285629
0.000100784
1.11214e-08
2.38165e-09
0.000149004
0.0850905
0.0362947
0.0293093
0.0918227
0.209702
0.212647
0.21734
0.242087
0.322172
0.322328
0.321197
0.321812
0.305412
0.205726
0.103685
0.0537029
0.0137171
0.000174313
1.21412e-07
-7.08841e-12
1.52301e-11
0.439806
0.41918
0.229083
0.0241889
0.012784
0.0788517
0.137869
0.180545
0.135565
0.164154
0.124198
0.0986404
0.0666273
0.0352983
0.0134358
0.00223951
2.02839e-05
2.12943e-06
1.10249e-07
1.30055e-07
1.112e-07
1.22709e-08
5.66076e-13
0.981142
0.768265
0.108604
1.80634e-06
-1.63753e-06
1.82612e-06
7.61273e-13
3.80968e-16
3.3369e-23
-1.09492e-31
1.74404e-13
2.69703e-11
8.34452e-10
2.35066e-09
6.14954e-12
1.98477e-11
2.55553e-06
2.15339e-06
5.40419e-07
1.24491e-07
1.22584e-08
4.85987e-09
5.27052e-09
0.983175
0.764869
0.585221
0.454808
0.257527
0.104757
0.0316745
0.00349304
4.13779e-13
-3.41103e-20
1.00531e-18
-2.6581e-19
4.93102e-09
1.38474e-08
2.00592e-11
6.36703e-12
2.46558e-11
2.94507e-08
2.95691e-08
1.04165e-08
1.45306e-08
5.64325e-09
4.6998e-09
0.977428
0.988705
0.999983
0.999966
0.978699
0.855628
0.705128
0.536454
0.358873
0.232061
0.149328
0.0905421
0.0516714
0.0278722
0.014181
0.0068729
0.00358431
0.00293787
0.00277207
0.00231004
0.00178667
0.00538925
0.0320862
0.991293
0.999997
0.999997
1
1
1
1
1
1
0.9606
0.899989
0.832172
0.760871
0.691749
0.628589
0.574425
0.535058
0.522611
0.529786
0.552552
0.612145
0.715805
0.807798
0.999091
0.999831
0.999997
1
1
1
1
1
1
1
1
1
1
1
1
1
1
1
1
1
1
1
1
0.999998
0.999997
0.999998
1
1
1
1
1
0.999999
0.999999
0.999999
0.999999
1
1
1
1
1
1
1
1
0.999999
0.999999
0.999999
0.999999
0.999997
0.999997
1
1
1
1
0.999999
0.999996
0.999973
0.999942
0.999989
0.999999
1
1
1
1
1
0.999999
0.999999
0.999999
0.999999
0.999999
1
0.999999
1
1
1
1
1
1
0.999998
0.999918
0.999825
0.999879
0.999998
1
1
1
1
0.999999
0.999999
0.999999
0.999999
1
1
1
1
1
1
1
1
1
1
0.999999
0.999928
0.999824
0.999826
0.999909
0.999997
0.999999
0.999999
0.999998
0.999997
0.999999
1
1
1
1
1
1
1
1
1
1
1
1
1
1
0.99992
0.999825
0.999826
0.999961
0.999997
0.999997
0.999997
0.999997
0.999997
1
1
1
1
1
1
1
1
1
1
1
1
1
1
1
0.999969
0.999885
0.999881
0.999998
0.999998
0.999998
0.999997
0.999997
1
1
1
1
1
1
1
1
1
1
1
1
1
1
1
1
1
0.999984
0.999977
0.999998
0.999999
1
1
1
1
1
1
1
1
1
1
1
1
1
1
1
1
1
1
1
1
0.999999
0.999997
0.999997
1
1
1
1
1
1
1
1
1
1
1
1
1
1
1
1
1
1
1
1
1
1
1
1
1
1
1
1
1
1
1
1
1
1
1
1
1
1
1
1
1
1
1
1
1
1
1
1
1
1
1
1
1
1
1
1
1
1
1
1
1
1
1
1
1
1
1
1
1
1
1
1
1
1
1
1
1
1
1
1
1
1
1
1
1
1
1
1
1
1
1
1
1
1
1
1
1
1
1
1
1
1
1
1
1
1
1
1
1
1
1
1
1
1
1
1
1
1
1
1
1
1
1
1
1
1
1
1
1
1
1
1
1
1
1
1
1
1
1
1
1
1
1
1
1
1
1
1
1
1
1
1
1
1
1
1
1
1
1
1
1
1
1
1
1
1
1
1
1
1
1
1
1
1
1
1
1
1
1
1
1
1
1
1
1
1
1
1
1
1
1
1
1
1
1
1
1
1
1
1
1
1
1
1
1
1
1
1
1
1
1
1
1
1
1
1
1
1
1
1
1
1
1
1
1
1
1
1
1
1
1
1
1
1
1
1
1
1
1
1
1
1
1
1
1
1
1
1
1
1
1
1
1
1
1
1
1
1
1
1
1
1
1
1
1
1
1
1
1
1
1
1
1
1
1
1
1
1
1
1
1
1
1
1
1
1
1
1
1
1
1
1
1
1
1
1
1
1
1
1
1
1
1
1
1
1
1
1
1
1
1
1
1
1
1
1
1
1
1
1
1
1
1
1
1
1
1
1
1
1
1
1
1
1
1
1
1
1
1
1
1
1
1
1
1
1
1
1
1
1
1
1
1
1
1
1
1
1
1
1
1
1
1
1
1
1
1
1
1
1
1
1
1
1
1
1
1
1
1
1
1
1
1
1
1
1
1
1
1
1
1
1
1
1
1
1
1
1
1
1
1
1
1
1
1
1
1
1
1
1
1
1
1
1
1
1
1
1
1
1
1
1
1
1
1
1
1
1
1
1
1
1
1
1
1
1
1
1
1
1
1
1
1
1
1
1
1
1
1
1
1
1
1
1
1
1
1
1
1
1
1
1
1
1
1
1
1
1
1
1
1
1
1
1
1
1
1
1
1
1
1
1
1
1
1
1
1
1
1
1
1
1
1
1
1
1
1
1
1
1
1
1
1
1
1
1
1
1
1
1
1
1
0.233116
0.233115
0.233116
0.101695
0.233117
0.233116
0.186162
0.0719088
0.100082
0.0727271
0.00828739
4.29107e-05
1.64577e-05
1.59325e-07
1.4694e-08
9.89716e-06
1.48848e-18
-1.48849e-18
7.39133e-11
-2.93732e-11
-8.68378e-28
6.39898e-08
3.30209e-06
5.88732e-06
-9.5193e-12
-4.42242e-10
5.34554e-06
6.68243e-06
1.52198e-09
1.32893e-07
8.92425e-07
9.7147e-07
5.2802e-15
1.09887e-08
4.38018e-08
5.32517e-08
0.0725016
0.0878509
0.080283
0.0764905
0.862453
0.890612
0.921589
0.963934
0.999999
0.999999
1
1
0.999999
0.999999
0.999999
0.999999
1
1
1
1
1
1
1
1
1
1
1
1
1
1
1
1
1
1
1
1
1
1
1
1
1
1
1
1
1
1
1
1
1
1
1
1
1
1
1
1
1
1
1
1
1
1
1
1
1
1
1
1
1
1
1
1
1
1
1
1
1
1
1
1
1
1
1
1
1
1
1
1
1
1
1
1
1
1
1
1
1
1
1
1
1
1
1
1
1
1
1
1
1
1
1
1
1
1
1
1
1
1
1
1
1
1
1
1
1
1
1
1
1
1
1
1
0.00289048
0.00970113
0.00280872
0.000400911
0.00437821
0.00517848
0.00261174
0.000173337
0.000127929
0.00017579
0.000191597
0.000221122
0.000206667
0.000201898
0.000478312
0.000857109
0.000876042
3.86882e-21
0.0776412
0.08509
0.0389953
0.0214976
0.0511381
0.0497222
0.0152981
0.00185227
9.43094e-05
9.21455e-05
9.39351e-05
9.93234e-05
0.00016552
0.000257956
0.000527933
0.000903715
0.000903696
0.000563407
3.7302e-05
0.0976365
0.106539
0.176477
0.162716
0.17298
0.109097
0.00203874
0.000125992
0.000275155
0.000302585
0.000151716
7.18823e-07
5.05029e-06
1.49401e-05
3.28009e-05
4.35226e-05
3.84833e-05
4.15948e-05
0.0388851
0.250892
0.0520762
0.1805
0.180535
0.180489
0.0524674
1.55332e-08
1.24431e-08
1.38385e-08
1.47367e-08
1.71577e-07
2.04802e-07
3.09471e-07
8.82179e-11
6.70671e-08
6.83901e-11
1.18873e-05
2.35524e-05
0.188197
0.344773
0.00054892
0.0935434
0.108037
0.043656
0.000202007
4.12056e-08
3.74842e-08
8.84131e-08
1.91733e-07
0.00158774
0.00343306
0.0341464
0.114932
0.12876
0.150559
0.217898
0.252983
0.315808
0.432023
3.6139e-07
0.00113122
0.00038377
1.94463e-07
1.08025e-07
8.93656e-08
1.30772e-07
2.75637e-07
0.00928847
0.0844495
0.434334
0.758938
0.831573
0.827508
0.817621
0.822596
0.8673
0.843811
0.828847
1.31186e-06
4.12068e-08
7.13943e-08
1.22627e-07
1.78723e-07
2.48719e-07
0.0208717
0.127729
0.584769
0.965621
0.997594
0.999999
0.999999
0.999997
0.999953
0.999701
0.999687
0.99998
0.999997
9.26974e-08
4.85461e-08
7.90086e-08
2.59478e-07
0.0357773
0.138516
0.626173
0.997126
1
0.999999
1
1
1
0.999989
0.997954
0.997296
0.999018
0.999999
1
2.14362e-07
0.00695264
0.0294084
0.205241
0.804221
0.999999
1
1
1
1
1
1
0.999969
0.996191
0.995805
0.997814
0.999514
1
0.999999
0.298725
0.690915
0.951078
0.999999
1
1
1
1
0.999809
0.999119
0.999646
1
0.999822
0.996882
0.998335
0.99995
0.999994
1
1
0.999999
1
1
1
1
1
1
0.999919
0.998908
0.99891
0.999042
1
0.999848
0.999916
1
1
1
1
0.999999
1
1
1
1
0.999999
0.999998
0.999997
0.999898
0.999523
0.999261
0.999711
0.999999
0.999996
1
1
1
1
1
0.999998
1
1
1
0.999999
0.999998
0.999997
0.999993
0.999982
1
0.999996
1
0.999991
1
1
1
1
1
1
0.999998
1
1
1
1
1
1
1
1
1
1
1
0.999998
1
1
1
1
1
1
0.999999
1
1
1
1
1
1
1
1
1
1
1
1
1
1
1
1
1
1
1
1
1
1
1
1
1
1
1
1
1
1
1
1
1
1
1
1
1
1
1
1
1
1
1
1
1
1
1
1
1
1
1
1
1
1
1
1
1
1
1
1
1
1
1
1
1
1
1
1
1
1
1
1
1
1
1
1
1
1
1
1
1
1
1
1
1
1
1
1
1
1
1
1
1
1
1
1
1
1
1
1
1
1
1
1
1
1
1
1
1
1
1
1
1
1
1
1
1
1
1
1
1
1
1
1
1
1
1
1
1
1
1
1
1
1
1
1
1
1
1
1
1
1
1
1
1
1
1
1
1
1
1
1
1
1
1
1
1
1
1
1
1
1
1
1
1
1
1
1
1
1
1
1
1
1
1
1
1
1
1
1
1
1
1
1
1
1
1
1
1
1
1
1
1
1
1
1
1
1
1
1
1
1
1
1
1
1
1
1
1
1
1
1
1
1
1
1
1
1
1
1
1
1
1
1
1
1
1
1
1
1
1
1
1
1
1
1
1
1
1
1
1
1
1
1
1
1
1
1
1
1
1
1
1
1
1
1
1
1
1
1
1
1
1
1
1
1
1
1
1
1
1
1
1
1
1
1
1
1
1
1
1
1
1
1
1
1
1
1
1
1
1
1
1
1
1
1
1
1
1
1
1
1
1
1
1
1
1
1
1
1
1
1
1
1
1
1
1
1
1
1
1
1
1
1
1
1
1
1
1
1
1
1
1
1
1
1
1
1
1
1
1
1
1
1
1
1
1
1
1
1
1
1
1
1
1
1
1
1
1
1
1
1
1
1
1
1
1
1
1
1
1
1
1
1
1
1
1
1
1
1
1
1
1
1
1
1
1
1
1
1
1
1
1
1
1
1
1
1
1
1
1
1
1
1
1
1
1
1
1
1
1
1
1
1
1
1
1
1
1
1
1
1
1
1
1
1
1
1
1
1
1
1
1
1
1
1
1
1
1
1
1
1
1
1
1
1
1
1
1
1
1
1
1
1
1
1
1
1
1
1
1
1
1
1
1
1
1
1
1
1
1
1
1
1
1
1
1
1
1
1
1
1
1
1
1
1
1
1
1
1
1
1
1
1
1
1
1
1
1
1
1
1
1
1
1
1
1
1
1
1
1
1
1
1
1
1
1
1
1
1
1
1
1
1
1
1
1
1
1
1
1
1
)
;

boundaryField
{
    leftWall
    {
        type            alphaContactAngle;
        contactAngleProperties 
        {
            mercury         
            {
                theta0          90;
            }
            water           
            {
                theta0          90;
            }
            oil             
            {
                theta0          90;
            }
        }
        value           nonuniform List<scalar> 
50
(
1.27677e-13
8.82703e-13
4.27681e-12
1.16998e-11
4.5034e-11
2.13805e-10
3.63995e-10
4.57005e-10
1.18471e-09
2.69649e-09
5.30305e-09
4.97119e-09
2.39332e-09
2.38165e-09
0.439806
0.981142
0.983175
0.977428
0.991293
0.999091
0.999998
0.999999
1
1
1
1
1
1
1
1
1
1
1
1
1
1
1
1
1
1
1
1
1
1
1
1
1
1
1
1
)
;
    }
    rightWall
    {
        type            alphaContactAngle;
        contactAngleProperties 
        {
            mercury         
            {
                theta0          90;
            }
            water           
            {
                theta0          90;
            }
            oil             
            {
                theta0          90;
            }
        }
        value           nonuniform List<scalar> 
50
(
0.0144893
0.016577
0.0614157
0.0800434
0.0572928
0.085967
0.119533
0.115916
0.0776412
0.0976365
0.250892
0.344773
0.432023
0.828847
0.999997
1
0.999999
1
0.999999
0.999998
0.999998
0.999999
1
1
1
1
1
1
1
1
1
1
1
1
1
1
1
1
1
1
1
1
1
1
1
1
1
1
1
1
)
;
    }
    lowerWall
    {
        type            alphaContactAngle;
        contactAngleProperties 
        {
            mercury         
            {
                theta0          90;
            }
            water           
            {
                theta0          90;
            }
            oil             
            {
                theta0          90;
            }
        }
        value           nonuniform List<scalar> 
62
(
1.27677e-13
1.25756e-13
1.16934e-13
9.30575e-14
6.45912e-14
4.19952e-14
1.69883e-14
7.00145e-15
2.8542e-15
1.57601e-15
1.10803e-15
8.70373e-16
7.41258e-16
6.5497e-16
6.35085e-16
6.69555e-16
7.94139e-16
1.40161e-15
4.61837e-15
2.06311e-14
4.41455e-14
1.74921e-14
2.82162e-15
2.82162e-15
6.47038e-14
1.30869e-12
5.89765e-12
4.7231e-13
1.96501e-13
4.70766e-09
2.77769e-08
0.233116
0.233115
0.233116
0.101695
1.25032e-05
2.75722e-05
4.48684e-06
8.99155e-07
7.66255e-07
2.55691e-05
0.00070504
0.00191908
1.25032e-05
0.0141249
0.0574708
0.068234
0.0875626
0.0859742
0.07008
0.0470452
0.0467551
0.055506
0.138924
0.198912
0.145162
0.113674
0.0224081
0.00866047
0.0099908
0.0158789
0.0144893
)
;
    }
    atmosphere
    {
        type            inletOutlet;
        inletValue      uniform 1;
        value           nonuniform List<scalar> 
46
(
1
1
1
1
1
1
1
1
1
1
1
1
1
1
1
1
1
1
1
1
1
1
1
1
1
1
1
1
1
1
1
1
1
1
1
1
1
1
1
1
1
1
1
1
1
1
)
;
    }
    defaultFaces
    {
        type            empty;
    }
}


// ************************************************************************* //
