/*--------------------------------*- C++ -*----------------------------------*\
  =========                 |
  \\      /  F ield         | OpenFOAM: The Open Source CFD Toolbox
   \\    /   O peration     | Website:  https://openfoam.org
    \\  /    A nd           | Version:  13
     \\/     M anipulation  |
\*---------------------------------------------------------------------------*/
FoamFile
{
    format      ascii;
    class       volScalarField;
    location    "1.35";
    object      alpha.oil;
}
// * * * * * * * * * * * * * * * * * * * * * * * * * * * * * * * * * * * * * //

dimensions      [];

internalField   nonuniform List<scalar> 
2268
(
1.6261e-16
2.83302e-15
3.26485e-14
1.39059e-13
3.56091e-13
7.97935e-13
1.46906e-12
3.67954e-12
7.1977e-12
1.38105e-11
2.68078e-11
5.66588e-11
1.18271e-10
2.40929e-10
4.87267e-10
9.65352e-10
1.74278e-09
3.00407e-09
3.491e-09
3.54122e-09
3.54928e-09
0.000468012
0.000568268
4.40129e-16
5.00296e-15
2.37157e-14
8.1963e-14
2.84741e-13
7.52633e-13
1.72729e-12
3.98413e-12
8.91212e-12
1.96895e-11
4.3406e-11
9.41939e-11
2.06439e-10
4.33087e-10
8.36702e-10
1.59666e-09
3.33146e-09
8.55376e-09
2.47837e-08
3.64082e-08
3.53413e-09
0.000100026
0.00056796
7.30651e-16
4.03088e-15
1.45375e-14
4.90808e-14
2.28366e-13
8.53534e-13
2.11744e-12
5.19471e-12
1.27073e-11
3.1445e-11
7.24185e-11
1.60582e-10
3.19821e-10
6.04929e-10
1.05132e-09
1.6607e-09
3.44537e-09
1.50494e-08
4.54073e-08
5.96313e-08
4.56444e-08
4.94437e-08
0.00030542
7.25305e-16
2.08861e-15
6.87918e-15
2.24233e-14
1.18942e-13
6.24639e-13
1.9424e-12
5.08365e-12
1.40771e-11
3.64337e-11
8.18033e-11
1.82581e-10
3.98818e-10
9.60924e-10
2.7042e-09
5.36413e-09
5.4155e-09
1.41487e-08
3.58332e-08
4.50653e-08
4.97894e-08
1.39454e-07
1.34605e-05
7.96852e-16
1.05238e-15
5.16429e-15
1.28957e-14
3.69722e-14
1.65662e-13
6.55621e-13
2.31618e-12
8.45849e-12
2.28069e-11
5.50943e-11
1.35143e-10
2.83423e-10
7.02789e-10
2.60491e-09
1.75399e-08
6.52697e-09
1.07521e-08
1.97235e-08
3.48906e-08
4.61258e-08
1.0873e-06
1.22837e-06
7.57494e-14
1.29644e-12
1.22105e-12
1.34288e-12
8.43277e-13
4.2652e-13
2.81444e-13
3.03215e-13
1.32039e-12
6.94438e-12
2.33222e-11
6.66039e-11
2.21891e-10
4.9602e-10
9.13861e-10
7.50945e-09
4.1607e-07
1.22232e-06
4.19197e-06
5.11413e-06
3.43187e-06
2.31902e-06
0.000617007
8.57825e-13
3.68056e-11
7.45381e-11
5.34985e-11
2.9148e-11
1.50893e-11
6.49864e-12
2.49531e-12
1.46304e-12
3.26783e-12
8.791e-12
2.63456e-11
4.21631e-10
7.59374e-10
5.65394e-10
5.68378e-10
1.80601e-07
6.75493e-06
7.94371e-06
7.94648e-06
7.34066e-06
8.33369e-07
0.000726556
3.6421e-11
3.78663e-10
5.2232e-10
3.3573e-10
1.6685e-10
7.18019e-11
3.32909e-11
1.7203e-11
1.30591e-11
1.59003e-11
3.12449e-11
9.24943e-11
3.75998e-10
6.10878e-10
5.22143e-10
5.65362e-10
2.06376e-07
3.63967e-06
7.94635e-06
7.89914e-06
2.613e-06
3.78656e-08
0.000172684
0.116985
0.0861608
0.0209957
0.0811386
0.353906
0.378382
0.379242
0.371886
0.362932
0.364833
0.291365
0.187122
0.055444
0.0726371
0.163775
0.212575
0.275772
0.27414
0.275091
0.114568
0.10233
0.011533
4.10256e-18
0.00236725
0.0137056
0.0143349
0.014832
0.0348173
0.0727423
0.185225
0.188225
0.0560085
0.0570697
0.111375
0.21444
0.212224
0.246893
0.355128
0.123189
0.524109
0.0296723
1.43597e-31
4.09159e-18
1.17196e-13
8.25227e-11
0.0254359
0.106301
0.147764
0.2871
0.286658
0.270748
0.223302
0.185623
0.227234
0.250043
0.258169
0.520696
0.726457
0.670784
9.58614e-25
3.42963e-08
6.31225e-07
4.87199e-07
2.12418e-08
0.100277
0.23488
0.236927
0.237594
0.26639
0.278207
0.278708
0.278166
0.247455
0.218938
0.290356
0.52018
0.90469
0.413856
-4.59331e-10
2.78985e-07
1.60053e-06
5.41673e-07
0.000375138
0.0205867
0.111191
0.219676
0.234776
0.144786
0.120959
0.119432
0.132287
0.141478
0.123137
0.389882
0.520696
0.902385
0.344095
5.43042e-05
1.63482e-06
3.43627e-06
5.4312e-06
2.19421e-05
4.86129e-06
6.83536e-06
0.00886622
0.127539
0.196649
0.173885
0.11558
0.115587
0.115249
0.135832
0.300805
0.459545
0.904297
0.212288
5.72609e-06
5.35602e-06
1.8621e-05
3.3127e-05
3.66727e-05
4.71747e-05
2.95773e-05
2.67637e-05
2.77114e-05
0.082312
0.0928713
0.15275
0.287206
0.36747
0.330606
0.447899
0.435219
0.896844
0.415125
0.000975881
6.95842e-06
3.08843e-05
2.42492e-05
2.80535e-05
3.21175e-05
2.56328e-05
2.64133e-05
0.000585207
0.0111951
0.10637
0.44573
0.77348
0.90462
0.882324
0.783653
0.662147
1.71417e-09
2.37771e-09
2.20723e-09
1.74575e-09
9.67935e-10
3.2233e-10
1.3098e-10
5.68506e-11
4.08164e-11
4.89664e-11
9.37625e-11
2.74297e-10
4.63922e-10
4.98729e-10
4.82849e-10
3.75074e-08
7.65348e-08
1.68648e-08
5.60169e-07
4.27476e-07
2.94016e-08
0.00345673
3.38537e-06
4.8591e-09
7.18525e-09
7.86106e-09
7.91393e-09
6.07001e-09
1.62236e-09
6.59354e-10
2.90712e-10
1.6825e-10
1.88144e-10
3.58437e-10
5.11434e-10
7.7619e-10
1.26474e-09
4.92175e-09
1.29657e-08
6.01298e-09
2.41077e-09
1.0557e-08
6.62697e-08
-2.0321e-09
1.54083e-08
0.284959
1.43682e-08
1.22727e-08
1.13642e-08
1.15545e-08
1.01049e-08
2.43474e-09
9.50613e-10
4.92415e-10
2.96088e-10
3.0143e-10
2.20855e-09
4.51344e-09
5.30966e-09
6.05374e-09
7.39314e-09
7.48805e-09
5.11176e-09
2.51635e-09
1.99038e-09
1.34469e-15
9.24064e-16
0.293525
0.816874
1.83295e-08
1.14008e-08
6.32604e-09
6.42545e-09
1.40748e-08
7.27859e-09
6.71718e-10
3.57799e-10
8.90338e-11
2.23413e-14
4.36709e-09
1.52657e-08
1.77886e-08
-2.99495e-11
7.14877e-10
6.71017e-10
4.90868e-26
1.38669e-17
4.52783e-20
0.0773124
0.517545
0.919106
0.997932
1.8443e-08
2.15526e-09
-3.31635e-10
-7.5084e-14
0.00689513
0.00654744
0.00117557
-1.7883e-16
-4.1268e-17
-1.02194e-18
-2.76695e-16
-7.44284e-19
-1.44704e-19
0.00122757
0.00289101
-2.76488e-08
0.0518379
0.314777
0.602389
0.864264
0.97143
0.999899
1
1.63239e-08
0.000260631
0.0560722
0.400636
0.576395
0.534351
0.426756
0.338243
0.316871
0.287335
0.255975
0.2524
0.280284
0.389551
0.528962
0.712962
0.870449
0.945678
0.986282
0.999825
0.999999
1
1
1.65828e-08
0.0754719
0.656909
0.975811
0.987216
0.921148
0.862131
0.819455
0.864435
0.835846
0.875801
0.90136
0.933373
0.964702
0.986564
0.99776
0.99998
0.999998
0.999998
0.999998
0.999999
1
1
0.0146439
0.231735
0.891396
0.999997
0.999998
0.999996
1
1
1
1
1
1
1
1
1
1
0.999997
0.999997
0.999998
0.999999
1
1
1
0.0168254
0.235131
0.414771
0.545158
0.742432
0.895223
0.968325
0.996507
1
1
1
1
1
1
1
1
1
1
1
1
1
1
1
0.0225718
0.0112935
-1.76526e-16
1.26376e-14
0.0212636
0.144359
0.294872
0.463546
0.641126
0.767939
0.850672
0.909458
0.948329
0.972128
0.985819
0.993127
0.996416
0.997062
0.997228
0.99769
0.998213
0.994611
0.967914
0.00870733
1.01078e-06
2.28382e-07
4.08538e-09
4.13584e-17
-7.63462e-26
2.89737e-19
-2.20178e-19
-2.77556e-18
0.0394001
0.100011
0.167828
0.239129
0.308251
0.371411
0.425575
0.464942
0.477389
0.470214
0.447448
0.387855
0.284195
0.192202
0.000909695
0.000168879
3.10673e-06
4.07475e-08
1.23192e-08
1.53106e-08
6.7957e-09
6.32221e-09
1.30575e-22
6.74147e-14
-6.62671e-16
-3.19366e-15
3.66829e-28
3.6616e-19
1.17612e-18
1.69874e-18
8.70877e-19
-2.85453e-27
-4.1359e-26
0
3.39118e-09
1.68456e-07
4.87196e-07
2.34643e-06
2.4991e-06
2.37016e-06
1.54977e-07
4.81537e-08
7.20179e-08
8.84477e-08
2.72448e-07
1.00797e-06
1.16898e-06
-4.03312e-22
1.86331e-23
1.60143e-10
2.20712e-09
3.50944e-09
4.28917e-09
3.55304e-09
4.36067e-09
2.00283e-08
2.12935e-07
6.34169e-07
9.86162e-07
1.15333e-06
7.99877e-07
3.00059e-06
2.78786e-06
8.10393e-08
6.08172e-08
8.86962e-08
1.33709e-07
5.79863e-07
3.90518e-06
2.62805e-05
5.55372e-05
8.58711e-06
3.95752e-10
5.39845e-09
1.39004e-08
1.98826e-08
3.14782e-08
1.57594e-07
8.95796e-07
1.36266e-06
1.41867e-06
1.36172e-06
1.0988e-06
1.95641e-07
7.15474e-07
1.36532e-07
5.85298e-08
6.41992e-08
9.12182e-08
1.72611e-07
4.46798e-07
1.88867e-06
8.1895e-05
0.000172924
0.000117952
7.29148e-11
8.13668e-10
3.04401e-09
6.55741e-09
4.99958e-08
3.91384e-07
1.34455e-06
1.25979e-06
1.09914e-06
4.43337e-07
1.15715e-07
2.27839e-08
5.91845e-08
1.20284e-07
8.64166e-08
6.97823e-08
6.70163e-08
1.18544e-07
2.62774e-07
9.1253e-07
7.19564e-05
0.000175217
0.000172025
8.88249e-05
1.26495e-10
1.42206e-10
1.41193e-10
7.1184e-08
4.35635e-07
8.59219e-07
4.8223e-07
4.71817e-08
5.3981e-08
3.84059e-08
2.38492e-08
5.94631e-08
1.04566e-07
1.01272e-07
7.68752e-08
6.58822e-08
8.69978e-08
1.33582e-07
1.82638e-07
3.65934e-07
7.95816e-05
0.00017492
0.000171784
3.54389e-05
1.41193e-10
1.17638e-08
7.72231e-08
9.29717e-08
6.11476e-08
6.3261e-08
2.49154e-08
8.34886e-09
8.43653e-09
1.49861e-08
5.14849e-08
9.02614e-08
1.01316e-07
8.29173e-08
5.58039e-08
3.83507e-08
4.90693e-08
5.71461e-08
7.3291e-08
9.26561e-08
3.09872e-05
0.0001148
0.00011835
9.83722e-08
1.23947e-09
6.25424e-10
3.02973e-08
6.28345e-08
5.24978e-08
9.30864e-09
3.8967e-09
2.2464e-09
9.51586e-09
3.28814e-08
6.96264e-08
9.02975e-08
8.48254e-08
5.64054e-08
2.97809e-08
2.3421e-08
3.0835e-08
3.37622e-08
2.81785e-08
2.77708e-08
2.48821e-08
1.58053e-05
2.25696e-05
1.23607e-06
1.22268e-07
4.10525e-08
2.72492e-08
5.46246e-08
3.66183e-08
8.20704e-09
6.90551e-09
5.09378e-09
1.80745e-08
4.00677e-08
6.38902e-08
7.28254e-08
5.65291e-08
3.08933e-08
1.97628e-08
2.02472e-08
2.35275e-08
2.71158e-08
2.35301e-08
1.83591e-08
2.95338e-08
9.66077e-07
2.91083e-06
2.47472e-06
2.89624e-08
1.64374e-08
1.91215e-08
2.56775e-08
1.88074e-08
1.60645e-08
2.04499e-09
9.08118e-09
2.19075e-08
3.82486e-08
5.361e-08
5.04761e-08
2.89778e-08
1.68445e-08
1.45951e-08
1.70244e-08
2.01706e-08
2.13174e-08
1.99205e-08
1.69592e-08
2.21351e-08
1.14251e-07
3.19226e-07
3.42536e-07
2.27742e-08
9.13323e-09
9.39984e-09
1.10283e-08
1.44815e-08
8.15559e-10
4.06504e-09
1.02866e-08
1.88062e-08
3.05727e-08
3.95279e-08
2.6016e-08
1.37674e-08
9.5351e-09
8.94145e-09
1.07489e-08
1.33644e-08
1.50369e-08
1.438e-08
1.1487e-08
7.99583e-09
8.46943e-09
3.24146e-08
3.40844e-08
1.94827e-08
1.08958e-08
6.33456e-09
7.90492e-09
2.36853e-10
1.39791e-09
4.10899e-09
8.46602e-09
1.42161e-08
2.38589e-08
2.03923e-08
1.101e-08
7.15446e-09
5.3258e-09
5.07176e-09
6.28345e-09
7.8589e-09
8.99706e-09
8.94096e-09
7.75223e-09
5.36722e-09
4.20028e-09
5.3099e-09
5.7125e-09
4.72288e-09
4.27797e-09
4.36319e-09
5.14885e-11
4.1507e-10
1.40263e-09
3.15281e-09
5.01157e-09
1.14516e-08
1.27198e-08
7.51688e-09
5.03338e-09
3.42592e-09
2.61849e-09
2.67284e-09
3.33777e-09
4.14313e-09
4.72478e-09
4.70081e-09
3.95381e-09
3.11448e-09
2.45472e-09
2.3261e-09
2.21881e-09
2.23375e-09
2.32481e-09
1.1097e-11
1.09202e-10
4.14784e-10
1.08263e-09
1.54665e-09
4.19165e-09
6.09105e-09
4.32e-09
3.02333e-09
2.07621e-09
1.44039e-09
1.22947e-09
1.3564e-09
1.62933e-09
1.95857e-09
2.17868e-09
2.05509e-09
1.74522e-09
1.40311e-09
1.22009e-09
1.11285e-09
1.08725e-09
1.14063e-09
2.06403e-12
2.40704e-11
1.06055e-10
3.01396e-10
5.11491e-10
1.38294e-09
2.24788e-09
1.88849e-09
1.44388e-09
1.06506e-09
7.35595e-10
5.76299e-10
5.54471e-10
6.36515e-10
7.58018e-10
8.78381e-10
8.96651e-10
8.03492e-10
6.70529e-10
5.90387e-10
5.43518e-10
5.1475e-10
5.09805e-10
2.94808e-13
4.61385e-12
2.35707e-11
7.45202e-11
1.46419e-10
4.47266e-10
7.67268e-10
6.90988e-10
5.62486e-10
4.28699e-10
3.1493e-10
2.43602e-10
2.2081e-10
2.36323e-10
2.75478e-10
3.15961e-10
3.35588e-10
3.18561e-10
2.83091e-10
2.54388e-10
2.33245e-10
2.15612e-10
2.06701e-10
3.07056e-14
6.46523e-13
3.99147e-12
1.48809e-11
3.64047e-11
1.18592e-10
2.14112e-10
2.11536e-10
1.7786e-10
1.42556e-10
1.08789e-10
8.53336e-11
7.73006e-11
8.09082e-11
9.22167e-11
1.05169e-10
1.14733e-10
1.11697e-10
1.03987e-10
9.66551e-11
9.11547e-11
8.32567e-11
7.39702e-11
2.77484e-15
7.67638e-14
5.39852e-13
2.41711e-12
7.15042e-12
2.64801e-11
4.95116e-11
5.1859e-11
4.65444e-11
3.94655e-11
3.13879e-11
2.56198e-11
2.35921e-11
2.49381e-11
2.8734e-11
3.27601e-11
3.58446e-11
3.53816e-11
3.41722e-11
3.26432e-11
3.0662e-11
2.70948e-11
2.26089e-11
1.72097e-16
6.27241e-15
6.21829e-14
2.91078e-13
1.04073e-12
4.89138e-12
9.68695e-12
1.04083e-11
9.75933e-12
8.74999e-12
7.37159e-12
6.22972e-12
6.08517e-12
6.67666e-12
7.97063e-12
9.33099e-12
1.0205e-11
1.03736e-11
1.01683e-11
9.74837e-12
9.10651e-12
7.86479e-12
5.94319e-12
5.49067e-18
3.06582e-16
4.06055e-15
2.63629e-14
1.39402e-13
7.21801e-13
1.5508e-12
1.75873e-12
1.68922e-12
1.60823e-12
1.42327e-12
1.30352e-12
1.36773e-12
1.63189e-12
2.03323e-12
2.36939e-12
2.6234e-12
2.66687e-12
2.63403e-12
2.52498e-12
2.27293e-12
1.80514e-12
1.26721e-12
2.32847e-19
1.39867e-17
2.67215e-16
2.30411e-15
1.35662e-14
7.54346e-14
1.95813e-13
2.35654e-13
2.43212e-13
2.41419e-13
2.29768e-13
2.3367e-13
2.7371e-13
3.48775e-13
4.35108e-13
5.21663e-13
5.71339e-13
5.94479e-13
5.88592e-13
5.51918e-13
4.83167e-13
3.52201e-13
2.29052e-13
5.83168e-21
5.11264e-19
1.32719e-17
1.42216e-16
1.08566e-15
6.21484e-15
1.68106e-14
2.21791e-14
2.64128e-14
2.81773e-14
3.00184e-14
3.59603e-14
4.67411e-14
6.27456e-14
8.23803e-14
1.00134e-13
1.11225e-13
1.14636e-13
1.13568e-13
1.02952e-13
8.3259e-14
5.29758e-14
3.11297e-14
1.07523e-22
1.269e-20
5.03413e-19
7.18058e-18
6.50754e-17
3.93381e-16
1.22138e-15
1.81602e-15
2.40392e-15
3.09623e-15
3.7874e-15
4.84653e-15
6.8798e-15
9.83905e-15
1.35261e-14
1.69254e-14
1.93525e-14
2.02187e-14
1.92039e-14
1.60371e-14
1.17697e-14
6.74346e-15
3.76782e-15
1.35742e-24
1.72238e-22
1.39885e-20
2.92353e-19
3.1466e-18
1.81444e-17
6.9254e-17
1.28297e-16
2.00214e-16
2.99968e-16
4.10512e-16
6.00305e-16
9.40222e-16
1.43074e-15
2.01311e-15
2.58497e-15
2.99113e-15
3.06878e-15
2.72228e-15
2.08234e-15
1.35526e-15
7.64676e-16
5.36896e-16
1.763e-26
2.66602e-24
3.77223e-22
1.0279e-20
1.18381e-19
8.04895e-19
3.37782e-18
8.08925e-18
1.5725e-17
2.65213e-17
4.10523e-17
6.88497e-17
1.17163e-16
1.87828e-16
2.70677e-16
3.5486e-16
4.04091e-16
3.88082e-16
3.18425e-16
2.23593e-16
1.41713e-16
1.00061e-16
1.45368e-16
3.12863e-28
4.73982e-26
8.74622e-24
3.03578e-22
3.84196e-21
3.05215e-20
1.43577e-19
4.32039e-19
1.09746e-18
2.10753e-18
3.77114e-18
7.12499e-18
1.298e-17
2.2016e-17
3.29063e-17
4.29512e-17
4.69483e-17
4.29644e-17
3.31573e-17
2.31504e-17
1.75902e-17
2.26226e-17
6.3778e-17
2.45662e-29
1.01079e-27
1.77576e-25
7.80527e-24
1.14925e-22
9.72195e-22
5.40822e-21
2.06966e-20
6.86924e-20
1.50061e-19
3.11444e-19
6.59741e-19
1.30179e-18
2.29983e-18
3.55204e-18
4.56402e-18
4.85514e-18
4.36431e-18
3.44292e-18
2.94576e-18
3.63092e-18
8.32219e-18
3.03235e-17
4.46731e-30
6.41641e-29
3.6744e-27
1.90677e-25
3.15314e-24
2.94155e-23
1.99126e-22
9.12411e-22
3.81266e-21
9.50957e-21
2.26657e-20
5.46922e-20
1.14975e-19
2.15585e-19
3.41586e-19
4.46345e-19
4.90489e-19
4.69515e-19
4.47896e-19
5.64241e-19
1.04083e-18
3.08497e-18
1.64846e-17
8.23487e-31
1.01531e-29
1.475e-28
5.19729e-27
9.54289e-26
9.84813e-25
7.68505e-24
4.33747e-23
2.17596e-22
6.09593e-22
1.64982e-21
4.34936e-21
1.01748e-20
2.03919e-20
3.34711e-20
4.67113e-20
5.62336e-20
6.36568e-20
8.10469e-20
1.47564e-19
3.56512e-19
1.7656e-18
1.04692e-17
1.40898e-31
1.79355e-30
1.85826e-29
2.60392e-28
4.06143e-27
4.10835e-26
3.33779e-25
2.13937e-24
1.24295e-23
4.07934e-23
1.2839e-22
3.80146e-22
9.72349e-22
2.09684e-21
3.74223e-21
5.7121e-21
8.06016e-21
1.1089e-20
1.82502e-20
4.45707e-20
1.81216e-19
9.62124e-19
6.44689e-18
2.10277e-32
3.05426e-31
3.28074e-30
3.32072e-29
3.4989e-28
3.11691e-27
2.3865e-26
1.65899e-25
1.00485e-24
3.86255e-24
1.34707e-23
4.26034e-23
1.16959e-22
2.6954e-22
5.19655e-22
8.62409e-22
1.39926e-21
2.27149e-21
4.68843e-21
1.60893e-20
8.16276e-20
4.52301e-19
3.18349e-18
3.91965e-06
0.0707276
0.701004
0.820679
0.513762
0.579063
0.789887
0.879038
0.891355
0.924927
0.989018
0.99933
0.999984
1
1
0.999983
1
1
1
0.999999
1
1
0.999997
0.999993
1
1
0.999995
0.999992
1
1
0.999999
0.999999
1
1
1
1
0.927498
0.912149
0.919717
0.923509
0.137547
0.109388
0.0784113
0.0360664
6.48309e-07
6.00673e-07
4.88096e-07
3.97887e-07
1.48662e-06
1.37168e-06
8.85488e-07
6.56944e-07
3.43381e-07
7.07801e-08
1.82779e-07
1.4472e-07
7.24423e-08
5.19298e-08
4.84029e-08
3.42828e-08
2.35232e-08
1.06789e-08
1.06785e-08
7.76203e-09
1.59899e-09
1.19953e-09
1.19713e-09
1.19468e-09
2.10988e-09
1.93184e-09
1.77024e-09
1.59337e-09
6.7688e-09
5.46769e-09
4.76095e-09
3.81345e-09
1.47789e-08
1.41419e-08
9.8353e-09
9.65564e-09
1.37023e-08
1.14136e-08
1.15904e-08
1.06874e-08
8.45408e-09
8.40061e-09
7.78075e-09
7.55818e-09
4.43538e-09
4.48154e-09
4.43942e-09
4.27393e-09
2.27689e-09
2.24903e-09
2.19659e-09
2.10696e-09
1.11073e-09
1.06959e-09
1.04244e-09
9.70037e-10
4.92656e-10
4.67262e-10
4.37233e-10
3.98934e-10
1.97539e-10
1.8414e-10
1.70072e-10
1.53248e-10
6.97856e-11
6.32297e-11
5.61882e-11
4.97618e-11
2.07916e-11
1.78899e-11
1.5702e-11
1.34298e-11
5.16366e-12
4.31304e-12
3.57927e-12
2.90366e-12
1.00295e-12
7.93937e-13
6.30667e-13
4.87712e-13
1.73538e-13
1.28512e-13
9.30142e-14
6.65328e-14
2.23654e-14
1.58094e-14
1.12792e-14
8.51934e-15
2.76023e-15
2.16312e-15
1.96115e-15
2.12214e-15
5.14065e-16
5.79775e-16
7.54004e-16
1.09463e-15
1.90461e-16
2.59133e-16
3.96979e-16
7.25899e-16
9.19441e-17
1.42009e-16
2.61966e-16
6.06268e-16
4.84206e-17
8.60109e-17
2.26421e-16
6.70277e-16
2.9621e-17
6.9953e-17
2.30051e-16
7.35881e-16
2.23522e-17
6.94615e-17
2.43481e-16
7.91562e-16
1.49267e-17
5.94203e-17
2.15357e-16
6.64299e-16
1.24428e-17
4.23279e-17
1.3181e-16
3.43786e-16
0.866952
0.449038
0.00175375
-1.69898e-20
0.00289235
0.0499348
0.136787
0.227282
0.292503
0.340449
0.413488
0.522623
0.673671
0.861545
0.988277
0.998602
0.99902
0.974424
0.778947
0.779363
0.221028
-6.30218e-09
6.30218e-09
0.128746
0.608176
0.870378
0.937075
0.967682
0.988552
0.999887
0.999704
0.999625
0.999446
0.999072
0.999083
0.999435
0.99946
0.850347
0.790392
0.293419
5.10357e-18
0.0618965
0.65034
0.997961
0.999874
0.999725
0.999697
0.999848
0.999999
0.999995
0.999972
0.999947
0.999943
0.999953
0.999956
0.960851
0.721075
0.935873
0.623967
0.534089
0.666091
0.939153
1
1
1
1
1
1
1
0.999998
0.999989
0.999972
0.999971
0.99968
0.788785
0.625725
0.996265
0.90405
0.89173
0.956029
0.999724
1
1
1
1
0.998412
0.996567
0.965853
0.885068
0.871225
0.849401
0.782085
0.746029
0.670069
0.540213
0.999668
0.998853
0.999616
1
1
1
1
1
0.990712
0.915551
0.565666
0.241062
0.168427
0.17249
0.182353
0.176972
0.132024
0.155737
0.164924
0.999998
1
1
1
1
1
0.979128
0.872271
0.415231
0.0343788
0.00240579
1.13581e-06
1.23857e-06
1.39756e-06
1.52892e-08
-6.67932e-06
-7.24172e-06
6.26605e-09
2.54504e-06
1
1
1
1
0.964223
0.861484
0.373827
0.00287405
4.8425e-07
1.1655e-06
8.30426e-08
1.13431e-07
1.92992e-11
4.79956e-08
0.00199682
0.00268158
0.000965629
9.53704e-11
4.8158e-07
1
0.993047
0.970592
0.794759
0.195779
1.3393e-06
4.03695e-07
4.16903e-08
2.24013e-08
2.53345e-08
2.24016e-08
4.71393e-08
3.01022e-05
0.00379428
0.00418419
0.0021804
0.000485558
-2.18408e-16
7.55234e-07
0.701275
0.309085
0.0489221
6.2794e-07
4.11703e-07
1.8082e-07
6.89902e-08
2.44924e-08
0.00019135
0.000880839
0.000353808
8.1095e-08
0.000176425
0.00311128
0.00166469
5.02278e-05
5.73381e-06
2.2166e-07
4.41658e-07
7.57328e-07
3.61411e-07
1.27932e-07
1.35603e-07
2.48156e-07
4.60235e-07
5.67456e-08
8.10277e-05
0.00109188
0.00108971
0.000957857
1.50317e-07
0.000150997
8.40588e-05
1.70072e-07
6.65984e-08
6.77453e-08
2.73101e-07
1.25315e-06
3.83336e-07
3.54929e-07
1.64371e-07
3.13261e-07
1.38749e-06
1.68575e-06
2.96883e-06
0.000101755
0.000476949
0.000739225
0.000289358
4.24197e-07
4.46915e-06
1.35222e-07
1.40654e-07
1.52445e-07
6.29646e-08
4.06848e-07
1.68619e-06
3.87331e-07
9.22002e-08
5.40313e-08
5.49767e-07
1.6551e-06
2.77765e-06
6.73763e-06
1.83801e-05
5.69856e-09
4.48464e-06
7.30745e-08
8.95966e-06
1.5576e-07
9.51304e-08
1.36114e-07
9.16804e-08
7.82445e-08
4.75263e-07
1.72726e-06
9.45872e-08
3.37403e-08
5.83342e-08
1.9048e-07
3.06973e-07
3.91964e-07
4.0469e-07
3.80769e-09
5.93895e-09
4.65245e-09
1.13663e-07
2.02464e-06
7.13522e-08
7.60023e-08
5.89063e-08
3.19883e-08
3.9034e-08
4.48729e-07
1.44506e-06
2.59148e-08
1.25691e-08
1.05489e-08
9.53288e-09
2.09012e-09
1.09989e-08
3.39197e-09
4.18972e-09
6.23692e-09
8.26658e-09
1.4779e-08
5.88986e-09
3.21087e-08
2.90127e-08
1.72405e-08
1.34894e-08
6.60629e-08
2.97249e-07
3.78615e-07
6.25726e-09
3.67267e-09
3.94357e-09
2.26172e-09
2.34116e-09
3.13101e-09
4.05236e-09
4.38137e-09
5.23679e-09
5.90926e-09
6.99066e-09
4.31441e-09
1.14495e-08
8.68309e-09
6.27124e-09
8.86144e-09
3.6916e-08
1.77456e-07
7.9933e-08
1.18896e-09
1.1961e-09
1.4223e-09
1.69669e-09
1.83317e-09
2.35715e-09
2.84361e-09
3.14514e-09
3.37066e-09
3.54937e-09
3.63085e-09
3.52548e-09
4.09586e-09
3.71536e-09
3.82254e-09
4.91187e-09
1.26831e-08
3.9596e-08
6.06985e-08
1.44399e-09
1.17121e-09
9.4743e-10
8.97982e-10
8.85809e-10
9.14528e-10
1.31174e-09
1.62603e-09
1.76826e-09
1.85125e-09
1.89515e-09
1.91256e-09
2.09926e-09
2.42996e-09
3.10977e-09
3.97127e-09
4.97961e-09
7.77473e-09
1.55764e-08
3.12026e-09
1.91519e-09
1.21253e-09
9.38945e-10
7.31363e-10
6.47742e-10
6.43136e-10
6.99655e-10
7.69507e-10
8.82046e-10
1.01025e-09
1.11678e-09
1.35705e-09
1.85791e-09
2.72895e-09
3.96472e-09
5.76791e-09
6.945e-09
7.01768e-09
7.95091e-09
4.75113e-09
2.50906e-09
1.39923e-09
8.63369e-10
5.80839e-10
4.40553e-10
3.83587e-10
3.70942e-10
4.09566e-10
5.52946e-10
7.18346e-10
1.00322e-09
1.55342e-09
2.53663e-09
4.12238e-09
6.75383e-09
8.02307e-09
8.07164e-09
9.55001e-09
6.83495e-09
3.5243e-09
2.26562e-09
1.14941e-09
6.68047e-10
3.91736e-10
2.61807e-10
2.11094e-10
2.11616e-10
3.26709e-10
5.11986e-10
8.30405e-10
1.41975e-09
2.46383e-09
4.27159e-09
8.22049e-09
1.1145e-08
1.15938e-08
7.01911e-09
5.52706e-09
3.33489e-09
2.23729e-09
1.20519e-09
6.97882e-10
3.75941e-10
2.14255e-10
1.47549e-10
1.42189e-10
2.27625e-10
4.17895e-10
7.64499e-10
1.39796e-09
2.51261e-09
4.6724e-09
9.5236e-09
1.50355e-08
1.30202e-08
4.04609e-09
3.38467e-09
2.27944e-09
1.5746e-09
9.28202e-10
5.44113e-10
2.9387e-10
1.61894e-10
1.08265e-10
1.13389e-10
1.96544e-10
3.98898e-10
7.73436e-10
1.46106e-09
2.66605e-09
5.19453e-09
1.19044e-08
1.89668e-08
1.56618e-08
1.989e-09
1.68921e-09
1.21226e-09
8.65526e-10
5.17618e-10
3.13267e-10
1.73781e-10
1.002e-10
7.59219e-11
1.00359e-10
2.00601e-10
4.20085e-10
8.44351e-10
1.59168e-09
2.92304e-09
6.41172e-09
1.5032e-08
2.80796e-08
1.92687e-08
8.76447e-10
7.23298e-10
5.25461e-10
3.72466e-10
2.32776e-10
1.37813e-10
8.05438e-11
5.32368e-11
5.57474e-11
1.01041e-10
2.18981e-10
4.72678e-10
9.61566e-10
1.78794e-09
3.36034e-09
7.28953e-09
2.05125e-08
3.74368e-08
2.7787e-08
3.39918e-10
2.73628e-10
1.97941e-10
1.34406e-10
8.53814e-11
4.99651e-11
3.24803e-11
3.04869e-11
5.1028e-11
1.11536e-10
2.5381e-10
5.57516e-10
1.12156e-09
2.02976e-09
3.72885e-09
1.03922e-08
2.80147e-08
5.7252e-08
3.59506e-08
1.22187e-10
9.197e-11
6.19566e-11
4.01384e-11
2.46783e-11
1.5648e-11
1.49285e-11
2.52232e-11
5.67497e-11
1.32699e-10
3.06262e-10
6.69438e-10
1.31081e-09
2.28763e-09
4.58649e-09
1.15266e-08
4.01001e-08
9.05305e-08
4.29829e-08
3.62833e-11
2.58091e-11
1.63323e-11
1.03578e-11
6.7958e-12
6.70294e-12
1.21554e-11
2.86194e-11
6.93341e-11
1.63909e-10
3.77154e-10
8.1504e-10
1.55833e-09
2.66969e-09
5.06542e-09
1.83156e-08
5.34302e-08
1.09857e-07
4.60805e-08
9.08103e-12
5.97305e-12
3.41357e-12
2.38915e-12
2.65773e-12
5.50678e-12
1.39562e-11
3.5452e-11
8.53108e-11
2.03627e-10
4.63737e-10
9.8686e-10
1.84985e-09
2.93234e-09
6.01206e-09
2.26359e-08
7.52983e-08
1.10041e-07
4.60283e-08
1.75649e-12
1.06165e-12
6.95027e-13
9.91257e-13
2.39785e-12
6.64468e-12
1.73352e-11
4.35396e-11
1.06432e-10
2.49935e-10
5.67792e-10
1.19057e-09
2.17745e-09
3.25897e-09
7.42081e-09
3.22743e-08
8.43993e-08
1.10307e-07
4.37285e-08
2.82419e-13
1.82556e-13
3.1668e-13
9.74604e-13
2.92834e-12
8.07945e-12
2.09993e-11
5.25399e-11
1.29373e-10
3.04562e-10
6.79414e-10
1.40794e-09
2.52347e-09
3.93714e-09
8.89257e-09
3.57879e-08
9.37625e-08
1.10075e-07
3.43486e-08
4.04932e-14
7.50078e-14
3.19694e-13
1.10866e-12
3.4381e-12
9.39727e-12
2.41574e-11
6.1379e-11
1.51094e-10
3.58735e-10
8.05002e-10
1.6734e-09
2.98935e-09
5.09366e-09
1.16309e-08
3.76877e-08
9.36876e-08
7.88834e-08
2.1925e-08
1.33578e-14
7.23401e-14
3.56656e-13
1.23934e-12
3.6685e-12
1.01278e-11
2.68688e-11
6.86514e-11
1.72091e-10
4.10696e-10
9.29237e-10
1.87171e-09
3.44798e-09
6.12667e-09
1.28074e-08
3.38339e-08
6.77251e-08
4.37876e-08
1.10789e-08
1.25737e-14
8.31461e-14
3.77395e-13
1.25025e-12
3.72234e-12
1.05484e-11
2.82371e-11
7.37791e-11
1.88371e-10
4.56928e-10
1.01749e-09
2.0358e-09
3.78532e-09
6.57357e-09
1.20896e-08
2.4708e-08
2.81771e-08
1.474e-08
5.10056e-09
1.34054e-14
8.81182e-14
3.58923e-13
1.18799e-12
3.58605e-12
1.04972e-11
2.87532e-11
7.68107e-11
1.94064e-10
4.73842e-10
1.04747e-09
2.06791e-09
3.85869e-09
6.16738e-09
9.41018e-09
1.46347e-08
7.5257e-09
4.55833e-09
2.01474e-09
1.30589e-14
7.87673e-14
3.09876e-13
1.05793e-12
3.37192e-12
9.98482e-12
2.78165e-11
7.38874e-11
1.87824e-10
4.50621e-10
9.83693e-10
1.90795e-09
3.50114e-09
5.21647e-09
5.95548e-09
6.86966e-09
3.85215e-09
1.18668e-09
7.91141e-10
1.21066e-14
6.63222e-14
2.6062e-13
9.32793e-13
2.97888e-12
8.86801e-12
2.46572e-11
6.4896e-11
1.62359e-10
3.85523e-10
8.2614e-10
1.54945e-09
2.70328e-09
3.774e-09
3.58724e-09
2.53027e-09
1.06846e-09
3.41134e-10
2.73804e-10
1.09217e-14
5.39956e-14
2.14998e-13
7.55983e-13
2.39987e-12
7.08813e-12
1.94645e-11
5.00646e-11
1.21852e-10
2.81886e-10
5.87753e-10
1.06164e-09
1.69475e-09
2.2497e-09
2.19764e-09
1.2936e-09
4.93067e-10
1.86512e-10
1.0939e-10
8.83775e-15
3.98538e-14
1.55853e-13
5.22706e-13
1.65696e-12
4.75688e-12
1.28045e-11
3.21668e-11
7.60374e-11
1.70371e-10
3.45907e-10
6.05687e-10
8.82244e-10
1.16699e-09
1.17755e-09
6.96938e-10
2.85058e-10
1.08968e-10
4.73956e-11
6.13764e-15
2.50563e-14
9.04502e-14
2.89548e-13
8.40781e-13
2.30579e-12
6.04863e-12
1.50218e-11
3.4722e-11
7.52489e-11
1.48792e-10
2.59504e-10
3.64795e-10
4.77884e-10
4.70909e-10
2.90614e-10
1.10595e-10
3.94078e-11
2.57602e-11
3.27507e-15
1.17584e-14
3.87595e-14
1.16503e-13
3.27901e-13
8.79582e-13
2.20578e-12
5.43685e-12
1.23912e-11
2.6176e-11
4.99135e-11
8.55216e-11
1.21531e-10
1.52092e-10
1.43347e-10
8.53684e-11
2.44714e-11
1.42902e-11
1.14242e-11
9.56067e-16
2.95904e-15
8.91525e-15
2.47947e-14
6.55507e-14
1.75908e-13
4.25132e-13
9.92764e-13
2.37352e-12
5.12957e-12
1.01051e-11
1.77841e-11
2.63387e-11
3.19815e-11
3.03793e-11
1.76541e-11
6.03264e-12
3.8102e-12
2.70424e-12
)
;

boundaryField
{
    leftWall
    {
        type            alphaContactAngle;
        contactAngleProperties 
        {
            mercury         
            {
                theta0          90;
            }
            air             
            {
                theta0          90;
            }
            water           
            {
                theta0          90;
            }
        }
        value           nonuniform List<scalar> 
50
(
1.6261e-16
4.40129e-16
7.30651e-16
7.25305e-16
7.96852e-16
7.57494e-14
8.57825e-13
3.6421e-11
1.71417e-09
4.8591e-09
1.43682e-08
1.83295e-08
1.8443e-08
1.63239e-08
1.65828e-08
0.0146439
0.0168254
0.0225718
0.00870733
0.000909695
2.34643e-06
7.99877e-07
1.95641e-07
2.27839e-08
2.38492e-08
1.49861e-08
9.51586e-09
5.09378e-09
2.04499e-09
8.15559e-10
2.36853e-10
5.14885e-11
1.1097e-11
2.06403e-12
2.94808e-13
3.07056e-14
2.77484e-15
1.72097e-16
5.49067e-18
2.32847e-19
5.83168e-21
1.07523e-22
1.35742e-24
1.763e-26
3.12863e-28
2.45662e-29
4.46731e-30
8.23487e-31
1.40898e-31
2.10277e-32
)
;
    }
    rightWall
    {
        type            alphaContactAngle;
        contactAngleProperties 
        {
            mercury         
            {
                theta0          90;
            }
            air             
            {
                theta0          90;
            }
            water           
            {
                theta0          90;
            }
        }
        value           nonuniform List<scalar> 
50
(
0.275091
0.355128
0.520696
0.52018
0.520696
0.459545
0.435219
0.662147
0.778947
0.850347
0.721075
0.625725
0.540213
0.164924
2.54504e-06
4.8158e-07
7.55234e-07
4.41658e-07
1.25315e-06
1.68619e-06
1.72726e-06
1.44506e-06
3.78615e-07
7.9933e-08
6.06985e-08
1.55764e-08
7.01768e-09
8.07164e-09
1.15938e-08
1.30202e-08
1.56618e-08
1.92687e-08
2.7787e-08
3.59506e-08
4.29829e-08
4.60805e-08
4.60283e-08
4.37285e-08
3.43486e-08
2.1925e-08
1.10789e-08
5.10056e-09
2.01474e-09
7.91141e-10
2.73804e-10
1.0939e-10
4.73956e-11
2.57602e-11
1.14242e-11
2.70424e-12
)
;
    }
    lowerWall
    {
        type            alphaContactAngle;
        contactAngleProperties 
        {
            mercury         
            {
                theta0          90;
            }
            air             
            {
                theta0          90;
            }
            water           
            {
                theta0          90;
            }
        }
        value           nonuniform List<scalar> 
62
(
1.6261e-16
2.83302e-15
3.26485e-14
1.39059e-13
3.56091e-13
7.97935e-13
1.46906e-12
3.67954e-12
7.1977e-12
1.38105e-11
2.68078e-11
5.66588e-11
1.18271e-10
2.40929e-10
4.87267e-10
9.65352e-10
1.74278e-09
3.00407e-09
3.491e-09
3.54122e-09
3.54928e-09
0.000468012
0.000568268
0.000568268
0.00056796
0.00030542
1.34605e-05
1.22837e-06
0.000617007
0.000726556
0.000172684
3.91965e-06
0.0707276
0.701004
0.820679
0.116985
0.114568
0.123189
0.726457
0.90469
0.902385
0.904297
0.896844
0.116985
0.0861608
0.0209957
0.0811386
0.353906
0.378382
0.379242
0.371886
0.362932
0.364833
0.291365
0.187122
0.055444
0.0726371
0.163775
0.212575
0.275772
0.27414
0.275091
)
;
    }
    atmosphere
    {
        type            inletOutlet;
        inletValue      uniform 0;
        value           nonuniform List<scalar> 
46
(
0
0
0
0
0
0
0
0
0
0
0
0
0
0
0
0
0
0
0
0
0
0
0
0
0
0
0
0
0
0
0
0
1.75908e-13
4.25132e-13
9.92764e-13
2.37352e-12
5.12957e-12
1.01051e-11
1.77841e-11
2.63387e-11
3.19815e-11
3.03793e-11
1.76541e-11
6.03264e-12
3.8102e-12
2.70424e-12
)
;
    }
    defaultFaces
    {
        type            empty;
    }
}


// ************************************************************************* //
