/*--------------------------------*- C++ -*----------------------------------*\
  =========                 |
  \\      /  F ield         | OpenFOAM: The Open Source CFD Toolbox
   \\    /   O peration     | Website:  https://openfoam.org
    \\  /    A nd           | Version:  13
     \\/     M anipulation  |
\*---------------------------------------------------------------------------*/
FoamFile
{
    format      ascii;
    class       volScalarField;
    location    "1.35";
    object      alpha.mercury;
}
// * * * * * * * * * * * * * * * * * * * * * * * * * * * * * * * * * * * * * //

dimensions      [];

internalField   nonuniform List<scalar> 
2268
(
1
1
1
1
1
1
1
1
1
1
1
1
1
1
1
1
1
1
1
1
1
0.999532
0.999432
1
1
1
1
1
1
1
1
1
1
1
1
1
1
1
1
1
1
1
1
1
0.9999
0.999432
1
1
1
1
1
1
1
1
1
1
1
1
1
1
1
1
1
1
1
1
1
1
0.999695
1
1
1
1
1
1
1
1
1
1
1
1
1
1
1
1
1
1
1
1
1
1
0.999987
1
1
1
1
1
1
1
1
1
1
1
1
1
1
1
1
1
1
1
1
1
0.999999
0.999999
0.604087
0.629984
0.653386
0.713928
0.800493
0.894048
0.9646
0.997075
1
1
1
1
1
1
1
1
1
0.999999
0.999996
0.999978
0.999919
0.999964
0.999383
9.13388e-10
1.52605e-10
4.44986e-12
0.0066289
0.0473154
0.127301
0.26157
0.451634
0.665059
0.798581
0.881231
0.937274
0.97377
0.983876
0.964383
0.908774
0.828212
0.733153
0.642574
0.568833
0.519607
0.537392
0.635597
9.12936e-10
2.33946e-10
4.42982e-17
9.44468e-18
2.90529e-18
5.80937e-19
5.69373e-20
1.99768e-20
0.00453472
0.0849203
0.177395
0.237921
0.260593
0.254208
0.2154
0.150957
0.0856916
0.0392284
0.0147765
0.0045824
0.00123652
0.00305959
0.0599181
0.876287
0.875416
0.876067
0.822109
0.551048
0.530996
0.545458
0.577672
0.587443
0.577833
0.568451
0.596627
0.690605
0.690477
0.690605
0.690515
0.692047
0.691034
0.691529
0.875738
0.850198
0.868524
0.873732
0.873714
0.872656
0.867862
0.844654
0.805027
0.775933
0.671922
0.586952
0.608295
0.635859
0.647797
0.647252
0.684303
0.69185
0.609404
0.867565
0.376084
0.485733
0.435291
0.39268
0.360386
0.297249
0.280484
0.298656
0.293309
0.311565
0.331223
0.268721
0.265455
0.290505
0.329191
0.397374
0.422099
0.398988
0.272297
0.16034
0.223234
9.38964e-10
1.74973e-06
9.23716e-09
5.16968e-09
7.98499e-09
2.74777e-08
0.0243698
0.135805
0.203186
0.252669
0.23103
0.227238
0.226736
0.219557
0.211848
0.234962
0.0948865
0.444266
0.142388
3.85395e-06
3.38764e-05
0.000475462
0.00105132
0.000924569
0.000107258
1.18125e-07
1.3352e-07
0.0543023
0.194764
0.281643
0.293024
0.296436
0.281432
0.178444
0.0532748
0.0963287
0.470386
0.0499512
7.83992e-05
9.28304e-05
0.00104457
0.0017312
0.00142779
0.000306837
1.3472e-05
2.18311e-05
1.38213e-07
2.16793e-07
0.00180401
0.023163
0.0568032
0.0455388
0.00248807
0.0098635
0.0949463
0.453069
0.0457173
8.87516e-05
7.7727e-05
4.96998e-05
0.000119699
1.9402e-05
7.01776e-06
3.64469e-05
0.000122503
2.17524e-05
2.38169e-05
1.10176e-05
2.13601e-06
2.97322e-06
3.25649e-18
9.60527e-19
0.0102001
0.101201
0.190368
0.0381046
7.05474e-05
1.33979e-05
1.43967e-19
1.93144e-19
6.86626e-18
1.18236e-13
1.63729e-05
0.000173145
0.000129549
4.13225e-05
0.000536674
0.000725933
0.000294316
1.4828e-05
4.906e-07
0.0136754
2.33065e-09
2.36579e-09
2.0493e-09
2.02903e-09
1.78233e-09
1.15786e-09
4.95365e-10
1.0727e-10
9.42636e-20
7.63179e-22
6.12549e-23
1.00974e-27
-5.79681e-13
7.19873e-09
4.77297e-08
2.92182e-08
6.96329e-11
9.00741e-09
8.32188e-17
-2.37807e-12
1.52925e-08
0.000299741
0.0373158
2.68575e-09
3.20599e-09
3.16657e-09
3.95161e-09
4.08884e-09
3.62926e-09
2.41765e-09
1.29901e-09
5.25998e-10
1.6998e-10
5.04238e-11
2.79448e-10
6.91992e-10
9.0882e-10
5.83267e-10
5.52204e-11
1.0865e-10
2.33293e-10
5.20234e-10
2.58663e-10
-1.48284e-11
0.00456052
0.0388434
1.07969e-09
1.74388e-09
1.58533e-09
1.83455e-09
2.54673e-09
2.3278e-09
1.93463e-09
1.34863e-09
7.95625e-10
3.66344e-10
1.47191e-10
5.52854e-11
6.09571e-11
8.77479e-11
1.03523e-10
7.25781e-11
4.97929e-11
1.38653e-10
1.24669e-10
1.38703e-14
-3.05244e-07
0.00370501
0.00866967
4.34782e-10
4.69281e-10
4.65557e-10
3.10205e-10
9.82991e-11
8.10459e-11
8.09843e-11
8.24024e-11
7.21283e-11
3.68888e-11
2.25506e-11
2.21554e-11
2.06433e-11
2.08751e-11
1.03763e-10
2.66885e-10
2.46045e-10
1.34159e-10
4.68141e-11
6.25639e-06
8.58019e-05
4.14686e-05
2.87005e-10
3.514e-10
2.48138e-10
2.51754e-10
2.55075e-10
2.8824e-10
2.97387e-10
3.2469e-10
3.67347e-10
4.17235e-10
4.3886e-10
4.94468e-10
6.66676e-10
7.84307e-10
9.98621e-10
2.66204e-09
2.98813e-09
1.32522e-09
1.47735e-10
3.07782e-07
4.54396e-06
7.11339e-06
7.96823e-09
5.47933e-10
1.63816e-10
2.09838e-10
3.24959e-10
4.65445e-10
5.69261e-10
7.17389e-10
9.7455e-10
1.2688e-09
1.66489e-09
2.04841e-09
2.32464e-09
2.72485e-09
3.49021e-09
4.77399e-09
4.96653e-09
4.16311e-09
1.22217e-09
1.36994e-08
1.38835e-07
4.03536e-08
6.51344e-10
1.83737e-09
1.44026e-09
1.45347e-10
3.12614e-10
5.78312e-10
6.4037e-10
6.90447e-10
8.77328e-10
1.23927e-09
1.61273e-09
2.11759e-09
2.62261e-09
2.67409e-09
2.62168e-09
2.66788e-09
2.90918e-09
3.20928e-09
2.69109e-09
1.97308e-09
4.71689e-09
4.89793e-10
5.66668e-10
7.6071e-10
1.54714e-09
1.2003e-09
2.00695e-10
5.30706e-10
6.68359e-10
6.34879e-10
5.24639e-10
5.65452e-10
7.11238e-10
7.80192e-10
7.64005e-10
8.51243e-10
9.68726e-10
7.95463e-10
6.83803e-10
6.21833e-10
4.78092e-10
4.25578e-10
3.43252e-10
2.98877e-10
4.64119e-10
6.63924e-10
7.59032e-10
1.13192e-09
1.95076e-09
3.08544e-10
6.24423e-10
6.72079e-10
5.19708e-10
2.76056e-10
2.00043e-10
1.63882e-10
1.42228e-10
1.34421e-10
1.40577e-10
1.6925e-10
1.86195e-10
1.73064e-10
1.23383e-10
1.33805e-10
1.67549e-10
2.14123e-10
2.82863e-10
3.94755e-10
4.88835e-10
6.04987e-10
8.47332e-10
1.27915e-09
3.23812e-10
6.11163e-10
6.58967e-10
4.36948e-10
2.58416e-10
1.78705e-10
1.16648e-10
7.56265e-11
4.98406e-11
4.18192e-11
4.6279e-11
5.32065e-11
5.73009e-11
6.23498e-11
8.45655e-11
1.10388e-10
1.34488e-10
1.53611e-10
1.80783e-10
2.22512e-10
2.7361e-10
2.83412e-10
3.5542e-10
2.45316e-10
3.67376e-10
5.88883e-10
4.50822e-10
3.2282e-10
2.38259e-10
1.45786e-10
7.97155e-11
4.1634e-11
2.19651e-11
1.70927e-11
1.61173e-11
1.75696e-11
2.07841e-11
2.63801e-11
3.06525e-11
3.11938e-11
3.1386e-11
3.55503e-11
4.36797e-11
4.48849e-11
3.25277e-11
2.44282e-11
1.05561e-10
1.50408e-10
4.63569e-10
5.12906e-10
4.24981e-10
3.25378e-10
2.4706e-10
1.46347e-10
5.86351e-11
2.24862e-11
1.11359e-11
7.38233e-12
6.32995e-12
5.9729e-12
5.67656e-12
5.13628e-12
4.5274e-12
3.96291e-12
3.92058e-12
4.16203e-12
4.88375e-12
5.39338e-12
5.0106e-12
2.96332e-11
1.12725e-10
3.39355e-10
4.86537e-10
4.51245e-10
3.60367e-10
3.05808e-10
2.47631e-10
1.59427e-10
5.68568e-11
1.38445e-11
6.52979e-12
4.90257e-12
4.17769e-12
3.64902e-12
2.98727e-12
2.48639e-12
2.27701e-12
2.17071e-12
2.30918e-12
2.34073e-12
2.01683e-12
1.0788e-12
2.17074e-11
1.09529e-10
2.83629e-10
4.11826e-10
3.8046e-10
3.34986e-10
3.10642e-10
2.85634e-10
2.38382e-10
1.38745e-10
5.48602e-11
1.33938e-11
6.1152e-12
4.23892e-12
3.36451e-12
2.5644e-12
1.96814e-12
1.6085e-12
1.32902e-12
1.0649e-12
8.54265e-13
6.50889e-13
5.46311e-13
1.11282e-11
7.7701e-11
2.35883e-10
3.01202e-10
2.92504e-10
2.69324e-10
2.69969e-10
2.82725e-10
2.77242e-10
2.27094e-10
1.4156e-10
5.99034e-11
1.62588e-11
7.40842e-12
5.35942e-12
3.65249e-12
2.25865e-12
1.57413e-12
1.26197e-12
9.13159e-13
7.01776e-13
5.48094e-13
3.95296e-13
6.05589e-12
5.06432e-11
1.32338e-10
2.01827e-10
2.20303e-10
2.2716e-10
2.33017e-10
2.44866e-10
2.54086e-10
2.57928e-10
2.13878e-10
1.42861e-10
6.88023e-11
2.54e-11
1.08631e-11
7.01186e-12
4.96969e-12
3.37606e-12
2.24506e-12
1.59403e-12
9.84212e-13
6.80508e-13
5.08538e-13
5.24365e-12
2.34855e-11
6.37903e-11
9.95226e-11
1.34624e-10
1.62371e-10
1.76132e-10
1.87726e-10
2.06367e-10
2.16908e-10
2.23302e-10
2.09494e-10
1.38923e-10
8.53298e-11
4.023e-11
2.53359e-11
1.5566e-11
1.03327e-11
6.8092e-12
4.27365e-12
2.69773e-12
1.55131e-12
9.8868e-13
2.61821e-12
1.33918e-11
3.16572e-11
4.71584e-11
7.32215e-11
9.42765e-11
1.07022e-10
1.17851e-10
1.28882e-10
1.50284e-10
1.64898e-10
1.69502e-10
1.74434e-10
1.29818e-10
7.79323e-11
4.67282e-11
2.85075e-11
1.84373e-11
1.16196e-11
7.20254e-12
4.80627e-12
3.16062e-12
1.61002e-12
1.25433e-12
6.34081e-12
1.75038e-11
2.87369e-11
3.92533e-11
5.01298e-11
6.17808e-11
6.56147e-11
6.61921e-11
6.99437e-11
8.50668e-11
1.00331e-10
1.05693e-10
1.08838e-10
8.53141e-11
5.35909e-11
3.68203e-11
2.40937e-11
1.31087e-11
7.73629e-12
4.73001e-12
3.06723e-12
2.04333e-12
5.32048e-13
2.71801e-12
8.02788e-12
1.62368e-11
2.26846e-11
3.03326e-11
3.73165e-11
3.98504e-11
3.86667e-11
3.47541e-11
3.3121e-11
3.42591e-11
4.0356e-11
4.51111e-11
4.79707e-11
4.36407e-11
2.77082e-11
1.84843e-11
1.27491e-11
7.47495e-12
3.50919e-12
2.3745e-12
1.68257e-12
1.66121e-13
1.02591e-12
3.38268e-12
7.63236e-12
1.25449e-11
1.68351e-11
2.21626e-11
2.5388e-11
2.52556e-11
2.14259e-11
1.74277e-11
1.48485e-11
1.38011e-11
1.37571e-11
1.46849e-11
1.48717e-11
1.32798e-11
8.87515e-12
6.87991e-12
4.82681e-12
3.224e-12
1.75185e-12
9.96257e-13
5.13167e-14
3.44788e-13
1.20694e-12
3.05478e-12
5.96662e-12
8.68712e-12
1.1612e-11
1.46129e-11
1.52559e-11
1.38754e-11
1.03103e-11
8.02444e-12
6.23089e-12
5.24633e-12
4.82876e-12
4.59142e-12
4.23267e-12
3.6647e-12
2.78697e-12
2.25866e-12
1.83324e-12
1.31265e-12
8.41975e-13
1.15809e-14
8.92641e-14
3.5435e-13
1.06689e-12
2.42681e-12
4.15417e-12
5.38049e-12
7.26604e-12
8.7503e-12
8.24021e-12
6.61437e-12
4.50774e-12
3.37808e-12
2.44705e-12
1.87859e-12
1.68424e-12
1.42935e-12
1.29307e-12
1.13899e-12
9.37961e-13
8.14814e-13
6.72536e-13
5.24738e-13
1.95903e-15
2.07426e-14
9.06417e-14
2.95436e-13
7.87723e-13
1.73976e-12
2.35516e-12
2.9587e-12
4.34806e-12
4.56023e-12
3.6472e-12
2.69996e-12
1.76346e-12
1.26401e-12
8.57033e-13
6.48459e-13
5.57389e-13
4.78935e-13
4.33324e-13
3.93861e-13
3.40976e-13
2.81467e-13
2.29059e-13
3.44901e-16
4.39608e-15
2.10525e-14
7.66715e-14
2.16585e-13
5.81458e-13
9.36925e-13
1.14179e-12
1.76234e-12
2.19995e-12
1.85927e-12
1.4087e-12
9.01579e-13
5.98413e-13
3.98826e-13
2.65985e-13
2.07477e-13
1.71561e-13
1.4993e-13
1.35975e-13
1.18271e-13
1.01286e-13
8.92071e-14
5.62831e-17
8.16621e-16
4.46302e-15
1.75553e-14
6.26635e-14
1.78225e-13
3.1079e-13
3.95932e-13
5.90321e-13
8.91646e-13
7.99954e-13
6.24388e-13
4.32e-13
2.70607e-13
1.69556e-13
1.10059e-13
7.50618e-14
6.01712e-14
4.95622e-14
4.44264e-14
4.04222e-14
3.4808e-14
3.03705e-14
7.47664e-18
1.37479e-16
8.70272e-16
3.81827e-15
1.61833e-14
5.39053e-14
9.79957e-14
1.29086e-13
1.87388e-13
2.87942e-13
2.82822e-13
2.35329e-13
1.68789e-13
1.09351e-13
6.24474e-14
3.93558e-14
2.48867e-14
2.00424e-14
1.62971e-14
1.42068e-14
1.26235e-14
1.08158e-14
9.45097e-15
7.74088e-19
1.77879e-17
1.38265e-16
7.31093e-16
3.80385e-15
1.37398e-14
2.65926e-14
3.72843e-14
5.40094e-14
8.37131e-14
8.2784e-14
7.07448e-14
5.36654e-14
3.62687e-14
1.93294e-14
1.17114e-14
7.37257e-15
5.95363e-15
4.89295e-15
4.24262e-15
3.82113e-15
3.2505e-15
2.63951e-15
7.47022e-20
2.03543e-18
1.85622e-17
1.21822e-16
7.2989e-16
3.00549e-15
6.26987e-15
9.09908e-15
1.39604e-14
2.12693e-14
2.11601e-14
1.83361e-14
1.41253e-14
9.62148e-15
4.99385e-15
2.98747e-15
1.93059e-15
1.56528e-15
1.30319e-15
1.13958e-15
1.01066e-15
8.35953e-16
6.44997e-16
5.33026e-21
1.67012e-19
2.2558e-18
1.60254e-17
1.06914e-16
5.5296e-16
1.25339e-15
1.90057e-15
3.02488e-15
4.47601e-15
4.51108e-15
3.80569e-15
3.02123e-15
1.9487e-15
1.02941e-15
6.53994e-16
4.67436e-16
3.56157e-16
3.06224e-16
2.69155e-16
2.39147e-16
1.96073e-16
1.37713e-16
2.31536e-22
8.60761e-21
1.6829e-19
1.68014e-18
1.47617e-17
8.25158e-17
2.07547e-16
3.50956e-16
5.58929e-16
7.82783e-16
7.77742e-16
6.68555e-16
5.28658e-16
3.19341e-16
1.83052e-16
1.24519e-16
9.5888e-17
7.23876e-17
6.29887e-17
5.54797e-17
4.78961e-17
3.64148e-17
2.40087e-17
1.41958e-23
4.40091e-22
1.36059e-20
1.73412e-19
1.49834e-18
8.86553e-18
2.75e-17
5.23656e-17
8.38674e-17
1.11695e-16
1.10713e-16
9.82996e-17
7.28321e-17
4.45549e-17
2.69156e-17
2.00688e-17
1.60657e-17
1.25536e-17
1.11354e-17
9.76163e-18
8.27942e-18
5.79654e-18
3.57067e-18
6.64261e-25
1.8951e-23
8.65536e-22
1.28907e-20
1.26995e-19
7.59199e-19
2.44753e-18
5.58971e-18
9.43413e-18
1.19564e-17
1.20598e-17
1.10649e-17
8.24077e-18
5.08385e-18
3.50399e-18
2.84473e-18
2.34375e-18
1.86466e-18
1.67611e-18
1.46722e-18
1.16559e-18
7.14605e-19
3.93835e-19
2.8116e-26
5.81445e-25
4.26309e-23
7.70114e-22
8.09028e-21
5.10716e-20
1.87609e-19
4.91784e-19
8.51384e-19
1.17006e-18
1.19829e-18
1.04355e-18
7.26138e-19
4.93297e-19
4.0346e-19
3.50156e-19
3.01662e-19
2.61644e-19
2.21608e-19
1.85524e-19
1.35103e-19
7.36061e-20
3.56922e-20
1.01057e-27
1.2093e-26
1.60542e-24
3.56316e-23
4.17377e-22
2.55346e-21
1.15984e-20
3.601e-20
6.66854e-20
9.46547e-20
9.63668e-20
8.04903e-20
5.84632e-20
4.73687e-20
4.20694e-20
3.82896e-20
3.4821e-20
3.03888e-20
2.61372e-20
1.98651e-20
1.25239e-20
6.19255e-21
2.74969e-21
3.27738e-29
2.91591e-28
5.27128e-26
1.34327e-24
1.66358e-23
1.22757e-22
6.15158e-22
2.23336e-21
4.64847e-21
6.56741e-21
6.5607e-21
5.52514e-21
4.54638e-21
4.21108e-21
3.99367e-21
3.80228e-21
3.50106e-21
3.09916e-21
2.48959e-21
1.69314e-21
9.52542e-22
4.09159e-22
1.79179e-22
8.6769e-31
6.49635e-30
1.3482e-27
4.01288e-26
5.57785e-25
4.89664e-24
2.72693e-23
1.09361e-22
2.68726e-22
3.84998e-22
3.87128e-22
3.47478e-22
3.35402e-22
3.42891e-22
3.43402e-22
3.37796e-22
3.14261e-22
2.71813e-22
2.01417e-22
1.21632e-22
5.95791e-23
2.38041e-23
3.67725e-24
1.81379e-32
1.15913e-31
2.70955e-29
9.70645e-28
1.60021e-26
1.52216e-25
9.88482e-25
4.44407e-24
1.28428e-23
1.88704e-23
1.99653e-23
2.07559e-23
2.29326e-23
2.51309e-23
2.6357e-23
2.64652e-23
2.47315e-23
2.06587e-23
1.40061e-23
7.55687e-24
3.3135e-24
4.67179e-25
2.48298e-26
3.01551e-34
1.62432e-33
4.41686e-31
2.01216e-29
3.65858e-28
3.90362e-27
3.1056e-26
1.49017e-25
4.97654e-25
7.6124e-25
8.96763e-25
1.12832e-24
1.36365e-24
1.59843e-24
1.76958e-24
1.83689e-24
1.7418e-24
1.40094e-24
8.74283e-25
4.43191e-25
8.25195e-26
4.55774e-27
1.47181e-27
2.19416e-36
1.68748e-35
6.07656e-33
3.83311e-31
7.39205e-30
9.128e-29
8.94526e-28
4.97611e-27
1.87295e-26
3.00334e-26
4.02337e-26
5.68371e-26
7.68245e-26
9.67181e-26
1.10916e-25
1.1957e-25
1.15041e-25
9.0683e-26
4.89465e-26
1.50648e-26
1.73929e-27
2.8033e-28
5.71926e-28
-1.55719e-37
-1.87611e-38
7.75447e-35
7.29714e-33
1.48461e-31
2.02859e-30
2.34739e-29
1.39418e-28
5.84132e-28
1.02718e-27
1.60669e-27
2.61336e-27
3.8421e-27
5.19365e-27
6.31451e-27
7.04093e-27
6.80109e-27
5.10554e-27
2.39873e-27
5.77682e-28
5.80181e-29
5.9151e-29
3.21905e-28
-1.23491e-38
-1.26491e-38
1.06512e-36
1.35724e-34
2.99908e-33
4.45459e-32
5.73051e-31
3.68148e-30
1.69227e-29
3.2886e-29
5.81188e-29
1.06771e-28
1.73474e-28
2.57461e-28
3.407e-28
3.81816e-28
3.73161e-28
2.73962e-28
1.19014e-28
2.36866e-29
6.62811e-30
2.27769e-29
1.55214e-28
0.0383603
0.0363621
0.0102461
0.0552564
0.0373121
0.0200659
1.09021e-07
0.0361077
0.0085637
0.00234547
-7.55661e-13
1.36749e-05
4.50758e-10
2.51988e-09
6.56654e-09
4.76587e-14
4.05465e-10
4.24099e-10
3.86153e-11
4.32629e-07
5.47346e-10
5.89015e-10
1.43583e-10
6.91777e-07
5.91954e-10
4.29188e-10
7.13232e-08
5.14556e-07
2.73458e-09
2.79275e-09
5.52581e-09
1.52297e-08
1.95764e-09
2.04224e-09
1.94895e-09
1.8809e-09
4.05935e-10
4.36912e-10
5.10377e-10
5.77081e-10
2.22301e-11
2.15748e-11
2.05965e-11
1.80008e-11
4.2434e-12
2.94195e-12
2.25868e-12
1.48422e-12
7.55089e-13
6.51696e-13
5.99541e-13
5.49802e-13
4.1426e-13
3.60656e-13
3.29789e-13
3.03323e-13
3.04149e-13
2.51e-13
2.24716e-13
1.96486e-13
3.70876e-13
2.80806e-13
2.40229e-13
1.97854e-13
6.62958e-13
4.87474e-13
4.15736e-13
3.29181e-13
1.18464e-12
9.55338e-13
7.89419e-13
6.21619e-13
1.16821e-12
1.0384e-12
9.10217e-13
7.49024e-13
1.09458e-12
9.19425e-13
7.44298e-13
6.58351e-13
7.73476e-13
6.50154e-13
5.89536e-13
5.18102e-13
5.23694e-13
4.46858e-13
3.93792e-13
3.5503e-13
3.7277e-13
2.84766e-13
2.45409e-13
2.11179e-13
1.9276e-13
1.65664e-13
1.29339e-13
1.07208e-13
7.6843e-14
6.4408e-14
5.69508e-14
4.64702e-14
2.71149e-14
2.36744e-14
2.00391e-14
1.65521e-14
8.51677e-15
7.38975e-15
6.36294e-15
5.32119e-15
2.39356e-15
2.06246e-15
1.71828e-15
1.43913e-15
5.73636e-16
4.67334e-16
3.9124e-16
3.17701e-16
1.152e-16
9.21783e-17
7.30924e-17
5.64132e-17
1.8158e-17
1.37444e-17
1.03807e-17
7.58812e-18
2.58973e-18
1.82098e-18
1.23619e-18
8.14761e-19
2.67116e-19
1.72847e-19
1.0752e-19
6.52919e-20
2.22809e-20
1.32179e-20
7.94714e-21
4.47099e-21
1.69457e-21
8.37417e-22
1.26065e-22
3.29302e-24
2.87291e-23
1.55043e-24
3.22224e-26
3.96061e-26
3.3954e-27
6.9053e-27
1.43785e-26
3.38697e-26
3.18935e-27
5.75025e-27
1.27487e-26
3.58154e-26
1.82657e-27
3.73061e-27
1.18546e-26
3.74443e-26
1.14564e-27
3.48631e-27
1.20413e-26
3.85148e-26
7.35632e-28
2.87806e-27
1.02491e-26
3.10463e-26
5.97869e-28
2.00275e-27
6.1456e-27
1.57416e-26
0.130145
0.0999611
0.00746787
8.99888e-08
8.75732e-08
2.90606e-08
3.26641e-09
1.38986e-09
5.84572e-11
1.18346e-11
0.000162675
0.000199051
7.02352e-05
0.000445491
0.000736546
0.000540811
0.000104194
3.78502e-07
0.0125094
0.135511
0.124392
0.0100149
0.000326779
1.30133e-05
1.2366e-07
1.7335e-07
1.3433e-07
2.80352e-08
5.38169e-10
1.38505e-05
0.000130728
0.000116545
2.59838e-05
2.38991e-05
1.33146e-05
1.73916e-06
5.1348e-07
0.00594055
0.103066
0.103733
0.0127972
0.000300129
5.10229e-08
1.36018e-07
3.04008e-07
3.02253e-07
1.27053e-07
2.50836e-07
1.61141e-08
1.62433e-08
1.26864e-05
1.99979e-05
1.34997e-05
8.27373e-06
2.12117e-06
0.000263631
0.00665672
0.0120507
0.0139776
0.0114274
0.0017316
6.21372e-08
5.90747e-08
1.63843e-07
1.7495e-07
1.60251e-07
9.34732e-08
3.38104e-08
2.0258e-08
1.50055e-06
1.13894e-05
2.75204e-05
1.74535e-05
2.12463e-06
0.00305941
0.00678382
5.14356e-09
4.20139e-08
0.000232198
0.000315347
7.43078e-05
7.89645e-08
7.04597e-08
5.48627e-08
3.61509e-08
1.2217e-08
1.5512e-08
1.09114e-08
7.4795e-09
1.49208e-05
3.77776e-05
1.67476e-05
0.000445874
0.00193217
0.00468296
7.00092e-07
9.19065e-08
7.85122e-09
8.17273e-09
2.62821e-07
2.43643e-07
2.21725e-08
3.5614e-09
2.85027e-09
4.80902e-10
2.68298e-11
2.03613e-08
6.22717e-09
2.28289e-06
1.7504e-05
0.000423227
0.000546992
0.000127414
6.25607e-05
2.62336e-07
8.84614e-09
1.11647e-08
8.96784e-09
2.26606e-09
1.53309e-09
2.52955e-09
2.61006e-09
3.27807e-09
2.64998e-09
1.98242e-11
3.66057e-08
1.22207e-08
1.58518e-08
3.73957e-05
0.000297655
0.000320305
1.96515e-05
1.57833e-09
5.29716e-09
1.01332e-08
1.09408e-08
7.2444e-09
2.57718e-09
2.58827e-10
-3.10652e-15
-3.80367e-16
2.50393e-11
4.11146e-10
2.25628e-11
3.45146e-08
9.93849e-09
5.35982e-06
4.26443e-05
2.14687e-05
1.59497e-05
6.99207e-07
2.5046e-09
2.66024e-09
2.55473e-09
1.50219e-09
6.08908e-10
1.90355e-10
1.93899e-11
5.08261e-12
1.48248e-12
8.05862e-12
3.00887e-11
3.44318e-11
1.22592e-08
2.24753e-07
1.14204e-05
9.75622e-06
5.22533e-06
6.98914e-08
-1.78449e-09
2.21101e-10
5.07709e-10
1.97976e-10
1.18156e-11
1.10354e-12
1.11756e-12
1.20651e-12
7.79811e-13
6.50905e-13
5.79948e-12
1.01959e-11
1.47356e-10
2.24158e-08
1.01028e-06
6.80995e-06
5.50875e-07
5.60506e-12
-4.80153e-25
1.8512e-09
3.01089e-13
7.78057e-12
1.95356e-12
1.41417e-12
1.12219e-12
7.17309e-13
4.53105e-13
3.2808e-13
5.46221e-13
6.99932e-12
8.90511e-11
8.24805e-10
1.38048e-07
8.35921e-07
3.0554e-14
3.47628e-14
2.18499e-11
9.58969e-11
1.32159e-12
1.30416e-14
9.90463e-13
7.18527e-13
5.9905e-13
4.16477e-13
2.62879e-13
2.14085e-13
1.94232e-13
2.76211e-13
3.31735e-12
6.46446e-12
1.39243e-08
7.64981e-08
2.85691e-08
3.46119e-14
3.05209e-14
1.64037e-11
5.53411e-11
4.60519e-14
1.21279e-14
5.03117e-13
3.98762e-13
2.92939e-13
1.93232e-13
1.46467e-13
1.29596e-13
1.26091e-13
8.93019e-13
4.54673e-11
8.31057e-10
4.44218e-09
1.17865e-08
1.86071e-11
3.08645e-14
2.32349e-13
4.32236e-12
1.25453e-11
2.78024e-14
1.10369e-14
2.78255e-13
2.18439e-13
1.46293e-13
1.13496e-13
8.91933e-14
7.95107e-14
1.53916e-13
3.43992e-12
4.65544e-11
2.39869e-10
4.44777e-10
4.10411e-10
9.02084e-13
3.59405e-14
9.26594e-14
5.76658e-13
1.26366e-12
2.18369e-14
9.5258e-15
1.74989e-13
1.31552e-13
9.07307e-14
7.13029e-14
5.68906e-14
5.30574e-14
1.3065e-13
1.42987e-12
8.45427e-12
3.34951e-11
4.60283e-11
1.11506e-11
2.631e-12
2.58969e-14
3.38986e-14
6.64181e-14
6.62159e-14
1.72439e-14
8.27946e-15
1.64704e-13
1.02003e-13
6.16748e-14
4.62716e-14
3.55887e-14
3.16945e-14
5.78718e-14
2.56542e-13
1.21921e-12
3.82361e-12
8.74943e-12
2.42013e-12
1.157e-12
1.58148e-14
1.73049e-14
2.02625e-14
2.11084e-14
1.46787e-14
7.02791e-15
2.60091e-13
1.34284e-13
6.46007e-14
4.52625e-14
2.74703e-14
1.94018e-14
1.72759e-14
3.51115e-14
1.3478e-13
4.06056e-13
7.54753e-13
3.57804e-13
2.50528e-13
8.59641e-15
9.95904e-15
1.25317e-14
1.56496e-14
1.2274e-14
5.99609e-15
4.81665e-13
2.30159e-13
9.94378e-14
5.9459e-14
3.29393e-14
2.03152e-14
1.25615e-14
1.00054e-14
1.50833e-14
3.46134e-14
5.11057e-14
3.25723e-14
3.08388e-14
4.29188e-15
5.5913e-15
7.87352e-15
1.0206e-14
9.8753e-15
4.96252e-15
6.10787e-13
3.40149e-13
1.6768e-13
9.85148e-14
4.98655e-14
2.7051e-14
1.43527e-14
8.11566e-15
5.28586e-15
4.66895e-15
4.59009e-15
3.56955e-15
3.45028e-15
2.05944e-15
2.92617e-15
4.29106e-15
5.08444e-15
7.45991e-15
4.1037e-15
5.51043e-13
3.44998e-13
2.01455e-13
1.13342e-13
6.36706e-14
3.37389e-14
1.71862e-14
8.50772e-15
4.43466e-15
2.4568e-15
1.29986e-15
9.12566e-16
8.5349e-16
9.67012e-16
1.53166e-15
1.82428e-15
2.85166e-15
4.86595e-15
3.09289e-15
4.51615e-13
3.09385e-13
1.81757e-13
1.13011e-13
6.02948e-14
3.33172e-14
1.6854e-14
8.14976e-15
3.88564e-15
1.94612e-15
7.92583e-16
3.94135e-16
3.36569e-16
4.19053e-16
6.39612e-16
1.10868e-15
1.86931e-15
2.77469e-15
1.88313e-15
3.1201e-13
2.22116e-13
1.36421e-13
8.82347e-14
4.84482e-14
2.71926e-14
1.37823e-14
6.58003e-15
3.01896e-15
1.43592e-15
5.43995e-16
1.86694e-16
1.26619e-16
1.26274e-16
2.84873e-16
7.02852e-16
1.23637e-15
1.6268e-15
1.23765e-15
1.81305e-13
1.29997e-13
8.1413e-14
5.34577e-14
3.08195e-14
1.7428e-14
8.92337e-15
4.26743e-15
1.94558e-15
8.95137e-16
3.16084e-16
5.26972e-17
1.987e-17
4.93841e-17
1.71068e-16
4.36212e-16
7.98964e-16
9.87202e-16
7.60016e-16
8.80898e-14
6.32046e-14
4.02568e-14
2.65923e-14
1.50594e-14
8.67516e-15
4.48401e-15
2.17446e-15
1.0324e-15
4.57745e-16
8.95521e-17
7.19504e-18
6.14846e-18
2.62432e-17
9.79569e-17
2.61443e-16
4.90688e-16
5.9426e-16
4.35554e-16
3.64175e-14
2.56765e-14
1.63111e-14
1.0532e-14
6.08008e-15
3.34325e-15
1.74543e-15
8.70798e-16
4.34841e-16
1.07039e-16
7.11892e-18
7.49412e-19
2.6278e-18
1.40677e-17
5.47003e-17
1.46128e-16
2.90769e-16
3.50221e-16
2.276e-16
1.21079e-14
8.47982e-15
5.43431e-15
3.35933e-15
1.96394e-15
1.02908e-15
5.32682e-16
2.82199e-16
9.76134e-17
9.10553e-18
2.49446e-19
2.14583e-19
1.30601e-18
7.29907e-18
2.87599e-17
8.23627e-17
1.60511e-16
2.00109e-16
1.16293e-16
3.75143e-15
2.52016e-15
1.51248e-15
8.89551e-16
4.86762e-16
2.4344e-16
1.34386e-16
5.22961e-17
7.42771e-18
1.88197e-19
4.18625e-20
9.99587e-20
6.57431e-19
3.63839e-18
1.52037e-17
4.20548e-17
8.72776e-17
1.06729e-16
6.07414e-17
9.32511e-16
5.94329e-16
3.32509e-16
1.87468e-16
9.61832e-17
5.51453e-17
1.98243e-17
2.80192e-18
7.73919e-20
1.76583e-20
2.76916e-20
7.21778e-20
3.57118e-19
1.87048e-18
7.46354e-18
2.19141e-17
4.47475e-17
5.40675e-17
2.95625e-17
1.93877e-16
1.15651e-16
5.69927e-17
3.03505e-17
1.72973e-17
5.1338e-18
5.6119e-19
1.34475e-20
7.64351e-21
1.30987e-20
2.74163e-20
6.75509e-20
2.29549e-19
9.50922e-19
3.68399e-18
1.0353e-17
2.26918e-17
2.80907e-17
1.4523e-17
3.07824e-17
1.64913e-17
7.31261e-18
4.24989e-18
1.10282e-18
7.82636e-20
2.84334e-21
3.22423e-21
6.47705e-21
1.44088e-20
3.18406e-20
7.17188e-20
1.83326e-19
5.50323e-19
1.86503e-18
4.9705e-18
1.13692e-17
1.5591e-17
8.0664e-18
3.91589e-18
1.72742e-18
9.46764e-19
2.09661e-19
1.17615e-20
9.63305e-22
1.45183e-21
3.20973e-21
7.6279e-21
1.74454e-20
3.78531e-20
7.99708e-20
1.73576e-19
3.99988e-19
1.03523e-18
2.42852e-18
6.0937e-18
7.3842e-18
3.5811e-18
3.54922e-19
1.71777e-19
3.17748e-20
1.47722e-21
3.30779e-22
6.16452e-22
1.48245e-21
3.6983e-21
8.88873e-21
2.04259e-20
4.42379e-20
9.1346e-20
1.78436e-19
3.44834e-19
6.92215e-19
1.57001e-18
3.74131e-18
3.7595e-18
1.68625e-18
2.93247e-20
3.81928e-21
1.31296e-22
9.6827e-23
2.28468e-22
6.18213e-22
1.62973e-21
4.10586e-21
9.97611e-21
2.29093e-20
4.95928e-20
9.86391e-20
1.82793e-19
3.12247e-19
5.42661e-19
1.19113e-18
1.78026e-18
1.62026e-18
6.30695e-19
6.0177e-22
1.52526e-23
2.44809e-23
7.58203e-23
2.25388e-22
6.35e-22
1.68198e-21
4.31359e-21
1.05903e-20
2.44923e-20
5.19728e-20
1.00923e-19
1.72676e-19
2.78342e-19
4.83449e-19
8.1707e-19
9.90843e-19
6.79958e-19
2.41281e-19
9.44922e-25
5.15622e-24
2.12966e-23
7.02795e-23
2.10333e-22
6.07689e-22
1.63166e-21
4.21536e-21
1.01931e-20
2.30521e-20
4.93017e-20
9.4266e-20
1.54593e-19
2.5114e-19
3.9318e-19
5.37828e-19
5.11992e-19
3.04619e-19
9.1359e-20
7.47317e-25
4.51847e-24
1.76713e-23
5.96053e-23
1.87128e-22
5.43251e-22
1.47574e-21
3.78922e-21
9.18043e-21
2.07814e-20
4.33637e-20
8.0964e-20
1.32599e-19
2.03585e-19
2.72192e-19
3.14985e-19
2.55551e-19
1.21985e-19
3.86203e-20
6.6648e-25
3.62115e-24
1.40245e-23
4.92705e-23
1.53836e-22
4.45626e-22
1.20065e-21
3.04128e-21
7.23921e-21
1.61837e-20
3.30553e-20
5.97352e-20
9.58538e-20
1.39161e-19
1.60103e-19
1.4976e-19
9.55941e-20
4.57342e-20
1.57799e-20
5.72676e-25
2.78777e-24
1.08476e-23
3.7155e-23
1.14411e-22
3.26747e-22
8.63603e-22
2.12388e-21
4.90315e-21
1.06647e-20
2.10454e-20
3.67335e-20
5.65385e-20
7.61586e-20
7.6915e-20
6.00675e-20
3.19209e-20
1.58549e-20
6.89639e-21
4.39049e-25
1.93544e-24
7.35081e-24
2.38619e-23
7.2958e-23
2.01069e-22
5.1667e-22
1.23197e-21
2.7502e-21
5.78564e-21
1.10394e-20
1.85202e-20
2.68414e-20
3.37499e-20
3.04237e-20
2.08606e-20
9.69451e-21
5.58341e-21
2.81914e-21
2.90056e-25
1.1481e-24
3.99616e-24
1.23079e-23
3.42103e-23
8.93692e-23
2.22352e-22
5.21758e-22
1.13523e-21
2.30762e-21
4.27103e-21
7.01803e-21
9.59516e-21
1.14809e-20
9.51844e-21
6.52318e-21
2.87321e-21
1.65267e-21
1.44344e-21
1.48249e-25
5.14277e-25
1.63254e-24
4.70725e-24
1.26439e-23
3.21692e-23
7.61712e-23
1.76297e-22
3.76013e-22
7.38801e-22
1.30595e-21
2.06807e-21
2.7326e-21
3.08068e-21
2.41617e-21
1.74423e-21
6.52017e-22
6.02849e-22
6.22556e-22
4.26146e-26
1.27336e-25
3.68533e-25
9.79927e-25
2.4591e-24
6.2277e-24
1.41399e-23
3.08886e-23
6.87711e-23
1.37395e-22
2.49247e-22
4.0034e-22
5.36629e-22
5.83375e-22
4.6288e-22
3.66224e-22
1.74019e-22
1.63381e-22
1.45996e-22
)
;

boundaryField
{
    leftWall
    {
        type            alphaContactAngle;
        contactAngleProperties 
        {
            air             
            {
                theta0          90;
            }
            water           
            {
                theta0          90;
            }
            oil             
            {
                theta0          90;
            }
        }
        value           nonuniform List<scalar> 
50
(
1
1
1
1
1
0.604087
9.13388e-10
9.12936e-10
2.33065e-09
2.68575e-09
1.07969e-09
4.34782e-10
3.514e-10
1.63816e-10
1.45347e-10
2.00695e-10
3.08544e-10
3.23812e-10
2.45316e-10
1.05561e-10
2.96332e-11
2.17074e-11
1.11282e-11
6.05589e-12
5.24365e-12
2.61821e-12
1.25433e-12
5.32048e-13
1.66121e-13
5.13167e-14
1.15809e-14
1.95903e-15
3.44901e-16
5.62831e-17
7.47664e-18
7.74088e-19
7.47022e-20
5.33026e-21
2.31536e-22
1.41958e-23
6.64261e-25
2.8116e-26
1.01057e-27
3.27738e-29
8.6769e-31
1.81379e-32
3.01551e-34
2.19416e-36
-1.55719e-37
-1.23491e-38
)
;
    }
    rightWall
    {
        type            alphaContactAngle;
        contactAngleProperties 
        {
            air             
            {
                theta0          90;
            }
            water           
            {
                theta0          90;
            }
            oil             
            {
                theta0          90;
            }
        }
        value           nonuniform List<scalar> 
50
(
0.691529
0.609404
0.398988
0.234962
0.0532748
0.0098635
0.0102001
0.0136754
0.0125094
0.00594055
0.00665672
0.00678382
0.00468296
6.25607e-05
1.57833e-09
2.5046e-09
2.21101e-10
3.01089e-13
1.30416e-14
1.21279e-14
1.10369e-14
9.5258e-15
8.27946e-15
7.02791e-15
5.99609e-15
4.96252e-15
4.1037e-15
3.09289e-15
1.88313e-15
1.23765e-15
7.60016e-16
4.35554e-16
2.276e-16
1.16293e-16
6.07414e-17
2.95625e-17
1.4523e-17
8.0664e-18
3.5811e-18
1.68625e-18
6.30695e-19
2.41281e-19
9.1359e-20
3.86203e-20
1.57799e-20
6.89639e-21
2.81914e-21
1.44344e-21
6.22556e-22
1.45996e-22
)
;
    }
    lowerWall
    {
        type            alphaContactAngle;
        contactAngleProperties 
        {
            air             
            {
                theta0          90;
            }
            water           
            {
                theta0          90;
            }
            oil             
            {
                theta0          90;
            }
        }
        value           nonuniform List<scalar> 
62
(
1
1
1
1
1
1
1
1
1
1
1
1
1
1
1
1
1
1
1
1
1
0.999532
0.999432
0.999432
0.999432
0.999695
0.999987
0.999999
0.999383
0.635597
0.0599181
0.0383603
0.0363621
0.0102461
0.0552564
0.876287
0.875738
0.867565
0.272297
0.0948865
0.0963287
0.0949463
0.101201
0.876287
0.875416
0.876067
0.822109
0.551048
0.530996
0.545458
0.577672
0.587443
0.577833
0.568451
0.596627
0.690605
0.690477
0.690605
0.690515
0.692047
0.691034
0.691529
)
;
    }
    atmosphere
    {
        type            inletOutlet;
        inletValue      uniform 0;
        value           nonuniform List<scalar> 
46
(
0
0
0
0
0
0
0
0
0
0
0
0
0
0
0
0
0
0
0
0
0
0
0
0
0
0
0
0
0
0
0
0
6.2277e-24
1.41399e-23
3.08886e-23
6.87711e-23
1.37395e-22
2.49247e-22
4.0034e-22
5.36629e-22
5.83375e-22
4.6288e-22
3.66225e-22
1.74019e-22
1.63381e-22
1.45996e-22
)
;
    }
    defaultFaces
    {
        type            empty;
    }
}


// ************************************************************************* //
