/*--------------------------------*- C++ -*----------------------------------*\
  =========                 |
  \\      /  F ield         | OpenFOAM: The Open Source CFD Toolbox
   \\    /   O peration     | Website:  https://openfoam.org
    \\  /    A nd           | Version:  13
     \\/     M anipulation  |
\*---------------------------------------------------------------------------*/
FoamFile
{
    format      ascii;
    class       volScalarField;
    location    "1.35";
    object      epsilon;
}
// * * * * * * * * * * * * * * * * * * * * * * * * * * * * * * * * * * * * * //

dimensions      [0 2 -3 0 0 0 0];

internalField   nonuniform List<scalar> 
2268
(
0.00764956
0.0351105
0.0743542
0.113805
0.149566
0.180108
0.205529
0.226398
0.243416
0.257528
0.27013
0.28287
0.297562
0.316046
0.33482
0.350969
0.361235
0.361454
0.346578
0.311016
0.249411
0.155683
0.0278144
0.0135699
0.0246789
0.0394264
0.0541113
0.0674858
0.0791984
0.0894684
0.0987124
0.107403
0.11608
0.125376
0.1359
0.148088
0.162029
0.176264
0.189127
0.198785
0.20306
0.199362
0.18471
0.155905
0.111231
0.0610254
0.0225773
0.0284526
0.0390562
0.0496586
0.0594054
0.0681119
0.0759923
0.0834019
0.0907144
0.0983283
0.106699
0.116242
0.127154
0.139273
0.15171
0.163212
0.172314
0.177296
0.176169
0.166803
0.14738
0.119051
0.112635
0.0320939
0.0349382
0.0441525
0.0534231
0.0619519
0.0696287
0.0766802
0.0834402
0.0902268
0.0973335
0.105112
0.113897
0.123832
0.134757
0.146066
0.156749
0.165566
0.17105
0.171563
0.165571
0.152437
0.13598
0.170804
0.0431781
0.0434738
0.0520677
0.0606724
0.0685115
0.0755594
0.0820809
0.0884151
0.0948485
0.101589
0.108894
0.117041
0.126161
0.136136
0.14655
0.156584
0.16519
0.171118
0.173044
0.169997
0.162532
0.157502
0.236446
0.0573168
0.0547231
0.0626916
0.0705649
0.0776648
0.0840408
0.0899895
0.0958525
0.101895
0.108266
0.115138
0.12273
0.131156
0.140337
0.149979
0.159441
0.167869
0.174246
0.177574
0.177455
0.175772
0.183428
0.314618
0.07613
0.0700644
0.0765768
0.083096
0.089046
0.0944601
0.0996285
0.104865
0.11042
0.116387
0.122832
0.129919
0.137739
0.146235
0.155214
0.164189
0.172498
0.179371
0.184148
0.187016
0.191388
0.214306
0.420265
0.10076
0.0896361
0.0929901
0.0971587
0.101433
0.105742
0.110156
0.114837
0.119928
0.125463
0.131476
0.138104
0.145398
0.153305
0.161731
0.170321
0.17859
0.185974
0.192098
0.197635
0.207395
0.246597
0.631323
0.247902
0.420096
0.584627
0.626637
0.63092
0.677091
0.736005
0.7672
0.765665
0.728236
0.640944
0.525958
0.453741
0.39022
0.302473
0.222896
0.172663
0.12438
0.0581346
0.208744
0.241607
0.283176
0.302397
0.307472
0.320788
0.337024
0.34611
0.343852
0.328468
0.297807
0.258368
0.222514
0.192783
0.159852
0.129265
0.104212
0.0821541
0.0652858
0.261494
0.207902
0.240078
0.260223
0.260246
0.266605
0.275846
0.281586
0.279671
0.268532
0.247127
0.218802
0.191549
0.167759
0.143856
0.121833
0.103384
0.0877876
0.0930419
0.28752
0.198829
0.22538
0.251949
0.250732
0.254516
0.2614
0.266632
0.266533
0.258635
0.24059
0.214874
0.188791
0.165849
0.143852
0.124084
0.107692
0.095992
0.123111
0.287223
0.193525
0.214747
0.237792
0.24146
0.246275
0.252513
0.257356
0.258909
0.255132
0.243792
0.221172
0.194516
0.170911
0.148456
0.128453
0.112618
0.1041
0.147428
0.272419
0.190342
0.207657
0.223044
0.229441
0.235638
0.242266
0.247392
0.249669
0.247836
0.241134
0.22447
0.201858
0.179068
0.155577
0.134084
0.118305
0.11215
0.155486
0.260445
0.193144
0.203948
0.214708
0.221149
0.227713
0.234761
0.240723
0.244097
0.243359
0.237134
0.223123
0.204895
0.184869
0.162156
0.140302
0.12493
0.120603
0.172448
0.256675
0.198423
0.203268
0.210679
0.216433
0.222952
0.230268
0.237046
0.241574
0.241881
0.236055
0.222891
0.205911
0.187312
0.166284
0.145676
0.13137
0.128184
0.196789
0.134659
0.117235
0.11672
0.117386
0.118915
0.121453
0.124894
0.129091
0.133854
0.139099
0.144883
0.151218
0.158096
0.165446
0.173167
0.181056
0.188717
0.195805
0.202354
0.209372
0.220884
0.252253
0.377339
0.195202
0.15808
0.151227
0.147622
0.14567
0.145445
0.146914
0.149804
0.153715
0.158349
0.163549
0.169218
0.17523
0.1814
0.187538
0.193593
0.199255
0.204215
0.208626
0.213277
0.220637
0.23723
0.281467
0.263232
0.196635
0.183064
0.17678
0.173315
0.17194
0.172423
0.174389
0.177265
0.180707
0.184615
0.188905
0.193401
0.197912
0.20229
0.206534
0.210398
0.213622
0.216409
0.219379
0.224084
0.23397
0.255653
0.338815
0.232233
0.211544
0.203549
0.199844
0.198529
0.199016
0.20078
0.203024
0.205422
0.20806
0.210917
0.213765
0.216505
0.219156
0.221673
0.223885
0.225627
0.227068
0.228599
0.231205
0.236742
0.247864
0.427022
0.266943
0.238618
0.229143
0.225522
0.224615
0.225422
0.227153
0.228822
0.230274
0.231784
0.23327
0.234507
0.235611
0.236741
0.237715
0.238365
0.23879
0.23911
0.239601
0.241074
0.244599
0.251437
0.543384
0.306939
0.267288
0.254902
0.250452
0.249528
0.25049
0.251861
0.252687
0.25316
0.253621
0.253765
0.253504
0.253233
0.253143
0.252891
0.252341
0.251951
0.251761
0.251942
0.253172
0.256124
0.261477
0.721208
0.357437
0.297766
0.278943
0.271691
0.26975
0.270235
0.271058
0.271208
0.271054
0.270795
0.270098
0.269089
0.268205
0.267549
0.266785
0.265912
0.265332
0.265186
0.265664
0.267239
0.27044
0.27571
0.960673
0.410195
0.326101
0.298779
0.288077
0.284243
0.283415
0.283498
0.283488
0.283409
0.283195
0.28263
0.281858
0.281185
0.280645
0.280082
0.279604
0.279436
0.279799
0.28104
0.283529
0.2877
0.293849
1.19643
0.459846
0.354004
0.319135
0.304245
0.297879
0.295046
0.293725
0.293142
0.293018
0.293033
0.292927
0.292729
0.292594
0.292582
0.292715
0.293144
0.294075
0.295718
0.298384
0.30251
0.308516
0.316676
1.13948
0.493817
0.392298
0.345698
0.323446
0.313422
0.308036
0.304468
0.30234
0.30174
0.30188
0.302143
0.302427
0.302874
0.303623
0.304817
0.306667
0.309408
0.313291
0.318616
0.325699
0.334918
0.34656
0.932952
0.543171
0.430716
0.372134
0.344078
0.330705
0.3237
0.317139
0.31171
0.309883
0.310129
0.310924
0.311781
0.312949
0.314747
0.317471
0.321418
0.326897
0.334157
0.343475
0.355216
0.369573
0.386182
0.73989
0.507245
0.41116
0.367112
0.345004
0.333289
0.326662
0.322252
0.317639
0.315229
0.316711
0.31899
0.320819
0.323097
0.326473
0.331428
0.338433
0.347929
0.360109
0.375091
0.393263
0.414355
0.436216
0.615077
0.443834
0.383955
0.355927
0.342496
0.334053
0.327805
0.322785
0.318412
0.316317
0.316996
0.318416
0.320243
0.323052
0.327362
0.333677
0.342498
0.354231
0.369094
0.387159
0.407965
0.429508
0.447875
0.609113
0.406164
0.361981
0.344189
0.334679
0.32831
0.322205
0.31732
0.315817
0.315885
0.316439
0.317194
0.318479
0.320814
0.324475
0.329709
0.336787
0.345938
0.357266
0.370692
0.385575
0.400156
0.411722
0.630516
0.379086
0.339623
0.327558
0.322198
0.318275
0.314814
0.312843
0.312773
0.313614
0.314084
0.314111
0.314519
0.315746
0.317918
0.32113
0.325511
0.331107
0.337853
0.345495
0.35342
0.360533
0.365279
0.650703
0.359735
0.319399
0.309826
0.30736
0.306547
0.306247
0.306747
0.30814
0.309543
0.310016
0.309719
0.309437
0.309603
0.310291
0.311532
0.313372
0.315787
0.318638
0.321663
0.32443
0.326342
0.326617
0.642775
0.339889
0.299324
0.291558
0.291659
0.293717
0.29615
0.298696
0.301219
0.303265
0.304252
0.304231
0.303761
0.30329
0.302949
0.302752
0.302723
0.302851
0.303034
0.303101
0.30282
0.301915
0.299994
0.601384
0.314574
0.277542
0.272093
0.274565
0.279097
0.28384
0.288228
0.292049
0.295072
0.297024
0.297833
0.297787
0.297255
0.296465
0.295485
0.294371
0.293149
0.291797
0.290246
0.288412
0.286184
0.283336
0.541535
0.284178
0.253376
0.250892
0.255673
0.262369
0.269126
0.275265
0.280534
0.284804
0.287964
0.289959
0.290873
0.290895
0.290253
0.289121
0.287617
0.285817
0.283766
0.281474
0.278942
0.276136
0.272904
0.470607
0.250942
0.226847
0.227754
0.234785
0.243403
0.251939
0.259716
0.266473
0.272111
0.276581
0.279857
0.281954
0.282942
0.282962
0.282211
0.280858
0.279036
0.276837
0.274323
0.271541
0.268496
0.265084
0.394655
0.216368
0.199246
0.202962
0.212004
0.222236
0.23226
0.241464
0.249592
0.256547
0.262293
0.266815
0.270109
0.272196
0.273158
0.273141
0.272321
0.270854
0.268865
0.266451
0.263683
0.260596
0.257127
0.319813
0.182336
0.171668
0.177472
0.187868
0.199228
0.210323
0.220612
0.229844
0.237911
0.24477
0.250401
0.254792
0.257946
0.259909
0.260781
0.260708
0.259837
0.258304
0.256221
0.253677
0.250732
0.247359
0.251898
0.150899
0.145467
0.152578
0.163315
0.175169
0.186786
0.197692
0.207637
0.216491
0.224193
0.230708
0.236014
0.240106
0.243005
0.244778
0.245532
0.245392
0.244483
0.242917
0.240794
0.238188
0.235106
0.198736
0.124294
0.121917
0.129393
0.139774
0.15123
0.16274
0.173716
0.1839
0.193137
0.201338
0.208446
0.214427
0.219264
0.222962
0.22556
0.227133
0.227775
0.227592
0.226687
0.225157
0.223086
0.220499
0.157793
0.102327
0.10175
0.10884
0.1183
0.128727
0.139531
0.150025
0.159956
0.169145
0.177465
0.184841
0.191221
0.196573
0.200886
0.204178
0.206495
0.207903
0.208484
0.208325
0.207512
0.206128
0.204207
0.127435
0.0848753
0.085165
0.0915039
0.0997814
0.108907
0.118432
0.127977
0.137231
0.145986
0.154063
0.161382
0.167878
0.173498
0.178217
0.182034
0.18497
0.187067
0.188383
0.188983
0.188938
0.188321
0.187168
0.106095
0.0716106
0.0720674
0.0774689
0.0844914
0.0922666
0.10043
0.108762
0.117007
0.12497
0.132497
0.13948
0.145842
0.151493
0.156402
0.160553
0.163948
0.166608
0.168564
0.169863
0.170558
0.170705
0.170333
0.0919308
0.0619609
0.0620999
0.0665074
0.0723306
0.0788381
0.0857256
0.0928249
0.0999753
0.107012
0.113801
0.120233
0.126221
0.13169
0.13659
0.140888
0.144568
0.147632
0.15009
0.151968
0.153302
0.154132
0.154477
0.0830725
0.0552004
0.0547332
0.0581772
0.0629259
0.0683181
0.0740867
0.0800845
0.0862007
0.0923144
0.0983155
0.104108
0.109611
0.114754
0.119483
0.123756
0.127547
0.130841
0.133637
0.135942
0.137773
0.139154
0.140096
0.0778651
0.0505787
0.0493807
0.0519451
0.0557699
0.0602204
0.0650448
0.0701144
0.075336
0.0806201
0.0858803
0.0910379
0.0960221
0.100771
0.105232
0.109361
0.113127
0.116507
0.119486
0.122061
0.124235
0.126016
0.127408
0.074994
0.0474338
0.0454983
0.0472957
0.0503474
0.0540206
0.0580705
0.0623774
0.0668571
0.071437
0.0760482
0.0806274
0.0851158
0.0894597
0.0936116
0.0975301
0.101181
0.104537
0.107579
0.110292
0.112671
0.114714
0.116414
0.0735084
0.0452521
0.0426446
0.0437969
0.0462124
0.0492537
0.0526801
0.0563687
0.0602427
0.0642389
0.0683011
0.0723772
0.0764186
0.0803796
0.0842186
0.0878974
0.091383
0.094647
0.097666
0.100422
0.1029
0.105094
0.106988
0.072803
0.0436773
0.0404963
0.0411254
0.0430326
0.0455704
0.0484946
0.0516852
0.0550671
0.0585838
0.0621875
0.0658346
0.0694843
0.0730981
0.0766395
0.0800747
0.0833729
0.0865062
0.0894503
0.0921844
0.0946909
0.0969552
0.09896
0.0725261
0.0425014
0.0388596
0.0390807
0.0405926
0.0427374
0.0452668
0.04806
0.0510449
0.0541696
0.0573922
0.0606755
0.0639851
0.0672886
0.0705548
0.0737541
0.0768584
0.079842
0.0826813
0.0853546
0.087842
0.0901248
0.092182
0.0724752
0.0416133
0.0376415
0.0375822
0.0388163
0.0406747
0.0429068
0.0453926
0.0480625
0.0508685
0.0537735
0.0567462
0.0597582
0.0627826
0.0657935
0.0687656
0.0716745
0.0744972
0.077212
0.0797983
0.0822351
0.084501
0.0865711
0.0726076
0.0410375
0.0369296
0.0367576
0.0378478
0.0395275
0.0415516
0.0438058
0.0462252
0.0487666
0.0513986
0.0540958
0.0568363
0.0595992
0.0623637
0.065109
0.0678145
0.0704611
0.0730303
0.0755039
0.0778617
0.0800801
0.0821304
0.0734191
0.0411674
0.0372594
0.0371808
0.0382384
0.0398041
0.0416633
0.0437177
0.0459106
0.0482048
0.0505747
0.0530014
0.0554696
0.0579644
0.06047
0.0629698
0.0654473
0.0678874
0.0702764
0.0726
0.0748401
0.0769723
0.078964
0.0773004
0.0437534
0.0402783
0.0402321
0.0411257
0.0424624
0.0440708
0.0458611
0.0477764
0.0497793
0.0518466
0.0539637
0.0561204
0.0583066
0.0605104
0.0627185
0.0649177
0.0670971
0.0692484
0.0713625
0.0734249
0.0754112
0.0772863
0.0935039
0.0543532
0.0493785
0.0480479
0.0480143
0.048691
0.0497888
0.0511403
0.0526467
0.0542511
0.0559227
0.0576458
0.059412
0.0612133
0.0630398
0.0648798
0.0667223
0.06856
0.0703897
0.0722077
0.0740039
0.0757556
0.0774266
0.156189
0.0848225
0.0683841
0.0620942
0.0597694
0.0592338
0.0595488
0.0602875
0.0612493
0.0623375
0.0635063
0.0647349
0.0660136
0.0673347
0.0686887
0.0700644
0.0714523
0.0728477
0.0742511
0.0756634
0.0770785
0.0784767
0.0798244
0.403471
0.148354
0.0955481
0.0803621
0.0753195
0.0736653
0.0732937
0.0734582
0.0738709
0.0744133
0.0750348
0.0757141
0.0764416
0.0772105
0.0780129
0.0788395
0.0796829
0.0805405
0.0814144
0.0823074
0.0832166
0.0841274
0.0850142
1.58918
0.207149
0.111976
0.0958789
0.091784
0.0905508
0.090174
0.0901008
0.090154
0.0902698
0.0904234
0.0906048
0.0908096
0.091035
0.0912775
0.0915334
0.0917995
0.0920752
0.0923616
0.0926603
0.0929706
0.0932864
0.0935971
0.946096
0.691909
0.484905
0.332039
0.362008
0.382827
0.358703
0.294116
0.282954
0.298152
0.294072
0.273009
0.260172
0.268459
0.271047
0.265882
0.258843
0.264413
0.268262
0.268763
0.267156
0.271479
0.275154
0.277332
0.280968
0.284953
0.288704
0.291837
0.299727
0.30418
0.308644
0.312923
0.324194
0.329873
0.335765
0.341739
0.356786
0.364382
0.37233
0.380642
0.399692
0.409697
0.420559
0.432732
0.451148
0.462104
0.474191
0.486719
0.457967
0.464743
0.472757
0.482186
0.417745
0.421137
0.424089
0.426683
0.366743
0.367083
0.366926
0.36634
0.325486
0.324415
0.322991
0.321248
0.297722
0.296099
0.294285
0.292297
0.280654
0.278865
0.276984
0.275013
0.270063
0.268213
0.266319
0.264369
0.26215
0.260251
0.258326
0.256356
0.254158
0.252233
0.250285
0.248294
0.244463
0.242575
0.24066
0.238701
0.232434
0.23068
0.228888
0.227049
0.21821
0.216689
0.215122
0.213501
0.202431
0.201228
0.199969
0.198654
0.185978
0.185144
0.184246
0.183287
0.169738
0.169282
0.168756
0.168166
0.154429
0.154322
0.154142
0.153896
0.140506
0.140694
0.14081
0.140858
0.128169
0.12859
0.12894
0.129221
0.117427
0.118017
0.118539
0.118994
0.108167
0.108872
0.109512
0.110088
0.100241
0.101019
0.101735
0.10239
0.0935206
0.0943399
0.0951017
0.0958053
0.0879358
0.0887758
0.0895611
0.0902904
0.083496
0.0843389
0.0851299
0.0858666
0.0803017
0.0811287
0.0819062
0.0826312
0.078555
0.0793393
0.0800776
0.0807655
0.0785647
0.0792677
0.0799293
0.0805446
0.0807479
0.0813172
0.0818525
0.0823484
0.0856251
0.0860005
0.0863529
0.0866773
0.0938124
0.093944
0.0940674
0.0941799
0.225243
0.198858
0.202309
0.208052
0.213326
0.219893
0.227672
0.235653
0.241886
0.243765
0.238871
0.226616
0.210295
0.192019
0.171761
0.15207
0.138075
0.137553
0.243249
0.224136
0.204302
0.205867
0.211395
0.217059
0.22391
0.232211
0.241364
0.249479
0.253592
0.250868
0.240633
0.22514
0.205866
0.183658
0.161073
0.142509
0.140722
0.280338
0.236962
0.220926
0.219333
0.222388
0.227203
0.233529
0.241498
0.250848
0.260121
0.266677
0.267598
0.261211
0.247416
0.226922
0.201363
0.173533
0.14712
0.134927
0.24983
0.249848
0.239126
0.236395
0.237929
0.242103
0.24805
0.255733
0.265069
0.275229
0.284277
0.289204
0.286634
0.274232
0.251606
0.221303
0.187087
0.151964
0.123629
0.18504
0.263013
0.256596
0.254344
0.256534
0.261459
0.268176
0.276392
0.286203
0.297197
0.308364
0.316284
0.316931
0.304865
0.277848
0.240309
0.198914
0.158503
0.117029
0.131182
0.277601
0.275729
0.276357
0.280585
0.287296
0.295736
0.305344
0.316302
0.328302
0.342652
0.352954
0.354939
0.341267
0.306327
0.258572
0.209324
0.169157
0.130144
0.127159
0.295646
0.298913
0.304085
0.311715
0.321275
0.332664
0.344992
0.358797
0.372044
0.391691
0.412467
0.408465
0.386682
0.337385
0.27484
0.217591
0.176578
0.148288
0.199559
0.3196
0.328052
0.338531
0.351206
0.365364
0.38179
0.39887
0.418509
0.4328
0.436599
0.438907
0.422337
0.390956
0.337348
0.273229
0.215337
0.17636
0.156389
0.225713
0.351808
0.365903
0.382688
0.402621
0.423559
0.447517
0.467392
0.480991
0.473166
0.432344
0.402519
0.3789
0.352356
0.309445
0.255739
0.207665
0.174522
0.161414
0.233984
0.395598
0.416934
0.442306
0.471119
0.496293
0.517962
0.520048
0.483977
0.439274
0.390863
0.359764
0.340014
0.321349
0.285051
0.239439
0.200315
0.174337
0.169929
0.244573
0.455497
0.481862
0.513884
0.537835
0.542747
0.523397
0.484406
0.435187
0.388551
0.348673
0.323428
0.309625
0.296335
0.265819
0.22631
0.194137
0.176696
0.179731
0.254705
0.5053
0.521056
0.539161
0.532526
0.501188
0.46394
0.421122
0.378222
0.341
0.311599
0.293484
0.283643
0.270773
0.244459
0.213032
0.189907
0.179804
0.187173
0.26515
0.494957
0.496309
0.484303
0.461424
0.429758
0.394811
0.359971
0.328356
0.301748
0.281461
0.268843
0.260256
0.247164
0.225602
0.202999
0.187596
0.182363
0.192366
0.276099
0.429389
0.423184
0.408052
0.387164
0.362464
0.33673
0.312147
0.290305
0.272088
0.258397
0.249138
0.240918
0.228819
0.212191
0.196359
0.186101
0.183738
0.195756
0.287354
0.364485
0.357051
0.34497
0.329735
0.312641
0.295169
0.27857
0.263748
0.251284
0.241592
0.233989
0.226095
0.21552
0.202831
0.191461
0.184347
0.183839
0.197905
0.298691
0.318023
0.311302
0.302331
0.291675
0.280016
0.268131
0.256694
0.246233
0.237102
0.229392
0.22243
0.21481
0.205584
0.195582
0.186992
0.181878
0.182819
0.199082
0.309557
0.288967
0.283196
0.276323
0.268505
0.260051
0.251352
0.242769
0.234601
0.227044
0.220062
0.213192
0.205741
0.197483
0.189196
0.182364
0.17866
0.180924
0.199464
0.319826
0.271823
0.266699
0.260956
0.254597
0.247737
0.240571
0.233299
0.226094
0.219064
0.212172
0.205179
0.197836
0.190244
0.18308
0.17746
0.174893
0.178428
0.199157
0.32889
0.261235
0.256366
0.251074
0.245298
0.239067
0.232481
0.225662
0.218727
0.211752
0.204744
0.19764
0.190434
0.183371
0.177043
0.172378
0.170818
0.17556
0.19829
0.336807
0.253174
0.248292
0.243071
0.237433
0.231364
0.224927
0.21821
0.211306
0.204294
0.197229
0.190157
0.183202
0.17666
0.171065
0.167243
0.16661
0.172463
0.196928
0.343071
0.245044
0.240069
0.234802
0.229167
0.223139
0.216763
0.210115
0.203281
0.19635
0.189412
0.182575
0.176021
0.170056
0.16517
0.162135
0.16235
0.169183
0.19511
0.347617
0.23546
0.230486
0.22525
0.219692
0.21379
0.207583
0.201139
0.194545
0.187896
0.1813
0.174895
0.16888
0.163555
0.159375
0.157075
0.158043
0.165699
0.192817
0.350524
0.223959
0.219194
0.214181
0.208886
0.203294
0.197443
0.1914
0.185247
0.179079
0.173012
0.167191
0.161815
0.157166
0.153673
0.15204
0.153643
0.161946
0.190022
0.351507
0.21072
0.20641
0.201851
0.197033
0.191953
0.186651
0.181189
0.175645
0.170112
0.164701
0.159556
0.154863
0.150889
0.148035
0.14698
0.149087
0.157811
0.186274
0.349541
0.196332
0.192667
0.188765
0.184607
0.180204
0.175596
0.170842
0.166015
0.161201
0.156507
0.152065
0.14805
0.144709
0.14242
0.141838
0.144284
0.153168
0.181551
0.344475
0.181526
0.178634
0.175505
0.17212
0.168488
0.164649
0.160659
0.156587
0.152511
0.14853
0.144766
0.141378
0.138602
0.136786
0.13655
0.139175
0.147999
0.175879
0.336516
0.167003
0.16494
0.162604
0.160016
0.15717
0.154103
0.150867
0.147526
0.14415
0.140831
0.137683
0.134851
0.132544
0.13109
0.131077
0.133739
0.142312
0.16931
0.32592
0.153305
0.152039
0.15047
0.148619
0.146504
0.14415
0.141605
0.138925
0.136178
0.133443
0.130822
0.128447
0.126509
0.125314
0.125415
0.127991
0.136148
0.161951
0.313056
0.140768
0.140203
0.139311
0.138111
0.13663
0.134895
0.132944
0.13083
0.128612
0.126362
0.124171
0.122158
0.120496
0.119468
0.119593
0.121981
0.129588
0.153944
0.298397
0.129536
0.129542
0.129207
0.128547
0.127586
0.126357
0.124893
0.123239
0.121449
0.119587
0.117733
0.115995
0.114529
0.113593
0.113668
0.115791
0.122751
0.145477
0.282356
0.119613
0.120054
0.120149
0.11991
0.119359
0.118526
0.117442
0.116147
0.114689
0.113126
0.111529
0.109993
0.108658
0.107758
0.107731
0.109542
0.115795
0.136779
0.265432
0.110922
0.111677
0.112086
0.11216
0.111915
0.111379
0.11058
0.109555
0.108348
0.107009
0.105602
0.104211
0.102961
0.10206
0.101906
0.103385
0.108914
0.128115
0.248197
0.103367
0.104337
0.104965
0.105258
0.105232
0.104907
0.104314
0.103486
0.102461
0.101286
0.100019
0.0987337
0.097541
0.0966262
0.0963471
0.0975089
0.102343
0.119801
0.231354
0.0968722
0.097981
0.0987519
0.0991903
0.099309
0.0991282
0.0986758
0.0979837
0.0970887
0.0960338
0.0948711
0.0936689
0.0925264
0.0916089
0.0912361
0.0921368
0.096359
0.112208
0.215744
0.091407
0.092597
0.0934518
0.0939754
0.0941799
0.0940864
0.0937226
0.0931198
0.0923139
0.0913464
0.0902674
0.0891418
0.088062
0.0871785
0.0867792
0.0875219
0.0912824
0.105779
0.202336
0.0870006
0.0882244
0.0891138
0.0896723
0.0899126
0.0898583
0.0895382
0.088985
0.0882356
0.0873324
0.0863266
0.0852839
0.0842966
0.0835097
0.0831899
0.0839372
0.0874751
0.101022
0.192185
0.0837496
0.0849612
0.0858383
0.0863837
0.0866109
0.086546
0.0862233
0.0856797
0.0849558
0.0840969
0.0831581
0.0822118
0.0813592
0.0807538
0.080661
0.0816477
0.0853215
0.0985209
0.186427
0.0818267
0.0829719
0.0837841
0.0842607
0.0844115
0.084267
0.0838782
0.0832925
0.0825553
0.0817157
0.0808349
0.0799969
0.0793237
0.0789974
0.0793141
0.0808551
0.0851813
0.0989062
0.186199
0.0814917
0.0825013
0.0831826
0.0835119
0.0834806
0.0831286
0.0825673
0.0818611
0.0810557
0.0801994
0.0793573
0.0786289
0.0781684
0.0782115
0.0791312
0.081605
0.0872801
0.10278
0.192533
0.0831082
0.083898
0.084366
0.0844173
0.0840016
0.0831695
0.0822503
0.081312
0.0803695
0.0794517
0.0786186
0.0779841
0.0777425
0.0782054
0.0798766
0.0836469
0.0914903
0.110469
0.206228
0.0871705
0.0876563
0.087819
0.0872948
0.0861358
0.0842289
0.0826757
0.0813926
0.0802601
0.0792481
0.0783962
0.0778254
0.0777687
0.0786214
0.0810515
0.086275
0.0969204
0.121338
0.227837
0.0943493
0.0944903
0.0942994
0.0918975
0.089661
0.085644
0.0832751
0.0816586
0.0803659
0.0792754
0.0783987
0.0778572
0.0779084
0.0790074
0.0819525
0.0882623
0.101336
0.131703
0.254381
)
;

boundaryField
{
    leftWall
    {
        type            epsilonWallFunction;
        value           nonuniform List<scalar> 
50
(
0.00764956
0.0135699
0.0225773
0.0320939
0.0431781
0.0573168
0.07613
0.10076
0.134659
0.195202
0.263232
0.338815
0.427022
0.543384
0.721208
0.960673
1.19643
1.13948
0.932952
0.73989
0.615077
0.609113
0.630516
0.650703
0.642775
0.601384
0.541535
0.470607
0.394655
0.319813
0.251898
0.198736
0.157793
0.127435
0.106095
0.0919308
0.0830725
0.0778651
0.074994
0.0735084
0.072803
0.0725261
0.0724752
0.0726076
0.0734191
0.0773004
0.0935039
0.156189
0.403471
1.58918
)
;
    }
    rightWall
    {
        type            epsilonWallFunction;
        value           nonuniform List<scalar> 
50
(
0.0581346
0.0652858
0.0930419
0.123111
0.147428
0.155486
0.172448
0.196789
0.243249
0.280338
0.24983
0.18504
0.131182
0.127159
0.199559
0.225713
0.233984
0.244573
0.254705
0.26515
0.276099
0.287354
0.298691
0.309557
0.319826
0.32889
0.336807
0.343071
0.347617
0.350524
0.351507
0.349541
0.344475
0.336516
0.32592
0.313056
0.298397
0.282356
0.265432
0.248197
0.231354
0.215744
0.202336
0.192185
0.186427
0.186199
0.192533
0.206228
0.227837
0.254381
)
;
    }
    lowerWall
    {
        type            epsilonWallFunction;
        value           nonuniform List<scalar> 
62
(
0.00764956
0.0351105
0.0743542
0.113805
0.149566
0.180108
0.205529
0.226398
0.243416
0.257528
0.27013
0.28287
0.297562
0.316046
0.33482
0.350969
0.361235
0.361454
0.346578
0.311016
0.249411
0.155683
0.0278144
0.0278144
0.0610254
0.112635
0.170804
0.236446
0.314618
0.420265
0.631323
0.946096
0.691909
0.484905
0.332039
0.247902
0.208744
0.261494
0.28752
0.287223
0.272419
0.260445
0.256675
0.247902
0.420096
0.584627
0.626637
0.63092
0.677091
0.736005
0.7672
0.765665
0.728236
0.640944
0.525958
0.453741
0.39022
0.302473
0.222896
0.172663
0.12438
0.0581346
)
;
    }
    atmosphere
    {
        type            inletOutlet;
        inletValue      uniform 0.1;
        value           nonuniform List<scalar> 
46
(
0.1
0.1
0.1
0.1
0.1
0.1
0.1
0.1
0.1
0.1
0.1
0.1
0.1
0.1
0.1
0.1
0.1
0.1
0.1
0.1
0.1
0.1
0.1
0.1
0.1
0.1
0.1
0.1
0.1
0.1
0.0918975
0.089661
0.085644
0.0832751
0.0816586
0.0803659
0.0792754
0.0783987
0.0778572
0.0779084
0.0790074
0.0819525
0.0882623
0.101336
0.131703
0.254381
)
;
    }
    defaultFaces
    {
        type            empty;
    }
}


// ************************************************************************* //
