/*--------------------------------*- C++ -*----------------------------------*\
  =========                 |
  \\      /  F ield         | OpenFOAM: The Open Source CFD Toolbox
   \\    /   O peration     | Website:  https://openfoam.org
    \\  /    A nd           | Version:  13
     \\/     M anipulation  |
\*---------------------------------------------------------------------------*/
FoamFile
{
    format      ascii;
    class       volScalarField;
    location    "1.35";
    object      k;
}
// * * * * * * * * * * * * * * * * * * * * * * * * * * * * * * * * * * * * * //

dimensions      [0 2 -2 0 0 0 0];

internalField   nonuniform List<scalar> 
2268
(
0.00146932
0.00409101
0.00676166
0.00898725
0.0107993
0.0122454
0.0133936
0.0143015
0.0150143
0.0155761
0.016045
0.0164877
0.0169676
0.0175743
0.0182093
0.0187563
0.0191057
0.0191173
0.0186094
0.0173459
0.0150095
0.0110014
0.00348914
0.00355228
0.00965124
0.0148101
0.0192231
0.0228787
0.0258414
0.0282324
0.0301721
0.0317635
0.0331071
0.0343248
0.0355381
0.0368229
0.0381939
0.0395953
0.0408538
0.0417475
0.041979
0.0411583
0.0387741
0.0341294
0.0260618
0.0097774
0.00500287
0.0129594
0.019436
0.0249486
0.029549
0.0333201
0.0364049
0.0389491
0.0410741
0.0428921
0.0445406
0.0461623
0.0478513
0.0496231
0.0514274
0.0530681
0.05428
0.0547028
0.0538582
0.0511098
0.0455566
0.0356418
0.0147317
0.00633767
0.0157995
0.0233517
0.0296793
0.0349492
0.0392887
0.0428681
0.0458556
0.0483845
0.0505624
0.0525246
0.0544194
0.0563509
0.0583421
0.0603612
0.0622138
0.0636215
0.0641966
0.0634188
0.0605896
0.0546917
0.0437983
0.0194337
0.00773424
0.0186015
0.0271876
0.0342183
0.0400198
0.0447909
0.048742
0.0520683
0.0549163
0.0573846
0.0595937
0.0616877
0.0637747
0.0658874
0.0680119
0.0699725
0.071496
0.0721925
0.0715335
0.0688016
0.062908
0.051514
0.0240921
0.00935248
0.0216618
0.0312447
0.0388767
0.0450956
0.0501863
0.0544058
0.0579779
0.0610641
0.0637598
0.0661666
0.0684162
0.0706127
0.0727976
0.0749624
0.0769678
0.0785597
0.079369
0.0788879
0.0764163
0.070838
0.059393
0.0290445
0.0113078
0.0253256
0.0357566
0.0438429
0.0503485
0.0556415
0.0600279
0.0637568
0.0670104
0.0698822
0.0724461
0.0748185
0.0770948
0.0793184
0.0814979
0.0835213
0.0851662
0.086101
0.0858633
0.0838066
0.0788692
0.0680456
0.0350679
0.0136261
0.0295261
0.0405435
0.0488805
0.0555359
0.0609861
0.0655371
0.0694289
0.0728343
0.075845
0.0785312
0.0810054
0.0833457
0.0855905
0.0877767
0.0898177
0.0915213
0.0925961
0.092632
0.0910642
0.0869976
0.0777575
0.0457571
0.0147459
0.0210853
0.0263664
0.0275907
0.0278023
0.0293076
0.0309943
0.0318293
0.031748
0.030645
0.0281117
0.0247378
0.0225162
0.020312
0.0171073
0.0139872
0.0118948
0.00949711
0.00560784
0.0234705
0.0404838
0.0520338
0.0565817
0.0587924
0.0619355
0.0649232
0.0665799
0.0665415
0.0645431
0.0604531
0.0547823
0.0499099
0.0448717
0.0388147
0.0325313
0.0277259
0.0212995
0.0107686
0.0274428
0.0490359
0.0639512
0.0717579
0.0749966
0.0788335
0.0824492
0.0846148
0.0847305
0.0824854
0.0778182
0.0713217
0.0649365
0.0584039
0.0510428
0.0436267
0.0369837
0.0283991
0.0136664
0.029469
0.053649
0.0705584
0.0818096
0.0862462
0.090761
0.0949272
0.0976448
0.0982592
0.0963029
0.0914197
0.0841928
0.0765664
0.0687982
0.0603342
0.0518875
0.0437687
0.033662
0.0165499
0.0294918
0.055488
0.0737506
0.0861777
0.0927824
0.0984325
0.10322
0.1064
0.107587
0.106383
0.102474
0.0952296
0.0865753
0.0777344
0.0681848
0.0585913
0.049146
0.037808
0.0186254
0.0283245
0.0553542
0.0751635
0.0878988
0.0960955
0.102805
0.108293
0.112013
0.113629
0.112884
0.109795
0.103451
0.0951132
0.0858141
0.0752937
0.0644547
0.0538713
0.0412062
0.0192164
0.0273269
0.0539676
0.0757099
0.089392
0.0985815
0.106035
0.112154
0.116513
0.118686
0.118309
0.115211
0.109161
0.101396
0.0922737
0.0813841
0.0697588
0.0583352
0.044473
0.0206216
0.0269554
0.0531778
0.0763011
0.0908765
0.100828
0.108877
0.115541
0.120501
0.123256
0.123289
0.120255
0.11417
0.106302
0.0970899
0.086161
0.074296
0.062406
0.0479213
0.0225302
0.0165198
0.0353799
0.0474238
0.056057
0.0627818
0.0683496
0.0731312
0.0773308
0.0810439
0.0843467
0.0873376
0.0900862
0.0926438
0.0950315
0.0972512
0.0992696
0.100912
0.101943
0.102073
0.100887
0.0976624
0.0907384
0.0731025
0.0211353
0.0440675
0.0577514
0.0669564
0.0737468
0.0792091
0.0839217
0.0881498
0.091979
0.0954499
0.0986081
0.101491
0.104102
0.10641
0.108363
0.109976
0.111112
0.111566
0.111149
0.109586
0.106455
0.100928
0.0917409
0.0257912
0.0529658
0.0683293
0.0784007
0.0856521
0.0913303
0.0961221
0.100347
0.104079
0.107373
0.110311
0.112944
0.115256
0.117208
0.11876
0.119927
0.120605
0.120618
0.119854
0.118147
0.115279
0.110958
0.105049
0.030553
0.0622198
0.0790743
0.0900311
0.097893
0.103968
0.108991
0.113305
0.116949
0.120001
0.12262
0.124883
0.126759
0.128237
0.129337
0.130045
0.130297
0.12996
0.128967
0.127199
0.124555
0.120981
0.116584
0.035767
0.0723197
0.0903062
0.101938
0.110297
0.116714
0.121939
0.1263
0.1298
0.132585
0.134878
0.136745
0.138158
0.139177
0.139871
0.140186
0.140057
0.139465
0.138376
0.136732
0.13457
0.131981
0.129209
0.0423687
0.083635
0.102145
0.113976
0.12248
0.129025
0.134338
0.138601
0.141851
0.144346
0.146333
0.147812
0.148804
0.149462
0.149874
0.149936
0.149584
0.148962
0.148049
0.146826
0.145422
0.143985
0.142802
0.0514791
0.0960819
0.113787
0.124952
0.133013
0.13941
0.144646
0.148774
0.151849
0.154188
0.155995
0.157273
0.158114
0.158695
0.159077
0.159162
0.158942
0.158551
0.158051
0.157477
0.156965
0.156704
0.156959
0.06251
0.107177
0.123455
0.133669
0.141261
0.147336
0.152299
0.156269
0.159343
0.161766
0.163677
0.16511
0.166162
0.166975
0.167592
0.167981
0.168187
0.168286
0.168372
0.168587
0.169061
0.169977
0.171533
0.0708505
0.113795
0.130766
0.141002
0.148303
0.154087
0.158707
0.162404
0.165407
0.16792
0.170023
0.17174
0.17314
0.174325
0.175342
0.176225
0.177045
0.177886
0.178832
0.180003
0.181576
0.183724
0.186592
0.0664937
0.115298
0.138286
0.14837
0.155022
0.160465
0.16475
0.168025
0.170713
0.173213
0.175504
0.177503
0.179238
0.18081
0.18231
0.183805
0.185393
0.187174
0.189247
0.19172
0.194697
0.198305
0.202657
0.058833
0.112574
0.141851
0.153459
0.160799
0.166387
0.170823
0.173588
0.175484
0.177754
0.180238
0.182584
0.184689
0.186689
0.188742
0.190978
0.193512
0.196467
0.199935
0.204
0.208754
0.214219
0.220254
0.050495
0.102609
0.133119
0.149939
0.160224
0.167155
0.17226
0.176086
0.178548
0.180837
0.183888
0.186896
0.189493
0.192028
0.194775
0.197931
0.201661
0.206117
0.211354
0.217381
0.224261
0.231832
0.239382
0.0446195
0.0960812
0.128122
0.147025
0.159394
0.167562
0.173029
0.176843
0.179532
0.182091
0.185047
0.187907
0.190622
0.193453
0.196633
0.200364
0.204825
0.210143
0.216365
0.223462
0.231209
0.238912
0.245361
0.044254
0.0975078
0.127309
0.145853
0.158092
0.166319
0.171627
0.17536
0.178964
0.182347
0.185414
0.188176
0.190814
0.193584
0.19664
0.200106
0.204088
0.208665
0.213848
0.219569
0.225562
0.231206
0.235609
0.0453568
0.0987012
0.126049
0.143437
0.155339
0.163532
0.169262
0.173776
0.177857
0.181583
0.184726
0.187339
0.189771
0.192251
0.194881
0.197732
0.200866
0.204307
0.208021
0.211897
0.21569
0.218996
0.22126
0.0464063
0.098182
0.123329
0.139722
0.151332
0.159765
0.166108
0.171274
0.175823
0.179779
0.182978
0.185544
0.187809
0.189992
0.19217
0.194388
0.196682
0.199055
0.201457
0.20378
0.205852
0.207433
0.208215
0.0461882
0.0956881
0.119293
0.134939
0.14641
0.155145
0.162029
0.167714
0.172591
0.176755
0.18014
0.182832
0.185079
0.187088
0.188951
0.190699
0.192363
0.193948
0.195421
0.196714
0.197726
0.198336
0.198369
0.044324
0.0915437
0.113962
0.129046
0.140441
0.149446
0.156776
0.16291
0.168143
0.172602
0.176305
0.179296
0.181719
0.183743
0.185482
0.186983
0.188284
0.189406
0.190343
0.191068
0.191539
0.191698
0.191439
0.0414442
0.0858392
0.107296
0.121972
0.133335
0.142576
0.150291
0.156848
0.162481
0.167318
0.17142
0.174825
0.177603
0.17985
0.181672
0.18315
0.18434
0.185279
0.185989
0.186473
0.186725
0.186721
0.186386
0.0378346
0.0789694
0.0993493
0.113725
0.125085
0.134534
0.142592
0.149554
0.155609
0.160873
0.165412
0.169267
0.172477
0.17509
0.177177
0.178823
0.180101
0.181068
0.181762
0.182208
0.18242
0.182392
0.182071
0.0337245
0.0712942
0.0905159
0.104455
0.115791
0.1254
0.133742
0.141065
0.14752
0.153205
0.158179
0.162478
0.166128
0.169156
0.171609
0.173552
0.175059
0.176194
0.177009
0.177542
0.177817
0.177842
0.17758
0.0293752
0.0632303
0.0811822
0.0945265
0.105701
0.115366
0.123895
0.131493
0.138279
0.144329
0.14969
0.154392
0.158451
0.161887
0.164729
0.167025
0.168837
0.170229
0.171253
0.171955
0.172367
0.172505
0.17235
0.0250924
0.0552243
0.0718158
0.0844441
0.0952059
0.104776
0.113348
0.12109
0.128092
0.134409
0.140073
0.145104
0.149513
0.153312
0.156521
0.159174
0.16132
0.163012
0.164302
0.165234
0.165845
0.166157
0.166165
0.021441
0.0476563
0.0628636
0.074697
0.0848999
0.0941236
0.102557
0.110277
0.117346
0.123798
0.129651
0.134912
0.139587
0.143681
0.147207
0.150189
0.152662
0.154669
0.156254
0.157459
0.15832
0.158864
0.159094
0.0183822
0.0411463
0.0549226
0.0658009
0.075302
0.0839848
0.0920962
0.0996091
0.106577
0.113016
0.118922
0.124296
0.129136
0.13344
0.137214
0.140473
0.143241
0.145551
0.147439
0.148939
0.150086
0.150908
0.15141
0.0159288
0.035871
0.0483003
0.058227
0.066966
0.0749996
0.0825521
0.0896788
0.0963864
0.102666
0.108486
0.113846
0.11874
0.123157
0.127095
0.130563
0.133576
0.136155
0.138328
0.140122
0.141566
0.142685
0.143488
0.0140801
0.0318628
0.0431132
0.0521534
0.0601421
0.0675086
0.0744529
0.0810688
0.0873609
0.0933181
0.0989181
0.104146
0.108989
0.113418
0.11743
0.121027
0.124215
0.127009
0.129425
0.131484
0.133207
0.134616
0.135717
0.012782
0.0290168
0.0392988
0.0475651
0.0548704
0.0616087
0.0679658
0.0740383
0.0798572
0.0854163
0.0906994
0.0956878
0.100363
0.104704
0.108699
0.11234
0.115629
0.11857
0.121169
0.123439
0.125397
0.127058
0.128425
0.0119365
0.027132
0.0366579
0.0442835
0.0510035
0.0571896
0.0630193
0.068587
0.0739382
0.0790807
0.0840065
0.0887009
0.0931466
0.0973258
0.101224
0.104829
0.108137
0.111144
0.113852
0.116267
0.118397
0.120251
0.121828
0.0114267
0.0259673
0.0349226
0.042037
0.0482773
0.0540019
0.0593827
0.0645148
0.0694483
0.0742023
0.078778
0.0831675
0.0873581
0.0913353
0.095085
0.0985951
0.101856
0.104862
0.10761
0.110098
0.11233
0.114307
0.116027
0.0111426
0.0252935
0.0338246
0.0405397
0.0463975
0.0517491
0.0567637
0.0615363
0.0661188
0.0705367
0.0747986
0.0789032
0.0828433
0.0866082
0.0901861
0.0935656
0.0967362
0.0996895
0.102419
0.10492
0.107189
0.109226
0.111024
0.0109974
0.0249243
0.0331404
0.039547
0.045105
0.0501628
0.0548884
0.0593735
0.0636715
0.0678113
0.0718066
0.0756613
0.0793728
0.0829343
0.086337
0.0895707
0.0926256
0.0954922
0.0981624
0.100629
0.102886
0.10493
0.106751
0.010935
0.0247273
0.0327096
0.0388838
0.0442159
0.0490512
0.0535543
0.0578157
0.0618883
0.0658033
0.0695778
0.0732194
0.0767294
0.0801045
0.0833385
0.0864235
0.0893505
0.0921103
0.0946943
0.097094
0.0993021
0.101312
0.103114
0.0109159
0.0246227
0.0324446
0.0384626
0.043642
0.0483225
0.0526645
0.056757
0.0606534
0.0643868
0.067977
0.0714352
0.0747661
0.0779697
0.0810424
0.0839786
0.0867707
0.0894105
0.0918893
0.0941988
0.0963307
0.098277
0.100028
0.0109192
0.0245865
0.0323482
0.0383132
0.043429
0.0480256
0.0522616
0.056228
0.0599817
0.0635597
0.066986
0.0702756
0.0734369
0.0764733
0.0793842
0.0821662
0.0848134
0.087319
0.0896751
0.0918737
0.0939065
0.0957652
0.0974395
0.0109455
0.0246978
0.0325989
0.0386745
0.0438356
0.0484116
0.052574
0.0564281
0.0600422
0.0634615
0.0667166
0.0698275
0.0728069
0.0756619
0.0783947
0.081004
0.0834861
0.0858354
0.0880454
0.0901088
0.0920179
0.0937643
0.0953377
0.0110611
0.0253053
0.03375
0.0401567
0.0454426
0.0499975
0.0540487
0.0577391
0.0611594
0.0643679
0.0674027
0.0702894
0.0730443
0.0756774
0.0781933
0.0805927
0.0828733
0.0850308
0.08706
0.0889548
0.0907083
0.0923123
0.093757
0.0115462
0.0274293
0.037002
0.0438497
0.0491605
0.0535279
0.0572972
0.0606699
0.0637631
0.0666461
0.0693616
0.071937
0.0743899
0.0767313
0.0789664
0.0810966
0.0831203
0.0850343
0.0868342
0.088515
0.0900706
0.0914936
0.0927744
0.0133336
0.033148
0.0440902
0.0510233
0.0559168
0.0597124
0.062892
0.0657024
0.0682707
0.0706644
0.0729217
0.0750655
0.0771105
0.0790652
0.0809335
0.0827158
0.0844102
0.0860136
0.0875223
0.0889318
0.090237
0.091431
0.0925051
0.0190038
0.0450337
0.0563536
0.0623088
0.0660541
0.0688043
0.0710709
0.0730792
0.0749308
0.0766735
0.0783314
0.079918
0.0814413
0.0829053
0.0843108
0.0856563
0.086939
0.0881555
0.0893022
0.0903754
0.0913703
0.0922808
0.0930997
0.0353352
0.0651181
0.0735614
0.0769554
0.0788985
0.0803236
0.0815322
0.0826366
0.0836817
0.0846859
0.0856573
0.0866
0.0875158
0.0884046
0.0892649
0.090094
0.0908887
0.0916459
0.0923625
0.0930354
0.0936609
0.0942341
0.0947497
0.0859702
0.0926149
0.092637
0.09272
0.0929441
0.093223
0.0935181
0.093817
0.0941159
0.0944132
0.0947084
0.0950009
0.0952901
0.0955751
0.0958546
0.0961269
0.0963903
0.0966434
0.0968846
0.0971127
0.0973259
0.0975218
0.0976984
0.06046
0.0492406
0.0390151
0.0302872
0.0841898
0.0767376
0.0651771
0.0546005
0.0997461
0.0942916
0.0864717
0.0797489
0.113023
0.110002
0.106475
0.103269
0.127437
0.126256
0.125143
0.124178
0.142472
0.142428
0.142525
0.142717
0.15773
0.158456
0.159311
0.160256
0.173264
0.174639
0.176131
0.177707
0.189283
0.191307
0.193449
0.195674
0.206395
0.209105
0.211924
0.214844
0.225002
0.228403
0.232022
0.235983
0.244393
0.247935
0.251741
0.255599
0.24882
0.251049
0.253566
0.256418
0.237836
0.23905
0.240058
0.240887
0.222067
0.222323
0.222351
0.222172
0.208176
0.20797
0.207578
0.207007
0.197961
0.197581
0.19707
0.19643
0.190933
0.190528
0.190031
0.189439
0.18589
0.185511
0.185063
0.184538
0.181616
0.181273
0.180872
0.180404
0.177183
0.176879
0.176525
0.176109
0.172036
0.171787
0.17149
0.171133
0.165973
0.165802
0.165582
0.165307
0.159069
0.159002
0.158886
0.158716
0.151586
0.151648
0.151659
0.151617
0.143886
0.144089
0.14424
0.144338
0.136336
0.136679
0.13697
0.137208
0.129241
0.129711
0.130129
0.130494
0.122803
0.123378
0.1239
0.124369
0.117115
0.117765
0.118364
0.118909
0.112177
0.112874
0.113519
0.114113
0.107929
0.108646
0.109312
0.109927
0.104285
0.105
0.105666
0.106282
0.101169
0.101865
0.102515
0.103116
0.0985311
0.099197
0.0998171
0.100391
0.0963627
0.0969868
0.0975671
0.0981025
0.0946965
0.0952671
0.0957965
0.0962835
0.0936057
0.0941089
0.0945746
0.0950013
0.0932006
0.0936201
0.094007
0.09436
0.0936288
0.0939465
0.0942386
0.0945034
0.0950824
0.0952811
0.0954631
0.0956267
0.0978122
0.0978797
0.0979414
0.0979962
0.0323604
0.0550893
0.0775936
0.0932864
0.10433
0.113209
0.120605
0.126397
0.130023
0.130749
0.128022
0.121944
0.11371
0.103923
0.0924955
0.0800613
0.0672825
0.0521577
0.0261411
0.0496265
0.0657249
0.0837053
0.0986676
0.110315
0.11986
0.127896
0.134437
0.138946
0.140548
0.138498
0.132801
0.124299
0.113478
0.100581
0.0862759
0.0711275
0.0545626
0.0290303
0.0755755
0.083881
0.0962382
0.108423
0.119113
0.128296
0.136173
0.142774
0.147661
0.150007
0.148964
0.144142
0.135623
0.123724
0.108973
0.0921145
0.0736507
0.0538447
0.0272329
0.100612
0.104801
0.11276
0.121929
0.13092
0.139063
0.146245
0.152412
0.157256
0.160099
0.159966
0.155833
0.14713
0.133903
0.116983
0.0973468
0.0752941
0.0505094
0.0226954
0.122989
0.125473
0.130748
0.137816
0.145275
0.152346
0.158689
0.164211
0.16867
0.171609
0.171813
0.168013
0.158738
0.1436
0.124007
0.101676
0.0772364
0.0474848
0.0181286
0.14314
0.145441
0.1498
0.155664
0.162022
0.168207
0.173772
0.178608
0.182459
0.185504
0.185615
0.181443
0.17101
0.15312
0.130306
0.105499
0.0808164
0.0508713
0.0175298
0.161945
0.165058
0.169609
0.175093
0.180871
0.186578
0.191694
0.196199
0.199285
0.20267
0.204637
0.197915
0.184618
0.162508
0.135497
0.108469
0.0836909
0.0571398
0.0235573
0.180456
0.18473
0.18998
0.195841
0.201732
0.207638
0.21286
0.217759
0.219815
0.21745
0.2132
0.202275
0.185875
0.162259
0.134754
0.107607
0.0835044
0.0589952
0.0251929
0.199511
0.205085
0.211461
0.218475
0.225197
0.232008
0.236625
0.238276
0.23298
0.217368
0.203387
0.190046
0.174866
0.154203
0.129436
0.104708
0.0816516
0.0579596
0.0255661
0.220019
0.227299
0.235459
0.244056
0.250771
0.25554
0.25393
0.240934
0.224517
0.205776
0.190879
0.178504
0.165735
0.147002
0.124223
0.101464
0.0797874
0.0579943
0.0262044
0.243203
0.251367
0.260538
0.266641
0.266665
0.259318
0.245682
0.22797
0.210042
0.193102
0.179708
0.169201
0.158209
0.141139
0.119917
0.0989166
0.0793158
0.0588274
0.0268313
0.261239
0.265774
0.270299
0.267383
0.256816
0.243606
0.227927
0.211269
0.195549
0.181458
0.170256
0.161157
0.150481
0.134726
0.115926
0.0976451
0.0800584
0.0601452
0.0275098
0.26022
0.260397
0.256144
0.248019
0.236557
0.223303
0.209368
0.195739
0.18307
0.171818
0.162537
0.154083
0.14355
0.129389
0.113456
0.0976877
0.0815285
0.0617999
0.0282367
0.24168
0.239347
0.233704
0.22567
0.215828
0.205047
0.194077
0.183458
0.173518
0.164587
0.156676
0.148615
0.138617
0.126183
0.112569
0.0985654
0.0832545
0.0635336
0.0289882
0.221472
0.218518
0.213576
0.207109
0.199539
0.191364
0.183025
0.174835
0.167005
0.159682
0.152621
0.144932
0.135637
0.124644
0.112623
0.0997264
0.0849142
0.0651803
0.0297401
0.205811
0.203012
0.19905
0.194106
0.18841
0.182233
0.175812
0.169328
0.162899
0.156543
0.14998
0.142619
0.133958
0.123999
0.113007
0.100809
0.0863366
0.0666463
0.0304541
0.195215
0.192793
0.189644
0.18581
0.181393
0.176526
0.171331
0.165904
0.160297
0.154466
0.148179
0.141081
0.132911
0.123653
0.113336
0.101625
0.0874526
0.0678965
0.0311186
0.188344
0.18628
0.183693
0.180568
0.176931
0.172843
0.16836
0.16353
0.158364
0.152804
0.146687
0.139805
0.13201
0.123249
0.113419
0.10211
0.0882538
0.0689138
0.0316996
0.183563
0.181754
0.179518
0.176811
0.173624
0.169977
0.165895
0.161398
0.156479
0.151087
0.145118
0.138446
0.130972
0.122613
0.113194
0.102265
0.0887557
0.0696956
0.0321999
0.179519
0.177873
0.175849
0.173394
0.170476
0.167098
0.163268
0.158993
0.154262
0.149036
0.143249
0.136819
0.129665
0.121683
0.112657
0.102114
0.0889748
0.070233
0.0325927
0.1753
0.173776
0.171904
0.169629
0.166913
0.163747
0.160133
0.15607
0.151547
0.146537
0.140995
0.134859
0.128053
0.120456
0.111827
0.101678
0.0889208
0.070517
0.0328744
0.170416
0.169026
0.167309
0.165215
0.162705
0.159764
0.156391
0.15258
0.148323
0.143597
0.138366
0.132577
0.126151
0.118952
0.110726
0.100971
0.088593
0.0705317
0.0330508
0.164716
0.163511
0.161994
0.160122
0.157858
0.155188
0.152106
0.148604
0.144673
0.14029
0.135423
0.130019
0.123993
0.117198
0.109368
0.0999953
0.0879836
0.0702604
0.0331407
0.158293
0.157341
0.156082
0.154487
0.152522
0.150172
0.147429
0.144283
0.140721
0.136721
0.132248
0.127244
0.121619
0.115217
0.107766
0.0987492
0.0870993
0.0697625
0.0330574
0.151404
0.150752
0.149807
0.148534
0.146908
0.144913
0.142539
0.139773
0.1366
0.132994
0.128915
0.124303
0.119061
0.113023
0.105926
0.0972615
0.0859533
0.0689839
0.0327816
0.144361
0.14404
0.143433
0.142507
0.141236
0.139606
0.137604
0.135217
0.132424
0.129195
0.12549
0.121238
0.116346
0.110649
0.103873
0.0955154
0.0845171
0.0679126
0.0323202
0.13747
0.137486
0.137208
0.13662
0.135693
0.13441
0.132759
0.130723
0.128277
0.12539
0.122019
0.118093
0.113509
0.108102
0.101598
0.0935044
0.0827882
0.0665515
0.0316828
0.130977
0.131303
0.131328
0.131039
0.130416
0.12944
0.128095
0.126364
0.12422
0.121629
0.118542
0.114887
0.110557
0.105387
0.099108
0.0912399
0.0807812
0.0649175
0.0308858
0.125035
0.125619
0.125897
0.125857
0.125483
0.12476
0.123667
0.122185
0.120286
0.117933
0.115074
0.111635
0.107507
0.102526
0.0964282
0.0887502
0.0785263
0.0630404
0.0299522
0.119711
0.120488
0.120958
0.121108
0.120924
0.120392
0.119491
0.1182
0.116489
0.114318
0.111634
0.108359
0.104386
0.0995508
0.0935979
0.0860797
0.076071
0.0609645
0.028904
0.115001
0.115905
0.116503
0.116784
0.116732
0.116333
0.115568
0.114413
0.112837
0.110799
0.108243
0.105092
0.101235
0.0965122
0.0906744
0.0832916
0.0734805
0.0587504
0.0277688
0.110858
0.11183
0.112501
0.112857
0.112885
0.11257
0.111892
0.110827
0.109344
0.1074
0.104937
0.101877
0.0981098
0.0934762
0.0877335
0.0804686
0.0708397
0.0564742
0.0265826
0.10722
0.108212
0.108908
0.109296
0.109362
0.10909
0.108462
0.107454
0.106032
0.104154
0.101762
0.0987745
0.095082
0.0905265
0.08487
0.0777135
0.0682536
0.0542317
0.0253919
0.104033
0.105008
0.105694
0.10608
0.106151
0.105894
0.105289
0.104314
0.102935
0.101108
0.0987756
0.0958556
0.0922369
0.0877621
0.0821955
0.0751485
0.0658484
0.0521381
0.0242586
0.101266
0.102197
0.102847
0.103205
0.103259
0.102996
0.102398
0.101443
0.100097
0.0983187
0.096047
0.093201
0.0896685
0.085291
0.0798329
0.0729095
0.0637677
0.0503297
0.0232588
0.0989194
0.0997827
0.100376
0.100689
0.100711
0.100429
0.0998282
0.0988869
0.0975742
0.0958473
0.0936468
0.0908916
0.0874689
0.0832189
0.0779033
0.0711344
0.0621631
0.0489565
0.0224812
0.0970249
0.0978011
0.0983211
0.0985743
0.0985497
0.0982377
0.0976262
0.0966961
0.0954187
0.093752
0.0916377
0.0889953
0.085713
0.0816301
0.0765047
0.0699396
0.0611717
0.048168
0.0220228
0.0956489
0.0963176
0.0967471
0.0969243
0.0968367
0.096477
0.0958417
0.0949166
0.0936748
0.0920752
0.0900603
0.0875513
0.0844388
0.0805641
0.0756831
0.0693865
0.0608802
0.0480792
0.0219774
0.0948931
0.0954324
0.0957529
0.0958316
0.0956492
0.0952026
0.0945143
0.0935776
0.0923644
0.0908315
0.0889207
0.0865554
0.0836307
0.0799939
0.075404
0.0694428
0.0612772
0.0487213
0.0224162
0.0949009
0.0952891
0.0954805
0.0954215
0.0950807
0.0944564
0.0936569
0.0926776
0.0914759
0.0899984
0.0881828
0.0859536
0.0832123
0.0798162
0.0755354
0.0699541
0.062207
0.0499801
0.0233718
0.0958701
0.0960927
0.0961368
0.0958397
0.0952329
0.0942328
0.0932301
0.0921708
0.0909592
0.0895171
0.0877731
0.0856511
0.0830587
0.0798657
0.0758592
0.0706406
0.0633391
0.0515378
0.0248323
0.098077
0.0981381
0.0980414
0.0970343
0.0960817
0.0943814
0.093113
0.0919667
0.0907359
0.0893081
0.0876013
0.0855381
0.0830301
0.0799562
0.0761186
0.0711405
0.0641735
0.0527866
0.0265447
)
;

boundaryField
{
    leftWall
    {
        type            kqRWallFunction;
        value           nonuniform List<scalar> 
50
(
0.00146932
0.00355228
0.00500287
0.00633767
0.00773424
0.00935248
0.0113078
0.0136261
0.0165198
0.0211353
0.0257912
0.030553
0.035767
0.0423687
0.0514791
0.06251
0.0708505
0.0664937
0.058833
0.050495
0.0446195
0.044254
0.0453568
0.0464063
0.0461882
0.044324
0.0414442
0.0378346
0.0337245
0.0293752
0.0250924
0.021441
0.0183822
0.0159288
0.0140801
0.012782
0.0119365
0.0114267
0.0111426
0.0109974
0.010935
0.0109159
0.0109192
0.0109455
0.0110611
0.0115462
0.0133336
0.0190038
0.0353352
0.0859702
)
;
    }
    rightWall
    {
        type            kqRWallFunction;
        value           nonuniform List<scalar> 
50
(
0.00560784
0.0107686
0.0136664
0.0165499
0.0186254
0.0192164
0.0206216
0.0225302
0.0261411
0.0290303
0.0272329
0.0226954
0.0181286
0.0175298
0.0235573
0.0251929
0.0255661
0.0262044
0.0268313
0.0275098
0.0282367
0.0289882
0.0297401
0.0304541
0.0311186
0.0316996
0.0321999
0.0325927
0.0328744
0.0330508
0.0331407
0.0330574
0.0327816
0.0323202
0.0316828
0.0308858
0.0299522
0.028904
0.0277688
0.0265826
0.0253919
0.0242586
0.0232588
0.0224812
0.0220228
0.0219774
0.0224162
0.0233718
0.0248323
0.0265447
)
;
    }
    lowerWall
    {
        type            kqRWallFunction;
        value           nonuniform List<scalar> 
62
(
0.00146932
0.00409101
0.00676166
0.00898725
0.0107993
0.0122454
0.0133936
0.0143015
0.0150143
0.0155761
0.016045
0.0164877
0.0169676
0.0175743
0.0182093
0.0187563
0.0191057
0.0191173
0.0186094
0.0173459
0.0150095
0.0110014
0.00348914
0.00348914
0.0097774
0.0147317
0.0194337
0.0240921
0.0290445
0.0350679
0.0457571
0.06046
0.0492406
0.0390151
0.0302872
0.0147459
0.0234705
0.0274428
0.029469
0.0294918
0.0283245
0.0273269
0.0269554
0.0147459
0.0210853
0.0263664
0.0275907
0.0278023
0.0293076
0.0309943
0.0318293
0.031748
0.030645
0.0281117
0.0247378
0.0225162
0.020312
0.0171073
0.0139872
0.0118948
0.00949711
0.00560784
)
;
    }
    atmosphere
    {
        type            inletOutlet;
        inletValue      uniform 0.1;
        value           nonuniform List<scalar> 
46
(
0.1
0.1
0.1
0.1
0.1
0.1
0.1
0.1
0.1
0.1
0.1
0.1
0.1
0.1
0.1
0.1
0.1
0.1
0.1
0.1
0.1
0.1
0.1
0.1
0.1
0.1
0.1
0.1
0.1
0.1
0.0970343
0.0960817
0.0943814
0.093113
0.0919667
0.0907359
0.0893081
0.0876013
0.0855381
0.0830301
0.0799562
0.0761186
0.0711405
0.0641735
0.0527866
0.0265447
)
;
    }
    defaultFaces
    {
        type            empty;
    }
}


// ************************************************************************* //
