/*--------------------------------*- C++ -*----------------------------------*\
  =========                 |
  \\      /  F ield         | OpenFOAM: The Open Source CFD Toolbox
   \\    /   O peration     | Website:  https://openfoam.org
    \\  /    A nd           | Version:  13
     \\/     M anipulation  |
\*---------------------------------------------------------------------------*/
FoamFile
{
    format      ascii;
    class       volScalarField;
    location    "1.35";
    object      nut;
}
// * * * * * * * * * * * * * * * * * * * * * * * * * * * * * * * * * * * * * //

dimensions      [0 2 -1 0 0 0 0];

internalField   nonuniform List<scalar> 
2268
(
2.54001e-05
4.2901e-05
5.53406e-05
6.38754e-05
7.01787e-05
7.49296e-05
7.85531e-05
8.13084e-05
8.33502e-05
8.47879e-05
8.57732e-05
8.64916e-05
8.70774e-05
8.79531e-05
8.91291e-05
9.02132e-05
9.09449e-05
9.10005e-05
8.99305e-05
8.70672e-05
8.12941e-05
6.9968e-05
3.93922e-05
8.36916e-05
0.00033969
0.000500693
0.000614611
0.000698061
0.000758856
0.000801801
0.000830009
0.000845442
0.00084982
0.00084575
0.000836396
0.000824056
0.000810285
0.000800509
0.000794244
0.000789081
0.000781057
0.000764744
0.000732547
0.00067242
0.000549573
0.000140987
9.9772e-05
0.00053124
0.0008705
0.00112808
0.00132282
0.00146701
0.00156961
0.00163705
0.00167379
0.00168391
0.00167338
0.00164989
0.00162069
0.00159126
0.00156898
0.00155295
0.00153887
0.00151902
0.0014819
0.00140944
0.00126738
0.000960348
0.000173409
0.000112636
0.000643024
0.00111154
0.00148395
0.00177444
0.00199522
0.00215689
0.00226805
0.00233517
0.00236393
0.00236219
0.00234011
0.00230786
0.00227329
0.00224495
0.00222235
0.00220028
0.00216841
0.00210987
0.00199552
0.00176601
0.00126964
0.000199001
0.000124685
0.000716328
0.00127766
0.00173687
0.00210392
0.00238965
0.002605
0.00275971
0.00286164
0.00291733
0.0029352
0.00292618
0.00290145
0.00286996
0.00284071
0.00281417
0.00278498
0.00274113
0.00266136
0.0025061
0.00219136
0.00151638
0.000220933
0.000137345
0.000771721
0.00140148
0.00192766
0.0023566
0.00269726
0.00296034
0.00315619
0.00329354
0.00337943
0.00342217
0.00343249
0.00342152
0.00339864
0.0033721
0.00334396
0.00330881
0.00325373
0.00315416
0.00296159
0.00256936
0.0017308
0.000241317
0.000151161
0.000823879
0.00150265
0.0020819
0.00256213
0.00294979
0.0032551
0.0034887
0.00365997
0.00377634
0.00384556
0.00387783
0.00388362
0.00387204
0.00385127
0.00382379
0.00378436
0.0037197
0.00360322
0.00338003
0.00292511
0.0019445
0.000263353
0.000165844
0.000875327
0.00159092
0.00221325
0.00273661
0.00316561
0.0035092
0.00377783
0.00398102
0.00412647
0.00422165
0.00427627
0.00429981
0.00430068
0.00428755
0.00426283
0.00422115
0.0041493
0.00402015
0.00377636
0.00328442
0.00220668
0.000298475
7.89419e-05
9.52474e-05
0.00010702
0.000109334
0.000110263
0.000114171
0.000117469
0.000118847
0.000118478
0.000116062
0.000110968
0.000104716
0.00010056
9.51569e-05
8.70802e-05
7.8995e-05
7.37489e-05
6.52643e-05
4.86853e-05
0.000237505
0.000610515
0.00086051
0.000952833
0.00101176
0.00107623
0.00112559
0.0011527
0.00115893
0.00114143
0.00110445
0.0010454
0.00100753
0.000939981
0.000848235
0.000736824
0.000663885
0.000496993
0.00015986
0.000259202
0.00104091
0.00153316
0.00178089
0.0019451
0.00209795
0.00221794
0.00228836
0.00231033
0.00228035
0.00220538
0.00209236
0.00198125
0.00182996
0.00162999
0.00140599
0.00119072
0.000826832
0.000180663
0.000271835
0.00130282
0.00198804
0.00239077
0.00267001
0.0029129
0.00310255
0.00321831
0.00326015
0.00322725
0.00312639
0.00296898
0.00279471
0.00256853
0.00227747
0.00195278
0.00160099
0.0010624
0.000200234
0.000272537
0.00143187
0.00227954
0.00281083
0.0032087
0.00354078
0.00379744
0.00395903
0.00402358
0.00399232
0.00387658
0.00369026
0.00346797
0.003182
0.00281852
0.00240527
0.00193024
0.00123584
0.000211775
0.000265052
0.0014488
0.00244855
0.00311759
0.00362224
0.00403667
0.00435659
0.00456449
0.00465429
0.00462747
0.00449937
0.00429097
0.00403346
0.0037012
0.00327955
0.00278852
0.00220777
0.0013626
0.000213744
0.000258052
0.00135715
0.00252946
0.00334959
0.00395502
0.00444378
0.00482221
0.00507539
0.00519371
0.0051764
0.0050377
0.00480654
0.00451603
0.00414509
0.00367611
0.00312158
0.00245153
0.00147597
0.000221937
0.000254771
0.00128266
0.00257772
0.00352797
0.00422749
0.00478522
0.00521774
0.00551303
0.00565987
0.00565579
0.00551363
0.00526327
0.00493906
0.00452924
0.00401803
0.00341023
0.00266808
0.00161237
0.000232151
0.000182396
0.00096095
0.00173416
0.00240927
0.00298313
0.00346184
0.00385395
0.00416918
0.00441622
0.00460314
0.00473836
0.00483008
0.00488601
0.00491272
0.00491549
0.00489849
0.00485645
0.00477675
0.00463399
0.00437519
0.00388627
0.00293757
0.0012746
0.000205956
0.00110561
0.0019849
0.00273324
0.00336014
0.00388233
0.00431446
0.00466835
0.00495341
0.00517819
0.00535082
0.00547833
0.0055661
0.00561787
0.00563525
0.00562275
0.00557645
0.00548548
0.00532947
0.00506772
0.00462269
0.00386453
0.00269117
0.00022743
0.00128403
0.00229538
0.00312931
0.00380963
0.00436612
0.00482275
0.00519672
0.00549975
0.00574189
0.00593219
0.00607748
0.00618175
0.00624722
0.00627492
0.00626732
0.00622202
0.00612944
0.0059741
0.00572657
0.00533744
0.00473585
0.00388482
0.000247963
0.00150029
0.00266019
0.00358393
0.00431575
0.0049003
0.00537198
0.00575465
0.00606297
0.00630911
0.00650395
0.00665483
0.0067649
0.00683598
0.00686964
0.00686624
0.00682478
0.00673711
0.00659236
0.00636996
0.00603907
0.0055642
0.00493525
0.000269624
0.00176334
0.00307592
0.0040814
0.00485488
0.00545819
0.00593651
0.0063202
0.00662665
0.00687045
0.00706384
0.00721452
0.00732549
0.00739911
0.00743743
0.00744035
0.00740647
0.00733092
0.00720715
0.00702258
0.0067607
0.00640931
0.00597581
0.000297322
0.00205101
0.00351313
0.00458663
0.00539075
0.0060044
0.0064841
0.00686459
0.00716682
0.00740724
0.00759876
0.00774874
0.0078611
0.00793938
0.00798602
0.00800056
0.00798037
0.00792643
0.00783542
0.00770106
0.0075177
0.00728491
0.00701909
0.000330707
0.00232448
0.00391336
0.00503748
0.00586079
0.00648439
0.00696804
0.00734909
0.00765176
0.00789379
0.0080877
0.00824189
0.00836154
0.00845089
0.00851241
0.00854598
0.0085503
0.00852692
0.00847783
0.00840125
0.0082975
0.00817204
0.00804198
0.000366071
0.00252032
0.00420635
0.00538215
0.00623417
0.00687336
0.00736571
0.00775246
0.00806075
0.00831008
0.00851398
0.00868099
0.00881613
0.00892385
0.00900719
0.00906733
0.00910507
0.00912127
0.00911881
0.00910175
0.00907264
0.00903821
0.00901184
0.000377609
0.00253443
0.00434733
0.00560682
0.00650605
0.00717355
0.00768328
0.00808153
0.00839983
0.00866067
0.00887858
0.00906201
0.00921662
0.00934756
0.00945731
0.00954845
0.00962336
0.00968426
0.0097332
0.00977294
0.0098089
0.00984683
0.0098949
0.000349217
0.00242281
0.00438718
0.00573107
0.00668696
0.00739393
0.00793031
0.00834539
0.00867519
0.00894891
0.00918298
0.00938513
0.00956058
0.00971466
0.00985211
0.00997516
0.010087
0.0101906
0.0102885
0.0103827
0.0104748
0.0105675
0.0106656
0.000333906
0.00209981
0.00420451
0.00569547
0.0067632
0.00753427
0.00811323
0.00855133
0.00889139
0.00917666
0.00942742
0.00964967
0.00984637
0.0100232
0.0101863
0.0103396
0.0104855
0.010627
0.0107664
0.0109046
0.0110412
0.0111753
0.0113058
0.00031015
0.00186809
0.00387894
0.00551154
0.00669693
0.00754504
0.00817549
0.00865959
0.00903276
0.00933661
0.00960911
0.00985517
0.0100732
0.0102717
0.0104583
0.0106385
0.0108147
0.0109895
0.0111642
0.0113383
0.0115098
0.0116739
0.0118229
0.000291314
0.00187197
0.0038478
0.00546595
0.00667619
0.00756449
0.00821991
0.00871976
0.00911041
0.00943398
0.00972195
0.00998002
0.0102119
0.0104261
0.0106298
0.0108282
0.0110243
0.0112198
0.0114151
0.011608
0.0117931
0.0119605
0.0120975
0.000289368
0.00210678
0.00402971
0.0055626
0.00672097
0.00758301
0.00822776
0.00872179
0.00912721
0.00947354
0.00977771
0.0100472
0.0102892
0.010513
0.0107252
0.0109303
0.0111307
0.0113277
0.0115202
0.011705
0.0118759
0.012023
0.0121345
0.00029365
0.00231286
0.0042104
0.00565298
0.00674033
0.00756218
0.00819043
0.00868746
0.00910239
0.00946234
0.00977805
0.0100558
0.0103052
0.0105352
0.0107514
0.0109576
0.0111555
0.0113459
0.0115273
0.0116963
0.0118471
0.0119721
0.0120621
0.000297861
0.0024117
0.00428584
0.00567089
0.0067059
0.00749392
0.00810871
0.00860691
0.00902918
0.00939726
0.00971979
0.0100038
0.0102589
0.0104932
0.0107113
0.0109163
0.0111099
0.0112926
0.0114632
0.0116189
0.0117553
0.0118666
0.0119462
0.000298707
0.0024245
0.00427891
0.00562075
0.00661471
0.00737542
0.00797836
0.00847526
0.00890012
0.00927183
0.00959911
0.00988881
0.010149
0.0103867
0.0106064
0.0108107
0.0110011
0.0111785
0.0113421
0.0114901
0.0116195
0.0117262
0.0118053
0.000294014
0.0023976
0.00421148
0.00550829
0.00646526
0.00720204
0.00779346
0.00828708
0.0087125
0.00908666
0.00941852
0.00971427
0.00998016
0.010222
0.0104441
0.0106491
0.0108387
0.0110139
0.0111747
0.0113201
0.0114484
0.0115567
0.0116412
0.000285459
0.00233359
0.00408925
0.00533678
0.00625819
0.00697304
0.00755355
0.00804359
0.00846954
0.00884675
0.00918391
0.00948665
0.00975974
0.0100076
0.0102339
0.0104418
0.0106332
0.0108095
0.0109713
0.0111183
0.0112495
0.0113633
0.0114567
0.000273755
0.00223659
0.00391597
0.00511082
0.00599768
0.00669243
0.00726333
0.00775067
0.0081782
0.00855975
0.00890337
0.00921407
0.00949565
0.00975144
0.00998459
0.010198
0.0103941
0.0105746
0.0107405
0.0108922
0.0110294
0.0111511
0.0112548
0.000259368
0.00211426
0.00370086
0.00483828
0.00569177
0.00636831
0.00693115
0.007417
0.00784722
0.00823424
0.00858527
0.00890475
0.00919578
0.00946102
0.00970309
0.00992464
0.0101281
0.0103155
0.0104882
0.010647
0.0107921
0.010923
0.0110378
0.000242833
0.00197343
0.00345521
0.00453126
0.00535236
0.00601242
0.00656851
0.00705371
0.00748722
0.00788015
0.00823896
0.00856752
0.00886848
0.00914403
0.00939636
0.00962781
0.00984069
0.0100371
0.0102186
0.0103863
0.0105407
0.0106817
0.0108078
0.000224958
0.00181893
0.00319093
0.00420621
0.00499509
0.00564039
0.00619054
0.00667526
0.00711184
0.00751031
0.00787644
0.00821369
0.00852437
0.00881033
0.00907342
0.00931568
0.00953919
0.00974594
0.00993762
0.0101154
0.0102802
0.0104318
0.0105695
0.000208188
0.00164449
0.00291727
0.00388095
0.0046412
0.00527232
0.00581679
0.00630042
0.00673902
0.00714177
0.00751394
0.00785868
0.00817807
0.00847372
0.0087472
0.00900026
0.00923473
0.00945241
0.00965492
0.00984353
0.0100191
0.0101818
0.0103311
0.000192731
0.00148907
0.00266816
0.00358028
0.0043139
0.00493145
0.00547087
0.00595218
0.00639106
0.00679614
0.00717224
0.00752244
0.0078487
0.00815245
0.00843503
0.00869793
0.00894271
0.00917095
0.00938412
0.00958341
0.00976968
0.00994328
0.0101037
0.000179191
0.00136442
0.00246537
0.00333466
0.00404484
0.00464843
0.00517881
0.00565575
0.00609287
0.00649803
0.00687526
0.00722812
0.00755864
0.007868
0.00815743
0.00842818
0.00868158
0.00891896
0.00914155
0.00935043
0.00954637
0.00972975
0.00990019
0.000168174
0.00127595
0.00232126
0.00315996
0.00385289
0.00444545
0.00496757
0.00543841
0.00587038
0.00627143
0.00664641
0.00699863
0.0073304
0.00764211
0.0079352
0.00821081
0.00847007
0.00871403
0.00894366
0.00915985
0.00936324
0.00955417
0.0097323
0.000159949
0.001223
0.00223826
0.0030616
0.00374625
0.00433303
0.00484967
0.00531485
0.00574087
0.00613609
0.00650589
0.00685383
0.0071822
0.0074923
0.00778523
0.00806199
0.0083235
0.00857061
0.00880384
0.00902396
0.00923146
0.00942658
0.00960901
0.000154363
0.00120023
0.00220967
0.0030337
0.0037206
0.00430865
0.00482446
0.00528661
0.00570781
0.00609697
0.00646021
0.00680164
0.00712398
0.007429
0.00771794
0.00799175
0.00825124
0.00849705
0.0087297
0.00894964
0.00915716
0.00935234
0.00953479
0.000150917
0.00119986
0.00222279
0.0030617
0.00376123
0.00435831
0.00487921
0.00534262
0.00576187
0.00614658
0.00650367
0.00683797
0.00715282
0.00745048
0.0077325
0.00799998
0.00825373
0.00849435
0.00872225
0.00893773
0.00914092
0.00933175
0.00950974
0.000149
0.00121387
0.00226315
0.00312739
0.00384817
0.00446158
0.00499377
0.0054636
0.00588498
0.00626829
0.00662125
0.00694943
0.00725683
0.00754628
0.00781974
0.0080786
0.0083238
0.00855599
0.00877557
0.00898278
0.00917766
0.00936008
0.00952954
0.000148076
0.00123552
0.0023179
0.00321384
0.00396216
0.00459798
0.00514704
0.00562847
0.00605659
0.00644241
0.00679428
0.00711849
0.00741971
0.00770132
0.00796578
0.00821483
0.00844966
0.00867106
0.00887952
0.00907531
0.00925848
0.00942893
0.00958625
0.000147819
0.00125991
0.00237781
0.00330879
0.00408886
0.00475182
0.00532277
0.00582059
0.00625991
0.00665213
0.00700617
0.00732893
0.00762569
0.00790042
0.00815608
0.0083948
0.0086181
0.00882698
0.00902211
0.00920385
0.0093724
0.00952778
0.00966977
0.000147864
0.00128384
0.00243797
0.00340688
0.00422285
0.00491738
0.00551442
0.0060325
0.00648636
0.00688779
0.00724626
0.00756928
0.00786272
0.00813115
0.00837801
0.00860585
0.00881652
0.0090113
0.00919106
0.00935635
0.00950757
0.00964499
0.00976873
0.000148058
0.00130739
0.00250194
0.00351526
0.00437309
0.00510345
0.00572905
0.00626848
0.00673712
0.00714756
0.00751004
0.00783276
0.0081222
0.00838345
0.00862041
0.00883603
0.00903248
0.00921128
0.00937349
0.00951988
0.0096511
0.00976778
0.00987051
0.000148502
0.00133776
0.00258984
0.00366223
0.00456937
0.00533632
0.00598684
0.00654188
0.00701903
0.0074326
0.00779396
0.00811206
0.00839386
0.00864482
0.00886918
0.00907015
0.00925014
0.0094108
0.00955328
0.00967849
0.00978731
0.00988081
0.0099602
0.000149977
0.00139995
0.00275139
0.00390338
0.00486037
0.00565212
0.00631044
0.00686318
0.00733257
0.00773554
0.00808472
0.00838947
0.00865685
0.00889229
0.00910001
0.00928329
0.00944451
0.0095853
0.00970668
0.00980946
0.00989469
0.00996386
0.0100189
0.000155218
0.0015476
0.00305929
0.00430134
0.00528885
0.00607293
0.00670437
0.00722344
0.00765893
0.00803051
0.00835143
0.00863068
0.00887463
0.00908803
0.00927464
0.0094374
0.00957843
0.009699
0.00979974
0.00988112
0.00994411
0.00999051
0.010023
0.000171123
0.00181941
0.00354314
0.00487646
0.00586079
0.00659058
0.00714992
0.00759698
0.00796783
0.00828392
0.00855791
0.00879742
0.00900732
0.0091911
0.00935155
0.00949095
0.00961084
0.00971194
0.00979424
0.00985765
0.00990278
0.00993148
0.0099468
0.000208099
0.00215182
0.00417956
0.00562717
0.00656997
0.0071929
0.00763403
0.00797264
0.00825016
0.00848757
0.00869556
0.00887959
0.0090427
0.00918687
0.00931373
0.00942462
0.00952041
0.0096012
0.00966639
0.00971531
0.00974808
0.00976618
0.00977245
0.000278513
0.00257244
0.00509706
0.00663238
0.00743829
0.00788253
0.0081627
0.00836657
0.00853159
0.00867389
0.00880053
0.0089146
0.00901748
0.00910994
0.00919259
0.00926596
0.00933033
0.00938542
0.00943045
0.00946455
0.00948745
0.00949996
0.00950402
0.000418568
0.00372667
0.00689744
0.00806986
0.0084707
0.00863766
0.00872876
0.00879179
0.00884267
0.00888722
0.00892769
0.00896493
0.00899925
0.00903075
0.00905951
0.00908558
0.00910895
0.00912944
0.00914663
0.00916011
0.00916966
0.00917546
0.00917814
0.000347731
0.000315385
0.000282521
0.00024864
0.00176215
0.00138438
0.00106585
0.000912258
0.0031646
0.0026838
0.00228842
0.0020966
0.00441894
0.00405666
0.00376436
0.00360991
0.00564671
0.00542578
0.00525407
0.00516373
0.00683813
0.00672504
0.0066443
0.00660989
0.00796918
0.00793022
0.00791191
0.00792011
0.00901432
0.00902391
0.00904601
0.00908266
0.0099463
0.00998522
0.0100309
0.0100836
0.0107456
0.0107998
0.0108561
0.0109137
0.0113996
0.0114599
0.0115206
0.0115821
0.0119152
0.0119723
0.0120281
0.0120804
0.0121668
0.0122052
0.0122401
0.0122723
0.0121867
0.0122123
0.0122297
0.0122395
0.0121017
0.0121185
0.0121266
0.0121265
0.0119832
0.011999
0.0120064
0.0120053
0.0118465
0.0118658
0.0118772
0.0118804
0.0116905
0.0117156
0.0117337
0.0117443
0.0115156
0.0115479
0.0115739
0.0115933
0.011324
0.0113635
0.0113977
0.011426
0.0111168
0.0111634
0.0112052
0.0112419
0.0108961
0.0109491
0.010998
0.0110423
0.0106664
0.0107254
0.0107807
0.0108319
0.0104361
0.0105005
0.0105617
0.010619
0.0102161
0.0102855
0.0103518
0.0104145
0.0100189
0.0100924
0.0101628
0.0102299
0.00985557
0.00993198
0.0100054
0.0100754
0.00973453
0.00981235
0.00988711
0.00995852
0.00965978
0.00973736
0.00981183
0.0098829
0.00963119
0.00970666
0.00977894
0.00984782
0.00964456
0.00971595
0.00978411
0.00984887
0.00969222
0.00975774
0.00982004
0.00987894
0.00976436
0.00982248
0.00987739
0.00992898
0.00984985
0.00989923
0.00994548
0.00998854
0.00993627
0.00997575
0.0100123
0.0100458
0.0100091
0.0100378
0.0100639
0.0100874
0.0100505
0.0100683
0.0100838
0.0100972
0.0100386
0.0100465
0.0100526
0.0100572
0.00995068
0.00995141
0.00995077
0.00994906
0.00977081
0.00976836
0.00976491
0.00976073
0.00950258
0.00950069
0.0094981
0.00949501
0.00917842
0.00917823
0.00917774
0.00917704
0.000418427
0.00137352
0.00267842
0.0037645
0.00459217
0.00524557
0.00574996
0.0061016
0.00629027
0.00631177
0.00617519
0.00590568
0.00553365
0.00506202
0.0044829
0.00379353
0.00295074
0.00177996
0.000252835
0.000988913
0.00190297
0.0030631
0.00414473
0.00504589
0.00577453
0.00633976
0.00673916
0.00696466
0.00701062
0.00688152
0.00659613
0.00617622
0.00562959
0.00495753
0.00415911
0.00319503
0.00190402
0.00027056
0.00216933
0.00286631
0.00380044
0.00475743
0.0056201
0.00634353
0.00691057
0.00731362
0.007544
0.00759419
0.0074632
0.00715868
0.00669088
0.00607118
0.00530758
0.00440064
0.00331836
0.00193388
0.000267168
0.00364645
0.00413375
0.00484079
0.00562351
0.00637171
0.00701664
0.0075269
0.0078872
0.0080865
0.00811483
0.00796335
0.00762491
0.00710437
0.00641359
0.00556541
0.00455873
0.00335757
0.00185723
0.000250527
0.00517606
0.00552191
0.00604912
0.00666339
0.00726476
0.00778901
0.00819993
0.00847956
0.00861535
0.00859528
0.00839994
0.00801615
0.00743864
0.00667948
0.00575927
0.00467751
0.00338727
0.00173403
0.000225473
0.00664269
0.00690455
0.00730796
0.00777237
0.00822359
0.00861048
0.00890048
0.00907699
0.00912644
0.00903849
0.00878516
0.00834773
0.00771241
0.00688847
0.00591003
0.0047854
0.00347497
0.00178963
0.000217497
0.00798374
0.00820301
0.0085142
0.00885163
0.00916441
0.00941798
0.00958627
0.00965583
0.00960718
0.00943797
0.00913739
0.00863065
0.00793299
0.00704477
0.00601204
0.00486642
0.00356996
0.00198159
0.000250277
0.00917014
0.00936213
0.00959537
0.0098285
0.0100246
0.0101632
0.0102235
0.0101974
0.0100478
0.00974721
0.00932061
0.00871902
0.00795348
0.00702397
0.00598132
0.00483955
0.00355844
0.00200294
0.00025307
0.0101828
0.0103454
0.0105162
0.0106696
0.0107759
0.0108253
0.0107816
0.0106235
0.0103245
0.00983566
0.00924918
0.00857898
0.00781034
0.00691582
0.00589595
0.00475158
0.00343814
0.00187306
0.000251411
0.0110131
0.0111525
0.011281
0.0113786
0.011404
0.0113465
0.0111591
0.0107948
0.0103277
0.00975004
0.00911466
0.00843419
0.00769294
0.00682282
0.00580028
0.00462539
0.0032864
0.00178134
0.000252686
0.0116868
0.0118015
0.0118883
0.0118973
0.0117917
0.0115632
0.0112145
0.0107479
0.0102189
0.00962497
0.00898672
0.00832171
0.00760189
0.00674449
0.00571872
0.004536
0.00320431
0.00173292
0.000254384
0.0121554
0.0122006
0.0121959
0.0120828
0.0118437
0.0115122
0.0111026
0.0106211
0.0100925
0.00951037
0.00888926
0.00824076
0.00752662
0.00668254
0.00567757
0.00451858
0.00320817
0.00173941
0.000256877
0.0123128
0.0122959
0.0121926
0.0119981
0.011719
0.0113669
0.0109597
0.0105015
0.00999614
0.00943978
0.008844
0.00821022
0.00750352
0.00667871
0.00570691
0.00457823
0.00328039
0.00178686
0.000259899
0.0122425
0.0121835
0.0120465
0.0118385
0.0115663
0.0112375
0.01086
0.0104342
0.0099592
0.0094351
0.00886766
0.00825085
0.00755761
0.00675334
0.005808
0.00469833
0.00339516
0.00185581
0.000263189
0.0121115
0.0120362
0.0119005
0.0117077
0.0114618
0.0111659
0.0108225
0.0104306
0.00998929
0.00949883
0.00895933
0.00836135
0.00768268
0.0068937
0.00596239
0.00485542
0.00352992
0.00193205
0.000266505
0.0119873
0.0119152
0.0117947
0.0116257
0.0114095
0.0111468
0.0108373
0.0104798
0.0100727
0.00961467
0.00910156
0.00852199
0.00785585
0.00707536
0.00614651
0.0050288
0.00366952
0.00200799
0.000269645
0.0118691
0.0118124
0.011714
0.0115726
0.0113874
0.0111578
0.0108823
0.0105591
0.0101855
0.00975797
0.0092693
0.00870679
0.00805071
0.00727348
0.00633922
0.00520254
0.00380445
0.00208004
0.000272501
0.0117452
0.0117099
0.0116375
0.0115258
0.0113726
0.0111763
0.0109348
0.0106451
0.0103035
0.00990426
0.00943831
0.0088917
0.00824414
0.00746742
0.00652404
0.00536541
0.00392868
0.00214614
0.000274979
0.0116086
0.0115971
0.011552
0.0114701
0.0113487
0.011185
0.0109762
0.0107186
0.010407
0.0100343
0.00958984
0.00905855
0.00841918
0.00764255
0.00668977
0.00551014
0.0040384
0.00220472
0.000277058
0.0114562
0.0114683
0.0114496
0.0113964
0.0113051
0.0111723
0.0109944
0.0107668
0.0104834
0.0101357
0.00971203
0.00919604
0.00856547
0.00779011
0.0068299
0.00563261
0.00413124
0.00225433
0.000278675
0.0112865
0.011321
0.011327
0.0113003
0.0112369
0.0111328
0.0109836
0.010784
0.010527
0.0102031
0.00979952
0.00929902
0.00867829
0.00790619
0.00694165
0.00573117
0.00420622
0.00229377
0.000279806
0.0111006
0.0111559
0.0111845
0.0111822
0.0111443
0.0110665
0.0109438
0.0107701
0.0105376
0.0102361
0.00985195
0.00936699
0.0087571
0.00799033
0.00702477
0.00580573
0.00426305
0.00232202
0.000280471
0.010903
0.0109777
0.011027
0.0110467
0.0110319
0.0109779
0.0108791
0.0107289
0.0105189
0.0102381
0.00987226
0.00940246
0.00880396
0.00804422
0.00708059
0.00585719
0.00430207
0.00233808
0.000281211
0.0107019
0.0107943
0.0108623
0.0109015
0.0109071
0.010874
0.0107963
0.0106669
0.0104768
0.0102145
0.00986519
0.00940954
0.00882235
0.00807062
0.0071113
0.00588666
0.00432649
0.00235144
0.000281373
0.0105081
0.010616
0.0107
0.0107559
0.0107787
0.0107632
0.0107032
0.0105912
0.0104178
0.0101712
0.00983611
0.00939291
0.00881625
0.00807245
0.00711956
0.00590073
0.0043411
0.00235907
0.000280766
0.0103324
0.0104531
0.0105499
0.0106189
0.0106552
0.0106534
0.0106072
0.0105087
0.0103483
0.010114
0.00979022
0.00935703
0.00878974
0.00805556
0.00711142
0.00589967
0.00434382
0.0023601
0.000279374
0.0101844
0.0103142
0.0104201
0.0104981
0.0105436
0.0105511
0.0105142
0.010425
0.0102736
0.0100477
0.00973226
0.00930756
0.00874869
0.00802301
0.00708733
0.00588367
0.0043345
0.00235437
0.00027719
0.010071
0.0102055
0.0103159
0.0103984
0.0104485
0.0104608
0.0104287
0.0103444
0.010198
0.00997739
0.00966725
0.00924823
0.0086955
0.00797665
0.0070487
0.00585373
0.00431372
0.00234198
0.000274245
0.0099954
0.0101296
0.0102397
0.010322
0.0103722
0.0103847
0.0103533
0.01027
0.0101249
0.00990594
0.00959794
0.00918169
0.00863262
0.00791874
0.00699754
0.00581151
0.00428261
0.00232337
0.000270585
0.00995677
0.0100859
0.0101911
0.0102689
0.0103149
0.0103237
0.0102891
0.010203
0.0100558
0.00983534
0.00952653
0.00911039
0.00856271
0.007852
0.00693646
0.00575927
0.00424284
0.00229934
0.000266294
0.00995099
0.0100709
0.0101672
0.0102365
0.0102746
0.0102763
0.0102352
0.0101435
0.00999139
0.00976686
0.00945494
0.00903684
0.0084887
0.00777963
0.00686863
0.00569989
0.00419661
0.00227114
0.00026146
0.0099714
0.0100785
0.0101625
0.0102203
0.0102477
0.0102397
0.0101898
0.0100903
0.00993152
0.00970136
0.00938495
0.00896364
0.00841386
0.0077053
0.00679786
0.00563689
0.00414678
0.00224048
0.000256236
0.0100094
0.0101007
0.01017
0.010214
0.0102289
0.0102096
0.0101497
0.0100416
0.0098755
0.00963932
0.00931815
0.00889339
0.00834165
0.00763306
0.0067284
0.00557432
0.0040967
0.00220948
0.000250816
0.010055
0.0101285
0.0101812
0.0102103
0.0102119
0.0101809
0.0101111
0.00999471
0.00982191
0.00958059
0.00925567
0.00882839
0.00827535
0.00756691
0.00666456
0.00551632
0.00404986
0.00218037
0.000245492
0.010097
0.0101512
0.0101867
0.0102007
0.0101893
0.0101475
0.010069
0.00994587
0.00976836
0.00952409
0.00919769
0.00877004
0.00821739
0.00751
0.00660984
0.0054663
0.00400919
0.00215523
0.000240626
0.0101224
0.010157
0.0101756
0.0101754
0.0101526
0.0101019
0.0100171
0.00989015
0.00971111
0.00946731
0.0091429
0.00871812
0.00816846
0.00746363
0.00656574
0.0054256
0.00397579
0.00213524
0.000236681
0.0101164
0.0101323
0.0101357
0.0101237
0.0100921
0.0100358
0.00994834
0.00982161
0.00964531
0.0094064
0.00908837
0.00867048
0.00812698
0.00742644
0.00653063
0.00539195
0.00394716
0.00211949
0.000234142
0.0100625
0.0100629
0.0100544
0.0100342
0.00999817
0.00994106
0.00985603
0.00973466
0.00956628
0.00933732
0.00903047
0.00862372
0.00808953
0.00739456
0.00649964
0.00535901
0.00391607
0.00210346
0.000233463
0.00994486
0.00993512
0.00992004
0.00989718
0.00986323
0.00981273
0.00973711
0.0096274
0.00947258
0.00925858
0.00896731
0.00857529
0.00805272
0.00736352
0.00646671
0.0053184
0.00387191
0.0020786
0.000234888
0.00975301
0.00974043
0.00972535
0.00970742
0.0096859
0.00965476
0.00959808
0.00950686
0.00937053
0.00917506
0.00890195
0.00852638
0.00801603
0.00733143
0.00642872
0.00526525
0.00380668
0.00203514
0.000238386
0.00948941
0.00948069
0.00947183
0.00946989
0.00947618
0.00948824
0.00946186
0.00939386
0.00927761
0.00910051
0.00884445
0.00848373
0.00798377
0.00730167
0.00638996
0.00520554
0.00372539
0.00197015
0.000243587
0.00917567
0.00917341
0.00917386
0.00922124
0.00926659
0.00936092
0.00937019
0.00932183
0.00921995
0.00905495
0.00880958
0.0084579
0.00796395
0.00728247
0.006363
0.00516061
0.00365755
0.00190411
0.000249295
)
;

boundaryField
{
    leftWall
    {
        type            nutkWallFunction;
        Cmu             0.09;
        kappa           0.41;
        E               9.8;
        value           nonuniform List<scalar> 
50
(
2.88671e-06
8.55619e-06
9.99837e-06
1.11342e-05
1.21903e-05
1.3668e-05
1.7497e-05
1.90764e-05
2.08517e-05
2.33586e-05
2.5597e-05
2.76662e-05
2.97374e-05
3.21341e-05
3.51585e-05
4.07716e-05
4.37218e-05
4.19803e-05
4.10545e-05
3.80983e-05
3.38773e-05
3.37057e-05
3.42066e-05
3.46783e-05
3.45806e-05
3.3735e-05
3.23881e-05
3.06228e-05
2.84925e-05
2.60711e-05
2.34789e-05
2.10624e-05
1.88509e-05
1.69204e-05
1.53508e-05
1.41772e-05
1.33757e-05
1.28767e-05
1.25931e-05
1.24466e-05
1.23833e-05
1.23638e-05
1.23672e-05
1.23939e-05
1.2511e-05
1.29948e-05
1.46838e-05
1.93162e-05
2.93439e-05
4.93572e-05
)
;
    }
    rightWall
    {
        type            nutkWallFunction;
        Cmu             0.09;
        kappa           0.41;
        E               9.8;
        value           nonuniform List<scalar> 
50
(
5.38188e-06
1.58357e-05
1.79052e-05
2.01237e-05
2.29905e-05
2.4316e-05
2.5096e-05
2.59375e-05
2.77857e-05
2.94216e-05
2.8474e-05
2.61505e-05
2.3685e-05
2.38221e-05
2.59091e-05
2.7055e-05
2.7313e-05
2.77471e-05
2.81716e-05
2.86232e-05
2.90985e-05
2.95817e-05
3.00553e-05
3.05012e-05
3.09118e-05
3.12667e-05
3.15695e-05
3.18053e-05
3.19735e-05
3.20784e-05
3.21318e-05
3.20824e-05
3.19182e-05
3.1642e-05
3.12566e-05
3.07685e-05
3.01875e-05
2.95229e-05
2.87875e-05
2.80006e-05
2.71905e-05
2.63992e-05
2.56835e-05
2.51148e-05
2.47743e-05
2.47403e-05
2.50667e-05
2.57653e-05
2.68023e-05
2.79751e-05
)
;
    }
    lowerWall
    {
        type            nutkWallFunction;
        Cmu             0.09;
        kappa           0.41;
        E               9.8;
        value           nonuniform List<scalar> 
62
(
2.88671e-06
4.61116e-06
5.79754e-06
6.59924e-06
7.1745e-06
7.59662e-06
7.91277e-06
8.15243e-06
8.33481e-06
8.47524e-06
8.59038e-06
8.69738e-06
8.81164e-06
8.9536e-06
9.09934e-06
9.22268e-06
9.30042e-06
9.303e-06
9.18975e-06
8.90047e-06
8.33359e-06
7.23536e-06
4.28832e-06
4.28832e-06
1.35631e-05
1.63466e-05
1.85457e-05
2.04545e-05
2.22755e-05
2.48748e-05
3.17699e-05
3.64741e-05
3.32278e-05
3.04335e-05
2.57673e-05
8.29826e-06
2.23344e-05
2.39918e-05
2.5881e-05
2.7277e-05
2.67615e-05
2.6345e-05
2.60969e-05
8.29826e-06
9.76554e-06
1.08041e-05
1.10408e-05
1.12071e-05
1.14937e-05
1.17859e-05
1.19142e-05
1.18933e-05
1.17062e-05
1.12275e-05
1.05592e-05
1.01213e-05
9.67223e-06
8.97055e-06
8.17973e-06
7.58147e-06
6.84151e-06
5.38188e-06
)
;
    }
    atmosphere
    {
        type            calculated;
        value           nonuniform List<scalar> 
46
(
0.009
0.009
0.009
0.009
0.009
0.009
0.009
0.009
0.009
0.009
0.009
0.009
0.009
0.009
0.009
0.009
0.009
0.009
0.009
0.009
0.009
0.009
0.009
0.009
0.009
0.009
0.009
0.009
0.009
0.009
0.00922124
0.00926659
0.00936092
0.00937019
0.00932183
0.00921995
0.00905495
0.00880958
0.0084579
0.00796395
0.00728247
0.006363
0.00516061
0.00365755
0.00190411
0.000249295
)
;
    }
    defaultFaces
    {
        type            empty;
    }
}


// ************************************************************************* //
