/*--------------------------------*- C++ -*----------------------------------*\
  =========                 |
  \\      /  F ield         | OpenFOAM: The Open Source CFD Toolbox
   \\    /   O peration     | Website:  https://openfoam.org
    \\  /    A nd           | Version:  13
     \\/     M anipulation  |
\*---------------------------------------------------------------------------*/
FoamFile
{
    format      ascii;
    class       volScalarField;
    location    "1.35";
    object      p;
}
// * * * * * * * * * * * * * * * * * * * * * * * * * * * * * * * * * * * * * //

dimensions      [1 -1 -2 0 0 0 0];

internalField   nonuniform List<scalar> 
2268
(
5194.69
5223.73
5274.04
5348.63
5442.01
5549.69
5665.24
5781.18
5889.51
5981.96
6052.84
6100.13
6124.45
6127.42
6113.77
6087.54
6054.98
6023.04
5998.59
5987.79
5994.68
6021.01
6069.87
4392
4416.45
4456.62
4521.46
4608.09
4712.26
4827.29
4945.5
5058.98
5159
5238.95
5295.58
5329.03
5341.08
5334.75
5314.7
5287.03
5258.66
5236.23
5225.11
5226.91
5244.25
5283.74
3587.55
3608.16
3638.27
3692.49
3771.02
3870.78
3985.02
4105.72
4224.96
4333.42
4423.45
4490.47
4533.53
4554.23
4555.46
4541.29
4517.87
4491.94
4469.6
4455.13
4448.7
4457.52
4493.18
2779.15
2798.09
2818.23
2862.79
2934.87
3031.83
3146.69
3270.98
3397.41
3514.99
3614.67
3690.67
3741.51
3768.6
3774.75
3763.44
3741.08
3714.28
3688.48
3667.04
3650.28
3652.14
3693.3
1968.22
1988.82
2000.7
2038.5
2106.53
2201.47
2316.2
2443.32
2575.8
2702.59
2812.05
2896.45
2953.92
2985.84
2994.84
2983.34
2958.26
2926.29
2892.61
2860.37
2831.28
2824.53
2876.11
1310.94
1325.38
1327.22
1343.28
1381.68
1445.01
1536.21
1652.9
1782.41
1909.76
2023.95
2113.59
2175.45
2209.94
2218.31
2199.63
2161.41
2111.54
2058
2006.43
1962.47
1949.8
2027.81
1030.24
1038.97
1038.91
1036.4
1037.48
1047.09
1070.99
1110.76
1164.07
1241.57
1323.29
1388.63
1432.12
1454.05
1454.22
1430.2
1390.24
1343.23
1295.98
1252.01
1215.6
1200.13
1273.78
969.928
978.984
981.383
978.507
969.828
956.918
940.642
922.423
907.435
916.071
936.494
953.808
964.56
969.686
966.949
957.755
945.152
932.063
917.968
901.386
883.652
866.053
899.608
3712.85
2961.43
2763.55
2493.63
2271.24
2150.75
2061.74
1988.94
1932.34
1887.91
1855.36
1861.43
1930.18
1986.72
2026.82
2056.17
2087.31
2071.32
1997.77
2987.62
2198.18
2035.69
1799.35
1665.65
1554.66
1454.13
1374.13
1332.46
1310.45
1331.23
1369.89
1404.51
1448.11
1484.28
1511.45
1523.54
1493.78
1439.68
2153.34
1655.56
1505.46
1240.97
1115.4
1032.5
963.508
912.912
884.519
874.843
923.1
982.859
1043.58
1081.59
1101.49
1108.37
1085.13
1031.95
1003.25
1491.85
1397.6
1201.21
987.474
900.866
843.961
807.162
781.495
758.245
745.231
744.843
760.32
825.464
872.79
882.84
876.007
837.08
760.324
713.131
1188.39
1170.85
999.723
895.38
837.082
787.794
754.049
734.208
719.349
705.508
676.285
654.434
649.924
653.65
650.349
647.197
624.88
576.694
556.422
1023.94
935.755
864.872
818.398
774.089
728.386
694.389
671.726
656.225
644.827
627.106
598.228
549.848
509.813
488.453
477.288
468.362
468.867
487.053
898.837
759.178
768.102
747.611
709.756
667.744
634.431
610.567
592.983
578.769
562.026
536.449
496.456
458.258
429.81
409.694
405.851
418.003
437.455
809.385
638.051
681.262
678.301
645.676
607.053
574.593
549.978
530.769
514.136
495.057
471.375
436.478
405.841
384.457
370.381
365.959
373.608
390.847
871.572
879.18
881.682
879.279
873.107
864.715
855.17
845.704
837.164
826.462
815.197
806.779
802.126
799.643
797.768
795.528
791.366
784.014
772.704
756.66
736.21
713.082
688.936
734.838
741.444
743.629
741.191
735.749
728.606
720.841
713.237
706.36
699.655
693.337
688.086
683.862
679.997
676.021
671.696
666.034
657.422
645.104
628.048
605.625
581.8
559.577
595.972
601.625
603.335
601.225
596.934
591.696
586.334
581.554
577.068
572.578
568.277
564.608
561.214
557.374
552.971
548.359
542.154
531.697
518.715
504.041
485.354
470.378
457.285
456.987
461.172
461.833
459.747
456.586
453.443
450.853
449.607
448.637
446.55
444.079
442.517
440.681
436.872
431.335
427.12
422.601
414.548
406.159
400.076
394.255
389.026
383.04
319.933
322.5
320.972
319.038
317.656
317.489
318.671
322.448
325.281
326.221
326.271
327.585
328.238
327.027
325.32
325.382
326.124
326.502
326.755
326.166
326.521
323.445
315.983
182.705
187.539
190.587
198.732
206.22
212.076
218.147
224.464
230.392
234.944
239.145
242.679
245.909
249.276
253.212
256.476
259.471
263.2
265.74
265.53
263.472
259.463
252.551
59.721
76.8716
98.9314
116.307
130.275
142.185
152.597
160.201
167.396
174.085
180.132
184.672
188.987
193.698
197.842
200.449
202.389
204.229
204.955
204.26
202.145
197.977
191.444
17.3673
21.4368
40.6172
56.2067
68.1078
80.9068
92.5183
102.052
109.994
117.453
123.279
127.94
132.068
135.902
139.287
141.909
143.941
145.415
145.832
144.887
142.313
137.849
131.343
10.3899
9.98253
14.7913
17.5695
21.4703
27.8815
35.2541
43.314
51.2248
57.9911
64.2719
69.6903
74.1369
78.0258
81.3818
84.097
86.089
87.236
87.3582
86.2434
83.2634
78.4902
71.9446
5.19328
3.58432
3.43461
3.19489
3.39725
5.50233
8.19398
11.5281
15.2515
18.5495
21.2931
23.8578
26.4204
28.8657
31.1573
33.1218
34.5474
35.1727
34.9588
33.7371
31.2135
26.9537
22.1008
3.4927
3.22586
3.26353
3.21208
3.16564
3.00107
2.82697
2.76507
2.67407
3.25114
4.15561
5.18103
6.29519
7.40396
8.42081
9.30468
9.92824
10.0753
9.89337
9.44186
8.33987
6.56572
5.19947
3.16259
3.14309
3.12956
3.09789
3.06563
3.03403
3.00003
2.96449
2.93496
2.88005
2.81678
2.82487
2.86295
2.898
2.93624
2.98607
3.0473
3.11725
3.1987
3.29409
3.3941
3.49519
3.65296
3.01744
3.01292
2.99398
2.96586
2.92509
2.90334
2.87865
2.86512
2.87354
2.89456
2.92728
2.97241
3.01873
3.06396
3.11281
3.16936
3.23571
3.31302
3.40187
3.50227
3.61381
3.73416
3.8841
2.88182
2.8751
2.85396
2.82633
2.80264
2.7736
2.75391
2.75391
2.76224
2.78034
2.80708
2.8378
2.87672
2.92081
2.97006
3.0265
3.092
3.16804
3.25547
3.35373
3.46208
3.57685
3.70595
2.75076
2.74239
2.72669
2.70623
2.68527
2.66453
2.64992
2.64661
2.655
2.66895
2.68645
2.71542
2.75351
2.79739
2.8474
2.90448
2.9702
3.04604
3.13282
3.22995
3.33611
3.44654
3.57252
2.62691
2.61736
2.60544
2.59155
2.5776
2.56429
2.55518
2.55337
2.55868
2.56917
2.58763
2.61674
2.65365
2.69603
2.74494
2.80135
2.86634
2.94126
3.02675
3.12187
3.22514
3.3311
3.45141
2.50787
2.49783
2.48814
2.47874
2.47001
2.46252
2.45846
2.45972
2.46656
2.47752
2.49464
2.52136
2.55685
2.59794
2.64501
2.69962
2.7628
2.83572
2.91879
3.01081
3.11022
3.21147
3.32611
2.39268
2.3829
2.37472
2.36822
2.36305
2.35952
2.35896
2.36262
2.37072
2.38285
2.39958
2.42327
2.45547
2.49598
2.54196
2.59505
2.65617
2.72663
2.80679
2.89534
2.99063
3.08734
3.19648
2.28044
2.27179
2.26496
2.26039
2.25756
2.25656
2.25824
2.26338
2.27238
2.28525
2.3026
2.32551
2.35503
2.3923
2.43741
2.48879
2.54782
2.61556
2.69244
2.77723
2.86825
2.96044
3.06422
2.17047
2.16354
2.15818
2.15503
2.15371
2.1543
2.15734
2.16341
2.17294
2.18626
2.20389
2.22662
2.25523
2.29046
2.33264
2.38182
2.43841
2.50328
2.57669
2.65745
2.74405
2.83174
2.92993
2.06251
2.05755
2.05372
2.05166
2.05138
2.05293
2.05678
2.06339
2.07321
2.08666
2.10424
2.12657
2.15426
2.18788
2.22786
2.27451
2.32838
2.39017
2.45996
2.53663
2.61875
2.7019
2.79474
1.9565
1.95344
1.95101
1.94985
1.95026
1.95243
1.95674
1.96363
1.97354
1.98691
2.00419
2.02591
2.05259
2.0847
2.12268
2.16695
2.21808
2.27665
2.34274
2.41526
2.49288
2.57161
2.65912
1.85233
1.8509
1.84963
1.84915
1.85005
1.85262
1.85719
1.8642
1.87407
1.88721
1.90407
1.92507
1.95067
1.98129
2.01735
2.05931
2.10769
2.16303
2.22537
2.29374
2.36688
2.44118
2.52357
1.74984
1.7496
1.74919
1.74921
1.75044
1.75327
1.75802
1.76505
1.77479
1.78764
1.80398
1.82421
1.84871
1.87786
1.91206
1.95173
1.99739
2.0495
2.10812
2.17236
2.24104
2.31094
2.38817
1.64865
1.64922
1.64943
1.64983
1.65128
1.65424
1.65905
1.66605
1.67563
1.68814
1.70393
1.72337
1.74677
1.77448
1.80686
1.8443
1.88728
1.93621
1.99115
2.05132
2.11562
2.18115
2.25343
1.54846
1.54951
1.55014
1.55085
1.55244
1.55545
1.56026
1.56718
1.57653
1.58866
1.6039
1.62254
1.64486
1.67116
1.70177
1.73704
1.7774
1.82323
1.87458
1.93077
1.99078
2.05205
2.11949
1.44901
1.45031
1.4512
1.45213
1.45385
1.45689
1.46164
1.46841
1.47751
1.48925
1.50392
1.52175
1.54298
1.5679
1.59679
1.62996
1.66777
1.71058
1.75844
1.81075
1.86658
1.92362
1.98645
1.35014
1.35152
1.35255
1.35364
1.35545
1.35851
1.36319
1.3698
1.37863
1.38994
1.40399
1.421
1.44118
1.46475
1.49195
1.52306
1.55839
1.59826
1.64274
1.69127
1.74299
1.79574
1.85419
1.25178
1.25313
1.25423
1.25541
1.25728
1.26035
1.26495
1.27139
1.27993
1.29081
1.30425
1.32043
1.33952
1.36173
1.38724
1.4163
1.4492
1.48623
1.52741
1.57225
1.61998
1.66865
1.72226
1.15392
1.15519
1.15629
1.15753
1.15945
1.1625
1.16702
1.17327
1.18151
1.19195
1.20475
1.22009
1.23809
1.25892
1.28274
1.30977
1.34026
1.37445
1.41238
1.4536
1.49738
1.54199
1.59078
1.05656
1.05773
1.05882
1.0601
1.06204
1.06507
1.06949
1.07555
1.08348
1.09345
1.10561
1.12007
1.13696
1.1564
1.17852
1.20351
1.23158
1.26295
1.29765
1.33526
1.37513
1.41566
1.45983
0.959722
0.96079
0.961868
0.963177
0.965135
0.968133
0.972451
0.978315
0.98592
0.995408
1.00689
1.02046
1.03621
1.05422
1.07462
1.09754
1.12319
1.15174
1.18322
1.21724
1.25321
1.28967
1.32927
0.863382
0.864363
0.865435
0.866774
0.868753
0.871724
0.875947
0.881619
0.888893
0.897877
0.908655
0.921295
0.935859
0.952416
0.971054
0.991893
1.0151
1.04082
1.06908
1.09953
1.13163
1.16406
1.19921
0.767535
0.768437
0.769501
0.770873
0.77288
0.775844
0.779989
0.785472
0.792404
0.800863
0.810908
0.822583
0.835927
0.850987
0.867828
0.886549
0.907286
0.930179
0.955231
0.982132
1.0104
1.03889
1.06968
0.672184
0.673011
0.674057
0.675457
0.677504
0.680477
0.684555
0.689847
0.696427
0.704343
0.713625
0.724296
0.736376
0.749894
0.764899
0.78147
0.799723
0.81978
0.841642
0.865031
0.889547
0.91416
0.940738
0.577371
0.578106
0.579105
0.580519
0.582607
0.585598
0.589615
0.594718
0.600935
0.60828
0.616761
0.62638
0.637145
0.649073
0.662201
0.676593
0.692349
0.709578
0.72828
0.748221
0.769048
0.789896
0.812362
0.483101
0.483735
0.484664
0.486076
0.488207
0.491227
0.495189
0.50009
0.505913
0.51264
0.52026
0.528765
0.538154
0.548437
0.559645
0.571834
0.585092
0.599514
0.615103
0.631663
0.648921
0.666143
0.684686
0.389468
0.39001
0.390867
0.392271
0.394447
0.39749
0.401368
0.406012
0.411365
0.417389
0.424058
0.431363
0.439299
0.447878
0.457128
0.467099
0.47787
0.489522
0.502067
0.515356
0.529161
0.542926
0.557747
0.296585
0.297175
0.298011
0.299405
0.301612
0.30463
0.308329
0.31259
0.317331
0.322506
0.328093
0.334084
0.34048
0.347294
0.354553
0.362304
0.370613
0.379555
0.389143
0.39926
0.409759
0.420223
0.4315
0.204357
0.205269
0.206306
0.207833
0.210086
0.212966
0.216291
0.219932
0.22382
0.227926
0.23224
0.236762
0.241502
0.246472
0.2517
0.257224
0.2631
0.269388
0.276102
0.283169
0.290476
0.297754
0.305617
0.112469
0.11349
0.115735
0.117919
0.120199
0.122676
0.12527
0.127924
0.130626
0.133376
0.136186
0.139064
0.142023
0.145077
0.148246
0.151557
0.155052
0.158773
0.162733
0.166886
0.171177
0.175471
0.180123
0.0325166
0.0288408
0.0336283
0.0357306
0.0371216
0.0383435
0.0394746
0.0405459
0.0415833
0.042604
0.0436205
0.0446421
0.0456762
0.0467296
0.0478104
0.0489301
0.050105
0.0513521
0.052678
0.05407
0.0555052
0.0569764
0.0586184
638.524
643.976
653.648
657.61
553.703
559.642
567.275
562.336
455.807
457.716
458.801
445.033
376.225
371.982
365.084
348.503
308.164
302.19
294.068
281.052
244.857
238.673
231.479
222.218
183.83
178.01
171.836
164.716
124.404
119.212
113.909
108.105
65.2405
60.9563
57.3958
53.5432
18.0377
16.875
17.854
18.2036
4.98967
5.14165
5.22865
4.96404
3.95646
4.27385
4.65952
4.95941
4.11068
4.31725
4.53825
4.70941
3.9015
4.10733
4.33747
4.52141
3.77443
3.97878
4.20317
4.3803
3.64563
3.84198
4.05772
4.22859
3.51129
3.69944
3.90694
4.07144
3.37301
3.55275
3.75136
3.90944
3.23159
3.40234
3.59187
3.74321
3.08789
3.24928
3.42898
3.57347
2.94307
3.09478
3.2646
3.4018
2.79809
2.94012
3.09948
3.22916
2.65316
2.78548
2.93461
3.05661
2.50859
2.63137
2.77015
2.88461
2.36491
2.47841
2.60732
2.71422
2.22255
2.32725
2.44635
2.54579
2.08143
2.17772
2.28761
2.37969
1.94148
2.0298
2.1307
2.21567
1.80224
1.88319
1.97597
2.05421
1.66382
1.73783
1.82266
1.89435
1.52607
1.59331
1.67054
1.73577
1.38886
1.4495
1.5192
1.57817
1.25226
1.30643
1.36888
1.42169
1.11641
1.16426
1.21946
1.26621
0.981244
1.02288
1.07107
1.11186
0.846798
0.882348
0.923549
0.958562
0.71323
0.742816
0.777275
0.806609
0.580681
0.604517
0.632294
0.65608
0.449058
0.467333
0.488723
0.507125
0.318037
0.330964
0.34616
0.359448
0.187187
0.194886
0.204192
0.212794
0.0607854
0.063273
0.0663426
0.0695137
693.776
586.809
581.048
576.007
548.502
513.996
484.356
461.47
442.462
424.635
405.336
383.713
360.448
342.235
329.932
321.092
316.629
317.787
325.599
548.031
462.931
460.77
453.577
429.041
403.858
383.948
366.772
350.494
334.138
317.25
300.396
284.863
272.81
263.711
255.622
249.39
245.965
248.137
404.444
356.66
355.369
349.637
335.357
323.702
311.773
297.769
282.613
266.84
250.477
234.68
220.306
208.669
199.158
190.784
183.599
177.84
178.319
305.21
273.109
272.338
271.607
267.223
259.154
247.14
232.702
217.219
201.179
185.16
167.864
152.997
142.025
132.784
124.517
118.037
112.444
110.925
254.062
228.125
218.138
214.713
208.241
197.611
184.281
169.048
152.581
134.02
112.249
89.0827
74.7036
67.8091
62.6112
57.68
53.3879
50.2154
47.5933
204.576
184.349
171.043
161.39
150.552
137.954
123.222
105.104
82.2168
56.2225
37.4893
22.5539
17.7653
16.9174
16.6333
16.2198
14.6513
13.3153
12.9908
151.896
134.421
120.081
108.214
94.9314
80.4662
60.9679
39.9572
24.1106
9.75806
7.44194
7.26525
7.3215
7.56433
7.82116
7.76191
7.51857
7.09076
7.04828
97.7479
82.4549
69.014
57.3988
41.4052
29.8118
18.3171
6.88726
6.63502
6.76902
6.68779
6.68871
6.78656
6.92824
6.93754
6.86666
6.79675
6.77505
6.81932
45.8814
33.6469
25.3952
21.5096
11.5001
5.99542
6.20448
6.29871
6.29425
6.35575
6.45118
6.5286
6.60668
6.67513
6.64296
6.58764
6.58248
6.59662
6.61405
15.3843
9.49754
5.96989
5.33286
5.87919
5.93207
5.94146
6.05395
6.13975
6.21615
6.29176
6.3441
6.36954
6.36978
6.36276
6.377
6.40172
6.41534
6.41418
4.72004
4.9392
5.41804
5.5435
5.61265
5.70736
5.77802
5.87845
5.96268
6.03355
6.1001
6.14004
6.14442
6.13358
6.16885
6.20182
6.2202
6.228
6.22548
5.09343
5.12397
5.23013
5.33715
5.43377
5.52991
5.61541
5.69384
5.75787
5.82599
5.89052
5.94286
5.96171
5.97268
5.99618
6.01778
6.03116
6.03515
6.03114
4.86173
4.94569
5.055
5.16777
5.27158
5.36944
5.45113
5.52055
5.57836
5.63929
5.70319
5.75429
5.78177
5.79849
5.81662
5.8321
5.84102
5.8413
5.83613
4.69571
4.79536
4.90237
5.0107
5.11135
5.20249
5.28128
5.34999
5.41052
5.46829
5.52324
5.56783
5.59759
5.61695
5.63295
5.64459
5.64951
5.6472
5.6415
4.54857
4.64699
4.74718
4.84848
4.94347
5.03073
5.10813
5.17633
5.23651
5.29139
5.34086
5.38143
5.41067
5.43073
5.44522
5.45402
5.4564
5.45266
5.44696
4.39188
4.4881
4.58376
4.68038
4.77147
4.85553
4.93107
4.99812
5.0572
5.1097
5.15551
5.19293
5.22085
5.24051
5.25375
5.26088
5.2619
5.25759
5.25223
4.22868
4.32215
4.41429
4.5073
4.59517
4.6763
4.74961
4.81494
4.87257
4.92302
4.9662
5.00135
5.02807
5.0471
5.0595
5.06573
5.06614
5.06186
5.05718
4.06081
4.15104
4.23984
4.32953
4.41435
4.49272
4.56372
4.62715
4.68311
4.73179
4.77311
4.80672
4.83255
4.85108
4.86301
4.86885
4.86919
4.86542
4.86162
3.88863
3.97565
4.06112
4.14756
4.22943
4.30516
4.37392
4.43548
4.48981
4.53697
4.5769
4.60945
4.63466
4.65289
4.66466
4.67052
4.67118
4.66819
4.66535
3.71317
3.79689
3.87908
3.96229
4.04125
4.11442
4.18102
4.24075
4.29356
4.33941
4.37826
4.41006
4.43487
4.45299
4.46484
4.47098
4.47223
4.47021
4.46828
3.53534
3.61588
3.69478
3.77475
3.8508
3.92145
3.98591
4.04386
4.09521
4.1399
4.17786
4.20909
4.23365
4.2518
4.26389
4.27051
4.27247
4.27144
4.27052
3.3565
3.43372
3.50932
3.58601
3.65911
3.7272
3.7895
3.84567
3.89559
3.93915
3.97632
4.00706
4.03146
4.04971
4.06216
4.06932
4.07204
4.07181
4.07227
3.17744
3.25143
3.32367
3.39702
3.46709
3.53255
3.59261
3.64694
3.69538
3.73782
3.77418
3.80446
3.82871
3.8471
3.85992
3.86769
3.8712
3.8719
3.87307
2.99917
3.06983
3.13868
3.20858
3.27551
3.33822
3.39594
3.44832
3.49519
3.53642
3.57193
3.6017
3.62575
3.64425
3.65743
3.66573
3.66995
3.67151
3.67316
2.82218
2.88955
2.95495
3.02129
3.08495
3.14477
3.20001
3.25031
3.29548
3.33539
3.36994
3.3991
3.42287
3.44134
3.45475
3.46348
3.4683
3.47058
3.47276
2.64717
2.71099
2.77286
2.83556
2.89581
2.95259
3.00519
3.05325
3.09658
3.13503
3.16847
3.19684
3.22014
3.23842
3.2519
3.26095
3.26635
3.26935
3.27199
2.4742
2.53447
2.59261
2.65157
2.70831
2.76191
2.81173
2.85739
2.89868
2.93545
2.96758
2.99496
3.01758
3.03553
3.04899
3.05834
3.06426
3.06793
3.07104
2.30338
2.36022
2.41429
2.46937
2.52249
2.57275
2.6196
2.66267
2.70173
2.73662
2.76723
2.79346
2.81532
2.83284
2.84622
2.85576
2.86215
2.86645
2.86997
2.13514
2.18734
2.23756
2.28871
2.33812
2.38495
2.42866
2.46897
2.50566
2.53856
2.56755
2.59256
2.61354
2.63055
2.64374
2.65341
2.66013
2.66487
2.66869
1.96854
2.01611
2.06229
2.1094
2.15501
2.19834
2.23887
2.27636
2.31059
2.34142
2.36872
2.3924
2.41243
2.42883
2.44174
2.45139
2.45833
2.46336
2.46724
1.80319
1.84634
1.88841
1.93145
1.97322
2.01301
2.05032
2.08493
2.11665
2.14534
2.17087
2.19315
2.21213
2.22783
2.24035
2.2499
2.25693
2.26205
2.26587
1.63911
1.67792
1.71592
1.75489
1.7928
1.82902
1.86308
1.89478
1.92394
1.95043
1.97413
1.99493
2.01279
2.0277
2.03974
2.04906
2.05605
2.06117
2.06478
1.47617
1.51082
1.5448
1.57974
1.61381
1.64644
1.67724
1.70599
1.73256
1.7568
1.7786
1.79786
1.81452
1.82856
1.84002
1.84904
1.85587
1.86084
1.86418
1.31447
1.34504
1.37509
1.40604
1.43629
1.46534
1.49285
1.51864
1.54257
1.56452
1.58438
1.60204
1.61742
1.63051
1.6413
1.64988
1.65647
1.66123
1.66421
1.15395
1.18062
1.20683
1.23385
1.26031
1.28579
1.31001
1.33281
1.35407
1.37367
1.39152
1.4075
1.42154
1.43358
1.4436
1.45168
1.45791
1.46236
1.46499
0.994778
1.01766
1.04013
1.06328
1.08597
1.10787
1.12878
1.14855
1.16709
1.1843
1.20007
1.2143
1.22689
1.23779
1.24695
1.25438
1.26017
1.26431
1.26657
0.83703
0.856295
0.875111
0.894431
0.913346
0.931649
0.949203
0.965911
0.981685
0.99643
1.01004
1.02242
1.03347
1.0431
1.05127
1.05798
1.06325
1.067
1.06899
0.680931
0.69667
0.711918
0.727438
0.742542
0.757157
0.771308
0.7849
0.797847
0.810052
0.821411
0.831825
0.841197
0.849444
0.856509
0.862362
0.867045
0.870471
0.872249
0.526508
0.538888
0.550671
0.56241
0.573604
0.584345
0.595021
0.605456
0.615521
0.625103
0.634101
0.642423
0.649985
0.656712
0.662547
0.667487
0.671543
0.674634
0.676385
0.373753
0.382948
0.391375
0.399358
0.406472
0.412857
0.420097
0.427423
0.434593
0.441486
0.448014
0.45411
0.45972
0.464795
0.469309
0.473258
0.476693
0.479598
0.481461
0.222914
0.229237
0.234423
0.238795
0.241412
0.241956
0.246231
0.250696
0.255026
0.259189
0.263153
0.266897
0.270412
0.273698
0.276775
0.279707
0.282591
0.285437
0.28767
0.0738904
0.0764251
0.0781116
0.078853
0.0780201
0.0774997
0.0798177
0.0817074
0.0833524
0.0848726
0.0862926
0.0876208
0.088863
0.0900287
0.0911403
0.0922394
0.0933966
0.0946443
0.0957642
)
;

boundaryField
{
    leftWall
    {
        type            calculated;
        value           nonuniform List<scalar> 
50
(
5194.69
4392
3587.55
2779.15
1968.22
1310.94
1030.24
969.928
871.572
734.838
595.972
456.987
319.933
182.705
59.721
17.3673
10.3899
5.19328
3.4927
3.16259
3.01744
2.88182
2.75076
2.62691
2.50787
2.39268
2.28044
2.17047
2.06251
1.9565
1.85233
1.74984
1.64865
1.54846
1.44901
1.35014
1.25178
1.15392
1.05656
0.959722
0.863382
0.767535
0.672184
0.577371
0.483101
0.389468
0.296585
0.204357
0.112469
0.0325166
)
;
    }
    rightWall
    {
        type            calculated;
        value           nonuniform List<scalar> 
50
(
1997.77
1439.68
1003.25
713.131
556.422
487.053
437.455
390.847
325.599
248.137
178.319
110.925
47.5933
12.9908
7.04828
6.81932
6.61405
6.41418
6.22548
6.03114
5.83613
5.6415
5.44696
5.25223
5.05718
4.86162
4.66535
4.46828
4.27052
4.07227
3.87307
3.67316
3.47276
3.27199
3.07104
2.86997
2.66869
2.46724
2.26587
2.06478
1.86418
1.66421
1.46499
1.26657
1.06899
0.872249
0.676385
0.481461
0.28767
0.0957642
)
;
    }
    lowerWall
    {
        type            calculated;
        value           nonuniform List<scalar> 
62
(
5592.83
5621.88
5672.19
5746.78
5840.16
5947.84
6063.39
6179.33
6287.66
6380.11
6450.99
6498.28
6522.6
6525.57
6511.92
6485.69
6453.13
6421.19
6396.74
6385.94
6392.83
6418.98
6467.8
6069.87
5283.74
4493.18
3693.3
2876.11
2027.81
1273.78
899.608
716.628
718.299
687.763
731.499
3712.85
2987.62
2153.34
1491.85
1188.39
1023.94
898.837
809.385
4063.67
3311.96
3114
2822.99
2496.07
2367.87
2284.65
2224.51
2171.65
2123.4
2086.02
2102.25
2209.16
2266.33
2307.82
2336.82
2367.56
2351.04
2277.71
)
;
    }
    atmosphere
    {
        type            calculated;
        value           nonuniform List<scalar> 
46
(
-0.0005029
-0.000748899
-0.000535383
-0.000435986
-0.000378452
-0.000342079
-0.000317527
-0.000299754
-0.00028604
-0.000275027
-0.000266005
-0.000258409
-0.000251537
-0.000244596
-0.000236948
-0.000228372
-0.000219127
-0.00020979
-0.000200724
-0.000191557
-0.000181115
-0.000169254
-0.000151831
-0.000104504
-9.55105e-05
-9.10466e-05
-8.8959e-05
-8.152e-05
-6.67574e-05
-5.21314e-05
-3.68855e-05
-2.87981e-05
-1.77141e-05
-5.98165e-06
-8.3224e-09
0
0
0
0
0
0
0
0
0
0
0
)
;
    }
    defaultFaces
    {
        type            empty;
    }
}


// ************************************************************************* //
