/*--------------------------------*- C++ -*----------------------------------*\
  =========                 |
  \\      /  F ield         | OpenFOAM: The Open Source CFD Toolbox
   \\    /   O peration     | Website:  https://openfoam.org
    \\  /    A nd           | Version:  13
     \\/     M anipulation  |
\*---------------------------------------------------------------------------*/
FoamFile
{
    format      ascii;
    class       surfaceScalarField;
    location    "1.35";
    object      phi;
}
// * * * * * * * * * * * * * * * * * * * * * * * * * * * * * * * * * * * * * //

dimensions      [0 3 -1 0 0 0 0];

internalField   nonuniform List<scalar> 
4432
(
-4.9489e-07
4.94888e-07
9.60546e-08
-5.90946e-07
1.56489e-06
-1.46883e-06
3.46636e-06
-1.90148e-06
5.59438e-06
-2.12801e-06
7.81988e-06
-2.2255e-06
1.00561e-05
-2.23624e-06
1.22193e-05
-2.16316e-06
1.42058e-05
-1.98653e-06
1.58833e-05
-1.67749e-06
1.71334e-05
-1.25006e-06
1.78853e-05
-7.51932e-07
1.80987e-05
-2.13367e-07
1.77847e-05
3.13991e-07
1.69453e-05
8.394e-07
1.56063e-05
1.33895e-06
1.38084e-05
1.79795e-06
1.15889e-05
2.21947e-06
8.98081e-06
2.6081e-06
6.04189e-06
2.93892e-06
3.01879e-06
3.0231e-06
7.86183e-07
2.23261e-06
7.86186e-07
2.82447e-07
2.12414e-07
1.42193e-06
-1.73045e-06
2.80755e-06
-2.85445e-06
4.43117e-06
-3.5251e-06
6.25222e-06
-3.94907e-06
8.21188e-06
-4.18516e-06
1.02437e-05
-4.26806e-06
1.22756e-05
-4.19512e-06
1.42164e-05
-3.9273e-06
1.59369e-05
-3.39794e-06
1.73066e-05
-2.61981e-06
1.82266e-05
-1.67196e-06
1.86452e-05
-6.31973e-07
1.8521e-05
4.3822e-07
1.78482e-05
1.51215e-06
1.66383e-05
2.54889e-06
1.49285e-05
3.50771e-06
1.27684e-05
4.37963e-06
1.02164e-05
5.16005e-06
7.36317e-06
5.79218e-06
4.39829e-06
5.98799e-06
1.65326e-06
4.97765e-06
2.43944e-06
1.09708e-06
-8.84671e-07
2.39451e-06
-3.02788e-06
3.6759e-06
-4.13584e-06
5.09816e-06
-4.94737e-06
6.69752e-06
-5.54843e-06
8.4472e-06
-5.93485e-06
1.02972e-05
-6.11806e-06
1.21892e-05
-6.08711e-06
1.40469e-05
-5.78505e-06
1.57488e-05
-5.09985e-06
1.71624e-05
-4.03333e-06
1.81797e-05
-2.68929e-06
1.87288e-05
-1.18111e-06
1.87568e-05
4.10237e-07
1.82362e-05
2.03278e-06
1.71652e-05
3.61984e-06
1.55788e-05
5.09417e-06
1.35355e-05
6.42291e-06
1.11112e-05
7.58443e-06
8.40373e-06
8.49961e-06
5.54288e-06
8.84886e-06
2.5977e-06
7.92283e-06
5.03716e-06
1.85167e-06
-2.73634e-06
3.22048e-06
-4.39669e-06
4.41696e-06
-5.33231e-06
5.6948e-06
-6.22521e-06
7.12837e-06
-6.98201e-06
8.70689e-06
-7.51337e-06
1.03912e-05
-7.80238e-06
1.2138e-05
-7.8339e-06
1.38975e-05
-7.54455e-06
1.55544e-05
-6.75684e-06
1.69756e-05
-5.45455e-06
1.80497e-05
-3.76338e-06
1.86959e-05
-1.8273e-06
1.8851e-05
2.5515e-07
1.84703e-05
2.41346e-06
1.75375e-05
4.55265e-06
1.6084e-05
6.54772e-06
1.41747e-05
8.33217e-06
1.18958e-05
9.86335e-06
9.34268e-06
1.10528e-05
6.58913e-06
1.16024e-05
3.50825e-06
1.10037e-05
8.54543e-06
2.4998e-06
-5.23613e-06
3.9086e-06
-5.80547e-06
5.07316e-06
-6.49685e-06
6.27468e-06
-7.42671e-06
7.59732e-06
-8.30463e-06
9.04007e-06
-8.95612e-06
1.05784e-05
-9.34065e-06
1.21845e-05
-9.44007e-06
1.38255e-05
-9.18553e-06
1.54055e-05
-8.33686e-06
1.67961e-05
-6.84509e-06
1.78868e-05
-4.85417e-06
1.85963e-05
-2.53675e-06
1.88546e-05
-3.16877e-09
1.86025e-05
2.66558e-06
1.78061e-05
5.34904e-06
1.649e-05
7.86382e-06
1.4721e-05
1.01012e-05
1.25902e-05
1.19941e-05
1.01857e-05
1.34573e-05
7.53789e-06
1.42503e-05
4.3716e-06
1.417e-05
1.2917e-05
3.02037e-06
-8.25643e-06
4.48911e-06
-7.27416e-06
5.75915e-06
-7.76684e-06
6.96759e-06
-8.6351e-06
8.22242e-06
-9.5594e-06
9.54309e-06
-1.02767e-05
1.09168e-05
-1.07143e-05
1.23524e-05
-1.08756e-05
1.38525e-05
-1.06855e-05
1.53261e-05
-9.81043e-06
1.66443e-05
-8.1633e-06
1.77049e-05
-5.91476e-06
1.84331e-05
-3.26493e-06
1.87588e-05
-3.28897e-07
1.86136e-05
2.81077e-06
1.79439e-05
6.01876e-06
1.6764e-05
9.04373e-06
1.51367e-05
1.17284e-05
1.31561e-05
1.39747e-05
1.08981e-05
1.57153e-05
8.34639e-06
1.68019e-05
5.17165e-06
1.73447e-05
1.80887e-05
3.14354e-06
-1.13999e-05
5.05673e-06
-9.18726e-06
6.6445e-06
-9.35453e-06
7.92004e-06
-9.91058e-06
9.1172e-06
-1.07565e-05
1.03185e-05
-1.1478e-05
1.15704e-05
-1.19661e-05
1.28419e-05
-1.2147e-05
1.40922e-05
-1.19358e-05
1.53533e-05
-1.10714e-05
1.65247e-05
-9.3347e-06
1.74876e-05
-6.87763e-06
1.81711e-05
-3.94842e-06
1.85169e-05
-6.74632e-07
1.84591e-05
2.86857e-06
1.79288e-05
6.54899e-06
1.69186e-05
1.00539e-05
1.54783e-05
1.31687e-05
1.36969e-05
1.5756e-05
1.16275e-05
1.77846e-05
9.21069e-06
1.92187e-05
5.935e-06
2.06204e-05
2.40236e-05
3.61441e-06
-1.50142e-05
6.77138e-06
-1.23442e-05
9.16327e-06
-1.17464e-05
1.08392e-05
-1.15865e-05
1.18748e-05
-1.17921e-05
1.25575e-05
-1.21607e-05
1.31288e-05
-1.25374e-05
1.37596e-05
-1.27777e-05
1.4552e-05
-1.27282e-05
1.55823e-05
-1.21016e-05
1.65338e-05
-1.02862e-05
1.73233e-05
-7.66704e-06
1.79114e-05
-4.53657e-06
1.8258e-05
-1.02117e-06
1.82851e-05
2.84139e-06
1.7918e-05
6.91611e-06
1.71243e-05
1.08475e-05
1.59775e-05
1.43154e-05
1.4594e-05
1.71395e-05
1.2989e-05
1.93895e-05
1.09702e-05
2.12375e-05
8.27347e-06
2.3317e-05
3.22971e-05
-2.06383e-05
2.06383e-05
-2.42612e-05
3.62292e-06
-2.03655e-05
-3.89573e-06
-1.80686e-05
-2.29689e-06
-1.80045e-05
-6.40152e-08
-1.74479e-05
-5.56653e-07
-1.59647e-05
-1.48324e-06
-1.40774e-05
-1.88729e-06
-1.19979e-05
-2.07942e-06
-9.9492e-06
-2.04872e-06
-8.92078e-06
-1.02842e-06
-9.60741e-06
6.86635e-07
-9.1579e-06
-4.49501e-07
-8.32192e-06
-8.35979e-07
-8.24383e-06
-7.80904e-08
-8.85114e-06
6.0731e-07
-7.36506e-06
-1.48608e-06
-4.008e-06
-3.35706e-06
-4.00799e-06
-1.77782e-05
3.84165e-05
-1.96131e-05
5.45777e-06
-1.76194e-05
-5.88946e-06
-1.78884e-05
-2.02784e-06
-1.78245e-05
-1.27903e-07
-1.69096e-05
-1.47155e-06
-1.54804e-05
-2.9124e-06
-1.39652e-05
-3.40248e-06
-1.23987e-05
-3.64595e-06
-1.12328e-05
-3.21453e-06
-1.03405e-05
-1.92077e-06
-9.50377e-06
-1.5008e-07
-8.74735e-06
-1.20592e-06
-7.70655e-06
-1.87678e-06
-6.99642e-06
-7.88219e-07
-6.21917e-06
-1.69942e-07
-4.33441e-06
-3.37084e-06
-2.13631e-06
-5.55516e-06
-6.1443e-06
-1.45347e-05
5.29512e-05
-1.35212e-05
4.44426e-06
-1.31264e-05
-6.2843e-06
-1.52258e-05
7.16392e-08
-1.57311e-05
3.77399e-07
-1.50181e-05
-2.1846e-06
-1.37953e-05
-4.13512e-06
-1.2569e-05
-4.62882e-06
-1.14461e-05
-4.76886e-06
-1.08826e-05
-3.77798e-06
-1.01242e-05
-2.67914e-06
-9.22403e-06
-1.05027e-06
-7.85071e-06
-2.57924e-06
-6.47571e-06
-3.25176e-06
-5.28306e-06
-1.98087e-06
-3.60077e-06
-1.85222e-06
-1.49599e-06
-5.47562e-06
-2.25503e-07
-6.82564e-06
-6.36979e-06
-1.26243e-05
6.55754e-05
-6.37694e-06
-1.80307e-06
-6.80802e-06
-5.85319e-06
-1.02729e-05
3.53653e-06
-1.13434e-05
1.44798e-06
-1.09627e-05
-2.56533e-06
-9.81858e-06
-5.27922e-06
-8.65e-06
-5.79739e-06
-8.16334e-06
-5.25551e-06
-8.1181e-06
-3.82322e-06
-7.98175e-06
-2.81549e-06
-7.52875e-06
-1.50326e-06
-6.06297e-06
-4.04502e-06
-4.57843e-06
-4.73631e-06
-3.2542e-06
-3.30509e-06
-1.28991e-06
-3.81651e-06
1.03629e-06
-7.80183e-06
2.16812e-06
-7.95746e-06
-4.20169e-06
-6.88661e-06
7.24618e-05
-1.8573e-06
-6.83236e-06
-1.61391e-06
-6.09656e-06
-2.95937e-06
4.88199e-06
-4.03858e-06
2.52717e-06
-4.11015e-06
-2.49376e-06
-3.39605e-06
-5.99333e-06
-2.23144e-06
-6.96201e-06
-1.50776e-06
-5.9792e-06
-1.7983e-06
-3.53269e-06
-3.25473e-06
-1.35906e-06
-3.90698e-06
-8.51003e-07
-3.58598e-06
-4.36601e-06
-2.86729e-06
-5.45499e-06
-1.84217e-06
-4.3302e-06
-2.00137e-07
-5.45853e-06
1.55629e-06
-9.55824e-06
2.53218e-06
-8.93334e-06
-1.66948e-06
-9.79906e-07
7.34418e-05
1.99271e-06
-9.80495e-06
1.58406e-06
-5.68791e-06
1.37847e-06
5.08758e-06
1.01079e-06
2.89485e-06
8.77024e-07
-2.36e-06
1.13177e-06
-6.24809e-06
1.78574e-06
-7.61599e-06
2.49774e-06
-6.69122e-06
2.96895e-06
-4.00391e-06
2.71368e-06
-1.10378e-06
1.7183e-06
1.44379e-07
2.28694e-07
-2.8764e-06
-4.14203e-07
-4.81209e-06
-4.7587e-08
-4.69681e-06
8.56398e-07
-6.36251e-06
1.00953e-06
-9.71136e-06
-9.62178e-07
-6.96163e-06
-2.6317e-06
5.37924e-06
6.80627e-05
5.45737e-06
-9.88306e-06
4.40555e-06
-4.63609e-06
4.68667e-06
4.80645e-06
4.97406e-06
2.60747e-06
4.94316e-06
-2.32911e-06
4.96316e-06
-6.26809e-06
5.26864e-06
-7.92148e-06
5.75811e-06
-7.1807e-06
6.28997e-06
-4.53579e-06
6.64159e-06
-1.45539e-06
6.59472e-06
1.9125e-07
5.58498e-06
-1.86666e-06
4.27169e-06
-3.4988e-06
3.34206e-06
-3.76718e-06
2.56339e-06
-5.58383e-06
8.90449e-07
-8.0384e-06
-1.66315e-06
-4.40805e-06
-4.29484e-06
1.07866e-05
5.72761e-05
8.2605e-06
-7.35698e-06
6.95619e-06
-3.33179e-06
7.70099e-06
4.06164e-06
8.36122e-06
1.94725e-06
8.42871e-06
-2.3966e-06
8.32062e-06
-6.16e-06
8.38119e-06
-7.98204e-06
8.65253e-06
-7.45204e-06
9.09049e-06
-4.97375e-06
9.52099e-06
-1.88589e-06
9.73056e-06
-1.8318e-08
9.00214e-06
-1.13825e-06
7.72241e-06
-2.21908e-06
6.43179e-06
-2.47656e-06
4.92332e-06
-4.07536e-06
2.39076e-06
-5.50585e-06
-6.40473e-08
-1.95324e-06
-4.35891e-06
9.14878e-06
-2.4163e-05
1.76939e-05
-2.08894e-05
2.44426e-05
-1.84951e-05
2.94838e-05
-1.66278e-05
3.29655e-05
-1.52739e-05
3.5211e-05
-1.44063e-05
3.65592e-05
-1.38857e-05
3.72776e-05
-1.34962e-05
3.74649e-05
-1.29154e-05
3.72972e-05
-1.19339e-05
3.73865e-05
-1.03754e-05
3.78875e-05
-8.16801e-06
3.86523e-05
-5.30132e-06
3.95202e-05
-1.88915e-06
4.04509e-05
1.91075e-06
4.14555e-05
5.91147e-06
4.23746e-05
9.92836e-06
4.29721e-05
1.37179e-05
4.31402e-05
1.69714e-05
4.2814e-05
1.97157e-05
4.19943e-05
2.20572e-05
4.10462e-05
2.42652e-05
2.27054e-05
5.06378e-05
9.60463e-06
-3.37675e-05
1.82793e-05
-2.9564e-05
2.53646e-05
-2.55804e-05
3.08678e-05
-2.21309e-05
3.48979e-05
-1.9304e-05
3.76261e-05
-1.71345e-05
3.93115e-05
-1.55712e-05
4.02732e-05
-1.44579e-05
4.08449e-05
-1.34871e-05
4.11976e-05
-1.22867e-05
4.15627e-05
-1.07406e-05
4.21454e-05
-8.75082e-06
4.30033e-05
-6.15921e-06
4.40503e-05
-2.93612e-06
4.52477e-05
7.134e-07
4.66783e-05
4.48091e-06
4.82731e-05
8.33361e-06
4.97525e-05
1.22386e-05
5.10165e-05
1.57075e-05
5.17124e-05
1.90199e-05
5.16016e-05
2.21681e-05
5.02694e-05
2.55975e-05
2.65828e-05
4.63921e-05
8.5554e-06
-4.2323e-05
1.62186e-05
-3.72272e-05
2.25086e-05
-3.18704e-05
2.7526e-05
-2.71484e-05
3.13546e-05
-2.31326e-05
3.41119e-05
-1.98918e-05
3.60086e-05
-1.74679e-05
3.74146e-05
-1.58639e-05
3.85397e-05
-1.46123e-05
3.9493e-05
-1.324e-05
4.03844e-05
-1.1632e-05
4.14279e-05
-9.79428e-06
4.27029e-05
-7.43422e-06
4.40977e-05
-4.33088e-06
4.55445e-05
-7.33366e-07
4.72214e-05
2.80406e-06
4.91162e-05
6.43885e-06
5.07094e-05
1.06454e-05
5.19826e-05
1.44343e-05
5.3032e-05
1.79705e-05
5.28171e-05
2.2383e-05
5.1764e-05
2.66506e-05
3.05184e-05
4.78283e-05
6.24852e-06
-4.85715e-05
1.20553e-05
-4.30339e-05
1.69514e-05
-3.67665e-05
2.10442e-05
-3.12412e-05
2.43682e-05
-2.64566e-05
2.69715e-05
-2.24951e-05
2.89657e-05
-1.94621e-05
3.07252e-05
-1.76234e-05
3.24434e-05
-1.63305e-05
3.39952e-05
-1.47918e-05
3.53828e-05
-1.30197e-05
3.69012e-05
-1.13126e-05
3.86359e-05
-9.16895e-06
4.03884e-05
-6.08337e-06
4.19004e-05
-2.24535e-06
4.35274e-05
1.17707e-06
4.53582e-05
4.60805e-06
4.68654e-05
9.13815e-06
4.79403e-05
1.33594e-05
4.89182e-05
1.69926e-05
4.96087e-05
2.16926e-05
5.05118e-05
2.57473e-05
2.93752e-05
5.1655e-05
2.41661e-06
-5.09881e-05
5.72797e-06
-4.63453e-05
8.85115e-06
-3.98897e-05
1.19031e-05
-3.42932e-05
1.48223e-05
-2.93758e-05
1.74718e-05
-2.51446e-05
1.96656e-05
-2.16558e-05
2.19166e-05
-1.98744e-05
2.41203e-05
-1.85343e-05
2.61817e-05
-1.68531e-05
2.79809e-05
-1.48189e-05
2.9832e-05
-1.31637e-05
3.17019e-05
-1.10388e-05
3.34585e-05
-7.83994e-06
3.50338e-05
-3.82068e-06
3.66228e-05
-4.11929e-07
3.82166e-05
3.01429e-06
3.99237e-05
7.43103e-06
4.16571e-05
1.1626e-05
4.33132e-05
1.53364e-05
4.5883e-05
1.91227e-05
4.89997e-05
2.26307e-05
2.5373e-05
5.30019e-05
-3.44652e-06
-4.75414e-05
-3.99333e-06
-4.57984e-05
-2.93256e-06
-4.09505e-05
-4.83453e-07
-3.67423e-05
2.35459e-06
-3.22138e-05
5.30037e-06
-2.80903e-05
8.21006e-06
-2.45655e-05
1.09981e-05
-2.26624e-05
1.36307e-05
-2.11668e-05
1.60016e-05
-1.9224e-05
1.83028e-05
-1.71201e-05
2.04156e-05
-1.52766e-05
2.22826e-05
-1.29058e-05
2.40844e-05
-9.64176e-06
2.62083e-05
-5.9446e-06
2.83337e-05
-2.53734e-06
3.03511e-05
9.9691e-07
3.28633e-05
4.91882e-06
3.57973e-05
8.69202e-06
3.89279e-05
1.22059e-05
4.25676e-05
1.54831e-05
4.69502e-05
1.82481e-05
2.01583e-05
5.21649e-05
-1.34575e-05
-3.40834e-05
-1.91999e-05
-4.00559e-05
-1.8725e-05
-4.14254e-05
-1.61962e-05
-3.92711e-05
-1.31968e-05
-3.52133e-05
-9.85238e-06
-3.14347e-05
-6.0899e-06
-2.8328e-05
-2.61153e-06
-2.61408e-05
6.82212e-07
-2.44606e-05
3.77565e-06
-2.23175e-05
6.93147e-06
-2.02759e-05
9.73774e-06
-1.80829e-05
1.23153e-05
-1.54834e-05
1.50265e-05
-1.2353e-05
1.80117e-05
-8.92981e-06
2.10213e-05
-5.54695e-06
2.40924e-05
-2.07422e-06
2.74696e-05
1.54157e-06
3.11499e-05
5.01173e-06
3.51651e-05
8.19081e-06
3.96331e-05
1.1015e-05
4.46384e-05
1.32428e-05
1.44668e-05
5.03299e-05
-3.65694e-05
2.48574e-06
-3.66821e-05
-3.99434e-05
-3.05467e-05
-4.75605e-05
-2.70093e-05
-4.28082e-05
-2.39416e-05
-3.8281e-05
-2.04868e-05
-3.48895e-05
-1.6736e-05
-3.20787e-05
-1.29008e-05
-2.9976e-05
-9.23525e-06
-2.81261e-05
-5.49978e-06
-2.6053e-05
-1.9191e-06
-2.38566e-05
1.49093e-06
-2.14929e-05
4.79768e-06
-1.87902e-05
8.1676e-06
-1.57229e-05
1.16922e-05
-1.24544e-05
1.53082e-05
-9.16302e-06
1.90707e-05
-5.8367e-06
2.30997e-05
-2.48747e-06
2.74014e-05
7.10057e-07
3.20147e-05
3.57752e-06
3.69936e-05
6.0361e-06
4.23645e-05
7.87191e-06
8.70255e-06
4.81288e-05
-3.80977e-05
4.05827e-05
-3.58694e-05
-4.21712e-05
-3.30326e-05
-5.03974e-05
-3.14148e-05
-4.44259e-05
-2.91362e-05
-4.0559e-05
-2.60064e-05
-3.80188e-05
-2.25772e-05
-3.55076e-05
-1.89671e-05
-3.35858e-05
-1.52075e-05
-3.18856e-05
-1.14922e-05
-2.97682e-05
-7.84708e-06
-2.75017e-05
-4.2551e-06
-2.50849e-05
-6.51571e-07
-2.23937e-05
3.06249e-06
-1.9437e-05
6.92692e-06
-1.63189e-05
1.09482e-05
-1.31843e-05
1.5157e-05
-1.00455e-05
1.96029e-05
-6.93348e-06
2.43241e-05
-4.01108e-06
2.93625e-05
-1.46088e-06
3.46639e-05
7.34647e-07
4.02167e-05
2.31916e-06
2.90634e-06
4.60129e-05
-6.5901e-06
4.71728e-05
-1.92614e-05
-2.95004e-05
-3.29628e-05
-3.66942e-05
-3.59684e-05
-4.14171e-05
-3.32645e-05
-4.32615e-05
-2.92153e-05
-4.20672e-05
-2.54321e-05
-3.92905e-05
-2.16419e-05
-3.73758e-05
-1.81264e-05
-3.54009e-05
-1.47581e-05
-3.31361e-05
-1.1338e-05
-3.09215e-05
-7.85663e-06
-2.85659e-05
-4.24677e-06
-2.60033e-05
-4.43156e-07
-2.32404e-05
3.56974e-06
-2.03316e-05
7.78262e-06
-1.73971e-05
1.22181e-05
-1.44808e-05
1.68852e-05
-1.16005e-05
2.18177e-05
-8.94349e-06
2.70408e-05
-6.68397e-06
3.25422e-05
-4.76672e-06
3.82053e-05
-3.34401e-06
-3.04728e-06
4.41589e-05
1.37977e-05
3.33749e-05
1.17226e-06
-1.68742e-05
-9.20658e-06
-2.63149e-05
-2.0357e-05
-3.02664e-05
-2.77874e-05
-3.58292e-05
-3.0284e-05
-3.95695e-05
-2.71346e-05
-4.2439e-05
-2.32446e-05
-4.12641e-05
-2.05761e-05
-3.80674e-05
-1.73238e-05
-3.6387e-05
-1.4122e-05
-3.41225e-05
-1.0681e-05
-3.20065e-05
-6.95493e-06
-2.9729e-05
-3.02391e-06
-2.71712e-05
1.10539e-06
-2.44608e-05
5.42168e-06
-2.17132e-05
9.95174e-06
-1.90108e-05
1.46975e-05
-1.63462e-05
1.96859e-05
-1.39318e-05
2.49747e-05
-1.19728e-05
3.06259e-05
-1.0418e-05
3.66316e-05
-9.34967e-06
-9.46839e-06
4.30527e-05
1.48388e-05
1.85359e-05
1.09405e-05
-1.29758e-05
4.94098e-06
-2.03171e-05
-9.71839e-07
-2.43564e-05
-5.09524e-06
-3.1707e-05
-6.95801e-06
-3.77072e-05
-8.71861e-06
-4.06783e-05
-1.24027e-05
-3.75796e-05
-1.59732e-05
-3.44955e-05
-1.83318e-05
-3.40269e-05
-1.69676e-05
-3.54855e-05
-1.35459e-05
-3.54274e-05
-9.80093e-06
-3.34734e-05
-5.86504e-06
-3.11066e-05
-1.69413e-06
-2.86313e-05
2.70168e-06
-2.61087e-05
7.34967e-06
-2.36586e-05
1.2379e-05
-2.13754e-05
1.77909e-05
-1.93435e-05
2.34779e-05
-1.76597e-05
2.95942e-05
-1.65344e-05
3.62419e-05
-1.59974e-05
-1.54959e-05
4.22694e-05
1.47301e-05
3.80598e-06
1.09744e-05
-9.2206e-06
6.84193e-06
-1.6185e-05
4.22155e-06
-2.17365e-05
-3.60898e-07
-2.71266e-05
-4.05437e-06
-3.40148e-05
-8.36159e-06
-3.63719e-05
-1.30847e-05
-3.28581e-05
-1.63769e-05
-3.12051e-05
-1.79573e-05
-3.24475e-05
-1.76354e-05
-3.58079e-05
-1.65032e-05
-3.65596e-05
-1.50856e-05
-3.48909e-05
-1.36417e-05
-3.25505e-05
-1.21992e-05
-3.00736e-05
-1.06793e-05
-2.76286e-05
-8.99834e-06
-2.53394e-05
-7.07332e-06
-2.33003e-05
-4.87809e-06
-2.15386e-05
-2.48053e-06
-2.00575e-05
-1.35792e-07
-1.88793e-05
1.66069e-06
-1.77938e-05
-1.62353e-05
2.4014e-06
7.19477e-06
-3.38826e-06
6.07366e-06
-8.09925e-06
3.06757e-06
-1.31788e-05
-2.21077e-07
-1.8448e-05
-3.50178e-06
-2.38461e-05
-8.6541e-06
-2.88628e-05
-1.38395e-05
-3.11869e-05
-1.60914e-05
-3.06068e-05
-1.75706e-05
-2.97273e-05
-1.79094e-05
-3.21105e-05
-1.8536e-05
-3.51824e-05
-1.95376e-05
-3.55588e-05
-2.03589e-05
-3.40703e-05
-2.09843e-05
-3.19255e-05
-2.14731e-05
-2.95853e-05
-2.18247e-05
-2.72772e-05
-2.19991e-05
-2.51653e-05
-2.19788e-05
-2.33207e-05
-2.17904e-05
-2.17272e-05
-2.15478e-05
-2.03003e-05
-2.14906e-05
-1.89365e-05
-2.19205e-05
-1.73636e-05
-1.52801e-05
-2.28744e-05
1.96663e-06
-5.35449e-06
8.301e-07
-6.96235e-06
-1.59754e-06
-1.07509e-05
-4.60493e-06
-1.54404e-05
-8.23192e-06
-2.02191e-05
-1.26614e-05
-2.44333e-05
-1.68729e-05
-2.69755e-05
-1.95393e-05
-2.79405e-05
-2.03982e-05
-2.88688e-05
-2.13365e-05
-3.11726e-05
-2.31657e-05
-3.33536e-05
-2.51582e-05
-3.35666e-05
-2.70228e-05
-3.2206e-05
-2.87474e-05
-3.0201e-05
-3.03086e-05
-2.80241e-05
-3.1691e-05
-2.58949e-05
-3.29084e-05
-2.39479e-05
-3.40023e-05
-2.22267e-05
-3.50559e-05
-2.06737e-05
-3.619e-05
-1.91664e-05
-3.75848e-05
-1.75418e-05
-3.94082e-05
-1.55399e-05
-1.29295e-05
-4.17575e-05
-1.54287e-06
-3.81076e-06
-3.43255e-06
-5.07211e-06
-5.82543e-06
-8.35764e-06
-8.67508e-06
-1.25905e-05
-1.19737e-05
-1.69202e-05
-1.5664e-05
-2.07428e-05
-1.91265e-05
-2.35128e-05
-2.1736e-05
-2.5331e-05
-2.36735e-05
-2.69313e-05
-2.58481e-05
-2.8998e-05
-2.84868e-05
-3.0715e-05
-3.10627e-05
-3.09907e-05
-3.33722e-05
-2.98965e-05
-3.5592e-05
-2.79813e-05
-3.76527e-05
-2.59635e-05
-3.95395e-05
-2.40081e-05
-4.12893e-05
-2.21981e-05
-4.29731e-05
-2.05429e-05
-4.46811e-05
-1.89656e-05
-4.65024e-05
-1.73453e-05
-4.85191e-05
-1.5525e-05
-5.07669e-05
-1.32916e-05
-1.053e-05
-5.31652e-05
-3.59069e-06
-2.19525e-07
-6.21291e-06
-2.44939e-06
-8.75096e-06
-5.81918e-06
-1.15118e-05
-9.82933e-06
-1.4562e-05
-1.38696e-05
-1.7824e-05
-1.74805e-05
-2.098e-05
-2.03567e-05
-2.37681e-05
-2.25426e-05
-2.63087e-05
-2.43906e-05
-2.91389e-05
-2.61678e-05
-3.22808e-05
-2.7573e-05
-3.53041e-05
-2.79673e-05
-3.79559e-05
-2.72446e-05
-4.03272e-05
-2.561e-05
-4.25916e-05
-2.36991e-05
-4.46863e-05
-2.19134e-05
-4.66595e-05
-2.02248e-05
-4.85826e-05
-1.86196e-05
-5.05189e-05
-1.70294e-05
-5.25231e-05
-1.53412e-05
-5.46054e-05
-1.34426e-05
-5.67204e-05
-1.11763e-05
-8.50184e-06
-5.87472e-05
-4.3664e-06
4.14781e-06
-7.45074e-06
6.35522e-07
-1.01591e-05
-3.11043e-06
-1.29076e-05
-7.08043e-06
-1.5824e-05
-1.09529e-05
-1.8878e-05
-1.44263e-05
-2.19165e-05
-1.7318e-05
-2.48212e-05
-1.96377e-05
-2.76719e-05
-2.15398e-05
-3.07e-05
-2.31394e-05
-3.39856e-05
-2.42874e-05
-3.72358e-05
-2.4717e-05
-4.01637e-05
-2.43167e-05
-4.26619e-05
-2.31118e-05
-4.49304e-05
-2.14305e-05
-4.70463e-05
-1.97975e-05
-4.90414e-05
-1.82296e-05
-5.09653e-05
-1.66956e-05
-5.28626e-05
-1.5132e-05
-5.47448e-05
-1.34591e-05
-5.6596e-05
-1.15914e-05
-5.83467e-05
-9.42532e-06
-6.97117e-06
-5.98761e-05
-4.18683e-06
8.33501e-06
-7.36629e-06
3.81544e-06
-1.01605e-05
-3.15863e-07
-1.28983e-05
-4.34223e-06
-1.57286e-05
-8.12235e-06
-1.86589e-05
-1.14958e-05
-2.16207e-05
-1.43559e-05
-2.4559e-05
-1.66992e-05
-2.75045e-05
-1.85941e-05
-3.05577e-05
-2.00861e-05
-3.37329e-05
-2.1112e-05
-3.68999e-05
-2.155e-05
-3.98879e-05
-2.13286e-05
-4.25193e-05
-2.04803e-05
-4.47571e-05
-1.91927e-05
-4.67924e-05
-1.77621e-05
-4.86849e-05
-1.63371e-05
-5.04768e-05
-1.49036e-05
-5.21862e-05
-1.34226e-05
-5.3808e-05
-1.18374e-05
-5.53146e-05
-1.00848e-05
-5.66386e-05
-8.10102e-06
-5.91429e-06
-5.76943e-05
-3.45204e-06
1.1788e-05
-6.34235e-06
6.70636e-06
-9.01853e-06
2.36074e-06
-1.16677e-05
-1.69274e-06
-1.43832e-05
-5.40653e-06
-1.71862e-05
-8.69262e-06
-2.00437e-05
-1.14981e-05
-2.29237e-05
-1.3819e-05
-2.58301e-05
-1.56876e-05
-2.87907e-05
-1.71254e-05
-3.17962e-05
-1.81064e-05
-3.47684e-05
-1.85778e-05
-3.75828e-05
-1.85141e-05
-4.01229e-05
-1.79401e-05
-4.23312e-05
-1.69843e-05
-4.42637e-05
-1.58296e-05
-4.60071e-05
-1.45937e-05
-4.76061e-05
-1.33045e-05
-4.90745e-05
-1.19541e-05
-5.0403e-05
-1.05092e-05
-5.15623e-05
-8.92545e-06
-5.2499e-05
-7.16397e-06
-5.26416e-06
-5.31479e-05
-2.40055e-06
1.4189e-05
-4.72825e-06
9.03452e-06
-7.06616e-06
4.69906e-06
-9.49009e-06
7.3153e-07
-1.20152e-05
-2.88112e-06
-1.46375e-05
-6.07011e-06
-1.73316e-05
-8.80377e-06
-2.00694e-05
-1.1081e-05
-2.28371e-05
-1.29197e-05
-2.56285e-05
-1.43338e-05
-2.8418e-05
-1.53168e-05
-3.11445e-05
-1.58511e-05
-3.37263e-05
-1.59322e-05
-3.60727e-05
-1.55937e-05
-3.81375e-05
-1.49195e-05
-3.9939e-05
-1.4028e-05
-4.15221e-05
-1.30105e-05
-4.29208e-05
-1.19057e-05
-4.41521e-05
-1.07228e-05
-4.52111e-05
-9.45027e-06
-4.60734e-05
-8.0631e-06
-4.66987e-05
-6.53843e-06
-4.90855e-06
-4.70531e-05
-1.21244e-06
1.54023e-05
-2.81386e-06
1.06365e-05
-4.65311e-06
6.53872e-06
-6.7056e-06
2.78436e-06
-8.9371e-06
-6.49334e-07
-1.13002e-05
-3.70675e-06
-1.37594e-05
-6.34438e-06
-1.62798e-05
-8.56041e-06
-1.8834e-05
-1.03652e-05
-2.13979e-05
-1.17698e-05
-2.39375e-05
-1.27772e-05
-2.64014e-05
-1.33872e-05
-2.87249e-05
-1.36087e-05
-3.0846e-05
-1.34725e-05
-3.27251e-05
-1.30404e-05
-3.43608e-05
-1.23922e-05
-3.5776e-05
-1.15952e-05
-3.69919e-05
-1.06897e-05
-3.80206e-05
-9.69411e-06
-3.88603e-05
-8.61066e-06
-3.94957e-05
-7.4278e-06
-3.99006e-05
-6.1332e-06
-4.75527e-06
-4.00527e-05
-6.67675e-08
1.54693e-05
-8.6493e-07
1.14351e-05
-2.10761e-06
7.78179e-06
-3.67431e-06
4.3514e-06
-5.50394e-06
1.18058e-06
-7.52577e-06
-1.68466e-06
-9.67661e-06
-4.19331e-06
-1.19129e-05
-6.32391e-06
-1.41956e-05
-8.08237e-06
-1.64891e-05
-9.47616e-06
-1.87544e-05
-1.05117e-05
-2.09451e-05
-1.11964e-05
-2.30093e-05
-1.15443e-05
-2.48983e-05
-1.15835e-05
-2.65793e-05
-1.13593e-05
-2.80435e-05
-1.0928e-05
-2.92982e-05
-1.03404e-05
-3.03551e-05
-9.63276e-06
-3.1222e-05
-8.82719e-06
-3.18995e-05
-7.93334e-06
-3.23783e-05
-6.94901e-06
-3.26414e-05
-5.86985e-06
-4.71068e-06
-3.26849e-05
9.29797e-07
1.45405e-05
8.84359e-07
1.14811e-05
2.75511e-07
8.39107e-06
-7.42791e-07
5.37005e-06
-2.08731e-06
2.5254e-06
-3.68595e-06
-8.57552e-08
-5.46237e-06
-2.41666e-06
-7.35731e-06
-4.42877e-06
-9.32163e-06
-6.11788e-06
-1.13117e-05
-7.48591e-06
-1.32852e-05
-8.53815e-06
-1.51977e-05
-9.28382e-06
-1.70047e-05
-9.73734e-06
-1.86658e-05
-9.92224e-06
-2.01524e-05
-9.87274e-06
-2.1451e-05
-9.62932e-06
-2.25607e-05
-9.23055e-06
-2.34862e-05
-8.7072e-06
-2.42322e-05
-8.08122e-06
-2.47993e-05
-7.36643e-06
-2.5182e-05
-6.56627e-06
-2.53716e-05
-5.68005e-06
-4.717e-06
-2.53642e-05
1.60935e-06
1.29315e-05
2.2527e-06
1.08382e-05
2.27185e-06
8.37233e-06
1.81802e-06
5.82423e-06
9.92561e-07
3.35116e-06
-1.32209e-07
1.03928e-06
-1.48376e-06
-1.06487e-06
-2.99211e-06
-2.92021e-06
-4.60145e-06
-4.50837e-06
-6.26252e-06
-5.82469e-06
-7.93022e-06
-6.87034e-06
-9.56081e-06
-7.65314e-06
-1.11134e-05
-8.18464e-06
-1.25526e-05
-8.48301e-06
-1.38516e-05
-8.57374e-06
-1.49946e-05
-8.48626e-06
-1.59755e-05
-8.24956e-06
-1.67939e-05
-7.88873e-06
-1.74509e-05
-7.42416e-06
-1.79474e-05
-6.87014e-06
-1.82803e-05
-6.23339e-06
-1.84436e-05
-5.51652e-06
-4.71865e-06
-1.84409e-05
2.01304e-06
1.09194e-05
3.1811e-06
9.67072e-06
3.74194e-06
7.81191e-06
3.81834e-06
5.74819e-06
3.50069e-06
3.66911e-06
2.86031e-06
1.67993e-06
1.95778e-06
-1.62114e-07
8.59215e-07
-1.82144e-06
-3.75037e-07
-3.27394e-06
-1.69185e-06
-4.50773e-06
-3.04407e-06
-5.51801e-06
-4.38926e-06
-6.30786e-06
-5.68905e-06
-6.88479e-06
-6.91044e-06
-7.26156e-06
-8.02728e-06
-7.45685e-06
-9.02217e-06
-7.49131e-06
-9.88543e-06
-7.38624e-06
-1.06127e-05
-7.16134e-06
-1.1203e-05
-6.83389e-06
-1.16555e-05
-6.41784e-06
-1.19677e-05
-5.92121e-06
-1.2137e-05
-5.347e-06
-4.69122e-06
-1.21634e-05
2.18239e-06
8.73714e-06
3.69904e-06
8.15446e-06
4.67682e-06
6.83451e-06
5.19518e-06
5.23018e-06
5.32359e-06
3.541e-06
5.12422e-06
1.87956e-06
4.65248e-06
3.09852e-07
3.96299e-06
-1.13175e-06
3.10892e-06
-2.4197e-06
2.14013e-06
-3.53879e-06
1.10343e-06
-4.48119e-06
4.10666e-08
-5.24541e-06
-1.00899e-06
-5.83466e-06
-2.01496e-06
-6.25553e-06
-2.95197e-06
-6.51979e-06
-3.80156e-06
-6.64168e-06
-4.55166e-06
-6.63607e-06
-5.19523e-06
-6.5177e-06
-5.72822e-06
-6.30089e-06
-6.14828e-06
-5.99796e-06
-6.45353e-06
-5.61599e-06
-6.64049e-06
-5.15991e-06
-4.61687e-06
-6.71386e-06
2.18661e-06
6.55149e-06
3.88761e-06
6.45405e-06
5.14187e-06
5.58068e-06
5.98755e-06
4.38483e-06
6.47056e-06
3.05829e-06
6.63908e-06
1.71129e-06
6.54005e-06
4.091e-07
6.21802e-06
-8.09524e-07
5.71758e-06
-1.9191e-06
5.08216e-06
-2.90323e-06
4.35327e-06
-3.7522e-06
3.56901e-06
-4.46107e-06
2.76367e-06
-5.02926e-06
1.96783e-06
-5.45964e-06
1.20658e-06
-5.75849e-06
4.99384e-07
-5.93444e-06
-1.39165e-07
-5.99747e-06
-6.98967e-07
-5.95784e-06
-1.1744e-06
-5.82545e-06
-1.56315e-06
-5.6094e-06
-1.86161e-06
-5.3176e-06
-2.06905e-06
-4.95228e-06
-4.50593e-06
-2.17904e-06
2.08932e-06
4.46235e-06
3.84381e-06
4.69993e-06
5.24439e-06
4.18047e-06
6.29958e-06
3.32995e-06
7.03452e-06
2.32364e-06
7.48238e-06
1.26367e-06
7.67916e-06
2.12521e-07
7.66074e-06
-7.90925e-07
7.46267e-06
-1.72088e-06
7.12052e-06
-2.56096e-06
6.6692e-06
-3.30078e-06
6.14178e-06
-3.93357e-06
5.56872e-06
-4.45615e-06
4.97738e-06
-4.86826e-06
4.39118e-06
-5.17225e-06
3.82925e-06
-5.37247e-06
3.30646e-06
-5.47463e-06
2.83382e-06
-5.48514e-06
2.41942e-06
-5.41106e-06
2.06897e-06
-5.25913e-06
1.78703e-06
-5.03568e-06
1.57922e-06
-4.74437e-06
-4.36073e-06
1.43492e-06
1.9354e-06
2.5278e-06
3.6524e-06
2.98339e-06
5.0975e-06
2.7357e-06
6.26084e-06
2.16688e-06
7.15219e-06
1.43253e-06
7.79165e-06
6.24413e-07
8.20448e-06
-2.00125e-07
8.41783e-06
-1.00412e-06
8.45922e-06
-1.76213e-06
8.35706e-06
-2.4587e-06
8.13951e-06
-3.08316e-06
7.83393e-06
-3.62793e-06
7.46612e-06
-4.08829e-06
7.05977e-06
-4.46188e-06
6.63587e-06
-4.74833e-06
6.21237e-06
-4.94894e-06
5.80399e-06
-5.06621e-06
5.42253e-06
-5.10364e-06
5.07684e-06
-5.06537e-06
4.77344e-06
-4.95589e-06
4.51782e-06
-4.78015e-06
4.31306e-06
-4.53946e-06
-4.21121e-06
4.16435e-06
1.75253e-06
7.75142e-07
3.37631e-06
1.35979e-06
4.79656e-06
1.31568e-06
5.99296e-06
9.70692e-07
6.96441e-06
4.61275e-07
7.72065e-06
-1.31662e-07
8.27782e-06
-7.57143e-07
8.65459e-06
-1.38077e-06
8.87248e-06
-1.9799e-06
8.9536e-06
-2.53974e-06
8.92019e-06
-3.04969e-06
8.79426e-06
-3.50197e-06
8.59703e-06
-3.89104e-06
8.34842e-06
-4.21325e-06
8.06657e-06
-4.46648e-06
7.76759e-06
-4.64994e-06
7.46529e-06
-4.76389e-06
7.17118e-06
-4.8095e-06
6.89462e-06
-4.78883e-06
6.64292e-06
-4.70437e-06
6.42136e-06
-4.55863e-06
6.23457e-06
-4.35262e-06
-4.06033e-06
6.08443e-06
1.55871e-06
-7.82971e-07
3.05952e-06
-1.40729e-07
4.41422e-06
-3.8836e-08
5.59486e-06
-2.09799e-07
6.59229e-06
-5.36026e-07
7.4082e-06
-9.47456e-07
8.05096e-06
-1.39979e-06
8.53383e-06
-1.86355e-06
8.87271e-06
-2.31872e-06
9.08468e-06
-2.75165e-06
9.18721e-06
-3.15219e-06
9.19787e-06
-3.51262e-06
9.13388e-06
-3.82705e-06
9.01166e-06
-4.09103e-06
8.84652e-06
-4.30135e-06
8.65242e-06
-4.45584e-06
8.44182e-06
-4.55328e-06
8.22556e-06
-4.59322e-06
8.01264e-06
-4.57594e-06
7.81015e-06
-4.50205e-06
7.62455e-06
-4.37312e-06
7.46007e-06
-4.188e-06
-3.91896e-06
7.3194e-06
1.36457e-06
-2.14782e-06
2.73276e-06
-1.50895e-06
4.00275e-06
-1.30879e-06
5.13991e-06
-1.3469e-06
6.12832e-06
-1.52438e-06
6.9633e-06
-1.78238e-06
7.64837e-06
-2.08481e-06
8.19221e-06
-2.40735e-06
8.60667e-06
-2.73316e-06
8.90498e-06
-3.04995e-06
9.10103e-06
-3.34825e-06
9.20894e-06
-3.62055e-06
9.24262e-06
-3.86075e-06
9.21546e-06
-4.0639e-06
9.14015e-06
-4.22607e-06
9.02855e-06
-4.34425e-06
8.89154e-06
-4.41627e-06
8.73891e-06
-4.44059e-06
8.57929e-06
-4.41636e-06
8.41988e-06
-4.34281e-06
8.2662e-06
-4.21944e-06
8.12299e-06
-4.04475e-06
-3.78672e-06
7.99139e-06
1.18212e-06
-3.32969e-06
2.42071e-06
-2.74756e-06
3.60186e-06
-2.48999e-06
4.68215e-06
-2.42722e-06
5.63974e-06
-2.48199e-06
6.46586e-06
-2.60851e-06
7.16078e-06
-2.77974e-06
7.7306e-06
-2.97719e-06
8.18449e-06
-3.18707e-06
8.53304e-06
-3.39852e-06
8.78748e-06
-3.60273e-06
8.95921e-06
-3.79232e-06
9.05944e-06
-3.96103e-06
9.09898e-06
-4.10349e-06
9.08816e-06
-4.2153e-06
9.03681e-06
-4.29294e-06
8.95427e-06
-4.33375e-06
8.84932e-06
-4.33565e-06
8.72977e-06
-4.29685e-06
8.60221e-06
-4.21538e-06
8.47276e-06
-4.09006e-06
8.34529e-06
-3.91715e-06
-3.66223e-06
8.22136e-06
1.02513e-06
-4.35551e-06
2.14792e-06
-3.87066e-06
3.24403e-06
-3.58628e-06
4.26064e-06
-3.44396e-06
5.17111e-06
-3.39254e-06
5.96552e-06
-3.403e-06
6.64381e-06
-3.45809e-06
7.21122e-06
-3.54466e-06
7.67549e-06
-3.6514e-06
8.0454e-06
-3.76848e-06
8.33005e-06
-3.88745e-06
8.53857e-06
-4.00091e-06
8.67981e-06
-4.10233e-06
8.76227e-06
-4.18602e-06
8.7941e-06
-4.24719e-06
8.78322e-06
-4.28211e-06
8.73741e-06
-4.28798e-06
8.66428e-06
-4.26253e-06
8.57107e-06
-4.20368e-06
8.46442e-06
-4.10886e-06
8.34918e-06
-3.97484e-06
8.2296e-06
-3.79755e-06
-3.53818e-06
8.10607e-06
9.07599e-07
-5.26319e-06
1.93608e-06
-4.89941e-06
2.9516e-06
-4.60204e-06
3.89427e-06
-4.38682e-06
4.73855e-06
-4.23697e-06
5.47804e-06
-4.1426e-06
6.11518e-06
-4.09533e-06
6.65582e-06
-4.08538e-06
7.10682e-06
-4.10249e-06
7.47528e-06
-4.13703e-06
7.76824e-06
-4.1805e-06
7.9926e-06
-4.22536e-06
8.15502e-06
-4.26484e-06
8.26179e-06
-4.29288e-06
8.319e-06
-4.30447e-06
8.33266e-06
-4.29583e-06
8.30903e-06
-4.26439e-06
8.25463e-06
-4.20816e-06
8.17594e-06
-4.12502e-06
8.07864e-06
-4.01168e-06
7.96855e-06
-3.86481e-06
7.84933e-06
-3.6782e-06
-3.41066e-06
7.72228e-06
8.42248e-07
-6.10624e-06
1.79696e-06
-5.8546e-06
2.72378e-06
-5.52919e-06
3.56932e-06
-5.23261e-06
4.32028e-06
-4.98811e-06
4.97908e-06
-4.80155e-06
5.5521e-06
-4.66847e-06
6.04555e-06
-4.57895e-06
6.46479e-06
-4.52183e-06
6.81462e-06
-4.48696e-06
7.09967e-06
-4.46565e-06
7.32455e-06
-4.45033e-06
7.49368e-06
-4.43406e-06
7.61129e-06
-4.41058e-06
7.68144e-06
-4.37469e-06
7.70834e-06
-4.3228e-06
7.69669e-06
-4.25278e-06
7.65177e-06