/*--------------------------------*- C++ -*----------------------------------*\
  =========                 |
  \\      /  F ield         | OpenFOAM: The Open Source CFD Toolbox
   \\    /   O peration     | Website:  https://openfoam.org
    \\  /    A nd           | Version:  13
     \\/     M anipulation  |
\*---------------------------------------------------------------------------*/
FoamFile
{
    format      ascii;
    class       volScalarField;
    location    "1.35";
    object      rho;
}
// * * * * * * * * * * * * * * * * * * * * * * * * * * * * * * * * * * * * * //

dimensions      [1 -3 0 0 0 0 0];

internalField   nonuniform List<scalar> 
2268
(
13529
13529
13529
13529
13529
13529
13529
13529
13529
13529
13529
13529
13529
13529
13529
13529
13529
13529
13529
13529
13529
13522.9
13521.6
13529
13529
13529
13529
13529
13529
13529
13529
13529
13529
13529
13529
13529
13529
13529
13529
13529
13529
13529
13529
13529
13527.7
13521.6
13529
13529
13529
13529
13529
13529
13529
13529
13529
13529
13529
13529
13529
13529
13529
13529
13529
13529
13529
13529
13529
13529
13525
13529
13529
13529
13529
13529
13529
13529
13529
13529
13529
13529
13529
13529
13529
13529
13529
13529
13529
13529
13529
13529
13529
13528.8
13529
13529
13529
13529
13529
13529
13529
13529
13529
13529
13529
13529
13529
13529
13529
13529
13529
13529
13529
13529
13529
13529
13529
8568.61
8893.07
9186.27
9944.8
11029.4
12201.5
13085.5
13492.3
13529
13529
13529
13529
13529
13529
13529
13529
13529
13529
13528.9
13528.7
13527.9
13528.5
13521
1000
1000
1000
1083.05
1592.81
2594.95
4277.2
6658.52
9332.52
11005.4
12040.9
12743.1
13200.4
13327
13082.8
12386
11376.7
10185.7
9050.8
8126.8
7510.04
7732.95
8963.03
1000
1000
1000
1000
1000
1000
1000
1000
1056.82
2063.97
3222.58
3980.91
4264.97
4184.98
3698.75
2891.34
2073.63
1491.49
1185.13
1057.36
1015.44
1038.33
1750.63
11920.5
11910.9
11908.3
11191.5
7639.65
7377.77
7574.41
8004.71
8131.9
8001.8
7837.66
8182.86
9479.85
9501.1
9548.31
9536.52
9522.79
9505.03
9512.15
11914.8
11600.7
11876
11947
11945.6
11926.6
11855.5
11483.1
10915.4
10535.4
9184.54
8040.01
8274.6
8694.62
8941.03
8984.53
9450.95
9505.2
8441.1
11808.1
5449.9
7070.89
6453.73
5919.88
5513.72
4603.38
3993.99
4130.96
4043.89
4360.39
4626.11
3772.66
3717.65
4050.38
4611.06
5554.32
5927.46
5677.22
4048.39
2673.5
3796.83
999.593
999.544
997.917
865.509
535.297
364.563
641.083
2034.01
2901.57
3594.99
3322.91
3248.8
3225.85
3151.42
3217.59
3603.78
1736.49
6359.28
2783.95
999.95
1000.35
1005.95
1012.98
1001.29
923.999
773.201
542.468
1096.69
2998.3
4380.53
4531.21
4515.48
4400.76
3040.36
1349.9
1755.68
6701.11
1625.53
1000.96
1001.16
1013.08
1021.67
1017.89
1003.84
995.736
936.504
842.412
833.389
927.69
1215.04
1649.95
1501.99
880.137
807.926
1736.73
6527.99
1567.43
1001.1
1000.96
1000.59
1001.44
1000.18
1000.01
1000.36
1001.5
959.117
953.863
923.763
856.405
811.66
830.248
772.976
790.774
1817.6
3137.13
1468.12
1000.86
1000.09
999.853
999.668
999.912
999.904
1000.04
1001.8
995.996
947.328
783.855
622.336
551.358
558.943
608.18
724.465
1000
1000
1000
1000
1000
1000
1000
1000
1000
1000
1000
1000
1000
1000
1000
1000
1000
1000
999.999
999.999
999.999
1002.03
1335.33
1000
1000
1000
1000
1000
1000
1000
1000
1000
1000
1000
1000
1000
1000
1000
1000
1000
1000
1000
1000
999.986
904.871
1111.31
1000
1000
1000
1000
1000
1000
1000
1000
1000
1000
1000
1000
1000
1000
1000
1000
1000
1000
1000
944.353
836.267
693.517
533.604
1000
1000
1000
1000
1000
1000
1000
1000
1000
1000
1000
1000
1000
1000
999.694
1000
993.358
889.133
785.12
739.215
517.673
463.587
498.968
1000
1000
1000
995.445
988.031
974.997
953.478
940.247
957.658
952.334
929.896
935.097
951.396
921.328
793.863
728.86
700.198
569.033
470.097
461.795
485.84
499.95
500
1000
999.721
886.959
763.423
682.523
641.093
577.13
618.443
624.442
614.487
550.162
551.795
538.982
483.734
430.413
437.998
461.194
473.512
493.157
499.914
500
500
500
560.634
543.503
442.691
487.93
493.621
460.653
431.203
409.908
432.353
418.087
438.025
450.778
466.753
482.386
493.296
498.883
499.99
499.999
500.001
500.001
500
500
500
12.5175
116.636
445.806
500
500.002
500
500
500
500
500
500
500
500
500
500
500
499.999
499.999
500
500.001
500
500
500
9.39589
118.33
207.978
273.068
371.514
447.736
484.194
498.257
500
500
500
500
500
500
500
500
500
500
500
500
500
500
500
12.2633
6.63742
1.01651
1.03356
11.6475
73.0485
148.141
232.309
320.923
384.202
425.485
454.82
474.216
486.092
492.924
496.57
498.211
498.534
498.617
498.847
499.108
497.311
483.989
5.34488
1.00202
1.00283
1.00002
1.00001
1.00001
1.00004
1.00008
1.00031
20.661
50.9056
84.7461
120.325
154.817
186.334
213.362
233.006
239.217
235.637
224.276
194.54
142.813
96.909
1.45369
1.08425
1.00156
1.00004
1.00002
1.00002
1.00003
1.00002
1.00001
1.00008
1.00031
1.00027
1.00009
1
1
1
1
1
1
1
1
1.00008
1.00024
1.00111
1.00126
1.0012
1.0001
1.00004
1.00005
1.00005
1.00014
1.00052
1.00074
1.00059
1.00072
1.00006
1
1
1
1
1
1.00001
1.00011
1.00032
1.00049
1.00058
1.00047
1.00154
1.00141
1.00007
1.00006
1.00005
1.00007
1.00029
1.00197
1.01337
1.03009
1.0069
1.00091
1.00007
1.00003
1.00002
1.00004
1.00008
1.00045
1.00068
1.00071
1.00068
1.00055
1.00014
1.00037
1.00008
1.00006
1.00005
1.00005
1.00009
1.00023
1.00095
1.04105
1.08851
1.0615
1.0024
1.00048
1.00023
1.00016
1.00028
1.00032
1.00069
1.00063
1.00055
1.00023
1.00006
1.00003
1.00004
1.00007
1.00005
1.00004
1.00004
1.00006
1.00014
1.00046
1.03591
1.08787
1.08811
1.04694
1.0025
1.00076
1.00103
1.00237
1.00256
1.00062
1.00024
1.00003
1.00006
1.00004
1.00003
1.00005
1.00006
1.00006
1.00004
1.00004
1.00005
1.00007
1.00009
1.00019
1.03971
1.08736
1.08783
1.02088
1.00312
1.00316
1.00326
1.0032
1.00264
1.00003
1.00003
1.00005
1.00007
1.00003
1.00004
1.00005
1.00005
1.00005
1.00003
1.00002
1.00003
1.00003
1.00004
1.00005
1.01547
1.05729
1.05975
1.00175
1.00167
1.00153
1.0032
1.00303
1.00034
1.00001
1.00004
1.00006
1.00002
1.00003
1.00004
1.00005
1.00005
1.00003
1.00002
1.00002
1.00002
1.00002
1.00002
1.00002
1.00001
1.00791
1.01149
1.00102
1.0005
1.00031
1.00036
1.00044
1.00008
1.00002
1.00002
1.00002
1.00002
1.00003
1.00004
1.00004
1.00003
1.00002
1.00001
1.00001
1.00001
1.00001
1.00001
1.00001
1.00002
1.00049
1.00147
1.00127
1.00008
1.00006
1.00006
1.00007
1.00003
1.00002
1.00001
1.00001
1.00002
1.00002
1.00003
1.00003
1.00002
1.00001
1.00001
1.00001
1.00001
1.00001
1.00001
1.00001
1.00001
1.00006
1.00016
1.00017
1.00002
1.00001
1.00001
1.00001
1.00001
1.00001
1.00001
1.00001
1.00001
1.00002
1.00002
1.00001
1.00001
1.00001
1.00001
1.00001
1.00001
1.00001
1.00001
1.00001
1
1
1.00002
1.00002
1.00001
1.00001
1
1
1.00001
1.00001
1.00001
1.00001
1.00001
1.00001
1.00001
1.00001
1
1
1
1
1
1
1
1
1
1
1
1
1
1
1
1.00001
1
1
1
1
1.00001
1.00001
1
1
1
1
1
1
1
1
1
1
1
1
1
1
1
1
1
1
1
1
1
1
1
1
1
1
1
1
1
1
1
1
1
1
1
1
1
1
1
1
1
1
1
1
1
1
1
1
1
1
1
1
1
1
1
1
1
1
1
1
1
1
1
1
1
1
1
1
1
1
1
1
1
1
1
1
1
1
1
1
1
1
1
1
1
1
1
1
1
1
1
1
1
1
1
1
1
1
1
1
1
1
1
1
1
1
1
1
1
1
1
1
1
1
1
1
1
1
1
1
1
1
1
1
1
1
1
1
1
1
1
1
1
1
1
1
1
1
1
1
1
1
1
1
1
1
1
1
1
1
1
1
1
1
1
1
1
1
1
1
1
1
1
1
1
1
1
1
1
1
1
1
1
1
1
1
1
1
1
1
1
1
1
1
1
1
1
1
1
1
1
1
1
1
1
1
1
1
1
1
1
1
1
1
1
1
1
1
1
1
1
1
1
1
1
1
1
1
1
1
1
1
1
1
1
1
1
1
1
1
1
1
1
1
1
1
1
1
1
1
1
1
1
1
1
1
1
1
1
1
1
1
1
1
1
1
1
1
1
1
1
1
1
1
1
1
1
1
1
1
1
1
1
1
1
1
1
1
1
1
1
1
1
1
1
1
1
1
1
1
1
1
1
1
1
1
1
1
1
1
1
1
1
1
1
1
1
1
1
1
1
1
1
1
1
1
1
1
1
1
1
1
1
1
1
1
1
1
1
1
1
1
1
1
1
1
1
1
1
1
1
1
1
1
1
1
1
1
1
1
1
1
1
1
1
1
1
1
1
1
1
1
1
1
1
1
1
1
1
1
1
1
1
1
1
1
1
1
1
1
1
1
1
1
1
1
1
1
1
1
1
1
1
1
1
1
1
1
1
1
1
1
1
1
1
1
1
1
1
1
1
1
1
1
1
1
1
1
1
1
1
1
1
1
1
1
1
1
1
1
1247.73
1187.33
544.989
1180.37
977.719
728.991
419.082
941.037
561.636
494.268
497.212
500.464
499.992
500
500
499.999
500
500
500
500.006
500
500
499.998
500.006
500
500
499.998
500.004
500
500
500
500
500
500
500
500
463.822
456.162
459.939
461.831
69.6361
55.5846
40.1272
18.9971
1.00032
1.0003
1.00024
1.0002
1.00074
1.00068
1.00044
1.00033
1.00017
1.00004
1.00009
1.00007
1.00004
1.00003
1.00003
1.00002
1.00003
1.00002
1.00002
1.00002
1.00006
1.00003
1.00003
1.00003
1.00006
1.00003
1.00003
1.00003
1.00003
1.00003
1.00002
1.00002
1.00001
1.00001
1.00001
1.00001
1.00001
1.00001
1.00001
1.00001
1
1
1
1
1
1
1
1
1
1
1
1
1
1
1
1
1
1
1
1
1
1
1
1
1
1
1
1
1
1
1
1
1
1
1
1
1
1
1
1
1
1
1
1
1
1
1
1
1
1
1
1
1
1
1
1
1
1
1
1
1
1
1
1
1
1
1
1
1
1
1
1
1
1
1
1
1
1
1
1
1
1
1
1
2194.22
2018.2
1089.88
999.601
994.181
969.86
928.997
886.186
853.621
829.6
795.103
740.962
663.838
574.608
514.612
506.619
500.92
512.793
689.694
2223.13
2409.04
1104
953.007
886.117
680.631
562.963
531.37
516.068
505.63
500.131
501.621
501.39
500.075
499.86
499.723
499.742
500.239
551.717
1789.69
1976.66
997.783
800.005
565.843
498.984
499.941
499.867
499.851
499.928
500
499.998
500.158
500.244
500.154
500.089
500.007
484.031
472.224
631.022
682.822
695.774
508.342
478.009
500.001
500.002
500.002
500.002
500.001
500
500
500.02
500.148
500.359
500.221
500.163
455.931
427.704
501.319
454.526
449.115
482.324
500.867
500.001
500.001
500.001
500
499.208
498.287
482.961
442.649
435.943
425.365
391.487
379.842
373.682
356.975
500.174
499.445
499.809
500
500.003
500.003
500
500
495.365
457.86
283.267
121.29
85.0454
87.1035
92.2389
95.043
74.4088
80.7603
90.3036
500.003
500
500
500
500
500
489.585
436.263
208.2
18.155
2.20049
1.00106
1.00078
1.00287
1.5153
5.0309
5.3295
1.26585
1.00136
500
500
500
500
482.147
430.88
187.539
2.43415
1.00024
1.00059
1.00004
1.00052
1.00038
1.07797
2.57969
2.62962
1.69769
1.00946
1.00027
500
496.531
485.325
397.585
98.6936
1.00067
1.0002
1.00002
1.00001
1.00001
1.00001
1.00022
1.01923
3.05106
3.22087
2.15886
1.24324
0.999976
1.00038
350.936
155.233
25.4121
1.00031
1.00021
1.00009
1.00003
1.00001
1.09548
1.43954
1.17655
1.00046
1.1026
2.64465
1.83817
1.02506
1.00286
1.00014
1.00022
1.00038
1.00018
1.00006
1.00007
1.00012
1.00023
1.00003
1.04043
1.54485
1.54377
1.47799
1.00202
1.0867
1.04195
1.00008
1.00003
1.00004
1.00014
1.00063
1.00019
1.00018
1.00008
1.00016
1.00069
1.00084
1.00148
1.05078
1.238
1.36887
1.14458
1.00126
1.00262
1.00007
1.00007
1.00008
1.00003
1.0002
1.00084
1.00019
1.00005
1.00003
1.00027
1.00083
1.00139
1.00336
1.00917
1
1.00225
1.0001
1.00463
1.00008
1.00005
1.00007
1.00005
1.00004
1.00024
1.00086
1.00005
1.00002
1.00003
1.0001
1.00015
1.0002
1.0002
1
1
1.00001
1.00006
1.00102
1.00004
1.00004
1.00003
1.00002
1.00002
1.00022
1.00072
1.00002
1.00001
1.00001
1.00001
1
1.00001
1
1
1
1
1.00001
1
1.00002
1.00001
1.00001
1.00001
1.00003
1.00015
1.00019
1.00001
1.00001
1.00001
1
1
1
1
1
1
1
1
1
1.00001
1
1
1
1.00002
1.00009
1.00004
1.00002
1.00001
1.00001
1.00001
1
1
1
1
1
1
1
1
1
1
1
1
1.00001
1.00002
1.00003
1.00003
1.00002
1.00001
1.00001
1
1
1
1
1
1
1
1
1
1
1
1
1
1
1.00001
1.00002
1.00001
1.00001
1.00001
1
1
1
1
1
1
1
1
1
1
1
1
1
1
1
1.00001
1.00001
1.00001
1
1
1
1
1
1
1
1
1
1
1
1
1
1
1
1
1.00001
1
1
1
1
1
1
1
1
1
1
1
1
1
1
1
1
1.00001
1.00001
1
1
1
1
1
1
1
1
1
1
1
1
1
1
1
1
1
1.00001
1.00001
1
1
1
1
1
1
1
1
1
1
1
1
1
1
1
1
1.00001
1.00001
1.00001
1
1
1
1
1
1
1
1
1
1
1
1
1
1
1
1
1.00001
1.00001
1.00001
1
1
1
1
1
1
1
1
1
1
1
1
1
1
1
1
1.00001
1.00002
1.00001
1
1
1
1
1
1
1
1
1
1
1
1
1
1
1
1.00001
1.00001
1.00003
1.00002
1
1
1
1
1
1
1
1
1
1
1
1
1
1
1
1.00001
1.00002
1.00005
1.00002
1
1
1
1
1
1
1
1
1
1
1
1
1
1
1
1.00001
1.00003
1.00005
1.00002
1
1
1
1
1
1
1
1
1
1
1
1
1
1
1
1.00001
1.00004
1.00005
1.00002
1
1
1
1
1
1
1
1
1
1
1
1
1
1
1
1.00002
1.00004
1.00006
1.00002
1
1
1
1
1
1
1
1
1
1
1
1
1
1
1
1.00002
1.00005
1.00005
1.00002
1
1
1
1
1
1
1
1
1
1
1
1
1
1
1.00001
1.00002
1.00005
1.00004
1.00001
1
1
1
1
1
1
1
1
1
1
1
1
1
1
1.00001
1.00002
1.00003
1.00002
1.00001
1
1
1
1
1
1
1
1
1
1
1
1
1
1
1.00001
1.00001
1.00001
1.00001
1
1
1
1
1
1
1
1
1
1
1
1
1
1
1
1
1.00001
1
1
1
1
1
1
1
1
1
1
1
1
1
1
1
1
1
1
1
1
1
1
1
1
1
1
1
1
1
1
1
1
1
1
1
1
1
1
1
1
1
1
1
1
1
1
1
1
1
1
1
1
1
1
1
1
1
1
1
1
1
1
1
1
1
1
1
1
1
1
1
1
1
1
1
1
1
1
1
1
1
1
1
1
1
1
1
1
1
1
1
1
1
1
1
1
1
1
1
1
1
1
1
1
1
1
1
1
1
1
1
1
1
1
1
1
1
1
1
1
1
1
1
1
1
1
1
1
1
1
1
1
1
1
1
1
)
;

boundaryField
{
    leftWall
    {
        type            calculated;
        value           nonuniform List<scalar> 
50
(
13529
13529
13529
13529
13529
8568.61
1000
1000
1000
1000
1000
1000
1000
1000
560.634
12.5175
9.39589
12.2633
5.34488
1.45369
1.00111
1.00047
1.00014
1.00003
1.00003
1.00003
1.00002
1.00002
1.00001
1.00001
1.00001
1.00001
1
1
1
1
1
1
1
1
1
1
1
1
1
1
1
1
1
1
)
;
    }
    rightWall
    {
        type            calculated;
        value           nonuniform List<scalar> 
50
(
9512.15
8441.1
5677.22
3603.78
1349.9
807.926
790.774
724.465
689.694
551.717
472.224
427.704
356.975
90.3036
1.00136
1.00027
1.00038
1.00022
1.00063
1.00084
1.00086
1.00072
1.00019
1.00004
1.00003
1.00001
1
1
1.00001
1.00001
1.00001
1.00001
1.00001
1.00002
1.00002
1.00002
1.00002
1.00002
1.00002
1.00001
1.00001
1
1
1
1
1
1
1
1
1
)
;
    }
    lowerWall
    {
        type            calculated;
        value           nonuniform List<scalar> 
62
(
13529
13529
13529
13529
13529
13529
13529
13529
13529
13529
13529
13529
13529
13529
13529
13529
13529
13529
13529
13529
13529
13522.9
13521.6
13521.6
13521.6
13525
13528.8
13529
13521
8963.03
1750.63
1247.73
1187.33
544.989
1180.37
11920.5
11914.8
11808.1
4048.39
1736.49
1755.68
1736.73
1817.6
11920.5
11910.9
11908.3
11191.5
7639.65
7377.77
7574.41
8004.71
8131.9
8001.8
7837.66
8182.86
9479.85
9501.1
9548.31
9536.52
9522.79
9505.03
9512.15
)
;
    }
    atmosphere
    {
        type            calculated;
        value           nonuniform List<scalar> 
46
(
1
1
1
1
1
1
1
1
1
1
1
1
1
1
1
1
1
1
1
1
1
1
1
1
1
1
1
1
1
1
1
1
1
1
1
1
1
1
1
1
1
1
1
1
1
1
)
;
    }
    defaultFaces
    {
        type            empty;
    }
}


// ************************************************************************* //
