/*--------------------------------*- C++ -*----------------------------------*\
  =========                 |
  \\      /  F ield         | OpenFOAM: The Open Source CFD Toolbox
   \\    /   O peration     | Website:  https://openfoam.org
    \\  /    A nd           | Version:  13
     \\/     M anipulation  |
\*---------------------------------------------------------------------------*/
FoamFile
{
    format      ascii;
    class       volVectorField;
    location    "1.35";
    object      U;
}
// * * * * * * * * * * * * * * * * * * * * * * * * * * * * * * * * * * * * * //

dimensions      [0 1 -1 0 0 0 0];

internalField   nonuniform List<vector> 
2268
(
(-0.0039607 0.000971205 0)
(-0.00643015 -0.00189673 0)
(0.00897564 -0.00679804 0)
(0.0286548 -0.00896537 0)
(0.0518362 -0.00980136 0)
(0.076806 -0.00987525 0)
(0.102433 -0.00950452 0)
(0.127741 -0.00875412 0)
(0.151664 -0.00758097 0)
(0.172827 -0.00594396 0)
(0.18973 -0.0039636 0)
(0.201241 -0.00186993 0)
(0.206736 0.000129374 0)
(0.20609 0.00217794 0)
(0.199387 0.00409816 0)
(0.186806 0.00583126 0)
(0.168751 0.00736874 0)
(0.145713 0.00877167 0)
(0.11812 0.0101124 0)
(0.0863545 0.0113407 0)
(0.0513228 0.0115098 0)
(0.0175285 0.00745689 0)
(0.00490793 0.00260151 0)
(-0.000749194 0.00350656 0)
(0.00833185 -0.0059612 0)
(0.0237139 -0.0119418 0)
(0.0409078 -0.0152589 0)
(0.0607119 -0.0172083 0)
(0.0824543 -0.0182052 0)
(0.105406 -0.0184819 0)
(0.12881 -0.0180374 0)
(0.151773 -0.0167017 0)
(0.173002 -0.0142427 0)
(0.190921 -0.0107616 0)
(0.20417 -0.00663538 0)
(0.211908 -0.0022616 0)
(0.21362 0.00223987 0)
(0.209043 0.00670779 0)
(0.198196 0.0109781 0)
(0.181389 0.0149175 0)
(0.159148 0.0185234 0)
(0.132106 0.0217988 0)
(0.101024 0.0244938 0)
(0.0668693 0.0252026 0)
(0.0332041 0.0199142 0)
(0.00850911 0.00788313 0)
(0.00684147 -0.00093683 0)
(0.019659 -0.0125714 0)
(0.0344323 -0.018859 0)
(0.0496507 -0.0229911 0)
(0.0669574 -0.0258125 0)
(0.086199 -0.0274802 0)
(0.106888 -0.028152 0)
(0.128418 -0.0278203 0)
(0.150095 -0.0262673 0)
(0.170774 -0.0229544 0)
(0.188874 -0.0179251 0)
(0.202971 -0.011683 0)
(0.212066 -0.00475978 0)
(0.215461 0.00245006 0)
(0.21268 0.00972602 0)
(0.203529 0.0167824 0)
(0.188219 0.0233154 0)
(0.167314 0.0292277 0)
(0.141601 0.0344582 0)
(0.112051 0.0386226 0)
(0.079564 0.0400117 0)
(0.0466186 0.0345748 0)
(0.0159007 0.0195203 0)
(0.0147697 -0.00898853 0)
(0.029135 -0.0203283 0)
(0.0435516 -0.0260327 0)
(0.0573469 -0.0306896 0)
(0.0728236 -0.0343264 0)
(0.0901154 -0.0367458 0)
(0.108851 -0.0379467 0)
(0.12854 -0.0378648 0)
(0.148785 -0.0360687 0)
(0.168655 -0.0319855 0)
(0.186555 -0.025538 0)
(0.201038 -0.0173196 0)
(0.211041 -0.00800286 0)
(0.215766 0.00191063 0)
(0.214563 0.012112 0)
(0.207031 0.0221721 0)
(0.193266 0.0315636 0)
(0.173859 0.0400214 0)
(0.149703 0.0473514 0)
(0.121874 0.053072 0)
(0.0911109 0.0554632 0)
(0.0588225 0.0511982 0)
(0.0245217 0.0365639 0)
(0.0223747 -0.0226558 0)
(0.036662 -0.0281949 0)
(0.0513622 -0.0325206 0)
(0.0645166 -0.03743 0)
(0.0788973 -0.0419502 0)
(0.0947237 -0.0452821 0)
(0.111811 -0.0471928 0)
(0.129823 -0.0474956 0)
(0.148541 -0.0459153 0)
(0.167271 -0.0412509 0)
(0.184546 -0.033515 0)
(0.198947 -0.0234282 0)
(0.209418 -0.0118324 0)
(0.21513 0.000736731 0)
(0.215304 0.0138776 0)
(0.209322 0.0270369 0)
(0.197129 0.0393912 0)
(0.17929 0.0504553 0)
(0.156763 0.0598855 0)
(0.130652 0.0671659 0)
(0.101549 0.0708174 0)
(0.0698002 0.0688217 0)
(0.0338575 0.0579489 0)
(0.0290967 -0.0366563 0)
(0.0422522 -0.035247 0)
(0.0588407 -0.0381899 0)
(0.0725953 -0.0430831 0)
(0.0865211 -0.0479315 0)
(0.101254 -0.0515992 0)
(0.116766 -0.0538495 0)
(0.132698 -0.0547342 0)
(0.149517 -0.0538727 0)
(0.166905 -0.0494918 0)
(0.183126 -0.041044 0)
(0.196913 -0.0294915 0)
(0.207312 -0.0158952 0)
(0.213539 -0.000892149 0)
(0.214748 0.0150445 0)
(0.210139 0.0311051 0)
(0.199453 0.0460353 0)
(0.183189 0.0590931 0)
(0.162326 0.0699059 0)
(0.137958 0.0781379 0)
(0.110465 0.0827764 0)
(0.0788729 0.0833325 0)
(0.044872 0.0789114 0)
(0.0325859 -0.0468813 0)
(0.045952 -0.0387325 0)
(0.0678485 -0.0410678 0)
(0.0833404 -0.0458869 0)
(0.0972623 -0.0513758 0)
(0.110854 -0.0560082 0)
(0.124908 -0.0592295 0)
(0.139388 -0.0607802 0)
(0.153797 -0.0599577 0)
(0.168308 -0.0553197 0)
(0.182473 -0.0462988 0)
(0.194848 -0.033739 0)
(0.20441 -0.0188038 0)
(0.210471 -0.00223873 0)
(0.212306 0.0155509 0)
(0.209043 0.0336993 0)
(0.200188 0.0507429 0)
(0.185985 0.0657289 0)
(0.167334 0.0781123 0)
(0.145272 0.0876146 0)
(0.119772 0.0936099 0)
(0.0881246 0.0974304 0)
(0.0574274 0.102933 0)
(0.0322964 -0.0739107 0)
(0.0604969 -0.0603262 0)
(0.0929402 -0.0595204 0)
(0.11606 -0.0603373 0)
(0.130923 -0.0629223 0)
(0.139896 -0.0650875 0)
(0.146525 -0.0662581 0)
(0.152641 -0.0659889 0)
(0.160646 -0.0647376 0)
(0.172459 -0.060742 0)
(0.183804 -0.0515435 0)
(0.193746 -0.0381481 0)
(0.201746 -0.0220993 0)
(0.207245 -0.00419068 0)
(0.209579 0.0152625 0)
(0.207818 0.0353583 0)
(0.201195 0.054548 0)
(0.189829 0.0717908 0)
(0.175061 0.0864481 0)
(0.158074 0.0983768 0)
(0.138338 0.10752 0)
(0.106704 0.118239 0)
(0.0958506 0.162817 0)
(-0.287075 0.0624761 0)
(-0.260469 0.00286156 0)
(-0.251246 -0.0216441 0)
(-0.217746 -0.0134624 0)
(-0.204559 -0.000723096 0)
(-0.203358 -0.00249887 0)
(-0.191699 -0.00811602 0)
(-0.171964 -0.0107672 0)
(-0.148784 -0.0119816 0)
(-0.124828 -0.0121392 0)
(-0.106019 -0.00613503 0)
(-0.103272 0.00403688 0)
(-0.106178 -0.000451779 0)
(-0.0997685 -0.0025631 0)
(-0.0916628 0.00109015 0)
(-0.0995843 0.00533322 0)
(-0.0970074 -0.00441571 0)
(-0.0661749 -0.0149912 0)
(-0.0377313 -0.0211442 0)
(-0.259501 0.13375 0)
(-0.207262 0.0229237 0)
(-0.207528 -0.0239389 0)
(-0.201619 -0.0110611 0)
(-0.205683 -0.00167974 0)
(-0.200138 -0.00586058 0)
(-0.18599 -0.0115739 0)
(-0.168314 -0.0139825 0)
(-0.150087 -0.0151809 0)
(-0.133986 -0.0140544 0)
(-0.121675 -0.00801147 0)
(-0.113065 0.000826398 0)
(-0.104874 -0.00348164 0)
(-0.0936142 -0.00597463 0)
(-0.0823736 -0.00160396 0)
(-0.0772313 0.00170454 0)
(-0.0622256 -0.0116779 0)
(-0.0371282 -0.0227941 0)
(-0.0187777 -0.0264603 0)
(-0.244037 0.207473 0)
(-0.135765 0.0287539 0)
(-0.146582 -0.0275629 0)
(-0.164309 -0.00641831 0)
(-0.179934 -0.000791806 0)
(-0.177634 -0.00881821 0)
(-0.165332 -0.0161469 0)
(-0.150202 -0.0179722 0)
(-0.13662 -0.0191867 0)
(-0.12683 -0.017096 0)
(-0.119184 -0.011534 0)
(-0.111169 -0.00350506 0)
(-0.097956 -0.00953835 0)
(-0.0815636 -0.0120739 0)
(-0.0668007 -0.00592284 0)
(-0.0525238 -0.00376998 0)
(-0.0296907 -0.0204434 0)
(-0.00851471 -0.0301185 0)
(0.00234246 -0.0321252 0)
(-0.218511 0.293923 0)
(-0.0765435 0.00481849 0)
(-0.0758515 -0.030575 0)
(-0.0959869 0.00560322 0)
(-0.127899 0.00406268 0)
(-0.12985 -0.0111513 0)
(-0.119616 -0.0221979 0)
(-0.103939 -0.0242898 0)
(-0.0947547 -0.0225754 0)
(-0.0915042 -0.015532 0)
(-0.0932656 -0.0122369 0)
(-0.0906551 -0.00701572 0)
(-0.0770013 -0.017247 0)
(-0.0604143 -0.0208278 0)
(-0.0452007 -0.0139401 0)
(-0.0279053 -0.0149906 0)
(-0.000950705 -0.0337445 0)
(0.0199213 -0.0365008 0)
(0.0264166 -0.0299245 0)
(-0.13031 0.345744 0)
(-0.0315324 -0.0203887 0)
(-0.0223625 -0.0296725 0)
(-0.0171991 0.0238592 0)
(-0.0441669 0.0112673 0)
(-0.0489007 -0.012952 0)
(-0.0447167 -0.0288763 0)
(-0.0316291 -0.0330322 0)
(-0.0187204 -0.0298441 0)
(-0.0131383 -0.0201076 0)
(-0.03117 -0.0104541 0)
(-0.0439628 -0.00404584 0)
(-0.0435639 -0.0191639 0)
(-0.0375953 -0.0244158 0)
(-0.028141 -0.0190645 0)
(-0.0128029 -0.0227825 0)
(0.00880819 -0.0417688 0)
(0.0222021 -0.040931 0)
(0.0308356 -0.0145458 0)
(-0.0570972 0.363088 0)
(0.0244448 -0.0412898 0)
(0.0182217 -0.0297869 0)
(0.0200852 0.0269195 0)
(0.0116244 0.0139431 0)
(0.00995006 -0.0118541 0)
(0.0101504 -0.0300914 0)
(0.0161532 -0.0356431 0)
(0.0250008 -0.0308925 0)
(0.0331749 -0.0184433 0)
(0.0354029 -0.00626126 0)
(0.0277276 -0.0026262 0)
(0.00827964 -0.0196172 0)
(-0.0039036 -0.0258459 0)
(-0.00459199 -0.0213722 0)
(0.00425424 -0.0281488 0)
(0.0142871 -0.0473092 0)
(0.00564723 -0.0402325 0)
(-0.0172955 -0.00359564 0)
(0.0135123 0.348227 0)
(0.0808102 -0.04339 0)
(0.0517478 -0.0263676 0)
(0.049827 0.024535 0)
(0.055075 0.0136852 0)
(0.0569535 -0.0113674 0)
(0.0558658 -0.030627 0)
(0.0577894 -0.0379904 0)
(0.0628209 -0.0337505 0)
(0.0692221 -0.0205368 0)
(0.0748895 -0.00604016 0)
(0.077856 0.00120738 0)
(0.0705346 -0.0115369 0)
(0.0559704 -0.0211677 0)
(0.0415309 -0.0224319 0)
(0.0332995 -0.0312917 0)
(0.0247463 -0.0458145 0)
(-0.0032999 -0.029191 0)
(-0.0233629 -0.0179178 0)
(0.0685804 0.318438 0)
(0.133055 -0.0451768 0)
(0.0790784 -0.0188197 0)
(0.0794665 0.0213903 0)
(0.092451 0.011193 0)
(0.0968517 -0.0113455 0)
(0.0954352 -0.0301789 0)
(0.0948302 -0.0387726 0)
(0.0968575 -0.0357175 0)
(0.101237 -0.0232419 0)
(0.106563 -0.00811334 0)
(0.111634 0.000413553 0)
(0.108583 -0.00735625 0)
(0.0960019 -0.0145956 0)
(0.0801988 -0.0163974 0)
(0.06563 -0.0250478 0)
(0.0454967 -0.0343869 0)
(0.00887169 -0.0160241 0)
(-0.00361055 -0.0224636 0)
(0.0351992 -0.105071 0)
(0.0744845 -0.089042 0)
(0.114859 -0.0810643 0)
(0.146502 -0.0761807 0)
(0.16918 -0.0742881 0)
(0.184152 -0.0750368 0)
(0.193434 -0.077278 0)
(0.199091 -0.0798944 0)
(0.20148 -0.0788651 0)
(0.200083 -0.0735308 0)
(0.199639 -0.0620924 0)
(0.201634 -0.0469412 0)
(0.20536 -0.0289683 0)
(0.209791 -0.00855367 0)
(0.214599 0.0145813 0)
(0.219903 0.040135 0)
(0.225376 0.0660585 0)
(0.229705 0.0894123 0)
(0.231789 0.107902 0)
(0.231186 0.122344 0)
(0.227817 0.13502 0)
(0.222376 0.147623 0)
(0.23237 0.159777 0)
(0.0352282 -0.158847 0)
(0.0774184 -0.137649 0)
(0.118668 -0.119813 0)
(0.152514 -0.104904 0)
(0.178112 -0.0932761 0)
(0.196034 -0.0848094 0)
(0.207579 -0.0790342 0)
(0.214299 -0.0746227 0)
(0.218094 -0.070853 0)
(0.220201 -0.0653432 0)
(0.221862 -0.0575992 0)
(0.224322 -0.0466289 0)
(0.228245 -0.0318286 0)
(0.233463 -0.0134718 0)
(0.239445 0.00714247 0)
(0.246526 0.0285251 0)
(0.254906 0.0499819 0)
(0.263429 0.0707562 0)
(0.270918 0.0888958 0)
(0.276569 0.10528 0)
(0.277854 0.119753 0)
(0.273959 0.134045 0)
(0.261556 0.128762 0)
(0.0307843 -0.208436 0)
(0.0687249 -0.182445 0)
(0.105144 -0.156706 0)
(0.13552 -0.134037 0)
(0.159352 -0.114962 0)
(0.176895 -0.0998772 0)
(0.18905 -0.0887335 0)
(0.197553 -0.0811202 0)
(0.20411 -0.0747259 0)
(0.209522 -0.0678498 0)
(0.214287 -0.0595448 0)
(0.219304 -0.049397 0)
(0.225551 -0.0361632 0)
(0.232838 -0.0193033 0)
(0.240452 -1.81096e-05 0)
(0.248802 0.0194203 0)
(0.258559 0.0393727 0)
(0.268192 0.0611905 0)
(0.276125 0.0806241 0)
(0.28204 0.0992629 0)
(0.285153 0.119999 0)
(0.282297 0.141177 0)
(0.269133 0.155286 0)
(0.0226624 -0.249861 0)
(0.0503547 -0.220391 0)
(0.0784816 -0.187864 0)
(0.102663 -0.159458 0)
(0.122751 -0.135161 0)
(0.138597 -0.115212 0)
(0.150715 -0.0999963 0)
(0.160477 -0.0903031 0)
(0.169641 -0.0832644 0)
(0.178414 -0.0753858 0)
(0.186229 -0.0662141 0)
(0.193857 -0.0566663 0)
(0.202597 -0.0446981 0)
(0.212002 -0.0281559 0)
(0.220911 -0.00809511 0)
(0.229316 0.0107127 0)
(0.23845 0.0299138 0)
(0.247612 0.0535187 0)
(0.254864 0.0754832 0)
(0.260305 0.095289 0)
(0.264546 0.120958 0)
(0.269125 0.144924 0)
(0.273446 0.167369 0)
(0.00968513 -0.274406 0)
(0.0208258 -0.24574 0)
(0.0390186 -0.209966 0)
(0.0554368 -0.179161 0)
(0.0719933 -0.152125 0)
(0.0870248 -0.129366 0)
(0.100145 -0.111198 0)
(0.111856 -0.100926 0)
(0.123649 -0.0936186 0)
(0.135002 -0.0847981 0)
(0.145533 -0.0744118 0)
(0.155294 -0.0651981 0)
(0.165153 -0.0535244 0)
(0.174799 -0.036336 0)
(0.1838 -0.0152433 0)
(0.192525 0.00319193 0)
(0.200809 0.0217452 0)
(0.209556 0.0457788 0)
(0.219027 0.06882 0)
(0.227688 0.0887283 0)
(0.238956 0.111858 0)
(0.253649 0.133294 0)
(0.271932 0.150238 0)
(-0.00770433 -0.268866 0)
(-0.0255316 -0.251082 0)
(-0.0199393 -0.220467 0)
(-0.00968114 -0.191416 0)
(0.00468747 -0.164823 0)
(0.0203098 -0.141507 0)
(0.0363664 -0.122345 0)
(0.0520722 -0.112535 0)
(0.0662811 -0.104912 0)
(0.0797249 -0.095022 0)
(0.0921299 -0.0841462 0)
(0.104211 -0.0752677 0)
(0.114779 -0.0635018 0)
(0.124304 -0.0463654 0)
(0.134679 -0.0257144 0)
(0.146422 -0.00750441 0)
(0.157396 0.0110599 0)
(0.169227 0.0339392 0)
(0.18392 0.0556192 0)
(0.200013 0.0755067 0)
(0.217913 0.0949566 0)
(0.239337 0.111436 0)
(0.264864 0.124184 0)
(-0.037217 -0.258277 0)
(-0.0967031 -0.242261 0)
(-0.106202 -0.222436 0)
(-0.095223 -0.205858 0)
(-0.0792899 -0.182054 0)
(-0.0620194 -0.15995 0)
(-0.04341 -0.141671 0)
(-0.0230931 -0.130676 0)
(-0.00478785 -0.122414 0)
(0.0121183 -0.111625 0)
(0.0288151 -0.100707 0)
(0.044983 -0.089787 0)
(0.059342 -0.0764455 0)
(0.0732472 -0.0590971 0)
(0.0883854 -0.0395337 0)
(0.10458 -0.0209689 0)
(0.120933 -0.00190574 0)
(0.138029 0.0186121 0)
(0.15689 0.0382177 0)
(0.177513 0.0562415 0)
(0.200141 0.0725571 0)
(0.225394 0.0859066 0)
(0.254181 0.0937894 0)
(-0.16018 -0.120898 0)
(-0.197295 -0.219615 0)
(-0.171939 -0.236469 0)
(-0.155262 -0.220508 0)
(-0.136761 -0.200603 0)
(-0.119401 -0.182604 0)
(-0.100174 -0.166574 0)
(-0.0796633 -0.154439 0)
(-0.0592559 -0.143983 0)
(-0.0394542 -0.131849 0)
(-0.0198105 -0.119508 0)
(-0.000988013 -0.106718 0)
(0.0169085 -0.0919761 0)
(0.0346535 -0.0749819 0)
(0.0531207 -0.0567733 0)
(0.0723182 -0.0386508 0)
(0.0920165 -0.0202638 0)
(0.112861 -0.00154218 0)
(0.135178 0.0163481 0)
(0.159032 0.0325176 0)
(0.184697 0.0465283 0)
(0.212429 0.0571588 0)
(0.242548 0.0623918 0)
(-0.243625 0.123332 0)
(-0.182639 -0.192294 0)
(-0.183245 -0.250019 0)
(-0.174127 -0.230726 0)
(-0.163495 -0.208119 0)
(-0.148461 -0.192856 0)
(-0.130315 -0.180549 0)
(-0.111651 -0.171019 0)
(-0.0918387 -0.162642 0)
(-0.0714758 -0.152568 0)
(-0.0517784 -0.140876 0)
(-0.0324961 -0.127917 0)
(-0.0132915 -0.113246 0)
(0.0063011 -0.0968319 0)
(0.0266145 -0.0794694 0)
(0.0477637 -0.0619694 0)
(0.0697975 -0.044358 0)
(0.0929606 -0.0267969 0)
(0.117536 -0.0102422 0)
(0.143707 0.00447902 0)
(0.171468 0.016804 0)
(0.200585 0.025797 0)
(0.23127 0.0294265 0)
(-0.105544 0.237981 0)
(-0.0323655 -0.221185 0)
(-0.156331 -0.263863 0)
(-0.201911 -0.229625 0)
(-0.185725 -0.212754 0)
(-0.166381 -0.203136 0)
(-0.146795 -0.191479 0)
(-0.125809 -0.182361 0)
(-0.106173 -0.173524 0)
(-0.0884343 -0.162323 0)
(-0.0701221 -0.151693 0)
(-0.0516049 -0.140173 0)
(-0.0326981 -0.127135 0)
(-0.012861 -0.112658 0)
(0.0081611 -0.0971515 0)
(0.0302308 -0.0813725 0)
(0.0533929 -0.0654567 0)
(0.0777671 -0.0495304 0)
(0.103524 -0.0345149 0)
(0.130798 -0.0212548 0)
(0.159513 -0.00989492 0)
(0.18942 -0.00121828 0)
(0.220667 0.00205873 0)
(-0.0303764 0.309844 0)
(0.106953 -0.106275 0)
(-0.0431389 -0.176451 0)
(-0.0739752 -0.218598 0)
(-0.136539 -0.224849 0)
(-0.17097 -0.214161 0)
(-0.155424 -0.19436 0)
(-0.134513 -0.183657 0)
(-0.117759 -0.179234 0)
(-0.100957 -0.174164 0)
(-0.0845148 -0.164409 0)
(-0.0669789 -0.152733 0)
(-0.0475535 -0.139538 0)
(-0.0270402 -0.125211 0)
(-0.00540328 -0.110154 0)
(0.017342 -0.0949624 0)
(0.0409652 -0.0799508 0)
(0.065757 -0.0652929 0)
(0.0919734 -0.051926 0)
(0.119592 -0.0407409 0)
(0.14854 -0.0313078 0)
(0.179365 -0.0239401 0)
(0.213099 -0.0221566 0)
(0.0472967 0.165843 0)
(0.089303 -0.0899911 0)
(0.0397445 -0.112361 0)
(0.0108065 -0.134818 0)
(-0.02219 -0.207089 0)
(-0.0330007 -0.23811 0)
(-0.0411748 -0.270517 0)
(-0.053252 -0.267103 0)
(-0.0755732 -0.223775 0)
(-0.0995943 -0.198171 0)
(-0.0989085 -0.177009 0)
(-0.0820751 -0.160664 0)
(-0.0628877 -0.1463 0)
(-0.0423716 -0.131634 0)
(-0.0206338 -0.11664 0)
(0.00246007 -0.101769 0)
(0.0265591 -0.0873973 0)
(0.0523202 -0.0732697 0)
(0.0805442 -0.0607109 0)
(0.110468 -0.0508854 0)
(0.141562 -0.0437203 0)
(0.175692 -0.0400823 0)
(0.211116 -0.0441724 0)
(0.0821924 0.036626 0)
(0.0734216 -0.0647415 0)
(0.042732 -0.105005 0)
(0.0295573 -0.133277 0)
(0.010818 -0.150474 0)
(-0.0121959 -0.202285 0)
(-0.0328407 -0.215972 0)
(-0.0587022 -0.18066 0)
(-0.080087 -0.188018 0)
(-0.0956758 -0.196602 0)
(-0.0962717 -0.223378 0)
(-0.0918831 -0.235818 0)
(-0.0852081 -0.228343 0)
(-0.0773561 -0.216309 0)
(-0.06956 -0.203421 0)
(-0.0616086 -0.190283 0)
(-0.0531092 -0.177691 0)
(-0.0435012 -0.166564 0)
(-0.0324082 -0.156819 0)
(-0.0198662 -0.148763 0)
(-0.00659457 -0.143874 0)
(0.00349126 -0.141564 0)
(0.00563574 -0.135143 0)
(0.0372957 -0.00739394 0)
(0.0387077 -0.0479505 0)
(0.0234026 -0.077048 0)
(0.00738472 -0.106538 0)
(-0.00878569 -0.141079 0)
(-0.0314934 -0.168566 0)
(-0.0627978 -0.181124 0)
(-0.0829301 -0.177062 0)
(-0.0915147 -0.160125 0)
(-0.0954055 -0.175826 0)
(-0.0969815 -0.197479 0)
(-0.102152 -0.199379 0)
(-0.107295 -0.190261 0)
(-0.111271 -0.177696 0)
(-0.114203 -0.164348 0)
(-0.116478 -0.151238 0)
(-0.117912 -0.139181 0)
(-0.118289 -0.12863 0)
(-0.117592 -0.119643 0)
(-0.116267 -0.111834 0)
(-0.114895 -0.104987 0)
(-0.116324 -0.0977337 0)
(-0.126214 -0.0865773 0)
(0.00852793 -0.0261787 0)
(0.0103025 -0.0400112 0)
(-0.00210974 -0.0631458 0)
(-0.016306 -0.0898027 0)
(-0.0336341 -0.116323 0)
(-0.0558339 -0.140695 0)
(-0.0807587 -0.153811 0)
(-0.100254 -0.155714 0)
(-0.108119 -0.1609 0)
(-0.111141 -0.172815 0)
(-0.118663 -0.184647 0)
(-0.129467 -0.185652 0)
(-0.140257 -0.178176 0)
(-0.149884 -0.166984 0)
(-0.158785 -0.154783 0)
(-0.166688 -0.142713 0)
(-0.173614 -0.131724 0)
(-0.179699 -0.122121 0)
(-0.18527 -0.113673 0)
(-0.190955 -0.105786 0)
(-0.197287 -0.0976345 0)
(-0.207012 -0.0877738 0)
(-0.22406 -0.0749827 0)
(-0.00952165 -0.0262801 0)
(-0.0119441 -0.033077 0)
(-0.0246004 -0.0515846 0)
(-0.0384903 -0.0753914 0)
(-0.0549665 -0.099704 0)
(-0.0742224 -0.12093 0)
(-0.094323 -0.135207 0)
(-0.110815 -0.143245 0)
(-0.122164 -0.15004 0)
(-0.132337 -0.161847 0)
(-0.145429 -0.172027 0)
(-0.159905 -0.173412 0)
(-0.173125 -0.166846 0)
(-0.185312 -0.156545 0)
(-0.196833 -0.145284 0)
(-0.207413 -0.134437 0)
(-0.217113 -0.124411 0)
(-0.226158 -0.115426 0)
(-0.235076 -0.107089 0)
(-0.244458 -0.0986955 0)
(-0.254401 -0.0893331 0)
(-0.267235 -0.0776613 0)
(-0.28538 -0.0628566 0)
(-0.0197023 -0.0125591 0)
(-0.0262459 -0.0210023 0)
(-0.039942 -0.0385628 0)
(-0.0540395 -0.0605641 0)
(-0.0697269 -0.0829673 0)
(-0.0869822 -0.102894 0)
(-0.104584 -0.118262 0)
(-0.120544 -0.12942 0)
(-0.134327 -0.139099 0)
(-0.148387 -0.149429 0)
(-0.16474 -0.157855 0)
(-0.181643 -0.159385 0)
(-0.196952 -0.154317 0)
(-0.210348 -0.144707 0)
(-0.222778 -0.134132 0)
(-0.234479 -0.124042 0)
(-0.245276 -0.114639 0)
(-0.255614 -0.105846 0)
(-0.265813 -0.097268 0)
(-0.276373 -0.0882702 0)
(-0.287091 -0.0780871 0)
(-0.299825 -0.0657351 0)
(-0.316317 -0.0508114 0)
(-0.0225269 0.0109473 0)
(-0.0323893 -0.00508276 0)
(-0.0471544 -0.0242398 0)
(-0.0616729 -0.0456635 0)
(-0.0769512 -0.0669215 0)
(-0.0931346 -0.0860029 0)
(-0.109646 -0.101679 0)
(-0.125568 -0.11406 0)
(-0.140755 -0.124286 0)
(-0.156366 -0.133291 0)
(-0.173464 -0.140118 0)
(-0.191464 -0.142471 0)
(-0.208206 -0.139358 0)
(-0.222605 -0.13148 0)
(-0.235348 -0.121825 0)
(-0.247071 -0.112506 0)
(-0.258037 -0.103705 0)
(-0.268419 -0.0951879 0)
(-0.278573 -0.0866076 0)
(-0.288758 -0.0774368 0)
(-0.298555 -0.0671459 0)
(-0.309677 -0.0550437 0)
(-0.32365 -0.0410908 0)
(-0.020378 0.0343207 0)
(-0.0318162 0.0123393 0)
(-0.0470359 -0.00917213 0)
(-0.061729 -0.0307455 0)
(-0.0767108 -0.0513669 0)
(-0.0922445 -0.0698411 0)
(-0.108128 -0.0854226 0)
(-0.123949 -0.0980993 0)
(-0.139639 -0.108383 0)
(-0.155662 -0.116622 0)
(-0.172477 -0.122335 0)
(-0.189716 -0.124696 0)
(-0.20651 -0.123184 0)
(-0.221636 -0.117691 0)
(-0.234543 -0.109489 0)
(-0.245956 -0.101231 0)
(-0.256421 -0.0930789 0)
(-0.266218 -0.0850229 0)
(-0.275535 -0.0767398 0)
(-0.284526 -0.0678595 0)
(-0.292737 -0.0580065 0)
(-0.301694 -0.0467362 0)
(-0.312997 -0.0341799 0)
(-0.0159967 0.05515 0)
(-0.0268445 0.029028 0)
(-0.0411717 0.00591029 0)
(-0.055394 -0.016056 0)
(-0.0698046 -0.0363042 0)
(-0.0846527 -0.0542934 0)
(-0.0998842 -0.0696152 0)
(-0.115288 -0.0822386 0)
(-0.13079 -0.092398 0)
(-0.146529 -0.100249 0)
(-0.162599 -0.105581 0)
(-0.178788 -0.10796 0)
(-0.194487 -0.107228 0)
(-0.20896 -0.103458 0)
(-0.221682 -0.0974651 0)
(-0.232701 -0.090443 0)
(-0.242491 -0.0832339 0)
(-0.251384 -0.0758371 0)
(-0.259552 -0.0681402 0)
(-0.267119 -0.0599132 0)
(-0.273603 -0.0508614 0)
(-0.280485 -0.0407279 0)
(-0.289485 -0.029713 0)
(-0.0105451 0.0713251 0)
(-0.0192783 0.0433617 0)
(-0.031498 0.0196658 0)
(-0.044239 -0.00215258 0)
(-0.057589 -0.0220245 0)
(-0.0714311 -0.0395426 0)
(-0.0857352 -0.0545218 0)
(-0.100336 -0.0669511 0)
(-0.115122 -0.0769546 0)
(-0.130063 -0.0846228 0)
(-0.1451 -0.0898825 0)
(-0.16 -0.0925775 0)
(-0.174364 -0.0926139 0)
(-0.187682 -0.0902065 0)
(-0.19953 -0.0858555 0)
(-0.209864 -0.0803467 0)
(-0.218892 -0.0742524 0)
(-0.226818 -0.06776 0)
(-0.233823 -0.0608912 0)
(-0.240013 -0.0535288 0)
(-0.244995 -0.0454942 0)
(-0.250125 -0.0366294 0)
(-0.257251 -0.0271292 0)
(-0.00481666 0.0813683 0)
(-0.0105102 0.0541317 0)
(-0.0197776 0.0311039 0)
(-0.0301866 0.0101047 0)
(-0.0417918 -0.00904299 0)
(-0.054178 -0.0259644 0)
(-0.0671648 -0.0405033 0)
(-0.0805673 -0.0526547 0)
(-0.0942189 -0.0624953 0)
(-0.107993 -0.0700936 0)
(-0.121745 -0.0754508 0)
(-0.135251 -0.0785321 0)
(-0.148185 -0.0793685 0)
(-0.16018 -0.0781191 0)
(-0.170943 -0.075176 0)
(-0.180361 -0.0710547 0)
(-0.188511 -0.0661646 0)
(-0.195514 -0.0607332 0)
(-0.201484 -0.0548461 0)
(-0.206539 -0.0484818 0)
(-0.210322 -0.0415511 0)
(-0.214133 -0.0339578 0)
(-0.219962 -0.0258795 0)
(0.000474889 0.0849306 0)
(-0.00177497 0.0606554 0)
(-0.00761617 0.0395004 0)
(-0.0151552 0.0199809 0)
(-0.0243242 0.00206594 0)
(-0.0347893 -0.0140165 0)
(-0.0460422 -0.0279581 0)
(-0.0578689 -0.0397273 0)
(-0.0700445 -0.0493669 0)
(-0.0823738 -0.0569303 0)
(-0.0946642 -0.0624506 0)
(-0.106688 -0.0659558 0)
(-0.118175 -0.0675145 0)
(-0.128839 -0.0672909 0)
(-0.138448 -0.0655643 0)
(-0.14689 -0.0626867 0)
(-0.154166 -0.0589758 0)
(-0.160324 -0.0546385 0)
(-0.165441 -0.0497875 0)
(-0.169608 -0.0444637 0)
(-0.172554 -0.0386328 0)
(-0.175459 -0.03226 0)
(-0.180368 -0.0254501 0)
(0.00451748 0.0823212 0)
(0.00576214 0.0629135 0)
(0.00357326 0.044548 0)
(-0.00082201 0.0270033 0)
(-0.00722582 0.0106889 0)
(-0.0152189 -0.00415263 0)
(-0.0243853 -0.0172745 0)
(-0.0342987 -0.0285045 0)
(-0.0447142 -0.0378464 0)
(-0.0553824 -0.0453284 0)
(-0.0660758 -0.050988 0)
(-0.0765632 -0.0548752 0)
(-0.0866021 -0.0570717 0)
(-0.0959563 -0.0577172 0)
(-0.104433 -0.0570237 0)
(-0.111917 -0.0552454 0)
(-0.118371 -0.0526186 0)
(-0.123797 -0.0493244 0)
(-0.128239 -0.0454849 0)
(-0.131784 -0.041168 0)
(-0.134185 -0.0363819 0)
(-0.136535 -0.0311114 0)
(-0.140925 -0.0254281 0)
(0.0071587 0.0750886 0)
(0.0113749 0.0610984 0)
(0.0126482 0.0460634 0)
(0.0114413 0.030995 0)
(0.00795429 0.0165902 0)
(0.00265262 0.0032452 0)
(-0.00411276 -0.00879578 0)
(-0.0118614 -0.0192797 0)
(-0.0202941 -0.0281641 0)
(-0.0291325 -0.0354454 0)
(-0.0381234 -0.0411443 0)
(-0.0470302 -0.0453075 0)
(-0.0556239 -0.0480077 0)
(-0.0636954 -0.0493581 0)
(-0.0710731 -0.0495171 0)
(-0.0776414 -0.0486698 0)
(-0.0833396 -0.0469957 0)
(-0.0881411 -0.0446453 0)
(-0.0920653 -0.0417345 0)
(-0.0951712 -0.0383414 0)
(-0.0972668 -0.0344952 0)
(-0.0993344 -0.0302085 0)
(-0.103407 -0.0254901 0)
(0.00850263 0.0649164 0)
(0.0149239 0.0559681 0)
(0.0191022 0.044341 0)
(0.0207685 0.0319074 0)
(0.0200739 0.0196147 0)
(0.017435 0.00799068 0)
(0.0132218 -0.00268416 0)
(0.00775611 -0.0122178 0)
(0.00142669 -0.020476 0)
(-0.0054858 -0.0274051 0)
(-0.0127041 -0.0329928 0)
(-0.0199961 -0.0372772 0)
(-0.0271427 -0.0403122 0)
(-0.0339489 -0.0421823 0)
(-0.0402539 -0.0430033 0)
(-0.0459398 -0.0429076 0)
(-0.0509304 -0.042029 0)
(-0.0551796 -0.0404882 0)
(-0.0586829 -0.0383873 0)
(-0.061492 -0.0358036 0)
(-0.0634289 -0.0327817 0)
(-0.0653748 -0.02933 0)
(-0.0693489 -0.0254432 0)
(0.0088643 0.0532606 0)
(0.0166648 0.0484698 0)
(0.0229762 0.0399908 0)
(0.0269546 0.0301483 0)
(0.0286585 0.0200064 0)
(0.0284082 0.0101646 0)
(0.0265473 0.000956174 0)
(0.0233549 -0.00742826 0)
(0.0191471 -0.0148493 0)
(0.0141928 -0.0212352 0)
(0.00875434 -0.0265488 0)
(0.00306775 -0.0307893 0)
(-0.00264987 -0.0339837 0)
(-0.00820291 -0.0361811 0)
(-0.0134479 -0.0374667 0)
(-0.0182639 -0.0379338 0)
(-0.0225655 -0.0376784 0)
(-0.0262918 -0.0367925 0)
(-0.0294239 -0.0353612 0)
(-0.03199 -0.0334574 0)
(-0.0338329 -0.0311196 0)
(-0.0357554 -0.0283756 0)
(-0.0396513 -0.0251715 0)
(0.00861098 0.0412285 0)
(0.0170491 0.0395673 0)
(0.0246758 0.0337685 0)
(0.030285 0.0262945 0)
(0.033837 0.0182102 0)
(0.0355398 0.0101247 0)
(0.0356739 0.00239262 0)
(0.0344897 -0.00478059 0)
(0.032223 -0.0112577 0)
(0.0291211 -0.0169512 0)
(0.0254083 -0.0218122 0)
(0.0213001 -0.0258211 0)
(0.0169906 -0.0289836 0)
(0.012656 -0.0313244 0)
(0.00844655 -0.0328886 0)
(0.00448241 -0.0337358 0)
(0.000856787 -0.0339312 0)
(-0.00235119 -0.0335422 0)
(-0.0051063 -0.0326348 0)
(-0.0074339 -0.0312672 0)
(-0.00918852 -0.0294813 0)
(-0.0110791 -0.0272965 0)
(-0.0149263 -0.0246571 0)
(0.00802313 0.0295381 0)
(0.0165457 0.030083 0)
(0.0247643 0.02644 0)
(0.0313378 0.0210073 0)
(0.0361447 0.0147791 0)
(0.039289 0.00833173 0)
(0.040978 0.00201365 0)
(0.0414147 -0.00396242 0)
(0.040787 -0.00945906 0)
(0.0392929 -0.0143847 0)
(0.0371195 -0.0186844 0)
(0.0344511 -0.0223252 0)
(0.0314591 -0.0252954 0)
(0.0282997 -0.0276007 0)
(0.02511 -0.0292624 0)
(0.022005 -0.0303136 0)
(0.0190796 -0.0307953 0)
(0.0164127 -0.0307512 0)
(0.0140472 -0.0302262 0)
(0.0119858 -0.0292627 0)
(0.0103696 -0.0279011 0)
(0.00852984 -0.0261579 0)
(0.00485244 -0.0239439 0)
(0.00726787 0.0185917 0)
(0.0155151 0.0206154 0)
(0.0237877 0.0186467 0)
(0.0307761 0.0149008 0)
(0.0363054 0.0102719 0)
(0.0403979 0.00528401 0)
(0.0431932 0.000262033 0)
(0.0448409 -0.00458779 0)
(0.0454896 -0.00912594 0)
(0.0452912 -0.0132649 0)
(0.0443974 -0.0169475 0)
(0.0429585 -0.020134 0)
(0.0411181 -0.0228019 0)
(0.0390099 -0.0249429 0)
(0.0367546 -0.0265608 0)
(0.0344574 -0.0276693 0)
(0.0322099 -0.0282894 0)
(0.0300913 -0.0284467 0)
(0.0281524 -0.0281708 0)
(0.0264005 -0.0274915 0)
(0.0249689 -0.0264393 0)
(0.0232853 -0.0250274 0)
(0.0198191 -0.0231309 0)
(0.00643493 0.00860167 0)
(0.0142013 0.0115472 0)
(0.0221767 0.0108468 0)
(0.0291903 0.00845516 0)
(0.0350317 0.00516174 0)
(0.0396641 0.00143256 0)
(0.043171 -0.00243925 0)
(0.0456522 -0.00626496 0)
(0.047223 -0.00990581 0)
(0.0479978 -0.0132827 0)
(0.0480973 -0.0163376 0)
(0.0476413 -0.0190286 0)
(0.0467463 -0.0213273 0)
(0.0455235 -0.0232166 0)
(0.0440757 -0.0246886 0)
(0.0424958 -0.0257436 0)
(0.0408674 -0.0263879 0)
(0.0392667 -0.0266332 0)
(0.0377436 -0.0264955 0)
(0.036315 -0.0259936 0)
(0.0351108 -0.0251468 0)
(0.0336024 -0.0239632 0)
(0.0304333 -0.0223089 0)
(0.00558567 -0.000319271 0)
(0.0127599 0.00310361 0)
(0.0202476 0.0033313 0)
(0.027045 0.0020015 0)
(0.0329198 -0.000200253 0)
(0.0377902 -0.00286821 0)
(0.0416943 -0.00574225 0)
(0.0446984 -0.00865008 0)
(0.0468849 -0.0114732 0)
(0.0483418 -0.0141366 0)
(0.0491632 -0.0165836 0)
(0.0494441 -0.0187722 0)
(0.0492782 -0.0206711 0)
(0.0487564 -0.0222579 0)
(0.0479643 -0.0235175 0)
(0.0469813 -0.0244413 0)
(0.0458815 -0.0250258 0)
(0.0447346 -0.0252721 0)
(0.0435901 -0.0251859 0)
(0.0424646 -0.0247754 0)
(0.0414777 -0.0240515 0)
(0.0401753 -0.0230135 0)
(0.0373012 -0.0215171 0)
(0.00475615 -0.00820037 0)
(0.0112976 -0.00463224 0)
(0.0182218 -0.00375709 0)
(0.024679 -0.00427274 0)
(0.0304165 -0.00559217 0)
(0.0353196 -0.00736579 0)
(0.0393943 -0.00937325 0)
(0.0426818 -0.0114692 0)
(0.045239 -0.0135566 0)
(0.047135 -0.0155642 0)
(0.0484437 -0.0174387 0)
(0.0492409 -0.0191389 0)
(0.0496023 -0.0206325 0)
(0.0496014 -0.0218937 0)
(0.0493088 -0.022903 0)
(0.0487907 -0.0236458 0)
(0.0481111 -0.0241124 0)
(0.0473325 -0.0242968 0)
(0.0464992 -0.0241968 0)
(0.0456318 -0.0238115 0)
(0.0448454 -0.0231433 0)
(0.0437139 -0.0221865 0)
(0.0411639 -0.020777 0)
(0.00399449 -0.0150544 0)
(0.00990617 -0.0116658 0)
(0.0162738 -0.0103776 0)
(0.0223447 -0.0102724 0)
(0.0278487 -0.0108676 0)
(0.0326495 -0.0118765 0)
(0.0367307 -0.0131299 0)
(0.0401168 -0.0145122 0)
(0.0428526 -0.0159398 0)
(0.0449925 -0.0173502 0)
(0.0465961 -0.0186943 0)
(0.0477248 -0.019932 0)
(0.0484395 -0.0210301 0)
(0.0487996 -0.0219607 0)
(0.048862 -0.0227012 0)
(0.0486811 -0.0232336 0)
(0.0483109 -0.0235442 0)
(0.0478057 -0.0236228 0)
(0.0472076 -0.0234616 0)
(0.0465346 -0.0230526 0)
(0.0458865 -0.0223918 0)
(0.0449111 -0.0214631 0)
(0.042623 -0.0200898 0)
(0.00334538 -0.0209614 0)
(0.00869792 -0.0180163 0)
(0.0145583 -0.0165126 0)
(0.0202364 -0.0159325 0)
(0.0254429 -0.0159218 0)
(0.0300316 -0.0162736 0)
(0.0339832 -0.0168659 0)
(0.0373194 -0.0176139 0)
(0.0400783 -0.0184507 0)
(0.0423058 -0.0193217 0)
(0.0440506 -0.0201809 0)
(0.045362 -0.0209886 0)
(0.0462885 -0.0217106 0)
(0.0468769 -0.0223171 0)
(0.0471717 -0.0227831 0)
(0.0472163 -0.0230889 0)
(0.0470547 -0.023219 0)
(0.046734 -0.0231614 0)
(0.0462899 -0.0229048 0)
(0.0457425 -0.0224369 0)
(0.0451891 -0.021745 0)
(0.0442995 -0.0208094 0)
(0.0422618 -0.0194293 0)
(0.00286537 -0.0261131 0)
(0.0077802 -0.0237749 0)
(0.0132036 -0.0221976 0)
(0.0184655 -0.0212332 0)
(0.0232888 -0.0206849 0)
(0.0275478 -0.0204453 0)
(0.0312394 -0.0204478 0)
(0.0343932 -0.020634 0)
(0.0370461 -0.0209485 0)
(0.0392363 -0.0213401 0)
(0.0410021 -0.0217639 0)
(0.0423811 -0.0221798 0)
(0.0434099 -0.0225518 0)
(0.0441233 -0.0228482 0)
(0.0445542 -0.0230424 0)
(0.044735 -0.023114 0)
(0.0447005 -0.0230479 0)
(0.0444893 -0.0228321 0)
(0.0441339 -0.0224547 0)
(0.0436529 -0.0218997 0)
(0.0431253 -0.021149 0)
(0.0422972 -0.0201738 0)
(0.0404415 -0.0187599 0)
(0.00260802 -0.0307609 0)
(0.0072497 -0.0291109 0)
(0.0122406 -0.0274681 0)
(0.0169864 -0.0261039 0)
(0.0212841 -0.0250346 0)
(0.0250684 -0.0242569 0)
(0.0283688 -0.0237445 0)
(0.0312244 -0.02345 0)
(0.0336675 -0.0233185 0)
(0.0357253 -0.0232977 0)
(0.0374227 -0.0233414 0)
(0.0387848 -0.0234086 0)
(0.0398358 -0.0234621 0)
(0.040599 -0.0234682 0)
(0.0410964 -0.0233994 0)
(0.04135 -0.0232354 0)
(0.0413848 -0.0229633 0)
(0.0412318 -0.0225734 0)
(0.0409171 -0.0220551 0)
(0.0404597 -0.0213901 0)
(0.0399383 -0.0205555 0)
(0.0391157 -0.0195193 0)
(0.0374348 -0.0180464 0)
(0.00265052 -0.0352171 0)
(0.00710104 -0.0341052 0)
(0.011486 -0.0322088 0)
(0.015502 -0.0303627 0)
(0.019085 -0.0287961 0)
(0.0222489 -0.0275628 0)
(0.0250489 -0.0266383 0)