/*--------------------------------*- C++ -*----------------------------------*\
  =========                 |
  \\      /  F ield         | OpenFOAM: The Open Source CFD Toolbox
   \\    /   O peration     | Website:  https://openfoam.org
    \\  /    A nd           | Version:  13
     \\/     M anipulation  |
\*---------------------------------------------------------------------------*/
FoamFile
{
    format      ascii;
    class       volScalarField;
    location    "0.95";
    object      alpha.water;
}
// * * * * * * * * * * * * * * * * * * * * * * * * * * * * * * * * * * * * * //

dimensions      [];

internalField   nonuniform List<scalar> 
2268
(
1.28318e-11
2.62017e-11
2.99426e-11
2.87227e-11
2.68949e-11
2.6537e-11
2.90204e-11
3.58556e-11
4.58647e-11
5.82465e-11
7.32408e-11
9.17264e-11
1.15834e-10
1.49019e-10
1.96665e-10
2.65683e-10
3.71738e-10
5.41713e-10
9.05729e-10
1.47291e-09
2.19977e-09
2.5566e-09
2.62039e-09
2.66826e-11
6.25763e-11
9.19989e-11
1.11663e-10
1.19183e-10
1.20442e-10
1.27607e-10
1.54573e-10
1.87177e-10
2.26171e-10
2.64743e-10
2.98871e-10
3.27615e-10
3.50898e-10
3.86805e-10
4.61913e-10
6.18414e-10
9.79121e-10
1.69014e-09
2.55094e-09
3.20445e-09
3.18788e-09
2.69492e-09
2.54006e-11
7.02004e-11
1.30219e-10
2.21994e-10
3.30864e-10
4.36691e-10
5.27266e-10
6.15058e-10
7.55975e-10
9.20548e-10
1.02832e-09
1.1069e-09
1.12058e-09
1.05325e-09
8.33517e-10
6.23183e-10
6.46256e-10
1.30405e-09
2.39354e-09
3.32253e-09
4.37534e-09
4.38659e-09
4.20276e-09
1.61576e-11
4.84898e-11
1.05899e-10
2.03856e-10
3.36005e-10
5.67353e-10
8.44759e-10
1.30345e-09
2.014e-09
2.43954e-09
2.54715e-09
2.53484e-09
2.411e-09
2.43344e-09
1.72518e-09
6.14855e-10
2.68455e-10
4.28639e-10
8.57447e-10
1.4033e-09
1.64076e-09
2.36923e-09
2.40819e-09
2.78205e-11
7.27248e-11
9.40182e-11
1.1737e-10
2.15595e-10
4.01554e-10
9.9997e-10
2.44439e-09
3.79231e-09
7.1871e-09
1.01932e-08
1.19935e-08
1.39683e-08
1.41329e-08
1.14059e-08
-5.75701e-12
5.61482e-13
-3.56265e-12
-2.14246e-12
-1.04565e-11
6.53303e-13
1.74301e-19
0.000128735
1.82269e-11
1.89259e-11
4.11781e-11
4.63765e-11
5.51971e-10
4.87288e-09
4.47043e-08
5.43215e-08
0.00136205
0.0106769
0.0286057
0.0537818
0.0833783
0.114926
0.147892
0.181247
0.213232
0.241435
0.263407
0.27989
0.298959
0.356996
0.413281
1.66579e-11
6.07794e-10
1.68246e-08
1.77004e-08
0.033601
0.113005
0.214977
0.347599
0.484849
0.595947
0.686076
0.758866
0.815008
0.857971
0.892069
0.919252
0.940254
0.955483
0.965606
0.973112
0.978884
0.971815
0.943926
5.3062e-08
0.00577054
0.221235
0.497204
0.729574
0.875896
0.963539
0.997929
1
1
1
1
1
1
1
0.999999
0.999999
0.999996
0.999987
0.999934
0.999857
0.899601
0.609622
3.40356e-07
1.18381e-07
1.65337e-08
1.22302e-07
0.0347611
0.0225254
0.000934005
1.44363e-13
2.28695e-14
0
-3.71241e-27
1.94294e-24
1.33244e-06
1.48976e-05
2.88865e-05
3.07617e-05
0.0141494
0.0966029
0.128108
3.36514e-07
1.18004e-07
0.141004
0.337057
0.514134
0.486969
0.414931
0.231801
0.0708763
0.0286331
0.0126595
6.46809e-08
2.60019e-13
1.73681e-12
2.86716e-06
0.00322415
0.0389644
0.124267
0.127887
3.62018e-07
0.283308
0.750866
0.848465
0.93975
0.929842
0.852095
0.690196
0.554103
0.511904
0.455245
0.163441
0.0260431
0.0136588
2.65762e-05
0.00689338
0.0501057
0.097936
0.0080916
0.160675
0.795253
0.944766
0.996196
0.999728
0.999732
0.999733
0.989669
0.945915
0.945595
0.968267
0.624301
0.149812
0.106304
0.0145216
0.00205077
0.0333389
0.0372517
2.55173e-06
0.887899
0.966825
0.995977
0.998026
0.999488
0.999733
0.999733
0.999734
0.999733
0.999733
0.999732
0.993389
0.66708
0.322249
0.0714952
0.000637638
0.010273
0.0326825
4.0902e-06
0.572858
0.694536
0.763764
0.838253
0.909951
0.980416
0.99899
0.999733
0.999733
0.999732
0.999681
0.999226
0.992194
0.595562
0.101439
0.000674704
0.0204714
0.21593
5.14149e-06
0.125516
0.160162
0.112684
0.151507
0.225902
0.448388
0.763573
0.988859
0.999732
0.999732
0.999534
0.999341
0.980738
0.470133
0.0695811
0.000726394
0.0431844
0.210329
0.00356986
5.81894e-20
8.64483e-20
7.28112e-19
1.12136e-18
6.39808e-19
0.000523922
0.12585
0.566799
0.997986
0.999703
0.99972
0.99964
0.915109
0.240821
0.00076693
0.000788485
0.0976283
0.224155
0.0123875
0.439538
0.827716
0.962135
0.99696
1
1
1
1
1
1
1
1
1
1
1
1
1
1
0.999999
0.998417
0.890695
0.368735
0.0915887
0.998108
1
1
1
1
1
1
1
1
1
1
1
1
1
1
1
0.999987
0.995629
0.946612
0.605672
0.103083
9.92617e-26
-8.45012e-13
1
1
1
1
1
1
1
1
1
1
1
1
1
1
0.99956
0.989492
0.87303
0.482934
0.0537651
1.02341e-10
0.000133504
4.89502e-09
6.44757e-09
1
1
1
1
1
1
1
1
1
1
1
1
1
0.988891
0.695972
0.313682
0.00326958
0.00268287
0.000826465
3.16481e-05
3.59672e-11
6.86922e-10
8.1862e-10
1
1
1
1
1
1
1
1
1
1
1
0.937505
0.587519
0.356156
0.0134144
-7.34712e-19
1.21996e-21
-1.10227e-21
1.51628e-10
5.6922e-06
9.3619e-12
1.71254e-10
2.74066e-10
1
1
1
1
1
1
1
1
1
0.960084
0.627079
0.446478
0.0305949
3.1225e-19
9.88235e-14
4.33672e-12
9.97818e-12
2.13205e-10
1.12766e-09
6.26987e-09
4.48729e-10
2.55687e-10
2.79971e-10
1
1
1
1
1
1
1
0.994599
0.790744
0.534194
0.125065
0.016578
-1.63751e-11
-1.2445e-19
-2.56963e-09
-1.30614e-09
3.31936e-27
1.06505e-10
1.93048e-10
4.76127e-11
1.03744e-10
1.12184e-10
1.07669e-10
0.616407
0.67852
0.70589
0.686298
0.632642
0.580578
0.518934
0.384014
0.1942
0.0590763
-5.33372e-06
-2.62708e-06
5.86108e-07
3.02978e-06
1.18821e-06
1.63323e-06
6.62255e-07
1.57281e-07
1.20389e-08
4.07015e-11
8.9558e-11
1.03753e-10
7.33689e-11
0.013004
0.0252557
0.0331349
0.0279161
0.0152355
0.00628402
0.00205922
0.00344056
6.0963e-08
0.00027938
0.000335027
0.000154739
6.0424e-05
9.74922e-06
4.09918e-23
6.70531e-07
1.86242e-07
3.31271e-10
3.18358e-10
9.43215e-10
2.16471e-09
1.33255e-09
2.6134e-10
1.69111e-08
1.68509e-08
-4.18005e-09
-4.40217e-08
-1.30613e-09
1.93639e-21
-5.03617e-21
1.02688e-13
-1.02688e-13
1.08945e-05
0.000163568
9.92516e-05
2.04123e-06
1.20751e-08
7.87786e-32
7.8129e-11
4.29043e-08
1.14668e-07
7.95705e-08
2.57414e-08
2.40007e-08
7.38493e-09
1.06531e-09
1.77015e-08
2.51791e-08
6.51954e-08
4.82134e-08
1.70631e-08
1.61384e-10
1.45829e-12
1.80124e-10
2.81814e-10
2.42328e-11
3.57209e-11
1.57897e-06
6.50427e-10
2.37365e-09
7.40495e-09
4.02069e-08
2.13086e-07
2.82862e-07
2.70438e-07
1.39409e-07
2.99719e-08
8.39143e-10
7.15586e-10
1.94481e-08
8.75685e-09
5.60951e-09
5.37068e-09
1.31009e-08
3.35094e-09
1.34978e-09
1.14145e-09
2.3246e-09
1.61166e-09
2.10377e-10
2.21978e-10
6.94454e-10
1.78559e-09
2.22164e-09
8.71314e-09
4.74399e-08
1.3723e-07
6.39932e-07
1.05103e-06
5.81792e-07
2.17416e-08
1.12583e-08
1.58968e-08
7.26938e-09
3.41414e-09
3.03933e-09
5.86571e-09
4.79685e-09
4.5595e-09
2.10812e-09
3.48967e-09
3.98613e-09
1.98599e-09
1.36301e-09
1.31764e-09
1.30259e-09
2.95504e-09
1.38712e-08
2.54817e-08
4.31853e-08
3.20103e-07
1.30422e-06
2.56848e-06
1.89914e-06
1.21224e-07
1.04217e-08
3.98139e-09
2.00676e-09
1.16708e-09
2.36797e-09
3.72385e-09
4.05696e-09
2.74896e-09
3.7567e-09
4.32963e-09
4.01528e-09
2.43215e-09
2.17344e-09
1.24781e-09
7.69742e-10
3.11001e-09
1.63005e-08
3.71291e-08
4.30728e-08
2.08417e-07
2.7629e-06
3.70964e-06
3.2774e-06
4.97762e-09
2.20198e-09
1.02086e-09
3.67801e-10
7.33481e-10
1.61351e-09
2.69669e-09
2.28551e-09
3.44013e-09
4.16813e-09
3.92878e-09
2.71235e-09
2.10186e-09
1.39647e-09
5.51549e-10
5.19189e-10
1.76916e-09
2.62091e-08
4.60006e-08
4.05316e-08
4.96252e-08
2.36553e-06
4.7221e-06
3.17503e-09
1.07776e-09
4.453e-10
1.36418e-10
1.68238e-10
3.32485e-10
8.59933e-10
1.27898e-09
2.59761e-09
3.27862e-09
3.16712e-09
2.34937e-09
1.49e-09
8.52884e-10
4.36799e-10
4.1154e-10
2.53545e-10
2.09472e-09
2.98783e-08
4.32328e-08
2.90273e-08
2.2492e-09
1.59841e-06
1.56119e-09
5.35057e-10
2.122e-10
7.47491e-11
4.4953e-11
7.7742e-11
2.02644e-10
4.19479e-10
9.513e-10
1.39575e-09
1.58506e-09
1.401e-09
9.10381e-10
4.12808e-10
2.05971e-10
2.84267e-10
2.54328e-10
4.15768e-10
1.971e-09
1.13802e-08
1.12548e-08
2.50379e-09
1.29031e-09
7.87331e-10
2.82388e-10
1.09885e-10
3.49773e-11
2.02705e-11
2.60262e-11
5.06447e-11
1.03104e-10
2.84261e-10
5.44766e-10
6.56324e-10
6.38727e-10
4.58257e-10
2.06938e-10
1.09287e-10
1.32968e-10
1.9431e-10
3.55342e-10
4.78601e-10
2.20674e-10
2.16992e-10
1.54271e-10
8.10343e-09
3.31088e-10
1.24089e-10
4.75026e-11
1.74734e-11
9.11883e-12
8.45367e-12
1.30473e-11
2.55949e-11
8.47261e-11
1.89645e-10
2.67561e-10
2.75018e-10
2.13873e-10
1.06163e-10
6.42033e-11
7.07362e-11
1.19708e-10
2.46108e-10
3.49332e-10
3.40497e-10
2.71804e-10
1.49724e-10
2.05417e-09
1.22835e-10
4.89112e-11
1.87971e-11
7.38922e-12
3.70576e-12
2.79808e-12
3.17583e-12
6.62411e-12
2.23741e-11
5.42091e-11
8.81867e-11
9.67885e-11
8.01033e-11
4.50147e-11
3.41652e-11
4.12871e-11
7.27927e-11
1.48988e-10
2.34033e-10
2.6791e-10
2.525e-10
2.30972e-10
5.0574e-10
3.98763e-11
1.70542e-11
6.7084e-12
2.77332e-12
1.36339e-12
9.04246e-13
7.15607e-13
1.40539e-12
4.96204e-12
1.27656e-11
2.2792e-11
2.75427e-11
2.42052e-11
1.67902e-11
1.69643e-11
2.5262e-11
4.23572e-11
8.61564e-11
1.41127e-10
1.75572e-10
1.82445e-10
1.81293e-10
2.61848e-10
1.1644e-11
5.21297e-12
2.11049e-12
9.06621e-13
4.4385e-13
2.71935e-13
1.63851e-13
2.32085e-13
8.52536e-13
2.37844e-12
4.73012e-12
6.41877e-12
6.20127e-12
6.04927e-12
8.46683e-12
1.4522e-11
2.44252e-11
4.90559e-11
8.0612e-11
1.04716e-10
1.13659e-10
1.2119e-10
1.56773e-10
2.5775e-12
1.37387e-12
5.80368e-13
2.5665e-13
1.25592e-13
7.33355e-14
3.81254e-14
3.38368e-14
1.13262e-13
3.49271e-13
7.92217e-13
1.254e-12
1.49932e-12
2.19084e-12
4.01988e-12
7.58814e-12
1.35998e-11
2.64167e-11
4.30296e-11
5.73601e-11
6.60306e-11
6.95046e-11
8.99641e-11
5.0012e-13
3.13756e-13
1.38214e-13
6.31067e-14
3.0749e-14
1.73384e-14
8.4105e-15
4.95212e-15
1.22843e-14
4.19191e-14
1.11443e-13
2.22372e-13
3.80812e-13
8.05361e-13
1.76213e-12
3.58695e-12
6.78614e-12
1.29275e-11
2.09615e-11
2.85261e-11
3.37059e-11
3.94349e-11
4.78462e-11
9.41974e-14
6.2059e-14
2.8396e-14
1.33727e-14
6.55333e-15
3.56488e-15
1.67061e-15
7.66139e-16
1.21511e-15
4.53133e-15
1.48239e-14
4.11803e-14
1.05177e-13
2.82967e-13
6.89025e-13
1.49214e-12
2.95193e-12
5.60476e-12
9.12074e-12
1.2666e-11
1.57049e-11
1.79658e-11
2.33379e-11
1.52795e-14
1.05543e-14
5.05026e-15
2.43807e-15
1.20745e-15
6.40778e-16
2.90984e-16
1.19607e-16
1.3656e-16
5.53943e-16
2.30196e-15
8.76606e-15
2.95008e-14
9.00827e-14
2.35422e-13
5.37191e-13
1.10592e-12
2.11717e-12
3.4814e-12
4.93574e-12
6.0874e-12
8.35284e-12
1.02188e-11
2.08515e-15
1.54286e-15
7.8135e-16
3.853e-16
1.91414e-16
1.00275e-16
4.43826e-17
1.77765e-17
2.1459e-17
9.5476e-17
4.58336e-16
2.03571e-15
7.78734e-15
2.53467e-14
6.96723e-14
1.66052e-13
3.54427e-13
6.88232e-13
1.14765e-12
1.66007e-12
2.15347e-12
2.53962e-12
3.24275e-12
2.53659e-16
1.97423e-16
1.05854e-16
5.30699e-17
2.63246e-17
1.35637e-17
5.91953e-18
2.49359e-18
4.33905e-18
2.06737e-17
1.01753e-16
4.65559e-16
1.86128e-15
6.25221e-15
1.7813e-14
4.39267e-14
9.6697e-14
1.90631e-13
3.22135e-13
4.74101e-13
5.95578e-13
8.47643e-13
9.2634e-13
2.84054e-17
2.28002e-17
1.26482e-17
6.39423e-18
3.16635e-18
1.59164e-18
6.83827e-19
3.41239e-19
9.18506e-19
4.52172e-18
2.18729e-17
9.86005e-17
3.96746e-16
1.34938e-15
3.9341e-15
9.93283e-15
2.23766e-14
4.46277e-14
7.60153e-14
1.13208e-13
1.48835e-13
1.32891e-13
1.66717e-13
2.94154e-18
2.41153e-18
1.34002e-18
6.77629e-19
3.33848e-19
1.6311e-19
6.86002e-20
4.69296e-20
1.81509e-19
9.04166e-19
4.28102e-18
1.88136e-17
7.49223e-17
2.54805e-16
7.51087e-16
1.91955e-15
4.3804e-15
8.7725e-15
1.49208e-14
2.22962e-14
2.98827e-14
2.85835e-14
2.48373e-14
2.80354e-19
2.31247e-19
1.26441e-19
6.35697e-20
3.0919e-20
1.46219e-20
6.07757e-21
6.50504e-21
3.22122e-20
1.60151e-19
7.45328e-19
3.1923e-18
1.24897e-17
4.21165e-17
1.24044e-16
3.1711e-16
7.24099e-16
1.44101e-15
2.41761e-15
3.58196e-15
4.70823e-15
3.11445e-15
2.95621e-15
2.43927e-20
1.9867e-20
1.07658e-20
5.35032e-21
2.54011e-21
1.15136e-21
4.91696e-22
8.87663e-22
4.87002e-21
2.48568e-20
1.14333e-19
4.786e-19
1.83447e-18
6.09537e-18
1.77285e-17
4.45179e-17
1.00497e-16
1.97947e-16
3.22076e-16
4.65675e-16
5.78462e-16
4.43897e-16
2.78136e-16
1.92969e-21
1.53184e-21
7.51693e-22
3.65464e-22
1.71378e-22
7.28005e-23
3.40957e-23
1.10794e-22
6.38343e-22
3.38073e-21
1.54075e-20
6.32368e-20
2.37232e-19
7.72449e-19
2.19349e-18
5.34588e-18
1.18883e-17
2.25699e-17
3.52113e-17
4.79697e-17
5.71475e-17
3.00968e-17
2.05902e-17
1.39278e-22
1.07148e-22
4.31589e-23
2.02614e-23
9.75529e-24
3.64289e-24
2.27524e-24
1.24808e-23
7.66958e-23
4.04557e-22
1.82601e-21
7.36513e-21
2.69995e-20
8.57551e-20
2.35211e-19
5.5741e-19
1.18726e-18
2.14917e-18
3.16983e-18
4.01759e-18
2.91256e-18
1.77936e-18
9.78276e-19
9.3724e-24
6.96936e-24
2.54193e-24
1.13836e-24
5.43747e-25
1.67519e-25
1.87576e-25
1.32441e-24
8.41841e-24
4.28095e-23
1.9108e-22
7.57891e-22
2.70842e-21
8.35284e-21
2.19214e-20
5.01184e-20
1.00609e-19
1.72444e-19
2.36542e-19
2.75629e-19
1.43673e-19
6.5499e-20
3.02678e-20
4.50376e-25
3.22401e-25
1.60716e-25
6.77762e-26
2.78081e-26
6.89172e-27
1.71795e-26
1.31725e-25
8.21101e-25
4.03486e-24
1.77629e-23
6.91908e-23
2.40622e-22
7.1618e-22
1.78511e-21
3.89103e-21
7.29853e-21
1.17901e-20
1.47835e-20
1.55116e-20
7.5847e-21
2.35271e-21
5.13601e-22
2.71548e-26
1.8554e-26
9.69317e-27
3.73725e-27
1.124e-27
1.78174e-28
1.51449e-27
1.18516e-26
7.11886e-26
3.41824e-25
1.478e-24
5.63367e-24
1.9031e-23
5.44017e-23
1.28038e-22
2.63954e-22
4.62507e-22
6.91754e-22
7.84056e-22
7.24662e-22
3.28106e-22
5.86959e-23
6.08855e-24
1.79301e-27
1.18576e-27
5.42143e-28
1.833e-28
3.081e-29
-3.05548e-30
1.24989e-28
9.57997e-28
5.5797e-27
2.62794e-26
1.11008e-25
4.12489e-25
1.3509e-24
3.69086e-24
8.17255e-24
1.58511e-23
2.58369e-23
3.54274e-23
3.58524e-23
2.86577e-23
1.07895e-23
1.15097e-24
4.73016e-26
9.24421e-29
5.86579e-29
2.78091e-29
7.55058e-30
-2.08164e-31
-8.06093e-31
9.61609e-30
7.05897e-29
4.01161e-28
1.8501e-27
7.59287e-27
2.745e-26
8.85107e-26
2.25706e-25
4.6961e-25
8.53579e-25
1.28767e-24
1.61878e-24
1.44104e-24
9.7284e-25
2.81903e-25
1.70217e-26
1.7443e-27
4.51008e-30
2.76154e-30
1.29582e-30
2.26436e-31
-1.19079e-31
-6.69792e-32
6.89489e-31
4.80553e-30
2.67041e-29
1.20234e-28
4.77147e-28
1.67671e-27
3.59384e-27
1.25659e-26
2.45752e-26
4.17337e-26
5.82538e-26
5.74432e-26
5.14523e-26
2.91576e-26
6.09275e-27
3.21417e-28
4.11746e-28
2.0756e-31
1.24095e-31
5.55455e-32
1.6994e-33
-1.1636e-32
-4.01537e-33
4.61074e-32
3.045e-31
1.65644e-30
7.26064e-30
2.77689e-29
9.47581e-29
2.55668e-28
6.43686e-28
1.18325e-27
1.87306e-27
2.42007e-27
2.23412e-27
1.68894e-27
7.88771e-28
1.19868e-28
2.99693e-29
1.84033e-28
8.96256e-33
5.33073e-33
2.20109e-33
-4.25442e-34
-8.35957e-34
-1.93783e-34
2.87962e-33
1.80372e-32
9.6174e-32
4.09396e-31
1.50618e-30
4.98755e-30
1.25562e-29
3.0591e-29
5.28257e-29
7.78118e-29
9.31176e-29
8.325e-29
5.12974e-29
2.02867e-29
3.60659e-30
9.67109e-30
6.26827e-29
0.257973
0.258906
0.134745
9.95123e-11
1.55946e-09
1.81015e-09
1.741e-09
2.17854e-09
4.02564e-09
1.64756e-09
2.47224e-09
2.81739e-09
3.69039e-10
4.2256e-10
4.25618e-10
4.1559e-10
3.48167e-10
3.4858e-10
3.4735e-10
3.46024e-10
2.72285e-10
2.59636e-10
2.43494e-10
2.33518e-10
8.13425e-11
7.41163e-11
6.96283e-11
6.6571e-11
5.85538e-11
5.53668e-11
5.08455e-11
4.73026e-11
1.83741e-10
1.64153e-10
1.39255e-10
1.26642e-10
4.00271e-10
3.7835e-10
3.56429e-10
3.38372e-10
5.38936e-10
5.82027e-10
6.39311e-10
6.81344e-10
2.47683e-10
1.24754e-09
1.23037e-09
1.15197e-09
1.10197e-09
2.24413e-08
-3.62604e-10
1.10203e-09
1.18179e-06
1.56241e-06
1.33269e-06
2.09421e-07
5.12085e-06
5.12352e-06
5.01076e-06
4.44615e-06
4.60347e-06
4.92544e-06
4.92029e-06
4.77866e-06
1.0709e-08
7.04083e-07
2.99348e-06
3.47951e-06
1.11435e-08
1.54974e-09
1.49467e-09
1.54974e-09
3.22645e-09
2.57984e-09
1.46154e-09
3.50056e-09
6.18276e-10
8.88653e-10
1.06225e-09
1.0118e-09
2.85343e-10
3.78427e-10
8.81264e-10
9.9172e-10
1.69856e-10
2.01993e-10
3.42586e-10
6.21945e-10
1.03404e-10
1.31593e-10
1.8452e-10
2.91051e-10
5.7846e-11
6.92493e-11
9.14627e-11
1.45301e-10
3.03377e-11
3.46976e-11
4.10752e-11
5.61941e-11
1.14604e-11
1.25402e-11
1.51539e-11
1.85365e-11
3.62265e-12
3.83853e-12
4.2725e-12
4.24539e-12
9.51706e-13
9.94022e-13
9.81343e-13
9.19784e-13
1.7313e-13
1.51074e-13
1.4284e-13
1.27929e-13
2.13136e-14
1.93227e-14
1.74072e-14
1.54101e-14
2.62488e-15
2.26604e-15
1.94935e-15
1.57254e-15
2.09682e-16
1.74622e-16
1.35979e-16
1.04984e-16
1.35374e-17
9.07377e-18
6.14473e-18
3.89706e-18
4.86898e-19
2.7369e-19
1.72802e-19
1.00793e-19
9.46421e-21
4.94981e-21
2.58236e-21
1.10177e-21
1.1899e-22
6.67439e-23
2.99771e-23
6.70751e-24
9.08986e-25
3.48242e-25
2.41514e-25
3.51454e-25
1.01174e-26
2.29029e-26
6.47054e-26
1.9186e-25
3.24622e-27
1.0358e-26
4.10606e-26
1.22759e-25
1.94354e-27
7.00116e-27
2.19277e-26
6.99419e-26
9.51056e-28
3.30286e-27
1.08885e-26
3.1137e-26
3.55289e-28
1.0978e-27
3.08854e-27
7.67568e-27
1.61058e-10
7.03426e-10
1.41238e-09
1.65897e-09
1.23182e-09
8.71588e-10
8.4577e-10
0.00939611
0.310677
0.911377
0.99972
0.998125
0.69167
0.0362655
0.00756397
0.0371058
0.167582
0.18961
0.0164534
2.23902e-09
3.43106e-09
6.9689e-09
1.09026e-08
1.76593e-08
2.02869e-08
3.97004e-08
2.21626e-11
1.3101e-08
0.223047
0.920468
0.997558
0.871733
0.338305
0.114387
0.260248
0.546714
0.112114
0.0185531
2.75266e-09
2.64059e-09
3.23164e-09
1.15882e-08
3.91047e-08
4.6597e-08
4.36433e-08
9.64955e-09
2.22298e-08
2.33677e-08
0.234967
0.875484
0.931307
0.881197
0.778966
0.740971
0.737177
0.166732
0.0292906
3.85292e-10
2.5562e-10
1.76776e-10
1.73086e-10
1.70657e-10
2.24417e-10
6.12091e-10
2.48213e-09
9.80125e-09
2.40101e-08
2.54158e-08
0.123908
0.544935
0.760486
0.784867
0.767222
0.505042
0.0693802
0.017671
3.40719e-10
3.23713e-10
3.05841e-10
3.08835e-10
3.95561e-10
5.20719e-10
6.2174e-10
1.34731e-09
7.51807e-09
1.75999e-07
4.64313e-07
4.94964e-07
0.0072262
0.0689
0.108184
0.0831337
0.00851837
0.0140511
0.0010902
2.21888e-10
2.14336e-10
2.1654e-10
2.28609e-10
3.04073e-10
5.43302e-10
7.22845e-10
9.13124e-10
1.00178e-09
7.35211e-09
3.02143e-08
1.12925e-06
1.98929e-05
-2.85807e-18
1.65875e-24
-3.94541e-08
1.75794e-18
1.90633e-19
2.36082e-05
6.27976e-11
5.99181e-11
6.3181e-11
7.86378e-11
1.24968e-10
2.84121e-10
4.69135e-10
6.85507e-10
9.90906e-10
1.07731e-09
1.16287e-09
1.19354e-06
2.40414e-06
6.50052e-12
5.75798e-11
0.000365034
9.93981e-05
5.29896e-14
7.97749e-15
4.28187e-11
3.78225e-11
3.44927e-11
3.28135e-11
3.20101e-11
3.61357e-11
5.99904e-11
1.60324e-10
6.04699e-10
1.66501e-09
1.82959e-09
8.14156e-12
1.26416e-11
2.70384e-11
1.99352e-10
1.21399e-09
6.53581e-11
1.21867e-08
1.07359e-14
1.01254e-10
7.40801e-11
4.86816e-11
3.65454e-11
2.81047e-11
2.28836e-11
2.06309e-11
1.94753e-11
1.21094e-11
4.52436e-12
8.09951e-12
8.14911e-12
1.94706e-11
4.84285e-11
5.07684e-11
3.34557e-11
6.68683e-11
3.10128e-10
4.03803e-10
3.26052e-10
2.95876e-10
2.21112e-10
1.30028e-10
6.64807e-11
3.15138e-11
1.38857e-11
7.35433e-12
4.50695e-12
4.50608e-12
7.02517e-12
9.27265e-12
1.07556e-11
1.1389e-11
1.60747e-11
3.21187e-11
6.16018e-11
6.98489e-11
1.23587e-10
6.56603e-10
5.81833e-10
4.95602e-10
2.7592e-10
1.61561e-10
9.90798e-11
4.84094e-11
1.6749e-11
4.20023e-12
2.18177e-12
1.74085e-12
1.31868e-12
9.08759e-13
6.95556e-13
4.43884e-13
8.81935e-14
1.98736e-14
1.00109e-14
1.03551e-14
1.52703e-09
1.27685e-09
1.24541e-09
7.08719e-10
3.20971e-10
1.91636e-10
1.08003e-10
5.20671e-11
1.55402e-11
7.0684e-12
6.08033e-12
5.17182e-12
3.99592e-12
2.73988e-12
1.54815e-12
7.39887e-13
1.9763e-13
5.12194e-14
1.52777e-14
2.35217e-09
1.99668e-09
3.07548e-09
1.32934e-09
4.8241e-10
3.50254e-10
2.5295e-10
1.45415e-10
6.8502e-11
3.07936e-11
2.2874e-11
1.37226e-11
8.5905e-12
4.971e-12
2.99421e-12
1.47951e-12
6.23341e-13
1.80954e-13
2.14037e-14
1.63657e-09
1.92385e-09
5.94035e-09
3.92419e-09
1.0883e-09
6.53431e-10
4.08891e-10
2.75904e-10
1.66889e-10
9.4949e-11
4.62905e-11
2.52102e-11
1.16204e-11
6.7001e-12
4.36173e-12
2.67769e-12
1.23065e-12
3.308e-13
2.80042e-14
1.43481e-06
4.10886e-08
5.70548e-09
5.56823e-09
4.22764e-09
1.75496e-09
8.5848e-10
4.99222e-10
2.99174e-10
1.84435e-10
8.29135e-11
3.68883e-11
1.94035e-11
1.04318e-11
6.37465e-12
3.74332e-12
1.58368e-12
4.37137e-13
4.8907e-14
4.62163e-06
1.76924e-06
5.92189e-09
8.6555e-09
6.21399e-09
3.40608e-09
1.54076e-09
6.51006e-10
3.8585e-10
2.2886e-10
1.20892e-10
6.97888e-11
2.91185e-11
1.23631e-11
6.9849e-12
4.26607e-12
2.17777e-12
5.8679e-13
6.35992e-14
3.36267e-06
2.35258e-06
7.03142e-08
3.37739e-08
1.15935e-08
7.85641e-09
2.10376e-09
7.99e-10
4.26861e-10
2.74456e-10
1.5791e-10
9.0476e-11
3.66009e-11
1.50479e-11
7.19859e-12
4.3861e-12
2.35908e-12
6.6667e-13
8.116e-14
1.63279e-09
1.72347e-09
2.26637e-07
8.9042e-08
2.12171e-08
1.03626e-08
4.81973e-09
1.50443e-09
4.45459e-10
2.39228e-10
1.55149e-10
9.57863e-11
4.52952e-11
1.73752e-11
6.88817e-12
3.71321e-12
2.41981e-12
7.6985e-13
9.32012e-14
5.41184e-09
1.02306e-08
5.17847e-08
3.90431e-08
2.40561e-08
1.29717e-08
6.17425e-09
2.12419e-09
5.83302e-10
2.18895e-10
1.27099e-10
8.47148e-11
4.60805e-11
1.83454e-11
6.65233e-12
3.14722e-12
2.26462e-12
8.03523e-13
1.10533e-13
6.70365e-09
1.72433e-08
9.84819e-09
1.25724e-08
1.32029e-08
9.83845e-09
5.6467e-09
2.51784e-09
6.79921e-10
1.88163e-10
8.58844e-11
6.04795e-11
3.78032e-11
1.71665e-11
6.17016e-12
2.72645e-12
1.86971e-12
8.22062e-13
1.07067e-13
1.33839e-09
6.50434e-09
9.4023e-09
8.21094e-09
7.26819e-09
5.12215e-09
3.33037e-09
1.82016e-09
6.633e-10
1.331e-10
5.08861e-11
3.66736e-11
2.51126e-11
1.31783e-11
5.20522e-12
2.31252e-12
1.57817e-12
7.72406e-13
1.04406e-13
8.62783e-10
1.91945e-09
3.61931e-09
3.63991e-09
3.08139e-09
2.22355e-09
1.42375e-09
8.63633e-10
3.90354e-10
8.84025e-11
2.84922e-11
2.0104e-11
1.46428e-11
8.54947e-12
3.83144e-12
1.89632e-12
1.1049e-12
6.47545e-13
9.70561e-14
4.49663e-10
6.68742e-10
1.06402e-09
1.15396e-09
1.02564e-09
8.07439e-10
5.68771e-10
3.55058e-10
1.62738e-10
4.14591e-11
1.52095e-11
1.04072e-11
7.72373e-12
4.8886e-12
2.56419e-12
1.47129e-12
9.72509e-13
4.53998e-13
8.90173e-14
1.95484e-10
2.23397e-10
2.95972e-10
3.28491e-10
2.99365e-10
2.48005e-10
1.91424e-10
1.24385e-10
5.23431e-11
1.64611e-11
6.9104e-12
4.67943e-12
3.71317e-12
2.49772e-12
1.3165e-12
9.11796e-13
5.7169e-13
3.20343e-13
4.96009e-14
6.37885e-11
6.53003e-11
7.65408e-11
8.38912e-11
7.88777e-11
7.01338e-11
5.4569e-11
3.34968e-11
1.60081e-11
6.17956e-12
2.93657e-12
2.06805e-12
1.25654e-12
7.00207e-13
3.79684e-13
3.09371e-13
3.97542e-13
1.92271e-13
3.58745e-14
1.74543e-11
1.68814e-11
1.86322e-11
1.96929e-11
1.90218e-11
1.70115e-11
1.34069e-11
8.9726e-12
4.47576e-12
1.7376e-12
6.54338e-13
3.44752e-13
2.07283e-13
1.47196e-13
1.36928e-13
1.37976e-13
1.45984e-13
1.21813e-13
1.90333e-14
3.80308e-12
3.72893e-12
4.02748e-12
4.10435e-12
4.07124e-12
3.75307e-12
2.97715e-12
1.50095e-12
5.24196e-13
1.59431e-13
6.64473e-14
4.17751e-14
3.74726e-14
4.6144e-14
6.04534e-14
6.95018e-14
6.6111e-14
4.3161e-14
1.28381e-14
7.66946e-13
7.21286e-13
7.55307e-13
7.78452e-13
6.56105e-13
4.68501e-13
2.70472e-13
1.13116e-13
3.30434e-14
9.88391e-15
5.53869e-15
6.49884e-15
1.03472e-14
1.78647e-14
2.71014e-14
3.34383e-14
2.90744e-14
2.51259e-14
4.24123e-15
1.08468e-13
1.06834e-13
9.90789e-14
8.79391e-14
7.12019e-14
4.7807e-14
2.28879e-14
6.16066e-15
7.92903e-16
3.71913e-16
5.95037e-16
1.4173e-15
3.40836e-15
6.91648e-15
1.14978e-14
1.46539e-14
1.27509e-14
5.60371e-15
2.1251e-15
1.22983e-14
8.84906e-15
6.10512e-15
3.09383e-15
1.00593e-15
2.39649e-16
3.95135e-17
3.34392e-18
4.39861e-18
2.51229e-17
1.09384e-16
3.70353e-16
1.0312e-15
2.30887e-15
4.26209e-15
5.48362e-15
4.51733e-15
2.05064e-15
3.21144e-16
1.03931e-15
4.34731e-16
8.43451e-17
4.40224e-18
5.4713e-20
3.92007e-21
4.39675e-21
7.27737e-21
5.09787e-19
4.40607e-18
1.85458e-17
6.70137e-17
2.33416e-16
6.21317e-16
1.32723e-15
1.70405e-15
1.52916e-15
5.31411e-16
1.04743e-16
6.01721e-17
1.56729e-17
1.52357e-18
3.85352e-20
1.72373e-21
2.05324e-21
3.4867e-21
6.66902e-21
5.21775e-20
3.12186e-19
1.41524e-18
9.16034e-18
5.16233e-17
1.56921e-16
3.37849e-16
4.15146e-16
3.05463e-16
1.30918e-16
1.70397e-17
2.10752e-18
5.67666e-19
6.14698e-20
1.83975e-21
9.28668e-22
1.61231e-21
3.46253e-21
7.36246e-21
1.57958e-20
3.41046e-20
8.91647e-20
9.67058e-19
1.24171e-17
3.62179e-17
6.78307e-17
1.041e-16
1.0662e-16
2.61007e-17
7.15975e-18
3.93995e-20
6.97902e-21
5.22019e-22
3.32289e-22
6.34519e-22
1.49234e-21
3.45654e-21
7.59682e-21
1.57195e-20
3.09475e-20
5.65422e-20
1.6323e-19
1.82361e-18
5.85052e-18
1.17607e-17
2.16446e-17
1.41142e-17
7.82583e-18
6.13777e-19
3.42618e-22
5.77274e-23
7.3477e-23
1.81954e-22
4.88345e-22
1.26191e-21
3.07604e-21
7.05599e-21
1.52775e-20
3.04194e-20
5.47517e-20
8.8666e-20
1.67338e-19
9.85023e-19
4.35396e-18
6.90016e-18
5.56207e-18
9.82771e-19
1.62772e-19
4.44079e-24
1.21152e-23
3.9464e-23
1.22282e-22
3.55343e-22
9.637e-22
2.44892e-21
5.81673e-21
1.30291e-20
2.65248e-20
4.85399e-20
7.27963e-20
1.02998e-19
5.61197e-19
1.86871e-18
2.29342e-18
1.04666e-18
2.94601e-19
1.74534e-20
1.70519e-24
6.76019e-24
2.38043e-23
7.82476e-23
2.37242e-22
6.63051e-22
1.72482e-21
4.16959e-21
9.5265e-21
1.9728e-20
3.61732e-20
5.70733e-20
8.19191e-20
2.81157e-19
5.16167e-19
4.54793e-19
2.00963e-19
2.18069e-20
6.63903e-21
9.43066e-25
3.78541e-24
1.398e-23
4.76616e-23
1.45712e-22
4.10388e-22
1.07016e-21
2.56264e-21
5.80601e-21
1.21544e-20
2.20381e-20
3.43272e-20
4.69419e-20
1.1623e-19
9.0958e-20
5.57856e-20
1.20621e-20
7.1256e-21
1.73469e-21
4.90091e-25
2.03163e-24
7.61328e-24
2.57816e-23
7.78589e-23
2.19847e-22
5.61012e-22
1.3045e-21
2.86113e-21
5.88148e-21
1.03164e-20
1.53552e-20
2.04807e-20
3.19108e-20
1.9995e-20
7.15882e-21
4.21976e-21
1.64273e-21
9.76063e-22
2.30171e-25
9.15286e-25
3.36495e-24
1.10837e-23
3.28901e-23
9.00991e-23
2.27104e-22
5.31719e-22
1.12895e-21
2.23079e-21
3.84215e-21
5.58585e-21
6.31719e-21
7.44062e-21
3.86454e-21
1.94778e-21
8.21449e-22
6.79455e-22
4.29521e-22
8.51018e-26
3.18921e-25
1.12054e-24
3.5352e-24
1.01357e-23
2.73117e-23
6.89604e-23
1.58369e-22
3.36905e-22
6.33648e-22
1.05191e-21
1.46986e-21
1.63424e-21
1.43847e-21
7.06608e-22
4.50566e-22
2.47092e-22
1.96659e-22
1.2284e-22
1.739e-26
6.2866e-26
2.12396e-25
6.50427e-25
1.82687e-24
5.01515e-24
1.19256e-23
2.75423e-23
5.64214e-23
1.04245e-22
1.64936e-22
2.18069e-22
2.25911e-22
1.6569e-22
8.63265e-23
6.48116e-23
4.88117e-23
2.02088e-23
1.64841e-23
)
;

boundaryField
{
    leftWall
    {
        type            alphaContactAngle;
        contactAngleProperties 
        {
            mercury         
            {
                theta0          90;
            }
            air             
            {
                theta0          90;
            }
            oil             
            {
                theta0          90;
            }
        }
        value           nonuniform List<scalar> 
50
(
1.28318e-11
2.66826e-11
2.54006e-11
1.61576e-11
2.78205e-11
1.82269e-11
1.66579e-11
5.3062e-08
0.439538
0.998108
1
1
1
1
1
0.616407
0.013004
1.69111e-08
1.77015e-08
1.94481e-08
1.58968e-08
1.04217e-08
4.97762e-09
3.17503e-09
1.56119e-09
7.87331e-10
3.31088e-10
1.22835e-10
3.98763e-11
1.1644e-11
2.5775e-12
5.0012e-13
9.41974e-14
1.52795e-14
2.08515e-15
2.53659e-16
2.84054e-17
2.94154e-18
2.80354e-19
2.43927e-20
1.92969e-21
1.39278e-22
9.3724e-24
4.50376e-25
2.71548e-26
1.79301e-27
9.24421e-29
4.51008e-30
2.0756e-31
8.96256e-33
)
;
    }
    rightWall
    {
        type            alphaContactAngle;
        contactAngleProperties 
        {
            mercury         
            {
                theta0          90;
            }
            air             
            {
                theta0          90;
            }
            oil             
            {
                theta0          90;
            }
        }
        value           nonuniform List<scalar> 
50
(
0.128108
0.127887
0.0080916
2.55173e-06
4.0902e-06
5.14149e-06
0.00356986
0.0123875
0.0164534
0.0185531
0.0292906
0.017671
0.0010902
2.36082e-05
7.97749e-15
1.07359e-14
4.03803e-10
1.23587e-10
1.03551e-14
1.52777e-14
2.14037e-14
2.80042e-14
4.8907e-14
6.35992e-14
8.116e-14
9.32012e-14
1.10533e-13
1.07067e-13
1.04406e-13
9.70561e-14
8.90173e-14
4.96009e-14
3.58745e-14
1.90333e-14
1.28381e-14
4.24123e-15
2.1251e-15
3.21144e-16
1.04743e-16
1.70397e-17
7.15975e-18
6.13777e-19
1.62772e-19
1.74534e-20
6.63903e-21
1.73469e-21
9.76063e-22
4.29521e-22
1.2284e-22
1.64841e-23
)
;
    }
    lowerWall
    {
        type            alphaContactAngle;
        contactAngleProperties 
        {
            mercury         
            {
                theta0          90;
            }
            air             
            {
                theta0          90;
            }
            oil             
            {
                theta0          90;
            }
        }
        value           nonuniform List<scalar> 
62
(
1.28318e-11
2.62017e-11
2.99426e-11
2.87227e-11
2.68949e-11
2.6537e-11
2.90204e-11
3.58556e-11
4.58647e-11
5.82465e-11
7.32408e-11
9.17264e-11
1.15834e-10
1.49019e-10
1.96665e-10
2.65683e-10
3.71738e-10
5.41713e-10
9.05729e-10
1.47291e-09
2.19977e-09
2.5566e-09
2.62039e-09
2.62039e-09
2.69492e-09
4.20276e-09
2.40819e-09
0.000128735
0.413281
0.943926
0.609622
0.257973
0.258906
0.134745
9.95123e-11
3.40356e-07
3.36514e-07
3.62018e-07
0.160675
0.887899
0.572858
0.125516
5.81894e-20
3.40356e-07
1.18381e-07
1.65337e-08
1.22302e-07
0.0347611
0.0225254
0.000934005
1.44363e-13
2.28695e-14
0
-3.71241e-27
1.94294e-24
1.33244e-06
1.48976e-05
2.88865e-05
3.07617e-05
0.0141494
0.0966029
0.128108
)
;
    }
    atmosphere
    {
        type            inletOutlet;
        inletValue      uniform 0;
        value           nonuniform List<scalar> 
46
(
8.96256e-33
5.33073e-33
2.20109e-33
-4.25442e-34
-8.35957e-34
-1.93783e-34
2.87962e-33
1.80372e-32
9.61739e-32
4.09396e-31
1.50618e-30
4.98755e-30
1.25562e-29
3.0591e-29
5.28257e-29
7.78118e-29
9.31176e-29
8.325e-29
5.12974e-29
2.02867e-29
3.60659e-30
9.67109e-30
0
0
0
0
0
0
0
0
0
0
0
0
0
0
0
0
0
0
0
0
0
0
0
0
)
;
    }
    defaultFaces
    {
        type            empty;
    }
}


// ************************************************************************* //
