/*--------------------------------*- C++ -*----------------------------------*\
  =========                 |
  \\      /  F ield         | OpenFOAM: The Open Source CFD Toolbox
   \\    /   O peration     | Website:  https://openfoam.org
    \\  /    A nd           | Version:  13
     \\/     M anipulation  |
\*---------------------------------------------------------------------------*/
FoamFile
{
    format      ascii;
    class       volScalarField;
    location    "0.95";
    object      alpha.oil;
}
// * * * * * * * * * * * * * * * * * * * * * * * * * * * * * * * * * * * * * //

dimensions      [];

internalField   nonuniform List<scalar> 
2268
(
2.09934e-20
1.44628e-18
5.06193e-17
1.08421e-14
1.61074e-13
4.57434e-13
1.20209e-12
2.91972e-12
6.63252e-12
1.44735e-11
3.09042e-11
6.52099e-11
1.36239e-10
2.79472e-10
5.54459e-10
1.06704e-09
2.07222e-09
3.40537e-09
4.34828e-09
2.37295e-08
0.000169513
0.000568657
0.000568658
5.70715e-19
2.38915e-17
5.45911e-16
7.85237e-15
6.6662e-14
3.17008e-13
9.62829e-13
2.66323e-12
7.10697e-12
1.85396e-11
4.6678e-11
1.13038e-10
2.60937e-10
5.63656e-10
1.16097e-09
2.35264e-09
5.63008e-09
1.8796e-08
4.18161e-08
7.45824e-08
5.14408e-06
0.000167558
0.000540256
1.55651e-18
4.53447e-17
6.52102e-16
6.25883e-15
4.26898e-14
2.27821e-13
9.9801e-13
3.63428e-12
1.2794e-11
3.98501e-11
1.05789e-10
2.65166e-10
6.03368e-10
1.38177e-09
2.7164e-09
3.73716e-09
6.14328e-09
4.89543e-08
1.47238e-07
1.39858e-07
2.74992e-08
5.65013e-08
2.22166e-05
1.71472e-18
3.12824e-16
2.87421e-15
1.87229e-14
1.18786e-13
7.79352e-13
3.0114e-12
1.02642e-11
3.02204e-11
8.14393e-11
2.10478e-10
5.03341e-10
1.15064e-09
2.81714e-09
6.94135e-09
1.30164e-08
2.11926e-08
4.66333e-08
6.18798e-08
7.8213e-08
6.32335e-08
6.96703e-07
1.71972e-06
7.05568e-18
3.55894e-16
6.94554e-15
6.51023e-14
3.26039e-13
1.30191e-12
4.43207e-12
1.15784e-11
2.95632e-11
6.10029e-11
1.39799e-10
2.90996e-10
6.04035e-10
1.44777e-09
3.83403e-09
2.81339e-08
3.40073e-07
1.55164e-06
2.13374e-06
7.6817e-07
1.1825e-06
1.16293e-05
2.09935e-05
1.01399e-18
2.03083e-17
1.21316e-15
1.53505e-14
4.72759e-14
7.32468e-14
7.46974e-14
1.33873e-12
6.41731e-12
1.94597e-11
4.66507e-11
7.77352e-11
9.90567e-11
7.59266e-11
8.03203e-11
2.15955e-07
4.2089e-06
7.17639e-06
7.17638e-06
6.16562e-06
5.61588e-06
1.74153e-05
1.89289e-05
4.80226e-19
1.31624e-17
1.68755e-16
9.33284e-16
1.51255e-15
1.31333e-15
4.69277e-15
2.19024e-13
2.66505e-12
1.63386e-11
8.29884e-11
4.33587e-10
2.61229e-09
1.00017e-08
1.27888e-08
6.80523e-07
5.11977e-06
7.17638e-06
7.17639e-06
7.14304e-06
6.44385e-06
6.56719e-06
8.15824e-06
6.30961e-20
2.97005e-18
1.27849e-17
2.50792e-17
1.57008e-17
1.44936e-17
3.35862e-15
9.02491e-13
1.36554e-11
9.05004e-11
4.59965e-10
2.26623e-09
1.11447e-08
5.18233e-08
2.09099e-07
6.35975e-07
1.18682e-06
3.2907e-06
4.82105e-06
2.46723e-06
2.83766e-06
0.0012434
0.0620753
0.950672
0.947938
0.924394
0.875027
0.747039
0.765856
0.835473
0.916413
0.920653
0.920593
0.6964
0.46181
0.673114
0.668342
0.505764
0.0864701
0.0841086
0.101471
0.0874421
0.950461
0.88258
0.665874
0.383698
0.0970857
0.101282
0.184067
0.375847
0.568577
0.513468
0.185913
0.183874
0.23942
0.409325
0.516883
0.104841
0.0653416
0.0680716
0.100277
0.950508
0.522844
0.0578115
-4.48696e-20
-2.17476e-14
-4.29811e-08
3.24318e-08
0.00503328
0.0460542
0.0514317
0.00681093
0.0279396
0.105972
0.120293
0.261006
0.259535
0.0646945
0.213237
0.293086
0.753316
0.117708
-4.12293e-19
1.05492e-06
1.26389e-23
1.65852e-05
3.88588e-05
-3.6134e-07
-1.50812e-07
-3.85879e-08
-1.53136e-08
-2.36864e-21
1.6327e-19
0.0240887
0.183396
0.383829
0.178353
0.353514
0.305297
7.60496e-21
-7.63113e-21
1.94528e-19
-1.42731e-08
3.8417e-16
3.63287e-06
0.000134202
0.00016792
7.52698e-05
6.00514e-06
1.30433e-06
0.000163576
7.03831e-21
0.00522776
0.217138
0.400205
0.254895
0.33011
0.309536
0.0264954
0.00728161
0.0360821
0.0618911
0.0507801
0.00829294
7.89838e-05
8.34894e-05
0.00025065
0.0002418
0.000238584
0.000684302
0.000183696
5.25253e-19
0.169067
0.404532
0.322863
0.100559
0.404978
0.467881
0.434237
0.566485
0.701635
0.707095
0.510917
0.220235
0.00856088
0.000251715
0.000261235
0.000463408
0.000656621
1.11823e-08
6.34577e-19
0.0512506
0.155872
0.299849
0.108269
0.465437
0.598158
0.799798
0.960462
0.987963
0.97945
0.969148
0.85466
0.423926
0.000235169
0.000245023
0.000273607
0.000357454
0.0121656
0.0597301
0.0628432
0.0652392
0.0780243
0.225239
0.465869
1.67445e-21
1.09979e-19
6.60874e-19
1.13508e-18
4.23623e-16
5.30367e-14
7.35431e-13
5.55334e-12
2.9429e-11
1.35193e-10
5.24563e-10
1.70333e-09
6.31545e-09
2.3582e-08
6.44386e-08
8.07466e-08
4.26853e-08
4.4206e-08
2.9924e-08
1.44332e-07
0.00619942
0.258242
0.555055
7.7688e-24
1.5374e-22
6.89654e-21
4.35782e-20
3.01924e-18
8.38604e-16
4.02873e-15
1.12676e-13
9.37907e-12
1.16731e-10
5.75904e-10
2.17161e-09
5.21507e-09
8.24862e-09
6.56036e-09
6.37824e-09
6.37587e-09
6.38768e-09
6.87567e-05
0.0791164
0.511459
0.706976
0.999795
6.82036e-24
8.83785e-23
2.50128e-21
2.38431e-20
1.41435e-17
1.18547e-14
2.87703e-13
4.47942e-12
1.45982e-10
1.19163e-09
7.11366e-09
2.17067e-08
3.86937e-08
4.34694e-08
7.05836e-09
6.37623e-09
6.3879e-09
0.124123
0.557829
0.718929
0.999859
1
1
3.03193e-21
7.12964e-20
1.16426e-18
1.67166e-17
2.07309e-16
3.28345e-15
7.71252e-13
3.32848e-11
3.34431e-11
1.23959e-08
7.27862e-08
1.26658e-07
1.12722e-07
4.46106e-08
0.00117166
0.191665
0.507783
0.876672
0.99767
0.992487
0.999788
1
0.999965
2.99181e-20
5.77715e-19
8.5458e-18
9.9513e-17
8.52574e-16
4.70809e-14
1.71971e-11
1.97736e-10
1.44467e-09
1.60326e-08
2.45299e-08
2.31008e-08
2.34932e-08
0.174464
0.567354
0.95652
0.986232
0.983683
0.999655
0.999962
0.999947
0.999907
0.999936
6.41249e-20
1.27803e-18
1.81929e-17
1.49777e-16
1.14103e-15
6.57988e-13
1.45194e-11
1.43547e-10
4.00837e-10
2.59695e-10
3.27524e-10
0.116679
0.588352
0.955195
0.974177
0.990635
1
1
0.999901
0.999958
0.999914
0.999936
1
5.50261e-20
1.14979e-18
1.63675e-17
1.27612e-16
8.69386e-16
1.16995e-13
4.6883e-12
2.37689e-11
1.79948e-11
0.0474098
0.494938
0.924992
0.972457
0.999473
0.999998
0.999998
0.999979
1
1
1
1
1
1
2.20054e-20
5.67827e-19
7.86132e-18
5.54497e-17
2.50604e-16
3.35609e-15
9.87677e-14
-5.75945e-18
0.152972
0.836623
0.991184
0.999996
0.999996
0.999997
0.999998
0.999998
0.999999
1
1
0.994424
0.933814
0.900394
0.930577
5.52982e-21
5.28037e-20
1.68901e-18
5.92821e-16
8.36949e-16
3.2952e-16
3.59273e-15
2.15012e-13
0.298019
0.999553
0.999662
0.999845
0.99994
0.99999
0.999997
0.967067
0.705767
0.528877
0.489397
0.436146
0.208269
0.143631
0.330475
6.98696e-20
7.21101e-16
1.77341e-14
7.21851e-12
4.88985e-10
3.29799e-09
6.55261e-10
3.03755e-05
0.0301498
0.287576
0.585612
0.665359
0.632692
0.419257
0.21886
0.117076
0.0429027
0.00827132
0.00197704
0.000485999
4.35177e-10
1.09321e-09
3.77248e-09
1.26315e-17
9.21425e-15
3.65007e-13
2.23456e-12
5.72604e-10
9.62926e-09
2.81745e-08
5.50415e-07
5.07163e-08
-1.44176e-07
0.00604481
0.0171568
0.0143614
0.00195508
-6.14407e-19
6.04348e-19
1.0385e-19
8.55237e-08
3.50242e-07
5.1715e-07
2.29473e-08
5.64162e-08
6.20717e-08
1.35137e-17
2.67538e-15
1.69449e-12
1.89137e-11
9.33373e-11
5.9632e-09
3.30551e-08
7.78844e-08
4.63645e-08
1.49354e-07
4.09383e-09
-1.93849e-08
-1.15356e-08
-1.07951e-09
-1.20631e-27
-8.82326e-26
-3.5293e-25
-7.22607e-27
-1.95386e-17
-9.03051e-19
2.29541e-08
1.12112e-07
1.0954e-07
2.27349e-19
3.74172e-16
4.9903e-13
2.09662e-11
1.19269e-10
1.70764e-09
1.47643e-08
6.31287e-08
8.67679e-08
7.5626e-09
8.37165e-09
1.8915e-08
1.10686e-08
3.33112e-08
5.54773e-07
3.01267e-06
3.02636e-06
1.44896e-06
2.04822e-06
2.03564e-06
1.20861e-08
3.41971e-08
4.00458e-08
2.25054e-20
4.55237e-17
1.32873e-13
1.01081e-11
6.0177e-11
4.06183e-10
3.75644e-09
2.58241e-08
6.24927e-08
6.94098e-09
8.66179e-09
1.30933e-08
1.89942e-08
3.68076e-08
2.08425e-07
7.11563e-07
7.04011e-07
0.000107406
0.000179893
0.000122346
8.66557e-09
1.00007e-07
5.87191e-08
9.25537e-22
3.14324e-18
1.69415e-14
2.38566e-12
2.10664e-11
1.20693e-10
8.41165e-10
6.7057e-09
2.45015e-08
6.71249e-09
1.06869e-08
2.11988e-08
3.71022e-08
8.06041e-08
2.04822e-07
5.97258e-07
1.0706e-06
1.5457e-05
0.000187806
0.000230871
0.000190495
9.77471e-07
5.84785e-08
9.96959e-24
1.07962e-19
9.23899e-16
2.57101e-13
4.64092e-12
2.74739e-11
1.77799e-10
1.2672e-09
6.706e-09
4.93779e-09
9.23071e-09
1.79383e-08
3.03417e-08
3.95882e-08
1.32707e-07
5.12603e-07
6.06941e-07
4.79243e-08
1.01865e-05
0.000177284
0.000223927
0.000129909
2.85028e-06
2.43588e-24
1.6597e-22
5.53171e-18
2.24671e-14
7.41108e-13
6.82321e-12
4.21291e-11
2.40952e-10
1.08844e-09
1.98848e-09
4.4959e-09
1.00121e-08
1.73969e-08
2.09172e-08
4.2664e-08
1.35664e-07
3.68215e-08
6.63552e-09
3.50696e-09
4.38086e-06
8.16646e-05
6.61465e-05
1.10933e-05
2.05621e-24
5.12334e-23
7.9826e-19
1.13864e-15
1.50127e-13
1.74993e-12
1.15401e-11
5.89075e-11
2.2502e-10
8.35748e-10
1.98318e-09
4.61406e-09
8.62336e-09
1.29035e-08
1.96566e-08
1.08586e-08
2.48701e-09
4.30748e-09
7.38938e-09
7.71491e-09
8.04193e-09
7.97582e-08
2.48482e-07
1.86603e-24
2.74596e-23
5.71935e-20
1.83717e-16
2.78402e-14
3.47836e-13
2.87781e-12
1.48747e-11
8.10371e-11
3.2322e-10
9.0937e-10
2.27455e-09
4.80526e-09
8.31791e-09
1.17933e-08
5.90543e-09
3.24742e-09
4.26603e-09
7.45062e-09
7.76469e-09
8.93182e-09
9.00268e-09
2.41118e-08
1.57615e-24
2.23424e-23
3.48595e-21
1.55312e-17
3.62087e-15
5.61033e-14
6.03765e-13
3.87383e-12
2.3592e-11
1.03965e-10
3.3892e-10
9.62248e-10
2.26937e-09
4.27435e-09
5.7255e-09
3.94528e-09
2.60357e-09
3.58404e-09
6.3332e-09
8.63867e-09
1.04472e-08
1.17669e-08
1.78391e-08
1.21662e-24
1.75264e-23
3.34722e-22
1.11287e-18
3.73448e-16
7.25784e-15
9.8961e-14
8.31485e-13
5.73575e-12
2.8273e-11
1.03228e-10
3.41602e-10
8.87428e-10
1.78055e-09
2.33967e-09
1.97859e-09
1.77823e-09
2.79408e-09
4.87532e-09
6.99501e-09
9.07086e-09
9.08248e-09
1.56393e-08
8.68311e-25
1.25667e-23
1.37248e-22
6.46416e-20
3.05779e-17
7.91484e-16
1.29225e-14
1.36648e-13
1.11756e-12
6.34199e-12
2.65839e-11
1.02533e-10
2.91115e-10
6.272e-10
8.72077e-10
9.5572e-10
1.15504e-09
1.94903e-09
3.28941e-09
4.70275e-09
5.9086e-09
7.09968e-09
9.60247e-09
5.20709e-25
8.18104e-24
8.67761e-23
3.52954e-21
1.99467e-18
7.14788e-17
1.36062e-15
1.87327e-14
1.78684e-13
1.19643e-12
5.88137e-12
2.63622e-11
8.27629e-11
1.98781e-10
3.2265e-10
4.65534e-10
6.76746e-10
1.16417e-09
1.89642e-09
2.67159e-09
3.48352e-09
3.87339e-09
5.37344e-09
2.92042e-25
4.79209e-24
5.13907e-23
4.99314e-22
1.05043e-19
5.36492e-18
1.29107e-16
2.26803e-15
2.48152e-14
1.97729e-13
1.15426e-12
6.00657e-12
2.14371e-11
5.9785e-11
1.19247e-10
2.10948e-10
3.37891e-10
5.83143e-10
9.22776e-10
1.28321e-09
1.63309e-09
2.06645e-09
2.32194e-09
1.49294e-25
2.53555e-24
2.74266e-23
2.18082e-22
5.51114e-21
3.41188e-19
1.15217e-17
2.514e-16
3.12301e-15
2.95025e-14
2.06137e-13
1.24437e-12
5.1841e-12
1.70208e-11
4.09191e-11
8.25024e-11
1.40552e-10
2.43558e-10
3.77253e-10
5.20538e-10
6.70694e-10
7.67186e-10
8.58282e-10
6.93046e-26
1.19708e-24
1.31664e-23
1.04996e-22
7.97955e-22
2.11182e-20
9.74189e-19
2.56111e-17
3.60652e-16
4.00462e-15
3.35364e-14
2.33957e-13
1.14763e-12
4.37703e-12
1.21841e-11
2.69879e-11
4.85477e-11
8.48302e-11
1.29512e-10
1.78316e-10
2.23247e-10
2.78307e-10
2.79187e-10
2.95491e-26
5.11816e-25
5.69013e-24
4.60523e-23
2.9984e-22
2.41828e-21
8.17071e-20
2.38438e-18
3.78429e-17
4.89702e-16
4.88035e-15
3.91054e-14
2.24161e-13
9.73636e-13
3.05243e-12
7.33365e-12
1.39559e-11
2.46777e-11
3.73752e-11
5.15976e-11
6.50301e-11
6.55095e-11
6.32453e-11
1.14695e-26
1.99298e-25
2.22183e-24
1.8231e-23
1.21654e-22
7.22964e-22
9.10347e-21
2.12788e-19
3.59742e-18
5.33695e-17
6.23732e-16
5.70004e-15
3.76584e-14
1.83445e-13
6.38501e-13
1.658e-12
3.34716e-12
6.00536e-12
9.074e-12
1.25964e-11
1.5542e-11
1.68613e-11
1.43672e-11
3.99816e-27
7.02491e-26
7.89563e-25
6.62888e-24
4.61271e-23
2.82841e-22
2.1325e-21
2.40071e-20
3.3415e-19
5.25214e-18
6.97425e-17
7.18889e-16
5.39203e-15
2.91342e-14
1.11697e-13
3.12927e-13
6.70975e-13
1.22407e-12
1.85236e-12
2.58469e-12
3.17867e-12
2.19671e-12
2.03995e-12
1.25119e-27
2.24618e-26
2.58146e-25
2.25492e-24
1.65848e-23
1.1155e-22
8.13804e-22
5.42431e-21
4.34974e-20
5.28335e-19
7.07389e-18
7.92943e-17
6.61077e-16
3.91699e-15
1.64308e-14
4.95279e-14
1.12697e-13
2.09383e-13
3.17731e-13
4.44023e-13
5.34698e-13
4.11286e-13
2.8407e-13
3.55391e-28
6.5872e-27
7.86886e-26
7.28319e-25
5.77879e-24
4.29999e-23
3.35059e-22
1.99787e-21
1.19924e-20
8.35098e-20
7.8932e-19
8.21426e-18
7.15842e-17
4.5377e-16
2.0585e-15
6.63882e-15
1.59836e-14
3.02823e-14
4.60958e-14
6.43676e-14
7.52795e-14
4.61593e-14
4.51327e-14
9.28776e-29
1.79582e-27
2.32233e-26
2.31525e-25
1.98755e-24
1.64716e-23
1.30671e-22
8.03783e-22
4.55152e-21
2.55313e-20
1.49924e-19
1.04731e-18
7.79498e-18
4.85148e-17
2.29306e-16
7.73842e-16
1.96172e-15
3.83726e-15
5.89629e-15
8.40077e-15
9.55598e-15
1.03714e-14
1.73437e-14
2.26016e-29
4.60995e-28
5.79143e-27
6.31291e-26
6.19638e-25
5.39834e-24
4.2669e-23
2.90338e-22
1.73374e-21
9.45316e-21
4.6934e-20
2.30255e-19
1.1853e-18
5.97606e-18
2.63062e-17
8.8216e-17
2.34498e-16
4.7371e-16
7.72421e-16
1.15344e-15
1.9254e-15
2.64524e-15
1.0788e-14
5.1573e-30
1.12298e-28
1.479e-27
1.75828e-26
1.86905e-25
1.78037e-24
1.39752e-23
9.70287e-23
5.97283e-22
3.25272e-21
1.57338e-20
6.94559e-20
2.85836e-19
1.12681e-18
4.11172e-18
1.28607e-17
3.3884e-17
7.25099e-17
1.35935e-16
2.65654e-16
4.1024e-16
1.60712e-15
5.73617e-15
1.12856e-30
2.65857e-29
3.8065e-28
4.83847e-27
5.35373e-26
5.22323e-25
4.17973e-24
2.92195e-23
1.80681e-22
9.88364e-22
4.77673e-21
2.0702e-20
8.01541e-20
2.84302e-19
9.13659e-19
2.64159e-18
6.78207e-18
1.53914e-17
3.34121e-17
8.39811e-17
1.90564e-16
4.90076e-16
2.80704e-15
2.01936e-31
5.21814e-30
9.26694e-29
1.2352e-27
1.41243e-26
1.34605e-25
1.1004e-24
7.77213e-24
4.81686e-23
2.64832e-22
1.28051e-21
5.5252e-21
2.11659e-20
7.2447e-20
2.22299e-19
6.18238e-19
1.5702e-18
3.77674e-18
9.15337e-18
2.67334e-17
7.23617e-17
2.67229e-16
1.08423e-15
4.2103e-32
1.17505e-30
2.08775e-29
2.87169e-28
3.33505e-27
3.12542e-26
2.57977e-25
1.83736e-24
1.14332e-23
6.31166e-23
3.04272e-22
1.30574e-21
4.97616e-21
1.68489e-20
5.07536e-20
1.39191e-19
3.62997e-19
9.06307e-19
2.43666e-18
7.89785e-18
2.53019e-17
1.00252e-16
4.40527e-16
8.00747e-33
2.39526e-31
4.35943e-30
6.12563e-29
7.10411e-28
6.64019e-27
5.45936e-26
3.91127e-25
2.44262e-24
1.35225e-23
6.48253e-23
2.77703e-22
1.0488e-21
3.52224e-21
1.05378e-20
2.88633e-20
7.77893e-20
2.05102e-19
6.07381e-19
2.16384e-18
8.02706e-18
3.5898e-17
1.74948e-16
1.43758e-33
4.54821e-32
8.45078e-31
1.18689e-29
1.36842e-28
1.30033e-27
1.05555e-26
7.59283e-26
4.74749e-25
2.63086e-24
1.25246e-23
5.3535e-23
2.05533e-22
6.68022e-22
2.00175e-21
5.53083e-21
1.5406e-20
4.40165e-20
1.43627e-19
5.7346e-19
2.54704e-18
1.23212e-17
7.6571e-17
2.43405e-34
8.18169e-33
1.51738e-31
2.09688e-30
2.41794e-29
2.35762e-28
1.88414e-27
1.35766e-26
8.47415e-26
4.68837e-25
2.21378e-24
9.42771e-24
3.07493e-23
1.16583e-22
3.51914e-22
9.90597e-22
2.89642e-21
8.60456e-21
3.37452e-20
1.63366e-19
9.12193e-19
6.01252e-18
3.76195e-17
3.82176e-35
1.39065e-33
2.53542e-32
3.49306e-31
4.02568e-30
3.97202e-29
3.12871e-28
2.25052e-27
1.39961e-26
7.70675e-26
3.60675e-25
1.53184e-24
5.47698e-24
1.89401e-23
5.78421e-23
1.67867e-22
5.22803e-22
1.84143e-21
8.83253e-21
5.53187e-20
3.84476e-19
2.54326e-18
1.7914e-17
5.75915e-36
2.23359e-34
3.9828e-33
5.55772e-32
6.3748e-31
6.23855e-30
4.85718e-29
3.47135e-28
2.15054e-27
1.17505e-26
5.45351e-26
2.31564e-25
8.45623e-25
2.8834e-24
8.97172e-24
2.73525e-23
9.47801e-23
4.2089e-22
2.67946e-21
2.00951e-20
1.43861e-19
9.49138e-19
6.26098e-18
0.491958
0.527723
0.634603
0.772558
1
1
1
1
0.999996
1
1
1
1
1
1
1
1
1
1
1
1
1
1
1
1
1
1
1
0.935833
0.831703
0.816304
0.836042
0.188998
1.06273e-06
0.0289102
0.0987253
3.97699e-09
8.20064e-09
1.01294e-08
4.18148e-09
5.79598e-08
7.59069e-08
6.8854e-08
1.16185e-07
6.46794e-08
3.96956e-08
3.7453e-08
1.9007e-08
2.15258e-09
1.6991e-09
1.57693e-09
1.94902e-09
4.79126e-08
6.03724e-09
2.46704e-09
1.94481e-09
2.57029e-07
1.30565e-07
3.18239e-08
2.08737e-08
2.87319e-07
3.2168e-07
1.61442e-07
6.58705e-08
5.79377e-07
6.9369e-07
2.38706e-07
1.56597e-07
4.3665e-07
3.37654e-07
1.31522e-07
4.0701e-08
2.27335e-08
1.61021e-08
1.5684e-08
1.36586e-08
1.92449e-08
1.96998e-08
1.9605e-08
1.84611e-08
1.78008e-08
1.68742e-08
1.60157e-08
1.48157e-08
1.02254e-08
1.03363e-08
9.43962e-09
8.5736e-09
5.5275e-09
5.26284e-09
4.88043e-09
4.2202e-09
2.29525e-09
2.24746e-09
1.9619e-09
1.66022e-09
8.6264e-10
7.69099e-10
6.64137e-10
5.31607e-10
2.4126e-10
2.15771e-10
1.78654e-10
1.41893e-10
5.85493e-11
4.75226e-11
3.8694e-11
2.92574e-11
1.23062e-11
1.07364e-11
7.29716e-12
5.26949e-12
1.82994e-12
1.26571e-12
9.71136e-13
7.0623e-13
2.10486e-13
1.69062e-13
1.44464e-13
1.35405e-13
4.45068e-14
4.79797e-14
5.66037e-14
7.33666e-14
2.18443e-14
2.97275e-14
4.19911e-14
6.36074e-14
1.54471e-14
2.14286e-14
3.19096e-14
4.88994e-14
8.40259e-15
1.28987e-14
2.16458e-14
4.64532e-14
4.23239e-15
6.59037e-15
1.49549e-14
3.09043e-14
1.91798e-15
4.28716e-15
1.11017e-14
3.22813e-14
8.9181e-16
1.66703e-15
8.23215e-15
2.41908e-14
5.15085e-16
1.76359e-15
5.56019e-15
1.66323e-14
2.81158e-16
9.4183e-16
3.74783e-15
1.1249e-14
1.84073e-16
6.6683e-16
2.10839e-15
6.80314e-15
9.35693e-17
3.29073e-16
1.10179e-15
3.20082e-15
3.59663e-17
1.12477e-16
3.2052e-16
8.09871e-16
0.942685
1
1
1
1
0.998142
0.995721
0.985298
0.68632
0.0882136
0.000270482
0.0017664
0.140507
0.248452
0.234078
0.160691
0.223251
0.711021
0.466409
1
1
1
1
1
0.999999
0.999999
0.999968
0.999493
0.776483
0.0789667
0.00102087
0.0604689
0.276922
0.294641
0.261803
0.239319
0.833949
0.466535
1
1
1
1
1
1
1
0.999999
0.999999
0.999983
0.764863
0.122419
0.0511608
0.0759584
0.100486
0.101471
0.203365
0.831246
0.530382
1
1
1
1
1
0.999999
1
1
1
0.999999
0.999954
0.875864
0.454209
0.232753
0.202712
0.219179
0.494532
0.928711
0.715324
1
1
1
1
0.999999
0.999999
0.999999
1
1
1
0.999978
0.9987
0.990685
0.929389
0.883094
0.896203
0.973658
0.97353
0.731161
1
1
1
1
1
0.999999
0.999999
0.999999
1
1
1
0.999989
0.995144
0.977794
0.964021
0.968085
0.97322
0.973054
0.493374
1
1
1
1
1
1
1
0.999999
1
1
1
0.999998
0.999949
0.999555
0.980586
0.936139
0.8872
0.627699
0.258296
0.886025
0.92681
0.949295
0.968248
0.982912
0.99286
0.998258
1
1
1
1
0.999681
0.995804
0.97809
0.923427
0.776065
0.454696
0.284411
0.176071
0.160209
0.212725
0.254278
0.305344
0.365409
0.433051
0.503533
0.563854
0.600891
0.613257
0.602138
0.532046
0.443582
0.318525
0.18011
0.0808505
0.0821267
0.167704
0.184486
1.76408e-08
2.74381e-08
5.09194e-08
9.90188e-08
7.69675e-08
8.73105e-08
1.07319e-07
5.75716e-08
6.20964e-08
6.48395e-08
2.77446e-08
2.35835e-07
5.43996e-07
3.34433e-07
6.69467e-07
5.8465e-07
4.96479e-07
0.0345131
0.0861686
1.78156e-07
5.59176e-07
7.17939e-07
5.13676e-07
2.8951e-07
1.88635e-07
9.6308e-08
7.29668e-08
6.66972e-08
6.61515e-08
3.79118e-08
9.57583e-08
0.000196341
0.00101203
0.00120505
0.000507679
-1.12929e-12
7.77426e-09
1.02773e-21
4.56168e-07
1.68043e-06
1.95474e-06
1.8705e-06
1.30136e-06
9.31929e-07
5.32101e-07
2.34375e-07
3.95112e-07
7.95439e-07
3.78021e-07
-2.22343e-13
0.000880576
0.00249623
0.00255721
0.001642
7.77426e-09
2.40401e-05
5.80767e-05
1.88207e-07
1.52828e-06
1.82829e-06
1.94876e-06
1.96907e-06
1.85378e-06
1.43201e-06
4.18987e-07
7.96969e-07
4.63815e-06
6.7727e-06
4.57496e-07
0.000260026
0.00101168
0.000963932
5.12771e-09
3.19275e-07
1.22114e-06
2.11725e-05
1.55123e-09
1.56047e-09
6.39929e-07
1.27602e-06
1.47817e-06
1.61097e-06
1.20013e-06
7.57556e-07
7.63047e-07
5.68694e-06
1.21484e-05
9.3019e-06
5.12733e-09
5.36939e-09
5.12737e-09
2.62917e-07
2.52929e-06
2.32667e-06
8.92647e-08
6.33789e-09
1.54586e-09
1.56225e-09
1.54408e-09
1.19994e-07
5.04224e-07
7.4643e-07
7.30878e-07
7.23939e-07
4.44783e-07
2.38894e-08
2.61744e-09
5.08439e-09
5.53398e-09
5.40232e-09
1.48159e-06
3.1333e-06
2.92781e-06
4.40516e-07
2.98983e-08
1.6344e-09
1.54408e-09
1.5628e-09
1.5525e-09
1.57238e-09
5.32134e-08
1.98117e-07
2.96345e-09
2.06512e-09
2.4663e-09
4.48172e-09
9.46445e-09
1.11894e-08
4.93407e-09
1.77331e-07
1.26542e-06
9.81565e-07
1.58709e-06
5.54145e-08
3.39618e-09
1.95888e-09
2.15495e-09
1.80206e-09
2.42275e-09
2.46596e-09
2.58921e-09
2.64073e-09
2.87979e-09
5.83497e-09
1.38477e-08
1.43047e-08
1.43483e-08
1.20574e-08
6.28222e-09
6.30837e-09
6.16187e-09
1.7758e-06
2.24484e-08
8.49434e-09
2.55666e-09
1.55996e-09
1.96926e-09
2.8237e-09
2.67145e-09
2.63462e-09
3.73072e-09
4.16542e-09
5.72212e-09
1.24587e-08
1.22445e-08
1.20842e-08
1.09197e-08
6.35216e-09
6.26319e-09
6.74685e-09
1.7602e-06
7.42601e-09
4.57823e-09
2.6498e-09
1.56915e-09
1.09624e-09
1.28619e-09
2.29932e-09
3.5428e-09
3.76771e-09
3.71408e-09
3.99487e-09
6.51283e-09
7.38993e-09
8.1002e-09
8.51294e-09
8.82111e-09
6.4572e-09
6.127e-09
1.73105e-06
1.08639e-08
4.61071e-09
1.74379e-09
1.18724e-09
1.01312e-09
9.57372e-10
1.10814e-09
1.79014e-09
2.65467e-09
2.7404e-09
2.91314e-09
3.18519e-09
3.96568e-09
4.98466e-09
6.31283e-09
7.3043e-09
5.02739e-09
9.39118e-09
1.43335e-06
1.09137e-08
4.35495e-09
8.1917e-10
7.2272e-10
6.83923e-10
6.33061e-10
6.6115e-10
9.17234e-10
1.43068e-09
1.76893e-09
1.91886e-09
2.14128e-09
2.68181e-09
3.64833e-09
4.98235e-09
5.82635e-09
5.02419e-09
2.64603e-08
1.61685e-06
5.84118e-09
3.16112e-09
8.79106e-10
4.83137e-10
4.24674e-10
3.90505e-10
3.87956e-10
4.82564e-10
7.48674e-10
1.01158e-09
1.17699e-09
1.46864e-09
1.99863e-09
2.87524e-09
4.2614e-09
4.49965e-09
4.68533e-09
3.48967e-07
1.63506e-06
2.66412e-09
1.47583e-09
6.2802e-10
3.01499e-10
2.40908e-10
2.1863e-10
2.22451e-10
2.76219e-10
4.23339e-10
5.86613e-10
7.70909e-10
1.06504e-09
1.59157e-09
2.49229e-09
3.94832e-09
4.01687e-09
4.77456e-09
7.43465e-07
1.67303e-06
9.83935e-10
5.43406e-10
2.77009e-10
1.44605e-10
1.15921e-10
1.07937e-10
1.18735e-10
1.66034e-10
2.60794e-10
3.74169e-10
5.47893e-10
8.65182e-10
1.42626e-09
2.39288e-09
3.99701e-09
4.10759e-09
4.13877e-09
8.31044e-07
1.59773e-06
3.0313e-10
1.66532e-10
9.12162e-11
5.72021e-11
4.77375e-11
5.00467e-11
6.83384e-11
1.09873e-10
1.78323e-10
2.91682e-10
4.87487e-10
8.53724e-10
1.49097e-09
2.56335e-09
4.33203e-09
4.95203e-09
5.55165e-09
1.6234e-08
7.05341e-07
7.78414e-11
4.23224e-11
2.50907e-11
1.91595e-11
2.04873e-11
2.87093e-11
4.82852e-11
8.73064e-11
1.61202e-10
2.97103e-10
5.4502e-10
9.87315e-10
1.7467e-09
2.98131e-09
4.93464e-09
6.64137e-09
6.67993e-09
2.39033e-08
8.86592e-09
1.56651e-11
8.95575e-12
6.52269e-12
7.55569e-12
1.24406e-11
2.41993e-11
4.93135e-11
1.00134e-10
1.97167e-10
3.77522e-10
7.03139e-10
1.26973e-09
2.2034e-09
3.66318e-09
5.73484e-09
7.82287e-09
1.53679e-08
9.86494e-09
9.59019e-09
2.83106e-12
2.02993e-12
2.79965e-12
6.08138e-12
1.42519e-11
3.18687e-11
6.79927e-11
1.39542e-10
2.75864e-10
5.25027e-10
9.63808e-10
1.70106e-09
2.85259e-09
4.50124e-09
6.56287e-09
9.52775e-09
1.59824e-08
1.69238e-08
6.92186e-09
5.62839e-13
1.10353e-12
3.24113e-12
8.78751e-12
2.1257e-11
4.69038e-11
9.9713e-11
2.02063e-10
3.93312e-10
7.3507e-10
1.32048e-09
2.24974e-09
3.61624e-09
5.27353e-09
7.05916e-09
1.00425e-08
4.64373e-08
2.6726e-08
9.55126e-09
3.61434e-13
1.50428e-12
5.12842e-12
1.33868e-11
3.09657e-11
6.76384e-11
1.39175e-10
2.79733e-10
5.34323e-10
9.84513e-10
1.70622e-09
2.91609e-09
4.51257e-09
5.87221e-09
7.00241e-09
1.66067e-08
5.49436e-08
6.32623e-08
1.25333e-08
4.7737e-13
1.94946e-12
7.25702e-12
1.79671e-11
4.0513e-11
8.73577e-11
1.82084e-10
3.55107e-10
6.91453e-10
1.3043e-09
2.27819e-09
3.68801e-09
5.34714e-09
6.10075e-09
1.00604e-08
4.95067e-08
1.26286e-07
6.29232e-08
1.47961e-08
5.04812e-13
2.37747e-12
8.32028e-12
2.03503e-11
4.45509e-11
1.01679e-10
2.16272e-10
4.45231e-10
8.78489e-10
1.65492e-09
2.97422e-09
4.74513e-09
5.98456e-09
8.87985e-09
3.14056e-08
1.1444e-07
1.27011e-07
9.11779e-08
1.21676e-08
3.77587e-13
2.83541e-12
7.76984e-12
1.93801e-11
4.56863e-11
1.04377e-10
2.29545e-10
4.84787e-10
9.87123e-10
1.91776e-09
3.45587e-09
5.23786e-09
6.20231e-09
1.37656e-08
5.933e-08
1.3489e-07
1.35483e-07
7.6434e-08
1.23044e-08
3.39845e-13
2.26984e-12
6.23041e-12
1.64202e-11
4.12574e-11
9.90655e-11
2.27114e-10
4.95602e-10
1.04143e-09
2.06833e-09
3.68209e-09
5.39801e-09
6.53837e-09
2.14122e-08
6.70698e-08
1.20114e-07
1.24305e-07
6.86982e-08
5.13978e-09
3.68371e-13
1.47708e-12
4.42169e-12
1.25409e-11
3.35268e-11
8.51978e-11
2.05088e-10
4.699e-10
1.03836e-09
2.11999e-09
3.7247e-09
5.56567e-09
8.10694e-09
2.07114e-08
5.04474e-08
8.4313e-08
8.39362e-08
1.44302e-08
4.66264e-09
2.28996e-13
9.09844e-13
2.94634e-12
8.99923e-12
2.5729e-11
6.87451e-11
1.73287e-10
4.13444e-10
9.54461e-10
1.99659e-09
3.50213e-09
5.70935e-09
9.99033e-09
1.41702e-08
2.14377e-08
4.10917e-08
9.14208e-09
9.07927e-09
1.2336e-09
1.37793e-13
5.45399e-13
1.90703e-12
6.22688e-12
1.87308e-11
5.20473e-11
1.35331e-10
3.30317e-10
7.79684e-10
1.67126e-09
3.00115e-09
5.17469e-09
9.33844e-09
8.54346e-09
4.05958e-09
2.89293e-09
1.59279e-09
2.6424e-10
6.05648e-10
8.14189e-14
3.27865e-13
1.21635e-12
4.16635e-12
1.27983e-11
3.63481e-11
9.5811e-11
2.33649e-10
5.46878e-10
1.19597e-09
2.2092e-09
3.49816e-09
5.55993e-09
5.33602e-09
3.15154e-09
9.33067e-10
3.10395e-10
2.64715e-10
1.29611e-10
4.51911e-14
1.89821e-13
7.22539e-13
2.48806e-12
7.65937e-12
2.20958e-11
5.78455e-11
1.39012e-10
3.16695e-10
6.82264e-10
1.25008e-09
1.87645e-09
2.32212e-09
2.78975e-09
2.46054e-09
9.90761e-10
4.87914e-10
1.69787e-10
7.8201e-11
2.27242e-14
9.25456e-14
3.49051e-13
1.18141e-12
3.61515e-12
1.02566e-11
2.68797e-11
6.56573e-11
1.46182e-10
3.0443e-10
5.56463e-10
8.52503e-10
9.67598e-10
1.20775e-09
9.91869e-10
4.82675e-10
1.40999e-10
6.97189e-11
3.75619e-11
8.94015e-15
3.45034e-14
1.25038e-13
4.08261e-13
1.21715e-12
3.42621e-12
9.07233e-12
2.19586e-11
4.94246e-11
9.93392e-11
1.78181e-10
2.7297e-10
3.40341e-10
3.45777e-10
2.50535e-10
9.82015e-11
3.52113e-11
2.03398e-11
1.07978e-11
1.87461e-15
6.99038e-15
2.44687e-14
7.79372e-14
2.29162e-13
6.62174e-13
1.66628e-12
4.08751e-12
8.94711e-12
1.78542e-11
3.07733e-11
4.53415e-11
5.41253e-11
4.70156e-11
3.19299e-11
1.11618e-11
7.00918e-12
2.05017e-12
1.4055e-12
)
;

boundaryField
{
    leftWall
    {
        type            alphaContactAngle;
        contactAngleProperties 
        {
            mercury         
            {
                theta0          90;
            }
            air             
            {
                theta0          90;
            }
            water           
            {
                theta0          90;
            }
        }
        value           nonuniform List<scalar> 
50
(
2.09934e-20
5.70715e-19
1.55651e-18
1.71472e-18
7.05568e-18
1.01399e-18
4.80226e-19
6.30961e-20
1.67445e-21
7.7688e-24
6.82036e-24
3.03193e-21
2.99181e-20
6.41249e-20
5.50261e-20
2.20054e-20
5.52982e-21
6.98696e-20
1.26315e-17
1.35137e-17
2.27349e-19
2.25054e-20
9.25537e-22
9.96959e-24
2.43588e-24
2.05621e-24
1.86603e-24
1.57615e-24
1.21662e-24
8.68311e-25
5.20709e-25
2.92042e-25
1.49294e-25
6.93046e-26
2.95491e-26
1.14695e-26
3.99816e-27
1.25119e-27
3.55391e-28
9.28776e-29
2.26016e-29
5.1573e-30
1.12856e-30
2.01936e-31
4.2103e-32
8.00747e-33
1.43758e-33
2.43405e-34
3.82176e-35
5.75915e-36
)
;
    }
    rightWall
    {
        type            alphaContactAngle;
        contactAngleProperties 
        {
            mercury         
            {
                theta0          90;
            }
            air             
            {
                theta0          90;
            }
            water           
            {
                theta0          90;
            }
        }
        value           nonuniform List<scalar> 
50
(
0.0874421
0.100277
0.293086
0.305297
0.309536
0.404978
0.465437
0.465869
0.466409
0.466535
0.530382
0.715324
0.731161
0.493374
0.258296
0.176071
0.184486
0.0861686
1.02773e-21
5.80767e-05
2.11725e-05
8.92647e-08
4.40516e-07
1.58709e-06
1.7758e-06
1.7602e-06
1.73105e-06
1.43335e-06
1.61685e-06
1.63506e-06
1.67303e-06
1.59773e-06
7.05341e-07
8.86592e-09
9.59019e-09
6.92186e-09
9.55126e-09
1.25333e-08
1.47961e-08
1.21676e-08
1.23044e-08
5.13978e-09
4.66264e-09
1.2336e-09
6.05648e-10
1.29611e-10
7.8201e-11
3.75619e-11
1.07978e-11
1.4055e-12
)
;
    }
    lowerWall
    {
        type            alphaContactAngle;
        contactAngleProperties 
        {
            mercury         
            {
                theta0          90;
            }
            air             
            {
                theta0          90;
            }
            water           
            {
                theta0          90;
            }
        }
        value           nonuniform List<scalar> 
62
(
2.09934e-20
1.44628e-18
5.06193e-17
1.08421e-14
1.61074e-13
4.57434e-13
1.20209e-12
2.91972e-12
6.63252e-12
1.44735e-11
3.09042e-11
6.52099e-11
1.36239e-10
2.79472e-10
5.54459e-10
1.06704e-09
2.07222e-09
3.40537e-09
4.34828e-09
2.37295e-08
0.000169513
0.000568657
0.000568658
0.000568658
0.000540256
2.22166e-05
1.71972e-06
2.09935e-05
1.89289e-05
8.15824e-06
0.0620753
0.491958
0.527723
0.634603
0.772558
0.950672
0.950461
0.950508
0.753316
7.60496e-21
0.0264954
0.467881
0.598158
0.950672
0.947938
0.924394
0.875027
0.747039
0.765856
0.835473
0.916413
0.920653
0.920593
0.6964
0.46181
0.673114
0.668342
0.505764
0.0864701
0.0841086
0.101471
0.0874421
)
;
    }
    atmosphere
    {
        type            inletOutlet;
        inletValue      uniform 0;
        value           nonuniform List<scalar> 
46
(
5.75915e-36
2.23359e-34
3.9828e-33
5.55772e-32
6.3748e-31
6.23855e-30
4.85718e-29
3.47135e-28
2.15054e-27
1.17505e-26
5.45351e-26
2.31564e-25
8.45623e-25
2.8834e-24
8.97172e-24
2.73525e-23
9.47801e-23
4.2089e-22
2.67946e-21
2.00951e-20
1.43861e-19
9.49138e-19
0
0
0
0
0
0
0
0
0
0
0
0
0
0
0
0
0
0
0
0
0
0
0
0
)
;
    }
    defaultFaces
    {
        type            empty;
    }
}


// ************************************************************************* //
