/*--------------------------------*- C++ -*----------------------------------*\
  =========                 |
  \\      /  F ield         | OpenFOAM: The Open Source CFD Toolbox
   \\    /   O peration     | Website:  https://openfoam.org
    \\  /    A nd           | Version:  13
     \\/     M anipulation  |
\*---------------------------------------------------------------------------*/
FoamFile
{
    format      ascii;
    class       volScalarField;
    location    "0.95";
    object      alpha.mercury;
}
// * * * * * * * * * * * * * * * * * * * * * * * * * * * * * * * * * * * * * //

dimensions      [];

internalField   nonuniform List<scalar> 
2268
(
1
1
1
1
1
1
1
1
1
1
1
1
1
1
1
1
1
1
1
1
0.99983
0.999431
0.999431
1
1
1
1
1
1
1
1
1
1
1
1
1
1
1
1
1
1
1
1
0.999995
0.999832
0.99946
1
1
1
1
1
1
1
1
1
1
1
1
1
1
1
1
1
1
1
1
1
1
0.999978
1
1
1
1
1
1
1
1
1
1
1
1
1
1
1
1
1
1
1
1
1
0.999999
0.999998
1
1
1
1
1
1
1
1
1
1
1
1
1
1
1
1
1
0.999998
0.999998
0.999999
0.999999
0.999988
0.99985
1
1
1
1
1
1
1
1
0.998638
0.989323
0.971394
0.946218
0.916622
0.885074
0.852108
0.818753
0.786764
0.758558
0.736585
0.720104
0.701036
0.642986
0.586681
1
1
1
1
0.966399
0.886995
0.785023
0.652401
0.515151
0.404053
0.313924
0.241134
0.184992
0.142029
0.107931
0.080747
0.0597414
0.0445095
0.0343868
0.0268755
0.0210844
0.026496
0.0330356
1
0.994229
0.778765
0.502796
0.270426
0.124104
0.0364609
0.00207055
2.11758e-24
3.16156e-24
3.31896e-24
3.46494e-24
3.44124e-30
1.03628e-29
2.8155e-26
-1.72994e-30
-5.03723e-30
6.43012e-25
1.15817e-18
9.86438e-10
2.34878e-05
0.0203648
0.0723803
0.0374899
0.0356233
0.035612
0.0832247
0.193714
0.202045
0.163456
0.0835874
0.0793444
0.0793552
0.290224
0.518676
0.305201
0.278377
0.278377
0.56219
0.6884
0.688877
0.688473
0.0364478
0.0502457
0.0838698
0.169102
0.309413
0.395077
0.398117
0.392352
0.360545
0.457886
0.800989
0.809006
0.754907
0.579491
0.333505
0.458845
0.656306
0.688211
0.688877
0.0337402
0.12346
0.123262
0.0968979
0.0455991
0.0641527
0.147743
0.304771
0.399843
0.436619
0.537632
0.807437
0.865566
0.863752
0.644861
0.218345
0.315891
0.500419
0.68874
0.0420361
0.0691085
0.0551376
0.00375609
0.000224827
0.000206102
0.0002032
0.0103282
0.0540848
0.0543532
0.0315359
0.375654
0.850185
0.865566
0.722467
0.203552
0.208801
0.454671
0.688807
0.0462386
0.00627092
2.34974e-08
1.22313e-08
7.79711e-06
4.63849e-09
8.33527e-07
4.93226e-05
0.00018567
0.000242824
0.000201673
0.00643661
0.332917
0.672212
0.679504
0.200547
0.214064
0.636802
0.688569
0.0115388
0.000404847
2.34731e-07
6.18666e-07
7.76551e-09
4.564e-09
-1.2382e-10
5.0402e-18
1.88103e-07
1.88742e-05
6.31708e-05
7.65659e-05
0.00762017
0.404435
0.714685
0.446771
0.272415
0.683307
0.584777
0.000992408
0.000100819
2.37748e-07
1.56335e-06
4.6956e-07
1.66467e-07
2.29711e-08
-2.74311e-13
-4.51144e-12
5.52277e-12
-4.55831e-08
-4.34743e-20
0.0192594
0.501299
0.71461
0.673554
0.467895
0.68097
0.14146
0.00141898
6.51148e-08
7.48793e-07
1.43269e-06
4.04445e-07
2.59662e-07
2.91465e-07
3.77302e-08
4.06239e-10
1.00132e-11
1.03057e-06
-1.89157e-08
0.0498432
0.369574
0.421885
0.428966
0.434808
0.549974
0.018669
0.560462
0.172284
0.0378651
0.00303963
1.4088e-07
1.547e-07
-1.29792e-21
2.17556e-25
4.63534e-14
2.64862e-13
2.84758e-12
4.20596e-12
4.87716e-12
3.86881e-12
2.31957e-12
2.22515e-12
3.36285e-12
7.49745e-11
6.96469e-10
3.22097e-10
0.00669184
0.0730107
0.0808929
0.00189177
1.75813e-07
1.50679e-07
1.42407e-07
1.097e-08
4.61447e-09
2.21218e-17
7.89132e-13
5.28179e-12
1.33206e-11
2.33751e-11
3.08203e-11
3.14521e-11
2.62093e-11
2.12805e-11
1.74288e-11
2.16135e-11
1.48163e-10
3.51533e-10
3.00874e-10
3.24576e-11
6.9116e-11
1.32734e-09
1.54411e-08
3.79108e-08
1.91163e-08
1.01094e-09
1.03336e-09
3.57831e-10
1.35519e-13
4.66269e-12
1.65196e-11
3.56392e-11
6.17065e-11
6.93417e-11
6.05878e-11
4.88753e-11
5.12267e-11
1.25413e-10
7.77649e-10
4.5985e-09
9.34206e-09
1.05584e-08
1.05789e-08
9.41078e-09
7.11597e-09
2.19495e-09
3.64349e-09
2.05169e-09
1.82896e-09
6.80005e-10
1.51689e-10
9.6763e-13
1.47044e-12
2.1719e-12
1.86183e-12
1.7567e-12
2.83904e-12
4.2137e-12
1.51802e-11
1.00814e-09
6.09855e-09
9.18543e-09
9.27217e-09
8.74392e-09
2.87012e-09
7.35248e-10
4.55331e-10
3.99404e-10
1.28685e-09
1.39178e-09
1.46383e-09
1.09043e-09
3.19599e-10
5.16854e-11
7.36919e-13
4.49371e-13
4.39471e-13
3.569e-13
3.54629e-13
9.0364e-11
1.78115e-09
4.83373e-09
5.47618e-09
5.4251e-09
3.24413e-09
1.53641e-09
9.5097e-10
4.62577e-10
3.86139e-10
4.38922e-10
5.04808e-10
6.34964e-10
6.6843e-10
5.71865e-10
3.90121e-10
1.19465e-10
1.67885e-11
4.30502e-13
2.19427e-13
2.17369e-13
1.27757e-11
5.73125e-10
2.69054e-09
3.9304e-09
4.13456e-09
3.19791e-09
1.21667e-09
5.24481e-10
3.30643e-10
2.68189e-10
2.49085e-10
2.64524e-10
3.19382e-10
3.78788e-10
1.74127e-10
1.88033e-10
1.57747e-10
1.23358e-10
4.27289e-11
5.94781e-12
2.54616e-13
7.10182e-13
7.49031e-11
7.90404e-10
1.90481e-09
2.44806e-09
2.38242e-09
1.16187e-09
4.23131e-10
1.65364e-10
1.26135e-10
1.14594e-10
1.05111e-10
1.23033e-10
1.42276e-10
1.57839e-10
1.57089e-10
2.95858e-11
2.61372e-11
2.36038e-11
2.32375e-11
6.87569e-12
6.90659e-13
5.90291e-13
7.51923e-11
7.00825e-10
1.37671e-09
1.47073e-09
1.10069e-09
5.63669e-10
2.48957e-10
1.32501e-10
8.71205e-11
5.58283e-11
5.77388e-11
6.704e-11
6.97446e-11
6.23392e-11
3.8994e-11
2.72514e-11
3.40345e-13
2.43727e-13
2.12647e-13
3.61183e-13
1.57682e-13
2.33762e-13
1.38257e-11
4.08825e-10
1.17465e-09
1.31918e-09
9.30444e-10
4.26916e-10
1.77091e-10
8.94815e-11
4.83474e-11
3.57604e-11
2.6452e-11
2.59369e-11
2.31928e-11
1.94261e-11
1.5178e-11
1.16931e-11
9.19721e-12
6.61655e-16
1.04967e-16
1.59539e-16
4.36173e-15
1.88763e-13
2.33463e-12
2.50147e-11
4.31397e-10
1.18109e-09
1.32562e-09
8.37546e-10
2.22694e-10
6.0061e-11
2.40808e-11
1.34522e-11
1.16642e-11
1.06284e-11
9.85397e-12
8.72682e-12
7.51459e-12
6.73947e-12
5.67988e-12
4.75303e-12
5.47942e-17
6.48692e-18
4.0634e-17
4.91576e-16
2.52217e-13
4.57457e-12
2.82866e-11
2.5101e-10
7.36884e-10
1.00854e-09
8.87926e-10
4.53548e-10
2.01091e-10
9.09038e-11
3.68341e-11
1.62e-11
1.13971e-11
1.0138e-11
7.85852e-12
6.24766e-12
5.43811e-12
4.10294e-12
3.36881e-12
2.95156e-18
4.33139e-19
1.39371e-16
2.8472e-15
5.31368e-14
2.20657e-12
1.4267e-11
1.06664e-10
3.43551e-10
5.54593e-10
6.1858e-10
5.62278e-10
4.87333e-10
4.56512e-10
3.9724e-10
3.13532e-10
1.62957e-10
4.33551e-11
1.3812e-11
8.27443e-12
5.71402e-12
4.61001e-12
3.86385e-12
1.28858e-19
2.86955e-20
1.78285e-17
2.08094e-15
3.05025e-14
6.26098e-13
5.259e-12
2.06464e-11
1.06848e-10
2.41944e-10
3.29158e-10
3.37231e-10
3.86646e-10
4.42146e-10
5.21983e-10
5.58358e-10
5.49724e-10
3.90653e-10
1.292e-10
3.54532e-11
1.5391e-11
8.4733e-12
6.02675e-12
1.04082e-21
2.13852e-21
3.59704e-18
6.22192e-16
7.86591e-15
1.22865e-13
1.44015e-12
9.0913e-12
2.37058e-11
7.71761e-11
1.04526e-10
1.34941e-10
2.01764e-10
2.64741e-10
3.22459e-10
4.32103e-10
5.45992e-10
5.7752e-10
5.28961e-10
2.43093e-10
6.84437e-11
3.36343e-11
1.8241e-11
1.48799e-23
9.97485e-23
4.45736e-19
1.03459e-16
1.44143e-15
1.97523e-14
2.82787e-13
2.7476e-12
1.05914e-11
1.42739e-11
1.18986e-11
1.85359e-11
4.22016e-11
6.74944e-11
9.33668e-11
1.39313e-10
2.65208e-10
4.15462e-10
5.36835e-10
4.80772e-10
2.2394e-10
8.3971e-11
4.36479e-11
4.44747e-24
7.28764e-24
2.30461e-20
8.37891e-18
1.81612e-16
2.05081e-15
3.53557e-14
4.78388e-13
3.22524e-12
3.05995e-12
3.75206e-12
5.48019e-12
9.71075e-12
1.27518e-11
1.63784e-11
2.04003e-11
5.3497e-11
1.25598e-10
2.74598e-10
3.93131e-10
2.96191e-10
1.38293e-10
6.50701e-11
1.0755e-24
1.64994e-24
1.19757e-22
5.1179e-19
1.78823e-17
1.92962e-16
3.18777e-15
5.0441e-14
4.49176e-13
6.31655e-13
8.38083e-13
1.4923e-12
2.50618e-12
2.84804e-12
2.87546e-12
5.80706e-12
1.09264e-11
2.12582e-11
5.20886e-11
1.25208e-10
1.48445e-10
1.08244e-10
5.22097e-11
2.68916e-25
5.80778e-25
2.04239e-23
1.74596e-20
2.6049e-18
4.08716e-17
4.52573e-16
5.80809e-15
3.74305e-14
1.24084e-13
1.98027e-13
4.56628e-13
7.343e-13
9.33929e-13
1.21632e-12
1.65297e-12
2.23754e-12
5.99937e-12
1.09406e-11
1.89902e-11
3.1197e-11
2.82302e-11
1.90348e-11
3.28541e-26
1.32321e-25
2.93846e-24
2.47913e-21
4.47204e-19
6.69558e-18
6.73113e-17
6.57486e-16
6.4266e-15
2.861e-14
6.26195e-14
1.57014e-13
2.714e-13
4.22103e-13
6.53594e-13
7.72049e-13
7.47349e-13
2.43796e-12
4.49039e-12
4.56716e-12
5.4471e-12
4.73833e-12
3.93718e-12
-2.95644e-27
2.16945e-26
5.01649e-25
1.84227e-22
5.23997e-20
9.10068e-19
1.21004e-17
8.55257e-17
8.45454e-16
4.85079e-15
1.65996e-14
4.80677e-14
9.93735e-14
1.764e-13
2.84271e-13
3.68659e-13
3.35646e-13
1.10488e-12
2.15633e-12
2.39403e-12
1.95962e-12
1.35783e-12
1.34239e-12
-3.2569e-27
1.68197e-27
8.64357e-26
1.22033e-23
4.87585e-21
1.00328e-19
1.67173e-18
1.60507e-17
1.33151e-16
8.31239e-16
3.70953e-15
1.29921e-14
3.21009e-14
6.26282e-14
1.04819e-13
1.40873e-13
1.4394e-13
4.6745e-13
9.05803e-13
1.08521e-12
1.02976e-12
8.19567e-13
7.75575e-13
-1.19258e-27
-4.08523e-28
1.36103e-26
6.83161e-25
3.5997e-22
9.30592e-21
1.77104e-19
2.16809e-18
2.12835e-17
1.41343e-16
7.27166e-16
3.04551e-15
8.6923e-15
1.86513e-14
3.35032e-14
4.63437e-14
5.93628e-14
1.89707e-13
3.59067e-13
4.48637e-13
4.39024e-13
4.20423e-13
3.93193e-13
-3.13809e-28
-2.2844e-28
1.88794e-27
3.43596e-26
2.12053e-23
7.07376e-22
1.44577e-20
2.23133e-19
2.63163e-18
2.00209e-17
1.17915e-16
5.87405e-16
1.90996e-15
4.65542e-15
8.98761e-15
1.45385e-14
2.40838e-14
7.25508e-14
1.33164e-13
1.70705e-13
1.81395e-13
1.75656e-13
1.78694e-13
-6.67129e-29
-6.4475e-29
2.22979e-28
1.90756e-27
9.90144e-25
4.39318e-23
9.76554e-22
1.81283e-20
2.54947e-19
2.27453e-18
1.53987e-17
9.15477e-17
3.4097e-16
9.87882e-16
2.16007e-15
4.39584e-15
8.96088e-15
2.515e-14
4.50554e-14
5.91516e-14
6.57333e-14
7.04294e-14
6.88299e-14
-1.19495e-29
-1.36213e-29
2.12453e-29
1.43855e-28
3.61614e-26
2.22431e-24
5.59369e-23
1.21397e-21
1.99344e-20
2.09732e-19
1.62048e-18
1.16322e-17
5.05328e-17
1.82433e-16
4.80211e-16
1.22963e-15
2.87051e-15
7.6448e-15
1.35501e-14
1.82888e-14
2.12989e-14
2.1834e-14
2.16428e-14
-1.84174e-30
-2.3551e-30
1.43354e-30
1.30004e-29
1.02693e-27
9.16856e-26
2.78979e-24
7.03926e-23
1.30863e-21
1.61379e-20
1.4143e-19
1.24051e-18
6.42765e-18
2.98504e-17
9.74288e-17
3.00005e-16
7.66426e-16
1.99215e-15
3.54247e-15
4.92957e-15
5.81534e-15
6.49637e-15
6.04968e-15
-2.47525e-31
-3.45532e-31
2.86084e-32
1.126e-30
2.30176e-29
3.11348e-27
1.28719e-25
3.75257e-24
7.62349e-23
1.0868e-21
1.08327e-20
1.15482e-19
7.24232e-19
4.3254e-18
1.7342e-17
6.13116e-17
1.68636e-16
4.38749e-16
7.91058e-16
1.13391e-15
1.36648e-15
1.24961e-15
1.11856e-15
-2.92992e-32
-4.3872e-32
-1.03653e-32
8.43258e-32
4.42257e-31
8.93133e-29
5.78841e-27
1.91945e-25
4.16736e-24
6.73845e-23
7.73721e-22
9.69047e-21
7.34323e-20
5.46361e-19
2.61598e-18
1.03129e-17
3.05309e-17
8.09443e-17
1.48839e-16
2.18677e-16
2.66673e-16
2.53711e-16
1.97637e-16
-3.08061e-33
-4.88449e-33
-2.17441e-33
5.15387e-33
9.37448e-33
2.23458e-30
2.52035e-28
9.34698e-27
2.17685e-25
3.92982e-24
5.26618e-23
7.40946e-22
6.67816e-21
5.91161e-20
3.28459e-19
1.42285e-18
4.55831e-18
1.24384e-17
2.3338e-17
3.48505e-17
4.22173e-17
2.45145e-17
2.12653e-17
-2.89982e-34
-4.81809e-34
-2.79385e-34
2.33789e-34
2.79976e-34
5.02864e-32
1.00591e-29
4.16629e-28
1.05827e-26
2.12364e-25
3.33019e-24
5.12235e-23
5.37732e-22
5.42241e-21
3.41751e-20
1.61595e-19
5.63008e-19
1.586e-18
3.02172e-18
4.5347e-18
5.35011e-18
3.36033e-18
1.97034e-18
-2.46224e-35
-4.24876e-35
-2.82177e-35
5.40715e-36
8.97098e-36
1.03457e-33
3.57791e-31
1.64588e-29
4.62618e-28
1.03732e-26
1.88882e-25
3.15949e-24
3.7878e-23
4.20702e-22
2.95707e-21
1.52065e-20
5.77018e-20
1.67393e-19
3.2062e-19
4.76914e-19
5.36186e-19
2.34105e-19
1.45517e-19
-1.8997e-36
-3.37748e-36
-2.41108e-36
-2.9218e-37
1.52419e-37
1.91504e-35
1.09687e-32
5.69839e-31
1.78488e-29
4.51738e-28
9.42682e-27
1.72128e-25
2.31889e-24
2.77101e-23
2.14425e-22
1.18898e-21
4.88986e-21
1.46378e-20
2.77314e-20
4.02266e-20
4.20303e-20
2.21317e-20
7.67103e-21
-1.34126e-37
-2.43947e-37
-1.80475e-37
-5.0979e-38
-8.87288e-39
3.07683e-37
2.81641e-34
1.73334e-32
6.00236e-31
1.74994e-29
4.12659e-28
8.24344e-27
1.23259e-25
1.56051e-24
1.31564e-23
7.77765e-23
3.48275e-22
1.05672e-21
1.949e-21
2.70034e-21
2.5945e-21
8.95224e-22
3.46916e-22
-8.72539e-39
-1.61318e-38
-1.20879e-38
-4.40869e-39
-1.22617e-39
3.97826e-39
5.58502e-36
4.64371e-34
1.73139e-32
6.04986e-31
1.59194e-29
3.47116e-28
5.7065e-27
7.58053e-26
6.90125e-25
4.35687e-24
2.08958e-23
6.31311e-23
1.11421e-22
1.44492e-22
9.15158e-23
3.25807e-23
1.01495e-23
-5.26439e-40
-9.83893e-40
-7.35434e-40
-2.96517e-40
-8.84246e-41
8.97002e-41
8.42455e-38
1.08588e-35
4.35566e-34
1.87665e-32
5.45368e-31
1.291e-29
2.31465e-28
3.20681e-27
3.12721e-26
2.10891e-25
1.05416e-24
3.14411e-24
5.20699e-24
6.19972e-24
2.36126e-24
7.36924e-25
3.23869e-25
-2.96424e-41
-5.5741e-41
-4.11262e-41
-1.71247e-41
-4.30843e-42
2.52302e-41
1.88511e-39
2.29186e-37
1.06242e-35
5.27087e-34
1.67512e-32
4.2761e-31
8.28909e-30
1.193e-28
1.23678e-27
8.79156e-27
4.4936e-26
1.31792e-25
2.00825e-25
2.1559e-25
6.61858e-26
2.8949e-26
6.04514e-26
-1.56697e-42
-2.95343e-42
-2.13455e-42
-8.79915e-43
5.70275e-44
8.20981e-42
1.97795e-40
7.29383e-39
3.0761e-37
1.40241e-35
4.71622e-34
1.27981e-32
2.64829e-31
3.94608e-30
4.31615e-29
3.18392e-28
1.65598e-27
4.69009e-27
6.51736e-27
6.36798e-27
2.7032e-27
5.36491e-27
2.37066e-26
-7.82095e-44
-1.47312e-43
-1.03662e-43
-3.94944e-44
7.97718e-44
2.30551e-42
4.8236e-41
9.56915e-40
1.9784e-38
5.01276e-37
1.39815e-35
3.67264e-34
7.77882e-33
1.18559e-31
1.35267e-30
1.0235e-29
5.37678e-29
1.45978e-28
1.93428e-28
2.28136e-28
4.08427e-28
1.84754e-27
9.32455e-27
-3.70592e-45
-6.95941e-45
-4.73553e-45
-1.16191e-45
2.20773e-44
5.74561e-43
1.1816e-41
2.17496e-40
3.52569e-39
5.37921e-38
8.31274e-37
1.44625e-35
2.55915e-34
3.59892e-33
4.08974e-32
3.12077e-31
1.64654e-30
4.65539e-30
8.67052e-30
2.69099e-29
1.23827e-28
6.33154e-28
4.01356e-27
-1.67614e-46
-3.13144e-46
-2.02707e-46
8.09996e-47
4.95568e-45
1.28734e-43
2.62477e-42
4.7893e-41
7.54715e-40
1.05068e-38
1.28552e-37
1.51239e-36
1.32577e-35
1.80642e-34
1.728e-33
1.26762e-32
7.14191e-32
2.70515e-31
1.27138e-30
7.34258e-30
4.50504e-29
3.06666e-28
1.92287e-27
-7.27366e-48
-1.34792e-47
-7.75498e-48
2.96278e-47
1.0133e-45
2.61889e-44
5.30664e-43
9.61218e-42
1.50494e-40
2.06254e-39
2.44222e-38
2.66508e-37
2.48451e-36
2.25883e-35
1.80559e-34
1.278e-33
8.34063e-33
5.11465e-32
3.51268e-31
2.59741e-30
1.90917e-29
1.27677e-28
8.90135e-28
-3.04237e-49
-5.55828e-49
-1.84411e-49
6.14891e-48
1.9216e-46
4.87968e-45
9.83569e-44
1.76113e-42
2.74647e-41
3.73167e-40
4.40289e-39
4.7847e-38
4.47307e-37
3.91111e-36
3.09165e-35
2.31404e-34
1.75244e-33
1.37786e-32
1.16639e-31
9.65987e-31
7.10298e-30
4.68145e-29
3.04685e-28
0.0506489
0.00983111
3.89554e-09
0.000555793
7.06672e-10
1.23226e-09
3.81342e-09
3.52611e-09
3.28645e-09
4.12594e-09
5.07389e-09
4.754e-09
4.21779e-10
4.64788e-10
4.79118e-10
4.70905e-10
6.35981e-10
7.62796e-10
8.83319e-10
9.56394e-10
4.75843e-10
5.37611e-10
6.02586e-10
7.45072e-10
1.30013e-10
1.13335e-10
1.04286e-10
9.77857e-11
2.50319e-11
2.47647e-11
2.47275e-11
2.71329e-11
8.4961e-12
8.47212e-12
8.4693e-12
9.79092e-12
4.05659e-12
3.85387e-12
3.72051e-12
3.6274e-12
3.12903e-12
2.7821e-12
2.45517e-12
2.23691e-12
2.98596e-12
2.80573e-12
2.54493e-12
2.18518e-12
3.941e-12
3.09188e-12
2.52344e-12
2.33571e-12
1.11055e-11
7.71812e-12
5.29663e-12
3.48167e-12
2.99132e-11
2.24765e-11
1.57604e-11
1.12229e-11
4.48524e-11
3.58969e-11
2.75546e-11
1.90662e-11
3.21107e-11
2.96692e-11
2.70748e-11
2.3274e-11
1.23814e-11
9.99027e-12
8.45055e-12
7.73318e-12
3.44941e-12
3.04287e-12
2.71788e-12
2.5555e-12
1.31756e-12
1.2996e-12
1.26785e-12
1.21285e-12
7.67416e-13
7.53589e-13
7.26519e-13
6.7749e-13
3.77106e-13
3.69375e-13
3.50116e-13
3.21964e-13
1.74572e-13
1.65385e-13
1.53089e-13
1.35469e-13
6.44188e-14
6.09783e-14
5.3975e-14
4.64868e-14
2.10249e-14
1.84706e-14
1.58777e-14
1.26911e-14
4.97932e-15
4.34169e-15
3.56122e-15
2.79034e-15
9.93613e-16
7.71356e-16
6.11884e-16
4.42974e-16
1.64008e-16
1.38675e-16
8.75377e-17
5.84621e-17
1.83048e-17
1.10769e-17
7.67919e-18
4.75381e-18
1.23001e-18
7.8483e-19
4.82084e-19
3.07769e-19
7.55739e-20
4.29635e-20
2.4819e-20
1.14786e-20
2.81755e-21
1.53521e-21
7.66439e-22
3.35024e-22
1.03474e-22
3.63579e-23
1.56737e-23
8.53967e-24
2.10189e-24
1.23183e-24
1.47723e-24
2.79105e-24
2.6775e-25
3.71987e-25
8.52281e-25
1.79227e-24
1.05429e-25
2.40001e-25
6.32097e-25
1.86532e-24
4.8685e-26
9.17683e-26
4.59737e-25
1.3595e-24
2.77271e-26
9.53707e-26
3.00491e-25
8.98326e-25
1.47516e-26
4.92395e-26
1.94444e-25
5.77807e-25
9.32963e-27
3.34634e-26
1.04273e-25
3.3053e-25
4.58327e-27
1.58505e-26
5.20199e-26
1.48102e-25
1.7215e-27
5.30308e-27
1.48724e-26
3.68532e-26
0.000889302
5.17112e-08
2.50655e-07
2.13684e-07
1.762e-07
4.86323e-07
5.41193e-07
1.70885e-07
4.83435e-09
4.03979e-06
7.01893e-06
0.000106836
0.0781781
0.159978
0.157956
0.201626
0.307735
0.0971956
0.0181483
4.2028e-09
9.74477e-09
9.43472e-09
3.50563e-08
1.74604e-07
5.30972e-07
6.36158e-07
6.8193e-07
4.60135e-07
9.15521e-08
0.000239335
0.00127344
0.0226212
0.0853493
0.224513
0.258777
0.213969
0.0539374
0.0178534
2.79685e-09
1.76818e-09
5.46235e-10
5.38265e-10
5.42117e-10
3.77393e-09
1.56127e-07
4.69431e-07
4.74227e-07
8.57621e-08
1.74326e-05
0.000681022
0.00893009
0.0319104
0.120513
0.157555
0.05945
0.00202193
0.00620542
5.249e-10
7.4023e-10
1.53235e-09
3.97742e-09
9.97245e-09
1.11801e-08
1.14949e-08
2.61566e-08
6.6095e-08
8.58714e-08
8.6939e-08
2.14419e-06
0.000497636
0.0065988
0.0123086
0.0134963
5.28389e-06
0.00190923
0.00170089
1.06423e-09
1.27267e-09
3.02123e-09
1.13609e-08
3.6474e-08
3.60668e-08
3.31719e-08
2.17787e-08
1.33499e-08
1.40887e-08
5.44991e-07
3.92726e-06
4.00656e-06
4.78739e-06
3.80635e-06
4.73987e-06
5.31434e-06
0.00206078
0.00109687
1.02532e-09
1.75022e-09
2.38656e-09
4.20364e-09
1.41969e-08
2.9613e-08
2.98919e-08
2.9128e-08
1.77042e-08
1.56244e-08
1.6089e-08
6.67707e-07
0.000127732
0.000300657
0.000303383
0.000170562
2.36242e-05
1.14767e-05
0.00106862
8.36539e-11
5.72136e-11
4.4754e-11
4.53623e-11
4.4754e-11
1.7159e-10
2.26508e-09
2.41588e-09
2.43825e-08
1.02993e-07
9.88389e-08
4.93356e-07
4.84056e-05
8.51623e-05
7.45607e-05
5.9576e-05
1.74335e-05
1.35802e-05
0.00116573
3.5655e-11
4.52078e-11
4.93791e-11
4.86919e-11
4.56973e-11
6.70273e-11
5.63666e-10
2.85246e-09
6.54594e-09
7.50597e-09
8.9189e-09
3.88431e-09
4.55828e-10
2.21609e-24
6.35979e-24
1.99211e-23
6.57297e-06
4.73522e-05
0.000806752
1.58035e-11
2.49333e-11
3.34114e-11
3.75006e-11
3.80135e-11
2.91043e-11
1.85525e-11
2.76964e-11
3.45202e-11
4.11589e-15
-3.61972e-14
1.27768e-13
2.12258e-08
3.95322e-07
5.51663e-07
4.84721e-07
1.50762e-06
1.19021e-05
2.59501e-05
3.82024e-12
4.92412e-12
7.09089e-12
8.29995e-12
8.59742e-12
8.49602e-12
7.46112e-12
4.06272e-12
6.68233e-13
3.29457e-13
2.79482e-13
2.30575e-13
2.90171e-15
1.24364e-16
7.20052e-16
7.22491e-17
2.54316e-16
2.47822e-17
3.35787e-16
1.97057e-12
1.6633e-12
1.46584e-12
1.34825e-12
1.31675e-12
1.5615e-12
2.28417e-12
2.95497e-12
3.13819e-12
2.81673e-12
2.17824e-12
1.42553e-12
6.46764e-13
1.78123e-13
6.98716e-14
2.93938e-14
5.83844e-15
2.58918e-15
2.40068e-15
1.9033e-12
1.48839e-12
1.21129e-12
1.03771e-12
8.79541e-13
7.30348e-13
6.17074e-13
5.23849e-13
4.45509e-13
3.70759e-13
2.98144e-13
2.40537e-13
1.91732e-13
1.40959e-13
1.0081e-13
5.85541e-14
2.18645e-14
7.22951e-15
3.03267e-15
2.0175e-12
1.4239e-12
1.16782e-12
9.81268e-13
8.38838e-13
7.35309e-13
6.36905e-13
5.31235e-13
4.44312e-13
3.71456e-13
3.20144e-13
2.87905e-13
2.46631e-13
1.82949e-13
1.3135e-13
8.47399e-14
4.77896e-14
2.12261e-14
4.18598e-15
2.05061e-12
1.21087e-12
9.34803e-13
8.38378e-13
7.44555e-13
6.79315e-13
6.07928e-13
5.70007e-13
5.17417e-13
4.24632e-13
3.54074e-13
3.13524e-13
2.6158e-13
1.99992e-13
1.58156e-13
1.18957e-13
7.49095e-14
3.70495e-14
5.6808e-15
5.94801e-12
1.20017e-12
5.01978e-13
4.06072e-13
4.52004e-13
4.68465e-13
4.56947e-13
4.2959e-13
3.93204e-13
3.51221e-13
2.81301e-13
2.24873e-13
2.00154e-13
1.91352e-13
1.61388e-13
1.25561e-13
8.3509e-14
4.5781e-14
9.10039e-15
1.19389e-11
3.26404e-12
4.88221e-13
2.11984e-13
1.4565e-13
1.64249e-13
2.19929e-13
2.35145e-13
1.95065e-13
1.55685e-13
1.17192e-13
1.00807e-13
9.89255e-14
9.75375e-14
1.08638e-13
1.16371e-13
9.08548e-14
5.43316e-14
1.07182e-14
1.49194e-11
4.6256e-12
1.11268e-12
2.48072e-13
1.03975e-13
6.8701e-14
6.01786e-14
6.20029e-14
6.36429e-14
6.17795e-14
6.21554e-14
5.0045e-14
4.61916e-14
4.77099e-14
6.2234e-14
8.2257e-14
8.47272e-14
5.65264e-14
1.21032e-14
6.37828e-12
4.15122e-12
1.57718e-12
4.21681e-13
1.19417e-13
5.82733e-14
3.79407e-14
3.20856e-14
3.41556e-14
3.18623e-14
3.42269e-14
2.83268e-14
2.92997e-14
3.2698e-14
4.51689e-14
5.88197e-14
7.21403e-14
5.52751e-14
1.28299e-14
2.26471e-12
1.67345e-12
1.02853e-12
4.50348e-13
1.50822e-13
6.30796e-14
2.89793e-14
1.88497e-14
2.00698e-14
2.24662e-14
2.43517e-14
2.06204e-14
2.10679e-14
2.47259e-14
3.56845e-14
4.55258e-14
6.4957e-14
4.95119e-14
1.36602e-14
1.00092e-12
7.68982e-13
4.31384e-13
2.48989e-13
1.22638e-13
5.78178e-14
2.61896e-14
1.31497e-14
1.16537e-14
1.25821e-14
1.27097e-14
1.20357e-14
1.20855e-14
1.51958e-14
2.47644e-14
3.72489e-14
5.13785e-14
4.72004e-14
1.28148e-14
5.49161e-13
3.89873e-13
1.74617e-13
1.03729e-13
6.07667e-14
3.10623e-14
1.52925e-14
8.06613e-15
5.80673e-15
5.91467e-15
6.20484e-15
6.05252e-15
6.4009e-15
9.21442e-15
1.72701e-14
2.86498e-14
4.49602e-14
3.95394e-14
1.06191e-14
2.40109e-13
1.6415e-13
7.41772e-14
3.74149e-14
2.26548e-14
1.23251e-14
6.19921e-15
3.32087e-15
2.36558e-15
2.43565e-15
2.68555e-15
2.89223e-15
3.45401e-15
5.81616e-15
1.26779e-14
2.27246e-14
3.50289e-14
3.19721e-14
8.27455e-15
9.26158e-14
5.82091e-14
2.83391e-14
1.23253e-14
7.0963e-15
3.92422e-15
2.10827e-15
1.16212e-15
8.97043e-16
9.86171e-16
1.1872e-15
1.38348e-15
1.92837e-15
4.00387e-15
1.00043e-14
1.87332e-14
3.17676e-14
2.45046e-14
7.17013e-15
2.88984e-14
1.66896e-14
8.39195e-15
3.45058e-15
1.90551e-15
1.03803e-15
5.85067e-16
3.50602e-16
3.34305e-16
3.99616e-16
4.9198e-16
6.32602e-16
1.14163e-15
2.9251e-15
7.52359e-15
1.44134e-14
2.35742e-14
1.84829e-14
4.6311e-15
7.18459e-15
3.83691e-15
1.86992e-15
8.3755e-16
3.85182e-16
2.22653e-16
1.13406e-16
1.01125e-16
1.24256e-16
1.64866e-16
2.17085e-16
3.16606e-16
6.14256e-16
1.81663e-15
4.90344e-15
9.11515e-15
1.95008e-14
1.30727e-14
3.51155e-15
1.44513e-15
7.08094e-16
3.40248e-16
1.5121e-16
4.70068e-17
2.74996e-17
2.78218e-17
3.4652e-17
4.57913e-17
5.67331e-17
5.58968e-17
8.99894e-17
3.30659e-16
1.29786e-15
3.66172e-15
6.64408e-15
1.03284e-14
9.54639e-15
1.96038e-15
2.09553e-16
9.9555e-17
4.64303e-17
1.23136e-17
6.87374e-18
6.84496e-18
7.70137e-18
7.26817e-18
7.22617e-18
7.27554e-18
9.54297e-18
3.81995e-17
2.36611e-16
1.00927e-15
2.63258e-15
4.48765e-15
5.71919e-15
4.2891e-15
1.39408e-15
2.59159e-17
1.18714e-17
2.69494e-18
1.40075e-18
9.69028e-19
8.09389e-19
7.49999e-19
7.16954e-19
7.1207e-19
8.50391e-19
2.17434e-18
2.31581e-17
1.70962e-16
6.92365e-16
1.68616e-15
2.78899e-15
2.83621e-15
2.69529e-15
5.29631e-16
2.33369e-18
5.35503e-19
1.62057e-19
1.12266e-19
9.3504e-20
7.81568e-20
6.22876e-20
5.32484e-20
6.33337e-20
1.25843e-19
6.91335e-19
1.38529e-17
1.03374e-16
3.82995e-16
8.95487e-16
1.41991e-15
1.35998e-15
7.02742e-16
2.76458e-16
1.21114e-19
2.32419e-20
6.46167e-21
2.80322e-21
3.0686e-21
4.67395e-21
8.17158e-21
1.54472e-20
3.07424e-20
6.86648e-20
2.66962e-19
6.35165e-18
4.68901e-17
1.67742e-16
4.02183e-16
5.98242e-16
5.27296e-16
2.64992e-16
4.53831e-17
3.64004e-21
6.13196e-22
5.84253e-22
1.04732e-21
2.21839e-21
4.7341e-21
9.79913e-21
1.89878e-20
3.67205e-20
7.07789e-20
1.69931e-19
2.34282e-18
1.60437e-17
5.70803e-17
1.44753e-16
2.05054e-16
1.90839e-16
7.18956e-17
1.49225e-17
1.2163e-22
1.65254e-22
4.77998e-22
1.16584e-21
2.57116e-21
5.86172e-21
1.23921e-20
2.51333e-20
4.84252e-20
8.81935e-20
1.63265e-19
7.95433e-19
5.07204e-18
1.76976e-17
4.19874e-17
5.44457e-17
4.16489e-17
1.86765e-17
2.84814e-18
2.51395e-23
1.6922e-22
4.65842e-22
1.16655e-21
2.7587e-21
6.29725e-21
1.37865e-20
2.86703e-20
5.65402e-20
1.04858e-19
1.82101e-19
3.67873e-19
1.79207e-18
5.28383e-18
1.01158e-17
1.53245e-17
1.5763e-17
4.36038e-18
1.38253e-18
2.05388e-23
1.38961e-22
3.84151e-22
1.01785e-21
2.56546e-21
6.16014e-21
1.40048e-20
2.99478e-20
6.04566e-20
1.14063e-19
1.99167e-19
3.28128e-19
7.18234e-19
1.55941e-18
2.58155e-18
4.0391e-18
2.82748e-18
1.69181e-18
2.64675e-19
2.2272e-23
9.03238e-23
2.72605e-22
7.78037e-22
2.08876e-21
5.30433e-21
1.26425e-20
2.82146e-20
5.91668e-20
1.14218e-19
2.00935e-19
3.28241e-19
4.76993e-19
7.49297e-19
1.3916e-18
1.75681e-18
1.45932e-18
4.30331e-19
1.44813e-19
1.35153e-23
5.41143e-23
1.76017e-22
5.3914e-22
1.54293e-21
4.10753e-21
1.0207e-20
2.36045e-20
5.12642e-20
1.01206e-19
1.79587e-19
2.83493e-19
3.96941e-19
5.93275e-19
8.42222e-19
8.74587e-19
5.07101e-19
2.29856e-19
4.5367e-20
7.80861e-24
3.08573e-23
1.07491e-22
3.49065e-22
1.04271e-21
2.86314e-21
7.29327e-21
1.71966e-20
3.81706e-20
7.68662e-20
1.3728e-19
2.15001e-19
3.10789e-19
4.09263e-19
4.0957e-19
3.37912e-19
1.98923e-19
5.80067e-20
2.60464e-20
4.37725e-24
1.74132e-23
6.3667e-23
2.14545e-22
6.4697e-22
1.79315e-21
4.58838e-21
1.07518e-20
2.37563e-20
4.84743e-20
8.60185e-20
1.32615e-19
1.83488e-19
2.16865e-19
1.51568e-19
9.59236e-20
3.76343e-20
3.024e-20
8.62216e-21
2.28721e-24
9.40274e-24
3.49115e-23
1.17001e-22
3.49086e-22
9.71663e-22
2.44027e-21
5.57534e-21
1.19882e-20
2.41136e-20
4.15904e-20
6.13455e-20
7.96501e-20
8.4251e-20
5.53181e-20
2.54219e-20
1.82789e-20
7.75295e-21
4.6897e-21
1.08113e-24
4.26866e-24
1.55704e-23
5.08467e-23
1.49356e-22
4.0428e-22
1.00539e-21
2.3182e-21
4.84395e-21
9.41184e-21
1.59802e-20
2.30028e-20
2.569e-20
2.64849e-20
1.57398e-20
8.96908e-21
3.91957e-21
3.21004e-21
2.07979e-21
4.03052e-25
1.50238e-24
5.24593e-24
1.64319e-23
4.6718e-23
1.24638e-22
3.11078e-22
7.05152e-22
1.47963e-21
2.74693e-21
4.50516e-21
6.23658e-21
6.88762e-21
5.98496e-21
3.36342e-21
2.17332e-21
1.16876e-21
9.31042e-22
5.97098e-22
8.3276e-26
2.99944e-25
1.00837e-24
3.06933e-24
8.55837e-24
2.32912e-23
5.48722e-23
1.25343e-22
2.53807e-22
4.63476e-22
7.25684e-22
9.53035e-22
9.86585e-22
7.34332e-22
4.25997e-22
3.11904e-22
2.30915e-22
9.61587e-23
8.00388e-23
)
;

boundaryField
{
    leftWall
    {
        type            alphaContactAngle;
        contactAngleProperties 
        {
            air             
            {
                theta0          90;
            }
            water           
            {
                theta0          90;
            }
            oil             
            {
                theta0          90;
            }
        }
        value           nonuniform List<scalar> 
50
(
1
1
1
1
1
1
1
1
0.560462
0.00189177
1.54411e-08
2.19495e-09
1.28685e-09
6.34964e-10
1.74127e-10
2.95858e-11
3.40345e-13
6.61655e-16
5.47942e-17
2.95156e-18
1.28858e-19
1.04082e-21
1.48799e-23
4.44747e-24
1.0755e-24
2.68916e-25
3.28541e-26
-2.95644e-27
-3.2569e-27
-1.19258e-27
-3.13809e-28
-6.67129e-29
-1.19495e-29
-1.84174e-30
-2.47525e-31
-2.92992e-32
-3.08061e-33
-2.89982e-34
-2.46224e-35
-1.8997e-36
-1.34126e-37
-8.72539e-39
-5.26439e-40
-2.96424e-41
-1.56697e-42
-7.82095e-44
-3.70592e-45
-1.67614e-46
-7.27366e-48
-3.04237e-49
)
;
    }
    rightWall
    {
        type            alphaContactAngle;
        contactAngleProperties 
        {
            air             
            {
                theta0          90;
            }
            water           
            {
                theta0          90;
            }
            oil             
            {
                theta0          90;
            }
        }
        value           nonuniform List<scalar> 
50
(
0.688473
0.688877
0.68874
0.688807
0.688569
0.584777
0.14146
0.018669
0.0181483
0.0178534
0.00620542
0.00170089
0.00109687
0.00106862
0.00116573
0.000806752
2.59501e-05
3.35787e-16
2.40068e-15
3.03267e-15
4.18598e-15
5.6808e-15
9.10039e-15
1.07182e-14
1.21032e-14
1.28299e-14
1.36602e-14
1.28148e-14
1.06191e-14
8.27455e-15
7.17013e-15
4.6311e-15
3.51155e-15
1.96038e-15
1.39408e-15
5.29631e-16
2.76458e-16
4.53831e-17
1.49225e-17
2.84814e-18
1.38253e-18
2.64675e-19
1.44813e-19
4.5367e-20
2.60464e-20
8.62216e-21
4.6897e-21
2.07979e-21
5.97098e-22
8.00388e-23
)
;
    }
    lowerWall
    {
        type            alphaContactAngle;
        contactAngleProperties 
        {
            air             
            {
                theta0          90;
            }
            water           
            {
                theta0          90;
            }
            oil             
            {
                theta0          90;
            }
        }
        value           nonuniform List<scalar> 
62
(
1
1
1
1
1
1
1
1
1
1
1
1
1
1
1
1
1
1
1
1
0.99983
0.999431
0.999431
0.999431
0.99946
0.999978
0.999998
0.99985
0.586681
0.0330356
0.0723803
0.0506489
0.00983111
3.89554e-09
0.000555793
0.0374899
0.0364478
0.0337402
0.0420361
0.0462386
0.0115388
0.000992408
0.00141898
0.0374899
0.0356233
0.035612
0.0832247
0.193714
0.202045
0.163456
0.0835874
0.0793444
0.0793552
0.290224
0.518676
0.305201
0.278377
0.278377
0.56219
0.6884
0.688877
0.688473
)
;
    }
    atmosphere
    {
        type            inletOutlet;
        inletValue      uniform 0;
        value           nonuniform List<scalar> 
46
(
-3.04237e-49
-5.55828e-49
-1.84411e-49
6.14891e-48
1.9216e-46
4.87968e-45
9.83569e-44
1.76113e-42
2.74647e-41
3.73167e-40
4.40289e-39
4.7847e-38
4.47307e-37
3.91111e-36
3.09165e-35
2.31404e-34
1.75244e-33
1.37786e-32
1.16639e-31
9.65987e-31
7.10298e-30
4.68145e-29
0
0
0
0
0
0
0
0
0
0
0
0
0
0
0
0
0
0
0
0
0
0
0
0
)
;
    }
    defaultFaces
    {
        type            empty;
    }
}


// ************************************************************************* //
