/*--------------------------------*- C++ -*----------------------------------*\
  =========                 |
  \\      /  F ield         | OpenFOAM: The Open Source CFD Toolbox
   \\    /   O peration     | Website:  https://openfoam.org
    \\  /    A nd           | Version:  13
     \\/     M anipulation  |
\*---------------------------------------------------------------------------*/
FoamFile
{
    format      ascii;
    class       volScalarField;
    location    "0.95";
    object      alphas;
}
// * * * * * * * * * * * * * * * * * * * * * * * * * * * * * * * * * * * * * //

dimensions      [];

internalField   nonuniform List<scalar> 
2268
(
2
2
2
2
2
2
2
2
2
2
2
2
2
2
2
2
2
2
2
2
1.99983
1.99943
1.99943
2
2
2
2
2
2
2
2
2
2
2
2
2
2
2
2
2
2
2
2
1.99999
1.99983
1.99946
2
2
2
2
2
2
2
2
2
2
2
2
2
2
2
2
2
2
2
2
2
2
1.99998
2
2
2
2
2
2
2
2
2
2
2
2
2
2
2
2
2
2
2
2
2
2
2
2
2
2
2
2
2
2
2
2
2
2
2
2
2
2
2
2
2
2
2
2
1.99999
1.99972
2
2
2
2
2
2
2
2
1.99728
1.97865
1.94279
1.89244
1.83324
1.77015
1.70422
1.63751
1.57353
1.51712
1.47318
1.44021
1.40208
1.28599
1.17344
2
2
2
2
1.9328
1.77399
1.57005
1.3048
1.0303
0.808105
0.627847
0.482268
0.369983
0.284058
0.215862
0.161495
0.119488
0.0890264
0.0687823
0.0537747
0.0422513
0.0580447
0.13517
2
1.98846
1.55753
1.00559
0.540851
0.248208
0.0729218
0.0041411
6.13856e-10
7.72357e-10
1.26105e-09
3.36516e-09
1.28164e-08
5.47163e-08
2.14743e-07
6.49621e-07
1.29786e-06
5.08512e-06
2.79462e-05
0.000193135
0.000400486
0.278346
0.974604
1.06117
1.0685
1.1156
1.16672
1.20792
1.19867
1.1628
1.08359
1.07935
1.07946
1.31698
1.5577
1.34857
1.3849
1.71001
2.26478
2.10093
1.81837
1.75232
1.06263
1.18459
1.16137
1.05233
0.954013
0.941451
0.988958
1.16055
1.28967
1.42928
1.78921
1.82325
1.76625
1.60186
1.63272
2.3218
2.09612
1.80284
1.72691
1.06524
0.980928
0.508518
0.357708
0.135152
0.146322
0.295971
0.614575
0.84574
0.924807
1.08301
1.64636
1.84436
1.85469
1.83305
2.2419
2.4044
1.7793
1.70081
0.969306
0.309717
0.110564
0.00765478
0.000592046
0.00056543
0.000519671
0.0206658
0.108169
0.108863
0.0636643
0.751442
1.70038
1.76734
1.86718
2.02264
2.33448
1.72655
1.70059
0.290064
0.093254
0.0120699
0.00592237
0.00152872
0.000792794
0.000531261
0.000414092
0.000465071
0.000544811
0.00059929
0.0130699
0.665842
1.35059
1.67173
1.99713
2.24533
1.60493
1.69235
1.2169
0.901425
0.636543
0.361457
0.168588
0.0421656
0.0028733
0.000634047
0.0002987
0.000300116
0.000417913
0.000876342
0.0154306
0.808878
1.64286
1.74214
2.02044
1.46779
1.60525
1.6867
1.65094
1.52898
1.14221
0.908104
0.633001
0.268811
0.0163026
0.000301236
0.000281412
0.000470311
0.000664537
0.0385258
1.0883
1.97415
2.01252
1.80285
1.4715
1.91696
1.80226
1.4004
1.07908
1.02407
1.0411
1.06013
0.91313
0.45175
0.0055718
0.000400168
0.000292476
0.000364165
0.180499
1.7885
2.45013
2.43819
2.11626
1.32708
2.01243
1.12092
0.344568
0.0757302
0.00607927
2.82621e-07
3.1035e-07
9.74734e-10
9.52041e-10
1.04867e-09
1.2433e-09
1.78173e-09
3.38956e-09
9.57615e-09
3.14967e-08
7.85742e-08
1.44006e-07
2.71334e-07
3.5693e-07
4.39741e-06
0.00474754
0.308825
1.3043
1.53423
0.00378354
3.52786e-07
3.02683e-07
2.86424e-07
2.38159e-08
1.1305e-08
2.11836e-09
2.12683e-09
2.14108e-09
2.18185e-09
2.51277e-09
4.91341e-09
1.5048e-08
5.98863e-08
1.75951e-07
7.85018e-08
3.93545e-05
0.0131141
0.160025
1.02475
1.66783
1.58605
1.00041
3.26014e-08
7.75299e-08
4.00324e-08
3.99059e-09
4.14287e-09
2.89301e-09
2.61308e-09
3.65885e-09
4.49722e-09
4.89298e-09
9.12777e-09
2.55694e-08
6.04284e-08
1.2569e-07
0.00131871
0.0315254
0.380911
1.30295
1.72305
1.56214
0.999882
1
1
6.18479e-09
9.02102e-09
5.86807e-09
5.48837e-09
3.19231e-09
2.0176e-09
1.40709e-09
1.12159e-09
5.2727e-10
1.24587e-08
7.27881e-08
1.26656e-07
1.1266e-07
0.0333272
0.90974
1.67562
1.97463
1.23861
1.00218
1.01493
1.00042
1
1.00007
4.15481e-09
4.28607e-09
4.41044e-09
3.24085e-09
1.4013e-09
6.22243e-10
2.94869e-10
3.20107e-10
1.4624e-09
1.60333e-08
2.45306e-08
0.187484
1.23744
1.5826
1.82505
1.08696
1.02754
1.03263
1.00069
1.00006
1.00011
1.00019
1.00013
1.77303e-09
1.74523e-09
1.42812e-09
9.50374e-10
3.36389e-10
4.34468e-11
1.53833e-11
1.44009e-10
4.01325e-10
0.119747
1.11876
1.42721
1.73151
1.08961
1.05165
1.01873
1
1
1.0002
1.00008
1.00017
1.00013
1
3.48406e-10
3.76065e-10
3.15495e-10
2.46717e-10
8.54586e-11
1.20357e-11
1.43776e-11
0.0162022
0.627769
1.3026
1.63493
1.10028
1.05509
1.00105
1
1
1.00004
1
1
1
1
1
1
1.15078
0.964441
0.88233
0.941107
1.10207
1.25827
1.4432
1.84796
2.11146
1.14953
1.01765
1.00002
1.00001
0.999997
1
0.999998
0.999999
1
1
1.01115
1.13237
1.19921
1.13885
2.96099
2.92423
2.9006
2.91625
2.95429
2.98115
2.99382
2.98968
2.40396
1.00006
0.99967
0.999846
0.99994
0.999991
1.00001
1.06586
1.58847
1.94225
2.02121
2.12771
2.58346
2.71274
2.33905
3
3
3
3
3
3
3
2.99994
2.9397
2.42482
1.82829
1.66898
1.73461
2.16149
2.56228
2.76585
2.91419
2.98346
2.99605
2.99903
3
3
3
3
3
3
3
3
3
3
3
3
3
2.98791
2.96568
2.97128
2.99609
3
3
3
3
3
3
3
3
3
3
3
3
3
3
3
3
3
3
3
3
3
3
3
3
3
3
3
3
3
3
3
3
3
3
3
3
3
3
3
3
3
3
3
3
3
3
3
2.99999
2.99999
3
2.99999
2.99999
2.99999
2.99999
3
3
3
3
3
3
3
3
3
3
3
3
3
3
3
3
3
3
2.99979
2.99964
2.99975
2.99999
2.99999
2.99999
3
3
3
3
3
3
3
3
3
3
3
3
3
3
3
3
3
2.99997
2.99962
2.99954
2.99962
2.99999
2.99999
3
3
3
3
3
3
3
3
3
3
3
3
3
3
3
3
3
3
2.99998
2.99965
2.99955
2.99974
2.99999
3
3
3
3
3
3
3
3
3
3
3
3
3
3
3
3
3
3
3
2.99999
2.99984
2.99987
2.99998
3
3
3
3
3
3
3
3
3
3
3
3
3
3
3
3
3
3
3
3
3
3
3
3
3
3
3
3
3
3
3
3
3
3
3
3
3
3
3
3
3
3
3
3
3
3
3
3
3
3
3
3
3
3
3
3
3
3
3
3
3
3
3
3
3
3
3
3
3
3
3
3
3
3
3
3
3
3
3
3
3
3
3
3
3
3
3
3
3
3
3
3
3
3
3
3
3
3
3
3
3
3
3
3
3
3
3
3
3
3
3
3
3
3
3
3
3
3
3
3
3
3
3
3
3
3
3
3
3
3
3
3
3
3
3
3
3
3
3
3
3
3
3
3
3
3
3
3
3
3
3
3
3
3
3
3
3
3
3
3
3
3
3
3
3
3
3
3
3
3
3
3
3
3
3
3
3
3
3
3
3
3
3
3
3
3
3
3
3
3
3
3
3
3
3
3
3
3
3
3
3
3
3
3
3
3
3
3
3
3
3
3
3
3
3
3
3
3
3
3
3
3
3
3
3
3
3
3
3
3
3
3
3
3
3
3
3
3
3
3
3
3
3
3
3
3
3
3
3
3
3
3
3
3
3
3
3
3
3
3
3
3
3
3
3
3
3
3
3
3
3
3
3
3
3
3
3
3
3
3
3
3
3
3
3
3
3
3
3
3
3
3
3
3
3
3
3
3
3
3
3
3
3
3
3
3
3
3
3
3
3
3
3
3
3
3
3
3
3
3
3
3
3
3
3
3
3
3
3
3
3
3
3
3
3
3
3
3
3
3
3
3
3
3
3
3
3
3
3
3
3
3
3
3
3
3
3
3
3
3
3
3
3
3
3
3
3
3
3
3
3
3
3
3
3
3
3
3
3
3
3
3
3
3
3
3
3
3
3
3
3
3
3
3
3
3
3
3
3
3
3
3
3
3
3
3
3
3
3
3
3
3
3
3
3
3
3
3
3
3
3
3
3
3
3
3
3
3
3
3
3
3
3
3
3
3
3
3
3
3
3
3
3
3
3
3
3
3
3
3
3
3
3
3
3
3
3
3
3
3
3
3
3
3
3
3
3
3
3
3
3
3
3
3
3
3
3
3
3
3
3
3
3
3
3
3
3
3
3
3
3
3
3
3
3
3
3
3
3
3
3
3
3
3
3
3
3
3
3
3
3
3
3
3
3
3
3
3
3
3
3
3
3
3
3
3
3
3
3
3
3
3
3
3
3
3
3
3
3
3
3
3
3
3
3
3
3
3
3
3
3
3
3
3
3
3
3
3
3
3
3
3
3
3
3
3
3
3
3
3
3
3
3
3
3
1.19152
1.158
1.32656
1.45433
1
1
1
1
1.00001
1
1
1
1
1
1
1
1
1
1
1
1
1
1
1
1
1
1
1
1.12833
1.33659
1.36739
1.32792
2.622
3
2.94218
2.80255
3
3
3
3
3
3
3
3
3
3
3
3
3
3
3
3
3
3
3
3
2.99998
2.99998
2.99998
2.99999
2.99999
2.99998
2.99998
2.99999
3
3
2.99999
2.99999
3
3
3
3
3
3
3
3
3
3
3
3
3
3
3
3
3
3
3
3
3
3
3
3
3
3
3
3
3
3
3
3
3
3
3
3
3
3
3
3
3
3
3
3
3
3
3
3
3
3
3
3
3
3
3
3
3
3
3
3
3
3
3
3
3
3
3
3
3
3
3
3
3
3
3
3
3
3
3
3
3
3
3
3
3
3
3
3
3
3
3
3
3
3
3
3
3
3
3
3
1.11374
1
1
1
1
1.00372
1.00856
1.00122
0.69533
0.089437
0.000293484
0.001986
0.565797
2.23432
2.3512
2.36568
1.74302
0.911931
1.99967
1
1
1
1
1
1
1
1.00006
1.00101
0.777893
0.0804226
0.0040122
0.241241
1.34589
1.84304
1.43687
0.667251
0.941824
1.99342
1
1
1
1
1
1
1
1
1
1.00003
0.765355
0.12803
0.0948271
0.17258
0.341618
0.416591
0.32229
0.83529
1.84516
1
1
1
1
1
1
1
1
1
1
1.00009
0.876546
0.456279
0.246437
0.227666
0.24648
0.495803
0.932529
1.51464
1
1
1
1
1
1
1
1
1
1
1.00004
1.00259
0.996947
0.934517
0.909256
0.958188
1.02712
1.00873
1.53331
1
1
1
1
1
1
1
1
1
1
1
1.00002
1.00952
1.04411
1.07166
1.06366
1.05354
1.05388
2.01211
1
1
1
1
1
1
1
1
1
1
1
1
1.00005
1.00081
1.03875
1.12657
1.22528
1.74459
2.48224
1.22795
1.14638
1.10141
1.0635
1.03418
1.01428
1.00348
1
1
1
1
1.00064
1.00839
1.04382
1.15315
1.44787
2.0906
2.43113
2.64705
2.67958
2.57455
2.49144
2.38931
2.26918
2.1339
1.99293
1.87229
1.79822
1.77349
1.79572
1.93591
2.11284
2.36295
2.63978
2.8383
2.83575
2.66458
2.631
3
3
3
3
3
3
3
3
3
3
3
3
3
3
3
3
3
2.93097
2.82766
3
3
3
3
3
3
3
3
3
3
3
3
2.99961
2.99798
2.99759
2.99898
3
3
3
3
3
3
3
3
3
3
3
3
3
3
3
2.99824
2.99501
2.99489
2.99672
3
2.99995
2.99988
3
3
3
3
3
3
3
3
3
2.99999
2.99999
3
2.99948
2.99798
2.99807
3
3
3
2.99996
3
3
3
3
3
3
3
3
3
2.99999
2.99998
2.99998
3
3
3
3
2.99999
3
3
3
3
3
3
3
3
3
3
3
3
3
3
3
3
3
3
2.99999
2.99999
3
2.99999
2.99999
3
3
3
3
3
3
3
3
3
3
3
3
3
3
3
3
3
2.99999
2.99999
3
3
3
3
3
3
3
3
3
3
3
3
3
3
3
3
3
3
3
3
3
3
3
3
3
3
3
3
3
3
3
3
3
3
3
3
3
3
3
3
3
3
3
3
3
3
3
3
3
3
3
3
3
3
3
3
3
3
3
3
3
3
3
3
3
3
3
3
3
3
3
3
3
3
3
3
3
3
3
3
3
3
3
3
3
3
3
3
3
3
3
3
3
3
3
3
3
3
3
3
3
3
3
3
3
3
3
3
3
3
3
3
3
3
3
3
3
3
3
3
3
3
3
3
3
3
3
3
3
3
3
3
3
3
3
3
3
3
3
3
3
3
3
3
3
3
3
3
3
3
3
3
3
3
3
3
3
3
3
3
3
3
3
3
3
3
3
3
3
3
3
3
3
3
3
3
3
3
3
3
3
3
3
3
3
3
3
3
3
3
3
3
3
3
3
3
3
3
3
3
3
3
3
3
3
3
3
3
3
3
3
3
3
3
3
3
3
3
3
3
3
3
3
3
3
3
3
3
3
3
3
3
3
3
3
3
3
3
3
3
3
3
3
3
3
3
3
3
3
3
3
3
3
3
3
3
3
3
3
3
3
3
3
3
3
3
3
3
3
3
3
3
3
3
3
3
3
3
3
3
3
3
3
3
3
3
3
3
3
3
3
3
3
3
3
3
3
3
3
3
3
3
3
3
3
3
3
3
3
3
3
3
3
3
3
3
3
3
3
3
3
3
3
3
3
3
3
3
3
3
3
3
3
3
3
3
3
3
3
3
3
3
3
3
3
3
3
3
3
3
3
3
3
3
3
3
3
3
3
3
3
3
3
3
3
3
3
3
3
3
3
3
3
3
3
3
3
3
3
3
3
3
3
3
3
3
3
3
3
3
3
3
3
3
3
3
3
3
3
3
3
3
3
3
3
3
3
3
3
3
3
3
3
3
3
3
3
3
3
3
3
3
3
3
3
3
3
3
3
3
3
3
3
3
3
3
3
3
3
3
3
3
3
3
3
3
3
3
3
3
3
3
3
3
3
3
3
3
3
3
3
3
3
3
3
3
3
3
3
3
3
3
3
3
3
3
3
3
3
3
3
3
3
3
3
3
3
3
3
3
3
3
)
;

boundaryField
{
    leftWall
    {
        type            calculated;
        value           nonuniform List<scalar> 
50
(
2
2
2
2
2
2
2
2
1.12092
0.00378354
3.26014e-08
6.18479e-09
4.15481e-09
1.77303e-09
3.48406e-10
1.15078
2.96099
3
3
3
3
3
3
3
3
3
3
3
3
3
3
3
3
3
3
3
3
3
3
3
3
3
3
3
3
3
3
3
3
3
)
;
    }
    rightWall
    {
        type            calculated;
        value           nonuniform List<scalar> 
50
(
1.75232
1.72691
1.70081
1.70059
1.69235
1.60525
1.91696
2.01243
1.99967
1.99342
1.84516
1.51464
1.53331
2.01211
2.48224
2.64705
2.631
2.82766
3
2.99988
2.99996
3
3
3
3
3
3
3
3
3
3
3
3
3
3
3
3
3
3
3
3
3
3
3
3
3
3
3
3
3
)
;
    }
    lowerWall
    {
        type            calculated;
        value           nonuniform List<scalar> 
62
(
2
2
2
2
2
2
2
2
2
2
2
2
2
2
2
2
2
2
2
2
1.99983
1.99943
1.99943
1.99943
1.99946
1.99998
2
1.99972
1.17344
0.13517
0.974604
1.19152
1.158
1.32656
1.45433
1.06117
1.06263
1.06524
0.969306
0.290064
1.2169
1.6867
1.80226
1.06117
1.0685
1.1156
1.16672
1.20792
1.19867
1.1628
1.08359
1.07935
1.07946
1.31698
1.5577
1.34857
1.3849
1.71001
2.26478
2.10093
1.81837
1.75232
)
;
    }
    atmosphere
    {
        type            calculated;
        value           nonuniform List<scalar> 
46
(
3
3
3
3
3
3
3
3
3
3
3
3
3
3
3
3
3
3
3
3
3
3
3
3
3
3
3
3
3
3
3
3
3
3
3
3
3
3
3
3
3
3
3
3
3
3
)
;
    }
    defaultFaces
    {
        type            empty;
    }
}


// ************************************************************************* //
