/*--------------------------------*- C++ -*----------------------------------*\
  =========                 |
  \\      /  F ield         | OpenFOAM: The Open Source CFD Toolbox
   \\    /   O peration     | Website:  https://openfoam.org
    \\  /    A nd           | Version:  13
     \\/     M anipulation  |
\*---------------------------------------------------------------------------*/
FoamFile
{
    format      ascii;
    class       volScalarField;
    location    "0.95";
    object      alpha.air;
}
// * * * * * * * * * * * * * * * * * * * * * * * * * * * * * * * * * * * * * //

dimensions      [];

internalField   nonuniform List<scalar> 
2268
(
1.56993e-14
1.95553e-14
5.41083e-15
2.41411e-15
1.29054e-15
3.47171e-16
9.97678e-17
9.49019e-17
1.53399e-16
2.33656e-16
2.77672e-16
2.30409e-16
1.67987e-16
1.3132e-16
1.21478e-16
1.10634e-16
1.01978e-16
1.26346e-16
5.72135e-16
1.0582e-15
1.23411e-15
7.51234e-16
6.38397e-16
7.56616e-14
7.21842e-14
1.92418e-14
9.07902e-15
5.55179e-15
3.76612e-15
2.47772e-15
2.9234e-15
4.38715e-15
5.92945e-15
6.13523e-15
4.36426e-15
2.92839e-15
2.14956e-15
1.90005e-15
1.67195e-15
1.35672e-15
3.22232e-15
2.04027e-14
7.91357e-14
2.06548e-13
1.44742e-13
4.33677e-14
2.81251e-13
2.24893e-13
7.46775e-14
3.50948e-14
2.10717e-14
1.62583e-14
1.94423e-14
3.47531e-14
5.67634e-14
6.6281e-14
5.62257e-14
3.6765e-14
2.34699e-14
1.79282e-14
1.63188e-14
1.66541e-14
1.98421e-14
5.44408e-14
2.70769e-13
8.31821e-13
1.68693e-12
2.96088e-12
1.89956e-12
2.18836e-12
1.97149e-12
9.10001e-13
3.83266e-13
2.13818e-13
1.53245e-13
2.01904e-13
3.60638e-13
4.23348e-13
3.34591e-13
2.35309e-13
1.43363e-13
9.89591e-14
8.85782e-14
8.05819e-14
1.17637e-13
8.15794e-14
2.42851e-13
1.17023e-12
4.83279e-12
7.7163e-12
1.09871e-11
1.76629e-11
8.02237e-12
6.98445e-12
5.91494e-12
5.55935e-12
3.81016e-12
3.02911e-12
3.0988e-12
3.10278e-12
2.32299e-12
1.69446e-12
1.00442e-12
6.10871e-13
5.48649e-13
8.78617e-13
1.49223e-12
1.62739e-12
7.13417e-14
7.16689e-14
3.36855e-13
5.59694e-12
5.73344e-12
8.38207e-12
8.51137e-12
1.605e-11
1.74006e-11
1.73608e-11
1.68249e-11
1.54162e-11
1.50884e-11
1.35301e-11
1.00897e-11
7.92174e-12
7.59378e-12
8.87508e-12
1.14595e-11
2.23932e-11
5.9613e-11
1.37588e-10
2.86043e-10
3.93013e-10
7.98488e-14
7.39938e-14
7.14797e-14
1.4035e-07
8.51137e-12
1.89789e-05
2.99745e-11
3.33088e-11
3.40914e-11
3.50204e-11
3.64842e-11
3.8128e-11
4.16397e-11
5.11473e-11
6.31031e-11
7.74955e-11
1.04466e-10
1.47568e-10
2.60757e-10
5.35679e-10
1.07065e-09
2.25814e-09
5.84446e-09
3.37486e-08
5.3418e-07
5.53244e-06
2.53625e-05
0.00168204
0.0230301
4.14446e-11
5.4763e-11
6.75186e-11
8.29741e-11
9.68007e-11
1.15716e-10
1.4123e-10
1.73902e-10
2.00067e-10
2.27285e-10
2.67028e-10
3.6631e-10
5.57252e-10
9.64353e-10
1.88138e-09
4.54839e-09
3.70123e-08
5.98141e-07
7.70838e-06
6.35551e-05
0.000116891
0.0787911
0.255923
0.0118379
0.0164387
0.039994
0.0417481
0.0244853
0.00957302
0.000136627
-1.0252e-08
2.41843e-06
5.18057e-05
0.0133758
0.0195136
0.0216833
0.0532669
0.21583
0.351309
0.213342
0.113049
0.0959769
0.0130908
0.0671737
0.109253
0.110143
0.079367
0.0166716
0.00288602
1.65423e-16
1.68405e-06
1.24908e-05
0.00043835
0.00712045
0.00567319
0.0111841
0.149608
0.43309
0.239387
0.11945
0.0829589
0.0157515
0.070388
0.0680606
0.0546375
0.0146514
0.00600565
0.000162012
4.49101e-09
5.43711e-09
4.56694e-05
0.000311962
0.0011827
0.00241864
0.00229601
0.0941061
0.515226
0.569309
0.188408
0.0100828
0.0439724
0.0179307
9.62856e-05
4.71815e-05
4.74643e-05
4.55469e-05
2.48041e-05
3.25114e-06
5.68454e-09
5.22284e-05
0.000197477
4.45394e-05
3.07219e-06
0.00404149
0.0796149
0.410568
0.579507
0.154563
0.00589383
0.0658623
0.0269041
0.00402329
0.00197412
0.000504374
0.000263051
0.000131797
4.91754e-05
6.15398e-06
1.7719e-05
6.48799e-05
1.10445e-05
2.3444e-06
0.000311373
0.0318623
0.39861
0.520768
0.000405034
0.00189093
0.389108
0.297778
0.200154
0.0998549
0.0392692
0.0112909
0.000931438
0.000183519
1.58913e-05
6.85581e-06
1.76624e-05
1.29695e-05
2.17558e-06
2.34441e-06
0.0148087
0.148022
0.384251
0.000204567
0.0102405
0.405611
0.4055
0.320831
0.146857
0.0670029
0.0406944
0.016192
0.00258059
1.65068e-05
6.72586e-06
2.33152e-06
2.63883e-06
2.34441e-06
0.0285685
0.164559
0.169849
0.189072
0.000431869
0.389532
0.400423
0.200202
0.0395376
0.0120353
0.02055
0.0303281
0.0194901
0.00927474
0.00177888
5.17151e-05
5.60262e-06
2.24973e-06
0.0228822
0.329875
0.514505
0.505006
0.389539
0.0006318
0.503075
1.2666e-10
1.56715e-10
2.02685e-10
2.42712e-10
2.86861e-10
3.16989e-10
3.24666e-10
3.15496e-10
3.39714e-10
3.69193e-10
4.17156e-10
5.59275e-10
1.08365e-09
2.63564e-09
4.71032e-09
2.10849e-08
7.62139e-08
1.04191e-07
1.45537e-06
0.00158246
0.0964139
0.300012
0.272464
3.62176e-10
3.86627e-10
4.41464e-10
5.36794e-10
6.2533e-10
6.92008e-10
7.0612e-10
7.08379e-10
7.07047e-10
6.79491e-10
6.30039e-10
8.93387e-10
3.25666e-09
1.71951e-08
5.64493e-08
2.40296e-08
1.3116e-05
0.00437137
0.0533188
0.315211
0.385459
0.293024
0.000205041
5.7309e-10
5.69434e-10
5.99922e-10
6.56236e-10
6.92048e-10
7.25779e-10
8.70839e-10
1.21501e-09
1.4394e-09
1.21002e-09
6.30233e-10
1.24136e-09
7.20451e-09
2.73744e-08
0.000439568
0.0105085
0.12697
0.392943
0.388406
0.281071
7.8326e-06
1.50478e-07
2.40103e-07
5.98294e-10
5.78012e-10
5.88229e-10
6.10151e-10
6.10766e-10
5.71406e-10
4.68127e-10
3.61788e-10
1.63161e-10
1.97122e-11
-5.40294e-13
-2.62461e-12
-2.35769e-11
0.0111091
0.302856
0.494653
0.488948
0.120645
0.0015035
0.00748161
0.000211963
4.02057e-07
3.52466e-05
5.27038e-10
5.00835e-10
4.94258e-10
3.53331e-10
2.54034e-10
1.72942e-10
9.2066e-11
4.04907e-11
5.61862e-12
1.65814e-16
2.03412e-16
0.0624947
0.412481
0.469379
0.419231
0.0434797
0.013768
0.0163171
0.000344963
3.25388e-05
5.26373e-05
9.27676e-05
6.37195e-05
1.67701e-10
1.36123e-10
9.47967e-11
5.67106e-11
3.24864e-11
3.07064e-12
9.69082e-16
7.70995e-15
1.78665e-14
0.0399156
0.372921
0.436843
0.381054
0.0448051
0.0258231
0.00936468
4.96338e-08
1.75379e-08
9.86966e-05
4.16521e-05
8.61036e-05
6.36543e-05
6.09841e-09
5.05805e-14
1.79447e-21
1.043e-21
2.4075e-22
7.08314e-20
7.68389e-15
3.06003e-12
0.00540074
0.209256
0.418396
0.379997
0.0584298
0.0275433
0.000526675
2.13251e-06
1.90765e-06
2.10969e-05
3.50394e-08
3.41756e-08
3.53219e-08
4.59298e-08
4.26937e-08
4.84903e-08
0.383593
0.32148
0.29411
0.313702
0.367358
0.419422
0.481066
0.615986
0.652828
0.104301
0.0088213
6.77824e-06
3.10599e-06
1.4456e-21
9.50723e-07
7.78921e-12
2.43372e-09
-3.02408e-12
1.11124e-08
0.00557552
0.0661857
0.0996062
0.069423
0.986996
0.974744
0.966865
0.972084
0.984764
0.993716
0.997941
0.996559
0.701981
0.000167903
2.6244e-06
2.33376e-07
1.08321e-18
2.33383e-07
2.55128e-06
0.0329325
0.294233
0.471123
0.510603
0.563854
0.791731
0.856369
0.669525
1
1
1
1
1
1
1
0.99997
0.96985
0.712413
0.414225
0.334542
0.367306
0.580743
0.78114
0.882924
0.957097
0.991729
0.998023
0.999514
1
1
1
1
1
1
1
1
1
1
0.999999
1
1
0.993955
0.982842
0.985639
0.998045
1
1
1
1
0.999999
0.999999
1
1
1
1
1
1
1
1
1
1
1
1
1
1
1
1
1
1
1
1
1
0.999999
0.999999
0.999999
1
1
1
1
1
1
1
1
1
1
1
1
1
1
1
1
0.999999
0.999997
0.999997
0.999999
0.999998
0.999997
0.999997
0.999998
1
1
1
1
1
1
1
1
1
1
1
1
1
1
1
1
0.999999
0.999999
0.999893
0.99982
0.999877
0.999997
0.999996
0.999997
1
1
1
1
1
1
1
1
1
1
1
1
1
1
1
0.999999
0.999999
0.999985
0.999812
0.999769
0.999809
0.999997
0.999995
1
1
1
1
1
1
1
1
1
1
1
1
1
1
1
0.999999
0.999999
1
0.99999
0.999823
0.999776
0.99987
0.999996
1
1
1
1
1
1
1
1
1
1
1
1
1
1
1
1
1
1
1
0.999996
0.999918
0.999934
0.999989
1
1
1
1
1
1
1
1
1
1
1
1
1
1
1
1
1
1
1
1
1
1
1
1
1
1
1
1
1
1
1
1
1
1
1
1
1
1
1
1
1
1
1
1
1
1
1
1
1
1
1
1
1
1
1
1
1
1
1
1
1
1
1
1
1
1
1
1
1
1
1
1
1
1
1
1
1
1
1
1
1
1
1
1
1
1
1
1
1
1
1
1
1
1
1
1
1
1
1
1
1
1
1
1
1
1
1
1
1
1
1
1
1
1
1
1
1
1
1
1
1
1
1
1
1
1
1
1
1
1
1
1
1
1
1
1
1
1
1
1
1
1
1
1
1
1
1
1
1
1
1
1
1
1
1
1
1
1
1
1
1
1
1
1
1
1
1
1
1
1
1
1
1
1
1
1
1
1
1
1
1
1
1
1
1
1
1
1
1
1
1
1
1
1
1
1
1
1
1
1
1
1
1
1
1
1
1
1
1
1
1
1
1
1
1
1
1
1
1
1
1
1
1
1
1
1
1
1
1
1
1
1
1
1
1
1
1
1
1
1
1
1
1
1
1
1
1
1
1
1
1
1
1
1
1
1
1
1
1
1
1
1
1
1
1
1
1
1
1
1
1
1
1
1
1
1
1
1
1
1
1
1
1
1
1
1
1
1
1
1
1
1
1
1
1
1
1
1
1
1
1
1
1
1
1
1
1
1
1
1
1
1
1
1
1
1
1
1
1
1
1
1
1
1
1
1
1
1
1
1
1
1
1
1
1
1
1
1
1
1
1
1
1
1
1
1
1
1
1
1
1
1
1
1
1
1
1
1
1
1
1
1
1
1
1
1
1
1
1
1
1
1
1
1
1
1
1
1
1
1
1
1
1
1
1
1
1
1
1
1
1
1
1
1
1
1
1
1
1
1
1
1
1
1
1
1
1
1
1
1
1
1
1
1
1
1
1
1
1
1
1
1
1
1
1
1
1
1
1
1
1
1
1
1
1
1
1
1
1
1
1
1
1
1
1
1
1
1
1
1
1
1
1
1
1
1
1
1
1
1
1
1
1
1
1
1
1
1
1
1
1
1
1
1
1
1
1
1
1
1
1
1
1
1
1
1
1
1
1
1
1
1
1
1
1
1
1
1
1
1
1
1
1
1
1
1
1
1
1
1
1
1
1
1
1
1
1
1
1
1
1
1
1
1
1
1
1
1
1
1
1
1
1
1
1
1
1
1
1
1
1
1
1
1
1
1
1
1
1
1
1
1
1
1
1
1
1
1
1
1
1
1
1
1
1
1
1
1
1
1
1
1
1
1
1
0.19942
0.20354
0.230652
0.226887
3.94448e-07
1.118e-07
6.08136e-08
4.60105e-08
3.62896e-06
3.52492e-08
1.41649e-08
3.81987e-08
3.1369e-09
3.19957e-09
3.11135e-09
3.17218e-09
4.81174e-09
2.97049e-09
4.78068e-09
6.42407e-09
5.18894e-09
7.1318e-09
9.79293e-09
1.11251e-08
3.19984e-08
4.79394e-09
4.78297e-09
4.93055e-09
0.0641674
0.168297
0.183696
0.163958
0.811002
0.999999
0.97109
0.901275
1
1
1
1
1
1
1
1
1
1
1
1
1
1
1
1
0.999999
0.999998
0.999999
1
0.999995
0.999995
0.999995
0.999996
0.999995
0.999995
0.999995
0.999995
0.999999
0.999999
0.999997
0.999996
1
1
1
1
1
1
1
1
1
1
1
1
1
1
1
1
1
1
1
1
1
1
1
1
1
1
1
1
1
1
1
1
1
1
1
1
1
1
1
1
1
1
1
1
1
1
1
1
1
1
1
1
1
1
1
1
1
1
1
1
1
1
1
1
1
1
1
1
1
1
1
1
1
1
1
1
1
1
1
1
1
1
1
1
1
1
1
1
1
1
1
1
1
1
1
1
1
1
1
1
0.0564255
1.48162e-09
-2.70572e-10
1.32928e-16
1.47804e-08
0.00185756
0.00427807
0.00530614
0.00300313
0.00040509
2.98811e-06
1.9759e-06
0.0896445
0.555304
0.600402
0.600578
0.301432
0.00217267
0.498989
9.51182e-09
6.95162e-09
1.52074e-09
9.92584e-10
1.37144e-09
1.19178e-09
4.07911e-08
3.14088e-05
0.000506593
0.000469828
0.000325743
0.000148151
0.0451766
0.299424
0.366459
0.219172
-2.17475e-06
1.04204e-11
0.497058
2.09971e-08
1.52676e-09
1.52513e-09
1.15227e-08
3.36715e-08
3.52528e-08
2.29146e-08
2.36922e-08
4.19488e-08
1.69929e-05
0.000152386
0.00141627
0.00860202
0.0109337
3.57344e-05
3.38837e-06
8.45985e-06
-1.49192e-08
0.434122
3.24772e-09
3.48851e-09
1.5925e-09
1.84453e-09
3.88181e-07
7.76456e-07
3.58315e-07
1.83827e-08
1.94424e-08
8.31427e-07
4.62882e-05
0.000225766
0.000358326
0.000162238
0.00011236
0.000102757
0.000420047
-4.92181e-08
0.265304
7.44527e-09
8.8436e-09
5.39191e-09
1.10168e-08
7.9265e-07
1.11999e-06
1.05377e-06
4.28232e-07
1.83661e-08
1.94259e-08
2.11212e-05
0.00129535
0.00208465
0.00170598
0.00871806
0.0206584
0.0178179
0.0103582
0.266651
1.46726e-08
2.05442e-08
1.7237e-08
1.99886e-08
2.58588e-07
1.08898e-06
1.11488e-06
1.06568e-06
1.27057e-07
3.68886e-08
4.75003e-08
9.13993e-06
0.00470791
0.0219055
0.035676
0.0317449
0.0267563
0.0269346
0.505534
4.74734e-09
1.95669e-08
2.07474e-08
2.66774e-08
5.17332e-08
6.40012e-08
6.40201e-08
6.22726e-07
1.25043e-07
7.20919e-08
1.04352e-07
1.09094e-07
1.1148e-07
0.00036017
0.019339
0.0634366
0.112683
0.372287
0.740539
0.113975
0.0731899
0.0507049
0.0317522
0.0170881
0.00713982
0.00174215
1.48509e-07
1.74976e-07
1.41455e-07
1.88678e-07
0.000318733
0.00419572
0.0219099
0.0765727
0.223935
0.545298
0.715542
0.823122
0.839791
0.787275
0.745722
0.694656
0.634591
0.566949
0.496467
0.436146
0.399109
0.386743
0.397862
0.467954
0.556418
0.681475
0.81989
0.919149
0.917872
0.832284
0.815488
1
1
1
1
1
1
1
1
1
1
1
1
0.999999
1
0.999999
0.999999
1
0.965487
0.913831
1
0.999999
0.999999
0.999999
1
1
1
1
1
1
1
1
0.999804
0.998988
0.998795
0.999492
1
1
1
1
0.999998
0.999998
0.999998
0.999999
0.999999
0.999999
1
1
0.999999
1
1
0.999119
0.997504
0.997443
0.998358
1
0.999976
0.999942
1
0.999998
0.999998
0.999998
0.999998
0.999998
0.999999
1
0.999999
0.999995
0.999993
1
0.99974
0.998988
0.999036
1
1
0.999999
0.999979
1
1
0.999999
0.999999
0.999999
0.999998
0.999999
0.999999
0.999999
0.999994
0.999988
0.999991
1
1
1
1
0.999997
0.999998
1
0.999999
1
1
1
1
0.999999
0.999999
0.999999
0.999999
1
1
1
1
1
1
0.999999
0.999997
0.999997
1
0.999995
0.999998
1
1
1
1
1
1
1
1
1
1
1
1
1
1
0.999999
0.999999
0.999998
0.999997
0.999998
1
1
1
1
1
1
1
1
1
1
1
1
1
1
1
1
0.999998
1
1
1
1
1
1
1
1
1
1
1
1
1
1
1
1
1
1
0.999998
1
1
1
1
1
1
1
1
1
1
1
1
1
1
1
1
1
1
0.999998
1
1
1
1
1
1
1
1
1
1
1
1
1
1
1
1
1
1
0.999999
1
1
1
1
1
1
1
1
1
1
1
1
1
1
1
1
1
1
0.999998
1
1
1
1
1
1
1
1
1
1
1
1
1
1
1
1
1
1
0.999998
1
1
1
1
1
1
1
1
1
1
1
1
1
1
1
1
1
0.999999
0.999998
1
1
1
1
1
1
1
1
1
1
1
1
1
1
1
1
1
0.999999
0.999998
1
1
1
1
1
1
1
1
1
1
1
1
1
1
1
1
1
1
0.999999
1
1
1
1
1
1
1
1
1
1
1
1
1
1
1
1
1
1
1
1
1
1
1
1
1
1
1
1
1
1
1
1
1
1
1
1
1
1
1
1
1
1
1
1
1
1
1
1
1
1
1
1
1
1
1
1
1
1
1
1
1
1
1
1
1
1
1
1
1
1
1
1
1
1
1
1
1
1
1
1
1
1
1
1
1
1
1
1
1
1
1
1
1
1
1
1
1
1
1
1
1
1
1
1
1
1
1
1
1
1
1
1
1
1
1
1
1
1
1
1
1
1
1
1
1
1
1
1
1
1
1
1
1
1
1
1
1
1
1
1
1
1
1
1
1
1
1
1
1
1
1
1
1
1
1
1
1
1
1
1
1
1
1
1
1
1
1
1
1
1
1
1
1
1
1
1
1
1
1
1
1
1
1
1
1
1
1
1
1
1
1
1
1
1
1
1
1
1
1
1
1
1
1
1
1
1
1
1
1
1
1
1
1
1
1
1
1
1
1
1
1
1
1
1
1
1
1
1
1
1
1
1
1
1
1
1
1
1
1
1
1
1
1
1
1
1
1
1
1
1
1
1
1
1
1
1
1
1
1
1
1
1
1
1
1
1
1
1
1
1
1
1
1
1
1
1
1
1
1
1
1
1
1
1
1
1
1
1
1
1
1
1
1
1
1
1
1
1
1
1
1
1
1
1
1
1
1
1
1
1
1
1
1
1
1
1
1
1
1
1
1
1
1
)
;

boundaryField
{
    leftWall
    {
        type            alphaContactAngle;
        contactAngleProperties 
        {
            mercury         
            {
                theta0          90;
            }
            water           
            {
                theta0          90;
            }
            oil             
            {
                theta0          90;
            }
        }
        value           nonuniform List<scalar> 
50
(
1.56993e-14
7.56616e-14
2.81251e-13
2.18836e-12
8.02237e-12
1.605e-11
2.99745e-11
4.14446e-11
1.2666e-10
3.62176e-10
5.7309e-10
5.98294e-10
5.27038e-10
1.67701e-10
5.05805e-14
0.383593
0.986996
1
1
1
1
1
1
1
1
1
1
1
1
1
1
1
1
1
1
1
1
1
1
1
1
1
1
1
1
1
1
1
1
1
)
;
    }
    rightWall
    {
        type            alphaContactAngle;
        contactAngleProperties 
        {
            mercury         
            {
                theta0          90;
            }
            water           
            {
                theta0          90;
            }
            oil             
            {
                theta0          90;
            }
        }
        value           nonuniform List<scalar> 
50
(
0.0959769
0.0829589
0.0100828
0.00589383
0.00189093
0.0102405
0.389532
0.503075
0.498989
0.497058
0.434122
0.265304
0.266651
0.505534
0.740539
0.823122
0.815488
0.913831
1
0.999942
0.999979
1
1
0.999998
0.999998
0.999998
0.999998
0.999999
0.999998
0.999998
0.999998
0.999998
0.999999
1
1
1
1
1
1
1
1
1
1
1
1
1
1
1
1
1
)
;
    }
    lowerWall
    {
        type            alphaContactAngle;
        contactAngleProperties 
        {
            mercury         
            {
                theta0          90;
            }
            water           
            {
                theta0          90;
            }
            oil             
            {
                theta0          90;
            }
        }
        value           nonuniform List<scalar> 
62
(
1.56993e-14
1.95553e-14
5.41083e-15
2.41411e-15
1.29054e-15
3.47171e-16
9.97678e-17
9.49019e-17
1.53399e-16
2.33656e-16
2.77672e-16
2.30409e-16
1.67987e-16
1.3132e-16
1.21478e-16
1.10634e-16
1.01978e-16
1.26346e-16
5.72135e-16
1.0582e-15
1.23411e-15
7.51234e-16
6.38397e-16
6.38397e-16
4.33677e-14
1.89956e-12
1.76629e-11
8.51137e-12
1.89789e-05
0.0230301
0.255923
0.19942
0.20354
0.230652
0.226887
0.0118379
0.0130908
0.0157515
0.0439724
0.0658623
0.389108
0.405611
0.400423
0.0118379
0.0164387
0.039994
0.0417481
0.0244853
0.00957302
0.000136627
-1.0252e-08
2.41843e-06
5.18057e-05
0.0133758
0.0195136
0.0216833
0.0532669
0.21583
0.351309
0.213342
0.113049
0.0959769
)
;
    }
    atmosphere
    {
        type            inletOutlet;
        inletValue      uniform 1;
        value           nonuniform List<scalar> 
46
(
1
1
1
1
1
1
1
1
1
1
1
1
1
1
1
1
1
1
1
1
1
1
1
1
1
1
1
1
1
1
1
1
1
1
1
1
1
1
1
1
1
1
1
1
1
1
)
;
    }
    defaultFaces
    {
        type            empty;
    }
}


// ************************************************************************* //
