/*--------------------------------*- C++ -*----------------------------------*\
  =========                 |
  \\      /  F ield         | OpenFOAM: The Open Source CFD Toolbox
   \\    /   O peration     | Website:  https://openfoam.org
    \\  /    A nd           | Version:  13
     \\/     M anipulation  |
\*---------------------------------------------------------------------------*/
FoamFile
{
    format      ascii;
    class       volScalarField;
    location    "0.95";
    object      epsilon;
}
// * * * * * * * * * * * * * * * * * * * * * * * * * * * * * * * * * * * * * //

dimensions      [0 2 -3 0 0 0 0];

internalField   nonuniform List<scalar> 
2268
(
0.012581
0.0459073
0.0746313
0.10307
0.135951
0.175718
0.223573
0.281791
0.347676
0.421978
0.506955
0.604968
0.717478
0.842678
0.972737
1.09288
1.18247
1.21708
1.1715
1.02364
0.761683
0.410277
0.0530075
0.02184
0.0393066
0.0514846
0.0604867
0.0706777
0.0839424
0.101393
0.124332
0.152585
0.186644
0.227555
0.276286
0.333194
0.397134
0.464513
0.528886
0.581231
0.610681
0.605545
0.554624
0.449866
0.294277
0.117276
0.0397356
0.041552
0.0479925
0.0527193
0.0591302
0.068612
0.0820241
0.100432
0.124502
0.155263
0.193771
0.240621
0.295464
0.35649
0.420073
0.480803
0.5318
0.565149
0.572365
0.544759
0.474222
0.357628
0.236252
0.0581438
0.0444863
0.0475071
0.050709
0.0561869
0.0649608
0.0779515
0.0964543
0.121809
0.155532
0.198771
0.251714
0.313155
0.38031
0.448967
0.51389
0.569203
0.608693
0.626035
0.614659
0.567075
0.47622
0.396128
0.0751873
0.0471727
0.0479368
0.0506603
0.0561609
0.0652725
0.0792101
0.0997883
0.129057
0.169026
0.220819
0.28391
0.355875
0.432723
0.50956
0.581275
0.642898
0.689823
0.718097
0.724362
0.704694
0.652344
0.631103
0.089393
0.0492809
0.0487017
0.0515298
0.057542
0.0675899
0.0833943
0.107553
0.142962
0.192093
0.255718
0.332046
0.416989
0.505225
0.591343
0.670601
0.739117
0.794088
0.834512
0.86225
0.883418
0.908605
1.04119
0.0995167
0.0506737
0.0496226
0.0529274
0.059748
0.0711935
0.0897094
0.118978
0.162921
0.224309
0.30293
0.394968
0.494273
0.594304
0.689526
0.775959
0.851048
0.913987
0.967291
1.02027
1.099
1.27638
1.85876
0.104166
0.0511867
0.0505631
0.054594
0.0624536
0.0757441
0.0978827
0.134026
0.189308
0.26634
0.362911
0.472317
0.586214
0.697268
0.800355
0.892636
0.972963
1.04246
1.10702
1.18342
1.32235
1.71362
3.5039
0.44494
1.31324
2.0433
2.33618
2.42637
2.29816
2.11528
1.92707
1.70474
1.51788
1.39249
1.11393
0.839458
0.61721
0.371946
0.23833
0.256275
0.32125
0.328495
0.3602
0.820366
1.07239
1.16719
1.19701
1.17013
1.12043
1.05938
0.99172
0.924453
0.831932
0.717523
0.575658
0.439565
0.319322
0.250243
0.206558
0.238669
0.248248
0.482251
0.796028
0.947893
1.00055
1.00981
0.987447
0.948731
0.901355
0.852652
0.808723
0.756375
0.663347
0.544241
0.42312
0.313391
0.252673
0.235401
0.296939
0.308901
0.764887
0.916719
0.975468
0.981523
0.966321
0.934285
0.893601
0.849423
0.807504
0.776486
0.739354
0.650266
0.540972
0.424581
0.319483
0.257958
0.264599
0.352605
0.363948
1.32062
1.12675
1.05329
1.00463
0.962507
0.91699
0.869871
0.823844
0.782795
0.752104
0.714752
0.639576
0.54042
0.424961
0.330036
0.28101
0.304392
0.398507
0.417155
1.99106
1.33897
1.13517
1.03693
0.970233
0.910683
0.854917
0.803459
0.758727
0.722123
0.67943
0.614353
0.526591
0.420663
0.344345
0.316303
0.360678
0.432827
0.471186
2.95519
1.50417
1.19599
1.06351
0.978013
0.906165
0.841726
0.784268
0.734635
0.691974
0.645673
0.582559
0.501655
0.416244
0.36231
0.357947
0.420573
0.453702
0.530567
4.73361
1.59925
1.22222
1.07473
0.978473
0.898379
0.827326
0.764843
0.711126
0.663894
0.614828
0.554313
0.48205
0.415008
0.382759
0.403554
0.470689
0.462861
0.598852
0.0964506
0.0499411
0.0515498
0.057013
0.0669381
0.0840287
0.113632
0.163365
0.240489
0.346072
0.473065
0.609493
0.744074
0.869102
0.980746
1.07817
1.16214
1.23615
1.30961
1.4036
1.56246
1.86001
2.4811
0.0839212
0.0464584
0.0487212
0.0566376
0.0712691
0.097849
0.146332
0.229168
0.354994
0.515487
0.689862
0.857892
1.00782
1.13536
1.24111
1.32823
1.39953
1.45914
1.51459
1.57954
1.66981
1.7751
1.8626
0.0752171
0.044958
0.0462939
0.0558898
0.0764959
0.118644
0.201525
0.344099
0.54208
0.765634
0.97684
1.15486
1.29604
1.40398
1.48483
1.54503
1.58708
1.61397
1.62864
1.63445
1.63452
1.61778
1.56802
0.0762069
0.0465097
0.0462087
0.0569073
0.0856999
0.154169
0.299033
0.540812
0.83714
1.11319
1.32939
1.4831
1.58693
1.65278
1.69113
1.7084
1.7021
1.6722
1.63253
1.58967
1.53928
1.47315
1.39009
0.0822087
0.049857
0.048158
0.0606482
0.102393
0.217267
0.469033
0.851713
1.24426
1.54022
1.72186
1.81503
1.85397
1.85479
1.82689
1.77873
1.72018
1.65505
1.58691
1.51726
1.4425
1.35908
1.26906
0.0894314
0.0543667
0.0521914
0.068812
0.132625
0.329386
0.752629
1.31182
1.77244
2.02269
2.10993
2.09778
2.03976
1.95981
1.8728
1.78678
1.70247
1.61932
1.53607
1.45198
1.36583
1.27715
1.18758
0.0970426
0.059837
0.0591803
0.0850224
0.189587
0.528659
1.20465
1.9618
2.41662
2.50568
2.4143
2.26687
2.12492
2.00014
1.88819
1.78611
1.68963
1.5961
1.50369
1.41164
1.32019
1.23036
1.14281
0.110453
0.0676456
0.0714636
0.118031
0.305961
0.883782
1.9091
2.85059
3.05861
2.81939
2.55955
2.34514
2.17427
2.03501
1.91447
1.80503
1.70166
1.60157
1.50326
1.40639
1.31192
1.22134
1.13534
0.144632
0.0835566
0.0947268
0.188057
0.551661
1.52867
3.14675
3.99676
3.41114
2.95666
2.64639
2.41694
2.23991
2.09587
1.97105
1.85709
1.74886
1.64379
1.54083
1.44001
1.3426
1.25017
1.16377
0.176882
0.0983813
0.133766
0.292077
0.787492
1.87907
3.2916
3.89039
3.48035
3.05676
2.77444
2.53381
2.3465
2.19612
2.06655
1.94801
1.83511
1.72542
1.61748
1.51105
1.40895
1.3129
1.22214
0.23487
0.125265
0.171099
0.347517
0.799719
1.66501
2.7066
3.24534
3.2749
3.21648
3.02602
2.70832
2.49114
2.33294
2.19905
2.07539
1.95557
1.83749
1.72123
1.60806
1.49933
1.39537
1.29882
0.26938
0.136501
0.190022
0.361371
0.743229
1.40617
2.18669
2.68776
2.87811
3.05171
3.00481
2.77397
2.60337
2.46831
2.34474
2.2228
2.0981
1.97124
1.84585
1.72468
1.60785
1.4966
1.39405
0.268942
0.133878
0.187145
0.33914
0.647973
1.15291
1.75076
2.19278
2.41949
2.58211
2.64248
2.61561
2.56886
2.50354
2.41955
2.31763
2.20253
2.07987
1.95645
1.83493
1.7156
1.59985
1.49016
0.246604
0.121878
0.167463
0.291831
0.532546
0.916974
1.38451
1.77401
1.99889
2.1566
2.26063
2.32145
2.36198
2.37232
2.34849
2.29413
2.21465
2.1177
2.01207
1.90277
1.79048
1.6768
1.5655
0.214623
0.105624
0.140669
0.235852
0.416059
0.705138
1.07731
1.41168
1.62852
1.77835
1.89337
1.98486
2.06356
2.12273
2.15312
2.15202
2.12102
2.0648
1.99045
1.90459
1.80994
1.70839
1.6035
0.183192
0.0899792
0.11458
0.183774
0.314021
0.528389
0.815835
1.09644
1.30226
1.44746
1.56127
1.65783
1.74636
1.8254
1.88797
1.92778
1.94126
1.92836
1.89223
1.83733
1.76795
1.68637
1.59567
0.158014
0.0778259
0.0934875
0.142045
0.234559
0.387852
0.600491
0.827622
1.01639
1.15857
1.27075
1.36624
1.45415
1.53688
1.61139
1.67237
1.71468
1.73523
1.73373
1.71139
1.67055
1.61358
1.54223
0.142855
0.0705277
0.0788601
0.11229
0.176033
0.281947
0.433458
0.608944
0.772989
0.908649
1.01968
1.11445
1.20049
1.28172
1.35801
1.42636
1.48252
1.52262
1.54443
1.54727
1.53146
1.49812
1.44953
0.134941
0.0669844
0.0696114
0.0919713
0.135214
0.206894
0.31169
0.441385
0.575789
0.698662
0.805823
0.899733
0.984743
1.06419
1.13914
1.20837
1.26913
1.31815
1.35275
1.37128
1.37311
1.35844
1.32892
0.131346
0.0657504
0.0641566
0.0786866
0.10789
0.156131
0.227505
0.320267
0.424829
0.529784
0.628434
0.719
0.802446
0.880352
0.953538
1.02153
1.08263
1.1345
1.17478
1.20168
1.21418
1.21214
1.19651
0.130091
0.0657135
0.0611239
0.0702363
0.0900351
0.122756
0.171386
0.236657
0.315041
0.400178
0.486293
0.569884
0.649534
0.724949
0.795987
0.862052
0.921897
0.973785
1.01587
1.04658
1.06493
1.07066
1.06438
0.129895
0.0661149
0.059466
0.0648801
0.0784229
0.101001
0.134583
0.180501
0.238098
0.304589
0.376281
0.449844
0.52288
0.593821
0.661531
0.724906
0.782654
0.83329
0.875303
0.907404
0.928756
0.93912
0.938925
0.13
0.0665145
0.058478
0.0613804
0.0707451
0.086671
0.110363
0.143051
0.185171
0.23593
0.29349
0.355519
0.419708
0.484025
0.546719
0.606206
0.660961
0.709497
0.750442
0.782677
0.805488
0.818668
0.822569
0.13002
0.0667082
0.0577459
0.0589351
0.065475
0.0769697
0.0940989
0.117803
0.14879
0.187167
0.232287
0.28285
0.337141
0.393279
0.449378
0.503626
0.55432
0.599895
0.638996
0.670566
0.693938
0.708904
0.715739
0.129802
0.0666431
0.0570641
0.0570693
0.061663
0.0701399
0.0828251
0.100375
0.12345
0.15246
0.187369
0.227613
0.272129
0.319476
0.367987
0.415913
0.461539
0.503285
0.539794
0.570017
0.593284
0.609338
0.618358
0.129328
0.0663448
0.0563564
0.0555267
0.0587483
0.0651165
0.0747164
0.0879742
0.105411
0.127468
0.154355
0.185923
0.221608
0.260442
0.301136
0.342201
0.382087
0.419307
0.452559
0.48081
0.503368
0.519915
0.530511
0.128644
0.0658728
0.0556152
0.0541838
0.0564138
0.0612695
0.0686714
0.078872
0.0922474
0.109173
0.129911
0.154507
0.182707
0.213919
0.247238
0.281511
0.315458
0.347787
0.37732
0.403087
0.424396
0.440871
0.452457
0.127824
0.0652929
0.0548646
0.0529917
0.054488
0.0582317
0.0640288
0.0720046
0.0824132
0.0955405
0.111624
0.130775
0.152905
0.177678
0.204495
0.232528
0.260791
0.28824
0.313875
0.336833
0.356462
0.372355
0.384362
0.126941
0.0646677
0.05414
0.0519397
0.0528827
0.0557907
0.0603901
0.0667138
0.0749219
0.0852181
0.0977911
0.112757
0.130106
0.149654
0.171022
0.193643
0.2168
0.239694
0.261524
0.281567
0.29924
0.314139
0.326057
0.12607
0.0640529
0.0534796
0.0510364
0.0515559
0.0538242
0.0575121
0.0625865
0.0691372
0.0773022
0.0872208
0.098992
0.112635
0.128054
0.145013
0.163135
0.181919
0.200778
0.219103
0.236313
0.251916
0.265539
0.276951
0.125281
0.0635
0.0529213
0.0502996
0.0504917
0.0522625
0.0552443
0.0593575
0.0646409
0.0711828
0.0790813
0.088413
0.0992045
0.111406
0.124874
0.13936
0.154521
0.169941
0.18517
0.199761
0.213316
0.225511
0.236119
0.124652
0.0630594
0.0525038
0.0497522
0.0496885
0.051066
0.0534915
0.0568525
0.0611519
0.0664415
0.0727876
0.0802465
0.088843
0.098552
0.109284
0.120877
0.133099
0.145661
0.158236
0.170491
0.182114
0.192837
0.202454
0.124265
0.0627845
0.0522669
0.0494202
0.0491527
0.050213
0.0521913
0.0549531
0.0584756
0.0627848
0.0679236
0.0739316
0.0808287
0.0886023
0.0971958
0.106503
0.116366
0.126585
0.136928
0.147149
0.15701
0.166298
0.174834
0.124222
0.0627334
0.0522537
0.0493315
0.0488944
0.0496903
0.0512997
0.0535735
0.0564713
0.0600007
0.0641874
0.0690581
0.0746275
0.0808885
0.0878043
0.0953036
0.103279
0.111592
0.120077
0.128557
0.136851
0.144793
0.152237
0.124632
0.0629713
0.0525091
0.0495141
0.0489235
0.0494871
0.0507807
0.0526459
0.0550305
0.0579285
0.0613531
0.0653209
0.0698412
0.0749093
0.0804999
0.0865639
0.0930273
0.0997927
0.106744
0.113751
0.12068
0.127403
0.133805
0.125617
0.0635656
0.053077
0.0499916
0.0492444
0.0495886
0.0505983
0.0521095
0.0540615
0.0564386
0.0592439
0.0624855
0.0661681
0.0702866
0.0748226
0.0797412
0.0849904
0.0905022
0.0961946
0.101975
0.107745
0.113406
0.118868
0.127283
0.0645785
0.053992
0.0507756
0.0498493
0.0499689
0.0507089
0.0519016
0.0534795
0.0554187
0.0577137
0.0603653
0.0633732
0.0667311
0.070424
0.0744263
0.0787017
0.0832039
0.087878
0.0926615
0.0974843
0.102269
0.106938
0.129699
0.0660489
0.055265
0.0518536
0.0507071
0.0505829
0.051055
0.0519517
0.0531991
0.0547652
0.0566365
0.0588067
0.0612702
0.0640188
0.067039
0.0703118
0.073813
0.0775143
0.0813852
0.0853926
0.0894952
0.093635
0.0977343
0.132846
0.0679666
0.056861
0.053171
0.0517521
0.0513581
0.0515595
0.0521782
0.0531321
0.0543806
0.0559017
0.0576822
0.0597113
0.0619781
0.0644697
0.0671721
0.0700711
0.0731559
0.0764222
0.0798733
0.08351
0.0873024
0.0911494
0.136579
0.0702347
0.0586667
0.0546088
0.0528686
0.0521871
0.0521234
0.0524883
0.0531889
0.0541748
0.0554159
0.0568916
0.0585864
0.0604864
0.0625789
0.0648537
0.0673056
0.0699412
0.0727872
0.0759003
0.0793624
0.0832255
0.0873522
0.140589
0.0726062
0.0604402
0.0559533
0.0538779
0.052923
0.0526259
0.0527812
0.0532832
0.0540715
0.0551081
0.0563666
0.0578269
0.0594728
0.0612916
0.0632754
0.0654267
0.0677676
0.070359
0.0733322
0.0769263
0.0814674
0.0870112
0.144231
0.074501
0.061721
0.0568614
0.054529
0.0533827
0.0529331
0.0529586
0.053343
0.0540185
0.0549415
0.0560817
0.0574167
0.0589286
0.0606045
0.0624381
0.0644356
0.0666294
0.0691057
0.0720671
0.0759678
0.0818053
0.0919368
4.39401
4.22845
4.77012
6.20553
1.96477
1.97308
1.96147
1.88861
1.51641
1.47798
1.43102
1.37053
1.31537
1.26845
1.22142
1.17353
1.19276
1.14645
1.10246
1.06055
1.11428
1.07051
1.02976
0.9918
1.07283
1.0315
0.993419
0.958212
1.06766
1.02768
0.990946
0.956914
1.09721
1.05758
1.02102
0.985727
1.15428
1.11228
1.07411
1.03839
1.22634
1.18318
1.14299
1.10547
1.31641
1.26953
1.22596
1.18587
1.40742
1.35734
1.31051
1.2671
1.48134
1.42999
1.38156
1.336
1.52307
1.47322
1.42542
1.37969
1.52397
1.47842
1.43381
1.39035
1.4828
1.44376
1.40452
1.36552
1.40464
1.37317
1.34054
1.30722
1.29811
1.27459
1.24907
1.22201
1.17664
1.16014
1.14123
1.12026
1.05203
1.04092
1.02744
1.01174
0.931849
0.924542
0.915203
0.903734
0.819297
0.814905
0.808596
0.800495
0.715365
0.713302
0.709497
0.70409
0.620284
0.620126
0.618427
0.615289
0.534264
0.535657
0.535719
0.53452
0.457589
0.460186
0.461667
0.462084
0.39043
0.393879
0.396418
0.398077
0.332635
0.336602
0.339844
0.342383
0.283668
0.287857
0.291488
0.294575
0.242672
0.246841
0.250585
0.253945
0.208625
0.2126
0.21627
0.219662
0.180476
0.184135
0.187596
0.190851
0.157273
0.160565
0.163715
0.166715
0.138219
0.141113
0.143906
0.146587
0.122694
0.125198
0.127627
0.129972
0.110256
0.112416
0.114514
0.116542
0.100661
0.10255
0.104379
0.106138
0.0938557
0.0955706
0.0972065
0.0987529
0.0900475
0.0916799
0.0931752
0.0945336
0.089857
0.0913982
0.0926854
0.0937672
0.094506
0.0955426
0.0962382
0.0967367
2.21109
1.47128
1.2053
1.06416
0.962855
0.876965
0.800402
0.73362
0.6766
0.625652
0.574756
0.519533
0.462199
0.41695
0.410594
0.45417
0.497084
0.465091
0.659455
1.55447
1.28134
1.11591
1.00192
0.911286
0.832568
0.762479
0.701153
0.648787
0.601722
0.554848
0.50602
0.458489
0.423932
0.418337
0.439677
0.454849
0.454397
0.740013
1.26681
1.12753
1.01654
0.928079
0.853984
0.789762
0.734099
0.686123
0.644854
0.606488
0.566066
0.522807
0.480438
0.447205
0.432056
0.429815
0.42661
0.448418
0.823144
1.10632
1.01245
0.930427
0.861465
0.803612
0.755379
0.716169
0.684868
0.658944
0.634386
0.605728
0.570309
0.531628
0.496749
0.468868
0.444974
0.425283
0.454382
0.908763
1.00502
0.930625
0.864944
0.809677
0.764743
0.729864
0.704812
0.688589
0.678162
0.669121
0.656245
0.635402
0.605739
0.569291
0.526136
0.479563
0.440363
0.460745
0.955667
0.942531
0.878378
0.822241
0.775628
0.739012
0.712559
0.696227
0.689275
0.689445
0.692374
0.692795
0.685849
0.667772
0.632136
0.578571
0.513098
0.451471
0.447197
0.924656
0.912705
0.854076
0.802972
0.760679
0.727728
0.704325
0.690385
0.685217
0.687027
0.692507
0.696764
0.694043
0.678762
0.645201
0.589286
0.515544
0.440225
0.403002
0.75363
0.912884
0.856506
0.807201
0.765926
0.733032
0.708506
0.692034
0.682828
0.679316
0.678818
0.677433
0.670171
0.651555
0.615868
0.559504
0.487005
0.41131
0.345573
0.471498
0.940537
0.883643
0.833826
0.791615
0.757062
0.729846
0.70935
0.69472
0.684777
0.677597
0.670607
0.659911
0.639363
0.602119
0.542982
0.470487
0.397509
0.316588
0.306479
0.990537
0.931116
0.879292
0.835306
0.799089
0.770194
0.74778
0.730905
0.719095
0.711621
0.708108
0.704605
0.688217
0.645501
0.57175
0.501515
0.434782
0.381609
0.404725
1.05598
0.992417
0.935638
0.885912
0.843079
0.806782
0.776495
0.751717
0.731814
0.715447
0.70101
0.685442
0.662885
0.627395
0.583398
0.552146
0.521055
0.495292
0.583209
1.13204
1.06218
0.998824
0.94187
0.890881
0.845448
0.80514
0.769449
0.737547
0.708146
0.680256
0.653406
0.627275
0.603875
0.591256
0.600377
0.626284
0.609059
0.730627
1.20754
1.13064
1.06072
0.997378
0.939977
0.88784
0.840345
0.796816
0.75657
0.718964
0.683688
0.651038
0.622009
0.600719
0.593288
0.604216
0.629715
0.649499
0.845529
1.27128
1.18799
1.1122
1.04336
0.980631
0.923132
0.870063
0.820752
0.774725
0.731688
0.691576
0.654754
0.622573
0.599083
0.589044
0.594818
0.616936
0.669586
0.977214
1.31208
1.22474
1.14483
1.07185
1.00499
0.943388
0.886274
0.832983
0.783073
0.736329
0.692799
0.653009
0.618474
0.592326
0.578097
0.578396
0.599865
0.675522
1.0988
1.32309
1.23521
1.1539
1.07894
1.00979
0.945788
0.886295
0.830717
0.778638
0.729879
0.684582
0.643405
0.60782
0.580273
0.563659
0.561885
0.585383
0.677725
1.20441
1.30211
1.21785
1.13847
1.06426
0.995131
0.930758
0.870773
0.814692
0.762176
0.713136
0.667843
0.627049
0.592132
0.565143
0.548813
0.547811
0.574619
0.679117
1.29367
1.25097
1.17458
1.10045
1.02977
0.963029
0.90036
0.841838
0.787101
0.73595
0.688427
0.644909
0.606193
0.573562
0.548847
0.534724
0.536288
0.567186
0.681993
1.3706
1.17476
1.10901
1.04287
0.978255
0.916309
0.857611
0.802424
0.75076
0.702637
0.65824
0.618024
0.582785
0.553709
0.532477
0.521724
0.526773
0.562089
0.686112
1.43707
1.0823
1.02788
0.971072
0.914138
0.85862
0.805462
0.755201
0.708121
0.664445
0.624481
0.588732
0.557958
0.533237
0.516111
0.509118
0.517581
0.556263
0.685884
1.47627
0.982193
0.938371
0.891025
0.842403
0.794201
0.747574
0.703272
0.661779
0.623472
0.588751
0.558134
0.532327
0.512289
0.499411
0.496077
0.507455
0.548209
0.679826
1.48866
0.88125
0.846646
0.808103
0.767667
0.726989
0.68729
0.649425
0.613999
0.581486
0.552339
0.527067
0.506304
0.490887
0.482043
0.481957
0.495534
0.537059
0.667523
1.47626
0.783839
0.757046
0.72636
0.693559
0.660147
0.627294
0.595877
0.56655
0.539832
0.516189
0.496106
0.480137
0.46899
0.46372
0.466285
0.48126
0.522336
0.648952
1.44141
0.692292
0.67216
0.648406
0.622538
0.595871
0.569475
0.544187
0.52066
0.49942
0.480923
0.465612
0.453956
0.446536
0.444232
0.448761
0.464326
0.503865
0.624379
1.38657
0.607678
0.593333
0.575698
0.556039
0.535482
0.514978
0.495298
0.477065
0.460785
0.446892
0.435774
0.42782
0.423483
0.423472
0.429261
0.444657
0.48173
0.594306
1.3146
0.530519
0.521215
0.508953
0.494779
0.479645
0.464378
0.449677
0.436117
0.424176
0.41425
0.406674
0.401755
0.399827
0.401435
0.407817
0.422378
0.456235
0.559464
1.22857
0.461095
0.456098
0.448462
0.439031
0.428595
0.417866
0.407462
0.39791
0.389647
0.383026
0.37833
0.375784
0.375616
0.378216
0.384601
0.39778
0.427865
0.52075
1.13184
0.399493
0.398039
0.39425
0.38879
0.382304
0.375392
0.368594
0.362379
0.357138
0.35318
0.350731
0.349943
0.350942
0.353986
0.359888
0.371275
0.397235
0.479205
1.02791
0.34557
0.34687
0.346132
0.343863
0.340576
0.336767
0.332896
0.329372
0.326532
0.324639
0.323861
0.324281
0.325941
0.32898
0.334031
0.343366
0.36505
0.435938
0.920342
0.298926
0.302213
0.303753
0.303919
0.303107
0.301717
0.300132
0.298693
0.297687
0.297321
0.297708
0.298871
0.300776
0.303467
0.307429
0.314604
0.332064
0.392098
0.812554
0.25894
0.263518
0.266629
0.268534
0.26953
0.26993
0.270041
0.270141
0.270461
0.271152
0.272276
0.2738
0.275633
0.277747
0.280508
0.285569
0.299056
0.348835
0.707844
0.224869
0.230147
0.234215
0.237248
0.239461
0.24109
0.242374
0.243532
0.244736
0.246086
0.247596
0.249186
0.250725
0.252143
0.253719
0.256862
0.266821
0.307301
0.609267
0.195948
0.20145
0.205972
0.209622
0.212547
0.214923
0.21693
0.21873
0.220444
0.222125
0.223743
0.225187
0.226304
0.22701
0.227541
0.229112
0.236182
0.268667
0.519749
0.171477
0.176849
0.181431
0.185285
0.188511
0.191234
0.193586
0.195683
0.1976
0.19935
0.20087
0.202033
0.202687
0.202766
0.202508
0.202995
0.208017
0.234175
0.442099
0.150882
0.15588
0.160237
0.163984
0.167189
0.169941
0.172336
0.174453
0.176331
0.177953
0.179238
0.180057
0.180286
0.179912
0.179223
0.17925
0.183273
0.205171
0.379183
0.133746
0.138227
0.142171
0.145594
0.148545
0.15109
0.153302
0.155233
0.156898
0.158262
0.159239
0.159719
0.159629
0.159043
0.158357
0.158653
0.162931
0.183111
0.333926
0.119808
0.123716
0.127145
0.13011
0.132656
0.134841
0.136721
0.138334
0.139681
0.140723
0.141383
0.141586
0.14133
0.140802
0.140562
0.141889
0.14785
0.169454
0.309501
0.108953
0.11229
0.115164
0.117606
0.119669
0.121413
0.122888
0.124123
0.125117
0.125835
0.126221
0.126245
0.125981
0.125741
0.126299
0.129306
0.13846
0.165521
0.310074
0.101183
0.103967
0.106273
0.108171
0.10973
0.111015
0.112074
0.112934
0.113594
0.114033
0.11422
0.114166
0.114007
0.114161
0.115627
0.120616
0.134298
0.172289
0.344061
0.0965882
0.0987899
0.100509
0.101858
0.102925
0.103773
0.104449
0.104977
0.10536
0.105588
0.105654
0.105591
0.105564
0.10603
0.108131
0.114676
0.133265
0.189544
0.435296
0.0952975
0.0967837
0.0978598
0.0986573
0.0992588
0.0997173
0.100067
0.100325
0.1005
0.100588
0.100592
0.100549
0.100594
0.101108
0.103113
0.109546
0.13032
0.210744
0.670197
0.097363
0.097899
0.098258
0.0985089
0.0986876
0.0988155
0.0989059
0.0989666
0.0990009
0.0990098
0.0989962
0.098976
0.0990028
0.0992329
0.100134
0.103344
0.116401
0.197217
1.47881
)
;

boundaryField
{
    leftWall
    {
        type            epsilonWallFunction;
        value           nonuniform List<scalar> 
50
(
0.012581
0.02184
0.0397356
0.0581438
0.0751873
0.089393
0.0995167
0.104166
0.0964506
0.0839212
0.0752171
0.0762069
0.0822087
0.0894314
0.0970426
0.110453
0.144632
0.176882
0.23487
0.26938
0.268942
0.246604
0.214623
0.183192
0.158014
0.142855
0.134941
0.131346
0.130091
0.129895
0.13
0.13002
0.129802
0.129328
0.128644
0.127824
0.126941
0.12607
0.125281
0.124652
0.124265
0.124222
0.124632
0.125617
0.127283
0.129699
0.132846
0.136579
0.140589
0.144231
)
;
    }
    rightWall
    {
        type            epsilonWallFunction;
        value           nonuniform List<scalar> 
50
(
0.328495
0.248248
0.308901
0.363948
0.417155
0.471186
0.530567
0.598852
0.659455
0.740013
0.823144
0.908763
0.955667
0.924656
0.75363
0.471498
0.306479
0.404725
0.583209
0.730627
0.845529
0.977214
1.0988
1.20441
1.29367
1.3706
1.43707
1.47627
1.48866
1.47626
1.44141
1.38657
1.3146
1.22857
1.13184
1.02791
0.920342
0.812554
0.707844
0.609267
0.519749
0.442099
0.379183
0.333926
0.309501
0.310074
0.344061
0.435296
0.670197
1.47881
)
;
    }
    lowerWall
    {
        type            epsilonWallFunction;
        value           nonuniform List<scalar> 
62
(
0.012581
0.0459073
0.0746313
0.10307
0.135951
0.175718
0.223573
0.281791
0.347676
0.421978
0.506955
0.604968
0.717478
0.842678
0.972737
1.09288
1.18247
1.21708
1.1715
1.02364
0.761683
0.410277
0.0530075
0.0530075
0.117276
0.236252
0.396128
0.631103
1.04119
1.85876
3.5039
4.39401
4.22845
4.77012
6.20553
0.44494
0.3602
0.482251
0.764887
1.32062
1.99106
2.95519
4.73361
0.44494
1.31324
2.0433
2.33618
2.42637
2.29816
2.11528
1.92707
1.70474
1.51788
1.39249
1.11393
0.839458
0.61721
0.371946
0.23833
0.256275
0.32125
0.328495
)
;
    }
    atmosphere
    {
        type            inletOutlet;
        inletValue      uniform 0.1;
        value           nonuniform List<scalar> 
46
(
0.144231
0.074501
0.061721
0.0568614
0.054529
0.0533827
0.0529331
0.0529586
0.053343
0.0540185
0.0549415
0.0560817
0.0574167
0.0589286
0.0606045
0.0624381
0.0644356
0.0666294
0.0691057
0.0720671
0.0759678
0.0818053
0.1
0.1
0.1
0.1
0.1
0.1
0.1
0.1
0.1
0.1
0.1
0.1
0.1
0.1
0.1
0.1
0.1
0.1
0.1
0.1
0.1
0.1
0.1
0.1
)
;
    }
    defaultFaces
    {
        type            empty;
    }
}


// ************************************************************************* //
