/*--------------------------------*- C++ -*----------------------------------*\
  =========                 |
  \\      /  F ield         | OpenFOAM: The Open Source CFD Toolbox
   \\    /   O peration     | Website:  https://openfoam.org
    \\  /    A nd           | Version:  13
     \\/     M anipulation  |
\*---------------------------------------------------------------------------*/
FoamFile
{
    format      ascii;
    class       volScalarField;
    location    "0.95";
    object      nut;
}
// * * * * * * * * * * * * * * * * * * * * * * * * * * * * * * * * * * * * * //

dimensions      [0 2 -1 0 0 0 0];

internalField   nonuniform List<scalar> 
2268
(
3.07642e-05
4.75688e-05
5.59123e-05
6.24478e-05
6.87334e-05
7.50421e-05
8.13624e-05
8.78592e-05
9.41453e-05
0.000100396
0.000106763
0.000113294
0.000119904
0.000126329
0.000132137
0.000136813
0.000139808
0.000140515
0.000138181
0.000131704
0.000119156
9.71543e-05
4.99826e-05
0.000101373
0.000317493
0.000405311
0.000493767
0.000591252
0.000690812
0.000782609
0.000858397
0.000925595
0.000992769
0.0010626
0.0011349
0.00120691
0.00127366
0.00132911
0.00136738
0.00138287
0.00136935
0.00131833
0.00121701
0.00104627
0.000769259
0.000174765
0.000123661
0.000595948
0.00080653
0.00100496
0.00121284
0.00141454
0.00159224
0.00173529
0.00185838
0.00197574
0.00209515
0.00221822
0.00234058
0.00245289
0.00254299
0.00259811
0.00260522
0.00254954
0.00241181
0.00216524
0.00177443
0.00118776
0.000219168
0.000140081
0.000828142
0.00116982
0.00147021
0.0017684
0.00204348
0.00227366
0.00245244
0.00260016
0.00273862
0.0028823
0.00303516
0.00319086
0.00333529
0.00345022
0.00351617
0.00351282
0.00341708
0.00319972
0.00282243
0.00224046
0.00140966
0.000258851
0.000152258
0.0010116
0.00148201
0.00187287
0.00224162
0.00256453
0.00281832
0.0030043
0.0031527
0.00329628
0.00345595
0.00363536
0.00382312
0.00399867
0.00413773
0.0042153
0.00420544
0.00407843
0.00379673
0.00331164
0.00256972
0.00154208
0.000301042
0.000160996
0.00114922
0.00174011
0.00221145
0.00263623
0.00298813
0.00324414
0.00341782
0.0035552
0.00370209
0.00388286
0.00409583
0.00432109
0.00453065
0.00469521
0.00478617
0.00477404
0.00462462
0.0042937
0.00372215
0.00284391
0.00164306
0.000354467
0.000166674
0.00124466
0.00194446
0.00248909
0.00296053
0.00332838
0.00357211
0.00372324
0.0038492
0.00400822
0.00422231
0.00447894
0.00474742
0.00499305
0.00518339
0.00528835
0.005277
0.00511268
0.00474654
0.00410989
0.00311957
0.00176626
0.000428281
0.00016927
0.0013026
0.002099
0.00271214
0.00322456
0.00359922
0.0038217
0.00394803
0.00407092
0.00425709
0.00451856
0.00482745
0.00514223
0.00542356
0.0056381
0.00575626
0.00574739
0.0055744
0.00518703
0.00451261
0.00345712
0.00199913
0.000526962
9.86102e-05
0.000140944
0.000162848
0.000169398
0.000171742
0.000168623
0.000163726
0.000158285
0.000151355
0.000145461
0.000141931
0.000130669
0.000118508
0.000105803
8.90927e-05
8.02429e-05
8.33994e-05
9.01855e-05
8.9803e-05
0.000287502
0.000963228
0.0013037
0.0014499
0.00150861
0.00150759
0.00145168
0.00136684
0.00125949
0.00119494
0.00121117
0.00104514
0.000890251
0.000768939
0.000555468
0.000343701
0.000352595
0.000396656
0.000256347
0.000315042
0.00146035
0.00226297
0.00266726
0.00283328
0.00285109
0.00276839
0.00262884
0.00244113
0.00228366
0.0021813
0.0019002
0.00163988
0.00139415
0.00101641
0.000596248
0.000552327
0.000602198
0.000275997
0.000363932
0.00177948
0.00300448
0.00364608
0.00391392
0.00395808
0.00386493
0.00368713
0.00344029
0.00319086
0.00295326
0.00259459
0.0022558
0.00190451
0.00142018
0.000870145
0.000750629
0.000812256
0.000291727
0.000436509
0.00214001
0.00366562
0.00447522
0.00481402
0.004877
0.00477476
0.00456267
0.00426325
0.00392525
0.00357612
0.00316418
0.00276191
0.0023285
0.00177563
0.00117889
0.000988798
0.0010316
0.000305863
0.000499952
0.00261962
0.00432972
0.00521931
0.00558871
0.00565555
0.00553832
0.00529378
0.00494676
0.00453908
0.00410527
0.00364227
0.00318989
0.00270381
0.0021111
0.00151131
0.0012825
0.00125559
0.000319863
0.000569705
0.00321116
0.00501788
0.00591028
0.00627212
0.00632591
0.00618851
0.00591584
0.00553245
0.00507462
0.00458156
0.00407163
0.00357953
0.00306394
0.00245028
0.0018702
0.00162762
0.00146669
0.000335603
0.000667869
0.00386426
0.00570919
0.0065527
0.00688108
0.00690993
0.00675119
0.00645599
0.00604812
0.00555889
0.00502776
0.00448554
0.00396684
0.00342567
0.00280727
0.00226323
0.00200464
0.00165439
0.000349184
0.000166357
0.00134793
0.00227663
0.00299075
0.00355947
0.00393259
0.00411613
0.00421448
0.00435949
0.00461612
0.00496833
0.00536283
0.00574587
0.00607581
0.00632151
0.00645672
0.00645381
0.00627927
0.00589043
0.00523621
0.00428746
0.00309809
0.00169149
0.000161244
0.00130007
0.0023427
0.00319152
0.00382832
0.00417759
0.00431081
0.00443075
0.00469178
0.00511063
0.00561352
0.00612169
0.00658081
0.00695803
0.00723279
0.00738966
0.00741284
0.00728536
0.00699539
0.00654875
0.0059787
0.00534499
0.00469095
0.000153005
0.00119926
0.00234042
0.00331099
0.0039752
0.00426114
0.00437937
0.00462831
0.00510111
0.00571248
0.00635003
0.00693942
0.00744339
0.00784473
0.0081358
0.008313
0.00837408
0.00831979
0.00816066
0.00792266
0.00765623
0.00741358
0.00723874
0.000151258
0.00113725
0.00233892
0.00338349
0.00401129
0.00421752
0.00441857
0.0049127
0.00563813
0.00642047
0.00714999
0.00778164
0.00830264
0.00871061
0.00901004
0.00920608
0.00930359
0.00931358
0.00926524
0.00919585
0.00914092
0.00912201
0.00915784
0.000153745
0.00113277
0.00236938
0.00341661
0.00394216
0.00411776
0.00454247
0.00534872
0.00629557
0.00719172
0.00796614
0.00860719
0.00912376
0.00952274
0.00981466
0.0100147
0.0101436
0.0102237
0.0102771
0.0103281
0.0103942
0.0104787
0.0105802
0.000157807
0.00116159
0.00242507
0.00341425
0.00380141
0.00406063
0.00482113
0.00592608
0.00702353
0.00796946
0.00874386
0.00936327
0.00985131
0.0102275
0.0105124
0.0107316
0.0109027
0.0110445
0.0111706
0.0112927
0.0114153
0.0115321
0.0116329
0.000162415
0.00123177
0.0025207
0.00338823
0.00366513
0.00415208
0.00528208
0.00660992
0.00776466
0.00869408
0.00942368
0.00999774
0.0104531
0.0108192
0.0111141
0.0113581
0.011566
0.0117503
0.0119187
0.0120743
0.0122142
0.0123281
0.0124038
0.00016982
0.00138716
0.00268424
0.00337166
0.00364839
0.0044845
0.00593847
0.00736918
0.00842535
0.00926607
0.00994253
0.0104877
0.0109305
0.0112974
0.0116054
0.0118699
0.0121023
0.0123111
0.0124995
0.0126657
0.0128041
0.0129039
0.0129544
0.000187234
0.00168125
0.00292446
0.00343279
0.00390172
0.00512207
0.00684207
0.00810884
0.00888491
0.00964038
0.010293
0.0108248
0.0112643
0.0116364
0.0119569
0.012237
0.012485
0.0127066
0.0129031
0.0130713
0.0132053
0.0132962
0.0133349
0.000201761
0.00196034
0.00317221
0.00360546
0.00427827
0.0056093
0.00717541
0.00828879
0.00908371
0.00982798
0.0104737
0.0109904
0.0114296
0.0118117
0.0121463
0.0124411
0.0127023
0.0129341
0.0131374
0.0133101
0.0134475
0.0135421
0.0135864
0.000223686
0.00222117
0.0034011
0.00382706
0.00446408
0.00559062
0.00687709
0.00794899
0.008951
0.0098326
0.0104871
0.0109734
0.0114185
0.0118196
0.012173
0.0124852
0.0127624
0.0130079
0.0132238
0.0134095
0.0135605
0.0136721
0.0137398
0.000238168
0.00236775
0.0035893
0.00404017
0.00460203
0.00550566
0.00655316
0.00754633
0.0085658
0.00952816
0.010231
0.0107538
0.011235
0.0116658
0.0120453
0.0123816
0.0126805
0.0129468
0.0131848
0.013395
0.0135731
0.0137158
0.0138195
0.00024183
0.00242034
0.00372133
0.00421321
0.00469809
0.00541045
0.00625783
0.00712565
0.00804497
0.00893222
0.00968452
0.0103185
0.0108721
0.0113537
0.0117754
0.012147
0.0124772
0.0127737
0.0130428
0.013286
0.0134995
0.0136801
0.0138239
0.000237368
0.00239489
0.00377849
0.00432185
0.00475076
0.0053182
0.00600558
0.00674728
0.00753008
0.00831919
0.00905661
0.00972817
0.0103376
0.0108786
0.0113553
0.0117765
0.0121512
0.0124886
0.0127968
0.013079
0.0133328
0.0135548
0.0137425
0.00022755
0.00230571
0.00377025
0.00437956
0.00477595
0.0052356
0.00579822
0.00641802
0.00707901
0.00776112
0.00843323
0.00908125
0.00970026
0.0102806
0.010807
0.01128
0.0117054
0.0120909
0.0124435
0.0127679
0.0130648
0.0133308
0.0135644
0.000215269
0.0021741
0.00371552
0.00441249
0.00480267
0.00517777
0.00562644
0.00614063
0.00670037
0.00728554
0.00787969
0.00847463
0.00906553
0.00964138
0.0101882
0.0106969
0.0111654
0.0115977
0.0119949
0.0123611
0.0126992
0.0130084
0.0132877
0.000203066
0.00202019
0.00362982
0.00443876
0.0048494
0.0051579
0.00550582
0.00592549
0.00639993
0.00690418
0.00742466
0.00795758
0.00850086
0.00904726
0.00958509
0.0101028
0.0105926
0.011052
0.0114812
0.0118815
0.0122547
0.0126019
0.0129233
0.000193797
0.00185203
0.00351611
0.00445533
0.00492093
0.00519642
0.00546283
0.00579381
0.00618919
0.00662346
0.00707958
0.00755307
0.00804312
0.00854606
0.00905385
0.00955634
0.0100444
0.0105121
0.0109567
0.0113774
0.0117741
0.012147
0.0124967
0.000187829
0.00170476
0.00338751
0.00446072
0.00502167
0.00530752
0.00551924
0.00576935
0.00608579
0.00645211
0.00684879
0.00726728
0.00770514
0.00815996
0.00862669
0.00909785
0.00956542
0.0100227
0.0104654
0.0108908
0.0112975
0.0116844
0.012051
0.00018439
0.00159382
0.00326493
0.00445595
0.00514033
0.00548356
0.00567868
0.00586549
0.00610487
0.00640002
0.00673541
0.00709939
0.00748619
0.00789245
0.0083142
0.00874606
0.00918177
0.00961541
0.0100422
0.0104588
0.0108627
0.0112521
0.0116254
0.000182622
0.00151968
0.00316343
0.0044429
0.00525777
0.00569725
0.00592049
0.00607459
0.00624851
0.00647159
0.00674097
0.00704669
0.00738084
0.00773808
0.00811398
0.00850391
0.00890282
0.00930572
0.00970824
0.0101068
0.0104987
0.0108816
0.0112532
0.000181799
0.00147523
0.00308896
0.00442618
0.00535865
0.00591472
0.00620643
0.00636697
0.00649989
0.00665952
0.00686191
0.00710532
0.0073834
0.00768989
0.00801941
0.00836703
0.00872802
0.00909789
0.00947262
0.0098488
0.0102236
0.0105945
0.0109587
0.000181411
0.00145154
0.00303942
0.00441024
0.00543668
0.00610965
0.00649589
0.00670081
0.00682631
0.00694306
0.0070866
0.00726851
0.00748861
0.00774251
0.00802479
0.00833014
0.00865359
0.0089906
0.00933719
0.00968992
0.0100459
0.0104024
0.0107565
0.000181155
0.00144104
0.00300878
0.00439682
0.0054922
0.00626866
0.00675856
0.00703592
0.00718853
0.00729154
0.00739484
0.00752432
0.0076896
0.00789139
0.00812634
0.00838962
0.00867616
0.00898121
0.00930049
0.00963035
0.00996757
0.0103092
0.010652
0.00018088
0.00143819
0.00299045
0.0043852
0.00552788
0.00638857
0.00697791
0.00734252
0.00755027
0.00767061
0.00775957
0.00785429
0.00797497
0.0081298
0.00831981
0.00854223
0.00879278
0.00906673
0.00935958
0.00966728
0.00998616
0.0103128
0.0106437
0.000180535
0.00143949
0.00297915
0.00437357
0.00554636
0.00647134
0.00714803
0.00760274
0.00788344
0.00804779
0.00815019
0.00823351
0.00832646
0.00844521
0.00859666
0.00878178
0.00899823
0.00924212
0.00950906
0.0097947
0.0100949
0.0104057
0.010723
0.000180116
0.00144285
0.00297139
0.00436037
0.00554982
0.00652085
0.00726918
0.0078081
0.008169
0.00839581
0.008536
0.00863248
0.00871865
0.00881709
0.00894076
0.00909531
0.00928149
0.00949715
0.00973863
0.0100017
0.0102818
0.0105745
0.0108751
0.000179646
0.00144721
0.00296523
0.00434482
0.00554039
0.00654153
0.00734482
0.00795651
0.00839591
0.00869421
0.00888949
0.00902043
0.00912097
0.00921734
0.00932732
0.00946114
0.00962321
0.00981385
0.0100308
0.0102704
0.0105283
0.0107994
0.0110789
0.000179156
0.00145205
0.00295981
0.00432698
0.00552036
0.00653807
0.00738012
0.00805017
0.00855975
0.00892984
0.00918896
0.00936922
0.00950183
0.00961358
0.00972497
0.00984977
0.00999582
0.0101662
0.0103605
0.0105763
0.0108094
0.0110551
0.011308
0.00017868
0.00145722
0.00295493
0.00430749
0.0054923
0.00651537
0.00738138
0.00809429
0.00866149
0.0090967
0.00942018
0.00965685
0.00983318
0.00997404
0.0101003
0.0102277
0.0103666
0.0105225
0.0106972
0.0108894
0.011096
0.0113125
0.0115336
0.000178249
0.00146269
0.00295067
0.00428721
0.0054588
0.00647834
0.00735548
0.00809617
0.00870639
0.00919534
0.00957696
0.00986963
0.0100944
0.0102725
0.0104234
0.0105629
0.0107028
0.0108503
0.0110089
0.0111788
0.011358
0.0115427
0.011728
0.000177899
0.00146851
0.00294717
0.00426698
0.0054222
0.0064316
0.0073094
0.00806437
0.00870281
0.00923168
0.00966069
0.0100029
0.0102742
0.0104917
0.010672
0.0108299
0.0109769
0.0111213
0.0112675
0.0114172
0.0115694
0.0117212
0.0118684
0.000177668
0.00147471
0.00294446
0.00424734
0.00538439
0.00637913
0.00724971
0.00800776
0.00866092
0.00921553
0.00967886
0.0100602
0.0103712
0.0106249
0.0108347
0.0110131
0.0111707
0.0113156
0.0114528
0.0115847
0.0117114
0.0118309
0.0119398
0.000177599
0.0014813
0.00294237
0.00422843
0.00534658
0.00632406
0.00718206
0.00793476
0.00859144
0.00915886
0.00964325
0.0100517
0.0103925
0.0106754
0.0109106
0.0111082
0.011277
0.0114243
0.0115549
0.0116716
0.011775
0.011864
0.0119364
0.000177739
0.00148813
0.00294045
0.00420995
0.00530929
0.00626852
0.00711096
0.00785269
0.00850456
0.00907421
0.00956782
0.0099913
0.010351
0.0106542
0.0109083
0.0111211
0.0112994
0.0114491
0.0115744
0.0116779
0.0117606
0.0118221
0.0118609
0.000178137
0.00149493
0.0029379
0.00419114
0.00527243
0.00621376
0.00703967
0.00776744
0.00840915
0.00897342
0.00946687
0.00989516
0.0102637
0.0105779
0.0108434
0.0110658
0.0112502
0.0114009
0.0115211
0.0116129
0.011677
0.0117136
0.0117222
0.000178832
0.00150118
0.00293366
0.004171
0.00523556
0.00616042
0.00697049
0.00768356
0.00831249
0.00886676
0.00935367
0.0097791
0.0101481
0.0104654
0.0107352
0.0109616
0.0111481
0.0112975
0.0114117
0.0114918
0.0115381
0.0115511
0.0115316
0.00017984
0.00150618
0.00292655
0.00414854
0.00519828
0.00610897
0.00690513
0.00760452
0.00822034
0.00876273
0.00923966
0.0096575
0.0100215
0.0103359
0.0106044
0.0108299
0.0110147
0.0111601
0.0112666
0.0113337
0.0113606
0.0113476
0.0112979
0.000181141
0.00150907
0.0029156
0.0041233
0.00516074
0.00606024
0.00684532
0.00753327
0.00813737
0.00866821
0.00913433
0.00954266
0.00989876
0.010207
0.0104707
0.0106921
0.0108724
0.0110115
0.011108
0.0111588
0.0111606
0.0111123
0.0110219
0.000182658
0.00150898
0.00290059
0.00409597
0.0051243
0.00601604
0.00679335
0.00747286
0.00806779
0.00858901
0.00904554
0.00944483
0.00979282
0.0100941
0.0103518
0.0105678
0.0107423
0.0108738
0.010958
0.0109878
0.0109534
0.0108479
0.0106871
0.000184248
0.00150535
0.00288292
0.00406938
0.00509229
0.0059798
0.0067527
0.00742703
0.00801595
0.00853052
0.00898014
0.00937261
0.00971423
0.0100098
0.0102624
0.0104735
0.0106427
0.0107668
0.0108383
0.010843
0.0107576
0.0105545
0.0102456
0.000185648
0.00149974
0.00286788
0.00405006
0.0050711
0.00595731
0.00672863
0.0074008
0.00798694
0.00849827
0.0089444
0.00933336
0.00967162
0.00996405
0.0102138
0.0104223
0.0105883
0.0107076
0.0107698
0.0107532
0.0106143
0.0102717
0.00959379
0.000571083
0.000566205
0.000592279
0.000646201
0.00426068
0.00426197
0.0044038
0.00474297
0.00723544
0.00732414
0.00750008
0.00776814
0.00926822
0.00936722
0.00949203
0.00963802
0.0106904
0.0107617
0.0108298
0.0108921
0.0117078
0.0117437
0.0117642
0.0117685
0.0124386
0.0124435
0.0124282
0.0123927
0.0129599
0.012944
0.0129066
0.0128475
0.0133301
0.0133078
0.0132637
0.0131954
0.0135908
0.0135724
0.0135339
0.0134744
0.0137645
0.0137626
0.0137411
0.0137006
0.0138741
0.0138939
0.0138967
0.0138838
0.0139131
0.0139583
0.0139892
0.0140068
0.0138668
0.0139378
0.0139973
0.0140453
0.0137223
0.0138175
0.0139037
0.0139803
0.0134767
0.0135938
0.0137036
0.0138057
0.0131401
0.0132766
0.0134073
0.0135313
0.0127344
0.0128893
0.0130392
0.0131834
0.0123032
0.0124725
0.012638
0.0127996
0.0118854
0.0120642
0.0122408
0.0124152
0.0115152
0.0116989
0.0118819
0.0120646
0.0112185
0.0114034
0.011589
0.0117757
0.0110119
0.0111952
0.0113804
0.0115677
0.0109019
0.0110818
0.0112643
0.0114492
0.010887
0.0110618
0.0112392
0.0114192
0.010958
0.0111256
0.0112954
0.0114673
0.0110987
0.0112563
0.0114154
0.0115755
0.0112868
0.0114311
0.0115758
0.0117203
0.0114953
0.0116227
0.0117494
0.0118744
0.0116955
0.0118029
0.0119081
0.0120104
0.0118605
0.0119456
0.0120273
0.0121045
0.0119691
0.0120308
0.0120879
0.0121393
0.0120083
0.0120468
0.0120795
0.0121059
0.0119739
0.0119906
0.0120007
0.0120041
0.01187
0.0118673
0.0118577
0.0118411
0.0117062
0.011687
0.0116608
0.0116276
0.0114932
0.01146
0.0114202
0.011374
0.0112381
0.0111924
0.0111413
0.0110852
0.0109378
0.0108795
0.0108187
0.0107557
0.0105723
0.0105013
0.0104335
0.0103685
0.0100978
0.0100203
0.00995543
0.0098993
0.00945125
0.00939703
0.00936094
0.00933437
0.00311334
0.00544129
0.0068148
0.0074926
0.00774471
0.00772907
0.00753834
0.00721865
0.00679204
0.00628233
0.00572361
0.00515217
0.00459741
0.00401404
0.00340875
0.002917
0.00253324
0.00186438
0.000356861
0.00603197
0.00736461
0.00818438
0.00858728
0.00869706
0.00860244
0.00836012
0.00801285
0.00758
0.00707788
0.00652966
0.00596494
0.0054101
0.00484418
0.00428407
0.00374382
0.00311304
0.00210895
0.00036653
0.00827816
0.00892673
0.00933268
0.00949692
0.0094694
0.0092985
0.00901654
0.00865844
0.00824038
0.00777099
0.00726062
0.00672693
0.00618652
0.00563309
0.00505577
0.00440234
0.00357127
0.00229962
0.000377836
0.00985094
0.0101106
0.0102354
0.0102115
0.0100613
0.00981488
0.009497
0.0091271
0.00872414
0.00828991
0.00782134
0.00731913
0.00678667
0.00621206
0.00556585
0.00481903
0.00386791
0.00243342
0.000390262
0.0109525
0.0109816
0.0109137
0.0107422
0.010482
0.0101563
0.00978773
0.009394
0.0089864
0.00856569
0.00812041
0.00763576
0.00709335
0.00646384
0.00575269
0.00493721
0.00393311
0.00246982
0.000396828
0.0117337
0.0116154
0.0114125
0.011126
0.0107695
0.0103633
0.00992879
0.00948406
0.00903949
0.0085937
0.00813204
0.00762997
0.00705818
0.00638483
0.0056168
0.00474964
0.00372903
0.00232968
0.000391187
0.0122961
0.0120835
0.0117903
0.0114211
0.0109887
0.0105108
0.0100064
0.00949238
0.00897898
0.00846625
0.00794185
0.00738328
0.00676282
0.00605232
0.00523445
0.00431639
0.00328313
0.00198359
0.00036113
0.0127156
0.0124517
0.0121092
0.0116932
0.0112142
0.0106861
0.0101241
0.00954243
0.00895104
0.00835268
0.00774074
0.00709888
0.00640381
0.00563005
0.00475888
0.00378579
0.0027028
0.00145363
0.000309701
0.0130512
0.012774
0.0124213
0.0119959
0.0115051
0.0109586
0.010367
0.00974072
0.00908914
0.0084176
0.00772575
0.00700357
0.00623018
0.00538066
0.00443168
0.00336977
0.00220563
0.00103377
0.000273926
0.013341
0.0130841
0.0127552
0.0123546
0.0118864
0.0113563
0.0107708
0.0101369
0.00946235
0.00875451
0.00801871
0.00724657
0.00641014
0.00547582
0.00442137
0.00328022
0.00206352
0.00100371
0.000306261
0.0136001
0.0133903
0.0131095
0.0127553
0.0123279
0.0118294
0.0112625
0.0106319
0.00994349
0.00920244
0.00841132
0.00756712
0.00666164
0.00568194
0.00461812
0.00352573
0.00242226
0.00130029
0.000343579
0.0138271
0.0136805
0.0134634
0.0131712
0.0128018
0.0123552
0.0118329
0.0112369
0.0105699
0.0098333
0.0090283
0.00815521
0.00721435
0.00620247
0.00511955
0.00400649
0.00290361
0.00168806
0.000368717
0.0139993
0.0139241
0.01378
0.0135611
0.013264
0.0128874
0.0124313
0.0118964
0.0112823
0.0105884
0.00981412
0.00895843
0.00801644
0.00697954
0.00584154
0.00461792
0.00332747
0.00187676
0.000386651
0.01409
0.01409
0.0140235
0.0138837
0.0136659
0.0133676
0.0129872
0.0125241
0.0119772
0.0113451
0.0106251
0.00981208
0.00889501
0.00785608
0.00667552
0.0053428
0.00383802
0.002113
0.000404535
0.0140777
0.0141532
0.0141644
0.0141041
0.0139668
0.0137485
0.0134469
0.0130603
0.012587
0.0120247
0.0113686
0.0106096
0.00973117
0.00870713
0.00750354
0.00608225
0.00439652
0.00239852
0.00041966
0.013954
0.0141018
0.0141876
0.0142043
0.0141456
0.0140066
0.0137837
0.0134744
0.0130765
0.0125861
0.0119962
0.0112942
0.0104587
0.00945624
0.0082409
0.00675517
0.00492624
0.00268513
0.000432025
0.0137267
0.0139405
0.0140956
0.0141849
0.0142015
0.0141393
0.0139933
0.01376
0.013436
0.013016
0.0124909
0.0118449
0.0110522
0.0100736
0.0088543
0.00732189
0.00538206
0.00293956
0.000442029
0.0134189
0.013688
0.0139047
0.0140608
0.014148
0.0141588
0.0140862
0.0139257
0.0136724
0.0133194
0.0128554
0.0122621
0.01151
0.0105552
0.00933619
0.00776946
0.0057431
0.00313749
0.000450432
0.0130676
0.0133799
0.0136474
0.0138607
0.01401
0.0140863
0.0140815
0.0139887
0.0138013
0.0135103
0.0131025
0.0125569
0.0118413
0.0109084
0.00969169
0.00809922
0.0060058
0.00327792
0.000457216
0.012708
0.0130532
0.0133608
0.0136208
0.0138223
0.0139549
0.014009
0.0139758
0.0138464
0.0136101
0.0132516
0.0127477
0.0120642
0.0111521
0.00994185
0.00833635
0.0061998
0.00338298
0.000461015
0.012374
0.0127424
0.0130796
0.0133752
0.0136178
0.0137956
0.0138976
0.0139134
0.013832
0.0136408
0.0133225
0.0128526
0.0121959
0.0113025
0.0101021
0.00849405
0.00633445
0.00345883
0.000462089
0.0120943
0.0124765
0.0128328
0.0131525
0.0134237
0.013634
0.0137711
0.013823
0.0137772
0.0136192
0.0133305
0.0128856
0.0122491
0.0113717
0.0101831
0.00858123
0.0064156
0.00350779
0.000460675
0.0118886
0.0122758
0.0126408
0.0129727
0.0132595
0.0134883
0.0136459
0.0137193
0.0136948
0.0135566
0.0132854
0.0128555
0.0122322
0.0113675
0.0101922
0.00860372
0.00644692
0.00353102
0.000456956
0.0117664
0.0121503
0.0125137
0.0128458
0.0131345
0.0133669
0.0135296
0.0136089
0.0135905
0.013458
0.0131918
0.012767
0.0121501
0.0112949
0.0101342
0.00856558
0.00643096
0.00352937
0.000451071
0.0117268
0.0120992
0.0124507
0.0127708
0.0130478
0.013269
0.0134213
0.013491
0.0134637
0.0133232
0.0130506
0.0126219
0.0120055
0.0111575
0.0100127
0.00847001
0.00636994
0.00350362
0.000443148
0.0117592
0.0121115
0.0124409
0.0127372
0.0129893
0.0131853
0.0133127
0.0133585
0.0133089
0.0131486
0.0128597
0.0124199
0.0117997
0.0109576
0.00983086
0.00832018
0.0062662
0.00345479
0.000433309
0.0118452
0.0121685
0.0124656
0.0127269
0.0129422
0.0131006
0.0131907
0.0132007
0.0131181
0.0129287
0.0126163
0.0121606
0.0115343
0.0106983
0.00959239
0.0081197
0.00612257
0.00338417
0.000421691
0.0119607
0.012246
0.0125012
0.0127177
0.0128861
0.012997
0.0130403
0.0130058
0.0128825
0.0126581
0.0123182
0.0118444
0.0112118
0.0103835
0.00930192
0.00787312
0.00594262
0.00329352
0.000408448
0.0120792
0.012318
0.0125232
0.0126869
0.012801
0.0128573
0.0128477
0.0127635
0.0125957
0.0123337
0.0119651
0.0114737
0.0108365
0.0100189
0.00896569
0.00758637
0.00573096
0.00318505
0.000393761
0.0121745
0.0123602
0.0125093
0.0126148
0.01267
0.0126683
0.0126031
0.0124676
0.0122547
0.0119559
0.0115605
0.0110543
0.0104159
0.0096128
0.00859218
0.00726717
0.00549349
0.00306171
0.000377844
0.0122249
0.0123532
0.0124428
0.0124878
0.0124827
0.0124225
0.0123024
0.0121174
0.0118622
0.0115301
0.0111122
0.0105957
0.00996094
0.00917676
0.00819268
0.00692559
0.00523784
0.00292727
0.000360976
0.0122154
0.012285
0.0123147
0.0122997
0.0122361
0.0121203
0.0119491
0.0117192
0.011427
0.0110675
0.0106332
0.0101126
0.00948704
0.00872644
0.00778215
0.00657476
0.00497383
0.00278666
0.000343521
0.0121394
0.012152
0.0121244
0.0120532
0.0119357
0.0117699
0.011554
0.0112864
0.0109649
0.0105858
0.0101428
0.00962528
0.00901504
0.00828251
0.00738013
0.00623165
0.00471406
0.00264616
0.000326006
0.0119989
0.0119591
0.0118798
0.0117587
0.0115948
0.0113871
0.0111355
0.0108395
0.0104982
0.010109
0.0096664
0.00916005
0.00857172
0.00787141
0.00701153
0.00591783
0.00447433
0.0025136
0.000309191
0.0118023
0.0117173
0.0115944
0.0114328
0.0112324
0.0109936
0.0107175
0.0104045
0.0100549
0.00966667
0.00923487
0.00874887
0.00818957
0.00752537
0.00670688
0.00565972
0.00427368
0.00239795
0.000294191
0.0115617
0.0114407
0.0112848
0.0110943
0.0108702
0.0106137
0.0103266
0.0100103
0.0096657
0.00929133
0.00888214
0.00842685
0.00790462
0.00728062
0.00650102
0.00548767
0.00413356
0.00230859
0.00028252
0.0112876
0.0111416
0.0109656
0.0107606
0.0105279
0.0102694
0.00998722
0.0096834
0.00935896
0.00901274
0.00863939
0.00822655
0.00775077
0.00717224
0.00642902
0.00543343
0.00407645
0.00225444
0.00027602
0.0109848
0.010826
0.0106449
0.0104418
0.0102178
0.00997486
0.00971512
0.00944066
0.00915258
0.0088496
0.00852603
0.00816832
0.00775017
0.00722537
0.00651977
0.00552747
0.00412681
0.00224546
0.000276661
0.0106483
0.0104909
0.0103212
0.0101376
0.00994052
0.00973106
0.00951112
0.00928249
0.00904603
0.00880032
0.00853949
0.00824953
0.00790223
0.00744554
0.00679041
0.00580117
0.00432021
0.00229936
0.00028671
0.0102642
0.0101254
0.00998464
0.00983811
0.00968455
0.00952444
0.00935902
0.00918956
0.00901656
0.00883859
0.0086503
0.00843885
0.00817743
0.00781303
0.00724529
0.00629842
0.00473039
0.00246007
0.000310247
0.00981605
0.00971695
0.00962275
0.00952803
0.00943093
0.00933138
0.00923002
0.00912754
0.00902415
0.00891872
0.00880746
0.00868125
0.0085202
0.00828177
0.0078733
0.00709165
0.00553845
0.00286272
0.00035863
0.00929909
0.0092616
0.00922771
0.00919444
0.00916084
0.00912683
0.00909262
0.00905844
0.00902433
0.00898987
0.00895372
0.00891264
0.00885935
0.00877696
0.00862208
0.00826288
0.00723335
0.00417143
0.000469167
)
;

boundaryField
{
    leftWall
    {
        type            nutkWallFunction;
        Cmu             0.09;
        kappa           0.41;
        E               9.8;
        value           nonuniform List<scalar> 
50
(
3.38071e-06
9.95914e-06
1.19396e-05
1.33947e-05
1.4474e-05
1.52482e-05
1.57491e-05
1.59699e-05
1.61416e-05
1.8137e-05
1.74973e-05
1.75037e-05
1.78818e-05
1.83447e-05
1.882e-05
1.96056e-05
2.23168e-05
1.9982e-05
2.28826e-05
2.44791e-05
2.45906e-05
2.37378e-05
2.2316e-05
2.07078e-05
1.92257e-05
1.82047e-05
1.76094e-05
1.7307e-05
1.718e-05
1.71404e-05
1.71316e-05
1.71234e-05
1.71024e-05
1.70658e-05
1.70158e-05
1.69568e-05
1.68937e-05
1.68314e-05
1.67749e-05
1.67294e-05
1.67008e-05
1.66961e-05
1.67226e-05
1.67882e-05
1.68994e-05
1.70593e-05
1.72646e-05
1.75037e-05
1.7755e-05
1.79783e-05
)
;
    }
    rightWall
    {
        type            nutkWallFunction;
        Cmu             0.09;
        kappa           0.41;
        E               9.8;
        value           nonuniform List<scalar> 
50
(
9.18647e-06
2.38421e-05
2.54472e-05
2.675e-05
2.78994e-05
2.91285e-05
3.14989e-05
3.5665e-05
3.66953e-05
3.79327e-05
4.03644e-05
4.21722e-05
4.28885e-05
4.24382e-05
3.97606e-05
3.46223e-05
3.0747e-05
3.40157e-05
3.96347e-05
4.32857e-05
4.56053e-05
4.80249e-05
5.01062e-05
5.17908e-05
5.31366e-05
5.42489e-05
5.51676e-05
5.56915e-05
5.58519e-05
5.56807e-05
5.52039e-05
5.44393e-05
5.34025e-05
5.21102e-05
5.05805e-05
4.88299e-05
4.68803e-05
4.47573e-05
4.24943e-05
4.01359e-05
3.77483e-05
3.54308e-05
3.33352e-05
3.16756e-05
3.0721e-05
3.07607e-05
3.21117e-05
3.53035e-05
4.17602e-05
5.59773e-05
)
;
    }
    lowerWall
    {
        type            nutkWallFunction;
        Cmu             0.09;
        kappa           0.41;
        E               9.8;
        value           nonuniform List<scalar> 
62
(
3.38071e-06
5.01854e-06
5.81604e-06
6.41901e-06
6.98724e-06
7.55668e-06
8.1304e-06
8.72088e-06
9.29266e-06
9.85422e-06
1.04189e-05
1.09938e-05
1.15772e-05
1.21522e-05
1.26848e-05
1.3129e-05
1.34326e-05
1.35366e-05
1.33684e-05
1.28233e-05
1.17191e-05
9.71871e-06
5.24458e-06
5.24458e-06
1.6527e-05
2.04133e-05
2.38559e-05
2.74627e-05
3.28858e-05
4.4872e-05
5.2278e-05
5.65918e-05
5.86647e-05
6.20249e-05
6.70713e-05
1.13856e-05
3.03168e-05
3.31716e-05
3.79399e-05
4.53914e-05
5.26082e-05
6.02604e-05
6.94238e-05
1.13856e-05
1.58753e-05
1.81411e-05
1.81962e-05
1.76944e-05
1.737e-05
1.71015e-05
1.71787e-05
1.6577e-05
1.59984e-05
1.46287e-05
1.33149e-05
1.24808e-05
1.13723e-05
9.66743e-06
8.26022e-06
8.47152e-06
9.13438e-06
9.18647e-06
)
;
    }
    atmosphere
    {
        type            calculated;
        value           nonuniform List<scalar> 
46
(
0.000185648
0.00149974
0.00286788
0.00405006
0.0050711
0.00595731
0.00672863
0.0074008
0.00798694
0.00849827
0.0089444
0.00933336
0.00967162
0.00996405
0.0102138
0.0104223
0.0105883
0.0107076
0.0107698
0.0107532
0.0106143
0.0102717
0.009
0.009
0.009
0.009
0.009
0.009
0.009
0.009
0.009
0.009
0.009
0.009
0.009
0.009
0.009
0.009
0.009
0.009
0.009
0.009
0.009
0.009
0.009
0.009
)
;
    }
    defaultFaces
    {
        type            empty;
    }
}


// ************************************************************************* //
