/*--------------------------------*- C++ -*----------------------------------*\
  =========                 |
  \\      /  F ield         | OpenFOAM: The Open Source CFD Toolbox
   \\    /   O peration     | Website:  https://openfoam.org
    \\  /    A nd           | Version:  13
     \\/     M anipulation  |
\*---------------------------------------------------------------------------*/
FoamFile
{
    format      ascii;
    class       volScalarField;
    location    "0.95";
    object      p;
}
// * * * * * * * * * * * * * * * * * * * * * * * * * * * * * * * * * * * * * //

dimensions      [1 -1 -2 0 0 0 0];

internalField   nonuniform List<scalar> 
2268
(
7430.07
7226.63
6998.64
6751.33
6524.89
6332.7
6172.61
6036.67
5917.31
5809.42
5709.77
5616.65
5529.26
5447.05
5369.47
5296.08
5226.34
5159.34
5093.56
5027.32
4959.49
4902.19
4865.81
6670.38
6466.8
6233.67
5977.77
5741.92
5539.71
5369.47
5223.43
5095.06
4979.44
4873.58
4775.81
4685.06
4600.45
4521.28
4447.21
4377.97
4313.09
4251.74
4193.1
4136.23
4094.04
4066.75
5914.93
5694.52
5455.34
5193.95
4952
4742.49
4563.86
4408.98
4272.04
4148.95
4036.92
3934.29
3839.94
3752.88
3672.44
3598.48
3531.15
3470.58
3416.55
3368.59
3324.52
3296.06
3264.29
5161.81
4907.34
4659.81
4395.5
4151.94
3939.75
3756.73
3595.6
3451.9
3322.82
3205.64
3098.73
3001.18
2912.18
2831.07
2758
2693.59
2638.64
2593.4
2556.64
2523.66
2505.81
2457.66
4405.84
4108.89
3852.91
3587.63
3346.2
3134.97
2950.41
2784.66
2635.9
2502.87
2382.6
2273.2
2174.16
2084.84
2004.39
1933.02
1871.69
1821.86
1784.36
1757.15
1734.14
1727.73
1650
3644.75
3304.97
3041.52
2775.23
2537.02
2328.37
2145.62
1979.88
1833.22
1707.24
1597.47
1500.63
1415.51
1340.57
1274.05
1215.61
1165.68
1125.28
1095.73
1077.33
1072.74
1096.8
1014.14
2882.23
2500.24
2220.71
1946.27
1723.24
1551.18
1417.57
1311.92
1228.8
1159.78
1099.26
1044.57
994.698
948.619
905.701
866.244
830.489
799.022
773.749
759.384
769.138
808.928
731.401
2127.59
1691.82
1458.89
1281.56
1165.87
1092.59
1045.28
1014.99
992.904
970.074
944.866
917.338
887.773
856.76
825.238
794.293
764.436
736.52
712.84
699.895
711.068
738.356
636.688
1021.38
1055.07
1118.54
1191.19
1303.32
1401.38
1482.99
1587.28
1722.82
1909.68
2295.46
2899.52
3324.59
3581.77
3646.25
3565.29
3785.07
4514.95
5108.94
959.016
978.639
1025.44
1037.79
1050.53
1114.61
1221.12
1373.34
1537.86
1702.58
1949.8
2493.17
2969.24
3269.44
3398.59
3099.42
3108.86
3698.79
4216.55
897.573
885.654
902.506
879.931
860.172
880.042
940.669
1041.99
1183.24
1305.41
1434.8
1904.2
2425.5
2771.81
3014.13
2750.5
2660.42
3042.6
3388.3
830.867
798.079
789.175
781.579
782.321
793.458
815.758
848.853
919.36
1006.36
1075.28
1320.74
1800.59
2222.1
2533.29
2494.97
2366.51
2532.42
2599.82
739.386
722.112
711.897
716.392
720.404
732.906
754.346
780.332
825.595
895.23
947.932
1021.4
1271.71
1727.26
2093.07
2257.88
2076.22
2020.49
1822.65
666.545
661.201
652.777
654.262
658.025
671.139
694.233
722.674
764.978
826.89
878.418
917.224
1032.89
1350.02
1679.55
1945.94
1737.4
1486.73
1090.98
626.655
618.669
609.566
606.019
606.184
614.043
633.31
662.512
705.367
763.058
815.598
851.688
919.968
1063.69
1282.31
1503.22
1355.68
994.603
651.815
604.194
586.076
575.769
570.289
568.92
572.306
582.966
603.151
640.767
695.694
746.011
779.16
814.041
838.978
977.374
1122.03
1025.15
622.66
560.987
1303.25
1053.34
986.984
957.871
945.709
937.871
930.538
920.828
906.083
886.27
861.984
834.13
803.706
771.734
739.379
707.847
677.556
649.65
625.74
609.606
608.221
609.557
565.529
775.654
779.303
798.648
806.251
809.371
809.975
806.957
798.315
783.341
762.602
737.253
708.556
677.748
645.442
613.142
582.404
552.855
526.092
511.388
509.65
506.563
492.762
475.322
661.584
664.651
677.577
684.377
689.125
691.866
690.641
682.648
667.026
644.767
617.687
587.152
555.116
521.232
486.135
458.846
444.639
440.691
441.94
446.105
444.719
428.519
411.166
543.943
549.302
557.932
564.803
571.717
577.887
579.62
572.603
555.664
530.627
500.895
466.764
431.614
403.722
383.902
378.487
376.897
378.772
378.236
373.572
366.057
355.416
342.806
420.028
426.399
434.87
444.001
455.247
467.03
473.28
467.32
448.215
418.491
385.325
357.211
336.425
329.062
324.178
321.026
314.172
306.346
302.21
296.872
289.427
280.456
270.539
291.197
298.474
308.38
320.892
337.961
357.578
370.948
366.793
345.642
317.677
297.248
288.247
279.723
270.671
261.343
250.533
242.428
233.883
226.91
219.703
211.67
204.019
196.499
157.025
165.193
176.017
189.16
207.329
230.301
249.361
253.704
255.682
251.11
239.978
228.036
216.418
201.898
191.19
179.293
168.081
158.009
149.496
140.462
131.258
125.332
120.293
45.19
50.12
55.9603
60.6966
65.446
73.3607
86.8808
106.291
149.507
175.766
170.323
156.406
145.517
131.927
119.423
105.94
90.7122
78.3362
70.2447
61.5335
50.7166
46.755
46.7337
5.42236
5.99286
6.87776
7.11862
6.7589
6.53386
7.72208
13.2723
35.4149
70.251
91.8509
87.711
77.0759
62.3618
48.8852
37.8467
26.0513
18.9565
16.9557
14.1299
8.60444
8.40824
12.0975
4.43689
4.41405
4.47542
4.52674
4.53302
4.52686
4.68069
4.88961
5.53013
19.0939
33.8477
31.5903
25.0151
15.7834
9.4508
6.32399
4.44076
3.74717
3.69061
3.66046
3.71474
3.79094
3.83712
4.26468
4.25033
4.22896
4.20149
4.18006
4.16768
4.09896
3.78901
3.6737
4.43314
4.8507
4.44629
3.87275
3.3935
3.37011
3.4086
3.48245
3.5698
3.63055
3.66684
3.69922
3.7277
3.7525
4.08776
4.06731
4.05237
4.04211
4.03819
4.02941
3.95364
3.71206
3.46468
3.50059
3.48101
3.34323
3.22598
3.2364
3.30937
3.3724
3.41947
3.45189
3.47689
3.50361
3.53201
3.55659
3.58476
3.91983
3.90168
3.89124
3.88542
3.87552
3.84948
3.7855
3.64088
3.45352
3.35891
3.23658
3.15475
3.13504
3.15731
3.1982
3.23827
3.27216
3.30249
3.33184
3.36048
3.3887
3.40939
3.42902
3.75542
3.73971
3.72859
3.72013
3.70497
3.67193
3.61014
3.5118
3.38869
3.30456
3.2065
3.12124
3.08787
3.08623
3.10194
3.12381
3.14844
3.17308
3.20034
3.22896
3.25677
3.27818
3.29748
3.58923
3.57617
3.56422
3.55296
3.53559
3.50389
3.45233
3.37862
3.29035
3.21624
3.13739
3.06716
3.02733
3.01291
3.01393
3.02485
3.0417
3.05876
3.07647
3.0998
3.12673
3.15
3.16941
3.42739
3.41775
3.4067
3.39455
3.37728
3.34974
3.30835
3.25029
3.17977
3.11348
3.04939
2.99284
2.95479
2.93459
2.92802
2.93115
2.94085
2.95337
2.96496
2.97914
2.99942
3.02168
3.04212
3.27167
3.26531
3.25611
3.24438
3.22844
3.20515
3.17173
3.12579
3.0698
3.01319
2.95913
2.91178
2.87691
2.85502
2.84392
2.84115
2.84437
2.85148
2.8606
2.8701
2.8826
2.89972
2.9187
3.12183
3.11823
3.11117
3.10079
3.0866
3.06687
3.03961
3.00335
2.95946
2.91319
2.86824
2.82802
2.79625
2.77391
2.76007
2.75324
2.7518
2.75431
2.75968
2.767
2.77613
2.78873
2.80375
2.97718
2.97567
2.97075
2.96213
2.94977
2.93297
2.9106
2.88186
2.84747
2.81039
2.77359
2.73973
2.71143
2.68982
2.67476
2.66546
2.66092
2.66013
2.66233
2.66697
2.67386
2.68339
2.69481
2.83687
2.83688
2.83385
2.82706
2.81656
2.80226
2.78377
2.76073
2.7336
2.70406
2.67422
2.64609
2.62152
2.60159
2.58655
2.5761
2.5697
2.56673
2.56662
2.56898
2.57358
2.58037
2.58885
2.70007
2.70112
2.69962
2.69458
2.68592
2.67387
2.65848
2.63977
2.61811
2.59453
2.57045
2.5473
2.52642
2.50872
2.49459
2.48402
2.47677
2.4725
2.47083
2.47147
2.47417
2.47875
2.4849
2.56604
2.56776
2.56745
2.56395
2.55705
2.54706
2.53426
2.51891
2.5014
2.48243
2.46298
2.44404
2.42657
2.41128
2.39858
2.3886
2.38127
2.37643
2.37385
2.37332
2.37464
2.37762
2.38204
2.4342
2.43632
2.43688
2.43466
2.42935
2.42125
2.41071
2.39807
2.38378
2.3684
2.3526
2.33712
2.32263
2.30968
2.29863
2.28965
2.28275
2.27789
2.27493
2.27372
2.27413
2.27601
2.27921
2.30407
2.30642
2.30759
2.30638
2.30245
2.29605
2.28748
2.27714
2.26543
2.25287
2.23998
2.2273
2.21534
2.2045
2.19509
2.18726
2.18109
2.17655
2.17358
2.17209
2.17197
2.17314
2.17549
2.17532
2.17776
2.17933
2.17889
2.17611
2.17117
2.16434
2.15596
2.14641
2.13613
2.12557
2.11516
2.10529
2.09629
2.08838
2.08171
2.07636
2.07233
2.06959
2.06807
2.0677
2.06844
2.07021
2.04766
2.05009
2.0519
2.05203
2.05017
2.04647
2.04113
2.03444
2.02671
2.01834
2.00969
2.00114
1.993
1.98553
1.97894
1.97334
1.9688
1.96533
1.96292
1.96152
1.96108
1.96158
1.96297
1.92089
1.92324
1.92518
1.92571
1.92456
1.92186
1.91778
1.91251
1.90635
1.89958
1.89254
1.88552
1.87882
1.87264
1.86717
1.86249
1.85869
1.85577
1.85372
1.85251
1.85209
1.85247
1.85361
1.79484
1.79706
1.79902
1.79982
1.79922
1.79732
1.79426
1.79019
1.78534
1.77994
1.77426
1.76855
1.76305
1.75796
1.75342
1.74954
1.74638
1.74395
1.74224
1.74122
1.74087
1.74119
1.74216
1.66936
1.67143
1.67336
1.67431
1.6741
1.67282
1.67058
1.66751
1.66375
1.6595
1.65498
1.65038
1.64591
1.64174
1.63801
1.6348
1.63218
1.63017
1.62876
1.62793
1.62766
1.62796
1.6288
1.54436
1.54626
1.54809
1.54913
1.54919
1.54838
1.54679
1.5445
1.54165
1.53836
1.53482
1.53117
1.52759
1.52422
1.52117
1.51855
1.5164
1.51475
1.5136
1.51293
1.51273
1.51302
1.51376
1.41975
1.42147
1.42317
1.42422
1.42447
1.42401
1.4229
1.42124
1.41911
1.41662
1.41389
1.41106
1.40824
1.40556
1.40312
1.40101
1.39927
1.39793
1.39701
1.3965
1.39637
1.39665
1.39731
1.29544
1.29699
1.29854
1.29955
1.29991
1.2997
1.29896
1.29779
1.29623
1.29438
1.29232
1.29016
1.288
1.28592
1.28402
1.28236
1.28099
1.27995
1.27924
1.27886
1.2788
1.27908
1.27968
1.17139
1.17276
1.17415
1.1751
1.17551
1.17546
1.175
1.17418
1.17307
1.17172
1.17021
1.16861
1.167
1.16544
1.16401
1.16275
1.16173
1.16095
1.16044
1.1602
1.16021
1.1605
1.16105
1.04754
1.04874
1.04996
1.05082
1.05124
1.05129
1.05102
1.05048
1.0497
1.04875
1.04767
1.04652
1.04535
1.04423
1.04321
1.04232
1.0416
1.04108
1.04076
1.04065
1.04074
1.04105
1.04157
0.923851
0.924887
0.925935
0.926687
0.92709
0.9272
0.927059
0.926705
0.926178
0.925519
0.924771
0.923976
0.923179
0.922419
0.921735
0.92116
0.92072
0.920432
0.920304
0.920332
0.920509
0.920845
0.92132
0.800294
0.801173
0.802047
0.802683
0.803043
0.803174
0.803112
0.80289
0.802541
0.802099
0.8016
0.801078
0.800566
0.800095
0.799693
0.799384
0.799186
0.799111
0.79916
0.799327
0.799597
0.79997
0.800406
0.676845
0.67757
0.678272
0.678784
0.679084
0.679209
0.679188
0.67905
0.678823
0.678537
0.678219
0.677899
0.677603
0.677355
0.677176
0.677084
0.677092
0.677206
0.677423
0.67773
0.678107
0.678531
0.67892
0.553486
0.554059
0.554592
0.554979
0.555206
0.555303
0.555295
0.555204
0.555056
0.554874
0.554684
0.554508
0.554369
0.554285
0.554276
0.554354
0.55453
0.554808
0.55518
0.55563
0.556129
0.556628
0.556973
0.430213
0.430631
0.431001
0.431264
0.43141
0.431463
0.431444
0.431373
0.431269
0.431154
0.431048
0.430969
0.430936
0.430967
0.431077
0.43128
0.431586
0.432
0.432516
0.433114
0.433772
0.434418
0.4347
0.307031
0.307286
0.307494
0.307625
0.307674
0.307663
0.307608
0.307528
0.307438
0.307354
0.307293
0.307271
0.307303
0.307406
0.307595
0.307888
0.3083
0.308845
0.309526
0.310343
0.311347
0.312451
0.312506
0.183964
0.184023
0.184035
0.183993
0.1839
0.183778
0.183644
0.183511
0.183391
0.183298
0.183243
0.18324
0.183304
0.183451
0.183701
0.184079
0.184617
0.185351
0.186318
0.187609
0.189549
0.192153
0.191628
0.06109
0.0609829
0.0608372
0.0606618
0.0604716
0.0602836
0.0601085
0.0599536
0.0598258
0.0597318
0.0596792
0.0596768
0.0597354
0.0598689
0.0600958
0.0604423
0.0609461
0.0616583
0.0626469
0.0640943
0.0666742
0.0712581
0.0719738
576.749
572.864
568.017
562.876
480.048
483.83
481.716
474.397
407.457
405.065
401.234
396.546
336.614
332.771
328.818
325.356
264.302
260.707
257.506
255.035
191.232
188.418
186.182
184.558
115.78
113.77
113.335
112.819
40.636
34.6138
37.6497
41.8218
5.94625
4.27999
5.46689
7.20501
3.79361
3.84405
3.88471
3.9412
3.776
3.78973
3.80202
3.81248
3.591
3.60363
3.61445
3.63424
3.44514
3.45456
3.46695
3.48306
3.31403
3.32442
3.33458
3.3452
3.1837
3.19269
3.20125
3.20979
3.05536
3.06334
3.07094
3.07847
2.93123
2.93873
2.94571
2.95265
2.81439
2.82106
2.82716
2.83329
2.7036
2.70917
2.71416
2.71931
2.59606
2.60076
2.6048
2.60901
2.49069
2.49461
2.4979
2.50128
2.38652
2.3896
2.39223
2.39493
2.28256
2.28483
2.28683
2.28897
2.17793
2.1795
2.18094
2.18256
2.07193
2.07293
2.07391
2.0751
1.96414
1.9647
1.96534
1.96619
1.85437
1.85462
1.85499
1.85559
1.74263
1.74267
1.74286
1.74327
1.62908
1.62899
1.62907
1.62934
1.51393
1.51378
1.51378
1.51395
1.39743
1.39726
1.3972
1.39731
1.27978
1.27961
1.27953
1.27959
1.16115
1.16099
1.16089
1.16094
1.04166
1.04153
1.04144
1.04148
0.921416
0.921313
0.921245
0.921287
0.800499
0.800425
0.800373
0.800407
0.67898
0.678919
0.678871
0.678888
0.556969
0.556883
0.556807
0.556784
0.434549
0.434381
0.434235
0.434139
0.311824
0.311436
0.311162
0.310953
0.188981
0.187845
0.187309
0.187011
0.0672332
0.0651551
0.0639749
0.0631976
548.398
529.481
520.34
517.298
517.074
519.509
525.551
537.036
557.374
590.788
631.716
654.003
649.43
668.699
767.695
830.645
695.458
488.88
506.321
463.371
453.044
448.451
446.963
447.301
449.541
454.071
460.645
467.418
475.044
489.012
496.751
472.633
469.524
519.414
541.405
439.338
382.15
404.848
389.339
382.605
379.37
378.242
378.585
380.323
383.582
387.751
390.747
388.838
380.217
368.901
346.482
325.427
316.256
313.844
284.234
288.286
315.738
320.089
314.617
311.78
310.737
310.989
312.317
314.532
316.977
317.976
314.498
302.079
280.15
254.084
228.98
205.493
195.078
199.116
215.967
239.562
251.277
246.995
244.68
243.851
244.122
245.248
246.912
248.499
248.581
245.317
235.847
218.241
193.549
170.428
153.466
143.53
141.853
147.408
163.145
181.893
178.782
177.131
176.629
177.018
178.107
179.596
180.957
181.235
178.525
171.779
159.984
143.697
125.99
111.456
100.799
93.4403
86.6565
94.3659
111.299
109.318
108.183
107.849
108.189
109.118
110.392
111.513
111.744
110.085
105.452
97.3786
86.7886
75.6571
66.2732
59.0809
51.95
42.3873
45.1563
44.0592
43.9778
43.5332
43.4106
43.6049
44.1493
44.9526
45.6628
45.736
44.717
42.0956
37.7427
33.1496
29.4232
27.6393
27.0062
24.3342
21.72
25.7264
9.20685
9.84382
10.1351
10.4149
10.6797
10.9325
11.1649
11.2811
11.1745
10.9347
10.529
9.81452
9.50707
9.05779
8.14067
7.25154
8.08224
11.1269
12.8732
4.04704
3.98934
3.93661
3.89579
3.8528
3.8075
3.75822
3.70313
3.65661
3.6292
3.61956
3.66381
3.76492
3.9628
4.29945
4.58712
4.70669
5.35709
6.51637
3.84567
3.86946
3.89265
3.91875
3.94533
3.97145
3.9957
4.01733
4.0398
4.06503
4.09308
4.13438
4.20302
4.27186
4.28823
4.28478
4.26772
4.19074
4.0147
3.66712
3.69468
3.71596
3.73535
3.75448
3.77321
3.79121
3.80834
3.82581
3.84461
3.86572
3.89206
3.92981
3.98344
4.03889
4.05817
4.06554
4.02372
3.96915
3.50897
3.5337
3.55358
3.57168
3.58934
3.60661
3.62343
3.6401
3.65713
3.67536
3.69504
3.71475
3.72926
3.75269
3.79407
3.8412
3.87596
3.85755
3.82236
3.36342
3.3863
3.40675
3.42606
3.44496
3.46345
3.4815
3.49931
3.51724
3.53566
3.55502
3.57434
3.58913
3.60619
3.63881
3.68251
3.70413
3.6964
3.67575
3.2251
3.24679
3.26719
3.28691
3.30628
3.3253
3.34395
3.3623
3.3806
3.39903
3.41769
3.43636
3.45424
3.47352
3.4991
3.52511
3.53975
3.53692
3.52712
3.09229
3.1125
3.13209
3.15134
3.1704
3.18923
3.20777
3.22604
3.24412
3.26209
3.27998
3.29764
3.31492
3.33293
3.35277
3.37156
3.38272
3.38356
3.38132
2.96522
2.98354
3.00188
3.02018
3.03844
3.05657
3.0745
3.0922
3.10966
3.12687
3.1438
3.16036
3.17651
3.1927
3.20917
3.22396
3.2341
3.23794
3.24135
2.84432
2.86036
2.87704
2.89396
2.91097
2.928
2.94494
2.96174
2.97831
2.99458
3.0105
3.026
3.04104
3.05573
3.07001
3.08292
3.09322
3.09946
3.10812
2.72861
2.74238
2.7572
2.77244
2.78795
2.80361
2.81933
2.835
2.85049
2.86571
2.88058
2.89503
2.90902
2.92255
2.93555
2.94761
2.95846
2.96818
2.98091
2.61665
2.62833
2.64137
2.65492
2.66885
2.68305
2.69741
2.71179
2.72608
2.74018
2.75398
2.76742
2.78046
2.79312
2.8054
2.8173
2.82928
2.84217
2.85855
2.5074
2.51724
2.52857
2.54048
2.55283
2.56553
2.57847
2.59153
2.60459
2.61754
2.63029
2.64279
2.65502
2.66703
2.67893
2.69101
2.70423
2.71986
2.7393
2.39979
2.40805
2.4178
2.42815
2.43898
2.45021
2.46176
2.47351
2.48535
2.49719
2.50895
2.52058
2.53211
2.54361
2.55529
2.56763
2.58195
2.59979
2.62156
2.29281
2.29977
2.30808
2.31699
2.3264
2.33626
2.34649
2.35699
2.36768
2.37846
2.38929
2.40013
2.41102
2.42208
2.43358
2.44611
2.46122
2.48066
2.50397
2.1856
2.19149
2.19853
2.20614
2.21428
2.22289
2.23192
2.24128
2.25089
2.2607
2.27066
2.28077
2.29107
2.3017
2.31298
2.32554
2.34108
2.36143
2.38547
2.07751
2.08251
2.08845
2.09494
2.10196
2.10947
2.11743
2.12576
2.13441
2.14333
2.1525
2.16191
2.17164
2.18182
2.19278
2.20518
2.22075
2.24134
2.26533
1.96808
1.97237
1.97738
1.98291
1.98897
1.99553
2.00255
2.00997
2.01776
2.02588
2.03431
2.04307
2.05222
2.06191
2.07244
2.08446
2.09968
2.11991
2.14315
1.8571
1.86079
1.86503
1.86976
1.87501
1.88076
1.88697
1.8936
1.90062
1.90801
1.91575
1.92387
1.93243
1.94156
1.95154
1.96298
1.97751
1.99682
2.01874
1.7445
1.74769
1.75131
1.75538
1.75996
1.76502
1.77052
1.77645
1.78278
1.78949
1.79658
1.80406
1.812
1.8205
1.82983
1.84052
1.85408
1.87203
1.89215
1.63034
1.63313
1.63625
1.63978
1.64379
1.64825
1.65314
1.65844
1.66413
1.67021
1.67666
1.6835
1.69077
1.6986
1.70718
1.717
1.72939
1.74564
1.76361
1.51479
1.51724
1.51994
1.52304
1.52656
1.5305
1.53484
1.53956
1.54465
1.55011
1.55592
1.5621
1.5687
1.57579
1.58357
1.59244
1.60352
1.61788
1.6335
1.39802
1.40018
1.40254
1.40525
1.40835
1.41183
1.41565
1.41983
1.42435
1.4292
1.43437
1.43989
1.44578
1.45211
1.45906
1.46694
1.47668
1.48907
1.50226
1.28021
1.2821
1.28417
1.28655
1.28926
1.2923
1.29565
1.29931
1.30327
1.30752
1.31206
1.3169
1.32207
1.32764
1.33375
1.34066
1.34907
1.35953
1.37036
1.16148
1.16313
1.16495
1.16702
1.16937
1.17201
1.1749
1.17806
1.18147
1.18513
1.18904
1.19321
1.19767
1.20249
1.20777
1.21374
1.22091
1.22957
1.23819
1.04195
1.04338
1.04495
1.04673
1.04875
1.05099
1.05345
1.05612
1.059
1.06209
1.06539
1.06891
1.07268
1.07677
1.08126
1.08635
1.0924
1.09944
1.10611
0.92168
0.922891
0.92423
0.925738
0.92743
0.929294
0.931328
0.93353
0.935902
0.938446
0.941165
0.944072
0.947193
0.950587
0.954345
0.958619
0.963646
0.969282
0.974332
0.800721
0.801722
0.80283
0.804067
0.805438
0.806938
0.808564
0.81032
0.812211
0.814242
0.816419
0.818755
0.821274
0.824029
0.827102
0.830621
0.834732
0.839153
0.842966
0.679112
0.679896
0.680769
0.681731
0.682785
0.683928
0.685163
0.686496
0.687936
0.689493
0.691175
0.692994
0.694969
0.697142
0.699585
0.702398
0.70566
0.709019
0.712033
0.556891
0.557441
0.558063
0.558741
0.559478
0.560272
0.56113
0.562064
0.563086
0.564209
0.565443
0.566799
0.568291
0.569943
0.571808
0.573956
0.576411
0.578819
0.581493
0.434092
0.434378
0.434731
0.435117
0.435535
0.435989
0.436488
0.437046
0.437681
0.438408
0.439239
0.440184
0.441249
0.442443
0.443789
0.44532
0.447008
0.44851
0.451151
0.310711
0.310713
0.31079
0.310886
0.310995
0.311124
0.311284
0.311495
0.311775
0.312143
0.312613
0.313194
0.313887
0.31469
0.315597
0.316569
0.317416
0.317845
0.320567
0.186702
0.186444
0.186259
0.186082
0.185903
0.185729
0.185577
0.185467
0.185421
0.185459
0.185596
0.185842
0.186197
0.186655
0.18719
0.187606
0.187071
0.185306
0.189831
0.0623445
0.0617194
0.0612373
0.0607631
0.060276
0.059785
0.0593082
0.058866
0.0584776
0.0581596
0.0579247
0.0577805
0.057725
0.0577386
0.0577668
0.0575164
0.0552603
0.0482037
0.0637909
)
;

boundaryField
{
    leftWall
    {
        type            calculated;
        value           nonuniform List<scalar> 
50
(
7430.07
6670.38
5914.93
5161.81
4405.84
3644.75
2882.23
2127.59
1303.25
775.654
661.584
543.943
420.028
291.197
157.025
45.19
5.42236
4.43689
4.26468
4.08776
3.91983
3.75542
3.58923
3.42739
3.27167
3.12183
2.97718
2.83687
2.70007
2.56604
2.4342
2.30407
2.17532
2.04766
1.92089
1.79484
1.66936
1.54436
1.41975
1.29544
1.17139
1.04754
0.923851
0.800294
0.676845
0.553486
0.430213
0.307031
0.183964
0.06109
)
;
    }
    rightWall
    {
        type            calculated;
        value           nonuniform List<scalar> 
50
(
5108.94
4216.55
3388.3
2599.82
1822.65
1090.98
651.815
560.987
506.321
404.848
315.738
239.562
163.145
94.3659
45.1563
25.7264
12.8732
6.51637
4.0147
3.96915
3.82236
3.67575
3.52712
3.38132
3.24135
3.10812
2.98091
2.85855
2.7393
2.62156
2.50397
2.38547
2.26533
2.14315
2.01874
1.89215
1.76361
1.6335
1.50226
1.37036
1.23819
1.10611
0.974332
0.842966
0.712033
0.581493
0.451151
0.320567
0.189831
0.0637909
)
;
    }
    lowerWall
    {
        type            calculated;
        value           nonuniform List<scalar> 
62
(
7828.22
7624.78
7396.79
7149.48
6923.04
6730.85
6570.76
6434.82
6315.46
6207.57
6107.92
6014.8
5927.41
5845.2
5767.62
5694.23
5624.49
5557.49
5491.71
5425.47
5357.57
5300.12
5263.74
4865.81
4066.75
3264.29
2457.66
1650
1014.14
731.401
636.688
651.201
613.927
596.329
587.54
1021.38
959.016
897.573
830.867
739.386
666.545
626.655
604.194
1050.29
1083.2
1146.32
1237.2
1392.46
1493.76
1560.39
1634.04
1767.96
1954.82
2421.26
3112.83
3456.01
3702.45
3764.53
3790.41
4060.82
4793.56
5388.12
)
;
    }
    atmosphere
    {
        type            calculated;
        value           nonuniform List<scalar> 
46
(
0
0
0
0
0
0
0
0
0
0
0
0
0
0
0
0
0
0
0
0
0
0
-3.21739e-06
-4.30104e-05
-0.000100926
-0.000187505
-0.000302042
-0.000553003
-0.00100593
-0.00155439
-0.00217047
-0.0028268
-0.00349726
-0.00415808
-0.00478906
-0.00537444
-0.00590294
-0.00636695
-0.00676179
-0.00708583
-0.0073431
-0.00754868
-0.00773627
-0.00796621
-0.00826601
-0.00275438
)
;
    }
    defaultFaces
    {
        type            empty;
    }
}


// ************************************************************************* //
