/*--------------------------------*- C++ -*----------------------------------*\
  =========                 |
  \\      /  F ield         | OpenFOAM: The Open Source CFD Toolbox
   \\    /   O peration     | Website:  https://openfoam.org
    \\  /    A nd           | Version:  13
     \\/     M anipulation  |
\*---------------------------------------------------------------------------*/
FoamFile
{
    format      ascii;
    class       volScalarField;
    location    "0.95";
    object      p_rgh;
}
// * * * * * * * * * * * * * * * * * * * * * * * * * * * * * * * * * * * * * //

dimensions      [1 -1 -2 0 0 0 0];

internalField   nonuniform List<scalar> 
2268
(
7828.22
7624.78
7396.79
7149.48
6923.04
6730.85
6570.76
6434.82
6315.46
6207.57
6107.92
6014.8
5927.41
5845.2
5767.62
5694.23
5624.49
5557.49
5491.71
5425.47
5357.57
5300.12
5263.74
7864.83
7661.25
7428.12
7172.22
6936.37
6734.16
6563.92
6417.88
6289.51
6173.89
6068.03
5970.25
5879.51
5794.9
5715.73
5641.66
5572.42
5507.54
5446.19
5387.55
5330.68
5288.29
5260.58
7905.68
7685.27
7446.09
7184.7
6942.75
6733.24
6554.61
6399.73
6262.79
6139.7
6027.67
5925.04
5830.69
5743.63
5663.19
5589.23
5521.9
5461.33
5407.3
5359.34
5315.27
5286.81
5255
7948.86
7694.39
7446.86
7182.55
6938.99
6726.8
6543.78
6382.65
6238.95
6109.87
5992.69
5885.78
5788.23
5699.23
5618.12
5545.05
5480.63
5425.69
5380.45
5343.69
5310.71
5292.86
5244.71
7989.19
7692.23
7436.26
7170.98
6929.55
6718.32
6533.76
6368.01
6219.25
6086.22
5965.95
5856.55
5757.51
5668.19
5587.74
5516.37
5455.04
5405.21
5367.7
5340.49
5317.48
5311.03
5232.85
8024.4
7684.62
7421.17
7154.87
6916.67
6708.02
6525.27
6359.52
6207.34
6043.58
5861.1
5662.14
5456.98
5254.09
5053.86
4860.14
4680.46
4525.66
4406.98
4321.74
4239.81
4028.42
3717.39
8058.18
7676.18
7396.66
7122.21
6738.12
6185.45
5563.05
4821.7
4080.69
3479.14
2986.59
2583
2264.01
2012
1805.64
1635.88
1499.43
1394.95
1321.16
1270.79
1252.77
1317.87
1263.53
8099.83
7632.15
6207.53
4503.87
3102.99
2220.42
1688.38
1467.88
1434.34
1411.51
1386.31
1358.78
1329.21
1298.2
1266.68
1235.73
1205.88
1177.96
1154.28
1141.31
1152.59
1257.41
1351.89
1050.29
1083.2
1146.32
1237.2
1392.46
1493.76
1560.39
1634.04
1767.96
1954.82
2421.26
3112.83
3456.01
3702.45
3764.53
3790.41
4060.82
4793.56
5388.12
1044.51
1077.62
1167.47
1286.48
1469.8
1633.97
1741.41
1879.04
1999.87
2274.69
2915.86
3467.61
3881.51
3979.69
3819.77
3652.44
3899.13
4534.81
5055.11
1034.68
1211.6
1262.64
1197.69
1089.23
1144.58
1360.17
1750.64
2064.15
2253.72
2572.58
3537.71
4160.26
4502.18
4317.11
3205.36
3301.5
4068.94
4782.17
1058.73
1166.64
1137.47
997.269
988.897
999.985
1022.28
1081.52
1264.96
1352.65
1362.64
2496.31
4200.96
4658.85
4568.74
3102.32
2973.81
3843.73
4551.01
1140.27
1000.67
975.697
980.734
985.16
997.7
1019.16
1045.32
1091.06
1160.89
1213.45
1307.6
2641.36
4222.08
4575.67
3029.79
2879.9
4354.75
4331.03
906.942
889.086
905.931
935.677
960.829
989.868
1017.64
1046.32
1088.66
1150.65
1202.35
1241.14
1387.49
3314.11
4869.83
3968.39
2989.49
4565.55
3717.65
769.468
763.687
761.164
798.264
827.899
883.339
967.574
1042.47
1087.89
1145.59
1198.09
1234.14
1394.87
3838.26
5017.58
5019.66
3851.43
4620.45
1474.55
744.871
762.696
787.784
788.366
785.116
786.462
827.173
946.933
1081.37
1137.06
1187.39
1220.52
1518.38
3165.8
3511.41
3698.9
3682.42
4055.91
781
5582.73
2738.31
1773.53
1511.65
1479.18
1471.34
1464
1454.29
1439.55
1419.74
1395.45
1367.6
1337.17
1305.2
1272.85
1241.31
1211.02
1183.12
1159.21
1142.23
1133.38
1402.25
1346.41
1449.93
1437.97
1457.31
1464.91
1468.03
1468.64
1465.62
1456.98
1442
1421.26
1395.91
1367.22
1336.41
1304.1
1271.8
1241.07
1211.51
1181.88
1134.94
934.846
743.153
725.784
804.586
1445.44
1448.51
1461.43
1468.23
1472.98
1475.72
1474.5
1466.5
1450.88
1428.62
1401.54
1371.01
1338.97
1305.09
1269.65
1234.47
1129.07
868.198
703.018
728.093
836.696
820.447
803.094
1452.99
1458.35
1466.98
1473.85
1480.77
1486.94
1488.67
1481.65
1464.71
1439.68
1409.95
1375.81
1340.66
1302.68
1017.38
751.206
611.114
779.791
832.455
824.718
820.486
809.941
797.316
1454.27
1460.64
1469.12
1478.25
1489.49
1501.28
1507.53
1501.57
1482.46
1452.74
1419.57
1326.89
944.49
788.119
631.877
815.709
824.189
815.047
819.154
813.981
806.523
797.531
787.629
1450.64
1457.91
1467.82
1480.33
1497.4
1517.02
1530.39
1526.23
1505.08
1430.88
1024.74
874.059
656.716
824.469
826.123
824.835
822.148
813.603
806.573
799.399
791.34
783.702
776.219
1441.66
1449.83
1460.65
1473.79
1491.96
1514.94
1534
1531.41
1271.77
968.344
719.037
843.546
841.079
843.878
833.506
821.609
810.385
800.326
791.813
782.779
773.575
767.65
762.61
914.76
1007.17
1051.56
1028.7
957.881
892.468
819.167
648.554
532.049
848.948
869.028
861.314
850.429
836.844
824.337
810.856
795.627
783.251
775.159
762.525
709.069
681.596
702.809
26.8989
46.2572
59.2248
51.4626
31.6574
17.7054
12.4149
20.0834
265.225
837.849
859.618
855.341
844.634
829.881
816.395
780.133
568.188
425.599
393.358
349.743
169.669
119.961
266.768
6.09713
6.07429
6.13563
6.18689
6.19324
6.18708
6.34091
6.575
32.1679
259.014
520.928
584.631
550.831
364.777
192.425
104.975
41.6437
12.2599
6.98884
5.72335
5.375
5.45117
5.49735
6.05012
6.03579
6.01449
5.98699
5.96551
5.9531
5.8844
5.57492
5.45917
6.21845
12.0216
21.5199
18.4531
6.92075
5.15554
5.19408
5.26825
5.3558
5.41676
5.45296
5.48471
5.51316
5.53797
5.99841
5.97794
5.96299
5.95272
5.94882
5.94003
5.86429
5.62274
5.37534
5.41136
5.39163
5.25383
5.13659
5.14702
5.21999
5.28304
5.33017
5.36276
5.38872
5.41623
5.44375
5.46735
5.4955
5.95566
5.9375
5.92705
5.92122
5.91134
5.88529
5.82133
5.67675
5.48942
5.39473
5.2724
5.19059
5.17087
5.19316
5.23458
5.27717
5.3111
5.33987
5.37038
5.401
5.42973
5.44909
5.46511
5.91644
5.90072
5.88959
5.88112
5.86597
5.83293
5.77115
5.67283
5.54976
5.46558
5.36751
5.28226
5.2489
5.24727
5.26317
5.2856
5.31025
5.44999
5.55543
5.52234
5.42374
5.4473
5.46561
5.87544
5.86237
5.85041
5.83915
5.82179
5.79009
5.73853
5.66482
5.57658
5.50245
5.4236
5.35338
5.31357
5.2992
5.30036
5.31173
5.32913
5.36266
5.57703
5.64948
5.63036
5.44271
5.46646
5.83878
5.82913
5.81809
5.80594
5.78866
5.76112
5.71974
5.66167
5.59117
5.52488
5.46079
5.40425
5.36622
5.34603
5.33956
5.34315
5.35297
5.36483
5.38869
5.60396
5.68033
5.58939
5.46079
5.80826
5.80189
5.79269
5.78096
5.76502
5.74173
5.70831
5.66237
5.60639
5.54978
5.49572
5.44838
5.41352
5.39162
5.38056
5.3779
5.381
5.38807
5.39719
5.41226
5.52258
5.52004
5.46932
5.7836
5.78
5.77294
5.76256
5.74838
5.72865
5.70138
5.66512
5.62124
5.57497
5.53002
5.48981
5.45803
5.4357
5.42187
5.41503
5.41358
5.41609
5.42146
5.42879
5.43792
5.45061
5.46588
5.76415
5.76264
5.75772
5.74909
5.73674
5.71994
5.69757
5.66883
5.63444
5.59736
5.56056
5.5267
5.49841
5.4768
5.46174
5.45243
5.44789
5.44711
5.44931
5.45395
5.46084
5.47037
5.48182
5.74904
5.74904
5.74601
5.73923
5.72872
5.71443
5.69593
5.6729
5.64576
5.61622
5.58638
5.55825
5.53369
5.51376
5.49872
5.48827
5.48187
5.47889
5.47879
5.48116
5.48576
5.49255
5.50104
5.73743
5.73848
5.73698
5.73194
5.72328
5.71123
5.69584
5.67713
5.65547
5.63189
5.6078
5.58466
5.56378
5.54608
5.53195
5.52138
5.51413
5.50986
5.5082
5.50883
5.51154
5.51613
5.52228
5.7286
5.73031
5.73
5.7265
5.7196
5.70961
5.69681
5.68146
5.66395
5.64499
5.62553
5.60659
5.58912
5.57383
5.56113
5.55115
5.54383
5.53898
5.53641
5.53588
5.5372
5.54018
5.54461
5.72194
5.72407
5.72463
5.7224
5.7171
5.709
5.69845
5.68582
5.67153
5.65614
5.64035
5.62487
5.61038
5.59743
5.58638
5.57739
5.5705
5.56564
5.56268
5.56147
5.56188
5.56377
5.56696
5.71701
5.71936
5.72053
5.71932
5.71539
5.70899
5.70043
5.69008
5.67838
5.66581
5.65292
5.64024
5.62828
5.61744
5.60803
5.60021
5.59403
5.58949
5.58653
5.58504
5.58492
5.58609
5.58843
5.71345
5.71589
5.71746
5.71702
5.71424
5.70931
5.70248
5.69409
5.68455
5.67427
5.66371
5.6533
5.64343
5.63442
5.62651
5.61985
5.6145
5.61047
5.60772
5.6062
5.60584
5.60657
5.60835
5.71099
5.71342
5.71523
5.71536
5.7135
5.7098
5.70446
5.69777
5.69004
5.68167
5.67302
5.66447
5.65633
5.64886
5.64227
5.63667
5.63213
5.62866
5.62625
5.62485
5.62441
5.62491
5.6263
5.70942
5.71176
5.7137
5.71423
5.71309
5.71039
5.7063
5.70104
5.69487
5.6881
5.68106
5.67405
5.66734
5.66117
5.65569
5.65102
5.64722
5.6443
5.64225
5.64103
5.64062
5.641
5.64213
5.70855
5.71078
5.71274
5.71354
5.71294
5.71104
5.70797
5.70391
5.69906
5.69366
5.68798
5.68227
5.67677
5.67168
5.66714
5.66326
5.6601
5.65767
5.65596
5.65494
5.65459
5.65491
5.65588
5.70828
5.71035
5.71227
5.71323
5.71302
5.71174
5.7095
5.70642
5.70266
5.69842
5.69389
5.68929
5.68483
5.68066
5.67692
5.67372
5.6711
5.66908
5.66767
5.66685
5.66657
5.66687
5.66771
5.70847
5.71037
5.7122
5.71324
5.7133
5.71249
5.7109
5.70861
5.70575
5.70247
5.69892
5.69528
5.6917
5.68833
5.68528
5.68266
5.68051
5.67885
5.6777
5.67704
5.67684
5.67713
5.67787
5.70905
5.71077
5.71248
5.71352
5.71377
5.71331
5.71221
5.71055
5.70842
5.70593
5.7032
5.70036
5.69754
5.69486
5.69243
5.69031
5.68857
5.68724
5.68632
5.6858
5.68567
5.68595
5.68661
5.70994
5.71148
5.71304
5.71405
5.71441
5.71419
5.71346
5.71228
5.71073
5.70888
5.70682
5.70466
5.70249
5.70042
5.69852
5.69686
5.69549
5.69445
5.69374
5.69336
5.6933
5.69358
5.69418
5.71108
5.71245
5.71384
5.71479
5.7152
5.71515
5.71469
5.71387
5.71276
5.71142
5.70991
5.70831
5.70669
5.70513
5.7037
5.70245
5.70142
5.70065
5.70014
5.69989
5.6999
5.70019
5.70074
5.71242
5.71362
5.71485
5.7157
5.71613
5.71618
5.71591
5.71536
5.71459
5.71363
5.71255
5.7114
5.71024
5.70912
5.70809
5.7072
5.70649
5.70596
5.70565
5.70554
5.70563
5.70594
5.70645
5.71393
5.71497
5.71602
5.71677
5.71717
5.71728
5.71714
5.71679
5.71626
5.7156
5.71485
5.71406
5.71326
5.7125
5.71182
5.71124
5.7108
5.71051
5.71038
5.71041
5.71059
5.71093
5.7114
5.71557
5.71645
5.71732
5.71796
5.71832
5.71845
5.71839
5.71817
5.71782
5.71737
5.71688
5.71635
5.71584
5.71537
5.71497
5.71466
5.71446
5.71439
5.71444
5.7146
5.71487
5.71525
5.71568
5.71731
5.71804
5.71874
5.71925
5.71955
5.71968
5.71966
5.71952
5.71929
5.71901
5.71869
5.71837
5.71807
5.71782
5.71765
5.71755
5.71756
5.71768
5.71789
5.7182
5.71858
5.719
5.71939
5.71915
5.71972
5.72026
5.72064
5.72087
5.72097
5.72096
5.72087
5.72072
5.72054
5.72035
5.72017
5.72003
5.71995
5.71994
5.72002
5.72019
5.72047
5.72084
5.72129
5.72179
5.72229
5.72264
5.72107
5.72149
5.72186
5.72212
5.72227
5.72232
5.7223
5.72223
5.72213
5.72201
5.72191
5.72183
5.7218
5.72183
5.72194
5.72214
5.72245
5.72286
5.72338
5.72397
5.72463
5.72528
5.72556
5.72308
5.72334
5.72355
5.72368
5.72373
5.72372
5.72366
5.72358
5.72349
5.72341
5.72335
5.72332
5.72336
5.72346
5.72365
5.72394
5.72435
5.7249
5.72558
5.7264
5.7274
5.7285
5.72856
5.72521
5.72527
5.72528
5.72524
5.72515
5.72503
5.72489
5.72476
5.72464
5.72455
5.72449
5.72449
5.72455
5.7247
5.72495
5.72533
5.72587
5.7266
5.72757
5.72886
5.7308
5.7334
5.73288
5.72753
5.72743
5.72728
5.7271
5.72691
5.72673
5.72655
5.7264
5.72627
5.72617
5.72612
5.72612
5.72618
5.72631
5.72654
5.72689
5.72739
5.7281
5.72909
5.73054
5.73312
5.7377
5.73842
1211.24
922.806
809.292
773.075
809.379
813.161
811.047
803.727
799.384
796.993
793.163
788.474
791.14
787.297
783.343
779.882
781.425
777.829
774.629
772.157
770.952
768.138
765.902
764.278
758.097
756.088
755.652
755.136
700.408
621.131
613.333
631.391
152.25
5.81583
29.1464
84.3613
5.45383
5.50428
5.54494
5.60142
5.56146
5.57521
5.5875
5.598
5.50167
5.51427
5.5251
5.54486
5.48094
5.4904
5.50276
5.51887
5.47763
5.4888
5.49846
5.50665
5.48188
5.49073
5.49893
5.50616
5.47818
5.48698
5.49438
5.50145
5.46858
5.47798
5.49018
5.49825
5.47678
5.48329
5.48911
5.49512
5.49061
5.49617
5.50116
5.50631
5.50825
5.51296
5.517
5.5212
5.52807
5.53199
5.53528
5.53867
5.54909
5.55217
5.5548
5.5575
5.57032
5.57258
5.57459
5.57673
5.59088
5.59244
5.59388
5.5955
5.61007
5.61106
5.61205
5.61324
5.62747
5.62803
5.62867
5.62952
5.64289
5.64314
5.64352
5.64411
5.65635
5.65638
5.65658
5.65699
5.66799
5.6679
5.66798
5.66825
5.67804
5.67788
5.67789
5.67806
5.68673
5.68656
5.68651
5.68661
5.69427
5.69411
5.69402
5.69409
5.70084
5.70069
5.70058
5.70063
5.70655
5.70641
5.70633
5.70637
5.7115
5.71139
5.71133
5.71137
5.71577
5.7157
5.71565
5.71568
5.71945
5.71939
5.71934
5.71936
5.72263
5.72255
5.72247
5.72245
5.72541
5.72524
5.72509
5.725
5.72788
5.72749
5.72722
5.72701
5.73023
5.72909
5.72856
5.72826
5.73368
5.7316
5.73042
5.72964
806.292
796.215
787.075
784.033
783.809
785.752
791.15
804.864
906.176
1100.54
1165.16
1187.71
1620.17
1909.22
1974.5
2348.81
3065.57
1481.17
770.753
792.702
782.374
777.782
776.294
776.634
778.877
783.407
789.972
796.586
877.677
1123.43
1165.49
1268.33
1544.3
2692.68
3105.15
2784.94
1211.28
730.132
781.267
774.533
771.298
770.17
770.513
772.251
775.511
779.684
782.68
780.76
864.354
1110.36
1191.25
1384.34
2244.25
2605.26
1572.23
766.211
612.717
774.614
769.142
766.306
765.263
765.514
766.842
769.057
771.503
772.503
769.024
756.585
790.918
962.027
1107.25
1162.49
1158.13
883.068
724.64
601.919
768.4
764.117
761.803
760.974
761.245
762.371
764.035
765.622
765.704
762.44
752.966
734.748
713.387
722.364
722.085
693.045
654.257
694.22
557.996
761.613
758.502
756.851
756.349
756.738
757.826
759.315
760.676
760.955
758.245
751.499
739.709
722.634
697.578
675.118
664.73
658.037
650.966
397.761
753.616
751.635
750.5
750.166
750.506
751.435
752.709
753.83
754.061
752.404
747.77
739.705
729.917
719.169
697.441
661.965
622.389
446.284
232.276
668.791
697.403
712.776
725.987
736.498
744.041
748.641
750.577
750.65
749.631
747.01
742.433
735.112
718.924
678.684
574.382
345.75
224.117
166.39
133.458
174.321
206.441
245.836
292.109
344.175
398.394
444.715
472.978
482.21
473.287
418.884
350.816
254.583
147.647
70.7262
72.5557
141.367
156.259
5.70727
5.64959
5.59687
5.55609
5.51309
5.46779
5.41852
5.3634
5.31688
5.28947
5.2798
5.32423
5.42559
5.62329
5.96022
6.24783
6.36732
35.6097
79.5628
5.63124
5.65537
5.67871
5.70462
5.731
5.75703
5.7812
5.80281
5.82527
5.8505
5.87852
5.91987
6.16336
6.9589
7.14725
6.52249
6.05313
5.97616
5.80011
5.57817
5.6069
5.62843
5.64774
5.66633
5.6847
5.70232
5.71917
5.7368
5.75598
5.77668
5.80267
6.67995
8.27394
8.38752
7.53425
5.97615
5.95725
5.93513
5.54497
5.57105
5.59124
5.60946
5.62714
5.64429
5.66068
5.67633
5.69374
5.71588
5.73772
5.75102
6.02921
6.81623
6.80909
5.87701
5.91209
5.89459
5.87967
5.52442
5.5473
5.56845
5.58844
5.60755
5.62618
5.64379
5.66112
5.67906
5.70279
5.72912
5.74536
5.75013
5.7672
5.79982
5.84379
5.86785
5.8599
5.83684
5.51457
5.53307
5.55339
5.57311
5.59262
5.61207
5.63099
5.64933
5.66762
5.68572
5.70391
5.72255
5.74043
5.75972
5.78529
5.81299
5.82951
5.82645
5.81382
5.51484
5.52815
5.54349
5.56275
5.58181
5.60062
5.61922
5.63767
5.6555
5.67348
5.69137
5.70903
5.72631
5.74433
5.76416
5.78316
5.79563
5.79612
5.79461
5.51039
5.52608
5.53864
5.55685
5.57505
5.59318
5.61109
5.62878
5.64625
5.66346
5.68039
5.69696
5.71311
5.7293
5.74576
5.76055
5.77069
5.77453
5.78017
5.50613
5.52215
5.53942
5.55597
5.57281
5.5898
5.60673
5.62352
5.64009
5.65636
5.67229
5.68779
5.70283
5.71752
5.7318
5.7447
5.75501
5.76124
5.77223
5.5156
5.52938
5.54431
5.55952
5.57499
5.59061
5.60632
5.62198
5.63746
5.65269
5.66756
5.68201
5.69599
5.70953
5.72253
5.73459
5.74544
5.75516
5.77029
5.52885
5.54055
5.55356
5.56713
5.58106
5.59524
5.60959
5.62397
5.63825
5.65235
5.66615
5.67958
5.69263
5.70529
5.71757
5.72947
5.74145
5.75434
5.77279
5.54478
5.55462
5.56596
5.57787
5.59021
5.6029
5.61584
5.6289
5.64195
5.6549
5.66765
5.68015
5.69239
5.7044
5.7163
5.72837
5.7416
5.75726
5.77911
5.56235
5.57061
5.58037
5.59072
5.60154
5.61277
5.62432
5.63607
5.64791
5.65974
5.6715
5.68314
5.69466
5.70616
5.71785
5.73019
5.7445
5.76289
5.78669
5.58057
5.58752
5.59583
5.60474
5.61415
5.62401
5.63424
5.64474
5.65543
5.66621
5.67703
5.68787
5.69877
5.70983
5.72133
5.73386
5.74898
5.76963
5.79446
5.59855
5.60443
5.61147
5.61909
5.62722
5.63584
5.64486
5.65422
5.66383
5.67364
5.6836
5.69371
5.70401
5.71465
5.72593
5.73849
5.75403
5.77579
5.80113
5.61564
5.62065
5.62659
5.63308
5.6401
5.64761
5.65556
5.66389
5.67254
5.68147
5.69063
5.70005
5.70977
5.71996
5.73093
5.74332
5.7589
5.77951
5.80471
5.63141
5.6357
5.64071
5.64624
5.6523
5.65886
5.66588
5.6733
5.68109
5.68921
5.69764
5.7064
5.71555
5.72524
5.73578
5.7478
5.76302
5.78328
5.8065
5.64563
5.64931
5.65355
5.65829
5.66354
5.66929
5.67549
5.68212
5.68914
5.69653
5.70428
5.7124
5.72096
5.73009
5.74007
5.75152
5.76606
5.78537
5.80729
5.65822
5.66141
5.66503
5.6691
5.67368
5.67874
5.68424
5.69017
5.6965
5.70321
5.7103
5.71779
5.72572
5.73423
5.74356
5.75426
5.76783
5.78578
5.80588
5.66925
5.67205
5.67516
5.6787
5.68271
5.68717
5.69206
5.69735
5.70305
5.70912
5.71557
5.72241
5.72969
5.73752
5.74611
5.75594
5.76839
5.78461
5.80254
5.6789
5.68135
5.68405
5.68715
5.69067
5.69461
5.69895
5.70367
5.70876
5.71422
5.72003
5.72622
5.73281
5.73991
5.74769
5.75659
5.76775
5.78212
5.79763
5.68733
5.68948
5.69185
5.69456
5.69766
5.70113
5.70496
5.70913
5.71365
5.7185
5.72368
5.7292
5.73509
5.74143
5.74838
5.75635
5.76625
5.77851
5.7916
5.6947
5.6966
5.69867
5.70105
5.70376
5.7068
5.71015
5.71381
5.71777
5.72202
5.72656
5.73141
5.73658
5.74216
5.74831
5.7554
5.76385
5.77423
5.78488
5.70117
5.70283
5.70464
5.70671
5.70907
5.7117
5.71459
5.71775
5.72116
5.72482
5.72874
5.73292
5.73738
5.74221
5.7476
5.75374
5.76091
5.76944
5.77791
5.70684
5.70826
5.70983
5.71162
5.71364
5.71588
5.71833
5.721
5.72389
5.72698
5.73028
5.73381
5.73759
5.7417
5.74631
5.75152
5.75757
5.76448
5.77101
5.71176
5.71297
5.71431
5.71582
5.71751
5.71938
5.72141
5.72361
5.72599
5.72853
5.73126
5.73417
5.73729
5.74072
5.74455
5.7489
5.75393
5.7594
5.76442
5.716
5.717
5.71811
5.71934
5.72071
5.72221
5.72384
5.7256
5.72749
5.72952
5.7317
5.73404
5.73657
5.73934
5.74243
5.746
5.75003
5.75445
5.75824
5.71958
5.72037
5.72124
5.7222
5.72325
5.7244
5.72563
5.72697
5.72841
5.72997
5.73165
5.73348
5.73546
5.73763
5.74007
5.74288
5.74613
5.74949
5.7525
5.72256
5.72311
5.72373
5.72441
5.72514
5.72594
5.7268
5.72773
5.72875
5.72988
5.73111
5.73247
5.73397
5.73562
5.73748
5.73962
5.74208
5.74448
5.74716
5.72495
5.72524
5.72559
5.72598
5.72639
5.72685
5.72735
5.72791
5.72854
5.72927
5.7301
5.73105
5.73211
5.73331
5.73465
5.73618
5.73787
5.73937
5.74201
5.72676
5.72677
5.72684
5.72694
5.72705
5.72718
5.72734
5.72755
5.72783
5.7282
5.72867
5.72925
5.72994
5.73075
5.73165
5.73262
5.73347
5.7339
5.73662
5.72795
5.72769
5.72751
5.72733
5.72715
5.72698
5.72682
5.72672
5.72667
5.72671
5.72684
5.72709
5.72745
5.7279
5.72844
5.72885
5.72832
5.72655
5.73108
5.72879
5.72816
5.72768
5.72721
5.72672
5.72623
5.72575
5.72531
5.72492
5.7246
5.72437
5.72422
5.72417
5.72418
5.72421
5.72396
5.7217
5.71465
5.73023
)
;

boundaryField
{
    leftWall
    {
        type            fixedFluxPressure;
        gradient        uniform 0;
        value           nonuniform List<scalar> 
50
(
7828.22
7864.83
7905.68
7948.86
7989.19
8024.4
8058.18
8099.83
5582.73
1449.93
1445.44
1452.99
1454.27
1450.64
1441.66
914.76
26.8989
6.09713
6.05012
5.99841
5.95566
5.91644
5.87544
5.83878
5.80826
5.7836
5.76415
5.74904
5.73743
5.7286
5.72194
5.71701
5.71345
5.71099
5.70942
5.70855
5.70828
5.70847
5.70905
5.70994
5.71108
5.71242
5.71393
5.71557
5.71731
5.71915
5.72107
5.72308
5.72521
5.72753
)
;
    }
    rightWall
    {
        type            fixedFluxPressure;
        gradient        uniform 0;
        value           nonuniform List<scalar> 
50
(
5388.12
5055.11
4782.17
4551.01
4331.03
3717.65
1474.55
781
770.753
730.132
612.717
601.919
557.996
397.761
232.276
166.39
156.259
79.5628
5.80011
5.93513
5.87967
5.83684
5.81382
5.79461
5.78017
5.77223
5.77029
5.77279
5.77911
5.78669
5.79446
5.80113
5.80471
5.8065
5.80729
5.80588
5.80254
5.79763
5.7916
5.78488
5.77791
5.77101
5.76442
5.75824
5.7525
5.74716
5.74201
5.73662
5.73108
5.73023
)
;
    }
    lowerWall
    {
        type            fixedFluxPressure;
        gradient        uniform 0;
        value           nonuniform List<scalar> 
62
(
7828.22
7624.78
7396.79
7149.48
6923.04
6730.85
6570.76
6434.82
6315.46
6207.57
6107.92
6014.8
5927.41
5845.2
5767.62
5694.23
5624.49
5557.49
5491.71
5425.47
5357.57
5300.12
5263.74
5263.74
5260.58
5255
5244.71
5232.85
3717.39
1263.53
1351.89
1211.24
922.806
809.292
773.075
1050.29
1044.51
1034.68
1058.73
1140.27
906.942
769.468
744.871
1050.29
1083.2
1146.32
1237.2
1392.46
1493.76
1560.39
1634.04
1767.96
1954.82
2421.26
3112.83
3456.01
3702.45
3764.53
3790.41
4060.82
4793.56
5388.12
)
;
    }
    atmosphere
    {
        type            prghTotalPressure;
        rho             rho;
        psi             none;
        gamma           1;
        p0              uniform 0;
        value           nonuniform List<scalar> 
46
(
5.72904
5.72904
5.72904
5.72904
5.72904
5.72904
5.72904
5.72904
5.72904
5.72904
5.72904
5.72904
5.72904
5.72904
5.72904
5.72904
5.72904
5.72904
5.72904
5.72904
5.72904
5.72904
5.72904
5.729
5.72894
5.72885
5.72874
5.72849
5.72803
5.72749
5.72687
5.72621
5.72554
5.72488
5.72425
5.72367
5.72314
5.72267
5.72228
5.72195
5.7217
5.72149
5.7213
5.72107
5.72077
5.72629
)
;
        rho             rho;
    }
    defaultFaces
    {
        type            empty;
    }
}


// ************************************************************************* //
