/*--------------------------------*- C++ -*----------------------------------*\
  =========                 |
  \\      /  F ield         | OpenFOAM: The Open Source CFD Toolbox
   \\    /   O peration     | Website:  https://openfoam.org
    \\  /    A nd           | Version:  13
     \\/     M anipulation  |
\*---------------------------------------------------------------------------*/
FoamFile
{
    format      ascii;
    class       surfaceScalarField;
    location    "0.95";
    object      phi;
}
// * * * * * * * * * * * * * * * * * * * * * * * * * * * * * * * * * * * * * //

dimensions      [0 3 -1 0 0 0 0];

internalField   nonuniform List<scalar> 
4432
(
-2.886e-06
2.88596e-06
-8.2601e-06
5.37407e-06
-1.31901e-05
4.92998e-06
-1.67892e-05
3.59903e-06
-1.90281e-05
2.23896e-06
-2.00672e-05
1.03904e-06
-2.01592e-05
9.19941e-08
-1.95654e-05
-5.93797e-07
-1.8503e-05
-1.06239e-06
-1.7129e-05
-1.37406e-06
-1.55671e-05
-1.5619e-06
-1.39133e-05
-1.65375e-06
-1.2225e-05
-1.6883e-06
-1.05255e-05
-1.69956e-06
-8.82341e-06
-1.70206e-06
-7.12228e-06
-1.70114e-06
-5.42317e-06
-1.69912e-06
-3.73011e-06
-1.69306e-06
-2.06003e-06
-1.67009e-06
-4.77335e-07
-1.5827e-06
8.86977e-07
-1.36432e-06
1.62191e-06
-7.34944e-07
1.62191e-06
-4.4069e-06
7.29281e-06
-9.76766e-06
1.07348e-05
-1.41962e-05
9.35844e-06
-1.72509e-05
6.65377e-06
-1.89883e-05
3.97636e-06
-1.9648e-05
1.69871e-06
-1.9512e-05
-4.40551e-08
-1.88381e-05
-1.26772e-06
-1.77995e-05
-2.10096e-06
-1.65145e-05
-2.65906e-06
-1.50768e-05
-2.9996e-06
-1.35612e-05
-3.16933e-06
-1.20174e-05
-3.23215e-06
-1.04743e-05
-3.24268e-06
-8.95074e-06
-3.22563e-06
-7.45895e-06
-3.19295e-06
-6.00623e-06
-3.15185e-06
-4.59777e-06
-3.10154e-06
-3.24219e-06
-3.02568e-06
-1.96086e-06
-2.86404e-06
-8.11067e-07
-2.51413e-06
8.26906e-08
-1.62872e-06
1.70458e-06
-5.59425e-06
1.2887e-05
-1.06952e-05
1.58358e-05
-1.45866e-05
1.32498e-05
-1.71628e-05
9.22994e-06
-1.85492e-05
5.36277e-06
-1.90052e-05
2.15473e-06
-1.8799e-05
-2.50256e-07
-1.81463e-05
-1.92045e-06
-1.71837e-05
-3.06351e-06
-1.60009e-05
-3.84191e-06
-1.46756e-05
-4.32494e-06
-1.32752e-05
-4.56966e-06
-1.18489e-05
-4.65847e-06
-1.043e-05
-4.66159e-06
-9.04376e-06
-4.61189e-06
-7.70844e-06
-4.52827e-06
-6.43613e-06
-4.42417e-06
-5.23393e-06
-4.30375e-06
-4.10477e-06
-4.15485e-06
-3.0486e-06
-3.92021e-06
-2.05179e-06
-3.51095e-06
-9.92696e-07
-2.68782e-06
7.11876e-07
-6.34852e-06
1.92355e-05
-1.11868e-05
2.0674e-05
-1.46238e-05
1.66868e-05
-1.68253e-05
1.14314e-05
-1.79771e-05
6.51456e-06
-1.83326e-05
2.51022e-06
-1.81263e-05
-4.56574e-07
-1.75358e-05
-2.51097e-06
-1.66662e-05
-3.93315e-06
-1.55857e-05
-4.92241e-06
-1.43637e-05
-5.547e-06
-1.30657e-05
-5.86765e-06
-1.1742e-05
-5.98222e-06
-1.04294e-05
-5.97421e-06
-9.15824e-06
-5.88302e-06
-7.95204e-06
-5.73448e-06
-6.82793e-06
-5.5483e-06
-5.79707e-06
-5.33463e-06
-4.86001e-06
-5.09192e-06
-3.99732e-06
-4.78292e-06
-3.13169e-06
-4.37659e-06
-1.93297e-06
-3.88655e-06
-1.22111e-06
-6.6927e-06
2.59282e-05
-1.1257e-05
2.52382e-05
-1.43254e-05
1.97552e-05
-1.62564e-05
1.33623e-05
-1.72796e-05
7.53782e-06
-1.76233e-05
2.85393e-06
-1.74769e-05
-6.03004e-07
-1.6983e-05
-3.00487e-06
-1.62195e-05
-4.69669e-06
-1.52419e-05
-5.89999e-06
-1.41176e-05
-6.67132e-06
-1.29135e-05
-7.07169e-06
-1.16816e-05
-7.21418e-06
-1.04614e-05
-7.19439e-06
-9.28752e-06
-7.0569e-06
-8.18754e-06
-6.83446e-06
-7.18408e-06
-6.55176e-06
-6.29591e-06
-6.22281e-06
-5.52792e-06
-5.85991e-06
-4.84822e-06
-5.46262e-06
-4.11624e-06
-5.10857e-06
-2.86675e-06
-5.13603e-06
-4.08786e-06
-6.60084e-06
3.2529e-05
-1.08408e-05
2.94782e-05
-1.36352e-05
2.25496e-05
-1.54146e-05
1.51418e-05
-1.64248e-05
8.54794e-06
-1.68537e-05
3.28284e-06
-1.68338e-05
-6.22898e-07
-1.64723e-05
-3.36638e-06
-1.58296e-05
-5.33944e-06
-1.49563e-05
-6.77323e-06
-1.39245e-05
-7.70318e-06
-1.28056e-05
-8.19063e-06
-1.16539e-05
-8.36589e-06
-1.05136e-05
-8.33467e-06
-9.42346e-06
-8.14706e-06
-8.41375e-06
-7.84418e-06
-7.51258e-06
-7.45294e-06
-6.7515e-06
-6.9839e-06
-6.15253e-06
-6.45888e-06
-5.69552e-06
-5.91965e-06
-5.18491e-06
-5.61919e-06
-4.08638e-06
-6.23456e-06
-8.17425e-06
-6.02783e-06
3.85568e-05
-9.84306e-06
3.32934e-05
-1.24562e-05
2.51627e-05
-1.42251e-05
1.69107e-05
-1.53576e-05
9.68043e-06
-1.59832e-05
3.90839e-06
-1.61717e-05
-4.34473e-07
-1.59683e-05
-3.56979e-06
-1.54217e-05
-5.88607e-06
-1.46189e-05
-7.57609e-06
-1.3657e-05
-8.66507e-06
-1.26137e-05
-9.23402e-06
-1.15486e-05
-9.43105e-06
-1.05112e-05
-9.37214e-06
-9.54226e-06
-9.11601e-06
-8.67029e-06
-8.71618e-06
-7.92782e-06
-8.19545e-06
-7.3677e-06
-7.54406e-06
-7.0563e-06
-6.77031e-06
-7.06834e-06
-5.90763e-06
-7.18961e-06
-5.49795e-06
-5.96114e-06
-7.46303e-06
-1.41354e-05
-4.90925e-06
4.3466e-05
-8.27255e-06
3.66567e-05
-1.07681e-05
2.76582e-05
-1.25917e-05
1.87343e-05
-1.39008e-05
1.09895e-05
-1.47817e-05
4.78923e-06
-1.52412e-05
2.49681e-08
-1.52279e-05
-3.58316e-06
-1.47783e-05
-6.3357e-06
-1.40722e-05
-8.28219e-06
-1.32467e-05
-9.49061e-06
-1.24002e-05
-1.00806e-05
-1.16108e-05
-1.02204e-05
-1.09418e-05
-1.00412e-05
-1.04354e-05
-9.62244e-06
-1.01061e-05
-9.04553e-06
-9.98066e-06
-8.32087e-06
-1.0131e-05
-7.39374e-06
-1.06891e-05
-6.21224e-06
-1.1871e-05
-4.72572e-06
-1.34826e-05
-3.88637e-06
-1.18958e-05
-9.04988e-06
-2.60312e-05
-1.34237e-05
1.34237e-05
-7.3836e-06
-6.04014e-06
9.93253e-07
-8.37688e-06
6.87673e-06
-5.88349e-06
1.14672e-05
-4.59046e-06
1.2976e-05
-1.50887e-06
1.15246e-05
1.45138e-06
8.13522e-06
3.38943e-06
2.13505e-06
6.00018e-06
-4.2727e-06
6.40777e-06
-5.36826e-06
1.09557e-06
-9.24271e-06
3.87444e-06
-1.45997e-05
5.35698e-06
-1.90325e-05
4.43284e-06
-2.80502e-05
9.01773e-06
-4.16387e-05
1.35885e-05
-4.26075e-05
9.68788e-07
-3.06009e-05
-1.20065e-05
-3.06009e-05
-3.7166e-06
1.71403e-05
4.36767e-06
-1.41244e-05
9.27469e-06
-1.32839e-05
1.16464e-05
-8.2552e-06
1.26606e-05
-5.60468e-06
1.29962e-05
-1.84451e-06
1.22909e-05
2.15666e-06
1.09813e-05
4.69902e-06
8.35516e-06
8.62636e-06
4.46889e-06
1.02941e-05
-8.21894e-07
6.38637e-06
-6.6266e-06
9.67916e-06
-1.06218e-05
9.35216e-06
-1.31602e-05
6.97127e-06
-1.72668e-05
1.31243e-05
-2.9815e-05
2.61367e-05
-3.40413e-05
5.19517e-06
-2.26541e-05
-2.33938e-05
-5.32549e-05
5.3603e-06
1.178e-05
8.85007e-06
-1.76142e-05
1.08513e-05
-1.52852e-05
1.17169e-05
-9.12084e-06
1.16009e-05
-5.48867e-06
1.13614e-05
-1.60498e-06
1.09942e-05
2.52379e-06
1.01127e-05
5.58054e-06
8.26925e-06
1.04698e-05
4.31067e-06
1.42527e-05
-2.66093e-06
1.3358e-05
-8.48365e-06
1.55019e-05
-1.17669e-05
1.26354e-05
-1.31353e-05
8.33975e-06
-1.33069e-05
1.32958e-05
-2.1153e-05
3.39829e-05
-2.72915e-05
1.13337e-05
-1.60834e-05
-3.4602e-05
-6.93383e-05
1.18888e-05
-1.08795e-07
1.0366e-05
-1.60914e-05
9.95245e-06
-1.48716e-05
9.68939e-06
-8.8578e-06
9.24001e-06
-5.03931e-06
8.81186e-06
-1.17685e-06
8.40907e-06
2.92656e-06
7.22999e-06
6.75959e-06
5.22318e-06
1.24766e-05
8.34305e-07
1.86415e-05
-6.85954e-06
2.10518e-05
-1.20207e-05
2.06631e-05
-1.46365e-05
1.52512e-05
-1.5704e-05
9.40723e-06
-1.5326e-05
1.29179e-05
-1.60474e-05
3.47044e-05
-1.89785e-05
1.42648e-05
-9.40738e-06
-4.41731e-05
-7.87457e-05
1.10848e-05
-1.11937e-05
9.13501e-06
-1.41416e-05
7.51294e-06
-1.32496e-05
6.89687e-06
-8.24175e-06
6.17954e-06
-4.32199e-06
5.32978e-06
-3.27088e-07
4.29247e-06
3.96387e-06
2.52396e-06
8.5281e-06
-2.84818e-07
1.52854e-05
-4.67532e-06
2.3032e-05
-1.06278e-05
2.70044e-05
-1.60777e-05
2.6113e-05
-1.86831e-05
1.78566e-05
-1.91815e-05
9.90571e-06
-1.84909e-05
1.22272e-05
-1.37496e-05
2.99631e-05
-1.15412e-05
1.20564e-05
-4.69735e-06
-5.1017e-05
-8.3443e-05
6.7998e-06
-1.79935e-05
5.74143e-06
-1.30832e-05
4.34933e-06
-1.18575e-05
3.74346e-06
-7.63589e-06
3.01208e-06
-3.59062e-06
1.92866e-06
7.5632e-07
3.87366e-07
5.50515e-06
-1.98685e-06
1.09023e-05
-5.26561e-06
1.85641e-05
-9.35475e-06
2.71211e-05
-1.45221e-05
3.21717e-05
-1.96199e-05
3.12108e-05
-2.29167e-05
2.11533e-05
-2.18548e-05
8.8439e-06
-2.01634e-05
1.05358e-05
-1.37995e-05
2.35992e-05
-6.59236e-06
4.84931e-06
-1.03604e-06
-5.65733e-05
-8.44791e-05
6.71779e-07
-1.86653e-05
4.69071e-07
-1.28806e-05
-1.3952e-07
-1.12489e-05
-2.52403e-07
-7.52302e-06
-6.20318e-07
-3.22273e-06
-1.5874e-06
1.72339e-06
-3.28482e-06
7.20255e-06
-5.88209e-06
1.34995e-05
-9.15325e-06
2.18352e-05
-1.28298e-05
3.07977e-05
-1.71455e-05
3.64874e-05
-2.18385e-05
3.59038e-05
-2.38595e-05
2.31743e-05
-2.2615e-05
7.59948e-06
-2.03781e-05
8.29884e-06
-1.34549e-05
1.6676e-05
-3.38445e-06
-5.2211e-06
1.83969e-06
-6.17974e-05
-8.26393e-05
-7.00921e-06
-1.16561e-05
-6.34266e-06
-1.35472e-05
-5.89316e-06
-1.16985e-05
-5.33633e-06
-8.07987e-06
-5.09032e-06
-3.46874e-06
-5.53137e-06
2.16443e-06
-6.92393e-06
8.5951e-06
-9.31974e-06
1.58954e-05
-1.22578e-05
2.47733e-05
-1.52465e-05
3.37864e-05
-1.84466e-05
3.96875e-05
-2.1683e-05
3.91402e-05
-2.25388e-05
2.40301e-05
-2.23863e-05
7.44701e-06
-1.96441e-05
5.55665e-06
-1.11606e-05
8.19245e-06
-5.2096e-09
-1.63765e-05
4.83702e-06
-6.66396e-05
-7.78023e-05
-5.04795e-06
4.85139e-05
-1.10899e-05
4.26986e-05
-1.6709e-05
3.32773e-05
-2.15621e-05
2.35874e-05
-2.53828e-05
1.48101e-05
-2.80622e-05
7.46853e-06
-2.94862e-05
1.44893e-06
-2.97792e-05
-3.29019e-06
-2.9433e-05
-6.68195e-06
-2.88766e-05
-8.8387e-06
-2.83711e-05
-9.99614e-06
-2.80541e-05
-1.03976e-05
-2.80077e-05
-1.02669e-05
-2.83062e-05
-9.74276e-06
-2.90188e-05
-8.90986e-06
-3.01071e-05
-7.95729e-06
-3.16062e-05
-6.82178e-06
-3.35857e-05
-5.41428e-06
-3.60043e-05
-3.79369e-06
-3.91763e-05
-1.55368e-06
-4.24031e-05
-6.59548e-07
-4.21115e-05
-9.34151e-06
-1.87952e-05
-4.93475e-05
-5.66759e-06
5.41814e-05
-7.76564e-06
4.47966e-05
-1.08613e-05
3.63729e-05
-1.46466e-05
2.73726e-05
-1.86024e-05
1.87659e-05
-2.21466e-05
1.10126e-05
-2.50291e-05
4.33143e-06
-2.73749e-05
-9.44412e-07
-2.94339e-05
-4.62299e-06
-3.1403e-05
-6.86964e-06
-3.33478e-05
-8.05134e-06
-3.53285e-05
-8.41692e-06
-3.73847e-05
-8.21077e-06
-3.96445e-05
-7.48295e-06
-4.22393e-05
-6.31504e-06
-4.50356e-05
-5.16102e-06
-4.78682e-05
-3.98917e-06
-5.12721e-05
-2.01039e-06
-5.50295e-05
-3.63007e-08
-5.81859e-05
1.60274e-06
-5.98614e-05
1.01597e-06
-6.39833e-05
-5.21965e-06
-1.15432e-05
-7.12353e-05
7.3701e-08
5.41077e-05
-1.38053e-06
4.62508e-05
-3.99721e-06
3.89896e-05
-7.79906e-06
3.11745e-05
-1.24442e-05
2.34111e-05
-1.73668e-05
1.59352e-05
-2.23143e-05
9.27897e-06
-2.728e-05
4.02135e-06
-3.2175e-05
2.72026e-07
-3.68216e-05
-2.22313e-06
-4.10707e-05
-3.80229e-06
-4.50618e-05
-4.42584e-06
-4.8826e-05
-4.44658e-06
-5.24101e-05
-3.89886e-06
-5.6425e-05
-2.30011e-06
-6.11735e-05
-4.12593e-07
-6.63974e-05
1.23473e-06
-7.21138e-05
3.70608e-06
-7.83331e-05
6.18302e-06
-8.24958e-05
5.76542e-06
-8.35354e-05
2.0556e-06
-8.50511e-05
-3.70397e-06
-9.68986e-06
-8.69045e-05
2.76198e-06
5.13457e-05
2.57554e-06
4.64372e-05
5.67185e-07
4.09979e-05
-3.33488e-06
3.50766e-05
-8.73326e-06
2.88095e-05
-1.52615e-05
2.24635e-05
-2.26575e-05
1.6675e-05
-3.04616e-05
1.18256e-05
-3.80074e-05
7.81784e-06
-4.48667e-05
4.63616e-06
-5.07509e-05
2.08197e-06
-5.59866e-05
8.09795e-07
-6.13118e-05
8.78606e-07
-6.64564e-05
1.24571e-06
-7.26976e-05
3.94116e-06
-8.02187e-05
7.10847e-06
-8.89071e-05
9.92317e-06
-9.52983e-05
1.00973e-05
-9.85955e-05
9.48022e-06
-9.98177e-05
6.9876e-06
-0.000100072
2.31012e-06
-0.000100084
-3.69213e-06
-9.79455e-06
-9.99793e-05
3.61914e-06
4.77265e-05
4.43416e-06
4.56222e-05
2.96637e-06
4.24658e-05
-9.2894e-07
3.8972e-05
-7.25594e-06
3.51366e-05
-1.5895e-05
3.11027e-05
-2.61856e-05
2.69657e-05
-3.68016e-05
2.24417e-05
-4.64434e-05
1.74598e-05
-5.4722e-05
1.29148e-05
-6.20463e-05
9.40628e-06
-6.86158e-05
7.37939e-06
-7.65256e-05
8.78842e-06
-8.53164e-05
1.00365e-05
-9.45938e-05
1.32187e-05
-0.0001016
1.41145e-05
-0.000106377
1.47e-05
-0.000109814
1.35344e-05
-0.00011153
1.11963e-05
-0.000111995
7.45254e-06
-0.000111857
2.17239e-06
-0.000111412
-4.1375e-06
-1.05171e-05
-0.000110689
3.99772e-06
4.37288e-05
5.50534e-06
4.41146e-05
4.49856e-06
4.34726e-05
4.84835e-07
4.29858e-05
-7.18489e-06
4.28066e-05
-1.86867e-05
4.26048e-05
-3.23133e-05
4.05925e-05
-4.56669e-05
3.57955e-05
-5.71519e-05
2.8945e-05
-6.71087e-05
2.28717e-05
-7.71866e-05
1.94843e-05
-8.72973e-05
1.74903e-05
-9.70199e-05
1.85111e-05
-0.000104777
1.77941e-05
-0.00010999
1.84312e-05
-0.000114087
1.82119e-05
-0.000116941
1.75536e-05
-0.000118937
1.55301e-05
-0.000119857
1.21166e-05
-0.000119976
7.5714e-06
-0.000119763
1.95909e-06
-0.000119248
-4.65266e-06
-1.13675e-05
-0.000118397
3.99869e-06
3.97301e-05
6.256e-06
4.18573e-05
5.87024e-06
4.38585e-05
1.81454e-06
4.70416e-05
-7.55213e-06
5.21733e-05
-2.25452e-05
5.75979e-05
-4.0139e-05
5.81864e-05
-5.825e-05
5.39066e-05
-7.39554e-05
4.46506e-05
-8.77281e-05
3.66445e-05
-9.93168e-05
3.10732e-05
-0.000107651
2.58251e-05
-0.000112779
2.36385e-05
-0.00011683
2.18455e-05
-0.000119518
2.11195e-05
-0.000121564
2.02583e-05
-0.000123045
1.90342e-05
-0.000123987
1.64717e-05
-0.000124186
1.23163e-05
-0.000123922
7.30687e-06
-0.000123704
1.7412e-06
-0.000123235
-5.12189e-06
-1.23105e-05
-0.000122292
2.99069e-06
3.67394e-05
6.01529e-06
3.88327e-05
6.14636e-06
4.37274e-05
1.96749e-06
5.12205e-05
-9.14834e-06
6.32892e-05
-2.77577e-05
7.62073e-05
-5.15867e-05
8.20156e-05
-8.32073e-05
8.55274e-05
-0.00010428
6.57238e-05
-0.00011415
4.65147e-05
-0.000118508
3.54308e-05
-0.000121283
2.86001e-05
-0.000122848
2.52045e-05
-0.000124219
2.32157e-05
-0.000124978
2.18786e-05
-0.000125202
2.04827e-05
-0.000125409
1.92406e-05
-0.00012549
1.65533e-05
-0.000124902
1.17276e-05
-0.000123893
6.29835e-06
-0.000123537
1.38543e-06
-0.00012306
-5.59917e-06
-1.4085e-05
-0.000121286
-2.96926e-06
3.9709e-05
2.82743e-06
3.30364e-05
2.84156e-06
4.37136e-05
-2.12821e-06
5.61909e-05
-1.36345e-05
7.47963e-05
-3.41464e-05
9.67203e-05
-7.6297e-05
0.000124168
-0.00012482
0.000134052
-0.000130584
7.14879e-05
-0.000129636
4.55671e-05
-0.000128358
3.41524e-05
-0.000128137
2.83791e-05
-0.00012782
2.48882e-05
-0.00012767
2.30651e-05
-0.00012745
2.16586e-05
-0.000126504
1.95371e-05
-0.000125408
1.81445e-05
-0.000124389
1.55338e-05
-0.000122897
1.02364e-05
-0.000120754
4.15471e-06
-0.000119128
-2.40433e-07
-0.000118746
-5.98088e-06
-1.62986e-05
-0.000116533
-1.33352e-06
4.10438e-05
-5.9157e-06
3.76198e-05
-1.1124e-05
4.89234e-05
-1.89314e-05
6.40003e-05
-3.34677e-05
8.93356e-05
-6.1743e-05
0.000125
-0.000100105
0.000162535
-0.000118582
0.000152532
-0.000124923
7.78299e-05
-0.000126444
4.70881e-05
-0.000127521
3.52292e-05
-0.000128783
2.96406e-05
-0.000128421
2.4527e-05
-0.000127509
2.21522e-05
-0.000126556
2.07057e-05
-0.000125113
1.80942e-05
-0.000123042
1.60734e-05
-0.000120338
1.28298e-05
-0.00011762
7.51853e-06
-0.000115908
2.4424e-06
-0.00011407
-2.07857e-06
-0.000110772
-9.27885e-06
-1.40886e-05
-0.000112983
-5.40908e-06
4.64526e-05
-1.26272e-05
4.48377e-05
-1.90026e-05
5.5299e-05
-2.77525e-05
7.27508e-05
-3.83938e-05
9.99777e-05
-4.79247e-05
0.000134532
-5.10819e-05
0.000165694
-5.70738e-05
0.000158525
-7.88543e-05
9.96108e-05
-0.000102788
7.1022e-05
-0.000121725
5.41659e-05
-0.000125711
3.36272e-05
-0.000126256
2.50726e-05
-0.000126134
2.20298e-05
-0.000124674
1.9246e-05
-0.000123176
1.65965e-05
-0.000121447
1.43445e-05
-0.000119013
1.03956e-05
-0.000116638
5.14299e-06
-0.000114205
8.96443e-09
-0.000112055
-4.2284e-06
-0.000112008
-9.3265e-06
-1.31288e-05
-0.000112969
-8.04656e-06
5.44969e-05
-1.7097e-05
5.38863e-05
-2.46322e-05
6.28326e-05
-3.12193e-05
7.93364e-05
-3.52864e-05
0.000104043
-3.45413e-05
0.000133786
-2.75002e-05
0.000158652
-2.57536e-05
0.000156778
-4.57375e-05
0.000119595
-6.9085e-05
9.43698e-05
-8.71933e-05
7.22746e-05
-0.00010023
4.6664e-05
-0.000106506
3.13488e-05
-0.000108319
2.38436e-05
-0.000108659
1.95855e-05
-0.000108498
1.6436e-05
-0.000107449
1.32957e-05
-0.000106085
9.03116e-06
-0.000104879
3.93689e-06
-0.00010384
-1.02991e-06
-0.000102951
-5.11654e-06
-0.000102807
-9.47088e-06
-1.35409e-05
-0.000102395
-8.5128e-06
6.30078e-05
-1.71135e-05
6.24851e-05
-2.38683e-05
6.95855e-05
-2.7965e-05
8.34312e-05
-2.79017e-05
0.000103978
-2.24357e-05
0.000128317
-1.25221e-05
0.000148736
-7.22514e-06
0.00015148
-1.67313e-05
0.0001291
-2.91381e-05
0.000106776
-4.24264e-05
8.55626e-05
-5.63819e-05
6.06192e-05
-6.79037e-05
4.28704e-05
-7.58894e-05
3.18292e-05
-8.09492e-05
2.46453e-05
-8.36803e-05
1.9167e-05
-8.49302e-05
1.45457e-05
-8.55019e-05
9.60285e-06
-8.58271e-05
4.26225e-06
-8.61024e-05
-7.54314e-07
-8.61373e-05
-5.08126e-06
-8.63946e-05
-9.21328e-06
-1.33959e-05
-8.65396e-05
-7.34488e-06
7.03508e-05
-1.43387e-05
6.94774e-05
-1.93743e-05
7.46197e-05
-2.13059e-05
8.53613e-05
-1.88019e-05
0.000101472
-1.1268e-05
0.000120781
-2.3739e-07
0.000137703
8.43734e-06
0.000142803
6.83855e-06
0.000130697
4.28342e-07
0.000113185
-8.17956e-06
9.41695e-05
-2.0056e-05
7.24949e-05
-3.1818e-05
5.46319e-05
-4.15628e-05
4.15736e-05
-4.87878e-05
3.18701e-05
-5.395e-05
2.43291e-05
-5.74814e-05
1.80771e-05
-6.00408e-05
1.21623e-05
-6.20389e-05
6.26045e-06
-6.36718e-05
8.78897e-07
-6.49128e-05
-3.83996e-06
-6.60351e-05
-8.09068e-06
-1.24607e-05
-6.69702e-05
-5.11374e-06
7.54637e-05
-1.01091e-05
7.44719e-05
-1.34111e-05
7.79209e-05
-1.38337e-05
8.5783e-05
-1.02095e-05
9.78466e-05
-2.09199e-06
0.000112662
9.19789e-06
0.000126412
1.95012e-05
0.000132498
2.34999e-05
0.000126697
2.25971e-05
0.000114086
1.82932e-05
9.84725e-05
1.01031e-05
8.06843e-05
4.12379e-07
6.43221e-05
-8.79535e-06
5.07809e-05
-1.67399e-05
3.98143e-05
-2.32887e-05
3.08778e-05
-2.85607e-05
2.3349e-05
-3.28883e-05
1.64899e-05
-3.64948e-05
9.86701e-06
-3.94141e-05
3.79842e-06
-4.1744e-05
-1.50984e-06
-4.37926e-05
-6.04167e-06
-1.06106e-05
-4.56427e-05
-2.67845e-06
7.81417e-05
-5.62804e-06
7.74211e-05
-7.30806e-06
7.96006e-05
-6.61021e-06
8.50848e-05
-2.51349e-06
9.37493e-05
5.45782e-06
0.00010469
1.64776e-05
0.000115391
2.75884e-05
0.000121386
3.49168e-05
0.000119367
3.79573e-05
0.000111045
3.73395e-05
9.90896e-05
3.30898e-05
8.49334e-05
2.6568e-05
7.08435e-05
1.92311e-05
5.81175e-05
1.1992e-05
4.70531e-05
5.31489e-06
3.75548e-05
-6.44224e-07
2.9308e-05
-5.97955e-06
2.18252e-05
-1.08308e-05
1.47182e-05
-1.50021e-05
7.96991e-06
-1.84578e-05
1.94604e-06
-2.1324e-05
-3.17543e-06
-8.03485e-06
-2.38999e-05
-4.85559e-07
7.86272e-05
-1.52732e-06
7.84628e-05
-1.73581e-06
7.9809e-05
-1.28015e-07
8.34768e-05
4.15204e-06
8.9469e-05
1.16306e-05
9.72113e-05
2.1897e-05
0.000105124
3.29467e-05
0.000110336
4.197e-05
0.000110344
4.77212e-05
0.000105294
5.01179e-05
9.66925e-05
4.92309e-05
8.582e-05
4.58417e-05
7.42324e-05
4.09413e-05
6.30176e-05
3.53233e-05
5.26709e-05
2.95424e-05
4.33355e-05
2.39264e-05
3.4924e-05
1.8569e-05
2.71825e-05
1.34362e-05
1.9851e-05
8.56367e-06
1.28425e-05
4.20192e-06
6.30785e-06
4.98543e-07
5.28084e-07
-4.90126e-06
-2.63527e-06
1.2722e-06
7.73551e-05
1.87056e-06
7.78645e-05
2.9409e-06
7.87387e-05
5.29399e-06
8.11238e-05
9.6632e-06
8.50998e-05
1.65373e-05
9.03371e-05
2.57763e-05
9.5885e-05
3.61347e-05
9.99773e-05
4.5643e-05
0.000100835
5.29425e-05
9.79938e-05
5.75315e-05
9.21033e-05
5.93067e-05
8.40446e-05
5.86611e-05
7.48778e-05
5.62232e-05
6.54553e-05
5.26039e-05
5.62901e-05
4.83103e-05
4.76289e-05
4.37129e-05
3.95213e-05
3.90195e-05
3.18758e-05
3.43119e-05
2.45586e-05
2.96412e-05
1.75133e-05
2.51286e-05
1.08205e-05
2.10344e-05
4.6223e-06
-1.31524e-06
1.74482e-05
2.52243e-06
7.48328e-05
4.43427e-06
7.59528e-05
6.55913e-06
7.66139e-05
9.53876e-06
7.81442e-05
1.39543e-05
8.06843e-05
2.02313e-05
8.406e-05
2.83898e-05
8.77264e-05
3.7723e-05
9.0644e-05
4.69253e-05
9.16326e-05
5.48199e-05
9.00992e-05
6.07394e-05
8.61837e-05
6.44104e-05
8.03735e-05
6.59473e-05
7.33407e-05
6.56987e-05
6.57038e-05
6.40841e-05
5.79047e-05
6.15052e-05
5.02076e-05
5.82974e-05
4.27291e-05
5.4697e-05
3.54762e-05
5.08465e-05
2.8409e-05
4.68444e-05
2.15155e-05
4.28128e-05
1.48521e-05
3.89469e-05
8.48823e-06
2.30106e-06
3.53304e-05
3.32198e-06
7.15109e-05
6.18631e-06
7.30885e-05
9.11792e-06
7.36824e-05
1.25845e-05
7.46776e-05
1.70242e-05
7.62446e-05
2.27794e-05
7.83047e-05
2.99459e-05
8.05599e-05
3.81645e-05
8.24255e-05
4.66263e-05
8.31708e-05
5.4439e-05
8.22864e-05
6.09491e-05
7.96736e-05
6.57921e-05
7.55305e-05
6.88976e-05
7.02352e-05
7.04066e-05
6.41947e-05
7.05674e-05
5.77437e-05
6.96607e-05
5.11143e-05
6.79498e-05
4.44398e-05
6.56487e-05
3.77772e-05
6.29137e-05
3.1144e-05
5.98667e-05
2.45626e-05
5.66355e-05
1.80833e-05
5.337e-05
1.17536e-05
5.53019e-06
5.01407e-05
3.76275e-06
6.77483e-05
7.24058e-06
6.96108e-05
1.07248e-05
7.01982e-05
1.45282e-05
7.08743e-05
1.89619e-05
7.18108e-05
2.42845e-05
7.29821e-05
3.06105e-05
7.42339e-05
3.77829e-05
7.52529e-05
4.53375e-05
7.56162e-05
5.26639e-05
7.49599e-05
5.92203e-05
7.31172e-05
6.4633e-05
7.01177e-05
6.87312e-05
6.61369e-05
7.15158e-05
6.14101e-05
7.30984e-05
5.6161e-05
7.3647e-05
5.05656e-05
7.33433e-05
4.47435e-05
7.23539e-05
3.87665e-05
7.08182e-05
3.26796e-05
6.88553e-05
2.65256e-05
6.65818e-05
2.03568e-05
6.41144e-05
1.4221e-05
8.12588e-06
6.15185e-05
3.93367e-06
6.38146e-05
7.74035e-06
6.58041e-05
1.15453e-05
6.63933e-05
1.55381e-05
6.68814e-05
1.99249e-05
6.74239e-05
2.48883e-05
6.80187e-05
3.05315e-05
6.85907e-05
3.68029e-05
6.89815e-05
4.34567e-05
6.89624e-05
5.01114e-05
6.83051e-05
5.63691e-05
6.68596e-05
6.19045e-05
6.45822e-05
6.65143e-05
6.1527e-05
7.01181e-05
5.78063e-05
7.27309e-05
5.35481e-05
7.44291e-05
4.88674e-05
7.53183e-05
4.38541e-05
7.55107e-05
3.8574e-05
7.51116e-05
3.30787e-05
7.42188e-05
2.74184e-05
7.29272e-05
2.16485e-05
7.1326e-05
1.58221e-05
9.97847e-06
6.94732e-05
3.91805e-06
5.98965e-05
7.83278e-06
6.18893e-05
1.17633e-05
6.24627e-05
1.58118e-05
6.28328e-05
2.01032e-05
6.31326e-05
2.47564e-05
6.33654e-05
2.98507e-05
6.34963e-05
3.53819e-05
6.34503e-05
4.12307e-05
6.31136e-05
4.71775e-05
6.23583e-05
5.29577e-05
6.10793e-05
5.83218e-05
5.92182e-05
6.30793e-05
5.67694e-05
6.71164e-05
5.37691e-05
7.03897e-05
5.02748e-05
7.29092e-05
4.63478e-05
7.47189e-05
4.20444e-05
7.58793e-05
3.74135e-05
7.64568e-05
3.2501e-05
7.65195e-05
2.73558e-05
7.61358e-05
2.20322e-05
7.53705e-05
1.65874e-05
1.10769e-05
7.42719e-05
3.77551e-06
5.61209e-05
7.6403e-06
5.80244e-05
1.15475e-05
5.85555e-05
1.5541e-05
5.88393e-05
1.96876e-05
5.89859e-05
2.40573e-05
5.89957e-05
2.87031e-05
5.88504e-05
3.36362e-05
5.85172e-05
3.88044e-05
5.79453e-05
4.40904e-05
5.70722e-05
4.93332e-05
5.58365e-05
5.43599e-05
5.41913e-05
5.90174e-05
5.21119e-05
6.31911e-05
4.95954e-05
6.68109e-05
4.66549e-05
6.9846e-05
4.33126e-05
7.22954e-05
3.95949e-05
7.41777e-05
3.55311e-05
7.55231e-05
3.11556e-05
7.63691e-05
2.65099e-05
7.67572e-05
2.16441e-05
7.67303e-05
1.66143e-05
1.14813e-05
7.63256e-05
3.55501e-06
5.25658e-05
7.26194e-06
5.43174e-05
1.10378e-05
5.47795e-05
1.48906e-05
5.49865e-05
1.88484e-05
5.5028e-05
2.29454e-05
5.48986e-05
2.72113e-05
5.45845e-05
3.16572e-05
5.40712e-05
3.62625e-05
5.334e-05
4.09688e-05
5.23658e-05
4.56855e-05
5.11198e-05
5.03031e-05
4.95736e-05
5.47115e-05
4.77034e-05
5.88143e-05
4.54926e-05
6.2537e-05
4.29321e-05
6.58295e-05
4.00201e-05
6.86631e-05
3.67613e-05
7.10261e-05
3.3168e-05
7.29197e-05
2.92619e-05
7.43546e-05
2.50749e-05
7.5349e-05
2.06496e-05
7.59261e-05
1.60372e-05
1.1296e-05
7.61112e-05
3.28748e-06
4.9278e-05
6.76845e-06
5.08362e-05
1.0341e-05
5.12068e-05
1.39918e-05
5.13356e-05
1.7725e-05
5.12946e-05
2.15508e-05
5.10727e-05
2.54803e-05
5.06549e-05
2.95186e-05
5.00329e-05
3.36572e-05
4.92013e-05
3.78683e-05
4.81546e-05
4.21041e-05
4.6884e-05
4.63007e-05
4.5377e-05
5.03857e-05
4.36183e-05
5.42871e-05
4.15911e-05
5.79398e-05
3.92794e-05
6.12895e-05
3.66702e-05
6.42946e-05
3.37561e-05
6.69252e-05
3.05374e-05
6.91622e-05
2.70249e-05
7.09963e-05
2.32409e-05
7.24265e-05
1.92194e-05
7.34597e-05
1.5004e-05
1.06454e-05
7.411e-05
2.99858e-06
4.62793e-05
6.21308e-06
4.76216e-05
9.536e-06
4.78837e-05
1.29432e-05
4.79282e-05
1.64251e-05
4.78126e-05
1.99767e-05
4.75209e-05
2.35958e-05
4.70358e-05
2.72801e-05
4.63485e-05
3.10236e-05
4.54577e-05
3.48122e-05
4.43658e-05
3.86217e-05
4.30744e-05
4.24168e-05
4.15818e-05
4.61538e-05
3.98813e-05
4.97833e-05
3.79615e-05
5.32546e-05
3.5808e-05
5.65191e-05
3.34057e-05
5.95326e-05
3.07425e-05
6.22574e-05
2.78125e-05
6.46628e-05
2.46193e-05
6.67264e-05
2.11773e-05
6.84338e-05
1.7512e-05
6.97794e-05
1.36584e-05
9.65814e-06
7.07665e-05
2.70305e-06
4.35759e-05
5.6314e-06
4.4693e-05
8.67883e-06
4.48361e-05
1.18168e-05
4.47902e-05
1.50289e-05
4.46003e-05
1.8302e-05
4.42478e-05
2.1625e-05
4.37127e-05
2.49894e-05
4.2984e-05
2.83873e-05
4.20597e-05
3.18096e-05
4.09435e-05
3.52429e-05
3.9641e-05
3.86685e-05
3.81561e-05
4.20611e-05
3.64887e-05
4.5389e-05
3.46336e-05
4.86159e-05
3.2581e-05
5.17027e-05
3.03189e-05
5.46093e-05
2.78357e-05
5.72975e-05
2.51243e-05
5.97324e-05
2.21843e-05
6.18849e-05
1.90248e-05
6.37325e-05
1.56644e-05
6.52607e-05
1.21302e-05
8.45443e-06
6.64641e-05
2.41354e-06
4.11623e-05
5.0496e-06
4.20567e-05
7.8092e-06
4.20763e-05
1.06638e-05
4.19354e-05
1.35949e-05
4.16691e-05
1.65855e-05
4.12571e-05
1.96198e-05
4.06782e-05
2.26847e-05
3.9919e-05
2.57694e-05
3.89749e-05
2.8865e-05
3.78479e-05
3.19624e-05
3.65435e-05
3.50507e-05
3.50677e-05
3.81153e-05
3.34241e-05
4.11365e-05
3.16123e-05
4.40897e-05
2.96278e-05
4.69453e-05
2.74632e-05
4.96704e-05
2.51105e-05
5.22306e-05
2.2564e-05
5.45922e-05
1.98227e-05
5.67241e-05
1.68929e-05
5.86004e-05
1.37882e-05
6.02013e-05
1.05292e-05
7.14065e-06
6.15148e-05
2.13569e-06
3.90262e-05
4.48372e-06
3.97085e-05
6.95418e-06
3.96057e-05
9.52077e-06
3.93687e-05
1.21658e-05
3.9024e-05
1.48716e-05
3.85512e-05
1.76208e-05
3.7929e-05
2.03975e-05
3.71422e-05
2.31886e-05
3.61837e-05
2.59838e-05
3.50527e-05
2.87744e-05
3.37528e-05
3.15525e-05
3.22896e-05
3.43086e-05
3.06679e-05
3.70303e-05
2.88905e-05
3.97009e-05
2.69571e-05
4.2299e-05
2.4865e-05
4.47992e-05
2.26103e-05
4.71728e-05
2.01903e-05
4.93899e-05
1.76056e-05
5.14214e-05
1.48614e-05
5.32409e-05
1.19687e-05
5.48264e-05
8.94361e-06
5.80483e-06
5.61621e-05
1.87532e-06
3.71509e-05
3.94566e-06
3.7638e-05
6.13246e-06
3.74188e-05
8.41322e-06
3.70878e-05
1.07724e-05
3.66647e-05
1.31938e-05
3.61297e-05
1.56602e-05
3.54624e-05
1.81552e-05
3.46472e-05
2.0664e-05
3.36748e-05
2.31747e-05
3.25418e-05
2.5678e-05
3.12494e-05
2.81661e-05
2.98015e-05
3.06313e-05
2.82026e-05
3.30649e-05
2.64569e-05
3.54551e-05
2.45669e-05
3.77866e-05
2.25334e-05
4.00401e-05
2.03567e-05
4.2193e-05
1.80374e-05
4.42204e-05
1.55781e-05
4.60968e-05
1.29849e-05
4.77979e-05
1.02676e-05
4.93017e-05
7.43978e-06
4.51628e-06
5.059e-05
1.63372e-06
3.55168e-05
3.44139e-06
3.58302e-05
5.35576e-06
3.55043e-05
7.35846e-06
3.5085e-05
9.43692e-06
3.45861e-05
1.15773e-05
3.39892e-05
1.37642e-05
3.32754e-05
1.59818e-05
3.24296e-05
1.8215e-05
3.14415e-05
2.0451e-05
3.03058e-05
2.26793e-05
2.90211e-05
2.48913e-05
2.75894e-05
2.70797e-05
2.60142e-05
2.92368e-05
2.42998e-05
3.13536e-05
2.245e-05
3.34188e-05
2.04682e-05
3.54177e-05
1.83577e-05
3.73331e-05
1.6122e-05
3.91451e-05
1.37661e-05
4.08325e-05
1.12975e-05
4.2374e-05
8.72611e-06
4.37492e-05
6.06454e-06
3.32549e-06
4.49398e-05
1.4129e-06
3.41039e-05
2.97477e-06
3.42682e-05
4.63089e-06
3.38481e-05
6.36735e-06
3.33485e-05
8.17447e-06
3.27789e-05
1.00411e-05
3.21226e-05
1.1954e-05
3.13624e-05
1.38991e-05
3.04845e-05
1.5862e-05
2.94785e-05
1.78299e-05
2.83379e-05
1.97914e-05
2.70595e-05
2.17372e-05
2.56435e-05
2.36594e-05
2.4092e-05
2.55505e-05
2.24087e-05
2.74026e-05
2.05977e-05
2.92068e-05
1.8664e-05
3.09519e-05
1.66126e-05
3.26246e-05
1.44493e-05
3.42095e-05
1.21812e-05
3.56898e-05
9.81717e-06
3.70476e-05
7.36831e-06
3.82648e-05
4.8473e-06
2.26648e-06
3.93237e-05
1.21134e-06
3.28924e-05
2.54564e-06
3.29338e-05
3.96034e-06
3.24333e-05
5.44562e-06
3.18631e-05
6.99452e-06
3.123e-05
8.59835e-06
3.05187e-05
1.02464e-05
2.97144e-05
1.19264e-05
2.88045e-05
1.36256e-05
2.77793e-05
1.53317e-05
2.66317e-05
1.70336e-05
2.53577e-05
1.87213e-05
2.39558e-05
2.03863e-05
2.2427e-05
2.2021e-05
2.07739e-05
2.3618e-05
1.90007e-05
2.51694e-05
1.71126e-05
2.66665e-05
1.51155e-05
2.8099e-05
1.30167e-05
2.94555e-05
1.08247e-05
3.07229e-05
8.54978e-06
3.18868e-05
6.2044e-06
3.29316e-05
3.8025e-06
1.35726e-06
3.38406e-05
1.02873e-06
3.18638e-05
2.15314e-06
3.18094e-05
3.3439e-06
3.12425e-05
4.59521e-06
3.06118e-05
5.90215e-06
2.99231e-05
7.25797e-06
2.91629e-05
8.65402e-06
2.83183e-05
1.00802e-05
2.73784e-05
1.15254e-05
2.6334e-05
1.29788e-05
2.51784e-05
1.44296e-05
2.39069e-05
1.58681e-05
2.25173e-05
1.72856e-05
2.10095e-05
1.86742e-05
1.93853e-05
2.00266e-05
1.76483e-05
2.13358e-05
1.58033e-05
2.25946e-05
1.38567e-05
2.37951e-05
1.18161e-05
2.4929e-05
9.69071e-06
2.5987e-05
7.49183e-06
2.69581e-05
5.23337e-06
2.78287e-05
2.93175e-06
6.03075e-07
2.85828e-05
8.61909e-07
3.10018e-05
1.79374e-06
3.08776e-05
2.77914e-06
3.02572e-05
3.81553e-06
2.95755e-05
4.89949e-06
2.88391e-05
6.02563e-06
2.80368e-05
7.18687e-06
2.71571e-05
8.37491e-06
2.61904e-05
9.58055e-06
2.51284e-05
1.07942e-05
2.39647e-05
1.20064e-05
2.26948e-05
1.32079e-05
2.13158e-05
1.43902e-05
1.98272e-05
1.55454e-05
1.82301e-05
1.66665e-05
1.65273e-05
1.77467e-05
1.47231e-05
1.87801e-05
1.28234e-05
1.97609e-05
1.08353e-05
2.06835e-05
8.76805e-06
2.15424e-05
6.63304e-06
2.23301e-05
4.44563e-06
2.30356e-05
2.22626e-06
-2.54517e-09
2.36411e-05
7.08834e-07
3.02931e-05
1.46426e-06
3.01222e-05
2.26313e-06
2.94583e-05
3.10527e-06
2.87334e-05
3.98781e-06
2.79566e-05
4.90596e-06
2.71187e-05
5.85374e-06
2.62094e-05
6.82423e-06
2.52199e-05
7.80983e-06
2.41428e-05
8.80244e-06
2.29721e-05
9.79373e-06
2.17035e-05
1.07754e-05
2.03342e-05
1.17395e-05
1.88632e-05
1.26783e-05
1.72913e-05
1.35849e-05
1.56207e-05
1.4453e-05
1.38549e-05
1.52774e-05
1.1999e-05
1.60539e-05
1.00588e-05
1.67798e-05
8.04217e-06
1.74534e-05
5.95941e-06
1.80724e-05
3.82669e-06
1.86279e-05
1.67072e-06
-4.72624e-07
1.90979e-05
5.65138e-07
2.97279e-05
1.16078e-06
2.95266e-05
1.79394e-06
2.88252e-05
2.46486e-06
2.80625e-05
3.17029e-06
2.72513e-05
3.90556e-06
2.63835e-05
4.66531e-06
2.54497e-05
5.44367e-06
2.44416e-05
6.23428e-06
2.33522e-05
7.03035e-06
2.21761e-05
7.82471e-06
2.09092e-05
8.60997e-06
1.9549e-05
9.37869e-06
1.80945e-05
1.01236e-05
1.65464e-05
1.08377e-05
1.49065e-05
1.15149e-05
1.31778e-05
1.215e-05
1.13639e-05
1.27398e-05
9.46899e-06