/*--------------------------------*- C++ -*----------------------------------*\
  =========                 |
  \\      /  F ield         | OpenFOAM: The Open Source CFD Toolbox
   \\    /   O peration     | Website:  https://openfoam.org
    \\  /    A nd           | Version:  13
     \\/     M anipulation  |
\*---------------------------------------------------------------------------*/
FoamFile
{
    format      ascii;
    class       volScalarField;
    location    "0.95";
    object      rho;
}
// * * * * * * * * * * * * * * * * * * * * * * * * * * * * * * * * * * * * * //

dimensions      [1 -3 0 0 0 0 0];

internalField   nonuniform List<scalar> 
2268
(
13529
13529
13529
13529
13529
13529
13529
13529
13529
13529
13529
13529
13529
13529
13529
13529
13529
13529
13529
13529
13526.8
13521.6
13521.6
13529
13529
13529
13529
13529
13529
13529
13529
13529
13529
13529
13529
13529
13529
13529
13529
13529
13529
13529
13529
13528.9
13526.8
13522
13529
13529
13529
13529
13529
13529
13529
13529
13529
13529
13529
13529
13529
13529
13529
13529
13529
13529
13529
13529
13529
13529
13528.7
13529
13529
13529
13529
13529
13529
13529
13529
13529
13529
13529
13529
13529
13529
13529
13529
13529
13529
13529
13529
13529
13529
13529
13529
13529
13529
13529
13529
13529
13529
13529
13529
13529
13529
13529
13529
13529
13529
13529
13529
13529
13529
13529
13529
13528.8
13527.1
13529
13529
13529
13529
13529
13529
13529
13529
13511.9
13395.2
13170.6
12855.2
12484.4
12089.1
11676.1
11258.2
10857.4
10504
10228.7
10022.2
9783.27
9055.97
8350.5
13529
13529
13529
13529
13108
12113.2
10835.6
9173.94
7454.33
6062.38
4933.15
4021.17
3317.76
2779.48
2352.27
2011.68
1748.5
1557.66
1430.83
1336.71
1264.14
1330.28
1390.89
13529
13456.7
10757.1
7299.53
4388.16
2554.9
1456.82
1025.94
1000
1000
1000
1000
1000
1000
1000
1000
999.999
999.998
999.99
999.935
1000.18
1175.82
1620.15
982.55
955.934
944.032
1563.5
3029.07
3138.93
2630.07
1589.06
1533.78
1533.89
4274.66
7248.1
4465.65
4100.4
4019.29
7649.49
9369.79
9467.27
9486.27
968.346
1121.13
1608.72
2816.79
4748.81
5882.62
5893.09
5727.86
5232.98
6480.11
10942.2
11037
10332.8
8044.61
4770.59
6263.79
8951.05
9469.23
9497.93
931.741
2215.09
2447.46
2159.45
1556.67
1797.77
2850.91
4815.95
5986.61
6444.64
7732.28
11101.2
11789.3
11759.5
8854.95
3091.17
4356.71
6974.91
9472.61
1106.08
1789.09
1690.72
1047.01
1002.77
1002.53
1002.5
1129.4
1677.63
1680.94
1394.92
5706.52
11652
11828.6
9880.56
2948.23
2947.96
6365.41
9471.52
1513.53
1051.69
995.981
998.028
999.594
999.735
999.812
1000.48
1002.28
1003.02
1002.46
1080.55
5171.12
9419.22
9373.11
2914.35
3034.31
8813.04
9470.43
742.603
703.951
782.008
869.307
935.38
984.574
999.03
999.775
999.861
1000.11
1000.65
1000.6
1095.38
6067.17
9854.97
6247.46
3867.78
9510.67
8113.95
373.288
379.05
396.25
502.492
579.523
703.89
873.707
993.142
999.858
999.863
999.765
999.669
1241.3
7252.23
9763.32
9191.34
6523.45
9477.31
2150.49
318.677
400.1
480.281
494.013
489.751
485.132
553.203
778.772
998.105
999.826
999.871
999.819
1595.54
5270.98
5740.38
5837.4
6019.55
7777.37
498.398
8022.03
3158.54
1474.41
1038.08
1000
1000
1000
1000
1000
1000
1000
1000
1000
1000
1000
1000
1000
1000
999.999
998.419
984.425
1485.92
1463.79
1023.7
1000
1000
1000
1000
1000
1000
1000
1000
1000
1000
1000
1000
1000
1000
1000
999.987
995.633
946.7
645.546
359.198
353.781
499.898
1000
1000
1000
1000
1000
1000
1000
1000
1000
1000
1000
1000
1000
1000
999.561
989.502
873.157
545.389
333.068
359.746
500.063
500
500
1000
1000
1000
1000
1000
1000
1000
1000
1000
1000
1000
1000
1000
988.902
696.861
410.009
257.65
441.14
499.663
496.283
499.894
500
499.982
1000
1000
1000
1000
1000
1000
1000
1000
1000
1000
1000
937.568
587.932
443.858
297.511
478.304
493.13
491.858
499.828
499.987
499.974
499.954
499.968
1000
1000
1000
1000
1000
1000
1000
1000
1000
960.124
627.452
505.254
325.152
477.642
487.114
495.327
500
500
499.951
499.979
499.957
499.968
500
1000
1000
1000
1000
1000
1000
1000
994.605
790.953
558.318
372.914
479.133
486.256
499.737
499.999
499.999
499.989
500
500
500
500
500
500
616.791
678.841
706.184
686.611
633.009
580.998
519.415
384.63
271.339
477.492
495.596
499.995
499.999
500.002
500
500.001
500
500
500
497.218
466.973
450.296
465.358
13.991
26.2304
34.1018
28.8881
16.2203
7.27773
3.05716
4.43713
149.711
500.056
500.166
500.077
500.03
500.005
499.999
483.567
353.178
264.909
245.209
218.637
104.926
72.6717
165.907
1.00002
1.00002
0.999996
0.999956
0.999999
1
1
1.01516
16.0448
144.511
293.384
333.113
316.715
210.209
110.211
59.4208
22.4085
5.1275
1.98662
1.24254
1.00002
1.00001
1
1.00002
1.00003
1.00007
1.00005
1.00002
1.00001
1.00001
1.00028
1.00004
0.999942
4.01637
9.56283
8.16635
1.97559
1.00001
1.00004
1.00021
1.00033
1.00045
1.0004
1.00004
1.00003
1.00003
1.00002
1.00001
1.00001
1.00001
1.00001
1.00001
1.00002
1.00004
1.00003
1.00008
1.00001
0.999998
1
1.00001
1.00001
1.00001
1.00005
1.00014
1.00064
1.00105
1.00059
1.00008
1.00007
1.00002
1.00001
1
1
1.00001
1.00001
1.00001
1.00003
1.00005
1.00001
1.00001
1.00002
1.00001
1.00002
1.00029
1.00152
1.00154
1.00077
1.00134
1.00232
1.00257
1.00191
1.00014
1.00001
1
1
1
1
1
1.00001
1.00002
1.00004
1.00001
1.00001
1.00001
1.00001
1.00002
1.00011
1.00036
1.00037
1.05364
1.08982
1.06126
1.00277
1.00376
1.0033
1
1
1
1
1
1
1
1.00001
1.00002
1.00001
1.00001
1.00001
1.00002
1.00004
1.0001
1.0003
1.00054
1.00774
1.09377
1.11525
1.09511
1.00285
1.00475
1
1
1
1
1
1
1
1
1.00001
1.00001
1.00001
1.00001
1.00002
1.00002
1.00007
1.00026
1.0003
1.00003
1.00512
1.08851
1.11177
1.06483
1.00302
1
1
1
1
1
1
1
1
1
1
1
1.00001
1.00001
1.00001
1.00002
1.00007
1.00002
1
1
1.0022
1.04076
1.03301
1.00554
1
1
1
1
1
1
1
1
1
1
1
1
1
1.00001
1.00001
1.00001
1
1
1
1
1
1.00004
1.00013
1
1
1
1
1
1
1
1
1
1
1
1
1
1
1.00001
1
1
1
1
1
1
1
1.00001
1
1
1
1
1
1
1
1
1
1
1
1
1
1
1
1
1
1
1
1
1.00001
1.00001
1.00001
1
1
1
1
1
1
1
1
1
1
1
1
1
1
1
1
1
1
1
1
1
1
1.00001
1
1
1
1
1
1
1
1
1
1
1
1
1
1
1
1
1
1
1
1
1
1
1
1
1
1
1
1
1
1
1
1
1
1
1
1
1
1
1
1
1
1
1
1
1
1
1
1
1
1
1
1
1
1
1
1
1
1
1
1
1
1
1
1
1
1
1
1
1
1
1
1
1
1
1
1
1
1
1
1
1
1
1
1
1
1
1
1
1
1
1
1
1
1
1
1
1
1
1
1
1
1
1
1
1
1
1
1
1
1
1
1
1
1
1
1
1
1
1
1
1
1
1
1
1
1
1
1
1
1
1
1
1
1
1
1
1
1
1
1
1
1
1
1
1
1
1
1
1
1
1
1
1
1
1
1
1
1
1
1
1
1
1
1
1
1
1
1
1
1
1
1
1
1
1
1
1
1
1
1
1
1
1
1
1
1
1
1
1
1
1
1
1
1
1
1
1
1
1
1
1
1
1
1
1
1
1
1
1
1
1
1
1
1
1
1
1
1
1
1
1
1
1
1
1
1
1
1
1
1
1
1
1
1
1
1
1
1
1
1
1
1
1
1
1
1
1
1
1
1
1
1
1
1
1
1
1
1
1
1
1
1
1
1
1
1
1
1
1
1
1
1
1
1
1
1
1
1
1
1
1
1
1
1
1
1
1
1
1
1
1
1
1
1
1
1
1
1
1
1
1
1
1
1
1
1
1
1
1
1
1
1
1
1
1
1
1
1
1
1
1
1
1
1
1
1
1
1
1
1
1
1
1
1
1
1
1
1
1
1
1
1
1
1
1
1
1
1
1
1
1
1
1
1
1
1
1
1
1
1
1
1
1
1
1
1
1
1
1
1
1
1
1
1
1
1
1
1
1
1
1
1
1
1
1
1
1
1
1
1
1
1
1
1
1
1
1
1
1
1
1
1
1
1
1
1
1
1
1
1
1
1
1
1
1
1
1
1
1
1
1
1
1
1
1
1
1
1
1
1
1
1
1
1
1
1
1
1
1
1
1
1
1
1
1
1
1
1
1
1
1
1
1
1
1
1
1
1
1
1
1
1
1
1
1
1
1
1
1
1
1
1
1
1
1
1
1
1
1
1
1
1
1
1189.38
655.976
452.277
394.025
500
500
500
500
499.998
500
500
500
500
500
500
500
500
500
500
500
500
500
500
500
500
500
500
500
467.98
416.02
408.336
418.185
95.3102
1.00053
15.4262
50.2639
1
1
1.00001
1
1.00003
1.00004
1.00004
1.00006
1.00003
1.00002
1.00002
1.00001
1
1.00002
1
1
1.0012
1.00156
1.00133
1.00021
1.00524
1.00518
1.00502
1.00445
1.00474
1.00508
1.005
1.00481
1.0003
1.00105
1.00311
1.00355
1.00023
1.00017
1.00007
1.00002
1.00001
1.00001
1.00001
1.00001
1.00001
1.00001
1.00001
1.00001
1.00001
1.00001
1.00001
1.00001
1.00001
1.00001
1.00001
1
1
1
1
1
1
1
1
1
1
1
1
1
1
1
1
1
1
1
1
1
1
1
1
1
1
1
1
1
1
1
1
1
1
1
1
1
1
1
1
1
1
1
1
1
1
1
1
1
1
1
1
1
1
1
1
1
1
1
1
1
1
1
1
1
1
1
1
1
1
1
1
1
1
1
1
1
1
1
1
1
483.43
500.001
500.003
500.003
500.002
499.079
497.872
502.053
653.84
955.539
999.95
1000.45
1819.69
2325.39
2262.19
2845.84
4442.85
1860.08
495.685
500
500
500
500
500.002
500.007
500.008
499.993
499.753
611.29
963.19
1015.3
1208.05
1631.76
3299.51
3892.36
3561.16
1258.81
493.856
500
500
500
500
500
500
500.002
500.006
500.006
499.993
617.635
945.908
1077.71
1350.9
2459.62
2923.26
1643.16
609.71
378.869
500
500
500
500
500
500
500
500
500.001
500.001
499.978
561.869
778.772
966.138
1052.75
1059.4
752.38
559.566
398.61
500
500
500
500
500
500
500
500
500
500
499.997
499.405
502.625
533.661
549.791
531.32
495.437
528.707
381.777
500
500
500
500
500
500
500
500
500
500
500
500.005
499.325
492.986
486.15
486.382
486.956
486.709
261.674
500
500
500
500
500
500
500
500
500
500.001
500.001
500.007
500.632
500.93
491.321
469.304
444.048
314.406
145.66
443.126
463.478
474.698
484.156
491.473
496.437
499.131
500
500
500
500
499.841
497.906
489.067
461.79
388.257
227.982
143.561
99.7732
80.9441
107.15
127.885
153.367
183.339
217.093
252.263
282.363
300.845
307.015
301.467
266.491
222.348
159.949
90.8822
41.3509
42.0016
84.8455
93.4098
1.00001
1.00001
1.00003
1.00005
1.00004
1.00004
1.00005
1.00003
1.00003
1.00003
1.00001
1.00012
1.00027
1.00017
1.00033
1.00029
1.00025
18.2221
43.9981
1.00009
1.00028
1.00036
1.00026
1.00014
1.00009
1.00005
1.00004
1.00003
1.00003
1.00002
1.00005
1.09797
1.505
1.60132
1.25333
1
1
1
1.00023
1.00084
1.00098
1.00093
1.00065
1.00047
1.00027
1.00012
1.0002
1.0004
1.00019
1
1.43941
2.24562
2.27605
1.81936
1
1.012
1.02898
1.0001
1.00076
1.00092
1.00097
1.00098
1.00093
1.00071
1.00021
1.0004
1.00231
1.00338
1.00023
1.12975
1.50483
1.481
1
1.00016
1.00061
1.01057
1
1
1.00033
1.00064
1.00074
1.0008
1.0006
1.00038
1.00038
1.00284
1.00606
1.00464
1
1
1
1.00013
1.00126
1.00116
1.00004
1.00144
1.00004
1.00001
1.00001
1.00006
1.00025
1.00037
1.00037
1.00036
1.00022
1.00001
1
1
1
1
1.00074
1.00156
1.00146
1.00022
1.00463
1.00177
1.00001
1.00001
1.00001
1
1.00003
1.0001
1
1
1
1
1
1.00001
1
1.00009
1.00063
1.00049
1.00079
1.00339
1.00235
1.00007
1.00003
1.00001
1.00001
1
1
1
1
1
1.00001
1.00001
1.00001
1.00001
1
1
1
1.00089
1.00001
1.00001
1.00023
1.00009
1.00002
1.00001
1.00001
1
1
1
1
1.00001
1.00001
1.00001
1.00001
1
1
1
1.00088
1.00001
1.00001
1.00005
1.00004
1.00002
1.00001
1.00001
1
1
1
1
1
1
1
1
1
1
1
1.00086
1.00001
1.00002
1.00001
1.00001
1.00001
1.00001
1.00001
1
1
1
1
1
1
1
1
1
1
1
1.00072
1.00001
1.00001
1.00001
1.00001
1.00001
1.00001
1
1
1
1
1
1
1
1
1
1
1
1.00001
1.00081
1
1
1
1
1
1
1
1
1
1
1
1
1
1
1
1
1
1.00017
1.00082
1
1
1
1
1
1
1
1
1
1
1
1
1
1
1
1
1
1.00037
1.00083
1
1
1
1
1
1
1
1
1
1
1
1
1
1
1
1
1
1.00041
1.0008
1
1
1
1
1
1
1
1
1
1
1
1
1
1
1
1
1
1.00001
1.00035
1
1
1
1
1
1
1
1
1
1
1
1
1
1
1
1
1
1.00001
1
1
1
1
1
1
1
1
1
1
1
1
1
1
1
1
1
1.00001
1
1
1
1
1
1
1
1
1
1
1
1
1
1
1
1
1
1
1.00001
1.00001
1
1
1
1
1
1
1
1
1
1
1
1
1
1
1
1
1.00001
1.00002
1.00001
1
1
1
1
1
1
1
1
1
1
1
1
1
1
1
1
1.00001
1.00003
1.00003
1.00001
1
1
1
1
1
1
1
1
1
1
1
1
1
1
1.00001
1.00002
1.00006
1.00003
1.00001
1
1
1
1
1
1
1
1
1
1
1
1
1
1
1.00002
1.00006
1.00006
1.00005
1.00001
1
1
1
1
1
1
1
1
1
1
1
1
1
1.00001
1.00003
1.00007
1.00007
1.00004
1.00001
1
1
1
1
1
1
1
1
1
1
1
1
1
1.00001
1.00003
1.00006
1.00006
1.00003
1
1
1
1
1
1
1
1
1
1
1
1
1
1
1.00001
1.00003
1.00004
1.00004
1.00001
1
1
1
1
1
1
1
1
1
1
1
1
1
1
1.00001
1.00001
1.00002
1
1
1
1
1
1
1
1
1
1
1
1
1
1
1
1
1
1
1
1
1
1
1
1
1
1
1
1
1
1
1
1
1
1
1
1
1
1
1
1
1
1
1
1
1
1
1
1
1
1
1
1
1
1
1
1
1
1
1
1
1
1
1
1
1
1
1
1
1
1
1
1
1
1
1
1
1
1
1
1
1
1
1
1
1
1
1
1
1
1
1
1
1
1
1
1
1
1
1
1
1
1
1
1
1
1
1
1
1
1
1
1
1
1
1
1
1
)
;

boundaryField
{
    leftWall
    {
        type            calculated;
        value           nonuniform List<scalar> 
50
(
13529
13529
13529
13529
13529
13529
13529
13529
8022.03
1023.7
1000
1000
1000
1000
1000
616.791
13.991
1.00002
1.00002
1.00002
1.00002
1.00001
1
1
1
1
1
1
1
1
1
1
1
1
1
1
1
1
1
1
1
1
1
1
1
1
1
1
1
1
)
;
    }
    rightWall
    {
        type            calculated;
        value           nonuniform List<scalar> 
50
(
9486.27
9497.93
9472.61
9471.52
9470.43
8113.95
2150.49
498.398
495.685
493.856
378.869
398.61
381.777
261.674
145.66
99.7732
93.4098
43.9981
1
1.02898
1.01057
1.00004
1.00022
1.00079
1.00089
1.00088
1.00086
1.00072
1.00081
1.00082
1.00083
1.0008
1.00035
1
1
1
1
1.00001
1.00001
1.00001
1.00001
1
1
1
1
1
1
1
1
1
)
;
    }
    lowerWall
    {
        type            calculated;
        value           nonuniform List<scalar> 
62
(
13529
13529
13529
13529
13529
13529
13529
13529
13529
13529
13529
13529
13529
13529
13529
13529
13529
13529
13529
13529
13526.8
13521.6
13521.6
13521.6
13522
13528.7
13529
13527.1
8350.5
1390.89
1620.15
1189.38
655.976
452.277
394.025
982.55
968.346
931.741
1106.08
1513.53
742.603
373.288
318.677
982.55
955.934
944.032
1563.5
3029.07
3138.93
2630.07
1589.06
1533.78
1533.89
4274.66
7248.1
4465.65
4100.4
4019.29
7649.49
9369.79
9467.27
9486.27
)
;
    }
    atmosphere
    {
        type            calculated;
        value           nonuniform List<scalar> 
46
(
1
1
1
1
1
1
1
1
1
1
1
1
1
1
1
1
1
1
1
1
1
1
1
1
1
1
1
1
1
1
1
1
1
1
1
1
1
1
1
1
1
1
1
1
1
1
)
;
    }
    defaultFaces
    {
        type            empty;
    }
}


// ************************************************************************* //
