/*--------------------------------*- C++ -*----------------------------------*\
  =========                 |
  \\      /  F ield         | OpenFOAM: The Open Source CFD Toolbox
   \\    /   O peration     | Website:  https://openfoam.org
    \\  /    A nd           | Version:  13
     \\/     M anipulation  |
\*---------------------------------------------------------------------------*/
FoamFile
{
    format      ascii;
    class       volVectorField;
    location    "0.95";
    object      U;
}
// * * * * * * * * * * * * * * * * * * * * * * * * * * * * * * * * * * * * * //

dimensions      [0 1 -1 0 0 0 0];

internalField   nonuniform List<vector> 
2268
(
(-0.0160667 0.00956606 0)
(-0.0605583 0.0193084 0)
(-0.127793 0.0180837 0)
(-0.175561 0.0133081 0)
(-0.207935 0.00848422 0)
(-0.225778 0.0041146 0)
(-0.231506 0.000485513 0)
(-0.228058 -0.00225722 0)
(-0.218197 -0.00427598 0)
(-0.203981 -0.00569802 0)
(-0.186971 -0.00661472 0)
(-0.168438 -0.00711389 0)
(-0.149265 -0.00735636 0)
(-0.129881 -0.00750445 0)
(-0.110431 -0.00763156 0)
(-0.0909771 -0.00775795 0)
(-0.0715433 -0.00788429 0)
(-0.0521681 -0.00798149 0)
(-0.0329752 -0.0079748 0)
(-0.014235 -0.00760697 0)
(0.00238771 -0.00661126 0)
(0.0169844 -0.00358549 0)
(0.0182861 0.00623791 0)
(-0.0298666 0.0261439 0)
(-0.0814421 0.0444408 0)
(-0.141918 0.0398377 0)
(-0.18392 0.0287873 0)
(-0.21027 0.0176121 0)
(-0.222991 0.00788143 0)
(-0.225199 0.000292647 0)
(-0.220011 -0.00512198 0)
(-0.209906 -0.00881805 0)
(-0.196389 -0.0112783 0)
(-0.180621 -0.0127691 0)
(-0.163588 -0.0135088 0)
(-0.14602 -0.0137924 0)
(-0.128341 -0.0138723 0)
(-0.110796 -0.0138575 0)
(-0.093558 -0.0137922 0)
(-0.0767338 -0.0136985 0)
(-0.0603873 -0.0135595 0)
(-0.0445866 -0.0132775 0)
(-0.0294376 -0.0125142 0)
(-0.0158346 -0.0107066 0)
(-0.00265536 -0.00589259 0)
(0.00416564 0.0108727 0)
(-0.04322 0.0540335 0)
(-0.0951563 0.0719427 0)
(-0.148947 0.061468 0)
(-0.185207 0.0432734 0)
(-0.206867 0.0254498 0)
(-0.21649 0.0104826 0)
(-0.217213 -0.000821046 0)
(-0.211852 -0.00871852 0)
(-0.202371 -0.0140839 0)
(-0.189911 -0.0177013 0)
(-0.175387 -0.0199221 0)
(-0.159661 -0.0210347 0)
(-0.143416 -0.0214399 0)
(-0.127101 -0.0214787 0)
(-0.11103 -0.0213069 0)
(-0.0954558 -0.0210054 0)
(-0.0805455 -0.0206273 0)
(-0.0664058 -0.0201779 0)
(-0.0530952 -0.0195697 0)
(-0.0405936 -0.0184602 0)
(-0.0292767 -0.0162757 0)
(-0.0170376 -0.0113711 0)
(-0.00719505 0.00783251 0)
(-0.053273 0.0865637 0)
(-0.103091 0.0986075 0)
(-0.151601 0.080997 0)
(-0.183011 0.0559238 0)
(-0.201255 0.0321286 0)
(-0.209072 0.012571 0)
(-0.209338 -0.00198351 0)
(-0.204432 -0.0120758 0)
(-0.195897 -0.0190314 0)
(-0.184582 -0.0238233 0)
(-0.171241 -0.0268359 0)
(-0.15669 -0.0283877 0)
(-0.141608 -0.0289649 0)
(-0.12647 -0.0289794 0)
(-0.111649 -0.0286242 0)
(-0.0974555 -0.0280174 0)
(-0.0841144 -0.0272474 0)
(-0.0717875 -0.0263496 0)
(-0.0605606 -0.0252832 0)
(-0.0503426 -0.0237934 0)
(-0.0411223 -0.021581 0)
(-0.0293557 -0.0179105 0)
(-0.0176819 -0.000612443 0)
(-0.0596132 0.121557 0)
(-0.105657 0.124134 0)
(-0.150007 0.0986911 0)
(-0.177562 0.0671801 0)
(-0.193622 0.0380552 0)
(-0.200782 0.0144801 0)
(-0.201458 -0.00298259 0)
(-0.197539 -0.0151345 0)
(-0.190197 -0.0236516 0)
(-0.180084 -0.0296656 0)
(-0.167889 -0.0334999 0)
(-0.15443 -0.0354843 0)
(-0.140399 -0.0361889 0)
(-0.1263 -0.036101 0)
(-0.112551 -0.0354536 0)
(-0.0995078 -0.034412 0)
(-0.0874444 -0.0331012 0)
(-0.0765948 -0.0315884 0)
(-0.0671338 -0.0299009 0)
(-0.0590071 -0.027949 0)
(-0.0518995 -0.0259041 0)
(-0.0402026 -0.0243447 0)
(-0.0302276 -0.0145324 0)
(-0.061864 0.157269 0)
(-0.10221 0.148117 0)
(-0.143374 0.114838 0)
(-0.168321 0.0774631 0)
(-0.183585 0.0436935 0)
(-0.191306 0.016597 0)
(-0.193367 -0.00341989 0)
(-0.191003 -0.0173569 0)
(-0.185105 -0.0272016 0)
(-0.176263 -0.0342095 0)
(-0.165179 -0.0386775 0)
(-0.15273 -0.0409656 0)
(-0.139628 -0.041736 0)
(-0.12643 -0.0415368 0)
(-0.113609 -0.0406318 0)
(-0.101552 -0.0392199 0)
(-0.0905664 -0.0374431 0)
(-0.0809839 -0.0353787 0)
(-0.073172 -0.0331043 0)
(-0.067346 -0.0306658 0)
(-0.0630764 -0.0285286 0)
(-0.0515076 -0.0291073 0)
(-0.0499462 -0.026602 0)
(-0.0598074 0.190907 0)
(-0.0918061 0.169798 0)
(-0.130657 0.128686 0)
(-0.154289 0.0858675 0)
(-0.170337 0.0483696 0)
(-0.180136 0.0186625 0)
(-0.184682 -0.00330801 0)
(-0.184503 -0.018775 0)
(-0.180003 -0.029867 0)
(-0.172017 -0.0378286 0)
(-0.161721 -0.0429132 0)
(-0.150086 -0.0454894 0)
(-0.137894 -0.0463106 0)
(-0.12577 -0.0459888 0)
(-0.114231 -0.0448186 0)
(-0.103652 -0.043035 0)
(-0.0943364 -0.0407933 0)
(-0.0867501 -0.0381553 0)
(-0.0816659 -0.0352378 0)
(-0.0800988 -0.0322192 0)
(-0.0819704 -0.0301055 0)
(-0.0699972 -0.0348715 0)
(-0.0906519 -0.0553656 0)
(-0.0555149 0.221681 0)
(-0.0732846 0.18786 0)
(-0.111459 0.14052 0)
(-0.134837 0.0941468 0)
(-0.15239 0.0538492 0)
(-0.16486 0.0219237 0)
(-0.17257 -0.00187962 0)
(-0.175093 -0.0190405 0)
(-0.172106 -0.0320549 0)
(-0.165167 -0.0419412 0)
(-0.156118 -0.0486071 0)
(-0.146342 -0.0523814 0)
(-0.136817 -0.0539608 0)
(-0.128351 -0.053919 0)
(-0.121559 -0.05257 0)
(-0.116755 -0.0502449 0)
(-0.114076 -0.0470074 0)
(-0.114042 -0.0426917 0)
(-0.117968 -0.0372303 0)
(-0.127857 -0.0304087 0)
(-0.142706 -0.0265015 0)
(-0.13973 -0.0476902 0)
(-0.176069 -0.123248 0)
(-0.190131 0.0418153 0)
(-0.119195 -0.0207023 0)
(-0.0381445 -0.0415418 0)
(0.0573497 -0.0326526 0)
(0.114695 -0.0262653 0)
(0.143771 -0.00941176 0)
(0.145023 0.00550814 0)
(0.113792 0.0171259 0)
(0.0643354 0.0313329 0)
(-0.0376216 0.0330072 0)
(-0.0452985 -0.00274945 0)
(-0.0590936 0.0139527 0)
(-0.14683 0.0244967 0)
(-0.181454 0.0205315 0)
(-0.240484 0.0344337 0)
(-0.45583 0.0259098 0)
(-0.510756 -0.0163992 0)
(-0.418438 -0.0607289 0)
(-0.23369 -0.129887 0)
(-0.113297 0.080355 0)
(0.0281204 -0.0563166 0)
(0.0835304 -0.056122 0)
(0.121818 -0.0361528 0)
(0.140734 -0.0259888 0)
(0.149436 -0.00943787 0)
(0.147223 0.00781166 0)
(0.13556 0.0197301 0)
(0.115093 0.0371081 0)
(0.0716616 0.0433809 0)
(0.0256701 0.0219275 0)
(-0.0406044 0.0372736 0)
(-0.105991 0.0395142 0)
(-0.137729 0.0294854 0)
(-0.139676 0.0580679 0)
(-0.300581 0.0978727 0)
(-0.404475 0.017324 0)
(-0.334744 -0.0819834 0)
(-0.149932 -0.209432 0)
(0.0172325 0.0890777 0)
(0.0962292 -0.0759903 0)
(0.113543 -0.0708739 0)
(0.129991 -0.0433301 0)
(0.13377 -0.0270059 0)
(0.131666 -0.00870391 0)
(0.12879 0.0101923 0)
(0.123409 0.0230215 0)
(0.109825 0.0432274 0)
(0.0774658 0.0549071 0)
(0.0110109 0.0437846 0)
(-0.066325 0.0615542 0)
(-0.121533 0.0561591 0)
(-0.149494 0.0394658 0)
(-0.136333 0.065443 0)
(-0.190479 0.150928 0)
(-0.324674 0.0426228 0)
(-0.255671 -0.140089 0)
(-0.0900059 -0.304596 0)
(0.131352 0.0315955 0)
(0.125469 -0.0807144 0)
(0.113637 -0.0739296 0)
(0.112609 -0.043833 0)
(0.108337 -0.0256923 0)
(0.102635 -0.00670835 0)
(0.0986295 0.0134345 0)
(0.0913135 0.028765 0)
(0.0758895 0.0533083 0)
(0.0454407 0.0753272 0)
(-0.0379034 0.0728052 0)
(-0.112371 0.0802187 0)
(-0.151869 0.0679063 0)
(-0.180741 0.0455211 0)
(-0.171603 0.0647885 0)
(-0.17203 0.175661 0)
(-0.235134 0.0745399 0)
(-0.163096 -0.197024 0)
(-0.0463475 -0.366074 0)
(0.131152 -0.0360283 0)
(0.115562 -0.0750151 0)
(0.0920122 -0.0689347 0)
(0.0814416 -0.0416773 0)
(0.074983 -0.0226973 0)
(0.0660799 -0.0036327 0)
(0.056037 0.0167983 0)
(0.040371 0.0376585 0)
(0.0168523 0.068351 0)
(-0.0198724 0.10459 0)
(-0.0908157 0.12564 0)
(-0.163506 0.107866 0)
(-0.195221 0.0760878 0)
(-0.22104 0.0473675 0)
(-0.214082 0.062361 0)
(-0.190195 0.160828 0)
(-0.155012 0.0642053 0)
(-0.0935185 -0.232597 0)
(-0.0201486 -0.398545 0)
(0.0802196 -0.0747598 0)
(0.073618 -0.0678107 0)
(0.0551793 -0.0614192 0)
(0.0453227 -0.0387147 0)
(0.0393828 -0.0193925 0)
(0.0293681 0.000949953 0)
(0.0151194 0.0229642 0)
(-0.00708743 0.0474486 0)
(-0.0388164 0.0830208 0)
(-0.0786158 0.123881 0)
(-0.134586 0.147701 0)
(-0.20636 0.148645 0)
(-0.250865 0.093522 0)
(-0.255289 0.0439952 0)
(-0.241379 0.0560725 0)
(-0.205056 0.129897 0)
(-0.120945 0.0400984 0)
(-0.0322305 -0.262134 0)
(-0.00247526 -0.414639 0)
(0.00186134 -0.0945266 0)
(0.00943965 -0.0609504 0)
(-0.000163128 -0.0547215 0)
(-0.00249478 -0.0362938 0)
(-0.00369815 -0.016446 0)
(-0.0107253 0.00562287 0)
(-0.0251918 0.0301488 0)
(-0.0500455 0.0590674 0)
(-0.0843106 0.0985495 0)
(-0.122998 0.141284 0)
(-0.168795 0.167848 0)
(-0.227075 0.165764 0)
(-0.275502 0.11071 0)
(-0.26327 0.0417959 0)
(-0.251252 0.0492305 0)
(-0.204801 0.100822 0)
(-0.101816 0.00268794 0)
(0.0161614 -0.287172 0)
(0.0134052 -0.418985 0)
(-0.103176 -0.0681881 0)
(-0.0727576 -0.0642073 0)
(-0.0706035 -0.0550772 0)
(-0.063673 -0.0369347 0)
(-0.0582636 -0.0151491 0)
(-0.0583741 0.0103695 0)
(-0.0681058 0.0383734 0)
(-0.0905254 0.070794 0)
(-0.121926 0.112991 0)
(-0.155857 0.15735 0)
(-0.190888 0.185717 0)
(-0.231925 0.182925 0)
(-0.261957 0.115509 0)
(-0.257497 0.0382191 0)
(-0.250673 0.0363868 0)
(-0.188304 0.0654086 0)
(-0.0627377 -0.0492993 0)
(0.0538582 -0.309336 0)
(0.0431556 -0.37415 0)
(-0.0465703 0.255876 0)
(-0.0305305 0.209708 0)
(-0.0745366 0.159793 0)
(-0.102668 0.11219 0)
(-0.12711 0.0696908 0)
(-0.144704 0.0337846 0)
(-0.155624 0.00368005 0)
(-0.160007 -0.0219301 0)
(-0.159437 -0.0414132 0)
(-0.156642 -0.0539356 0)
(-0.15358 -0.0606581 0)
(-0.15124 -0.0629599 0)
(-0.150156 -0.0623043 0)
(-0.150729 -0.0595854 0)
(-0.153381 -0.0554377 0)
(-0.158247 -0.0505568 0)
(-0.16518 -0.0449386 0)
(-0.174459 -0.0378958 0)
(-0.186808 -0.0298978 0)
(-0.201318 -0.0203767 0)
(-0.216602 -0.020065 0)
(-0.225923 -0.0572139 0)
(-0.255123 -0.111895 0)
(-0.0393999 0.291384 0)
(-0.024395 0.25177 0)
(-0.051093 0.201014 0)
(-0.0684921 0.144914 0)
(-0.0895303 0.0933568 0)
(-0.10982 0.0496636 0)
(-0.12708 0.0135336 0)
(-0.141086 -0.0145934 0)
(-0.152737 -0.034005 0)
(-0.163496 -0.0458673 0)
(-0.173948 -0.0518704 0)
(-0.184368 -0.0535489 0)
(-0.195032 -0.0522168 0)
(-0.206518 -0.0486361 0)
(-0.219372 -0.0429277 0)
(-0.234026 -0.0372807 0)
(-0.249605 -0.0316502 0)
(-0.266026 -0.0237698 0)
(-0.284974 -0.0120086 0)
(-0.302702 0.00496238 0)
(-0.316476 0.00976806 0)
(-0.328623 -0.0391752 0)
(-0.371935 -0.0833143 0)
(-0.00232295 0.29824 0)
(0.00165165 0.250267 0)
(-0.0138445 0.205753 0)
(-0.030285 0.15855 0)
(-0.0536261 0.113191 0)
(-0.0794372 0.0709327 0)
(-0.105951 0.0338708 0)
(-0.132955 0.00470875 0)
(-0.159975 -0.0154813 0)
(-0.185884 -0.0277151 0)
(-0.209743 -0.0344187 0)
(-0.231607 -0.0365916 0)
(-0.252105 -0.0355081 0)
(-0.272067 -0.0325704 0)
(-0.291839 -0.0264766 0)
(-0.315182 -0.0195651 0)
(-0.341278 -0.009201 0)
(-0.370737 0.00640403 0)
(-0.403263 0.0162106 0)
(-0.434345 0.0172535 0)
(-0.447955 0.00565272 0)
(-0.453453 -0.0206251 0)
(-0.464852 -0.0531319 0)
(0.0129104 0.283977 0)
(0.0186517 0.249988 0)
(0.0105247 0.216108 0)
(-0.0053346 0.178694 0)
(-0.0304949 0.139877 0)
(-0.0622532 0.101349 0)
(-0.100068 0.0665575 0)
(-0.142355 0.0389578 0)
(-0.184905 0.0186458 0)
(-0.223974 0.00403491 0)
(-0.257829 -0.00623156 0)
(-0.287581 -0.0121774 0)
(-0.314825 -0.0131944 0)
(-0.343642 -0.0101799 0)
(-0.371313 0.00286853 0)
(-0.407629 0.0180961 0)
(-0.453544 0.0272696 0)
(-0.498772 0.0355688 0)
(-0.523665 0.0436051 0)
(-0.534809 0.0368561 0)
(-0.536773 0.0134089 0)
(-0.537534 -0.0189843 0)
(-0.538639 -0.0516682 0)
(0.016218 0.267694 0)
(0.02541 0.249128 0)
(0.0225672 0.225852 0)
(0.00840884 0.200013 0)
(-0.0183119 0.171741 0)
(-0.0580024 0.142251 0)
(-0.110521 0.114632 0)
(-0.169623 0.0896872 0)
(-0.225793 0.066224 0)
(-0.274297 0.0449745 0)
(-0.314861 0.028023 0)
(-0.351779 0.0202814 0)
(-0.38676 0.0237916 0)
(-0.432524 0.0280608 0)
(-0.483203 0.0449989 0)
(-0.53037 0.0585316 0)
(-0.560957 0.0713119 0)
(-0.582129 0.0675924 0)
(-0.59561 0.0575872 0)
(-0.601103 0.0398257 0)
(-0.601219 0.0124479 0)
(-0.599566 -0.0209121 0)
(-0.596923 -0.0546169 0)
(0.0169177 0.247245 0)
(0.0291405 0.242895 0)
(0.0299668 0.233066 0)
(0.0172821 0.222583 0)
(-0.0120095 0.211698 0)
(-0.0631653 0.200191 0)
(-0.134456 0.184438 0)
(-0.211563 0.159031 0)
(-0.280321 0.124977 0)
(-0.336118 0.0957693 0)
(-0.385792 0.0765967 0)
(-0.440652 0.0664151 0)
(-0.496061 0.0750162 0)
(-0.545411 0.0781432 0)
(-0.578958 0.0904738 0)
(-0.602627 0.0908878 0)
(-0.621285 0.0891016 0)
(-0.634363 0.0802074 0)
(-0.641991 0.0639936 0)
(-0.644336 0.0410435 0)
(-0.643747 0.0113206 0)
(-0.641765 -0.0235511 0)
(-0.638206 -0.0588602 0)
(0.0151129 0.220497 0)
(0.0315856 0.229279 0)
(0.0361507 0.234281 0)
(0.0256767 0.241469 0)
(-0.00681071 0.252752 0)
(-0.0729177 0.264649 0)
(-0.16675 0.260794 0)
(-0.266506 0.236866 0)
(-0.356885 0.201552 0)
(-0.435805 0.164432 0)
(-0.507275 0.139766 0)
(-0.559942 0.120607 0)
(-0.594688 0.11938 0)
(-0.617477 0.111456 0)
(-0.635418 0.109819 0)
(-0.64784 0.106289 0)
(-0.657157 0.100453 0)
(-0.663732 0.087525 0)
(-0.666731 0.0666839 0)
(-0.666241 0.0401911 0)
(-0.664659 0.00963641 0)
(-0.662891 -0.0264493 0)
(-0.65919 -0.0640989 0)
(0.00698199 0.204234 0)
(0.0297342 0.217667 0)
(0.0369597 0.231131 0)
(0.0280341 0.251952 0)
(-0.00919836 0.283461 0)
(-0.0911675 0.316331 0)
(-0.207903 0.325487 0)
(-0.35987 0.315815 0)
(-0.514233 0.280821 0)
(-0.600711 0.227562 0)
(-0.631256 0.187529 0)
(-0.64456 0.153059 0)
(-0.655932 0.135385 0)
(-0.663595 0.124202 0)
(-0.669384 0.117566 0)
(-0.67192 0.110943 0)
(-0.672912 0.10339 0)
(-0.673723 0.0881347 0)
(-0.672304 0.0635676 0)
(-0.667843 0.0355686 0)
(-0.66383 0.00611864 0)
(-0.66228 -0.0324256 0)
(-0.65531 -0.0726061 0)
(-0.0406062 0.208161 0)
(0.0146551 0.221945 0)
(0.0210693 0.235445 0)
(0.00860394 0.263632 0)
(-0.0341368 0.306366 0)
(-0.118634 0.344396 0)
(-0.259623 0.339858 0)
(-0.590221 0.379152 0)
(-0.695443 0.332439 0)
(-0.689117 0.247445 0)
(-0.693108 0.191448 0)
(-0.689139 0.156331 0)
(-0.687337 0.136454 0)
(-0.685924 0.125333 0)
(-0.684974 0.117212 0)
(-0.682332 0.108817 0)
(-0.676832 0.101247 0)
(-0.670249 0.0865656 0)
(-0.662913 0.0611234 0)
(-0.6548 0.0327928 0)
(-0.645708 0.0062529 0)
(-0.6344 -0.031551 0)
(-0.630015 -0.07424 0)
(-0.0158644 0.213813 0)
(-0.00786567 0.159208 0)
(-0.0441764 0.238315 0)
(-0.0741615 0.330927 0)
(-0.132359 0.503725 0)
(-0.245029 0.743978 0)
(-0.412705 1.02453 0)
(-0.666118 0.973092 0)
(-0.640731 0.401228 0)
(-0.65138 0.255046 0)
(-0.684302 0.182586 0)
(-0.691284 0.151098 0)
(-0.692173 0.13314 0)
(-0.688453 0.123381 0)
(-0.681672 0.116547 0)
(-0.676009 0.106276 0)
(-0.667811 0.100851 0)
(-0.653141 0.0893785 0)
(-0.636746 0.0614339 0)
(-0.626025 0.0294056 0)
(-0.617994 0.00710625 0)
(-0.605785 -0.0305881 0)
(-0.583021 -0.0881028 0)
(-0.0184852 0.221286 0)
(-0.048063 0.207685 0)
(-0.0856487 0.284446 0)
(-0.123602 0.39474 0)
(-0.1721 0.551377 0)
(-0.227255 0.74803 0)
(-0.263485 0.952367 0)
(-0.322275 0.95522 0)
(-0.337426 0.483344 0)
(-0.464564 0.209325 0)
(-0.637881 0.15004 0)
(-0.672154 0.148523 0)
(-0.677719 0.128673 0)
(-0.679418 0.121974 0)
(-0.672962 0.115949 0)
(-0.665251 0.100209 0)
(-0.656834 0.0849104 0)
(-0.644542 0.0568589 0)
(-0.632476 0.0211552 0)
(-0.621107 -0.00670722 0)
(-0.605824 -0.0341255 0)
(-0.59631 -0.0598658 0)
(-0.607077 -0.0735384 0)
(-0.0293924 0.279313 0)
(-0.07038 0.270013 0)
(-0.11343 0.321147 0)
(-0.151282 0.413427 0)
(-0.179898 0.552463 0)
(-0.188328 0.724229 0)
(-0.168363 0.87637 0)
(-0.138673 0.860857 0)
(-0.175682 0.636771 0)
(-0.290062 0.536963 0)
(-0.43331 0.404278 0)
(-0.516581 0.210062 0)
(-0.565964 0.137931 0)
(-0.574275 0.109835 0)
(-0.581233 0.0876438 0)
(-0.584213 0.0728153 0)
(-0.580556 0.0602991 0)
(-0.573458 0.0437086 0)
(-0.566299 0.0213112 0)
(-0.559588 -0.00482896 0)
(-0.553984 -0.0258986 0)
(-0.55173 -0.0509 0)
(-0.550799 -0.0747714 0)
(-0.031098 0.318212 0)
(-0.0718738 0.317193 0)
(-0.111994 0.36051 0)
(-0.142239 0.44244 0)
(-0.154511 0.564547 0)
(-0.139911 0.709143 0)
(-0.0951535 0.827399 0)
(-0.0419335 0.832021 0)
(-0.051874 0.680135 0)
(-0.118351 0.561855 0)
(-0.194481 0.460598 0)
(-0.266312 0.309677 0)
(-0.337405 0.20446 0)
(-0.38833 0.146077 0)
(-0.423883 0.115247 0)
(-0.444295 0.0915411 0)
(-0.45405 0.0714483 0)
(-0.457942 0.0476134 0)
(-0.459774 0.0200524 0)
(-0.461504 -0.00571934 0)
(-0.462087 -0.0288804 0)
(-0.462745 -0.0506853 0)
(-0.465022 -0.0719993 0)
(-0.026186 0.359551 0)
(-0.0612332 0.356785 0)
(-0.0928811 0.389765 0)
(-0.112942 0.456045 0)
(-0.112938 0.555179 0)
(-0.0861647 0.673415 0)
(-0.0336256 0.774346 0)
(0.0296243 0.796377 0)
(0.0521178 0.708797 0)
(0.0246776 0.600763 0)
(-0.0195383 0.489208 0)
(-0.0738442 0.363141 0)
(-0.140093 0.264366 0)
(-0.19933 0.198239 0)
(-0.245147 0.151304 0)
(-0.277959 0.115787 0)
(-0.300726 0.0861897 0)
(-0.316525 0.0567668 0)
(-0.327941 0.0263514 0)
(-0.337609 -0.0017863 0)
(-0.345247 -0.0254611 0)
(-0.35189 -0.0476766 0)
(-0.357543 -0.0708548 0)
(-0.0172393 0.395548 0)
(-0.0433281 0.390671 0)
(-0.0655942 0.413581 0)
(-0.0768059 0.463334 0)
(-0.0696169 0.538837 0)
(-0.0383991 0.630482 0)
(0.0162823 0.713581 0)
(0.0812678 0.744975 0)
(0.123504 0.698785 0)
(0.129538 0.616851 0)
(0.113402 0.522907 0)
(0.0793338 0.417678 0)
(0.029139 0.324579 0)
(-0.0233511 0.250717 0)
(-0.0701298 0.193441 0)
(-0.108965 0.147995 0)
(-0.140259 0.110216 0)
(-0.166213 0.0756819 0)
(-0.187414 0.0419634 0)
(-0.204236 0.0109904 0)
(-0.217935 -0.0161641 0)
(-0.229994 -0.0395784 0)
(-0.240657 -0.0632958 0)
(-0.007947 0.41728 0)
(-0.0239222 0.412393 0)
(-0.0369346 0.427099 0)
(-0.0405987 0.462391 0)
(-0.0290421 0.517355 0)
(0.00298776 0.586145 0)
(0.0560765 0.651957 0)
(0.120146 0.685583 0)
(0.173236 0.667139 0)
(0.200865 0.611956 0)
(0.206438 0.537426 0)
(0.192752 0.451321 0)
(0.162243 0.36872 0)
(0.123537 0.296878 0)
(0.0834905 0.236239 0)
(0.0457056 0.185386 0)
(0.0118618 0.141896 0)
(-0.0182244 0.10251 0)
(-0.0463354 0.0652024 0)
(-0.0703511 0.0307866 0)
(-0.0903903 1.34356e-06 0)
(-0.107052 -0.0262007 0)
(-0.121911 -0.0515323 0)
(-0.000104799 0.425552 0)
(-0.00615858 0.422935 0)
(-0.0105379 0.431942 0)
(-0.00773924 0.455908 0)
(0.00700464 0.494611 0)
(0.0382021 0.544091 0)
(0.0871199 0.593701 0)
(0.147537 0.624564 0)
(0.204489 0.621112 0)
(0.24502 0.586745 0)
(0.266743 0.532107 0)
(0.270376 0.464968 0)
(0.257873 0.395536 0)
(0.234486 0.330321 0)
(0.205359 0.271734 0)
(0.174152 0.220092 0)
(0.143267 0.174435 0)
(0.11385 0.132786 0)
(0.085694 0.093311 0)
(0.0582144 0.0556648 0)
(0.0334665 0.0216791 0)
(0.0119772 -0.00784912 0)
(-0.00621141 -0.0356642 0)
(0.00556208 0.422871 0)
(0.00828242 0.423773 0)
(0.0116223 0.429366 0)
(0.0199993 0.445093 0)
(0.0372104 0.471136 0)
(0.0669446 0.505199 0)
(0.11087 0.540832 0)
(0.165588 0.566122 0)
(0.221347 0.569668 0)
(0.267744 0.549809 0)
(0.300007 0.511766 0)
(0.316967 0.461403 0)
(0.319418 0.40569 0)
(0.310363 0.349881 0)
(0.293368 0.296846 0)
(0.27153 0.247781 0)
(0.247255 0.2027 0)
(0.222129 0.160746 0)
(0.196836 0.120841 0)
(0.171485 0.0825477 0)
(0.146473 0.0464448 0)
(0.123392 0.013942 0)
(0.102668 -0.0169309 0)
(0.00924902 0.412059 0)
(0.0189332 0.416559 0)
(0.0286909 0.42043 0)
(0.0416568 0.430504 0)
(0.0608576 0.447374 0)
(0.0891422 0.46977 0)
(0.128178 0.49393 0)
(0.176429 0.512713 0)
(0.227954 0.518339 0)
(0.275133 0.50759 0)
(0.312835 0.482145 0)
(0.33872 0.445552 0)
(0.35245 0.402372 0)
(0.355433 0.356552 0)
(0.349895 0.310731 0)
(0.338141 0.266374 0)
(0.322212 0.224013 0)
(0.303676 0.183501 0)
(0.283522 0.144413 0)
(0.262291 0.106551 0)
(0.24049 0.0702583 0)
(0.219157 0.0360582 0)
(0.198986 0.00302119 0)
(0.0113297 0.395774 0)
(0.0259714 0.403199 0)
(0.0406382 0.406426 0)
(0.0571659 0.412887 0)
(0.0778871 0.423429 0)
(0.104903 0.437423 0)
(0.139661 0.452762 0)
(0.181691 0.465367 0)
(0.227653 0.470304 0)
(0.27242 0.464475 0)
(0.311562 0.447693 0)
(0.34235 0.421621 0)
(0.363672 0.388969 0)
(0.375824 0.352453 0)
(0.379963 0.314179 0)
(0.377596 0.275528 0)
(0.370242 0.237227 0)
(0.359219 0.199506 0)
(0.345516 0.162353 0)
(0.329832 0.125812 0)
(0.31279 0.0901478 0)
(0.2952 0.0556514 0)
(0.277638 0.0219136 0)
(0.0122894 0.37623 0)
(0.0300298 0.385653 0)
(0.048026 0.388766 0)
(0.0670563 0.393046 0)
(0.0887905 0.399421 0)
(0.114702 0.40764 0)
(0.14594 0.416582 0)
(0.18255 0.424021 0)
(0.222816 0.427032 0)
(0.263564 0.423264 0)
(0.301463 0.411844 0)
(0.333974 0.393226 0)
(0.359638 0.368784 0)
(0.378053 0.340183 0)
(0.389596 0.308911 0)
(0.395083 0.276079 0)
(0.395502 0.242399 0)
(0.391822 0.208252 0)
(0.384872 0.173843 0)
(0.375326 0.139367 0)
(0.363796 0.105101 0)
(0.350938 0.0712926 0)
(0.337172 0.0378689 0)
(0.01248 0.355152 0)
(0.0317974 0.36565 0)
(0.0517026 0.368798 0)
(0.0722227 0.371802 0)
(0.0944473 0.375541 0)
(0.119338 0.379958 0)
(0.14774 0.38449 0)
(0.179894 0.387984 0)
(0.215009 0.388816 0)
(0.251273 0.385442 0)
(0.286436 0.37695 0)
(0.318461 0.363201 0)
(0.345897 0.344714 0)
(0.367998 0.322356 0)
(0.384628 0.297042 0)
(0.396078 0.269547 0)
(0.402874 0.240445 0)
(0.405629 0.210127 0)
(0.404936 0.178875 0)
(0.401341 0.146955 0)
(0.395353 0.114663 0)
(0.38748 0.0822763 0)
(0.378036 0.0499367 0)
(0.0121865 0.333746 0)
(0.0319453 0.344555 0)
(0.0525886 0.347688 0)
(0.0737025 0.349929 0)
(0.0959123 0.352045 0)
(0.119775 0.354049 0)
(0.145868 0.355674 0)
(0.174454 0.356359 0)
(0.205223 0.355267 0)
(0.237217 0.351495 0)
(0.269053 0.344352 0)
(0.299274 0.333514 0)
(0.326657 0.319042 0)
(0.350376 0.30128 0)
(0.370024 0.280685 0)
(0.385536 0.257714 0)
(0.397084 0.232758 0)
(0.404968 0.206132 0)
(0.409541 0.178111 0)
(0.411168 0.148971 0)
(0.410214 0.119015 0)
(0.40705 0.088549 0)
(0.401906 0.0578404 0)
(0.011576 0.312842 0)
(0.0309813 0.323382 0)
(0.0515021 0.326366 0)
(0.0724872 0.328094 0)
(0.0942336 0.329207 0)
(0.117 0.329718 0)
(0.141141 0.329501 0)
(0.166866 0.3283 0)
(0.194087 0.325725 0)
(0.222337 0.321307 0)
(0.25083 0.314616 0)
(0.278623 0.305352 0)
(0.304805 0.293396 0)
(0.328638 0.278797 0)
(0.349628 0.26171 0)
(0.367512 0.242336 0)
(0.382219 0.220886 0)
(0.393811 0.19757 0)
(0.402427 0.172607 0)
(0.408254 0.146246 0)
(0.411506 0.118774 0)
(0.412421 0.0905037 0)
(0.411167 0.0617585 0)
(0.0107889 0.292968 0)
(0.0293159 0.302831 0)
(0.0491049 0.305515 0)
(0.0694189 0.306824 0)
(0.0903341 0.307283 0)
(0.111904 0.306876 0)
(0.134312 0.305525 0)
(0.157691 0.303121 0)
(0.182032 0.299508 0)
(0.207125 0.294478 0)
(0.232556 0.28781 0)
(0.257763 0.279302 0)
(0.282135 0.26881 0)
(0.305099 0.256256 0)
(0.326189 0.241626 0)
(0.345072 0.224953 0)
(0.361541 0.206307 0)
(0.375494 0.185794 0)
(0.386909 0.163563 0)
(0.395822 0.139812 0)
(0.40231 0.114795 0)
(0.406497 0.088806 0)
(0.408496 0.0621727 0)
(0.00989908 0.274455 0)
(0.027221 0.283363 0)
(0.0458894 0.28561 0)
(0.0651549 0.286511 0)
(0.0849609 0.28649 0)
(0.105232 0.285496 0)
(0.126028 0.283456 0)
(0.147407 0.280317 0)
(0.169373 0.276031 0)
(0.191833 0.270534 0)
(0.214581 0.26374 0)
(0.237308 0.255548 0)
(0.259638 0.245848 0)
(0.28117 0.234542 0)
(0.301528 0.221546 0)
(0.320388 0.206805 0)
(0.337492 0.190299 0)
(0.35265 0.172054 0)
(0.365732 0.152151 0)
(0.376663 0.130736 0)
(0.385415 0.108015 0)
(0.392018 0.0842469 0)
(0.396533 0.0597287 0)
(0.00897771 0.257468 0)
(0.024912 0.265255 0)
(0.0422161 0.266958 0)
(0.0601847 0.267425 0)
(0.0786845 0.266994 0)
(0.0975666 0.265586 0)
(0.116809 0.263115 0)
(0.13641 0.259538 0)
(0.156355 0.254846 0)
(0.176594 0.249041 0)
(0.197027 0.242114 0)
(0.217492 0.234035 0)
(0.237773 0.224747 0)
(0.257614 0.214172 0)
(0.276742 0.202221 0)
(0.294884 0.18881 0)
(0.311789 0.173877 0)
(0.327236 0.157399 0)
(0.34104 0.139409 0)
(0.353057 0.120004 0)
(0.363186 0.099341 0)
(0.371388 0.0776323 0)
(0.377682 0.0551294 0)
(0.00805796 0.242078 0)
(0.0225209 0.248662 0)
(0.0383364 0.249746 0)
(0.05486 0.249741 0)
(0.0719248 0.248914 0)
(0.0893484 0.247168 0)
(0.107061 0.2444 0)
(0.125016 0.240557 0)
(0.143173 0.235634 0)
(0.16149 0.229653 0)
(0.17991 0.222639 0)
(0.198348 0.214605 0)
(0.216687 0.205537 0)
(0.234772 0.19539 0)
(0.252417 0.1841 0)
(0.269417 0.171587 0)
(0.285556 0.157784 0)
(0.300621 0.14265 0)
(0.314414 0.126189 0)
(0.326759 0.108459 0)
(0.337514 0.0895787 0)
(0.346595 0.0697119 0)
(0.353985 0.0490586 0)
(0.00717655 0.228277 0)
(0.0201539 0.233646 0)
(0.0344273 0.23407 0)
(0.0494299 0.233562 0)
(0.064985 0.232331 0)
(0.0809029 0.230266 0)
(0.0970904 0.227256 0)
(0.113473 0.223232 0)
(0.129987 0.218179 0)
(0.146584 0.212113 0)
(0.163217 0.205069 0)
(0.179835 0.197076 0)
(0.196372 0.188148 0)
(0.212736 0.178272 0)
(0.228808 0.167411 0)
(0.244441 0.155512 0)
(0.259466 0.14252 0)
(0.273697 0.128397 0)
(0.28695 0.113136 0)
(0.299047 0.0967763 0)
(0.309829 0.079401 0)
(0.319191 0.0611362 0)
(0.327087 0.0421342 0)
(0.00634306 0.216019 0)
(0.0178663 0.220208 0)
(0.0306067 0.219963 0)
(0.0440682 0.218936 0)
(0.0580826 0.217285 0)
(0.0724705 0.214898 0)
(0.0871325 0.211657 0)
(0.101981 0.207485 0)
(0.116937 0.202348 0)
(0.13194 0.19625 0)
(0.146941 0.189218 0)
(0.161897 0.181284 0)
(0.176764 0.172474 0)
(0.191486 0.162797 0)
(0.205984 0.152242 0)
(0.220157 0.140783 0)
(0.233877 0.128387 0)
(0.246997 0.115031 0)
(0.259358 0.100713 0)
(0.270796 0.0854594 0)
(0.28116 0.0693359 0)
(0.290332 0.0524386 0)
(0.298251 0.034882 0)
(0.00557441 0.205216 0)
(0.0157065 0.208303 0)
(0.0269551 0.207409 0)
(0.0388946 0.205866 0)
(0.0513725 0.203789 0)
(0.0642287 0.201069 0)
(0.0773693 0.197591 0)
(0.0907046 0.193271 0)
(0.10415 0.188062 0)
(0.117634 0.181953 0)
(0.131101 0.174958 0)
(0.144506 0.167102 0)
(0.15781 0.158412 0)
(0.170971 0.148909 0)
(0.183936 0.138601 0)
(0.196631 0.127484 0)
(0.208965 0.11555 0)
(0.220824 0.102793 0)
(0.232077 0.0892211 0)
(0.242587 0.0748635 0)
(0.252215 0.0597748 0)
(0.26085 0.0440324 0)
(0.268423 0.0277251 0)
(0.00487035 0.195771 0)
(0.0136908 0.19786 0)
(0.0235205 0.196362 0)
(0.0339876 0.194324 0)
(0.0449622 0.191828 0)
(0.0563079 0.188771 0)
(0.067943 0.185044 0)
(0.0797838 0.180565 0)
(0.0917464 0.175278 0)
(0.103756 0.169159 0)
(0.115748 0.162208 0)
(0.127675 0.154439 0)
(0.139494 0.145876 0)
(0.151167 0.136542 0)
(0.162651 0.126456 0)
(0.173892 0.115631 0)
(0.184821 0.104078 0)
(0.195351 0.0918084 0)
(0.205383 0.078844 0)
(0.214802 0.0652198 0)
(0.223492 0.0509887 0)
(0.231353 0.036219 0)
(0.238311 0.0209838 0)
(0.00423767 0.187573 0)
(0.0118356 0.188791 0)
(0.0203292 0.186751 0)
(0.0293937 0.184255 0)
(0.0389218 0.181362 0)
(0.0488007 0.177974 0)
(0.0589631 0.173995 0)
(0.0693361 0.169344 0)
(0.0798421 0.163966 0)
(0.090407 0.157828 0)
(0.100966 0.150916 0)
(0.111463 0.143235 0)
(0.121853 0.134801 0)
(0.132096 0.125636 0)
(0.142154 0.115763 0)
(0.15198 0.105204 0)
(0.161522 0.0939849 0)
(0.170714 0.0821308 0)
(0.179478 0.0696753 0)
(0.187727 0.0566625 0)
(0.195365 0.0431485 0)
(0.202306 0.0291999 0)
(0.208479 0.0148833 0)
(0.00366803 0.180515 0)
(0.0101329 0.181001 0)
(0.017387 0.178489 0)
(0.0251341 0.175586 0)
(0.0332916 0.172329 0)
(0.0417685 0.16863 0)
(0.0505116 0.164404 0)
(0.0594599 0.159579 0)
(0.0685456 0.154099 0)
(0.0777002 0.147927 0)
(0.08686 0.141044 0)
(0.0959684 0.133445 0)
(0.104977 0.125137 0)
(0.113842 0.116139 0)
(0.122525 0.106472 0)
(0.130985 0.0961659 0)
(0.139179 0.0852508 0)
(0.147057 0.0737631 0)
(0.154558 0.0617458 0)
(0.161618 0.0492514 0)
(0.16816 0.0363423 0)
(0.174114 0.0230896 0)
(0.179416 0.0095606 0)
(0.00315965 0.174491 0)
(0.00857975 0.17439 0)
(0.0146885 0.171484 0)
(0.0212119 0.168228 0)
(0.0280893 0.164649 0)
(0.0352482 0.160669 0)
(0.0426465 0.156213 0)
(0.0502348 0.151219 0)
(0.0579557 0.145633 0)
(0.0657492 0.13942 0)
(0.0735565 0.132555 0)
(0.0813227 0.125026 0)
(0.0889982 0.116837 0)
(0.0965389 0.107999 0)
(0.103905 0.0985323 0)
(0.111057 0.0884655 0)
(0.117959 0.0778327 0)
(0.12457 0.0666747 0)
(0.130847 0.0550406 0)
(0.136742 0.0429894 0)
(0.142202 0.0305917 0)
(0.147168 0.0179281 0)
(0.151581 0.00507523 0)
(0.0026977 0.169405 0)
(0.00715498 0.168863 0)
(0.0122173 0.165638 0)
(0.017618 0.162083 0)
(0.0233181 0.158226 0)
(0.0292597 0.154001 0)
(0.035409 0.149341 0)
(0.0417256 0.144192 0)
(0.0481622 0.138506 0)
(0.0546678 0.132248 0)
(0.0611906 0.125392 0)
(0.0676799 0.117925 0)
(0.0740881 0.109844 0)
(0.0803712 0.101157 0)
(0.0864893 0.0918803 0)
(0.0924055 0.0820402 0)
(0.0980861 0.0716696 0)
(0.103499 0.0608097 0)
(0.108615 0.049511 0)
(0.113404 0.0378362 0)
(0.117833 0.0258646 0)
(0.121863 0.0136931 0)
(0.125427 0.0014209 0)
(0.00227079 0.165177 0)
(0.00584477 0.16433 0)
(0.00995465 0.160849 0)
(0.0143394 0.157043 0)
(0.0189764 0.152952 0)
(0.0238177 0.148517 0)
(0.0288342 0.143683 0)
(0.033992 0.1384 0)
(0.0392522 0.132625 0)
(0.0445722 0.126325 0)
(0.0499075 0.119476 0)
(0.0552134 0.112063 0)
(0.0604456 0.104081 0)
(0.065562 0.0955344 0)
(0.0705235 0.0864367 0)
(0.0752944 0.0768097 0)
(0.0798432 0.0666825 0)
(0.0841445 0.0560921 0)
(0.0881795 0.0450851 0)
(0.0919373 0.033723 0)
(0.0954115 0.0220921 0)
(0.0985874 0.0103155 0)
(0.101381 -0.00146082 0)
(0.00185251 0.161746 0)
(0.00462434 0.160705 0)
(0.00788499 0.157013 0)
(0.0113718 0.152993 0)
(0.0150735 0.148702 0)
(0.0189476 0.144093 0)
(0.0229674 0.139114 0)
(0.0271034 0.13372 0)
(0.0313229 0.127871 0)
(0.0355905 0.121538 0)
(0.0398685 0.114697 0)
(0.0441177 0.107333 0)
(0.0482981 0.0994429 0)
(0.0523698 0.0910278 0)
(0.0562944 0.0820988 0)
(0.0600362 0.0726735 0)
(0.063564 0.062775 0)
(0.0668546 0.0524316 0)
(0.0698971 0.041679 0)
(0.0726987 0.0305677 0)
(0.0752889 0.0191839 0)
(0.0776998 0.00769135 0)
(0.0798264 -0.00365508 0)
(0.00142311 0.159063 0)
(0.00349295 0.157899 0)
(0.00601693 0.154018 0)
(0.00873946 0.149807 0)
(0.0116499 0.145346 0)
(0.0147077 0.140591 0)
(0.0178868 0.135494 0)
(0.021161 0.130011 0)
(0.0245023 0.124104 0)
(0.0278808 0.117746 0)
(0.0312643 0.110916 0)
(0.0346181 0.103602 0)
(0.0379056 0.0957979 0)
(0.0410889 0.0875078 0)
(0.0441287 0.078741 0)
(0.0469865 0.0695117 0)
(0.0496267 0.0598364 0)
(0.0520207 0.049731 0)
(0.0541552 0.039211 0)
(0.056047 0.0282972 0)
(0.0577726 0.0170505 0)
(0.0594653 0.00568928 0)
(0.0609851 -0.005262 0)
(0.000969033 0.157087 0)
(0.00248319 0.1558 0)
(0.0044138 0.151726 0)
(0.00652669 0.147338 0)
(0.00880693 0.142726 0)
(0.0112159 0.137848 0)
(0.0137289 0.132652 0)
(0.0163223 0.127095 0)
(0.0189717 0.121143 0)
(0.021651 0.114767 0)
(0.0243317 0.107951 0)
(0.0269824 0.100683 0)
(0.0295684 0.0929633 0)
(0.0320518 0.0847957 0)
(0.0343903 0.0761917 0)
(0.0365385 0.0671654 0)
(0.0384482 0.0577296 0)
(0.0400724 0.0478887 0)
(0.0413718 0.0376309 0)