/*--------------------------------*- C++ -*----------------------------------*\
  =========                 |
  \\      /  F ield         | OpenFOAM: The Open Source CFD Toolbox
   \\    /   O peration     | Website:  https://openfoam.org
    \\  /    A nd           | Version:  13
     \\/     M anipulation  |
\*---------------------------------------------------------------------------*/
FoamFile
{
    format      ascii;
    class       volScalarField;
    location    "1.4";
    object      alpha.air;
}
// * * * * * * * * * * * * * * * * * * * * * * * * * * * * * * * * * * * * * //

dimensions      [];

internalField   nonuniform List<scalar> 
2268
(
1.27974e-13
1.49712e-13
1.65178e-13
1.38534e-13
1.12865e-13
8.23206e-14
4.63954e-14
2.07675e-14
8.79019e-15
4.13074e-15
2.44942e-15
1.75302e-15
1.1977e-15
7.81674e-16
6.58152e-16
6.56246e-16
7.23267e-16
1.04158e-15
2.99387e-15
1.4084e-14
3.80795e-14
2.06429e-14
3.21162e-15
8.60282e-13
1.35902e-12
1.37553e-12
1.13575e-12
1.04051e-12
7.99681e-13
4.96281e-13
2.87248e-13
1.30801e-13
6.71943e-14
3.78978e-14
2.34368e-14
1.51721e-14
9.76837e-15
8.02368e-15
7.63335e-15
7.66962e-15
9.86965e-15
2.87293e-14
7.96335e-14
2.31854e-13
2.84069e-13
7.69883e-14
4.37804e-12
5.46855e-12
4.41181e-12
3.46636e-12
3.22608e-12
2.74833e-12
1.94366e-12
1.19423e-12
6.84997e-13
3.47347e-13
2.06867e-13
1.3021e-13
9.03888e-14
6.44227e-14
4.6296e-14
4.2586e-14
4.25312e-14
4.68917e-14
1.09906e-13
4.4968e-13
1.17617e-12
1.99377e-12
1.32959e-12
1.30735e-11
1.37851e-11
1.32259e-11
1.24059e-11
9.91663e-12
8.35249e-12
6.52254e-12
4.5402e-12
2.68666e-12
1.43521e-12
7.99947e-13
4.01956e-13
2.85752e-13
2.3506e-13
2.04832e-13
1.77594e-13
1.73772e-13
1.53192e-13
2.86058e-13
6.37641e-13
1.32054e-12
2.8715e-12
3.97546e-12
7.05203e-11
7.30915e-11
6.97884e-11
6.13059e-11
4.57364e-11
2.81395e-11
1.75201e-11
1.2337e-11
9.44107e-12
7.49348e-12
5.25881e-12
3.31786e-12
2.44153e-12
2.32785e-12
1.95752e-12
1.64484e-12
6.75127e-13
3.66816e-13
2.6414e-13
3.07397e-13
3.13761e-13
6.48009e-14
3.77774e-14
2.75545e-10
2.62014e-10
2.50453e-10
2.33933e-10
2.08762e-10
1.66555e-10
1.08373e-10
7.13402e-11
4.44735e-11
2.79044e-11
1.73529e-11
1.28087e-11
1.1419e-11
1.30821e-11
2.62597e-11
2.95203e-11
7.41938e-11
7.01147e-09
7.19714e-09
1.21665e-10
2.08667e-06
1.56381e-06
1.94322e-06
4.67819e-10
4.07077e-10
3.8368e-10
3.76402e-10
4.02622e-10
4.63362e-10
4.84229e-10
4.11457e-10
2.90017e-10
1.87938e-10
1.15307e-10
7.16262e-11
5.16709e-11
4.43206e-11
7.25562e-11
3.61333e-11
1.62427e-10
6.07095e-09
4.79478e-10
1.86299e-05
8.66248e-05
6.39318e-05
4.6079e-06
9.40562e-10
5.94764e-10
4.8124e-10
4.80644e-10
6.4543e-10
1.09395e-09
1.12487e-09
9.78157e-10
7.29556e-10
4.9503e-10
3.56572e-10
2.53951e-10
1.98616e-10
1.77923e-10
2.43977e-10
2.92593e-10
9.34993e-10
1.40908e-09
5.17414e-10
4.56944e-05
9.15258e-05
6.93682e-05
2.0032e-06
0.00266572
0.0438662
0.0625838
0.0832008
0.0837577
0.0825598
0.0497075
0.0477862
0.0480234
0.0608875
0.151508
0.221332
0.128229
0.091497
0.0106287
0.00928456
0.0110484
0.0167813
0.0147646
0.00102251
0.00165883
1.17734e-06
0.000101458
0.00187288
0.00159362
0.06332
0.166881
0.194793
0.161319
0.156673
0.272966
0.31744
0.224034
0.0936318
0.0230098
0.0299358
0.0568403
0.0174524
1.10804e-06
2.63211e-06
2.86173e-05
2.1532e-05
2.23268e-05
0.0200236
0.329223
0.555362
0.554652
0.529061
0.40167
0.392325
0.482978
0.497016
0.497036
0.396818
0.33632
0.259216
0.0704782
2.63129e-06
0.000169721
8.50313e-05
0.000304291
0.000142365
0.00616465
0.180871
0.396796
0.498131
0.53649
0.536639
0.506346
0.420761
0.397382
0.4325
0.451931
0.435382
0.232634
0.0891653
0.000186915
0.00649252
0.000209722
0.000159931
9.46282e-05
1.10476e-05
7.84576e-12
1.86591e-14
-8.15398e-10
0.0939676
0.353675
0.507284
0.313078
0.0392446
0.0345492
0.0803349
0.00104906
0.0012097
0.050352
0.00104674
0.0334208
0.00632305
1.31899e-05
1.89266e-05
6.50464e-06
1.24722e-05
1.68274e-06
6.14392e-09
1.75012e-08
0.00248738
0.0536182
0.0428596
0.0220179
0.0107027
0.00143814
0.00147424
0.00488132
0.089148
0.000419315
0.0329195
0.0161918
4.66957e-05
7.91829e-06
1.32124e-05
3.12566e-05
4.86256e-05
6.42291e-05
7.65784e-05
1.8112e-05
5.81934e-08
1.49464e-08
9.23808e-08
7.85368e-08
0.00260152
0.00299021
0.0134072
0.118927
0.000364776
0.0180284
0.014919
0.000381143
1.67857e-05
6.79246e-05
0.000358984
0.000236273
8.49377e-05
0.000122544
9.94616e-05
5.09137e-05
1.15467e-05
3.41659e-06
1.38197e-05
1.47841e-05
2.985e-05
0.00231988
0.116873
1.94528e-09
1.09225e-09
6.27356e-10
7.11709e-10
1.51421e-09
2.98786e-09
3.09669e-09
2.62418e-09
1.90312e-09
1.1801e-09
7.90429e-10
4.98673e-10
4.21388e-10
4.52973e-10
5.61473e-10
6.12067e-10
5.44807e-10
9.68337e-11
1.25449e-07
5.46357e-06
2.01894e-05
6.18705e-06
7.50036e-11
4.19677e-09
2.22216e-09
8.01319e-10
2.19442e-09
8.09899e-09
1.32767e-08
1.39598e-08
1.17558e-08
9.13223e-09
6.0049e-09
3.27894e-09
1.4401e-09
8.18761e-10
9.39919e-10
1.19647e-09
1.37462e-09
1.07444e-09
-4.0515e-26
8.68087e-08
-1.69021e-09
1.72851e-09
-4.07796e-07
0.0213209
5.96889e-09
3.02193e-09
1.27427e-09
8.24169e-10
2.8682e-08
6.50914e-08
3.28494e-08
1.44475e-07
2.59929e-08
1.97969e-08
1.27422e-08
5.53208e-09
2.30984e-09
3.70705e-09
4.21339e-09
-2.03184e-13
1.42435e-27
-6.92493e-28
1.73753e-15
3.50784e-15
2.41258e-15
0.0541311
0.231827
7.82526e-09
3.30552e-09
8.34635e-09
0.000541669
0.00104924
0.000270987
0.000117643
0.000550213
1.10291e-07
1.15383e-07
1.07529e-07
9.03517e-08
6.38908e-08
1.36893e-07
0.0011288
0.00489503
0.000709719
9.00611e-06
0.0361134
0.13737
0.203243
0.209451
0.207813
1.98592e-08
0.00222929
0.0493262
0.019393
0.017947
0.0506799
0.112358
0.132847
0.113295
0.110496
0.138676
0.140858
0.116045
0.101484
0.137563
0.243365
0.270428
0.271737
0.273164
0.271448
0.178905
0.0771051
0.0100015
0.211892
0.272068
0.0993448
0.0230441
0.0207368
0.10467
0.227755
0.23091
0.228912
0.253631
0.305611
0.308815
0.298623
0.297051
0.29115
0.24397
0.14145
0.0834571
0.0619047
0.0330089
0.00601392
4.65307e-05
6.66511e-09
0.871239
0.404582
0.0161143
0.0124887
0.0124632
0.0204106
0.0448174
0.0688547
0.0345385
0.049767
0.0288492
0.0221494
0.0132237
0.0015028
2.51866e-06
3.61611e-07
3.72349e-07
1.05173e-06
1.38941e-06
2.63721e-07
1.15112e-08
2.57309e-09
1.2481e-08
0.919655
0.423408
0.306508
0.182574
0.062163
0.0107846
1.01781e-18
3.0144e-19
1.43819e-19
1.46752e-19
1.71274e-20
2.38604e-15
-4.28429e-20
1.14047e-35
4.95239e-34
7.361e-21
8.88106e-07
1.57507e-06
1.23803e-06
1.78071e-07
2.06616e-09
4.43899e-09
4.78001e-09
0.935582
0.974314
0.999968
0.940263
0.77502
0.569319
0.360508
0.211905
0.119803
0.0560964
0.0200596
0.00320317
1.38638e-18
3.04294e-19
2.67569e-20
-1.4437e-18
-5.57592e-09
5.89658e-09
4.49037e-08
1.7969e-08
1.24846e-08
-1.6244e-19
2.91399e-20
0.96505
0.999991
0.99999
0.999992
0.999999
1
1
0.958504
0.876113
0.777457
0.664848
0.541359
0.41219
0.296872
0.221534
0.161706
0.117031
0.0887529
0.0712989
0.0599605
0.0568033
0.0628065
0.0828389
0.986268
0.997576
1
1
1
1
1
1
1
1
1
1
1
0.992173
0.956234
0.916661
0.873993
0.837168
0.809148
0.789614
0.788265
0.815344
0.872172
0.998889
0.999593
0.999996
1
1
1
1
1
1
1
1
1
1
1
1
1
1
1
1
1
1
1
1
0.999999
0.999998
0.999997
1
1
1
1
0.999999
0.999996
0.999992
0.999986
0.999997
1
1
1
1
1
1
1
0.999999
0.999999
0.999999
0.999999
0.999999
0.999998
0.999998
1
1
1
1
0.999999
0.999994
0.999898
0.999849
0.999973
0.999999
1
1
1
1
0.999999
0.999999
0.999999
0.999999
0.999999
1
1
0.999999
1
1
1
1
1
1
0.999991
0.999831
0.999825
0.999849
0.999997
0.999999
0.999999
0.999999
0.999999
0.999999
0.999999
0.999999
1
1
1
1
1
1
1
1
1
1
1
1
0.99994
0.999828
0.999826
0.999908
0.999998
0.999999
0.999997
0.999997
0.999998
1
1
1
1
1
1
1
1
1
1
1
1
1
1
1
0.999942
0.999828
0.999856
0.999997
0.999997
0.999997
0.999997
0.999997
1
1
1
1
1
1
1
1
1
1
1
1
1
1
1
1
0.999998
0.999975
0.999962
0.999998
0.999999
0.999998
0.999998
1
1
1
1
1
1
1
1
1
1
1
1
1
1
1
1
1
1
0.999998
0.999994
0.999999
1
1
1
1
1
1
1
1
1
1
1
1
1
1
1
1
1
1
1
1
1
0.999998
0.999998
0.999999
1
1
1
1
1
1
1
1
1
1
1
1
1
1
1
1
1
1
1
1
1
1
1
1
1
1
1
1
1
1
1
1
1
1
1
1
1
1
1
1
1
1
1
1
1
1
1
1
1
1
1
1
1
1
1
1
1
1
1
1
1
1
1
1
1
1
1
1
1
1
1
1
1
1
1
1
1
1
1
1
1
1
1
1
1
1
1
1
1
1
1
1
1
1
1
1
1
1
1
1
1
1
1
1
1
1
1
1
1
1
1
1
1
1
1
1
1
1
1
1
1
1
1
1
1
1
1
1
1
1
1
1
1
1
1
1
1
1
1
1
1
1
1
1
1
1
1
1
1
1
1
1
1
1
1
1
1
1
1
1
1
1
1
1
1
1
1
1
1
1
1
1
1
1
1
1
1
1
1
1
1
1
1
1
1
1
1
1
1
1
1
1
1
1
1
1
1
1
1
1
1
1
1
1
1
1
1
1
1
1
1
1
1
1
1
1
1
1
1
1
1
1
1
1
1
1
1
1
1
1
1
1
1
1
1
1
1
1
1
1
1
1
1
1
1
1
1
1
1
1
1
1
1
1
1
1
1
1
1
1
1
1
1
1
1
1
1
1
1
1
1
1
1
1
1
1
1
1
1
1
1
1
1
1
1
1
1
1
1
1
1
1
1
1
1
1
1
1
1
1
1
1
1
1
1
1
1
1
1
1
1
1
1
1
1
1
1
1
1
1
1
1
1
1
1
1
1
1
1
1
1
1
1
1
1
1
1
1
1
1
1
1
1
1
1
1
1
1
1
1
1
1
1
1
1
1
1
1
1
1
1
1
1
1
1
1
1
1
1
1
1
1
1
1
1
1
1
1
1
1
1
1
1
1
1
1
1
1
1
1
1
1
1
1
1
1
1
1
1
1
1
1
1
1
1
1
1
1
1
1
1
1
1
1
1
1
1
1
1
1
1
1
1
1
1
1
1
1
1
1
1
1
1
1
1
1
1
1
1
1
1
1
1
1
1
1
1
1
1
1
1
1
1
1
1
1
1
1
1
1
1
1
1
1
1
1
1
1
1
1
1
1
1
1
1
1
1
1
1
1
1
1
1
1
1
1
1
1
1
1
1
1
1
1
1
1
1
1
1
1
1
1
1
1
1
1
1
1
1
1
1
1
4.45172e-08
0.165534
0.233117
0.22085
0.213581
0.233404
0.23315
0.233117
0.233406
0.233314
0.233406
0.225034
0.114234
0.0665845
0.0549298
0.0106108
0.000174064
2.99509e-07
5.42678e-08
2.46297e-05
8.72278e-10
2.66305e-09
-3.89977e-10
7.08769e-07
5.07395e-09
1.22189e-10
4.55984e-11
4.51589e-07
3.45362e-09
6.49366e-09
-9.90823e-10
1.69582e-09
-5.63948e-20
-3.50509e-11
8.9957e-19
1.40853e-08
0.102538
0.129772
0.195464
0.219191
0.91726
0.94216
0.962157
0.99373
1
1
1
1
0.999999
0.999999
0.999999
0.999999
1
1
1
1
1
1
1
1
1
1
1
1
1
1
1
1
1
1
1
1
1
1
1
1
1
1
1
1
1
1
1
1
1
1
1
1
1
1
1
1
1
1
1
1
1
1
1
1
1
1
1
1
1
1
1
1
1
1
1
1
1
1
1
1
1
1
1
1
1
1
1
1
1
1
1
1
1
1
1
1
1
1
1
1
1
1
1
1
1
1
1
1
1
1
1
1
1
1
1
1
1
1
1
1
1
1
1
1
1
1
1
1
1
1
1
1
0.0107697
0.00682764
0.00330987
0.000786077
0.00127322
0.0043437
0.00476846
0.00123167
6.73905e-05
8.71301e-05
0.000200821
0.00020915
0.000210163
0.00015043
0.000312418
0.000816
0.000726261
5.28111e-05
0.0651692
0.0893211
0.0821131
0.0681614
0.0427427
0.053259
0.0486155
0.00946826
3.45578e-05
6.72773e-05
7.8034e-05
0.000100973
8.8269e-05
9.08823e-05
0.000257755
0.000901731
0.000902187
0.000681632
3.24429e-05
0.0458304
0.0118417
0.129477
0.180473
0.180569
0.180498
0.103744
0.000421948
9.33558e-06
0.00023851
0.000254702
0.000171307
7.37992e-06
4.78573e-06
3.72759e-05
0.000110327
0.000132788
5.02018e-05
3.52827e-05
0.09576
2.60805e-05
0.0171404
0.172614
0.180462
0.180463
0.0603165
-3.40947e-19
1.6247e-09
4.43055e-07
3.85316e-06
3.18014e-06
5.49028e-07
2.63536e-07
3.60144e-08
1.24062e-09
4.08924e-06
4.8865e-06
0.0156274
0.179036
2.66668e-06
5.7354e-09
0.0421759
0.0939922
0.0437603
0.000553684
6.9133e-09
1.851e-08
2.28511e-07
0.000170285
6.72159e-05
4.14168e-07
1.838e-07
1.24062e-09
1.02119e-08
4.00157e-06
0.000256179
0.0683451
0.248059
1.92045e-07
0.000145024
1.34253e-09
2.70077e-09
1.72959e-14
4.34433e-08
2.87221e-08
5.92237e-08
0.00017527
6.74465e-07
1.64246e-06
0.00770408
0.230835
0.351354
0.354163
0.397028
0.472377
0.476626
0.487936
2.62468e-06
5.36312e-07
2.06659e-08
5.23171e-08
1.66306e-07
1.59519e-07
2.09526e-07
0.0129499
0.0181958
0.232358
0.676408
0.867547
0.960962
0.980441
0.982296
0.989472
0.996422
0.989452
0.952692
6.54103e-07
4.21501e-08
5.14774e-08
7.18117e-08
0.0058929
0.0770737
0.18936
0.572712
0.967324
0.993586
0.999997
0.999997
0.999997
0.999997
0.999988
0.999779
0.999479
0.999985
0.999996
2.50036e-08
0.00788201
0.099343
0.197334
0.403543
0.866749
0.999999
1
0.999998
0.999998
1
1
1
0.999366
0.997556
0.997192
0.999003
1
1
0.252075
0.451996
0.889252
1
1
1
1
1
1
0.999889
1
1
0.999978
0.996847
0.996869
0.998079
0.999471
1
1
1
1
1
1
1
1
1
0.999954
0.999262
0.998936
0.999535
1
0.999782
0.997575
0.998681
0.999982
0.999993
1
1
1
1
1
1
0.999999
0.999999
1
0.999753
0.998935
0.998917
0.999467
1
0.999851
0.999921
1
1
1
1
0.999999
1
1
1
0.999999
0.999999
0.999999
0.999984
0.999892
0.999656
0.999557
0.999913
1
0.999998
1
1
1
1
0.999999
0.999998
1
1
1
1
0.999999
0.999998
0.999996
1
1
1
1
0.999998
1
1
1
1
1
0.999999
0.999998
1
1
1
1
1
1
1
1
1
1
1
0.999998
1
1
1
1
1
1
0.999999
1
1
1
1
1
1
1
1
1
1
1
1
1
1
1
1
1
1
1
1
1
1
1
1
1
1
1
1
1
1
1
1
1
1
1
1
1
1
1
1
1
1
1
1
1
1
1
1
1
1
1
1
1
1
1
1
1
1
1
1
1
1
1
1
1
1
1
1
1
1
1
1
1
1
1
1
1
1
1
1
1
1
1
1
1
1
1
1
1
1
1
1
1
1
1
1
1
1
1
1
1
1
1
1
1
1
1
1
1
1
1
1
1
1
1
1
1
1
1
1
1
1
1
1
1
1
1
1
1
1
1
1
1
1
1
1
1
1
1
1
1
1
1
1
1
1
1
1
1
1
1
1
1
1
1
1
1
1
1
1
1
1
1
1
1
1
1
1
1
1
1
1
1
1
1
1
1
1
1
1
1
1
1
1
1
1
1
1
1
1
1
1
1
1
1
1
1
1
1
1
1
1
1
1
1
1
1
1
1
1
1
1
1
1
1
1
1
1
1
1
1
1
1
1
1
1
1
1
1
1
1
1
1
1
1
1
1
1
1
1
1
1
1
1
1
1
1
1
1
1
1
1
1
1
1
1
1
1
1
1
1
1
1
1
1
1
1
1
1
1
1
1
1
1
1
1
1
1
1
1
1
1
1
1
1
1
1
1
1
1
1
1
1
1
1
1
1
1
1
1
1
1
1
1
1
1
1
1
1
1
1
1
1
1
1
1
1
1
1
1
1
1
1
1
1
1
1
1
1
1
1
1
1
1
1
1
1
1
1
1
1
1
1
1
1
1
1
1
1
1
1
1
1
1
1
1
1
1
1
1
1
1
1
1
1
1
1
1
1
1
1
1
1
1
1
1
1
1
1
1
1
1
1
1
1
1
1
1
1
1
1
1
1
1
1
1
1
1
1
1
1
1
1
1
1
1
1
1
1
1
1
1
1
1
1
1
1
1
1
1
1
1
1
1
1
1
1
1
1
1
1
1
1
1
1
1
1
1
1
1
1
1
1
1
1
1
1
1
1
1
1
1
1
1
1
1
1
1
1
1
1
1
1
1
1
1
1
1
1
1
1
1
1
1
1
1
1
1
1
1
1
1
1
1
1
1
1
1
1
1
1
1
1
1
1
1
1
1
1
1
1
1
1
1
1
1
1
1
1
1
1
1
1
)
;

boundaryField
{
    leftWall
    {
        type            alphaContactAngle;
        contactAngleProperties 
        {
            mercury         
            {
                theta0          90;
            }
            water           
            {
                theta0          90;
            }
            oil             
            {
                theta0          90;
            }
        }
        value           nonuniform List<scalar> 
50
(
1.27974e-13
8.60282e-13
4.37804e-12
1.30735e-11
7.05203e-11
2.75545e-10
4.67819e-10
9.40562e-10
1.94528e-09
4.19677e-09
5.96889e-09
7.82526e-09
1.98592e-08
0.211892
0.871239
0.919655
0.935582
0.96505
0.986268
0.998889
0.999999
0.999999
1
1
1
1
1
1
1
1
1
1
1
1
1
1
1
1
1
1
1
1
1
1
1
1
1
1
1
1
)
;
    }
    rightWall
    {
        type            alphaContactAngle;
        contactAngleProperties 
        {
            mercury         
            {
                theta0          90;
            }
            water           
            {
                theta0          90;
            }
            oil             
            {
                theta0          90;
            }
        }
        value           nonuniform List<scalar> 
50
(
0.0147646
0.0174524
0.0704782
0.0891653
0.050352
0.089148
0.118927
0.116873
0.0651692
0.0458304
0.09576
0.179036
0.248059
0.487936
0.952692
0.999996
1
1
1
0.999999
0.999998
0.999998
0.999999
1
1
1
1
1
1
1
1
1
1
1
1
1
1
1
1
1
1
1
1
1
1
1
1
1
1
1
)
;
    }
    lowerWall
    {
        type            alphaContactAngle;
        contactAngleProperties 
        {
            mercury         
            {
                theta0          90;
            }
            water           
            {
                theta0          90;
            }
            oil             
            {
                theta0          90;
            }
        }
        value           nonuniform List<scalar> 
62
(
1.27974e-13
1.49712e-13
1.65178e-13
1.38534e-13
1.12865e-13
8.23206e-14
4.63954e-14
2.07675e-14
8.79019e-15
4.13074e-15
2.44942e-15
1.75302e-15
1.1977e-15
7.81674e-16
6.58152e-16
6.56246e-16
7.23267e-16
1.04158e-15
2.99387e-15
1.4084e-14
3.80795e-14
2.06429e-14
3.21162e-15
3.21162e-15
7.69883e-14
1.32959e-12
3.97546e-12
3.77774e-14
1.94322e-06
4.6079e-06
2.0032e-06
4.45172e-08
0.165534
0.233117
0.22085
0.00266572
0.00102251
1.10804e-06
2.63129e-06
0.000186915
0.00104674
0.000419315
0.000364776
0.00266572
0.0438662
0.0625838
0.0832008
0.0837577
0.0825598
0.0497075
0.0477862
0.0480234
0.0608875
0.151508
0.221332
0.128229
0.091497
0.0106287
0.00928456
0.0110484
0.0167813
0.0147646
)
;
    }
    atmosphere
    {
        type            inletOutlet;
        inletValue      uniform 1;
        value           nonuniform List<scalar> 
46
(
1
1
1
1
1
1
1
1
1
1
1
1
1
1
1
1
1
1
1
1
1
1
1
1
1
1
1
1
1
1
1
1
1
1
1
1
1
1
1
1
1
1
1
1
1
1
)
;
    }
    defaultFaces
    {
        type            empty;
    }
}


// ************************************************************************* //
