/*--------------------------------*- C++ -*----------------------------------*\
  =========                 |
  \\      /  F ield         | OpenFOAM: The Open Source CFD Toolbox
   \\    /   O peration     | Website:  https://openfoam.org
    \\  /    A nd           | Version:  13
     \\/     M anipulation  |
\*---------------------------------------------------------------------------*/
FoamFile
{
    format      ascii;
    class       volScalarField;
    location    "1.4";
    object      alpha.water;
}
// * * * * * * * * * * * * * * * * * * * * * * * * * * * * * * * * * * * * * //

dimensions      [];

internalField   nonuniform List<scalar> 
2268
(
2.47507e-11
4.61173e-11
7.21465e-11
8.026e-11
8.26888e-11
8.65206e-11
8.77673e-11
8.73246e-11
8.64285e-11
8.54995e-11
8.70756e-11
9.51442e-11
1.05629e-10
1.25401e-10
1.56339e-10
2.04692e-10
2.77419e-10
3.77271e-10
6.04392e-10
1.0152e-09
1.75695e-09
2.42914e-09
2.57776e-09
7.34422e-11
2.69584e-10
3.02668e-10
2.85361e-10
2.67382e-10
2.72456e-10
2.95341e-10
3.24693e-10
3.49047e-10
3.66143e-10
3.70059e-10
3.65108e-10
3.59153e-10
3.52781e-10
3.65961e-10
3.93019e-10
4.48515e-10
5.7415e-10
8.86839e-10
1.38023e-09
2.5572e-09
3.17637e-09
2.90535e-09
7.76207e-10
1.50276e-09
6.49405e-10
4.89214e-10
4.18599e-10
4.23249e-10
4.77276e-10
5.57957e-10
6.86e-10
8.08555e-10
9.22532e-10
1.00769e-09
1.04763e-09
1.03753e-09
9.60519e-10
7.86353e-10
6.62131e-10
7.26439e-10
1.03083e-09
1.48346e-09
2.54992e-09
3.17846e-09
2.96798e-09
3.44611e-10
3.30513e-10
3.31245e-10
3.22491e-10
3.1513e-10
3.17998e-10
3.11537e-10
3.59357e-10
6.16713e-10
8.84578e-10
1.23962e-09
1.54159e-09
1.79202e-09
1.93226e-09
1.898e-09
1.2865e-09
7.00398e-10
7.14554e-10
9.00309e-10
1.26153e-09
1.77942e-09
2.29261e-09
1.74582e-09
0.0182269
0.0149584
0.0132862
0.00972613
0.00349462
3.15238e-10
3.60788e-10
4.87977e-10
8.17059e-12
6.52367e-10
5.38914e-10
8.12505e-10
1.02207e-09
1.13244e-09
8.72036e-10
6.09204e-10
4.07264e-10
3.34845e-10
3.41555e-10
3.91897e-10
4.82357e-10
4.1567e-10
2.39028e-10
0.661832
0.629298
0.616767
0.593033
0.53191
0.424483
0.285845
0.173859
0.0821195
0.0230412
0.00110454
2.58076e-11
-2.06718e-13
2.49424e-11
-6.96596e-12
-1.63542e-21
-7.13919e-13
2.66533e-11
2.33293e-11
6.39325e-12
1.84975e-20
5.60525e-12
1.74408e-12
1
1
1
1
1
1
0.996496
0.938162
0.837234
0.688259
0.498651
0.31344
0.186871
0.0920688
0.0313795
0.00643752
2.19507e-07
5.35405e-08
-1.46485e-07
9.29053e-08
-1.02307e-07
1.02301e-07
8.42828e-13
1
1
1
1
1
1
1
1
1
1
1
0.983903
0.916688
0.844543
0.77216
0.703148
0.656394
0.635515
0.624348
0.60865
0.589628
0.512053
0.239717
0.0153299
0.0366315
0.0448043
0.0148127
0.00574333
0.00597678
0.00517661
0.0026591
0.00222792
0.0012915
0.00140786
0.0504258
0.123212
0.123212
0.123212
0.0575899
0.0214759
0.018889
0.018889
0.0162579
0.0862561
0.136142
0.12543
0.110366
0.116643
0.0860053
0.0196044
0.00128969
0.00129164
0.00188556
0.00948692
0.0208639
0.0828497
0.123176
0.118624
0.0604317
0.018889
0.018889
0.0260465
0.213864
0.581657
0.54328
0.608455
0.680245
0.441001
0.14267
0.0279929
0.00179543
0.00130007
0.00130012
0.00131817
0.0181821
0.0254901
0.0373972
0.0497363
0.0960618
0.0191095
0.0355806
0.260936
0.824926
0.993543
0.998882
0.993835
0.813864
0.462813
0.261854
0.190297
0.0673449
0.0228976
0.0590837
0.111578
0.076656
0.0989672
0.198485
0.271236
0.197261
0.0237392
0.184678
0.856753
0.999813
0.999874
0.999519
0.998524
0.987578
0.915028
0.692675
0.41125
0.297874
0.403127
0.609035
0.58264
0.537051
0.668705
0.54581
0.378525
0.00258749
0.157731
0.873852
0.999899
0.999899
0.999131
0.998538
0.998673
0.99962
0.997971
0.886127
0.763328
0.785006
0.861095
0.859184
0.856302
0.85266
0.746672
0.439265
0.00087166
0.148418
0.833137
0.999874
0.999899
0.99989
0.999844
0.999894
0.999896
0.999885
0.999806
0.941374
0.936906
0.867304
0.699123
0.496914
0.483811
0.463528
0.408508
0.00068212
0.127014
0.829424
0.997483
0.999899
0.999899
0.999619
0.999742
0.999893
0.999846
0.999763
0.999742
0.971593
0.6879
0.247746
0.0375149
0.0267235
0.178728
0.219914
1
1
1
1
1
1
1
1
1
1
1
1
1
1
1
1
1
1
0.999998
0.999992
0.999952
0.998649
0.971691
1
1
1
1
1
1
1
1
1
1
1
1
1
1
1
1
1
1
1
1
0.999993
0.999799
0.975971
1
1
1
1
1
1
1
1
1
1
1
1
1
1
1
1
1
1
1
1
0.999999
0.945869
0.765909
1
1
1
0.999458
0.998951
0.999729
0.999882
0.99945
1
1
1
1
1
1
0.998871
0.995105
0.99929
0.999991
0.963887
0.86263
0.796757
0.692506
0.153334
1
0.997771
0.913033
0.809982
0.767678
0.78509
0.794506
0.820174
0.851461
0.865347
0.845171
0.846944
0.873431
0.882296
0.832229
0.728202
0.713737
0.688557
0.534057
0.319882
0.170134
0.0263875
3.17394e-09
0.788108
0.577805
0.197817
0.0554914
0.0379277
0.0605642
0.0781723
0.130477
0.152831
0.172939
0.166646
0.179839
0.19299
0.175569
0.12409
0.0747492
0.0422632
0.0220466
0.00454649
1.19503e-07
3.53641e-08
4.18656e-08
3.49512e-08
0.107516
-1.63218e-09
3.2619e-12
1.74527e-11
6.5887e-12
-1.53431e-23
-2.87549e-11
3.38433e-20
4.08052e-19
2.15235e-19
2.4045e-26
2.02575e-26
-2.69002e-26
2.62065e-26
1.76164e-19
1.13274e-08
2.14667e-09
3.48842e-09
1.2406e-07
1.28292e-06
1.49151e-06
6.2139e-07
2.67269e-09
-1.36465e-19
1.86168e-07
1.25233e-05
2.268e-05
1.79154e-05
2.54918e-06
-1.6206e-24
1.04863e-07
1.89941e-07
6.88419e-08
2.68186e-08
9.51984e-09
9.87188e-09
8.83157e-09
1.45356e-07
3.76348e-07
3.90556e-07
3.75197e-07
6.15811e-07
1.39822e-06
9.97594e-07
1.27269e-07
2.19792e-09
4.38593e-09
2.91705e-06
3.19535e-05
3.64491e-05
3.37057e-05
1.99347e-06
6.85842e-14
3.19052e-07
5.17744e-07
3.34164e-07
2.21006e-08
9.52517e-09
1.41298e-08
1.48216e-08
7.91716e-08
2.91173e-07
2.04573e-07
2.80429e-08
1.58068e-09
8.33303e-09
1.69906e-08
1.40055e-08
5.13419e-09
1.50258e-21
4.38709e-06
9.65865e-06
8.4822e-06
1.48863e-06
2.78264e-08
2.79187e-08
2.61578e-07
5.18705e-07
5.01002e-07
6.15e-08
4.2321e-08
1.79351e-08
3.9451e-09
4.52408e-10
4.46057e-10
4.52407e-10
2.22576e-09
1.57127e-09
2.28062e-10
1.70031e-10
1.68233e-10
2.09067e-10
-2.40224e-08
7.82063e-07
1.03368e-12
2.91645e-23
-5.33149e-13
2.62372e-09
3.25785e-08
3.3063e-08
8.49931e-08
1.46872e-07
3.1047e-07
2.91591e-07
6.15485e-08
1.08424e-09
6.50015e-10
4.50256e-10
4.46628e-10
7.3195e-10
7.00027e-10
4.62542e-10
2.62208e-10
1.84901e-10
1.75062e-10
-1.56413e-07
-1.41968e-08
-5.74356e-09
7.26211e-09
1.03478e-08
6.99577e-09
3.5102e-09
2.1338e-09
2.13776e-09
6.53437e-08
3.6432e-07
4.67568e-07
1.13014e-07
1.30367e-08
3.66771e-09
4.68e-10
6.08002e-10
9.73188e-10
6.08066e-10
5.00644e-10
4.40198e-10
4.45917e-10
4.37408e-10
-1.06541e-07
-6.61387e-09
8.83152e-09
1.8795e-08
1.63099e-08
3.93784e-09
6.77167e-10
1.7078e-09
1.64275e-08
5.68662e-07
1.9958e-06
1.58818e-06
4.07763e-07
6.46577e-08
1.37928e-08
2.48179e-10
1.92755e-10
2.43594e-10
6.22945e-10
5.68883e-10
7.21905e-10
5.21243e-10
4.83473e-10
4.58621e-08
4.46779e-08
1.48707e-08
2.32523e-08
2.00483e-08
1.99166e-09
7.63643e-10
1.70363e-09
2.10191e-10
9.25813e-07
2.53554e-06
2.47422e-06
1.35424e-06
3.30985e-07
2.06785e-07
1.92461e-07
2.70893e-07
7.86844e-08
1.55457e-09
6.43563e-10
1.17634e-09
4.75653e-10
4.66162e-10
4.48017e-08
1.29805e-08
1.28273e-08
1.81742e-08
8.10557e-09
2.99143e-09
1.14618e-09
4.86103e-10
2.26939e-10
3.43972e-07
1.94758e-06
2.53404e-06
2.14681e-06
9.30065e-07
5.60277e-07
9.47165e-07
1.30598e-06
3.4486e-07
3.81443e-09
9.63327e-10
7.8533e-09
6.83679e-09
3.16882e-09
1.8248e-08
1.18125e-08
6.6698e-09
5.02453e-09
3.98748e-09
4.18157e-09
1.8725e-09
4.48641e-10
2.24258e-10
2.14917e-10
3.40465e-07
1.90887e-06
2.51013e-06
2.41381e-06
1.40112e-06
2.78236e-06
3.03183e-06
1.69499e-06
5.90248e-08
4.58501e-09
3.53245e-08
4.5261e-08
3.13888e-08
2.15187e-08
1.63595e-08
3.74549e-09
2.99468e-09
3.33267e-09
3.65883e-09
2.40522e-09
9.4903e-10
3.609e-10
2.16139e-10
2.13312e-10
7.25599e-08
2.09941e-06
2.86982e-06
3.0673e-06
3.08984e-06
3.06729e-06
3.0188e-06
3.66174e-07
3.10487e-09
4.25267e-08
5.5033e-08
4.73013e-08
2.01522e-08
1.46114e-08
4.1487e-09
2.98499e-09
3.1741e-09
2.94592e-09
2.62781e-09
1.69576e-09
6.12836e-10
2.87333e-10
2.10393e-10
2.06958e-10
1.78653e-08
6.63864e-07
8.94658e-07
1.1003e-06
2.03968e-06
1.92717e-06
1.43524e-07
9.50852e-09
3.05217e-08
4.48472e-08
4.17912e-08
1.76069e-08
1.44566e-08
5.08889e-09
2.94435e-09
2.93325e-09
2.66163e-09
2.50317e-09
2.19331e-09
1.20833e-09
4.80958e-10
2.92915e-10
2.0517e-10
2.75826e-10
3.56582e-08
1.16361e-07
9.05951e-09
4.74321e-08
3.57738e-08
1.08917e-07
1.12269e-07
2.78891e-08
1.66852e-08
1.9208e-08
1.4262e-08
1.24022e-08
6.36241e-09
3.00334e-09
2.54943e-09
2.38731e-09
2.3026e-09
2.20204e-09
1.81687e-09
8.30269e-10
3.96649e-10
2.69e-10
2.05418e-10
1.93e-10
7.80263e-09
7.09649e-09
3.86808e-10
2.284e-08
2.37343e-08
3.48898e-08
2.19523e-08
4.71587e-09
4.20873e-09
1.18719e-08
9.94138e-09
6.27196e-09
3.08999e-09
2.37484e-09
2.05792e-09
1.94477e-09
1.97e-09
1.89521e-09
1.24361e-09
6.51551e-10
3.71043e-10
2.35514e-10
1.59096e-10
1.41981e-10
1.49557e-10
2.27804e-10
1.2123e-09
3.35897e-09
4.65201e-09
4.08908e-09
2.18618e-09
6.85127e-10
1.00816e-08
7.59703e-09
5.3618e-09
2.81894e-09
2.17296e-09
1.67817e-09
1.53031e-09
1.48894e-09
1.48789e-09
1.38639e-09
8.97615e-10
4.98051e-10
2.67375e-10
1.79782e-10
1.39034e-10
1.40224e-10
1.90086e-10
2.63367e-10
3.88481e-10
7.47041e-10
7.44599e-10
6.34916e-10
2.38082e-10
8.26104e-09
5.5242e-09
4.14154e-09
2.2685e-09
1.75316e-09
1.33016e-09
1.13889e-09
1.05142e-09
1.04385e-09
1.01815e-09
9.20571e-10
5.91082e-10
3.43694e-10
1.78689e-10
1.11307e-10
8.4365e-11
7.59197e-11
8.79239e-11
1.05142e-10
1.30454e-10
1.4836e-10
1.49074e-10
1.07098e-10
6.1362e-09
3.80312e-09
2.82564e-09
1.59593e-09
1.22327e-09
9.53673e-10
7.81171e-10
6.88211e-10
6.58873e-10
6.53485e-10
6.27075e-10
5.24498e-10
3.53935e-10
2.07207e-10
1.02461e-10
6.15135e-11
4.57556e-11
4.09476e-11
4.19926e-11
4.74458e-11
4.98892e-11
5.13933e-11
4.99005e-11
4.16531e-09
2.51585e-09
1.76964e-09
1.0451e-09
7.3763e-10
5.69779e-10
4.83497e-10
4.1634e-10
3.79888e-10
3.70241e-10
3.60502e-10
3.31668e-10
2.61726e-10
1.80965e-10
1.02315e-10
4.81155e-11
2.88213e-11
2.17727e-11
1.96229e-11
2.0304e-11
2.18791e-11
2.31648e-11
2.35025e-11
2.44954e-09
1.46091e-09
9.79466e-10
5.94352e-10
4.03432e-10
2.97071e-10
2.4983e-10
2.16558e-10
1.94086e-10
1.86456e-10
1.81606e-10
1.67254e-10
1.47146e-10
1.13039e-10
7.35286e-11
3.80977e-11
1.75174e-11
1.18478e-11
9.3439e-12
9.01086e-12
9.46879e-12
1.00997e-11
1.04144e-11
1.23662e-09
7.66394e-10
4.91662e-10
2.99185e-10
1.93468e-10
1.39285e-10
1.14977e-10
9.83235e-11
8.7584e-11
8.09114e-11
7.85202e-11
7.33724e-11
6.53426e-11
5.41005e-11
3.83178e-11
2.20462e-11
9.31912e-12
5.86438e-12
4.28433e-12
3.92106e-12
3.9769e-12
4.17179e-12
4.32789e-12
4.94777e-10
3.21874e-10
2.00201e-10
1.22091e-10
7.96614e-11
5.42076e-11
4.36504e-11
3.78557e-11
3.35655e-11
3.08649e-11
2.90556e-11
2.69497e-11
2.43348e-11
2.09325e-11
1.51795e-11
9.4157e-12
3.92853e-12
2.41876e-12
1.75605e-12
1.57022e-12
1.58764e-12
1.61511e-12
1.61452e-12
1.64336e-10
1.15485e-10
6.98898e-11
4.22598e-11
2.72971e-11
1.78301e-11
1.3978e-11
1.17796e-11
1.08008e-11
1.00255e-11
9.38624e-12
8.66875e-12
7.76389e-12
6.64864e-12
4.85211e-12
3.08759e-12
1.33989e-12
8.23571e-13
6.06557e-13
5.60677e-13
5.66434e-13
5.60062e-13
5.27162e-13
4.17747e-11
3.28295e-11
2.09968e-11
1.20697e-11
7.36022e-12
4.85193e-12
3.72e-12
3.10229e-12
2.84378e-12
2.66509e-12
2.52223e-12
2.28352e-12
2.05606e-12
1.74739e-12
1.26731e-12
8.04216e-13
3.98794e-13
2.12842e-13
1.8181e-13
1.76932e-13
1.79994e-13
1.73162e-13
1.52154e-13
7.25303e-12
7.2125e-12
4.69802e-12
2.7096e-12
1.68253e-12
1.11066e-12
8.16336e-13
6.86019e-13
6.22187e-13
5.90233e-13
5.5794e-13
5.1239e-13
4.61286e-13
3.7743e-13
2.72618e-13
1.69148e-13
8.95266e-14
5.27226e-14
4.94147e-14
4.99002e-14
4.94974e-14
4.44008e-14
3.5988e-14
1.25172e-12
1.35083e-12
9.30775e-13
5.45087e-13
3.16525e-13
2.02695e-13
1.46847e-13
1.25699e-13
1.10267e-13
1.05859e-13
1.01454e-13
9.41116e-14
8.4933e-14
6.84584e-14
4.75007e-14
2.84736e-14
1.59204e-14
1.19528e-14
1.18496e-14
1.20748e-14
1.17261e-14
9.63638e-15
7.31084e-15
1.77686e-13
2.10449e-13
1.48709e-13
8.93131e-14
5.24145e-14
3.31501e-14
2.18663e-14
1.60084e-14
1.51492e-14
1.46342e-14
1.43632e-14
1.40062e-14
1.27181e-14
9.90589e-15
6.67425e-15
4.08892e-15
2.71281e-15
2.45041e-15
2.5257e-15
2.52104e-15
2.28826e-15
1.68412e-15
1.11147e-15
2.6111e-14
2.91133e-14
2.12336e-14
1.26804e-14
7.19019e-15
4.33817e-15
2.86173e-15
1.94043e-15
1.73241e-15
1.81424e-15
1.85315e-15
1.78945e-15
1.52942e-15
1.16597e-15
8.02286e-16
5.35961e-16
4.57022e-16
4.65387e-16
4.76629e-16
4.43683e-16
3.63493e-16
2.39659e-16
1.40681e-16
3.41504e-15
3.70018e-15
2.64306e-15
1.55326e-15
8.65761e-16
4.75203e-16
3.07282e-16
2.05485e-16
1.76059e-16
1.93433e-16
2.01993e-16
1.92595e-16
1.64133e-16
1.25121e-16
8.87891e-17
7.42106e-17
7.59484e-17
7.81491e-17
7.60627e-17
6.47904e-17
4.71262e-17
2.78495e-17
1.51966e-17
3.95038e-16
4.11488e-16
2.82693e-16
1.63854e-16
8.88848e-17
4.96699e-17
3.08856e-17
2.03104e-17
1.67576e-17
1.82738e-17
1.88434e-17
1.80727e-17
1.55536e-17
1.21255e-17
1.00666e-17
1.03553e-17
1.11244e-17
1.11637e-17
9.95019e-18
7.59156e-18
4.94646e-18
2.62224e-18
1.42558e-18
4.16572e-17
3.98436e-17
2.61657e-17
1.49364e-17
8.14316e-18
4.54733e-18
2.69573e-18
1.73106e-18
1.34089e-18
1.46024e-18
1.53131e-18
1.48826e-18
1.31736e-18
1.15261e-18
1.19481e-18
1.33626e-18
1.43327e-18
1.36617e-18
1.1085e-18
7.53077e-19
4.24285e-19
2.17875e-19
5.29675e-20
3.95151e-18
3.47399e-18
2.19363e-18
1.23363e-18
6.67913e-19
3.65815e-19
2.10001e-19
1.29761e-19
9.44556e-20
1.00436e-19
1.08364e-19
1.09373e-19
1.07217e-19
1.13942e-19
1.34249e-19
1.55707e-19
1.61889e-19
1.44577e-19
1.06043e-19
6.44727e-20
3.44826e-20
7.55544e-21
7.18858e-22
3.29566e-19
2.7421e-19
1.6844e-19
9.3308e-20
4.96072e-20
2.66411e-20
1.47502e-20
8.45997e-21
5.77369e-21
5.93174e-21
6.67503e-21
7.54483e-21
8.61816e-21
1.0881e-20
1.39519e-20
1.62748e-20
1.6378e-20
1.36769e-20
9.12879e-21
5.29329e-21
1.35153e-21
1.482e-22
1.46453e-23
2.49945e-20
1.95883e-20
1.16978e-20
6.35578e-21
3.34111e-21
1.75504e-21
9.32028e-22
5.1106e-22
3.33123e-22
3.39412e-22
4.12354e-22
5.32e-22
7.43779e-22
1.06825e-21
1.3967e-21
1.59758e-21
1.56147e-21
1.23893e-21
6.94859e-22
2.49614e-22
4.18193e-23
5.52364e-24
2.82763e-25
1.63719e-21
1.24295e-21
7.23851e-22
3.86436e-22
2.00433e-22
1.02014e-22
5.16158e-23
2.64613e-23
1.64371e-23
1.77435e-23
2.52818e-23
4.01171e-23
6.57926e-23
1.00279e-22
1.30635e-22
1.41787e-22
1.32686e-22
9.48755e-23
4.488e-23
1.25739e-23
1.70623e-24
6.49784e-26
6.67545e-28
8.27069e-23
6.16692e-23
3.4818e-23
1.82319e-23
9.2637e-24
4.70435e-24
2.35437e-24
1.14569e-24
7.08888e-25
9.11688e-25
1.60028e-24
3.03572e-24
5.51386e-24
8.5805e-24
1.13311e-23
1.15072e-23
1.02083e-23
6.69007e-24
2.82317e-24
6.64987e-25
6.02834e-26
1.46133e-27
5.43806e-29
0.981889
0.795509
0.727786
0.19659
0.750435
0.727482
0.603611
0.0344078
0.484015
0.106529
0.0170864
0.00186655
3.17468e-09
2.9917e-09
7.49331e-11
1.67641e-09
2.99657e-09
9.30509e-09
3.23197e-09
1.86365e-09
5.25463e-08
6.28137e-08
3.68959e-08
4.7649e-08
5.64133e-09
6.43051e-09
1.96921e-08
3.8564e-08
1.81526e-09
3.01828e-09
2.67105e-09
4.34787e-10
1.91962e-09
1.15516e-09
7.12883e-10
4.07987e-10
1.71688e-10
1.22718e-10
1.20599e-10
1.45034e-10
1.73496e-10
1.75204e-10
1.80896e-10
1.90791e-10
4.23163e-10
4.03613e-10
3.88174e-10
3.73598e-10
5.12637e-10
4.75481e-10
4.21648e-10
3.54637e-10
8.31757e-10
1.06745e-09
8.02089e-10
6.69909e-10
5.47452e-09
5.60896e-09
4.44502e-09
3.49508e-09
2.05606e-08
1.07756e-08
1.26028e-08
9.99658e-09
2.92264e-08
1.2769e-08
1.8193e-08
1.4538e-08
3.15532e-08
1.61353e-08
2.18836e-08
1.82703e-08
1.87662e-08
1.56664e-08
1.58396e-08
1.42301e-08
3.79278e-09
5.37549e-09
6.10312e-09
5.97428e-09
7.63365e-10
7.83395e-10
8.7497e-10
1.11621e-09
1.92711e-10
1.98027e-10
2.05233e-10
2.1615e-10
8.44345e-11
8.42784e-11
8.37212e-11
8.33983e-11
4.54573e-11
4.31046e-11
4.18815e-11
4.11726e-11
2.25989e-11
2.15813e-11
2.08223e-11
1.98139e-11
1.01144e-11
9.61972e-12
9.18821e-12
8.64848e-12
4.23721e-12
4.03158e-12
3.84334e-12
3.54888e-12
1.56526e-12
1.45628e-12
1.37861e-12
1.26125e-12
5.06385e-13
4.56096e-13
4.30704e-13
3.87517e-13
1.40686e-13
1.25094e-13
1.10754e-13
9.60343e-14
3.10458e-14
2.5745e-14
2.23463e-14
1.86453e-14
6.03636e-15
4.82401e-15
3.75256e-15
2.86715e-15
8.54884e-16
6.35343e-16
4.61319e-16
3.31056e-16
1.01289e-16
7.03716e-17
4.89615e-17
3.5143e-17
1.06553e-17
7.26655e-18
2.61304e-18
3.2684e-19
4.59719e-19
7.31372e-20
7.86241e-21
7.65656e-23
4.24082e-22
2.72494e-25
8.743e-27
2.39549e-26
1.91747e-28
4.34853e-28
1.76436e-27
6.14648e-27
1.89666e-28
5.39017e-28
2.06765e-27
6.87292e-27
1.87345e-28
6.08522e-28
2.2278e-27
7.09681e-27
1.85595e-28
5.69835e-28
1.96304e-27
5.98127e-27
1.18645e-28
3.86113e-28
1.19266e-27
3.08338e-27
0.00189993
0.107564
0.838574
0.998724
0.998726
0.987572
0.925304
0.804941
0.701321
0.665
0.643203
0.586992
0.449878
0.229871
0.0296617
5.08701e-09
5.17652e-09
0.0143177
0.114659
2.73701e-05
0.0923255
0.762669
0.953089
0.94654
0.82376
0.321124
0.0622894
0.0284182
0.0139823
0.00470248
0.00220182
5.06449e-05
6.59159e-20
1.47799e-20
4.62109e-09
4.75241e-09
8.66405e-05
0.0462829
2.52737e-05
6.85474e-06
0.405984
0.806184
0.733217
0.209586
-1.72082e-07
1.73025e-07
-2.13873e-15
2.13875e-15
-7.57555e-17
-1.33326e-15
-9.93899e-11
-1.815e-10
-7.754e-11
-3.26901e-11
1.33826e-08
5.85987e-06
0.0175764
4.19337e-06
2.25925e-06
0.0678996
0.157363
0.118745
0.0158977
1.94142e-09
1.51937e-09
2.68201e-09
2.58182e-09
7.01393e-10
1.97147e-09
1.48484e-08
1.94448e-08
-5.85325e-25
1.90568e-08
1.02419e-05
0.0057994
0.0165794
0.000153712
0.00135368
2.3243e-07
5.0727e-10
2.88256e-10
5.12808e-10
1.52262e-09
6.20486e-09
6.94188e-09
6.26585e-09
1.71767e-09
1.45289e-08
3.39639e-08
1.5857e-08
1.49288e-07
2.23805e-07
2.12515e-07
0.0122479
0.0211538
0.000182498
0.00019353
0.000121101
4.44e-05
1.22553e-05
6.25544e-07
7.56995e-08
6.38642e-09
4.18443e-09
2.35724e-09
3.1352e-10
3.00336e-09
3.02025e-08
8.24143e-11
8.93015e-07
2.13213e-07
2.084e-07
0.00562097
0.0206737
4.25533e-08
1.9177e-08
2.19063e-08
2.1987e-08
8.41531e-11
3.9557e-09
2.39244e-09
1.46255e-09
6.50326e-10
1.36283e-10
9.02867e-12
9.16024e-10
6.49225e-09
4.99215e-10
1.93733e-06
7.96097e-06
2.71764e-05
2.4709e-05
0.00918134
3.35119e-08
4.9985e-08
4.76797e-08
1.52751e-08
6.48677e-11
6.60476e-11
5.95763e-11
5.78238e-11
6.25132e-11
5.63605e-11
6.10359e-11
9.83685e-11
1.57257e-10
5.26936e-07
6.09548e-06
6.92906e-06
1.09989e-05
3.12177e-07
6.91797e-07
2.1709e-09
4.98128e-09
2.50106e-09
3.14314e-10
9.69752e-11
7.13959e-11
5.39313e-11
4.31998e-11
3.8254e-11
2.89556e-11
3.6171e-11
3.7847e-11
1.25292e-07
3.88379e-06
4.80619e-06
1.27311e-06
-8.43324e-15
1.36896e-09
5.11084e-08
8.99816e-11
8.94934e-11
8.99805e-11
9.90795e-11
1.00446e-10
8.82313e-11
7.35979e-11
4.21179e-11
2.27409e-11
1.49768e-11
1.45127e-11
2.8255e-08
9.54935e-07
2.38259e-06
9.80206e-07
1.18832e-09
4.11102e-09
-2.84919e-10
1.81817e-08
2.02821e-10
1.89906e-10
1.73931e-10
1.57331e-10
1.40536e-10
9.92145e-11
5.24699e-11
2.6437e-11
2.93256e-11
1.45787e-11
3.27402e-09
1.28755e-07
8.50339e-07
2.23441e-07
3.29545e-08
1.09055e-12
1.16524e-09
1.6115e-12
1.46736e-13
3.29778e-10
2.69504e-10
2.23136e-10
1.67363e-10
1.1813e-10
7.0754e-11
3.50223e-11
2.28875e-11
2.33721e-11
2.74716e-10
2.2816e-08
8.23186e-08
4.72401e-08
7.76111e-13
9.25645e-13
1.03639e-12
1.07647e-12
1.31151e-12
1.49583e-13
2.97218e-10
2.55788e-10
2.26755e-10
1.64145e-10
1.01798e-10
5.60986e-11
2.99734e-11
2.33902e-11
3.12835e-11
1.68471e-09
1.29545e-08
2.09625e-08
1.73419e-12
1.29816e-12
1.48479e-12
1.40307e-12
9.40079e-13
5.00852e-13
1.42535e-13
5.5894e-10
4.14235e-10
2.74797e-10
1.74702e-10
1.03562e-10
5.76113e-11
3.2052e-11
2.50866e-11
3.19066e-11
3.95747e-10
2.30158e-09
5.09168e-09
4.09235e-12
2.36318e-12
2.19657e-12
1.6764e-12
9.23473e-13
4.22627e-13
1.3845e-13
2.72141e-09
1.40887e-09
5.00855e-10
2.76758e-10
1.36052e-10
7.05767e-11
4.04761e-11
2.6122e-11
2.33374e-11
3.83098e-11
2.03208e-10
1.26004e-09
4.11853e-12
3.61047e-12
2.67451e-12
1.54803e-12
8.5428e-13
3.85923e-13
1.27907e-13
7.94415e-09
4.40307e-09
2.20884e-09
1.06111e-09
3.81053e-10
1.0662e-10
4.95788e-11
3.27198e-11
2.21961e-11
2.19257e-11
2.72439e-11
7.02378e-11
6.83293e-12
4.88242e-12
2.77423e-12
1.39746e-12
7.52551e-13
3.25427e-13
1.05642e-13
1.17961e-08
6.68417e-09
3.85457e-09
2.50412e-09
1.08877e-09
2.65682e-10
9.58899e-11
5.13617e-11
3.05317e-11
2.20933e-11
1.82289e-11
1.30317e-11
7.0825e-12
5.18653e-12
2.57179e-12
1.28803e-12
6.51585e-13
2.5946e-13
8.55108e-14
1.50966e-08
8.87724e-09
5.33186e-09
4.13643e-09
2.31559e-09
1.18622e-09
4.54556e-10
1.78183e-10
7.71915e-11
3.48955e-11
1.89135e-11
1.18031e-11
7.11849e-12
4.52329e-12
2.35554e-12
1.14387e-12
5.05641e-13
2.03991e-13
6.89521e-14
1.26743e-08
9.09774e-09
5.41005e-09
4.53565e-09
2.56431e-09
1.99969e-09
1.15632e-09
6.02126e-10
2.64684e-10
8.19548e-11
2.46761e-11
1.13404e-11
6.28949e-12
3.7933e-12
1.97984e-12
8.63741e-13
2.93363e-13
1.48625e-13
5.68323e-14
5.77103e-09
5.36181e-09
4.21372e-09
3.58417e-09
2.39883e-09
1.81578e-09
1.18622e-09
7.42159e-10
4.36666e-10
1.83297e-10
4.55702e-11
1.29261e-11
5.07195e-12
2.73379e-12
1.32685e-12
4.09575e-13
1.17607e-13
9.14572e-14
4.24787e-14
1.53068e-09
1.96619e-09
2.09186e-09
2.00963e-09
1.67219e-09
1.2828e-09
9.07723e-10
5.95614e-10
3.85153e-10
2.03817e-10
6.58362e-11
1.81527e-11
4.16658e-12
1.5291e-12
5.93677e-13
9.67221e-14
4.19504e-14
4.15349e-14
2.29285e-14
3.25576e-10
5.45353e-10
7.64128e-10
8.33722e-10
7.75705e-10
6.67002e-10
4.9904e-10
3.57774e-10
2.45531e-10
1.52107e-10
6.0447e-11
1.85057e-11
3.40837e-12
5.89114e-13
1.37691e-13
2.5922e-14
2.21688e-14
2.0389e-14
1.29964e-14
8.81744e-11
1.18412e-10
1.96071e-10
2.53346e-10
2.70057e-10
2.43243e-10
2.05897e-10
1.52686e-10
1.13742e-10
7.45482e-11
3.65678e-11
1.06436e-11
1.69807e-12
1.16113e-13
1.3245e-14
1.11179e-14
1.21903e-14
1.12479e-14
7.43759e-15
4.08783e-11
4.15676e-11
5.21407e-11
6.88843e-11
7.63922e-11
7.48995e-11
6.41618e-11
5.43025e-11
4.34976e-11
2.97214e-11
1.37884e-11
3.46179e-12
2.55308e-13
1.17287e-14
4.33268e-15
5.2036e-15
6.47912e-15
6.31048e-15
4.06714e-15
1.91236e-11
1.8308e-11
1.86929e-11
2.0414e-11
2.1352e-11
2.07234e-11
1.86496e-11
1.57175e-11
1.24934e-11
7.6382e-12
3.0714e-12
3.79018e-13
2.31756e-14
1.99813e-15
1.72915e-15
2.35029e-15
3.38405e-15
3.49561e-15
2.06165e-15
8.161e-12
7.50349e-12
6.98412e-12
6.6175e-12
6.19089e-12
5.58532e-12
4.93937e-12
4.33554e-12
3.02383e-12
1.45212e-12
1.87474e-13
2.53698e-14
2.49006e-15
4.82245e-16
6.21313e-16
1.06625e-15
1.70779e-15
1.89718e-15
1.02895e-15
3.20596e-12
2.74764e-12
2.30279e-12
1.95863e-12
1.68e-12
1.42241e-12
1.25469e-12
9.42409e-13
5.0806e-13
7.08177e-14
1.19001e-14
2.18333e-15
2.61328e-16
1.3578e-16
2.30083e-16
4.72678e-16
8.52048e-16
9.73727e-16
5.28222e-16
1.07121e-12
8.79661e-13
6.86562e-13
5.33462e-13
4.18532e-13
3.53593e-13
2.49384e-13
1.31766e-13
2.0729e-14
3.97399e-15
1.06648e-15
2.16202e-16
3.09366e-17
3.62569e-17
8.72512e-17
2.13119e-16
4.06091e-16
4.67417e-16
2.55459e-16
3.01629e-13
2.27133e-13
1.54668e-13
1.10819e-13
8.79252e-14
5.42143e-14
2.46594e-14
3.45649e-15
6.9718e-16
2.47509e-16
8.38178e-17
1.45507e-17
4.55309e-18
1.02512e-17
3.37682e-17
9.02102e-17
1.90181e-16
2.32106e-16
1.17583e-16
6.67157e-14
4.59105e-14
2.90067e-14
2.16046e-14
1.04082e-14
3.38594e-15
3.84566e-16
5.94468e-17
1.32201e-17
2.87593e-18
7.62256e-19
2.3501e-19
6.89614e-19
3.19577e-18
1.30885e-17
3.70556e-17
8.76024e-17
1.2885e-16
6.749e-17
1.21842e-14
7.20989e-15
5.04565e-15
2.02964e-15
4.29964e-16
4.35379e-17
2.8714e-18
1.49219e-19
2.05624e-20
7.97506e-21
1.37709e-20
3.9345e-20
2.12325e-19
1.1392e-18
4.96229e-18
1.45996e-17
4.04005e-17
5.98755e-17
2.88945e-17
1.61491e-15
1.02339e-15
3.58393e-16
5.82559e-17
6.02608e-18
6.16163e-19
4.10779e-20
2.50105e-21
2.79933e-21
5.40498e-21
1.18551e-20
2.69963e-20
9.52659e-20
4.69349e-19
2.00457e-18
6.88273e-18
2.43411e-17
2.66848e-17
1.30544e-17
1.98205e-16
5.39e-17
6.30454e-18
6.44064e-19
1.01741e-19
1.16176e-20
1.13596e-21
1.24967e-21
2.46334e-21
5.56072e-21
1.23072e-20
2.49884e-20
5.69554e-20
2.2302e-19
9.41321e-19
4.60903e-18
1.01999e-17
1.08831e-17
4.28357e-18
9.32816e-18
5.98749e-19
5.50522e-20
1.10197e-20
1.91549e-21
3.6611e-22
4.63252e-22
1.00143e-21
2.45825e-21
5.82868e-21
1.27187e-20
2.4598e-20
4.36608e-20
1.35109e-19
7.30845e-19
2.63983e-18
4.41855e-18
3.46175e-18
1.29746e-18
2.95514e-20
3.37591e-21
8.57106e-22
1.18722e-22
8.56307e-23
1.45553e-22
3.62372e-22
9.44934e-22
2.3544e-21
5.49298e-21
1.21339e-20
2.35357e-20
3.85385e-20
1.1582e-19
5.13974e-19
1.38016e-18
1.70506e-18
1.12838e-18
2.85435e-19
1.40661e-23
1.51546e-23
1.24052e-23
1.63364e-23
4.08822e-23
1.16082e-22
3.23679e-22
8.51101e-22
2.12517e-21
4.96835e-21
1.0747e-20
2.06042e-20
3.39687e-20
8.86907e-20
2.8451e-19
6.50384e-19
6.32078e-19
2.99351e-19
6.42395e-20
1.72806e-25
7.66412e-25
2.85659e-24
1.01249e-23
3.22343e-23
9.53911e-23
2.63378e-22
6.86231e-22
1.68786e-21
3.9094e-21
8.30565e-21
1.55507e-20
2.54324e-20
5.42849e-20
1.41667e-19
2.49721e-19
1.87681e-19
7.12567e-20
1.2412e-20
1.08302e-25
5.54878e-25
2.19214e-24
7.65547e-24
2.40666e-23
7.03667e-23
1.91007e-22
4.84528e-22
1.15912e-21
2.62289e-21
5.40443e-21
9.83284e-21
1.57045e-20
3.03544e-20
5.77268e-20
7.76133e-20
3.97326e-20
1.35563e-20
2.98493e-21
8.42347e-26
3.88002e-25
1.4945e-24
4.94863e-24
1.54628e-23
4.37836e-23
1.15891e-22
2.85914e-22
6.63755e-22
1.45978e-21
2.922e-21
5.15108e-21
7.92671e-21
1.38579e-20
1.94611e-20
2.01989e-20
8.02172e-21
2.77298e-21
8.44784e-22
5.73101e-26
2.31041e-25
8.17887e-25
2.5706e-24
7.35656e-24
1.98898e-23
5.14075e-23
1.25733e-22
2.8702e-22
6.1669e-22
1.21106e-21
2.10951e-21
3.12296e-21
4.89377e-21
5.28173e-21
4.7319e-21
1.43362e-21
6.07041e-22
4.00929e-22
2.95362e-26
1.04079e-25
3.35768e-25
9.91004e-25
2.75697e-24
7.2939e-24
1.81136e-23
4.40508e-23
9.95098e-23
2.09136e-22
3.99607e-22
6.8481e-22
9.88231e-22
1.39359e-21
1.30389e-21
1.05145e-21
2.97955e-22
2.09958e-22
1.86736e-22
8.52638e-27
2.5818e-26
7.58713e-26
2.0786e-25
5.60191e-25
1.52044e-24
3.74821e-24
9.05095e-24
2.17214e-23
4.73242e-23
9.33492e-23
1.63617e-22
2.39469e-22
3.15927e-22
2.7757e-22
2.2026e-22
7.786e-23
6.82176e-23
6.4352e-23
)
;

boundaryField
{
    leftWall
    {
        type            alphaContactAngle;
        contactAngleProperties 
        {
            mercury         
            {
                theta0          90;
            }
            air             
            {
                theta0          90;
            }
            oil             
            {
                theta0          90;
            }
        }
        value           nonuniform List<scalar> 
50
(
2.47507e-11
7.34422e-11
7.76207e-10
3.44611e-10
0.0182269
0.661832
1
1
1
1
1
1
1
0.788108
0.107516
-1.36465e-19
4.38593e-09
1.50258e-21
-2.40224e-08
-1.56413e-07
-1.06541e-07
4.58621e-08
4.48017e-08
1.8248e-08
2.15187e-08
2.01522e-08
1.76069e-08
1.4262e-08
1.18719e-08
1.00816e-08
8.26104e-09
6.1362e-09
4.16531e-09
2.44954e-09
1.23662e-09
4.94777e-10
1.64336e-10
4.17747e-11
7.25303e-12
1.25172e-12
1.77686e-13
2.6111e-14
3.41504e-15
3.95038e-16
4.16572e-17
3.95151e-18
3.29566e-19
2.49945e-20
1.63719e-21
8.27069e-23
)
;
    }
    rightWall
    {
        type            alphaContactAngle;
        contactAngleProperties 
        {
            mercury         
            {
                theta0          90;
            }
            air             
            {
                theta0          90;
            }
            oil             
            {
                theta0          90;
            }
        }
        value           nonuniform List<scalar> 
50
(
0.018889
0.018889
0.0191095
0.197261
0.378525
0.439265
0.408508
0.219914
0.114659
0.0462829
0.0175764
0.0165794
0.0211538
0.0206737
0.00918134
6.91797e-07
5.11084e-08
1.81817e-08
1.46736e-13
1.49583e-13
1.42535e-13
1.3845e-13
1.27907e-13
1.05642e-13
8.55108e-14
6.89521e-14
5.68323e-14
4.24787e-14
2.29285e-14
1.29964e-14
7.43759e-15
4.06714e-15
2.06165e-15
1.02895e-15
5.28222e-16
2.55459e-16
1.17583e-16
6.749e-17
2.88945e-17
1.30544e-17
4.28357e-18
1.29746e-18
2.85435e-19
6.42395e-20
1.2412e-20
2.98493e-21
8.44784e-22
4.00929e-22
1.86736e-22
6.4352e-23
)
;
    }
    lowerWall
    {
        type            alphaContactAngle;
        contactAngleProperties 
        {
            mercury         
            {
                theta0          90;
            }
            air             
            {
                theta0          90;
            }
            oil             
            {
                theta0          90;
            }
        }
        value           nonuniform List<scalar> 
62
(
2.47507e-11
4.61173e-11
7.21465e-11
8.026e-11
8.26888e-11
8.65206e-11
8.77673e-11
8.73246e-11
8.64285e-11
8.54995e-11
8.70756e-11
9.51442e-11
1.05629e-10
1.25401e-10
1.56339e-10
2.04692e-10
2.77419e-10
3.77271e-10
6.04392e-10
1.0152e-09
1.75695e-09
2.42914e-09
2.57776e-09
2.57776e-09
2.90535e-09
2.96798e-09
1.74582e-09
2.39028e-10
1.74408e-12
8.42828e-13
0.239717
0.981889
0.795509
0.727786
0.19659
0.0153299
0.0162579
0.0260465
0.0355806
0.0237392
0.00258749
0.00087166
0.00068212
0.0153299
0.0366315
0.0448043
0.0148127
0.00574333
0.00597678
0.00517661
0.0026591
0.00222792
0.0012915
0.00140786
0.0504258
0.123212
0.123212
0.123212
0.0575899
0.0214759
0.018889
0.018889
)
;
    }
    atmosphere
    {
        type            inletOutlet;
        inletValue      uniform 0;
        value           nonuniform List<scalar> 
46
(
0
0
0
0
0
0
0
0
0
0
0
0
0
0
0
0
0
0
0
0
0
0
0
0
0
0
0
0
0
0
0
5.60191e-25
1.52044e-24
3.74821e-24
9.05095e-24
2.17214e-23
4.73242e-23
9.33492e-23
1.63617e-22
2.39469e-22
3.15927e-22
2.7757e-22
2.2026e-22
7.786e-23
6.82176e-23
6.4352e-23
)
;
    }
    defaultFaces
    {
        type            empty;
    }
}


// ************************************************************************* //
