/*--------------------------------*- C++ -*----------------------------------*\
  =========                 |
  \\      /  F ield         | OpenFOAM: The Open Source CFD Toolbox
   \\    /   O peration     | Website:  https://openfoam.org
    \\  /    A nd           | Version:  13
     \\/     M anipulation  |
\*---------------------------------------------------------------------------*/
FoamFile
{
    format      ascii;
    class       volScalarField;
    location    "1.4";
    object      alpha.mercury;
}
// * * * * * * * * * * * * * * * * * * * * * * * * * * * * * * * * * * * * * //

dimensions      [];

internalField   nonuniform List<scalar> 
2268
(
1
1
1
1
1
1
1
1
1
1
1
1
1
1
1
1
1
1
1
1
1
0.99957
0.999432
1
1
1
1
1
1
1
1
1
1
1
1
1
1
1
1
1
1
1
1
1
0.9999
0.999432
1
1
1
1
1
1
1
1
1
1
1
1
1
1
1
1
1
1
1
1
1
1
0.999661
1
1
1
1
1
1
1
1
1
1
1
1
1
1
1
1
1
1
1
1
1
1
0.999987
0.981773
0.985042
0.986714
0.990274
0.996505
1
1
1
1
1
1
1
1
1
1
1
1
1
1
1
1
1
0.999999
0.338168
0.370702
0.383233
0.406967
0.46809
0.575517
0.714155
0.826141
0.91788
0.976959
0.998895
1
1
1
1
1
1
1
1
1
0.999998
0.999998
0.999814
8.71684e-11
3.72357e-11
7.70089e-18
6.85013e-18
1.39171e-20
-5.52097e-11
0.003504
0.0618378
0.162766
0.311741
0.501349
0.68656
0.813129
0.907931
0.968621
0.993562
1
0.999999
0.999995
0.999974
0.999909
0.999936
0.999542
1.48949e-09
1.12419e-09
8.25762e-10
6.90896e-10
5.30207e-10
2.77011e-10
5.66188e-18
3.54095e-19
3.69033e-20
6.24556e-21
1.06088e-21
0.0160968
0.0833116
0.155457
0.22784
0.296852
0.343606
0.364483
0.375644
0.391296
0.410274
0.487875
0.759831
0.875172
0.875872
0.871671
0.652237
0.535696
0.536769
0.572955
0.59361
0.593755
0.581666
0.581766
0.635801
0.692225
0.692799
0.694429
0.692455
0.696459
0.694058
0.694389
0.87612
0.876055
0.862512
0.872884
0.872285
0.869393
0.841635
0.798453
0.763243
0.738777
0.612882
0.579095
0.605604
0.634615
0.638847
0.644204
0.690087
0.674707
0.575979
0.865223
0.43881
0.418315
0.456698
0.391523
0.299731
0.229157
0.234088
0.258515
0.269902
0.310138
0.319811
0.269247
0.262661
0.288798
0.32304
0.352211
0.372489
0.389728
0.853359
0.202052
0.168339
0.00615286
0.000975153
7.985e-09
5.16969e-09
7.985e-09
1.57942e-08
0.0304026
0.151613
0.203114
0.250111
0.222721
0.221424
0.221143
0.190716
0.177365
0.193382
0.716066
0.457512
0.135403
2.69003e-05
3.04206e-05
0.000470285
0.00111046
0.00100157
0.000141786
3.41507e-07
5.05423e-05
0.0569049
0.151881
0.234496
0.255688
0.260512
0.204066
0.109091
0.0504385
0.135011
0.459473
0.119306
8.8155e-05
7.98723e-05
0.000858277
0.00142551
0.00132292
0.000377018
6.77789e-05
1.3267e-05
2.75301e-07
7.03539e-15
-2.2753e-07
0.0079136
0.0199885
0.0147138
0.000441236
0.00881673
0.0952124
0.317686
0.127762
7.97427e-05
8.62888e-05
7.26377e-05
9.21436e-05
1.86237e-05
6.42785e-06
1.26044e-05
0.000106138
4.45666e-05
2.25308e-05
3.52843e-05
4.89114e-06
3.89747e-06
4.84037e-06
0.000525463
0.0107273
0.0953671
0.0975411
0.0693326
0.00213592
6.41341e-05
9.2451e-06
7.40167e-08
-5.00718e-12
-2.50005e-14
6.36815e-06
0.000111908
0.000126357
4.63022e-05
0.000453476
0.000648563
0.000372344
3.77273e-05
0.000406294
0.0134245
2.39646e-09
2.59841e-09
2.44615e-09
2.49471e-09
2.44489e-09
2.00145e-09
1.41088e-09
8.15102e-10
3.6096e-10
1.16988e-10
2.31172e-11
5.04652e-12
4.67418e-21
5.04652e-12
1.11956e-11
3.46925e-08
4.65724e-08
1.32139e-12
-9.34475e-19
9.43513e-17
2.46169e-05
0.000633814
0.0278403
1.86046e-09
2.51559e-09
2.63898e-09
3.09113e-09
3.51922e-09
3.54746e-09
2.97806e-09
2.08783e-09
1.21412e-09
5.95815e-10
2.52867e-10
1.67388e-10
3.29403e-10
5.7396e-10
6.1735e-10
1.06949e-10
4.71168e-11
4.44061e-11
8.62715e-11
2.07442e-27
7.12697e-06
1.12522e-22
0.0027006
5.20171e-10
7.11938e-10
8.34517e-10
8.88671e-10
1.32085e-09
1.40327e-09
1.3655e-09
1.15461e-09
8.70704e-10
5.49941e-10
3.091e-10
1.31621e-10
6.60783e-11
6.38181e-11
8.60981e-11
8.77588e-11
6.81351e-11
7.19427e-11
1.32467e-10
1.01564e-11
1.47535e-06
-8.64233e-24
0.00226331
3.13872e-10
2.68913e-10
2.98438e-10
2.88904e-10
1.61587e-10
1.08101e-10
1.06132e-10
1.17147e-10
1.26677e-10
1.12943e-10
8.93893e-11
9.25326e-11
9.14307e-11
7.51769e-11
1.1584e-10
2.30487e-10
2.30408e-10
2.012e-10
1.21388e-10
-9.7163e-10
2.45523e-10
9.37902e-05
0.00119407
2.03956e-10
2.3387e-10
3.05759e-10
3.66536e-10
4.53234e-10
5.11076e-10
5.97914e-10
7.13315e-10
8.74107e-10
1.00796e-09
1.09265e-09
1.24115e-09
1.43104e-09
1.65441e-09
2.25562e-09
3.03985e-09
2.40508e-09
6.62401e-10
1.16294e-10
1.18284e-09
6.36e-06
5.79247e-05
1.56565e-10
1.89779e-10
3.57665e-10
5.48332e-10
5.96434e-10
6.51394e-10
8.13733e-10
1.09765e-09
1.39081e-09
1.77762e-09
2.17582e-09
2.38553e-09
2.63802e-09
3.09365e-09
4.27295e-09
4.52556e-09
4.51844e-09
2.3226e-09
5.43051e-10
9.43584e-09
2.96656e-07
1.50832e-06
1.1683e-09
9.73475e-10
2.68175e-10
5.89919e-10
6.30884e-10
6.09982e-10
6.3191e-10
7.8998e-10
1.07704e-09
1.32655e-09
1.62377e-09
1.94833e-09
2.04446e-09
1.90464e-09
1.83265e-09
1.9109e-09
2.55758e-09
2.33338e-09
1.88605e-09
3.33089e-09
7.00211e-09
7.62273e-09
7.47227e-10
8.06242e-10
1.29426e-09
4.18286e-10
6.33377e-10
6.14067e-10
4.08446e-10
3.16474e-10
3.08783e-10
3.23349e-10
3.20198e-10
3.14308e-10
4.03104e-10
4.65639e-10
4.41856e-10
4.19539e-10
4.04768e-10
2.73768e-10
2.95714e-10
3.13921e-10
2.94231e-10
3.10075e-10
5.02852e-10
6.10874e-10
8.2949e-10
1.2689e-09
4.17481e-10
6.29106e-10
5.65706e-10
3.21994e-10
2.22191e-10
1.59741e-10
1.10546e-10
7.69108e-11
6.17065e-11
5.99467e-11
7.38041e-11
8.6902e-11
9.0792e-11
7.98441e-11
1.15063e-10
1.38921e-10
1.73073e-10
2.30284e-10
3.22215e-10
4.06436e-10
4.95749e-10
6.07147e-10
8.11161e-10
3.82307e-10
5.20215e-10
5.40318e-10
3.49549e-10
2.70808e-10
1.87335e-10
1.14488e-10
6.66339e-11
3.86254e-11
2.53996e-11
2.34733e-11
2.57703e-11
2.95448e-11
3.66001e-11
5.15342e-11
6.92835e-11
8.58894e-11
1.00589e-10
1.19686e-10
1.49248e-10
1.93448e-10
2.18453e-10
2.42155e-10
3.12357e-10
3.09454e-10
5.07762e-10
4.63584e-10
3.57843e-10
2.71321e-10
1.7622e-10
1.02037e-10
4.99724e-11
1.96078e-11
1.20769e-11
9.2645e-12
9.14232e-12
1.03232e-11
1.23815e-11
1.42826e-11
1.51419e-11
1.59649e-11
1.80243e-11
2.27477e-11
2.67497e-11
2.59517e-11
2.12302e-11
1.81144e-10
1.40418e-10
3.50487e-10
4.77287e-10
4.41047e-10
3.49029e-10
2.87203e-10
2.19593e-10
1.10472e-10
3.93054e-11
1.18956e-11
7.00661e-12
5.53898e-12
4.65963e-12
4.08763e-12
3.45452e-12
3.0365e-12
2.77624e-12
2.71814e-12
2.82751e-12
3.29839e-12
3.49842e-12
3.37025e-12
4.7266e-11
8.72189e-11
2.78085e-10
4.44666e-10
4.3477e-10
3.54791e-10
3.05298e-10
2.67463e-10
2.04341e-10
9.46314e-11
2.87688e-11
9.65702e-12
6.33161e-12
4.58395e-12
3.58292e-12
2.69909e-12
2.07124e-12
1.76995e-12
1.6842e-12
1.50082e-12
1.39696e-12
1.18832e-12
8.24616e-13
2.258e-11
9.06505e-11
2.47247e-10
3.75876e-10
3.36954e-10
2.94184e-10
2.85839e-10
2.78007e-10
2.4771e-10
1.71847e-10
8.95119e-11
2.74632e-11
1.21967e-11
7.11306e-12
4.87557e-12
2.9686e-12
1.99339e-12
1.53201e-12
1.19048e-12
8.98435e-13
6.84692e-13
5.13801e-13
4.25464e-13
1.09187e-11
7.16689e-11
2.18869e-10
2.7038e-10
2.65471e-10
2.47412e-10
2.51625e-10
2.65951e-10
2.64031e-10
2.24622e-10
1.5668e-10
8.61996e-11
2.80073e-11
1.48239e-11
8.46426e-12
5.04913e-12
2.98474e-12
2.00733e-12
1.45514e-12
8.9854e-13
6.16559e-13
4.46302e-13
3.14201e-13
6.40514e-12
5.17721e-11
1.26396e-10
1.87633e-10
1.93751e-10
2.04082e-10
2.10399e-10
2.17268e-10
2.29623e-10
2.32609e-10
1.96765e-10
1.46797e-10
8.22211e-11
3.5879e-11
1.76918e-11
1.15098e-11
7.58894e-12
4.67154e-12
3.12039e-12
1.84985e-12
1.03324e-12
6.18251e-13
4.38095e-13
6.39209e-12
2.73462e-11
6.46784e-11
8.93415e-11
1.21543e-10
1.44811e-10
1.50515e-10
1.58675e-10
1.70895e-10
1.87827e-10
1.96938e-10
1.75849e-10
1.24867e-10
7.49813e-11
4.28593e-11
2.57356e-11
1.61169e-11
9.63265e-12
5.79252e-12
3.64607e-12
2.31669e-12
1.26271e-12
6.48244e-13
3.56706e-12
1.58841e-11
3.36344e-11
4.63237e-11
6.73864e-11
8.42573e-11
9.26745e-11
9.67119e-11
1.01867e-10
1.14483e-10
1.2934e-10
1.35105e-10
1.35182e-10
8.6205e-11
5.27371e-11
3.29251e-11
2.08132e-11
1.24286e-11
7.20649e-12
4.54459e-12
3.12311e-12
1.603e-12
9.90819e-13
1.79529e-12
8.22545e-12
1.94421e-11
2.92002e-11
3.93899e-11
4.94879e-11
5.5338e-11
5.4882e-11
5.30785e-11
5.37064e-11
6.04097e-11
6.66416e-11
7.20342e-11
7.52551e-11
4.91648e-11
3.36547e-11
2.28911e-11
1.35379e-11
7.2033e-12
4.3724e-12
2.74073e-12
1.86063e-12
1.18557e-12
8.04105e-13
3.7014e-12
9.58387e-12
1.71921e-11
2.27304e-11
3.0132e-11
3.49057e-11
3.51511e-11
3.27899e-11
2.84617e-11
2.44825e-11
2.41597e-11
2.71103e-11
3.12785e-11
3.48122e-11
2.29781e-11
1.44842e-11
1.10776e-11
6.43594e-12
3.328e-12
2.27568e-12
1.43873e-12
1.03979e-12
3.09606e-13
1.53626e-12
4.26728e-12
8.47513e-12
1.26513e-11
1.719e-11
2.12254e-11
2.27266e-11
2.15876e-11
1.68229e-11
1.32211e-11
1.13629e-11
1.00448e-11
9.63371e-12
1.0406e-11
1.05494e-11
7.11847e-12
5.61655e-12
4.49084e-12
2.72147e-12
1.8662e-12
9.91496e-13
6.5439e-13
9.84281e-14
5.5202e-13
1.62543e-12
3.51725e-12
6.33276e-12
8.66346e-12
1.1599e-11
1.34075e-11
1.32866e-11
1.15354e-11
8.08667e-12
5.85398e-12
4.68775e-12
4.06761e-12
3.4252e-12
3.34884e-12
3.02451e-12
2.49342e-12
1.8903e-12
1.60642e-12
1.28873e-12
8.84465e-13
4.80892e-13
2.6981e-14
1.63937e-13
5.17617e-13
1.28329e-12
2.60355e-12
4.12155e-12
5.38612e-12
7.03095e-12
7.77504e-12
6.96119e-12
5.45295e-12
3.54413e-12
2.5233e-12
1.80428e-12
1.48198e-12
1.24321e-12
1.07204e-12
9.91311e-13
8.57518e-13
7.23716e-13
6.44983e-13
5.44769e-13
3.42727e-13
6.97568e-15
4.21136e-14
1.40071e-13
3.73595e-13
8.55718e-13
1.76088e-12
2.28928e-12
2.96976e-12
4.00276e-12
3.95883e-12
3.15074e-12
2.14792e-12
1.38807e-12
9.49182e-13
6.45605e-13
5.20593e-13
4.48245e-13
3.95268e-13
3.52841e-13
3.19126e-13
2.77601e-13
2.22794e-13
1.77915e-13
1.35365e-15
9.60816e-15
3.44045e-14
9.96639e-14
2.37766e-13
5.76719e-13
9.14164e-13
1.11023e-12
1.67791e-12
1.97026e-12
1.61556e-12
1.20508e-12
7.37242e-13
4.7756e-13
3.09429e-13
2.0923e-13
1.6953e-13
1.43318e-13
1.2541e-13
1.13777e-13
1.00709e-13
8.78459e-14
7.36835e-14
2.22647e-16
1.91787e-15
7.59292e-15
2.36071e-14
6.9037e-14
1.7548e-13
2.97677e-13
3.78891e-13
5.56793e-13
8.18194e-13
7.17271e-13
5.4675e-13
3.75825e-13
2.25765e-13
1.37863e-13
8.87591e-14
6.26452e-14
5.10181e-14
4.26868e-14
3.84177e-14
3.42506e-14
2.99859e-14
2.68266e-14
3.11173e-17
3.31379e-16
1.49768e-15
5.11744e-15
1.79164e-14
5.30907e-14
9.16501e-14
1.2259e-13
1.73499e-13
2.6526e-13
2.6005e-13
2.13402e-13
1.51098e-13
9.55471e-14
5.36413e-14
3.29611e-14
2.14745e-14
1.73781e-14
1.42419e-14
1.24891e-14
1.11476e-14
9.66139e-15
8.50605e-15
3.50786e-18
4.70731e-17
2.496e-16
9.80039e-16
4.108e-15
1.3679e-14
2.44315e-14
3.49303e-14
4.94443e-14
7.6735e-14
7.67701e-14
6.56655e-14
4.96429e-14
3.35357e-14
1.75087e-14
1.03808e-14
6.54133e-15
5.27833e-15
4.3644e-15
3.79206e-15
3.40189e-15
2.88192e-15
2.40472e-15
3.09535e-19
5.34198e-18
3.38831e-17
1.60768e-16
7.74594e-16
2.9771e-15
5.78265e-15
8.30946e-15
1.25475e-14
1.94405e-14
1.97119e-14
1.72009e-14
1.33256e-14
9.20201e-15
4.73981e-15
2.75637e-15
1.75581e-15
1.41998e-15
1.16914e-15
1.03321e-15
9.12287e-16
7.65219e-16
5.94023e-16
2.09745e-20
4.56331e-19
3.80012e-18
2.10268e-17
1.12737e-16
5.29822e-16
1.1364e-15
1.70686e-15
2.68436e-15
4.08112e-15
4.20929e-15
3.61605e-15
2.88066e-15
1.96559e-15
1.01911e-15
6.16869e-16
4.34649e-16
3.25644e-16
2.78566e-16
2.47033e-16
2.18685e-16
1.79495e-16
1.2951e-16
6.98693e-22
2.55781e-20
2.95762e-19
2.06587e-18
1.41282e-17
7.45756e-17
1.84406e-16
3.07138e-16
4.94053e-16
7.16781e-16
7.25913e-16
6.36887e-16
5.14492e-16
3.22814e-16
1.79467e-16
1.17346e-16
8.98141e-17
6.70128e-17
5.83289e-17
5.13795e-17
4.47132e-17
3.42976e-17
2.32316e-17
2.66768e-23
9.12389e-22
1.76824e-20
1.7522e-19
1.32113e-18
7.40599e-18
2.38013e-17
4.47656e-17
7.38656e-17
1.02397e-16
1.03171e-16
9.21309e-17
7.21529e-17
4.47529e-17
2.63072e-17
1.88454e-17
1.50059e-17
1.16746e-17
1.03502e-17
9.10529e-18
7.81069e-18
5.47832e-18
3.55397e-18
6.73501e-25
2.26284e-23
8.21858e-22
1.1324e-20
1.03566e-19
6.08103e-19
2.01632e-18
4.90643e-18
8.27654e-18
1.07413e-17
1.10706e-17
1.03717e-17
8.08182e-18
5.06996e-18
3.34285e-18
2.65223e-18
2.19612e-18
1.73975e-18
1.55406e-18
1.37469e-18
1.11764e-18
7.1625e-19
4.08128e-19
2.78349e-26
5.58702e-25
3.68216e-23
6.291e-22
6.4462e-21
4.06257e-20
1.51213e-19
4.20527e-19
7.51025e-19
1.02778e-18
1.07792e-18
9.85636e-19
7.16198e-19
4.81275e-19
3.79125e-19
3.23503e-19
2.7705e-19
2.41392e-19
2.06204e-19
1.75716e-19
1.31225e-19
7.6312e-20
3.86763e-20
9.4079e-28
1.06119e-26
1.33554e-24
2.8482e-23
3.26182e-22
1.98477e-21
9.01258e-21
2.94656e-20
5.73864e-20
8.22348e-20
8.79096e-20
7.72296e-20
5.68762e-20
4.45853e-20
3.90821e-20
3.5529e-20
3.24115e-20
2.79655e-20
2.46212e-20
1.91968e-20
1.26888e-20
6.61154e-21
3.07311e-21
2.99328e-29
2.52413e-28
4.3509e-26
1.07572e-24
1.30698e-23
9.57861e-23
4.81298e-22
1.80434e-21
4.0425e-21
5.74403e-21
5.97089e-21
5.24447e-21
4.2672e-21
3.8779e-21
3.67356e-21
3.50537e-21
3.23775e-21
2.89374e-21
2.37525e-21
1.67373e-21
9.87776e-22
4.58085e-22
2.15889e-22
7.78339e-31
5.53828e-30
1.09921e-27
3.18705e-26
4.35901e-25
3.80096e-24
2.12736e-23
8.67118e-23
2.31489e-22
3.35309e-22
3.50217e-22
3.21747e-22
3.05605e-22
3.11248e-22
3.12958e-22
3.09728e-22
2.90263e-22
2.55034e-22
1.94668e-22
1.22932e-22
6.25748e-23
2.85263e-23
5.07696e-24
1.59868e-32
9.73437e-32
2.18692e-29
7.67498e-28
1.25061e-26
1.18542e-25
7.72312e-25
3.51963e-24
1.0968e-23
1.63783e-23
1.78767e-23
1.86844e-23
2.05384e-23
2.25601e-23
2.38358e-23
2.41312e-23
2.28363e-23
1.94494e-23
1.36928e-23
7.76519e-24
3.78461e-24
6.29609e-25
4.20556e-26
2.57257e-34
1.34873e-33
3.55216e-31
1.59717e-29
2.88613e-28
3.07348e-27
2.45183e-26
1.19305e-25
4.24327e-25
6.60155e-25
7.9364e-25
9.95791e-25
1.20988e-24
1.42562e-24
1.59118e-24
1.66813e-24
1.60349e-24
1.32119e-24
8.59163e-25
4.72801e-25
9.88904e-26
6.9283e-27
1.51929e-27
1.84698e-36
1.38956e-35
4.92343e-33
3.08766e-31
5.94693e-30
7.33776e-29
7.20512e-28
4.05202e-27
1.60405e-26
2.60964e-26
3.53509e-26
4.99255e-26
6.78123e-26
8.59984e-26
9.95965e-26
1.0829e-25
1.05839e-25
8.60711e-26
4.869e-26
1.59386e-26
2.03823e-27
2.78943e-28
5.36518e-28
-1.33725e-37
-1.81708e-38
6.41824e-35
6.03448e-33
1.23061e-31
1.68376e-30
1.95178e-29
1.16883e-28
5.05924e-28
8.98132e-28
1.41302e-27
2.30229e-27
3.40598e-27
4.63442e-27
5.67342e-27
6.3768e-27
6.24191e-27
4.81653e-27
2.35278e-27
5.93632e-28
6.00969e-29
5.68275e-29
3.00389e-28
-1.07184e-38
-9.00171e-39
8.20377e-37
1.05888e-34
2.36404e-33
3.53923e-32
4.7465e-31
3.06884e-30
1.43135e-29
2.79817e-29
4.96836e-29
9.16066e-29
1.49642e-28
2.23345e-28
3.05821e-28
3.45141e-28
3.39934e-28
2.53344e-28
1.12224e-28
2.28257e-29
6.11267e-30
2.10701e-29
1.44551e-28
0.0180708
0.0389557
0.0390923
0.0410038
0.0359836
0.0391114
0.0381776
0.0151798
0.0362393
0.0365918
0.0141819
8.55239e-11
0.00272404
0.00241185
0.000362187
5.77404e-11
1.83981e-10
7.69218e-11
1.77114e-10
7.65353e-11
9.15878e-10
8.915e-10
1.15301e-10
1.64426e-09
1.32969e-09
1.19489e-09
4.67294e-10
1.15545e-10
1.56237e-09
1.74662e-09
6.27669e-10
1.19049e-09
1.0168e-09
1.50165e-09
1.85229e-09
1.83096e-09
2.65787e-10
2.8301e-10
3.12813e-10
3.13538e-10
1.68042e-11
1.46636e-11
1.31944e-11
1.21441e-11
3.25558e-12
2.90914e-12
2.56317e-12
2.12402e-12
6.25517e-13
5.02572e-13
4.93621e-13
4.69371e-13
3.26724e-13
2.99331e-13
2.72788e-13
2.56063e-13
2.34883e-13
1.94086e-13
1.76715e-13
1.55506e-13
2.7743e-13
1.97668e-13
1.68281e-13
1.355e-13
4.34842e-13
3.03084e-13
2.51027e-13
1.9172e-13
7.05995e-13
5.07223e-13
4.24063e-13
3.24969e-13
8.05126e-13
6.26153e-13
5.41372e-13
4.38622e-13
7.18858e-13
5.72714e-13
5.01198e-13
4.26804e-13
5.60536e-13
4.74845e-13
4.33595e-13
3.79316e-13
3.84268e-13
3.35192e-13
3.0972e-13
2.75529e-13
2.37666e-13
2.10466e-13
1.89252e-13
1.66294e-13
1.48812e-13
1.1797e-13
9.68967e-14
8.44954e-14
6.27124e-14
5.13499e-14
4.48254e-14
3.69379e-14
2.31677e-14
1.95429e-14
1.62928e-14
1.33348e-14
7.53276e-15
6.3534e-15
5.51438e-15
4.45455e-15
2.1452e-15
1.81501e-15
1.53305e-15
1.25205e-15
5.27552e-16
4.20722e-16
3.61646e-16
2.90815e-16
1.08589e-16
8.71774e-17
6.95768e-17
5.39967e-17
1.78716e-17
1.32457e-17
1.02571e-17
7.57516e-18
2.63798e-18
1.87965e-18
1.29352e-18
8.6674e-19
2.84125e-19
1.87892e-19
1.19127e-19
7.33135e-20
2.48942e-20
1.51626e-20
9.09989e-21
5.62076e-21
1.91625e-21
1.14507e-21
2.75888e-22
1.40215e-23
4.76688e-23
4.24132e-24
3.63054e-25
4.0427e-26
1.74804e-27
5.81206e-27
1.23884e-26
2.90777e-26
1.73654e-27
4.93322e-27
1.11173e-26
3.07905e-26
1.72772e-27
3.35594e-27
1.03426e-26
3.2726e-26
1.04013e-27
3.11939e-27
1.07464e-26
3.37833e-26
6.81075e-28
2.64312e-27
9.38273e-27
2.85655e-26
5.52788e-28
1.86396e-27
5.74908e-27
1.48204e-26
0.0837316
0.112076
0.0535014
0.000178772
6.52024e-07
4.17406e-08
1.89687e-08
4.32494e-09
2.07046e-14
3.59742e-10
8.47729e-05
0.000148337
7.76358e-05
0.000275636
0.000672663
0.000665907
0.000165724
4.10246e-07
0.0113711
0.0923531
0.124071
0.0933437
0.00416811
0.000201135
1.81678e-05
9.27919e-07
6.00058e-08
8.45279e-08
1.36404e-08
7.47688e-09
6.66388e-05
0.000104229
8.72332e-05
5.47919e-05
4.80035e-05
1.33151e-05
4.12681e-07
0.00493404
0.0148865
0.112409
0.0895894
0.00464693
1.73508e-07
7.78925e-08
8.59479e-08
2.57619e-07
2.88939e-07
2.79378e-07
6.24829e-08
1.5332e-08
8.38897e-06
1.82192e-05
1.78528e-05
7.7558e-06
1.74915e-06
4.70221e-07
0.00427889
0.00333351
0.0019863
0.00601172
0.00852216
0.00187852
1.16227e-07
7.82218e-08
1.16858e-07
1.7214e-07
1.95268e-07
7.21623e-08
1.56294e-08
1.60952e-07
1.62932e-06
1.75953e-05
1.5208e-05
5.6493e-06
0.000881137
0.00623981
3.13429e-06
1.7877e-08
8.72025e-10
1.49599e-09
0.000126937
0.000129833
3.70589e-06
7.21274e-08
4.65441e-08
3.96438e-08
2.43047e-08
1.5217e-08
7.3468e-08
5.01144e-06
1.66054e-05
1.43936e-05
4.07013e-06
0.00189991
0.00630973
3.52254e-09
2.23192e-07
1.90006e-07
3.24405e-08
3.63122e-11
1.68482e-10
7.23822e-08
9.6267e-08
2.69339e-08
2.15142e-09
6.09911e-10
1.48477e-09
1.52807e-09
2.56019e-06
1.23719e-07
6.02679e-05
0.000351918
0.00123552
0.00454407
1.80279e-07
2.53146e-07
1.20057e-07
3.34396e-08
4.71876e-09
6.51216e-10
3.07971e-12
1.13245e-11
1.5442e-09
2.34435e-09
7.73875e-10
3.53537e-09
1.16067e-08
1.05939e-08
1.41232e-08
0.000196667
0.00044109
0.00015177
0.000114373
1.44164e-08
9.31376e-09
5.79648e-09
8.13826e-09
7.60697e-09
3.42249e-09
3.5169e-10
4.19923e-12
1.98163e-12
3.42094e-10
1.36801e-11
8.62946e-09
1.13355e-08
1.18135e-08
5.20089e-06
0.000119687
0.000236143
1.39348e-05
6.22478e-09
1.19633e-09
1.22481e-09
1.23116e-09
9.68092e-10
4.44435e-10
1.30302e-10
2.60782e-11
1.29494e-11
6.2708e-12
4.37276e-11
1.38948e-11
9.5366e-09
1.09282e-08
4.17014e-06
1.96037e-05
1.04345e-05
-1.74438e-14
1.17929e-09
2.37913e-09
2.96272e-10
2.66126e-10
1.54891e-10
1.51183e-11
2.37808e-12
8.42674e-13
1.05202e-12
9.33387e-13
3.85322e-12
1.35603e-11
1.3656e-11
5.4713e-09
1.55082e-07
9.40632e-06
1.27537e-05
4.42213e-09
1.89803e-13
7.4961e-10
8.45829e-10
7.98653e-12
4.40405e-12
3.1018e-12
1.52843e-12
1.04541e-12
6.12212e-13
3.6951e-13
6.29661e-13
6.77369e-12
1.7619e-11
4.40988e-10
4.33222e-08
1.15909e-06
5.6477e-06
4.43001e-07
-9.33745e-27
9.92827e-12
6.10132e-10
1.94147e-10
1.27313e-12
7.81401e-13
6.20724e-13
4.44661e-13
2.87982e-13
2.50139e-13
2.87444e-13
1.47252e-12
4.95979e-12
4.82111e-12
5.94063e-09
2.11572e-07
7.76444e-07
8.21792e-08
4.40602e-13
2.2761e-11
8.20547e-11
3.3411e-10
6.61261e-12
4.578e-13
3.69578e-13
2.6058e-13
1.84469e-13
1.52937e-13
1.49802e-13
2.33775e-13
2.0049e-12
2.01725e-12
1.49555e-09
3.20093e-08
8.14466e-08
7.95743e-09
1.24952e-13
3.58254e-12
2.06076e-11
4.59411e-11
6.99198e-11
4.67398e-14
2.35297e-13
1.85852e-13
1.24527e-13
1.00482e-13
9.3123e-14
1.03157e-13
1.69074e-12
3.47483e-11
1.78116e-10
2.08144e-09
1.77329e-08
2.60539e-08
7.95191e-11
7.88342e-14
2.44461e-12
1.01469e-11
1.44802e-11
6.48169e-13
1.06979e-14
1.3831e-13
1.0582e-13
7.62577e-14
6.66391e-14
7.6522e-14
1.82198e-13
4.91071e-12
4.85394e-11
1.45133e-10
5.10457e-10
1.69139e-09
6.6054e-09
5.36442e-14
5.51874e-14
7.1252e-13
3.03622e-12
4.94875e-12
4.70897e-14
9.24613e-15
1.11198e-13
7.09506e-14
5.1063e-14
4.51952e-14
5.20433e-14
2.35108e-13
1.8524e-12
1.54903e-11
4.74817e-11
8.3787e-11
1.00149e-10
2.11873e-10
7.22724e-13
3.60574e-14
1.54954e-13
5.82576e-13
5.57741e-13
1.7717e-14
7.67772e-15
1.48484e-13
7.5608e-14
4.30064e-14
3.12115e-14
3.10241e-14
1.44069e-13
7.18556e-13
3.09212e-12
9.39947e-12
1.97745e-11
2.18511e-11
5.29362e-12
3.29436e-13
1.68634e-14
3.36858e-14
8.4436e-14
1.09352e-13
1.19077e-14
6.48115e-15
2.48689e-13
1.14612e-13
5.53897e-14
3.38165e-14
2.07907e-14
2.22973e-14
9.1797e-14
4.64639e-13
1.46527e-12
3.03181e-12
3.29757e-12
9.48668e-13
1.38995e-13
8.64252e-15
1.12463e-14
1.67082e-14
1.54487e-14
1.01975e-14
5.2886e-15
3.53528e-13
1.89745e-13
8.78695e-14
5.2913e-14
2.35715e-14
1.62386e-14
1.37251e-14
3.91607e-14
1.63523e-13
3.63124e-13
4.31019e-13
9.78842e-14
3.8137e-14
4.21243e-15
5.33186e-15
7.04051e-15
7.68205e-15
8.07127e-15
4.31796e-15
3.62051e-13
2.24106e-13
1.18102e-13
7.28814e-14
3.50392e-14
2.01472e-14
1.09963e-14
7.88376e-15
1.33287e-14
3.11354e-14
4.07175e-14
1.37735e-14
7.10665e-15
1.90883e-15
2.50474e-15
3.17914e-15
3.95773e-15
5.56311e-15
3.3084e-15
3.24291e-13
2.13187e-13
1.19785e-13
7.63349e-14
3.95939e-14
2.23771e-14
1.14871e-14
5.95006e-15
3.6535e-15
3.21847e-15
3.15624e-15
1.67288e-15
1.20192e-15
8.04546e-16
1.13599e-15
1.38703e-15
2.14383e-15
3.09875e-15
2.01726e-15
2.41075e-13
1.67209e-13
9.96516e-14
6.60041e-14
3.54854e-14
2.03794e-14
1.04707e-14
5.19921e-15
2.62981e-15
1.30778e-15
5.59352e-16
3.13592e-16
2.72167e-16
2.98569e-16
4.93541e-16
8.29445e-16
1.36696e-15
1.75199e-15
1.28139e-15
1.4757e-13
1.01832e-13
6.70468e-14
4.27074e-14
2.57965e-14
1.46457e-14
7.69962e-15
3.7756e-15
1.88123e-15
7.8384e-16
2.64401e-16
8.66593e-17
6.93527e-17
9.44416e-17
2.19701e-16
5.04703e-16
8.68699e-16
1.04657e-15
7.88204e-16
7.39491e-14
5.20042e-14
3.45916e-14
2.32336e-14
1.38767e-14
8.13555e-15
4.29919e-15
2.1962e-15
1.11389e-15
4.26492e-16
1.04343e-16
1.95258e-17
1.11958e-17
3.63196e-17
1.18655e-16
2.93685e-16
5.29882e-16
6.2771e-16
4.53922e-16
3.14004e-14
2.15164e-14
1.45835e-14
9.75711e-15
5.90532e-15
3.42988e-15
1.87218e-15
9.88611e-16
4.44198e-16
1.32745e-16
2.1666e-17
1.83012e-18
3.84747e-18
1.76591e-17
6.25159e-17
1.6144e-16
3.11118e-16
3.69644e-16
2.40533e-16
1.07247e-14
7.37292e-15
4.9268e-15
3.22538e-15
1.98697e-15
1.121e-15
6.19155e-16
3.42312e-16
1.25761e-16
2.41219e-17
5.87309e-19
3.00639e-19
1.63965e-18
8.37772e-18
3.1874e-17
8.83833e-17
1.71267e-16
2.11964e-16
1.24665e-16
3.38296e-15
2.24418e-15
1.38985e-15
8.5917e-16
5.09454e-16
2.79889e-16
1.64225e-16
7.13443e-17
1.85702e-17
4.61536e-19
4.65338e-20
1.15916e-19
7.381e-19
3.9695e-18
1.6259e-17
4.49913e-17
9.24064e-17
1.14359e-16
6.61142e-17
8.57532e-16
5.44694e-16
3.12826e-16
1.8206e-16
1.03349e-16
6.22516e-17
2.66748e-17
7.4132e-18
2.19604e-19
1.87496e-20
2.79972e-20
7.30596e-20
3.72878e-19
1.9683e-18
7.91742e-18
2.29878e-17
4.75757e-17
5.77386e-17
3.31347e-17
1.81917e-16
1.09077e-16
5.50109e-17
3.0045e-17
1.81869e-17
6.82462e-18
1.71557e-18
4.23187e-20
7.85381e-21
1.29488e-20
2.68372e-20
6.57111e-20
2.29466e-19
9.82777e-19
3.83026e-18
1.09886e-17
2.41297e-17
3.01298e-17
1.59175e-17
2.98433e-17
1.6139e-17
7.37403e-18
4.32535e-18
1.2871e-18
2.31629e-19
5.42462e-21
3.22514e-21
6.30573e-21
1.38438e-20
3.03191e-20
6.85455e-20
1.77652e-19
5.5259e-19
1.92597e-18
5.23069e-18
1.21209e-17
1.75425e-17
9.48817e-18
3.97099e-18
1.78029e-18
9.93967e-19
2.40919e-19
1.99556e-20
1.09166e-21
1.41995e-21
3.08039e-21
7.22088e-21
1.64363e-20
3.56461e-20
7.56352e-20
1.65961e-19
3.92039e-19
1.0572e-18
2.54542e-18
6.21322e-18
8.77508e-18
4.39264e-18
3.78859e-19
1.87349e-19
3.89363e-20
2.10899e-21
3.36148e-22
5.91506e-22
1.40426e-21
3.4761e-21
8.33811e-21
1.91425e-20
4.14878e-20
8.59276e-20
1.70171e-19
3.35466e-19
6.96368e-19
1.54107e-18
4.06667e-18
4.33427e-18
2.18048e-18
3.39369e-20
5.04668e-21
2.02822e-22
9.63047e-23
2.15096e-22
5.78521e-22
1.52347e-21
3.8393e-21
9.32752e-21
2.14526e-20
4.65443e-20
9.3283e-20
1.74796e-19
3.05418e-19
5.31687e-19
1.20392e-18
2.06781e-18
2.06051e-18
8.5931e-19
9.83526e-22
2.41586e-23
2.36364e-23
7.00182e-23
2.09026e-22
5.85704e-22
1.57498e-21
4.03389e-21
9.92205e-21
2.30128e-20
4.915e-20
9.62357e-20
1.68401e-19
2.72981e-19
4.7866e-19
8.68724e-19
1.14169e-18
8.68114e-19
3.5011e-19
1.2326e-24
4.56328e-24
1.94383e-23
6.46998e-23
1.9508e-22
5.65824e-22
1.52721e-21
3.95953e-21
9.63286e-21
2.19576e-20
4.72116e-20
9.12347e-20
1.51674e-19
2.4805e-19
4.00685e-19
5.85474e-19
6.02998e-19
4.0014e-19
1.28253e-19
6.62424e-25
3.99915e-24
1.62125e-23
5.50302e-23
1.73938e-22
5.05331e-22
1.39316e-21
3.59367e-21
8.76321e-21
1.99732e-20
4.20877e-20
7.96104e-20
1.31895e-19
2.06249e-19
2.88148e-19
3.5624e-19
3.12293e-19
1.64609e-19
5.44674e-20
5.80227e-25
3.30215e-24
1.29113e-23
4.57382e-23
1.44095e-22
4.20845e-22
1.14368e-21
2.92311e-21
7.02933e-21
1.58833e-20
3.29306e-20
6.06237e-20
9.90343e-20
1.47357e-19
1.80942e-19
1.84651e-19
1.33904e-19
6.60698e-20
2.16558e-20
5.05642e-25
2.57047e-24
1.0072e-23
3.48432e-23
1.08358e-22
3.12711e-22
8.36129e-22
2.08403e-21
4.88431e-21
1.08018e-20
2.17729e-20
3.8958e-20
6.17226e-20
8.65657e-20
9.45424e-20
8.24772e-20
4.71706e-20
2.32252e-20
9.60532e-21
3.95035e-25
1.80705e-24
6.90507e-24
2.26726e-23
7.01211e-23
1.96182e-22
5.12146e-22
1.2437e-21
2.83534e-21
6.10877e-21
1.19905e-20
2.08115e-20
3.15287e-20
4.18425e-20
4.15916e-20
3.17044e-20
1.56638e-20
8.45446e-21
3.73794e-21
2.70285e-25
1.08292e-24
3.80787e-24
1.18794e-23
3.36992e-23
9.01428e-23
2.30008e-22
5.54263e-22
1.24463e-21
2.62582e-21
5.065e-21
8.68989e-21
1.26449e-20
1.61526e-20
1.44626e-20
1.08292e-20
4.62508e-21
2.52406e-21
1.91054e-21
1.40259e-25
4.91755e-25
1.57756e-24
4.6252e-24
1.27608e-23
3.34265e-23
8.20449e-23
1.96758e-22
4.37748e-22
9.05171e-22
1.70139e-21
2.87301e-21
4.08183e-21
5.03112e-21
4.33154e-21
3.2599e-21
1.2133e-21
9.65415e-22
9.00546e-22
4.08473e-26
1.23223e-25
3.60352e-25
9.81183e-25
2.62251e-24
7.04617e-24
1.71757e-23
4.09137e-23
9.67351e-23
2.07509e-22
4.03041e-22
6.96669e-22
1.00626e-21
1.22015e-21
1.05274e-21
8.33396e-22
3.51216e-22
3.20929e-22
3.10974e-22
)
;

boundaryField
{
    leftWall
    {
        type            alphaContactAngle;
        contactAngleProperties 
        {
            air             
            {
                theta0          90;
            }
            water           
            {
                theta0          90;
            }
            oil             
            {
                theta0          90;
            }
        }
        value           nonuniform List<scalar> 
50
(
1
1
1
1
0.981773
0.338168
8.71684e-11
1.48949e-09
2.39646e-09
1.86046e-09
5.20171e-10
3.13872e-10
2.03956e-10
1.89779e-10
2.68175e-10
4.18286e-10
4.17481e-10
3.82307e-10
3.12357e-10
1.81144e-10
4.7266e-11
2.258e-11
1.09187e-11
6.40514e-12
6.39209e-12
3.56706e-12
1.79529e-12
8.04105e-13
3.09606e-13
9.84281e-14
2.6981e-14
6.97568e-15
1.35365e-15
2.22647e-16
3.11173e-17
3.50786e-18
3.09535e-19
2.09745e-20
6.98693e-22
2.66768e-23
6.73501e-25
2.78349e-26
9.4079e-28
2.99328e-29
7.78339e-31
1.59868e-32
2.57257e-34
1.84698e-36
-1.33725e-37
-1.07184e-38
)
;
    }
    rightWall
    {
        type            alphaContactAngle;
        contactAngleProperties 
        {
            air             
            {
                theta0          90;
            }
            water           
            {
                theta0          90;
            }
            oil             
            {
                theta0          90;
            }
        }
        value           nonuniform List<scalar> 
50
(
0.694389
0.575979
0.389728
0.193382
0.0504385
0.00881673
0.0107273
0.0134245
0.0113711
0.00493404
0.00427889
0.00623981
0.00630973
0.00454407
0.000114373
6.22478e-09
2.37913e-09
8.45829e-10
1.94147e-10
6.61261e-12
4.67398e-14
1.06979e-14
9.24613e-15
7.67772e-15
6.48115e-15
5.2886e-15
4.31796e-15
3.3084e-15
2.01726e-15
1.28139e-15
7.88204e-16
4.53922e-16
2.40533e-16
1.24665e-16
6.61142e-17
3.31347e-17
1.59175e-17
9.48817e-18
4.39264e-18
2.18048e-18
8.5931e-19
3.5011e-19
1.28253e-19
5.44674e-20
2.16558e-20
9.60532e-21
3.73794e-21
1.91054e-21
9.00546e-22
3.10974e-22
)
;
    }
    lowerWall
    {
        type            alphaContactAngle;
        contactAngleProperties 
        {
            air             
            {
                theta0          90;
            }
            water           
            {
                theta0          90;
            }
            oil             
            {
                theta0          90;
            }
        }
        value           nonuniform List<scalar> 
62
(
1
1
1
1
1
1
1
1
1
1
1
1
1
1
1
1
1
1
1
1
1
0.99957
0.999432
0.999432
0.999432
0.999661
0.999987
0.999999
0.999814
0.999542
0.759831
0.0180708
0.0389557
0.0390923
0.0410038
0.875172
0.87612
0.865223
0.853359
0.716066
0.135011
0.0952124
0.0953671
0.875172
0.875872
0.871671
0.652237
0.535696
0.536769
0.572955
0.59361
0.593755
0.581666
0.581766
0.635801
0.692225
0.692799
0.694429
0.692455
0.696459
0.694058
0.694389
)
;
    }
    atmosphere
    {
        type            inletOutlet;
        inletValue      uniform 0;
        value           nonuniform List<scalar> 
46
(
0
0
0
0
0
0
0
0
0
0
0
0
0
0
0
0
0
0
0
0
0
0
0
0
0
0
0
0
0
0
0
2.62251e-24
7.04617e-24
1.71757e-23
4.09137e-23
9.67351e-23
2.07509e-22
4.03041e-22
6.96669e-22
1.00626e-21
1.22015e-21
1.05274e-21
8.33397e-22
3.51216e-22
3.20929e-22
3.10974e-22
)
;
    }
    defaultFaces
    {
        type            empty;
    }
}


// ************************************************************************* //
