/*--------------------------------*- C++ -*----------------------------------*\
  =========                 |
  \\      /  F ield         | OpenFOAM: The Open Source CFD Toolbox
   \\    /   O peration     | Website:  https://openfoam.org
    \\  /    A nd           | Version:  13
     \\/     M anipulation  |
\*---------------------------------------------------------------------------*/
FoamFile
{
    format      ascii;
    class       volScalarField;
    location    "1.4";
    object      alpha.oil;
}
// * * * * * * * * * * * * * * * * * * * * * * * * * * * * * * * * * * * * * //

dimensions      [];

internalField   nonuniform List<scalar> 
2268
(
2.44524e-16
3.12358e-15
3.23423e-14
1.30105e-13
3.19552e-13
7.14837e-13
1.22204e-12
2.82496e-12
5.83808e-12
1.0725e-11
1.94197e-11
4.12637e-11
7.91033e-11
1.62611e-10
3.24846e-10
6.52124e-10
1.24127e-09
2.17333e-09
3.06147e-09
3.31344e-09
3.46967e-09
0.000430095
0.000568239
4.32941e-16
4.93226e-15
2.11855e-14
6.60565e-14
2.42702e-13
6.53219e-13
1.4593e-12
3.32995e-12
7.25533e-12
1.60801e-11
3.34784e-11
6.89931e-11
1.41869e-10
2.85047e-10
5.52802e-10
1.05455e-09
2.14842e-09
4.6262e-09
1.30079e-08
2.31376e-08
3.45991e-09
9.99753e-05
0.000567914
7.24467e-16
3.52786e-15
1.12123e-14
3.49801e-14
1.49072e-13
6.56271e-13
1.72339e-12
3.88104e-12
9.82669e-12
2.30033e-11
5.13227e-11
1.1058e-10
2.20822e-10
4.07535e-10
6.87208e-10
1.11115e-09
1.40204e-09
3.89653e-09
3.24552e-08
4.50926e-08
3.04632e-08
3.16484e-08
0.000339045
7.30639e-16
1.85898e-15
5.96408e-15
1.74558e-14
7.30944e-14
3.63879e-13
1.20846e-12
3.30205e-12
9.1789e-12
2.32137e-11
5.2195e-11
1.15617e-10
2.5083e-10
4.93079e-10
1.41474e-09
3.24062e-09
3.76148e-09
7.3846e-09
2.29423e-08
3.63441e-08
3.21187e-08
3.40104e-08
1.3057e-05
1.95675e-14
2.2008e-13
4.85593e-13
3.79859e-13
1.88701e-13
1.43649e-13
3.81655e-13
9.879e-13
3.28633e-12
1.14532e-11
3.10983e-11
7.80421e-11
1.73331e-10
2.93913e-10
1.50705e-09
7.83119e-09
6.59249e-09
5.97822e-09
7.07715e-09
1.07453e-08
1.28196e-08
4.1092e-07
5.1584e-07
8.21355e-12
2.07516e-11
4.17928e-11
3.32434e-11
2.21568e-11
9.49931e-12
2.34764e-12
1.33514e-12
1.19003e-12
2.97183e-12
9.53366e-12
2.62038e-11
1.24652e-10
2.83394e-10
2.95934e-10
4.85615e-09
1.35962e-07
5.00568e-08
4.79039e-08
1.84828e-07
1.12737e-08
8.46389e-09
0.000183929
1.64436e-10
2.00246e-10
2.62728e-10
2.37808e-10
1.85009e-10
9.42507e-11
5.11503e-11
2.33216e-11
1.25659e-11
1.08475e-11
1.26586e-11
1.94483e-11
1.79195e-10
5.25621e-10
5.80578e-10
7.01162e-10
5.08501e-10
1.11926e-06
5.58111e-06
7.71522e-06
4.86702e-06
3.67227e-07
0.000453653
1.07702e-09
1.19045e-09
1.26136e-09
1.11208e-09
8.58816e-10
4.16001e-10
1.93571e-10
8.94155e-11
4.61952e-11
3.62416e-11
4.75441e-11
9.98293e-11
2.09385e-10
4.81754e-10
5.04975e-10
4.80925e-10
4.75771e-10
1.76369e-06
7.94648e-06
7.94598e-06
6.35457e-06
2.47589e-06
0.000450457
0.106832
0.0436302
0.0209413
0.249749
0.374803
0.374695
0.372161
0.355944
0.355994
0.356155
0.265319
0.0924412
0.0563337
0.0924919
0.17173
0.240671
0.271017
0.270271
0.271957
0.1066
0.0360302
0.0013451
0.0015853
0.0154753
0.0123698
0.00903929
0.015062
0.0406742
0.0986122
0.22856
0.138452
0.0560921
0.0585012
0.144345
0.214162
0.219545
0.249564
0.38768
0.10873
0.347324
1.12056e-11
-1.44984e-14
-1.18994e-20
2.68714e-07
0.000618869
0.0678801
0.158841
0.199242
0.286892
0.286564
0.246457
0.22214
0.188676
0.242745
0.261733
0.272233
0.520685
0.111058
0.536842
0.00664968
-1.01855e-09
3.47847e-07
-2.62191e-10
0.0052646
0.140391
0.240016
0.24281
0.244403
0.267642
0.270044
0.268319
0.26942
0.227958
0.175416
0.318766
0.520192
0.260008
0.351318
0.00763469
8.77728e-08
7.97628e-07
2.00226e-11
0.000365631
0.0114208
0.0848307
0.213357
0.235024
0.137937
0.131913
0.117224
0.127123
0.122103
0.126179
0.343889
0.520685
0.861355
0.349375
0.000518975
1.21275e-07
2.58602e-06
4.11706e-06
2.35436e-05
2.39668e-06
2.77391e-06
0.00196156
0.111373
0.183053
0.172135
0.116888
0.1222
0.122271
0.131152
0.248005
0.46277
0.903497
0.500977
0.0229094
-2.89204e-07
7.28375e-06
2.42896e-05
3.25596e-05
3.85793e-05
3.30687e-05
2.56302e-05
6.92709e-05
0.0585818
0.0630714
0.132661
0.300872
0.500481
0.513194
0.52254
0.461838
0.903586
0.757417
0.0863244
-3.37792e-07
2.05329e-05
2.42722e-05
2.22514e-05
2.19107e-05
2.2375e-05
2.548e-05
2.56302e-05
8.03667e-05
0.0283491
0.311643
0.751591
0.962098
0.973209
0.818546
0.649788
3.27516e-09
4.27355e-09
4.17471e-09
3.78701e-09
3.12028e-09
1.35417e-09
6.02227e-10
2.6847e-10
1.27049e-10
8.49284e-11
1.08651e-10
2.70218e-10
4.11655e-10
4.84878e-10
4.9708e-10
4.59051e-10
3.30601e-08
1.94725e-07
1.43092e-06
2.43392e-06
2.88703e-06
0.000711423
0.000468289
1.04783e-08
9.34504e-09
8.90245e-09
8.79992e-09
8.40543e-09
4.20859e-09
1.78623e-09
8.19308e-10
3.96372e-10
2.39911e-10
3.3489e-10
1.03736e-09
1.45914e-09
1.43996e-09
2.22939e-09
7.75819e-09
1.36616e-08
6.75045e-09
3.0336e-09
-1.5575e-09
1.78752e-08
0.000201373
7.76651e-06
1.73133e-08
1.12461e-08
1.01503e-08
9.11403e-09
8.12177e-09
6.2279e-09
3.78933e-09
1.20027e-09
9.0167e-10
4.88744e-10
5.79768e-10
3.80635e-09
5.5434e-09
5.19031e-09
5.7518e-09
7.23594e-09
6.58895e-09
4.55497e-09
2.86657e-09
1.19145e-08
1.53069e-08
2.39933e-08
7.59953e-09
1.76857e-08
9.0016e-09
9.22532e-09
8.78819e-09
4.80716e-09
6.50549e-09
-1.31255e-10
1.2308e-09
2.07023e-08
1.54311e-08
7.7865e-09
4.93815e-09
3.44048e-09
-5.61024e-11
-1.03472e-14
-7.09507e-22
9.16977e-13
6.27998e-27
-1.07344e-26
7.01612e-18
1.40353e-25
0.0979484
0.637659
2.09366e-08
6.94439e-09
0.0376404
0.170625
0.214375
0.164231
0.0931351
0.0469795
0.0352446
0.0241573
0.0161526
0.012198
0.0105242
0.0162194
0.0302086
0.0284323
0.015835
0.0397055
0.192779
0.40867
0.650955
0.89645
0.989998
1.70939e-08
0.150127
0.702838
0.921464
0.941335
0.834766
0.694073
0.638613
0.618257
0.573429
0.527743
0.511346
0.508387
0.52738
0.58476
0.681281
0.816287
0.894496
0.933549
0.966991
0.993985
0.999953
1
0.0212451
0.595418
0.983886
0.987511
0.987537
0.979589
0.955183
0.931145
0.965461
0.950233
0.971151
0.977851
0.986776
0.998497
0.999997
1
1
0.999999
0.999998
0.999998
0.999998
0.999999
1
0.080345
0.576592
0.693479
0.817403
0.937819
0.989213
1
1
1
1
1
1
1
1
1
1
0.999999
0.999998
0.999998
0.999998
0.999999
1
1
0.0644184
0.0256836
1.21251e-18
0.0597001
0.224947
0.430679
0.639492
0.788095
0.880196
0.943903
0.97994
0.996797
1
1
1
1
1
1
1
1
1
1
1
0.0349499
4.35299e-06
-1.07368e-24
8.57213e-16
1.91603e-15
9.534e-18
4.31056e-09
0.0414953
0.123886
0.222542
0.335152
0.458641
0.58781
0.703128
0.778466
0.838294
0.882969
0.911247
0.928701
0.94004
0.943197
0.937193
0.917161
0.0137316
0.0024228
3.62755e-07
5.28217e-08
8.60129e-09
4.16e-09
5.76171e-09
4.31054e-09
4.33182e-14
-7.3371e-23
1.86085e-24
-1.6595e-22
3.19039e-20
0.00782736
0.0437663
0.0833389
0.126007
0.162832
0.190852
0.210386
0.211735
0.184656
0.127828
0.00111131
0.000407474
4.25027e-06
4.16441e-07
5.10429e-08
4.4482e-08
6.97677e-08
2.41919e-07
3.57883e-07
1.7414e-23
1.62749e-23
4.09994e-23
-2.53299e-29
1.92425e-20
2.11557e-17
1.41292e-17
2.64725e-16
1.82565e-15
1.65346e-14
1.06874e-14
-5.01164e-12
5.08863e-08
8.0736e-08
1.34531e-06
1.6873e-06
2.6338e-06
4.64792e-07
7.96535e-08
8.35467e-08
1.65905e-07
7.42742e-07
4.34691e-06
7.34037e-06
1.18383e-05
1.83664e-06
9.36535e-11
3.16388e-09
8.41368e-09
1.37171e-08
2.86773e-08
7.49663e-08
3.24622e-07
7.17488e-07
8.03218e-07
7.39359e-07
8.81153e-07
7.07498e-07
2.31291e-06
2.08048e-06
2.64127e-07
6.56564e-08
9.70344e-08
2.2331e-07
9.17194e-07
6.32436e-06
0.000101353
0.000148242
2.45722e-05
2.77857e-10
3.03569e-09
1.09613e-08
3.04353e-08
1.44965e-07
8.06233e-07
1.33491e-06
1.31179e-06
1.26087e-06
1.04475e-06
4.55073e-07
1.83016e-07
6.46507e-07
1.05935e-07
6.69992e-08
6.7951e-08
9.58352e-08
2.06843e-07
4.49157e-07
9.43817e-06
0.000168258
0.000172915
0.000148604
4.96438e-07
1.1971e-10
1.19024e-09
1.76638e-08
1.86527e-07
1.06238e-06
1.23278e-06
7.73072e-07
2.46305e-07
1.03604e-07
4.85012e-08
2.35405e-08
4.31375e-08
1.05468e-07
8.60142e-08
7.2343e-08
7.58365e-08
1.13125e-07
1.58352e-07
3.22164e-07
5.95836e-05
0.000172058
0.000172361
8.92916e-05
1.64162e-10
1.86866e-10
5.61367e-09
2.27533e-07
2.8823e-07
2.59318e-07
1.24464e-08
1.04449e-08
5.41541e-09
1.05243e-08
2.57421e-08
6.30261e-08
1.02715e-07
9.89299e-08
7.49112e-08
6.24642e-08
6.87753e-08
7.40251e-08
7.06912e-08
2.05949e-08
5.7812e-05
0.000172179
0.000142373
2.27954e-07
2.20325e-08
3.09777e-08
5.23389e-08
2.37763e-08
2.0792e-08
1.85425e-08
5.26956e-09
2.65403e-09
1.44905e-09
1.78103e-08
5.65073e-08
9.1526e-08
9.59027e-08
7.69168e-08
4.68242e-08
3.05131e-08
2.76547e-08
2.34173e-08
1.89806e-08
1.6508e-08
1.97717e-06
2.45696e-05
3.69704e-05
1.29859e-06
2.44895e-07
2.62056e-08
2.40835e-08
3.14424e-08
2.21384e-08
5.82417e-09
1.9153e-09
1.9403e-09
1.15106e-08
3.87087e-08
7.30631e-08
9.0269e-08
7.47421e-08
4.73581e-08
2.52646e-08
2.06093e-08
2.22331e-08
2.11112e-08
1.54224e-08
1.3464e-08
1.35162e-08
2.23229e-06
6.2225e-06
1.21711e-06
1.46043e-07
2.40732e-08
2.44545e-08
2.90804e-08
1.63741e-08
8.01679e-09
7.36483e-09
6.45033e-09
2.16212e-08
4.48225e-08
6.42284e-08
6.9628e-08
4.71318e-08
2.4285e-08
1.8572e-08
1.95735e-08
2.20529e-08
2.11098e-08
1.40356e-08
1.31595e-08
1.38403e-07
1.53684e-06
1.51848e-06
7.92094e-07
2.32e-08
1.71636e-08
1.85963e-08
1.85011e-08
1.55819e-08
1.4585e-08
3.10214e-09
1.16125e-08
2.53067e-08
4.07874e-08
5.12621e-08
4.50665e-08
2.40264e-08
1.47612e-08
1.3686e-08
1.57787e-08
1.76271e-08
1.77578e-08
1.56001e-08
8.63829e-09
7.00322e-09
1.12765e-07
1.08094e-07
1.05474e-07
1.60687e-08
9.47889e-09
9.81613e-09
1.24698e-08
1.26793e-08
1.2603e-09
5.45981e-09
1.23419e-08
2.06768e-08
3.14542e-08
3.58118e-08
2.18621e-08
1.2267e-08
8.59579e-09
8.54495e-09
1.01629e-08
1.18938e-08
1.23591e-08
1.06503e-08
6.57041e-09
5.949e-09
7.91282e-09
2.68569e-08
2.10856e-08
8.48535e-09
7.24661e-09
6.51917e-09
7.72437e-09
4.38082e-10
2.10733e-09
5.19969e-09
9.49043e-09
1.51705e-08
2.27172e-08
1.79726e-08
9.7594e-09
6.21568e-09
4.85864e-09
4.83192e-09
5.89807e-09
7.12273e-09
7.64263e-09
7.07492e-09
5.31383e-09
3.58282e-09
2.90244e-09
4.48287e-09
4.54975e-09
4.06253e-09
4.03032e-09
4.14175e-09
1.35495e-10
6.87129e-10
1.8718e-09
3.65185e-09
5.43537e-09
1.13979e-08
1.17438e-08
6.81727e-09
4.46034e-09
3.02521e-09
2.39003e-09
2.53609e-09
3.12943e-09
3.7387e-09
4.05666e-09
3.8134e-09
3.1814e-09
2.57537e-09
2.10065e-09
2.05368e-09
1.9932e-09
2.07453e-09
2.14362e-09
3.22062e-11
1.9485e-10
5.86307e-10
1.29039e-09
1.69213e-09
4.1533e-09
5.88436e-09
4.04803e-09
2.75717e-09
1.8553e-09
1.29267e-09
1.12674e-09
1.25695e-09
1.50542e-09
1.76523e-09
1.87795e-09
1.71946e-09
1.46057e-09
1.19145e-09
1.0694e-09
1.01575e-09
1.02709e-09
1.04824e-09
6.43725e-12
4.71156e-11
1.58814e-10
3.79517e-10
5.65455e-10
1.35914e-09
2.1724e-09
1.83342e-09
1.36676e-09
9.79013e-10
6.67529e-10
5.22942e-10
5.06139e-10
5.82913e-10
6.90659e-10
7.79632e-10
7.7571e-10
6.91993e-10
5.85035e-10
5.22832e-10
4.82387e-10
4.67955e-10
4.67867e-10
1.04868e-12
9.57847e-12
3.68595e-11
9.6365e-11
1.64798e-10
4.39145e-10
7.32011e-10
6.7721e-10
5.45289e-10
4.09123e-10
2.95109e-10
2.23296e-10
2.00423e-10
2.14428e-10
2.49244e-10
2.84143e-10
2.97888e-10
2.81667e-10
2.51399e-10
2.27808e-10
2.11426e-10
1.98142e-10
1.90021e-10
1.29936e-13
1.53664e-12
6.83105e-12
2.0029e-11
4.0663e-11
1.17875e-10
2.03059e-10
2.06388e-10
1.74197e-10
1.38151e-10
1.0429e-10
8.03177e-11
7.10212e-11
7.3331e-11
8.32848e-11
9.48016e-11
1.03134e-10
1.00391e-10
9.40569e-11
8.75873e-11
8.24845e-11
7.51086e-11
6.81205e-11
1.18514e-14
1.89432e-13
9.7643e-13
3.3179e-12
7.92941e-12
2.62658e-11
4.66781e-11
5.03193e-11
4.53954e-11
3.8302e-11
3.0366e-11
2.43802e-11
2.18725e-11
2.24209e-11
2.55987e-11
2.94599e-11
3.23499e-11
3.21058e-11
3.08597e-11
2.98063e-11
2.79256e-11
2.49944e-11
2.0934e-11
7.73294e-16
1.68709e-14
1.08708e-13
4.09624e-13
1.14807e-12
4.70697e-12
9.00894e-12
1.00322e-11
9.44843e-12
8.43803e-12
7.10864e-12
5.94983e-12
5.64012e-12
6.03882e-12
7.13921e-12
8.3769e-12
9.21219e-12
9.43597e-12
9.21193e-12
8.94265e-12
8.3458e-12
7.2271e-12
5.58566e-12
2.19265e-17
9.44635e-16
7.83535e-15
3.53387e-14
1.38065e-13
6.57114e-13
1.41437e-12
1.67185e-12
1.62133e-12
1.53172e-12
1.36103e-12
1.23297e-12
1.24563e-12
1.44977e-12
1.79054e-12
2.10794e-12
2.36576e-12
2.43073e-12
2.41113e-12
2.32443e-12
2.11829e-12
1.7004e-12
1.22009e-12
5.92629e-19
3.14835e-17
3.85306e-16
2.46509e-15
1.22353e-14
6.35862e-14
1.74216e-13
2.19229e-13
2.29993e-13
2.27095e-13
2.16338e-13
2.13891e-13
2.43468e-13
3.06254e-13
3.81922e-13
4.61696e-13
5.12852e-13
5.41203e-13
5.39855e-13
5.11193e-13
4.54561e-13
3.32212e-13
2.26268e-13
6.15264e-21
6.45817e-19
1.31166e-17
1.27879e-16
8.94643e-16
5.01578e-15
1.44902e-14
2.05439e-14
2.42065e-14
2.5941e-14
2.74117e-14
3.20693e-14
4.0892e-14
5.43634e-14
7.14983e-14
8.83397e-14
9.97949e-14
1.04172e-13
1.04318e-13
9.61e-14
7.97379e-14
5.2817e-14
3.18662e-14
1.12027e-22
1.23709e-20
4.38817e-19
5.89196e-18
5.20795e-17
3.14808e-16
1.02446e-15
1.64168e-15
2.1754e-15
2.74933e-15
3.33218e-15
4.24603e-15
5.9295e-15
8.55463e-15
1.18168e-14
1.48253e-14
1.70225e-14
1.81439e-14
1.77686e-14
1.52204e-14
1.14405e-14
6.92719e-15
3.95408e-15
1.26187e-24
1.503e-22
1.16424e-20
2.3391e-19
2.46527e-18
1.41855e-17
5.54715e-17
1.09918e-16
1.74673e-16
2.59793e-16
3.61044e-16
5.21609e-16
8.09451e-16
1.23553e-15
1.75538e-15
2.28129e-15
2.67903e-15
2.77689e-15
2.55216e-15
2.01275e-15
1.36596e-15
7.94069e-16
5.43066e-16
1.60887e-26
2.29199e-24
3.11314e-22
8.2312e-21
9.32186e-20
6.31817e-19
2.70049e-18
6.7488e-18
1.37314e-17
2.28674e-17
3.55669e-17
5.90067e-17
1.00148e-16
1.61613e-16
2.35746e-16
3.12596e-16
3.63004e-16
3.58339e-16
3.02949e-16
2.20104e-16
1.43723e-16
1.00374e-16
1.3387e-16
2.8246e-28
4.01325e-26
7.12982e-24
2.41058e-22
3.01028e-21
2.38232e-20
1.13643e-19
3.48693e-19
9.43618e-19
1.79779e-18
3.22709e-18
6.06052e-18
1.10684e-17
1.89081e-17
2.86046e-17
3.79326e-17
4.24651e-17
3.99929e-17
3.1886e-17
2.28316e-17
1.70317e-17
2.09476e-17
5.64565e-17
2.2152e-29
8.48402e-28
1.43397e-25
6.17226e-24
9.00799e-23
7.61029e-22
4.26351e-21
1.64893e-20
5.83666e-20
1.27292e-19
2.6469e-19
5.59953e-19
1.10974e-18
1.97746e-18
3.09183e-18
4.0509e-18
4.4159e-18
4.07609e-18
3.29913e-18
2.81662e-18
3.36793e-18
7.38668e-18
2.70292e-17
3.92708e-30
5.41648e-29
2.97072e-27
1.51515e-25
2.49505e-24
2.32775e-23
1.58128e-22
7.30275e-22
3.23347e-21
8.07514e-21
1.92823e-20
4.65199e-20
9.85423e-20
1.86262e-19
2.98988e-19
3.97858e-19
4.46207e-19
4.36008e-19
4.1963e-19
5.20098e-19
9.30995e-19
2.76325e-18
1.48908e-17
7.20964e-31
8.60009e-30
1.2237e-28
4.21221e-27
7.70993e-26
7.96478e-25
6.22588e-24
3.52852e-23
1.85745e-22
5.21824e-22
1.41544e-21
3.74003e-21
8.79964e-21
1.77838e-20
2.95597e-20
4.18058e-20
5.1105e-20
5.85106e-20
7.45673e-20
1.34612e-19
3.28585e-19
1.60921e-18
9.60402e-18
1.23056e-31
1.54611e-30
1.60203e-29
2.21254e-28
3.41868e-27
3.45767e-26
2.80464e-25
1.80239e-24
1.0807e-23
3.5587e-23
1.12336e-22
3.33655e-22
8.58001e-22
1.86312e-21
3.34489e-21
5.15529e-21
7.33935e-21
1.01786e-20
1.67963e-20
4.11167e-20
1.67683e-19
8.92733e-19
6.00917e-18
1.81359e-32
2.50535e-31
2.59667e-30
2.63856e-29
2.78933e-28
2.4998e-27
1.98612e-26
1.38648e-25
8.51911e-25
3.28712e-24
1.15126e-23
3.6565e-23
1.00874e-22
2.338e-22
4.64392e-22
7.75276e-22
1.26427e-21
2.0632e-21
4.27218e-21
1.46982e-20
7.43212e-20
4.17473e-19
2.9646e-18
4.00605e-05
4.82623e-07
5.19457e-06
0.541556
4.70987e-07
2.65487e-06
0.125062
0.717296
0.24634
0.623565
0.735326
0.7731
0.883042
0.931004
0.944708
0.989389
0.999826
1
1
0.999975
1
1
1
0.999999
1
1
1
1
1
1
1
1
1
1
1
1
0.897462
0.870228
0.804536
0.780809
0.0827395
0.0578396
0.0378433
0.00627
1.62492e-07
1.28579e-07
2.72114e-07
2.61729e-07
9.27028e-07
7.4214e-07
6.71939e-07
5.14986e-07
1.57256e-07
1.11863e-07
1.1175e-07
8.63131e-08
2.8977e-08
1.97808e-08
2.47838e-08
1.99827e-08
4.88645e-09
4.06087e-09
4.3593e-09
4.27012e-09
1.20625e-09
1.19448e-09
1.1924e-09
1.19195e-09
1.7015e-09
1.48014e-09
1.42798e-09
1.25052e-09
5.40584e-09
3.1929e-09
3.0445e-09
2.48874e-09
1.17663e-08
6.78437e-09
6.99473e-09
5.99445e-09
1.13008e-08
9.1524e-09
9.31242e-09
8.1974e-09
7.61432e-09
6.88193e-09
6.80611e-09
6.33144e-09
4.20815e-09
4.12112e-09
3.9596e-09
3.76727e-09
2.10334e-09
2.01713e-09
1.96571e-09
1.8854e-09
1.01448e-09
9.61056e-10
9.21384e-10
8.54314e-10
4.46171e-10
4.13791e-10
3.84268e-10
3.47783e-10
1.80315e-10
1.65116e-10
1.5267e-10
1.33888e-10
6.3565e-11
5.67268e-11
5.10717e-11
4.42755e-11
1.92455e-11
1.62528e-11
1.46009e-11
1.23817e-11
4.86531e-12
4.07856e-12
3.40263e-12
2.77392e-12
9.79577e-13
7.6027e-13
6.17705e-13
4.8187e-13
1.74714e-13
1.30715e-13
9.55355e-14
6.90394e-14
2.33385e-14
1.66733e-14
1.19209e-14
8.89345e-15
2.9083e-15
2.24208e-15
1.95399e-15
2.02284e-15
5.01531e-16
5.44678e-16
6.85254e-16
9.79115e-16
1.71898e-16
2.26328e-16
3.54946e-16
6.31616e-16
8.19158e-17
1.25944e-16
2.2954e-16
5.23064e-16
4.31365e-17
7.6484e-17
1.9525e-16
5.74964e-16
2.66563e-17
6.21767e-17
2.00628e-16
6.43952e-16
2.02104e-17
6.21651e-17
2.17441e-16
6.94604e-16
1.38228e-17
5.45982e-17
1.97232e-16
6.11139e-16
1.15047e-17
3.93884e-17
1.23285e-16
3.23592e-16
0.903599
0.773532
0.104614
0.000311127
4.08379e-13
0.00808474
0.0699279
0.193827
0.298612
0.334913
0.356512
0.412651
0.549834
0.769703
0.969353
0.998518
0.999108
0.985629
0.808801
0.818298
0.70149
0.0758256
4.07276e-13
-1.10217e-15
0.127607
0.669407
0.937676
0.971514
0.98594
0.995197
0.997643
0.999754
0.999655
0.999043
0.99905
0.999305
0.999881
0.902953
0.973246
0.758108
0.323953
0.00860036
0.0862851
0.686671
0.999578
0.99999
0.999761
0.999745
0.999829
0.999993
0.999987
0.999945
0.999872
0.999859
0.999948
0.999958
0.882385
0.996636
0.980871
0.753475
0.653653
0.698914
0.923786
1
1
0.999999
0.999996
0.999997
0.999999
1
0.999998
0.999982
0.999981
0.999979
0.977692
0.798144
0.99984
0.998646
0.957824
0.906008
0.956113
0.999316
0.999996
1
1
0.99983
0.999933
1
1
0.999995
0.999983
0.999981
0.99974
0.917507
0.724477
0.999817
0.999661
0.999879
0.999956
0.999988
0.999999
1
1
0.999825
0.999999
0.999998
0.992296
0.769165
0.648643
0.645836
0.602912
0.527271
0.516518
0.486846
0.999997
0.999999
1
1
1
1
1
0.98705
0.981804
0.767642
0.323592
0.132453
0.0390375
0.0195595
0.0177021
0.0103237
0.0031098
0.0103714
0.0380126
0.999999
1
1
1
0.994107
0.922926
0.81064
0.427288
0.032676
0.00641397
2.88285e-06
2.69711e-06
2.86354e-06
2.22965e-06
6.30134e-07
9.46192e-05
0.00027357
4.11587e-07
2.82813e-06
1
0.992118
0.900657
0.802666
0.596457
0.133251
1.22541e-06
1.87354e-07
2.22714e-06
1.86169e-06
3.8724e-07
1.97603e-07
2.20838e-07
0.000626224
0.00241968
0.00279667
0.000996849
1.02613e-08
1.95453e-07
0.747925
0.548004
0.110748
4.79207e-07
2.31808e-07
1.4958e-07
1.65819e-07
9.67102e-08
8.68759e-08
0.000111465
-6.15569e-08
3.67301e-08
2.0639e-05
0.0031415
0.00311715
0.00192089
0.000528584
8.49857e-08
8.05107e-08
3.0497e-07
2.40478e-07
2.57802e-07
1.92758e-07
2.04008e-07
2.19529e-07
1.0257e-07
4.62419e-05
0.00073795
0.00106408
0.000465037
1.01583e-08
0.000215852
0.0024195
0.00131812
1.84144e-05
6.70734e-06
6.28524e-08
3.61872e-07
2.70812e-07
2.33726e-07
1.60797e-07
2.90201e-07
1.14013e-06
9.59967e-07
8.60202e-08
0.000246775
0.0010647
0.00108327
0.00053336
3.12606e-08
0.000148412
7.93379e-05
7.40352e-08
9.63375e-08
8.29751e-08
4.21377e-07
1.39405e-06
3.40447e-07
8.47895e-08
8.23142e-08
5.30885e-07
1.48003e-06
1.33977e-06
1.58638e-05
0.000107572
0.000344039
0.000442631
8.7259e-05
4.84865e-08
1.80825e-06
6.28006e-08
6.9803e-08
1.04395e-07
1.48281e-07
6.34647e-07
1.72051e-06
6.3438e-08
3.37336e-08
9.95496e-08
2.68999e-07
6.28763e-07
2.45839e-06
4.37748e-06
2.88525e-08
9.10305e-09
4.9286e-08
6.65342e-08
2.11378e-06
6.4671e-08
4.24443e-08
7.72222e-08
8.49177e-08
1.1733e-07
7.76737e-07
1.70415e-06
1.70182e-08
1.30666e-08
2.33562e-08
4.74967e-08
8.53519e-08
1.518e-07
5.01048e-09
4.95012e-09
4.27237e-09
3.60739e-08
4.32462e-07
1.79618e-06
2.05948e-08
4.38855e-08
5.24913e-08
4.99771e-08
1.4252e-07
4.97973e-07
1.10935e-06
4.24512e-09
3.96217e-09
4.12047e-09
6.80744e-09
1.16478e-08
6.20569e-09
3.55429e-09
5.15961e-09
8.22715e-09
2.336e-08
9.87765e-08
1.61325e-07
2.02623e-08
2.58762e-08
2.53022e-08
3.48686e-08
8.53124e-08
2.72814e-07
1.81829e-07
1.18518e-09
1.46609e-09
1.80729e-09
2.28824e-09
3.19125e-09
3.16588e-09
3.99094e-09
4.23859e-09
5.07583e-09
7.66129e-09
1.52394e-08
1.87973e-09
1.13723e-08
1.10633e-08
1.02585e-08
1.45748e-08
4.57047e-08
8.14499e-08
7.86688e-08
1.15791e-09
1.00629e-09
9.6472e-10
1.00915e-09
1.36746e-09
1.97925e-09
2.51493e-09
2.77688e-09
3.0318e-09
3.4214e-09
4.04045e-09
3.47785e-09
4.93402e-09
4.72607e-09
4.86407e-09
7.01243e-09
1.16034e-08
2.2956e-08
2.25145e-08
2.03958e-09
1.28391e-09
8.95978e-10
7.8444e-10
7.13985e-10
8.09579e-10
1.0753e-09
1.32724e-09
1.54332e-09
1.71623e-09
1.84828e-09
1.89236e-09
2.39639e-09
2.74304e-09
3.42957e-09
4.63494e-09
6.30931e-09
7.54675e-09
8.35794e-09
5.04533e-09
2.86653e-09
1.33202e-09
9.27825e-10
6.27895e-10
5.51636e-10
5.43802e-10
5.81688e-10
6.60638e-10
8.22057e-10
9.81359e-10
1.15385e-09
1.50366e-09
2.07613e-09
3.03355e-09
4.50502e-09
6.55894e-09
7.66529e-09
7.74063e-09
6.90488e-09
4.44087e-09
2.15616e-09
1.44017e-09
7.39926e-10
4.93073e-10
3.57754e-10
3.08775e-10
3.07812e-10
3.9974e-10
5.63943e-10
7.71518e-10
1.13592e-09
1.77636e-09
2.8631e-09
4.70042e-09
7.86825e-09
1.036e-08
1.11062e-08
5.69148e-09
4.1511e-09
2.33025e-09
1.61762e-09
8.52692e-10
5.13351e-10
3.02714e-10
2.08018e-10
1.78393e-10
2.23359e-10
3.64901e-10
5.83901e-10
9.68135e-10
1.64407e-09
2.81704e-09
4.98035e-09
9.56984e-09
1.43015e-08
1.29296e-08
3.5426e-09
2.73081e-09
1.88465e-09
1.23003e-09
7.55841e-10
4.4441e-10
2.51768e-10
1.53993e-10
1.21454e-10
1.57295e-10
2.7284e-10
5.08469e-10
9.08316e-10
1.62246e-09
2.8803e-09
5.45711e-09
1.14684e-08
1.83313e-08
1.52478e-08
1.78458e-09
1.45227e-09
1.06245e-09
7.55426e-10
4.69429e-10
2.87312e-10
1.655e-10
1.05267e-10
9.08036e-11
1.31934e-10
2.50061e-10
4.89456e-10
9.25428e-10
1.68435e-09
3.0585e-09
6.33962e-09
1.48981e-08
2.64649e-08
1.91526e-08
7.93116e-10
6.32162e-10
4.79561e-10
3.47226e-10
2.24424e-10
1.39175e-10
8.56174e-11
6.08852e-11
6.90651e-11
1.2064e-10
2.53595e-10
5.13841e-10
9.99007e-10
1.82185e-09
3.34561e-09
7.30265e-09
1.92948e-08
3.61403e-08
2.64916e-08
3.10546e-10
2.44781e-10
1.82094e-10
1.29329e-10
8.58064e-11
5.37737e-11
3.74727e-11
3.68411e-11
6.01013e-11
1.24912e-10
2.71666e-10
5.72624e-10
1.1219e-09
2.00683e-09
3.70788e-09
9.79764e-09
2.68849e-08
5.15941e-08
3.63056e-08
1.12086e-10
8.33745e-11
5.7567e-11
3.89727e-11
2.57651e-11
1.77684e-11
1.75962e-11
2.86388e-11
6.12557e-11
1.38377e-10
3.09793e-10
6.62414e-10
1.28369e-09
2.23663e-09
4.40349e-09
1.10663e-08
3.67074e-08
8.70837e-08
4.28161e-08
3.36854e-11
2.39007e-11
1.54799e-11
1.01472e-11
7.22369e-12
7.44963e-12
1.31237e-11
2.97055e-11
7.01632e-11
1.62496e-10
3.68491e-10
7.88202e-10
1.50345e-09
2.57604e-09
4.88896e-09
1.63847e-08
4.98909e-08
1.0888e-07
4.72861e-08
8.54967e-12
5.65729e-12
3.31412e-12
2.38645e-12
2.77037e-12
5.65475e-12
1.39954e-11
3.49516e-11
8.31439e-11
1.96492e-10
4.44434e-10
9.42755e-10
1.76783e-09
2.83297e-09
5.64361e-09
2.09006e-08
6.8644e-08
1.10044e-07
4.76212e-08
1.69724e-12
1.03692e-12
6.94232e-13
9.84664e-13
2.36089e-12
6.4731e-12
1.67638e-11
4.18661e-11
1.01647e-10
2.37649e-10
5.3748e-10
1.12613e-09
2.06836e-09
3.13807e-09
6.94837e-09
2.86325e-08
8.08486e-08
1.10263e-07
4.65179e-08
2.82741e-13
1.83091e-13
3.07895e-13
9.33813e-13
2.79875e-12
7.70425e-12
1.99659e-11
4.97842e-11
1.22042e-10
2.86448e-10
6.38703e-10
1.32517e-09
2.39107e-09
3.74027e-09
8.32229e-09
3.25305e-08
9.04294e-08
1.10047e-07
3.77511e-08
4.11791e-14
7.15037e-14
2.98821e-13
1.03986e-12
3.22995e-12
8.84436e-12
2.27302e-11
5.7601e-11
1.41576e-10
3.35617e-10
7.53021e-10
1.56792e-09
2.81994e-09
4.77444e-09
1.0761e-08
3.55532e-08
9.13073e-08
8.85135e-08
2.61562e-08
1.27791e-14
6.59748e-14
3.24895e-13
1.13813e-12
3.42859e-12
9.45984e-12
2.51016e-11
6.41343e-11
1.60556e-10
3.83358e-10
8.68142e-10
1.76208e-09
3.25142e-09
5.76256e-09
1.19766e-08
3.23437e-08
7.48792e-08
5.24683e-08
1.3309e-08
1.13735e-14
7.39257e-14
3.44808e-13
1.15226e-12
3.45202e-12
9.72383e-12
2.6411e-11
6.8853e-11
1.75825e-10
4.27149e-10
9.56332e-10
1.92636e-09
3.59608e-09
6.29662e-09
1.17825e-08
2.60159e-08
3.48643e-08
1.88573e-08
6.65841e-09
1.19187e-14
7.77435e-14
3.28116e-13
1.09401e-12
3.32454e-12
9.76169e-12
2.68513e-11
7.18507e-11
1.82316e-10
4.46307e-10
9.93276e-10
1.97812e-09
3.71073e-09
6.04054e-09
9.73343e-09
1.61958e-08
1.00617e-08
6.43293e-09
2.62421e-09
1.1594e-14
6.98145e-14
2.84524e-13
9.7672e-13
3.13156e-12
9.26725e-12
2.61607e-11
6.96931e-11
1.77925e-10
4.29865e-10
9.46096e-10
1.85523e-09
3.43568e-09
5.24044e-09
6.41441e-09
8.10991e-09
4.52522e-09
1.78096e-09
1.11518e-09
1.05579e-14
6.05514e-14
2.40051e-13
8.65626e-13
2.78612e-12
8.34833e-12
2.33716e-11
6.19322e-11
1.56157e-10
3.73801e-10
8.10831e-10
1.54565e-09
2.74834e-09
3.95627e-09
4.05022e-09
3.44113e-09
1.66413e-09
5.3692e-10
3.95175e-10
9.65725e-15
4.98304e-14
1.99656e-13
7.08448e-13
2.26801e-12
6.75547e-12
1.87209e-11
4.86538e-11
1.19829e-10
2.80897e-10
5.95656e-10
1.09988e-09
1.81906e-09
2.5e-09
2.50298e-09
1.65955e-09
6.38907e-10
2.30667e-10
1.57991e-10
7.9592e-15
3.72262e-14
1.46378e-13
4.96162e-13
1.58811e-12
4.61673e-12
1.2586e-11
3.20802e-11
7.71248e-11
1.76226e-10
3.65962e-10
6.58699e-10
1.00723e-09
1.3688e-09
1.41678e-09
8.70546e-10
3.49834e-10
1.32478e-10
6.1382e-11
5.72228e-15
2.36345e-14
8.61533e-14
2.79108e-13
8.24974e-13
2.30864e-12
6.18608e-12
1.57082e-11
3.72872e-11
8.34292e-11
1.70806e-10
3.07742e-10
4.54241e-10
6.16886e-10
6.2501e-10
4.01951e-10
1.55322e-10
5.49359e-11
3.30502e-11
3.09823e-15
1.12403e-14
3.74391e-14
1.14333e-13
3.29747e-13
9.08023e-13
2.35174e-12
5.97928e-12
1.4138e-11
3.12019e-11
6.26771e-11
1.12847e-10
1.67631e-10
2.2388e-10
2.25157e-10
1.44368e-10
4.55593e-11
2.27011e-11
1.61985e-11
9.16289e-16
2.863e-15
8.71561e-15
2.48101e-14
6.9689e-14
1.97772e-13
5.10991e-13
1.29458e-12
3.26967e-12
7.53326e-12
1.57555e-11
2.94321e-11
4.57353e-11
6.07959e-11
6.19308e-11
3.9538e-11
1.2985e-11
7.59289e-12
5.69672e-12
)
;

boundaryField
{
    leftWall
    {
        type            alphaContactAngle;
        contactAngleProperties 
        {
            mercury         
            {
                theta0          90;
            }
            air             
            {
                theta0          90;
            }
            water           
            {
                theta0          90;
            }
        }
        value           nonuniform List<scalar> 
50
(
2.44524e-16
4.32941e-16
7.24467e-16
7.30639e-16
1.95675e-14
8.21355e-12
1.64436e-10
1.07702e-09
3.27516e-09
1.04783e-08
1.73133e-08
1.76857e-08
2.09366e-08
1.70939e-08
0.0212451
0.080345
0.0644184
0.0349499
0.0137316
0.00111131
1.34531e-06
7.07498e-07
1.83016e-07
2.35405e-08
2.57421e-08
1.78103e-08
1.15106e-08
6.45033e-09
3.10214e-09
1.2603e-09
4.38082e-10
1.35495e-10
3.22062e-11
6.43725e-12
1.04868e-12
1.29936e-13
1.18514e-14
7.73294e-16
2.19265e-17
5.92629e-19
6.15264e-21
1.12027e-22
1.26187e-24
1.60887e-26
2.8246e-28
2.2152e-29
3.92708e-30
7.20964e-31
1.23056e-31
1.81359e-32
)
;
    }
    rightWall
    {
        type            alphaContactAngle;
        contactAngleProperties 
        {
            mercury         
            {
                theta0          90;
            }
            air             
            {
                theta0          90;
            }
            water           
            {
                theta0          90;
            }
        }
        value           nonuniform List<scalar> 
50
(
0.271957
0.38768
0.520685
0.520192
0.520685
0.46277
0.461838
0.649788
0.808801
0.902953
0.882385
0.798144
0.724477
0.486846
0.0380126
2.82813e-06
1.95453e-07
8.05107e-08
3.61872e-07
1.39405e-06
1.72051e-06
1.70415e-06
1.10935e-06
1.81829e-07
7.86688e-08
2.25145e-08
8.35794e-09
7.74063e-09
1.11062e-08
1.29296e-08
1.52478e-08
1.91526e-08
2.64916e-08
3.63056e-08
4.28161e-08
4.72861e-08
4.76212e-08
4.65179e-08
3.77511e-08
2.61562e-08
1.3309e-08
6.65841e-09
2.62421e-09
1.11518e-09
3.95175e-10
1.57991e-10
6.1382e-11
3.30502e-11
1.61985e-11
5.69672e-12
)
;
    }
    lowerWall
    {
        type            alphaContactAngle;
        contactAngleProperties 
        {
            mercury         
            {
                theta0          90;
            }
            air             
            {
                theta0          90;
            }
            water           
            {
                theta0          90;
            }
        }
        value           nonuniform List<scalar> 
62
(
2.44524e-16
3.12358e-15
3.23423e-14
1.30105e-13
3.19552e-13
7.14837e-13
1.22204e-12
2.82496e-12
5.83808e-12
1.0725e-11
1.94197e-11
4.12637e-11
7.91033e-11
1.62611e-10
3.24846e-10
6.52124e-10
1.24127e-09
2.17333e-09
3.06147e-09
3.31344e-09
3.46967e-09
0.000430095
0.000568239
0.000568239
0.000567914
0.000339045
1.3057e-05
5.1584e-07
0.000183929
0.000453653
0.000450457
4.00605e-05
4.82623e-07
5.19457e-06
0.541556
0.106832
0.1066
0.10873
0.111058
0.260008
0.861355
0.903497
0.903586
0.106832
0.0436302
0.0209413
0.249749
0.374803
0.374695
0.372161
0.355944
0.355994
0.356155
0.265319
0.0924412
0.0563337
0.0924919
0.17173
0.240671
0.271017
0.270271
0.271957
)
;
    }
    atmosphere
    {
        type            inletOutlet;
        inletValue      uniform 0;
        value           nonuniform List<scalar> 
46
(
0
0
0
0
0
0
0
0
0
0
0
0
0
0
0
0
0
0
0
0
0
0
0
0
0
0
0
0
0
0
0
6.9689e-14
1.97772e-13
5.10991e-13
1.29458e-12
3.26967e-12
7.53326e-12
1.57555e-11
2.94321e-11
4.57353e-11
6.07959e-11
6.19308e-11
3.9538e-11
1.2985e-11
7.59289e-12
5.69672e-12
)
;
    }
    defaultFaces
    {
        type            empty;
    }
}


// ************************************************************************* //
