/*--------------------------------*- C++ -*----------------------------------*\
  =========                 |
  \\      /  F ield         | OpenFOAM: The Open Source CFD Toolbox
   \\    /   O peration     | Website:  https://openfoam.org
    \\  /    A nd           | Version:  13
     \\/     M anipulation  |
\*---------------------------------------------------------------------------*/
FoamFile
{
    format      ascii;
    class       volScalarField;
    location    "1.4";
    object      alphas;
}
// * * * * * * * * * * * * * * * * * * * * * * * * * * * * * * * * * * * * * //

dimensions      [];

internalField   nonuniform List<scalar> 
2268
(
2
2
2
2
2
2
2
2
2
2
2
2
2
2
2
2
2
2
2
2
2
1.99957
1.99943
2
2
2
2
2
2
2
2
2
2
2
2
2
2
2
2
2
2
2
2
2
1.9999
1.99943
2
2
2
2
2
2
2
2
2
2
2
2
2
2
2
2
2
2
2
2
2
2
1.99966
2
2
2
2
2
2
2
2
2
2
2
2
2
2
2
2
2
2
2
2
2
2
1.99999
1.96355
1.97008
1.97343
1.98055
1.99301
2
2
2
2
2
2
2
2
2
2
2
2
2
2
2
2
2
2
0.676337
0.741404
0.766466
0.813935
0.93618
1.15103
1.42831
1.65228
1.83576
1.95392
1.99779
2
2
2
2
2
2
2
2
2
2
2
1.99982
1.74223e-09
1.49595e-09
1.41377e-09
1.36702e-09
1.39288e-09
1.37392e-09
0.00700801
0.123676
0.325533
0.623482
1.0027
1.37312
1.62626
1.81586
1.93724
1.98712
2
2
1.99999
2.00001
2.00008
2.00006
1.99955
6.87768e-09
5.22313e-09
4.3566e-09
3.93581e-09
3.85552e-09
4.25189e-09
3.56818e-09
3.02389e-09
2.23486e-09
1.52133e-09
1.11726e-09
0.0321936
0.166623
0.310915
0.455681
0.593704
0.687212
0.728967
0.751296
0.782738
0.820828
0.975961
1.52012
1.86517
1.92697
1.95203
1.80383
1.69747
1.69591
1.66719
1.68652
1.68757
1.70215
1.88337
2.02804
1.82547
1.75258
1.59247
1.65343
1.69708
1.70873
1.70503
1.86191
1.79312
1.72637
1.74766
1.76566
1.75594
1.88227
2.11261
2.15154
2.06012
1.92434
2.11554
2.21962
1.99983
1.70294
1.5716
1.68953
1.7695
1.59199
1.83918
1.22495
0.836715
0.913461
0.783113
0.659534
1.4466
2.20214
2.33982
2.32623
2.11218
2.10316
2.23389
2.23851
2.25738
2.07928
1.97511
1.79486
1.51157
1.81778
0.941456
0.343583
0.0132186
0.00237775
0.018494
0.547879
1.33078
1.73441
1.91309
2.15755
2.19291
2.03255
1.90591
2.00977
2.02604
1.863
1.3714
1.17445
1.6927
1.28582
0.279069
0.000533683
0.000345523
0.000973712
0.00258656
0.0134239
0.0851142
0.495261
1.29615
1.7736
1.37491
0.703949
0.742146
0.884131
0.537459
0.5657
0.772618
1.13452
1.36858
0.2581
0.000216001
0.00021911
0.00174019
0.00291198
0.00265329
0.000756828
0.00209717
0.118861
0.343908
0.300714
0.182941
0.170135
0.166563
0.165002
0.263532
0.747848
1.09518
1.23511
0.327009
0.000299283
0.000203616
0.000209202
0.000310617
0.000221703
0.000238612
0.000280574
0.000335884
0.0586711
0.0631165
0.132732
0.300882
0.508293
0.522174
0.563812
0.840073
1.09541
1.00658
0.269747
0.00541493
0.000199158
0.000246536
0.00109935
0.00073073
0.000277188
0.000405849
0.000547832
0.000485823
0.0284764
0.31256
0.75293
0.962887
0.973374
0.826318
1.02726
1.39039e-08
1.27471e-08
1.09491e-08
1.09115e-08
1.25527e-08
1.43206e-08
1.27141e-08
9.77121e-09
6.55833e-09
3.85919e-09
2.52617e-09
1.77633e-09
1.67582e-09
1.85389e-09
2.20389e-09
7.16803e-08
1.27839e-07
1.95018e-07
1.80727e-06
1.88246e-05
0.000112689
0.00199761
0.0561488
2.67895e-08
2.10427e-08
1.65844e-08
2.15654e-08
3.97409e-08
5.11336e-08
4.96218e-08
4.02624e-08
3.02213e-08
1.94462e-08
1.06774e-08
5.69245e-09
4.57422e-09
5.40764e-09
7.05351e-09
1.2096e-08
1.69791e-08
6.83926e-09
2.63632e-07
-6.62813e-09
1.4277e-05
0.00020015
0.0693718
3.62603e-08
2.17358e-08
1.56421e-08
1.33639e-08
9.68096e-08
2.04309e-07
1.05069e-07
4.36935e-07
8.06217e-08
6.09793e-08
3.94247e-08
2.06658e-08
1.26051e-08
1.64391e-08
1.85642e-08
7.41084e-09
6.72522e-09
4.69886e-09
3.13151e-09
1.19349e-08
2.96601e-06
0.162393
0.700009
4.17893e-08
1.9456e-08
3.48613e-08
0.00162502
0.00314773
0.000812969
0.00035293
0.00165064
3.51829e-07
3.61807e-07
3.30553e-07
2.76178e-07
1.95296e-07
4.10772e-07
0.00338639
0.0146851
0.00212916
2.70187e-05
0.10834
0.412109
0.609728
0.72649
1.26349
8.09222e-08
0.00668788
0.185619
0.228804
0.268216
0.31627
0.43021
0.44552
0.375129
0.355646
0.432182
0.434773
0.358659
0.320673
0.442897
0.758529
0.827118
0.854917
1.01227
1.22301
1.18768
1.12788
1.02
0.635675
0.966332
1.00087
0.990597
1.00355
1.14877
1.37734
1.33134
1.30499
1.33432
1.44458
1.43779
1.40426
1.41853
1.45821
1.41319
1.24064
1.14487
1.11926
1.06602
1.01203
1.00009
1
2.63496
1.80916
1.03223
1.02498
1.02493
1.04082
1.08963
1.13771
1.06908
1.09953
1.0577
1.0443
1.02645
1.00301
1.00001
1
1
1
1
0.999999
0.999999
0.999999
1
2.83931
1.84682
1.613
1.36513
1.12431
1.02157
1
1
1
1
1
1
1
1
1
1
1
1
1
0.999999
0.999999
1
1
2.87116
2.94862
2.9999
2.88049
2.55001
2.13864
1.72102
1.42381
1.23961
1.11219
1.04012
1.00641
1
1
1
1
1
1
1
1
1
1
1
2.9301
2.99998
2.99997
2.99997
3
3
3
2.91701
2.75223
2.55491
2.3297
2.08272
1.82438
1.59374
1.44307
1.32341
1.23406
1.17751
1.1426
1.11992
1.11361
1.12561
1.16568
2.97254
2.99515
3
3
3
3
3
3
3
3
3
3
3
2.98435
2.91247
2.83332
2.74799
2.67434
2.6183
2.57923
2.57653
2.63069
2.74434
2.99778
2.99919
2.99999
3
3
3
3
3
3
3
3
3
3
3
3
3
3
3
3
3
3
3
3
3
3
2.99999
3
3
3
3
3
2.99999
2.99998
2.99997
2.99999
3
3
3
3
3
3
3
3
3
3
3
3
3
3
3
3
3
3
3
2.99999
2.99979
2.9997
2.99994
3
3
3
3
3
3
3
3
3
3
3
3
3
3
3
3
3
3
3
2.99998
2.99966
2.99965
2.9997
2.99999
3
3
3
3
3
3
3
3
3
3
3
3
3
3
3
3
3
3
3
2.99988
2.99965
2.99965
2.99981
2.99999
3
2.99999
2.99999
2.99999
3
3
3
3
3
3
3
3
3
3
3
3
3
3
3
2.99988
2.99966
2.99971
2.99999
2.99999
2.99999
2.99999
2.99999
3
3
3
3
3
3
3
3
3
3
3
3
3
3
3
3
3
2.99995
2.99992
2.99999
3
2.99999
2.99999
3
3
3
3
3
3
3
3
3
3
3
3
3
3
3
3
3
3
3
2.99999
3
3
3
3
3
3
3
3
3
3
3
3
3
3
3
3
3
3
3
3
3
3
3
3
3
3
3
3
3
3
3
3
3
3
3
3
3
3
3
3
3
3
3
3
3
3
3
3
3
3
3
3
3
3
3
3
3
3
3
3
3
3
3
3
3
3
3
3
3
3
3
3
3
3
3
3
3
3
3
3
3
3
3
3
3
3
3
3
3
3
3
3
3
3
3
3
3
3
3
3
3
3
3
3
3
3
3
3
3
3
3
3
3
3
3
3
3
3
3
3
3
3
3
3
3
3
3
3
3
3
3
3
3
3
3
3
3
3
3
3
3
3
3
3
3
3
3
3
3
3
3
3
3
3
3
3
3
3
3
3
3
3
3
3
3
3
3
3
3
3
3
3
3
3
3
3
3
3
3
3
3
3
3
3
3
3
3
3
3
3
3
3
3
3
3
3
3
3
3
3
3
3
3
3
3
3
3
3
3
3
3
3
3
3
3
3
3
3
3
3
3
3
3
3
3
3
3
3
3
3
3
3
3
3
3
3
3
3
3
3
3
3
3
3
3
3
3
3
3
3
3
3
3
3
3
3
3
3
3
3
3
3
3
3
3
3
3
3
3
3
3
3
3
3
3
3
3
3
3
3
3
3
3
3
3
3
3
3
3
3
3
3
3
3
3
3
3
3
3
3
3
3
3
3
3
3
3
3
3
3
3
3
3
3
3
3
3
3
3
3
3
3
3
3
3
3
3
3
3
3
3
3
3
3
3
3
3
3
3
3
3
3
3
3
3
3
3
3
3
3
3
3
3
3
3
3
3
3
3
3
3
3
3
3
3
3
3
3
3
3
3
3
3
3
3
3
3
3
3
3
3
3
3
3
3
3
3
3
3
3
3
3
3
3
3
3
3
3
3
3
3
3
3
3
3
3
3
3
3
3
3
3
3
3
3
3
3
3
3
3
3
3
3
3
3
3
3
3
3
3
3
3
3
3
3
3
3
3
3
3
3
3
3
3
3
3
3
3
3
3
3
3
3
3
3
3
3
3
3
3
3
3
3
3
3
3
3
3
3
3
3
3
3
3
3
3
3
3
3
3
3
3
3
3
3
3
3
3
3
3
3
3
3
3
3
3
3
3
3
3
3
3
3
3
3
3
3
3
3
3
3
3
3
3
3
3
3
3
3
3
3
3
3
3
3
3
3
3
3
3
3
3
3
3
3
3
3
0.0361818
0.574515
0.77754
1.28611
0.712711
0.778438
0.900866
1.44701
1.01904
1.39669
1.46391
1.4482
1.23119
1.13558
1.11022
1.02122
1.00035
1
1
1.00005
1
1
1
1
1
1
1
1
1
1
1
1
1
1
1
1
1.20508
1.25954
1.39093
1.43838
2.83452
2.88432
2.92431
2.98746
3
3
3
3
3
3
3
3
3
3
3
3
3
3
3
3
3
3
3
3
3
3
3
3
3
3
3
3
3
3
3
3
3
3
3
3
3
3
3
3
3
3
3
3
3
3
3
3
3
3
3
3
3
3
3
3
3
3
3
3
3
3
3
3
3
3
3
3
3
3
3
3
3
3
3
3
3
3
3
3
3
3
3
3
3
3
3
3
3
3
3
3
3
3
3
3
3
3
3
3
3
3
3
3
3
3
3
3
3
3
3
3
3
3
3
3
3
3
3
3
3
3
3
3
1.10337
1.01817
0.221547
0.0030269
0.00382095
0.0211159
0.0842333
0.197522
0.298814
0.335174
0.357284
0.413575
0.55062
0.770706
0.971636
1.0023
1.00162
0.985788
1.02705
1.27097
1.19597
0.466997
0.136564
0.160179
0.273489
0.697813
0.93778
0.971716
0.986174
0.995499
0.998041
1.00024
1.0006
1.00186
1.00185
1.00138
0.999979
1.05031
1.03854
1.37136
1.04455
0.559602
0.627779
0.997902
1.00084
1.00002
1.00048
1.00051
1.00034
1.00001
1.00002
1.00009
1.00024
1.00027
1.0001
1.00007
1.17822
1.00338
1.03626
1.28334
1.21208
1.24406
1.10474
1
1
1
1.00001
1.00001
1
1
1
1.00002
1.00002
1.00001
1.02634
1.34773
0.999855
0.998646
1.08435
1.18798
1.08765
1.00124
1
1
1
1.00034
1.00013
1
1
1
1.00002
1.00002
1.00052
1.12634
1.48127
0.999818
1.0001
0.999879
0.999956
0.999988
0.999999
1
1
1.00035
1
1
1.01541
1.46167
1.70271
1.70832
1.79412
1.94511
1.94887
1.95974
1.00001
1
1
1
1
1
1
1.0259
1.03639
1.46472
2.35282
2.73509
2.92192
2.96088
2.96459
2.97913
2.99326
2.97903
2.89632
1
1
1
1
1.01179
1.15415
1.37872
2.14542
2.93465
2.98717
2.99999
2.99999
2.99999
2.99999
2.99998
2.99967
2.99918
2.99998
2.99999
1
1.01576
1.19869
1.39467
1.80709
2.7335
3
3
3
3
3
3
3
2.99873
2.99513
2.99439
2.99801
3
3
1.50415
1.90399
2.7785
3
3
3
3
3
3
2.99978
3
3
2.99996
2.9937
2.99375
2.99616
2.99894
3
3
3
3
3
3
3
3
3
2.99991
2.99852
2.99787
2.99907
3
2.99956
2.99515
2.99736
2.99996
2.99999
3
3
3
3
3
3
3
3
3
2.99951
2.99787
2.99783
2.99893
3
2.9997
2.99984
3
3
3
3
3
3
3
3
3
3
3
2.99997
2.99978
2.99931
2.99911
2.99983
3
3
3
3
3
3
3
3
3
3
3
3
3
3
2.99999
3
3
3
3
3
3
3
3
3
3
3
3
3
3
3
3
3
3
3
3
3
3
3
3
3
3
3
3
3
3
3
3
3
3
3
3
3
3
3
3
3
3
3
3
3
3
3
3
3
3
3
3
3
3
3
3
3
3
3
3
3
3
3
3
3
3
3
3
3
3
3
3
3
3
3
3
3
3
3
3
3
3
3
3
3
3
3
3
3
3
3
3
3
3
3
3
3
3
3
3
3
3
3
3
3
3
3
3
3
3
3
3
3
3
3
3
3
3
3
3
3
3
3
3
3
3
3
3
3
3
3
3
3
3
3
3
3
3
3
3
3
3
3
3
3
3
3
3
3
3
3
3
3
3
3
3
3
3
3
3
3
3
3
3
3
3
3
3
3
3
3
3
3
3
3
3
3
3
3
3
3
3
3
3
3
3
3
3
3
3
3
3
3
3
3
3
3
3
3
3
3
3
3
3
3
3
3
3
3
3
3
3
3
3
3
3
3
3
3
3
3
3
3
3
3
3
3
3
3
3
3
3
3
3
3
3
3
3
3
3
3
3
3
3
3
3
3
3
3
3
3
3
3
3
3
3
3
3
3
3
3
3
3
3
3
3
3
3
3
3
3
3
3
3
3
3
3
3
3
3
3
3
3
3
3
3
3
3
3
3
3
3
3
3
3
3
3
3
3
3
3
3
3
3
3
3
3
3
3
3
3
3
3
3
3
3
3
3
3
3
3
3
3
3
3
3
3
3
3
3
3
3
3
3
3
3
3
3
3
3
3
3
3
3
3
3
3
3
3
3
3
3
3
3
3
3
3
3
3
3
3
3
3
3
3
3
3
3
3
3
3
3
3
3
3
3
3
3
3
3
3
3
3
3
3
3
3
3
3
3
3
3
3
3
3
3
3
3
3
3
3
3
3
3
3
3
3
3
3
3
3
3
3
3
3
3
3
3
3
3
3
3
3
3
3
3
3
3
3
3
3
3
3
3
3
3
3
3
3
3
3
3
3
3
3
3
3
3
3
3
3
3
3
3
3
3
3
3
3
3
3
3
3
3
3
3
3
3
3
3
3
3
3
3
3
3
3
3
3
3
3
3
3
3
3
3
3
3
3
3
3
3
3
3
3
3
3
3
3
3
3
3
3
3
3
3
3
3
3
3
3
3
3
3
3
3
3
3
3
3
3
3
3
3
3
3
3
3
3
3
3
3
3
3
3
3
3
3
3
3
3
3
3
3
)
;

boundaryField
{
    leftWall
    {
        type            calculated;
        value           nonuniform List<scalar> 
50
(
2
2
2
2
1.96355
0.676337
1.74223e-09
6.87768e-09
1.39039e-08
2.67895e-08
3.62603e-08
4.17893e-08
8.09222e-08
0.635675
2.63496
2.83931
2.87116
2.9301
2.97254
2.99778
3
3
3
3
3
3
3
3
3
3
3
3
3
3
3
3
3
3
3
3
3
3
3
3
3
3
3
3
3
3
)
;
    }
    rightWall
    {
        type            calculated;
        value           nonuniform List<scalar> 
50
(
1.70503
1.59199
1.51157
1.17445
0.772618
0.747848
0.840073
1.02726
1.02705
1.05031
1.17822
1.34773
1.48127
1.95974
2.89632
2.99999
3
3
3
3
3
3
3
3
3
3
3
3
3
3
3
3
3
3
3
3
3
3
3
3
3
3
3
3
3
3
3
3
3
3
)
;
    }
    lowerWall
    {
        type            calculated;
        value           nonuniform List<scalar> 
62
(
2
2
2
2
2
2
2
2
2
2
2
2
2
2
2
2
2
2
2
2
2
1.99957
1.99943
1.99943
1.99943
1.99966
1.99999
2
1.99982
1.99955
1.52012
0.0361818
0.574515
0.77754
1.28611
1.86517
1.86191
1.83918
1.81778
1.6927
1.13452
1.09518
1.09541
1.86517
1.92697
1.95203
1.80383
1.69747
1.69591
1.66719
1.68652
1.68757
1.70215
1.88337
2.02804
1.82547
1.75258
1.59247
1.65343
1.69708
1.70873
1.70503
)
;
    }
    atmosphere
    {
        type            calculated;
        value           nonuniform List<scalar> 
46
(
3
3
3
3
3
3
3
3
3
3
3
3
3
3
3
3
3
3
3
3
3
3
3
3
3
3
3
3
3
3
3
3
3
3
3
3
3
3
3
3
3
3
3
3
3
3
)
;
    }
    defaultFaces
    {
        type            empty;
    }
}


// ************************************************************************* //
