/*--------------------------------*- C++ -*----------------------------------*\
  =========                 |
  \\      /  F ield         | OpenFOAM: The Open Source CFD Toolbox
   \\    /   O peration     | Website:  https://openfoam.org
    \\  /    A nd           | Version:  13
     \\/     M anipulation  |
\*---------------------------------------------------------------------------*/
FoamFile
{
    format      ascii;
    class       volScalarField;
    location    "1.4";
    object      epsilon;
}
// * * * * * * * * * * * * * * * * * * * * * * * * * * * * * * * * * * * * * //

dimensions      [0 2 -3 0 0 0 0];

internalField   nonuniform List<scalar> 
2268
(
0.00689763
0.0340165
0.0722354
0.110864
0.147368
0.180611
0.210015
0.235301
0.256146
0.272193
0.283356
0.290219
0.2939
0.295639
0.297906
0.302172
0.304684
0.30236
0.291074
0.265289
0.218213
0.141667
0.0252141
0.0121033
0.0238835
0.0391415
0.0544666
0.0688065
0.0817254
0.0931399
0.103121
0.111759
0.119149
0.125473
0.131093
0.136501
0.142223
0.148935
0.156851
0.16433
0.169609
0.170201
0.16263
0.142333
0.105232
0.0603231
0.0207128
0.0271988
0.0382813
0.0494455
0.0598533
0.0692288
0.0775783
0.0850306
0.0917339
0.09782
0.103445
0.10885
0.114365
0.120348
0.127117
0.134691
0.142168
0.148214
0.150849
0.14737
0.134708
0.112269
0.11251
0.0301618
0.0333589
0.0429022
0.0525427
0.061452
0.069448
0.076601
0.0830786
0.0890497
0.0946482
0.0999939
0.105243
0.110621
0.1164
0.122797
0.129836
0.136952
0.143089
0.146621
0.145476
0.137925
0.126525
0.168963
0.0411045
0.0418
0.0505471
0.0592884
0.0672361
0.0743097
0.0806458
0.0864527
0.0919135
0.0971577
0.102275
0.107359
0.112545
0.118038
0.124019
0.130538
0.137237
0.143292
0.147415
0.148159
0.14512
0.144051
0.228966
0.0550586
0.0530847
0.0610145
0.0687682
0.0756985
0.0818238
0.0873397
0.0924858
0.0974403
0.102312
0.107158
0.112027
0.11699
0.122195
0.127794
0.133857
0.140162
0.146088
0.150699
0.153191
0.154517
0.16407
0.295122
0.0732305
0.068076
0.0744105
0.080613
0.0861757
0.0911764
0.095774
0.100174
0.104555
0.108997
0.113511
0.118125
0.122849
0.127777
0.133042
0.138733
0.14473
0.150591
0.155728
0.159978
0.165708
0.187034
0.378376
0.0961023
0.0862483
0.0896753
0.0935209
0.0972436
0.100934
0.104633
0.108416
0.11238
0.116506
0.120759
0.125133
0.129622
0.134295
0.139283
0.144696
0.150509
0.156419
0.162144
0.1681
0.177927
0.21163
0.538958
0.172572
0.320277
0.469075
0.510253
0.54703
0.60887
0.663072
0.689455
0.686087
0.645622
0.569989
0.493222
0.443688
0.376102
0.292073
0.223213
0.182598
0.118888
0.0427738
0.161854
0.202557
0.251606
0.275593
0.287038
0.303435
0.32033
0.328145
0.324013
0.306046
0.275812
0.241988
0.211687
0.18143
0.148417
0.120189
0.0992698
0.0745924
0.0524028
0.212101
0.188329
0.224176
0.253304
0.253228
0.260613
0.271095
0.276529
0.273581
0.260428
0.236661
0.208971
0.183238
0.158974
0.133914
0.112048
0.0946572
0.077825
0.0782012
0.251263
0.195132
0.21252
0.249521
0.24874
0.252652
0.260679
0.266462
0.266828
0.258086
0.236361
0.209375
0.183328
0.159526
0.135537
0.114442
0.0977216
0.0850792
0.108558
0.26875
0.194305
0.203827
0.230364
0.236293
0.242321
0.250043
0.256071
0.259132
0.256172
0.243089
0.218722
0.191952
0.167267
0.142328
0.1201
0.103339
0.0928402
0.127337
0.251706
0.182499
0.196286
0.212593
0.219181
0.22726
0.236256
0.243219
0.247412
0.2468
0.240233
0.223331
0.201359
0.178019
0.152203
0.128438
0.111277
0.10176
0.129454
0.228548
0.174347
0.191614
0.20396
0.208138
0.215782
0.225431
0.23363
0.239047
0.239729
0.234484
0.221779
0.205126
0.18558
0.16164
0.138265
0.121383
0.112031
0.146091
0.218456
0.172021
0.190534
0.200947
0.202675
0.208791
0.218212
0.227245
0.233864
0.235859
0.231686
0.220814
0.206344
0.189285
0.16832
0.14712
0.131265
0.121976
0.170894
0.127142
0.11147
0.111653
0.112282
0.113252
0.114906
0.117331
0.120425
0.12399
0.127845
0.131889
0.136057
0.140394
0.144971
0.149842
0.155113
0.160832
0.166879
0.173268
0.180936
0.193744
0.225019
0.338558
0.182656
0.147644
0.142089
0.139303
0.137744
0.13743
0.138352
0.140295
0.142854
0.145736
0.148844
0.152182
0.155779
0.159644
0.163758
0.168078
0.172704
0.177519
0.182376
0.187767
0.195696
0.211214
0.247864
0.248071
0.181431
0.169826
0.165296
0.16311
0.162344
0.16277
0.164093
0.165743
0.167428
0.169211
0.17119
0.173345
0.175631
0.178032
0.180554
0.183239
0.186056
0.188772
0.1917
0.196079
0.204152
0.219717
0.328387
0.214605
0.196407
0.190679
0.188596
0.188033
0.18848
0.18954
0.190434
0.190975
0.191463
0.192072
0.192713
0.193356
0.194092
0.195013
0.196085
0.197253
0.198487
0.200053
0.202701
0.20759
0.215937
0.441073
0.253518
0.225036
0.216645
0.214016
0.21345
0.213921
0.214631
0.214676
0.214141
0.213542
0.212939
0.212203
0.211473
0.211025
0.210958
0.211072
0.211204
0.211741
0.212922
0.215081
0.219073
0.225504
0.616731
0.304039
0.256183
0.241506
0.236709
0.235576
0.235974
0.236194
0.235427
0.234177
0.232941
0.23153
0.229867
0.228363
0.227429
0.227042
0.226821
0.226833
0.227445
0.228982
0.23157
0.235852
0.24215
0.847835
0.358355
0.285121
0.260985
0.252693
0.250207
0.249938
0.249735
0.248896
0.247813
0.246688
0.245333
0.243839
0.242661
0.242145
0.242194
0.242526
0.243344
0.244979
0.247479
0.251072
0.25626
0.263047
1.07783
0.413377
0.317338
0.280494
0.266754
0.261403
0.259192
0.258031
0.257116
0.256363
0.25571
0.255079
0.254591
0.254543
0.255143
0.256319
0.257979
0.260329
0.263612
0.267897
0.273263
0.279874
0.287779
0.995539
0.465531
0.37619
0.307653
0.28487
0.275043
0.269457
0.266416
0.264808
0.263815
0.263171
0.262948
0.26332
0.26444
0.266363
0.269035
0.272475
0.276835
0.28229
0.288913
0.2967
0.305625
0.315528
0.854275
0.541774
0.451144
0.339563
0.307052
0.293581
0.283037
0.276563
0.273706
0.272167
0.271021
0.270542
0.271175
0.273189
0.276571
0.281042
0.286587
0.293388
0.301611
0.311298
0.322349
0.334521
0.347484
0.694979
0.483354
0.394787
0.338659
0.313751
0.304581
0.295575
0.286528
0.283225
0.282268
0.280549
0.279056
0.279138
0.281331
0.286217
0.292917
0.30116
0.311072
0.322923
0.336711
0.35216
0.368724
0.38577
0.557821
0.403787
0.350908
0.323039
0.308978
0.300669
0.291277
0.28442
0.281939
0.281274
0.280301
0.279626
0.281145
0.285204
0.292528
0.303192
0.31531
0.329336
0.345988
0.365215
0.386284
0.407538
0.426673
0.478052
0.349628
0.321208
0.307765
0.298329
0.290224
0.285162
0.28248
0.280977
0.279502
0.278435
0.279171
0.282298
0.286797
0.293421
0.30276
0.314098
0.328716
0.346841
0.368
0.390446
0.410963
0.426642
0.46916
0.325015
0.301466
0.293371
0.287749
0.283385
0.280953
0.279924
0.278942
0.277154
0.275709
0.27595
0.278446
0.282966
0.288836
0.295943
0.305099
0.31689
0.331476
0.348296
0.365951
0.381929
0.394073
0.490729
0.311244
0.285935
0.279395
0.276501
0.274853
0.274371
0.274318
0.273696
0.272372
0.271387
0.271776
0.273944
0.277554
0.282053
0.287345
0.29375
0.301825
0.311584
0.322477
0.333432
0.342996
0.349941
0.514648
0.300449
0.271554
0.265289
0.264121
0.264394
0.265225
0.266047
0.266411
0.266315
0.266235
0.266834
0.268497
0.271148
0.274324
0.277767
0.281748
0.28656
0.292154
0.298111
0.303754
0.308293
0.311001
0.526278
0.289135
0.256889
0.250504
0.250473
0.252231
0.25441
0.256451
0.258111
0.259367
0.2603
0.26122
0.262463
0.264142
0.266072
0.268073
0.270239
0.272686
0.275363
0.278018
0.280277
0.281736
0.281931
0.509875
0.272605
0.240503
0.234695
0.235749
0.238845
0.242383
0.245753
0.24872
0.251201
0.253156
0.254642
0.255847
0.256979
0.258096
0.259138
0.26012
0.261089
0.262016
0.262773
0.263184
0.263042
0.262022
0.473312
0.251253
0.221976
0.217648
0.219969
0.22436
0.229206
0.233856
0.238039
0.241633
0.244555
0.246782
0.248379
0.249515
0.250351
0.250947
0.251341
0.251563
0.251615
0.251451
0.250999
0.250154
0.248669
0.423242
0.226214
0.201421
0.199249
0.203022
0.208684
0.214741
0.22056
0.225854
0.230479
0.234345
0.237399
0.239662
0.241237
0.242272
0.242889
0.243169
0.243168
0.242917
0.242416
0.24165
0.240564
0.238959
0.365007
0.198836
0.17951
0.179601
0.184877
0.191725
0.198857
0.2057
0.211977
0.217545
0.222312
0.226222
0.229265
0.231503
0.233046
0.234017
0.23452
0.234638
0.234425
0.233912
0.233112
0.232001
0.230418
0.303697
0.170631
0.156966
0.159104
0.165734
0.17357
0.181568
0.189238
0.19633
0.202705
0.208276
0.212985
0.216809
0.219777
0.221963
0.223469
0.224399
0.224841
0.224867
0.224524
0.223842
0.222821
0.221332
0.244472
0.143393
0.13487
0.138667
0.146105
0.15458
0.163145
0.171379
0.179057
0.186047
0.192262
0.197644
0.20216
0.205817
0.208658
0.21076
0.212208
0.213087
0.21347
0.213412
0.212955
0.212114
0.210794
0.195274
0.11937
0.114372
0.119095
0.12674
0.135408
0.144161
0.152632
0.160613
0.167973
0.174621
0.180495
0.185555
0.18979
0.19322
0.195894
0.197878
0.199241
0.200049
0.200358
0.200215
0.199648
0.198587
0.155482
0.0987527
0.096227
0.101244
0.10858
0.116898
0.125435
0.133784
0.141752
0.149205
0.156042
0.162194
0.167613
0.172273
0.176176
0.179347
0.181829
0.183675
0.184938
0.18567
0.185915
0.185708
0.185002
0.124781
0.0818417
0.0808602
0.08574
0.0924604
0.100016
0.107904
0.115764
0.123411
0.130685
0.137455
0.143659
0.149234
0.154144
0.158375
0.161932
0.164838
0.167126
0.168837
0.170011
0.170689
0.170905
0.170626
0.102576
0.0686914
0.0684453
0.07288
0.078805
0.0854347
0.092441
0.0995481
0.106575
0.113376
0.119837
0.125884
0.13142
0.136399
0.1408
0.144611
0.147835
0.150491
0.152603
0.1542
0.155314
0.155976
0.156161
0.0876018
0.0590104
0.0588627
0.0626619
0.0677273
0.0734038
0.0794564
0.0856909
0.0919535
0.0981175
0.104078
0.109749
0.115052
0.119931
0.124354
0.128281
0.131702
0.134625
0.137059
0.139021
0.140533
0.141616
0.142253
0.078208
0.0522265
0.0517466
0.0548242
0.0590498
0.0638337
0.0689807
0.0743486
0.0798154
0.0852771
0.0906425
0.0958317
0.100774
0.105411
0.1097
0.113602
0.117098
0.120178
0.122837
0.125078
0.126914
0.128359
0.129396
0.0727533
0.0476436
0.0465973
0.04895
0.0524044
0.0564054
0.0607574
0.0653443
0.0700692
0.0748493
0.0796092
0.0842802
0.0888001
0.0931146
0.0971779
0.100953
0.104411
0.107533
0.110309
0.11273
0.114801
0.116525
0.117887
0.0698578
0.0445979
0.0429022
0.0445815
0.0473706
0.0507101
0.0543978
0.0583223
0.0624039
0.0665758
0.0707767
0.0749497
0.0790416
0.0830044
0.0867953
0.0903778
0.0937217
0.0968034
0.0996054
0.102116
0.104328
0.10624
0.107833
0.0685516
0.0425511
0.0402259
0.0413312
0.0435707
0.0463713
0.0495177
0.0529011
0.0564501
0.060108
0.0638241
0.0675513
0.0712452
0.0748645
0.0783714
0.0817319
0.0849166
0.0879005
0.0906632
0.0931885
0.0954647
0.0974838
0.0992253
0.0682289
0.0411591
0.0382793
0.0389203
0.0407284
0.0431049
0.0458254
0.0487803
0.0519019
0.0551395
0.0584501
0.0617943
0.0651351
0.068438
0.0716701
0.0748017
0.0778053
0.0806569
0.0833352
0.085822
0.0881022
0.0901633
0.0919843
0.0684794
0.040205
0.0368972
0.0372108
0.0387116
0.0407785
0.0431801
0.0458058
0.0485909
0.0514894
0.0544643
0.0574826
0.060514
0.0635299
0.0665031
0.0694078
0.0722199
0.0749174
0.0774798
0.0798884
0.0821266
0.0841786
0.086023
0.0691925
0.0396708
0.0361193
0.0362734
0.0376012
0.0394659
0.0416373
0.0440103
0.0465255
0.0491427
0.0518309
0.0545631
0.0573152
0.0600641
0.0627878
0.065465
0.0680754
0.0705995
0.0730188
0.0753155
0.0774722
0.0794715
0.0812912
0.0708585
0.0398974
0.0363575
0.0365256
0.0377785
0.0394984
0.0414783
0.0436284
0.045899
0.0482566
0.0506756
0.0531348
0.0556149
0.0580981
0.0605671
0.0630048
0.0653946
0.0677202
0.0699654
0.0721141
0.0741493
0.0760526
0.0778016
0.0754807
0.0421356
0.0387188
0.0388743
0.0399677
0.0414597
0.043184
0.0450653
0.0470583
0.0491311
0.0512601
0.0534266
0.0556149
0.0578107
0.0600003
0.0621702
0.064307
0.0663976
0.0684286
0.0703857
0.072253
0.0740123
0.0756407
0.0885763
0.0495334
0.0452547
0.0446554
0.0450886
0.0460397
0.0473136
0.0487994
0.0504259
0.0521463
0.0539297
0.0557549
0.0576064
0.0594713
0.061338
0.0631954
0.0650328
0.0668397
0.0686052
0.0703173
0.0719618
0.0735209
0.0749726
0.123399
0.0680103
0.0585644
0.0550685
0.0538131
0.0537267
0.0542935
0.055233
0.0563897
0.0576772
0.0590464
0.0604686
0.0619252
0.0634033
0.0648918
0.0663813
0.0678629
0.0693282
0.0707687
0.0721747
0.0735338
0.07483
0.0760424
0.213297
0.105863
0.0799137
0.069946
0.0659063
0.0644511
0.0642018
0.0645433
0.0651891
0.0660015
0.0669119
0.0678841
0.0688975
0.0699387
0.0709975
0.0720658
0.0731363
0.0742027
0.0752585
0.0762964
0.0773067
0.0782757
0.0791858
0.472648
0.167307
0.104511
0.0861711
0.0797935
0.0774683
0.076713
0.0766258
0.0768483
0.0772281
0.0776962
0.0782193
0.0787794
0.0793656
0.0799704
0.0805876
0.0812125
0.0818408
0.0824685
0.0830908
0.0837014
0.0842907
0.0848463
1.59353
0.209754
0.114209
0.0976774
0.0932767
0.0918547
0.0913664
0.0912242
0.0912292
0.0913055
0.0914209
0.0915607
0.0917173
0.0918863
0.0920646
0.0922499
0.0924406
0.0926351
0.0928321
0.0930299
0.0932262
0.0934174
0.0935988
0.845736
0.638075
0.473588
0.344018
0.308547
0.32055
0.316346
0.282019
0.237164
0.248641
0.254164
0.246094
0.224196
0.230838
0.236054
0.237371
0.23154
0.236481
0.241044
0.243971
0.247805
0.252136
0.256195
0.259314
0.268873
0.2732
0.277347
0.281031
0.294417
0.299325
0.304214
0.308941
0.323554
0.329515
0.335745
0.342237
0.357849
0.365753
0.374432
0.383775
0.39941
0.410191
0.423066
0.43781
0.440912
0.453939
0.470606
0.486915
0.437862
0.44827
0.462859
0.477242
0.402115
0.408383
0.415802
0.422902
0.354118
0.356868
0.359682
0.362137
0.312136
0.312698
0.313046
0.313085
0.281335
0.280797
0.280049
0.279065
0.260681
0.259725
0.258621
0.257347
0.247111
0.246062
0.244916
0.243641
0.237391
0.236358
0.235256
0.23405
0.2289
0.227906
0.226856
0.225714
0.219896
0.21895
0.217952
0.216871
0.209487
0.208617
0.207693
0.20669
0.197479
0.196726
0.195917
0.195033
0.184164
0.183577
0.18293
0.18221
0.170119
0.169736
0.169289
0.168774
0.15601
0.155852
0.155628
0.155337
0.142452
0.142516
0.142514
0.142446
0.129907
0.130172
0.13037
0.130505
0.118651
0.119081
0.119448
0.119754
0.108789
0.109347
0.109845
0.110284
0.100312
0.10096
0.101552
0.102087
0.0931495
0.0938542
0.0945053
0.0951035
0.0872234
0.0879556
0.0886377
0.0892696
0.0824896
0.0832245
0.0839126
0.084553
0.078963
0.079677
0.0803475
0.0809727
0.0767282
0.0773971
0.0780256
0.0786114
0.0759453
0.0765426
0.077103
0.0776234
0.076856
0.0773537
0.0778186
0.0782466
0.0797964
0.0801673
0.0805111
0.0808224
0.0852186
0.0854425
0.0856474
0.0858275
0.0937202
0.0937923
0.0938572
0.0939115
0.190902
0.171497
0.189279
0.199746
0.199911
0.203835
0.21224
0.221965
0.230246
0.23426
0.231956
0.223259
0.210836
0.195748
0.177209
0.157833
0.142324
0.134955
0.228061
0.209661
0.186762
0.193498
0.202748
0.204565
0.207987
0.215163
0.224441
0.233489
0.239454
0.239932
0.234517
0.224617
0.210313
0.191141
0.169873
0.151145
0.146444
0.297969
0.220518
0.205563
0.206205
0.212297
0.215834
0.220032
0.226097
0.233805
0.242009
0.248719
0.251825
0.250164
0.243223
0.229623
0.209021
0.184434
0.160968
0.152862
0.31234
0.230187
0.223293
0.223685
0.227652
0.232106
0.237139
0.242639
0.249021
0.256093
0.263082
0.268296
0.269811
0.265249
0.251608
0.228715
0.200268
0.171732
0.155794
0.294865
0.243834
0.240072
0.240068
0.244131
0.250489
0.256965
0.263329
0.26975
0.276571
0.283856
0.290247
0.293559
0.290535
0.275778
0.249011
0.215655
0.182354
0.15797
0.262075
0.261871
0.260837
0.261788
0.26691
0.274744
0.282918
0.290702
0.297834
0.304849
0.31214
0.319252
0.324017
0.322888
0.306648
0.273519
0.23251
0.194273
0.164825
0.25039
0.285845
0.288467
0.292272
0.299486
0.309016
0.318638
0.32793
0.336014
0.343984
0.351753
0.359221
0.365506
0.369244
0.353457
0.310624
0.255771
0.210574
0.185781
0.289217
0.316251
0.32329
0.331301
0.342203
0.354515
0.366228
0.378145
0.387502
0.396728
0.408269
0.417852
0.420125
0.407006
0.369612
0.311729
0.249248
0.202257
0.185772
0.312404
0.353252
0.36597
0.379852
0.39637
0.412717
0.427544
0.444538
0.453068
0.45556
0.455232
0.445791
0.428642
0.395584
0.350663
0.29034
0.231112
0.18805
0.170652
0.272825
0.399983
0.418999
0.440349
0.465319
0.484238
0.501831
0.516022
0.50841
0.471585
0.435154
0.403302
0.378144
0.351118
0.311703
0.25936
0.210649
0.175649
0.162272
0.251065
0.462391
0.483658
0.508752
0.534856
0.540254
0.537854
0.514399
0.474994
0.424681
0.384478
0.355135
0.333773
0.31316
0.278258
0.233458
0.193694
0.166222
0.160818
0.240099
0.506657
0.514959
0.531697
0.537423
0.52204
0.485958
0.450197
0.410533
0.369186
0.336215
0.31311
0.297061
0.279802
0.249275
0.211875
0.180993
0.163047
0.164557
0.235219
0.493722
0.492293
0.484487
0.472917
0.448267
0.414677
0.381721
0.349642
0.319427
0.295252
0.278334
0.265562
0.249266
0.223414
0.195049
0.173969
0.164015
0.169657
0.235964
0.430374
0.426186
0.414103
0.397009
0.374646
0.349098
0.324183
0.300771
0.279732
0.262932
0.250631
0.239577
0.224599
0.204258
0.184449
0.170983
0.166222
0.174245
0.240824
0.364213
0.359057
0.347953
0.33346
0.316762
0.298834
0.281322
0.265016
0.250694
0.23916
0.229832
0.220097
0.20732
0.192038
0.178424
0.169842
0.167925
0.177414
0.24822
0.312205
0.306951
0.298433
0.288015
0.276347
0.264081
0.252031
0.240784
0.230876
0.22251
0.21489
0.206339
0.19579
0.184307
0.174606
0.168749
0.168315
0.179111
0.256654
0.277011
0.272227
0.265896
0.258509
0.25031
0.241706
0.233145
0.225011
0.217592
0.210835
0.204091
0.196437
0.187604
0.178597
0.17118
0.166819
0.167293
0.179559
0.265049
0.255027
0.250821
0.245905
0.240319
0.234148
0.227616
0.220976
0.214457
0.208193
0.202067
0.195666
0.18857
0.180864
0.17336
0.167269
0.163817
0.165065
0.178977
0.272677
0.241377
0.237617
0.233461
0.228801
0.223645
0.218112
0.21235
0.206492
0.200599
0.194588
0.188256
0.181476
0.174473
0.167894
0.162656
0.159907
0.161966
0.177594
0.279235
0.231897
0.228396
0.224587
0.220325
0.215588
0.210445
0.204989
0.199305
0.19344
0.187368
0.181034
0.17448
0.167973
0.162055
0.157489
0.155412
0.158336
0.17561
0.284522
0.223649
0.220278
0.216612
0.212499
0.207912
0.202898
0.197526
0.191868
0.185976
0.179882
0.173626
0.167332
0.161283
0.15595
0.152021
0.150636
0.154432
0.173178
0.288461
0.214886
0.211612
0.20804
0.204023
0.199538
0.194621
0.189339
0.18376
0.177953
0.171987
0.165958
0.160032
0.154487
0.149751
0.14647
0.145784
0.150405
0.170376
0.290927
0.20482
0.201695
0.198275
0.19442
0.190114
0.185393
0.180319
0.174967
0.169417
0.163761
0.158124
0.152684
0.147711
0.143602
0.140973
0.14096
0.146314
0.167256
0.291994
0.193346
0.190476
0.187316
0.183749
0.179754
0.17537
0.17066
0.165699
0.160574
0.155389
0.150275
0.145415
0.141061
0.137587
0.135586
0.136183
0.142149
0.163824
0.291768
0.180788
0.178296
0.175513
0.172364
0.168812
0.1649
0.160688
0.156252
0.151678
0.147072
0.142564
0.138329
0.134605
0.13174
0.130309
0.131424
0.137859
0.160056
0.290386
0.167688
0.165678
0.163374
0.160735
0.157721
0.154372
0.150747
0.146915
0.14296
0.138983
0.135107
0.131496
0.12837
0.126058
0.125113
0.126628
0.133377
0.155917
0.287558
0.15463
0.153164
0.151399
0.149312
0.146881
0.144136
0.141128
0.137922
0.134597
0.131243
0.127977
0.124947
0.122358
0.120518
0.119958
0.121749
0.128628
0.151076
0.282469
0.142123
0.141212
0.139995
0.13846
0.136605
0.134449
0.132039
0.129432
0.126699
0.123923
0.121208
0.11869
0.116555
0.115094
0.114812
0.11674
0.123552
0.145568
0.275089
0.13054
0.130147
0.129441
0.128417
0.12709
0.125471
0.123601
0.121531
0.119323
0.117051
0.114809
0.112716
0.110947
0.10977
0.109657
0.111599
0.118186
0.139479
0.265726
0.120095
0.120149
0.119888
0.11931
0.118434
0.117274
0.115865
0.114249
0.112482
0.110629
0.108773
0.107022
0.105531
0.104545
0.104508
0.106363
0.112599
0.132933
0.254715
0.110868
0.111282
0.111381
0.111168
0.110658
0.109871
0.108834
0.107586
0.106173
0.104655
0.103101
0.101608
0.100314
0.0994451
0.0994132
0.101106
0.106896
0.126089
0.242472
0.102849
0.103532
0.103905
0.103972
0.103744
0.103243
0.102494
0.101528
0.100388
0.0991236
0.0977974
0.0964937
0.0953365
0.0945289
0.0944518
0.0959353
0.101221
0.119156
0.229516
0.0959842
0.0968533
0.0974207
0.0976867
0.0976626
0.0973689
0.0968278
0.0960689
0.0951283
0.0940505
0.0928909
0.0917239
0.0906594
0.0898803
0.0897344
0.0909914
0.0957554
0.112384
0.216459
0.0902187
0.0912022
0.0918912
0.0922849
0.0923929
0.0922356
0.0918339
0.0912153
0.0904132
0.0894677
0.0884286
0.0873623
0.086367
0.0856067
0.0853967
0.0864457
0.0907169
0.106082
0.204011
0.0855262
0.0865608
0.0873072
0.0877627
0.0879378
0.0878521
0.0875278
0.0869924
0.086278
0.0854221
0.0844711
0.083486
0.082556
0.0818296
0.0815923
0.0824936
0.0863595
0.100601
0.192955
0.0819287
0.0829555
0.0836977
0.0841508
0.0843268
0.0842478
0.0839409
0.0834362
0.0827659
0.0819665
0.0810826
0.0801731
0.0793227
0.0786697
0.0784763
0.0793391
0.0829581
0.0963361
0.184104
0.0795084
0.0804672
0.0811402
0.081518
0.081615
0.0814662
0.0811105
0.0805829
0.079916
0.0791456
0.0783157
0.0774864
0.0767439
0.076225
0.0761803
0.0771682
0.0807836
0.0936949
0.178235
0.0784172
0.0792431
0.0797698
0.0799735
0.0798755
0.0795504
0.0790621
0.078451
0.0777462
0.0769793
0.0761938
0.0754537
0.0748539
0.0745424
0.0747768
0.0761041
0.0800524
0.0930494
0.175975
0.0788916
0.0795156
0.0798005
0.0796766
0.0791836
0.078517
0.0777842
0.0770194
0.076234
0.0754462
0.0746953
0.0740509
0.0736238
0.0735882
0.0742357
0.0761451
0.0808446
0.0946356
0.177663
0.0812786
0.0816403
0.0815715
0.0808516
0.079578
0.0783106
0.0771946
0.0762059
0.0753032
0.0744738
0.0737458
0.0731937
0.07295
0.0732284
0.0743844
0.0770876
0.0829735
0.0983956
0.183259
0.0860759
0.086161
0.0856525
0.0837822
0.0809437
0.0787243
0.0771054
0.0758566
0.0748244
0.0739449
0.0732278
0.0727505
0.0726669
0.0732362
0.0748956
0.078458
0.0858008
0.103634
0.192235
0.0939769
0.093902
0.0931234
0.0883735
0.0826451
0.0792887
0.0772165
0.0757679
0.0746431
0.0737268
0.0730118
0.0725762
0.0725885
0.0733406
0.0753355
0.079519
0.0880545
0.108312
0.202261
)
;

boundaryField
{
    leftWall
    {
        type            epsilonWallFunction;
        value           nonuniform List<scalar> 
50
(
0.00689763
0.0121033
0.0207128
0.0301618
0.0411045
0.0550586
0.0732305
0.0961023
0.127142
0.182656
0.248071
0.328387
0.441073
0.616731
0.847835
1.07783
0.995539
0.854275
0.694979
0.557821
0.478052
0.46916
0.490729
0.514648
0.526278
0.509875
0.473312
0.423242
0.365007
0.303697
0.244472
0.195274
0.155482
0.124781
0.102576
0.0876018
0.078208
0.0727533
0.0698578
0.0685516
0.0682289
0.0684794
0.0691925
0.0708585
0.0754807
0.0885763
0.123399
0.213297
0.472648
1.59353
)
;
    }
    rightWall
    {
        type            epsilonWallFunction;
        value           nonuniform List<scalar> 
50
(
0.0427738
0.0524028
0.0782012
0.108558
0.127337
0.129454
0.146091
0.170894
0.228061
0.297969
0.31234
0.294865
0.262075
0.25039
0.289217
0.312404
0.272825
0.251065
0.240099
0.235219
0.235964
0.240824
0.24822
0.256654
0.265049
0.272677
0.279235
0.284522
0.288461
0.290927
0.291994
0.291768
0.290386
0.287558
0.282469
0.275089
0.265726
0.254715
0.242472
0.229516
0.216459
0.204011
0.192955
0.184104
0.178235
0.175975
0.177663
0.183259
0.192235
0.202261
)
;
    }
    lowerWall
    {
        type            epsilonWallFunction;
        value           nonuniform List<scalar> 
62
(
0.00689763
0.0340165
0.0722354
0.110864
0.147368
0.180611
0.210015
0.235301
0.256146
0.272193
0.283356
0.290219
0.2939
0.295639
0.297906
0.302172
0.304684
0.30236
0.291074
0.265289
0.218213
0.141667
0.0252141
0.0252141
0.0603231
0.11251
0.168963
0.228966
0.295122
0.378376
0.538958
0.845736
0.638075
0.473588
0.344018
0.172572
0.161854
0.212101
0.251263
0.26875
0.251706
0.228548
0.218456
0.172572
0.320277
0.469075
0.510253
0.54703
0.60887
0.663072
0.689455
0.686087
0.645622
0.569989
0.493222
0.443688
0.376102
0.292073
0.223213
0.182598
0.118888
0.0427738
)
;
    }
    atmosphere
    {
        type            inletOutlet;
        inletValue      uniform 0.1;
        value           nonuniform List<scalar> 
46
(
0.1
0.1
0.1
0.1
0.1
0.1
0.1
0.1
0.1
0.1
0.1
0.1
0.1
0.1
0.1
0.1
0.1
0.1
0.1
0.1
0.1
0.1
0.1
0.1
0.1
0.1
0.1
0.1
0.1
0.1
0.0883735
0.0826451
0.0792887
0.0772165
0.0757679
0.0746431
0.0737268
0.0730118
0.0725762
0.0725885
0.0733406
0.0753355
0.079519
0.0880545
0.108312
0.202261
)
;
    }
    defaultFaces
    {
        type            empty;
    }
}


// ************************************************************************* //
