/*--------------------------------*- C++ -*----------------------------------*\
  =========                 |
  \\      /  F ield         | OpenFOAM: The Open Source CFD Toolbox
   \\    /   O peration     | Website:  https://openfoam.org
    \\  /    A nd           | Version:  13
     \\/     M anipulation  |
\*---------------------------------------------------------------------------*/
FoamFile
{
    format      ascii;
    class       volScalarField;
    location    "1.4";
    object      k;
}
// * * * * * * * * * * * * * * * * * * * * * * * * * * * * * * * * * * * * * //

dimensions      [0 2 -2 0 0 0 0];

internalField   nonuniform List<scalar> 
2268
(
0.00137821
0.00400775
0.00660959
0.00879108
0.0106309
0.0121866
0.013493
0.0145755
0.0154453
0.0161034
0.0165539
0.0168205
0.0169447
0.0169727
0.0169809
0.0170824
0.0171306
0.0170127
0.0165741
0.0155853
0.0137009
0.0102995
0.0032558
0.00329602
0.00943962
0.0145147
0.0188965
0.0226421
0.0258086
0.0284599
0.0306577
0.0324458
0.0338493
0.0348939
0.035632
0.0361462
0.0365258
0.0368342
0.0371289
0.0373364
0.0372602
0.0365797
0.034796
0.0311492
0.0244135
0.00966925
0.00472297
0.0125699
0.0189114
0.0243733
0.0290505
0.0330135
0.0363443
0.0391256
0.0414221
0.0432735
0.0447115
0.0457877
0.0465873
0.0472129
0.0477472
0.0482416
0.0486373
0.0487057
0.0480514
0.0460457
0.0417162
0.0334112
0.0146576
0.00607863
0.015231
0.0225873
0.0288277
0.0341394
0.0386312
0.0424121
0.045587
0.0482383
0.0504184
0.0521625
0.0535147
0.0545478
0.0553641
0.0560534
0.0566701
0.0571737
0.0573316
0.0567184
0.0546469
0.0500402
0.0409074
0.0192047
0.00747684
0.0179041
0.0262099
0.0330947
0.0388883
0.0437615
0.0478595
0.0513136
0.0542234
0.0566529
0.0586406
0.0602225
0.0614531
0.062424
0.0632261
0.0639167
0.0644732
0.0646749
0.0640989
0.062049
0.0574019
0.0478228
0.0234858
0.00908738
0.020893
0.0300764
0.0374843
0.0436334
0.0487702
0.0530828
0.0567308
0.0598268
0.0624419
0.0646165
0.066382
0.0677769
0.0688776
0.0697706
0.0705143
0.0710984
0.0713222
0.0707906
0.0688396
0.064345
0.0546282
0.0277731
0.0109857
0.0244314
0.034324
0.0421086
0.04849
0.0538009
0.0582563
0.062029
0.0652499
0.0679977
0.0703089
0.0722183
0.0737488
0.0749589
0.0759289
0.0767215
0.0773374
0.0775968
0.0771492
0.075397
0.071279
0.0618831
0.0327144
0.0131557
0.0283369
0.0387581
0.0467479
0.053221
0.0586243
0.0631974
0.0671064
0.0704779
0.0733706
0.0758182
0.0778535
0.0794982
0.0808021
0.0818416
0.0826881
0.0833619
0.0836938
0.083384
0.0819288
0.0784243
0.0701579
0.0413203
0.0114427
0.0174473
0.0226327
0.0240143
0.025272
0.0271861
0.0287742
0.0295627
0.0294934
0.0283415
0.026148
0.0238388
0.0222704
0.0199582
0.0168954
0.0141776
0.0123814
0.00920994
0.00455925
0.0195457
0.0356381
0.0469944
0.0523381
0.0549738
0.0587888
0.061921
0.0636539
0.0637015
0.0617247
0.0578678
0.0531439
0.0491182
0.044194
0.0383087
0.0327438
0.0277843
0.0205712
0.00931324
0.0234397
0.0445906
0.0586122
0.0675989
0.0710337
0.0754435
0.0794054
0.0818283
0.0822365
0.0802271
0.0757868
0.0699774
0.0643247
0.0579659
0.0505817
0.0433694
0.036376
0.0270755
0.0122251
0.0263498
0.0509737
0.0646088
0.0767608
0.0818278
0.0869605
0.0916521
0.0948675
0.0961364
0.0947693
0.0900629
0.0834091
0.0764205
0.0688366
0.0601425
0.0514498
0.0427484
0.0319433
0.0152564
0.0277204
0.0532823
0.067692
0.0794759
0.0868027
0.0933646
0.0989271
0.10284
0.104972
0.104768
0.10158
0.0949695
0.0870658
0.0784663
0.0685727
0.0584309
0.0482945
0.0357712
0.0169406
0.026626
0.0516995
0.0690098
0.0804341
0.088572
0.096215
0.102762
0.107449
0.110167
0.110547
0.108621
0.103399
0.0961286
0.0873305
0.0765581
0.0651549
0.0537273
0.0390122
0.0171146
0.0249167
0.0489729
0.069742
0.0820826
0.0903115
0.0983113
0.105543
0.111009
0.114371
0.11521
0.113482
0.108996
0.102665
0.0944261
0.0836629
0.071712
0.0593966
0.042792
0.0185777
0.024196
0.0479468
0.0709816
0.0842676
0.0925167
0.10051
0.108084
0.114159
0.118153
0.119521
0.118055
0.113834
0.107749
0.0998114
0.089454
0.0775812
0.064814
0.0473246
0.0206999
0.0158437
0.033767
0.0452492
0.0535662
0.0600978
0.0655312
0.0702217
0.07434
0.0779504
0.0810795
0.0837562
0.0860052
0.087876
0.0894219
0.0906851
0.0917188
0.0925408
0.0930269
0.0929379
0.0919162
0.0893393
0.083444
0.0670673
0.0201712
0.0420364
0.0551365
0.0641405
0.0709336
0.076441
0.081148
0.0852746
0.0888637
0.0919357
0.094547
0.0967647
0.0986433
0.100214
0.101484
0.10243
0.103091
0.103357
0.102979
0.101654
0.0989585
0.0940206
0.0854602
0.0247796
0.0511572
0.0658973
0.0757929
0.0831125
0.0888886
0.0936944
0.097797
0.101221
0.104009
0.10629
0.108177
0.109713
0.110909
0.111775
0.112311
0.112505
0.112323
0.111536
0.10995
0.107399
0.103573
0.0983346
0.0299848
0.0615304
0.077658
0.0883066
0.0961036
0.102127
0.10701
0.111055
0.114245
0.116671
0.118551
0.120031
0.121131
0.12187
0.122295
0.122444
0.122282
0.121762
0.120784
0.119258
0.117132
0.114339
0.110958
0.0367763
0.0733458
0.0902752
0.101234
0.109224
0.115335
0.120219
0.12412
0.127002
0.129057
0.130581
0.131686
0.132379
0.132741
0.132885
0.13286
0.132591
0.131966
0.131085
0.12994
0.1285
0.126874
0.125271
0.0461562
0.0863371
0.102776
0.113191
0.120955
0.12704
0.131932
0.135674
0.138282
0.140101
0.141435
0.142315
0.142771
0.14298
0.14311
0.143174
0.143039
0.142696
0.142224
0.14173
0.141206
0.140831
0.140823
0.0571622
0.097989
0.113166
0.122481
0.12977
0.135657
0.14042
0.144043
0.146642
0.148551
0.149981
0.150963
0.151586
0.152052
0.152515
0.152964
0.153306
0.153598
0.153935
0.154314
0.154821
0.155666
0.156961
0.0657228
0.105858
0.121785
0.129942
0.136632
0.142131
0.146538
0.149988
0.152652
0.154751
0.156423
0.157753
0.158862
0.159898
0.160966
0.162066
0.163174
0.164359
0.165702
0.167223
0.168951
0.170974
0.173405
0.0611752
0.110814
0.133871
0.137385
0.14315
0.148179
0.152029
0.155162
0.157795
0.159974
0.161788
0.163392
0.164946
0.166575
0.168335
0.170219
0.172242
0.174457
0.176923
0.179658
0.182661
0.185939
0.189486
0.0555151
0.109241
0.143582
0.143447
0.149249
0.154563
0.157676
0.160147
0.162659
0.164893
0.166732
0.168411
0.170213
0.172328
0.174814
0.177572
0.18059
0.183923
0.18762
0.191681
0.196054
0.200657
0.205405
0.0481582
0.0960135
0.125671
0.139467
0.149459
0.157497
0.162092
0.164355
0.167078
0.169809
0.171703
0.173223
0.175004
0.177336
0.18053
0.184275
0.188442
0.193047
0.198159
0.203748
0.209683
0.215771
0.221832
0.0416861
0.0894998
0.116743
0.134464
0.147092
0.15589
0.16082
0.164085
0.167363
0.170397
0.17272
0.174681
0.177128
0.180297
0.184507
0.189822
0.195498
0.201639
0.208458
0.215884
0.223614
0.231089
0.237649
0.0377995
0.0841185
0.112832
0.131715
0.144501
0.152911
0.15896
0.163676
0.167474
0.170386
0.172786
0.175371
0.17856
0.182068
0.186195
0.191181
0.196691
0.203148
0.210575
0.218728
0.226956
0.234218
0.239691
0.0373737
0.0842958
0.111714
0.130007
0.14254
0.151304
0.157872
0.163057
0.167054
0.169904
0.172227
0.174717
0.177765
0.181395
0.185387
0.189676
0.194526
0.200127
0.206497
0.213375
0.220228
0.226201
0.230623
0.0385269
0.0860333
0.111325
0.128331
0.140389
0.14916
0.155902
0.161207
0.165221
0.168177
0.170664
0.17326
0.176271
0.179659
0.18324
0.186961
0.190919
0.195311
0.200121
0.205116
0.209881
0.21389
0.216717
0.0397934
0.0867135
0.110089
0.125864
0.137357
0.146005
0.152738
0.158069
0.162256
0.165567
0.168378
0.171098
0.173989
0.177087
0.180241
0.183344
0.186488
0.189779
0.19319
0.196545
0.19957
0.201957
0.203423
0.0404578
0.0855712
0.107457
0.122241
0.133252
0.141773
0.148546
0.154027
0.158511
0.162236
0.165414
0.168288
0.171067
0.173843
0.176566
0.179168
0.181685
0.184157
0.186561
0.188782
0.190661
0.192024
0.192669
0.0396901
0.0828235
0.103517
0.117526
0.128158
0.136595
0.143471
0.149182
0.153995
0.158104
0.161644
0.164741
0.167528
0.170118
0.172552
0.174814
0.176914
0.178867
0.180656
0.18222
0.18347
0.184309
0.184582
0.0378424
0.0786999
0.0983538
0.111783
0.122142
0.130552
0.13757
0.143537
0.148675
0.153136
0.157015
0.160385
0.163323
0.165922
0.168258
0.170365
0.172261
0.173956
0.175447
0.176703
0.177681
0.178323
0.178505
0.0351935
0.0734274
0.09208
0.105065
0.115243
0.123669
0.130847
0.137069
0.142518
0.147311
0.151521
0.155194
0.158382
0.161149
0.163568
0.165695
0.167565
0.1692
0.170607
0.171777
0.172692
0.173314
0.173541
0.0319511
0.0672722
0.084923
0.0974729
0.107519
0.115981
0.123316
0.129774
0.13551
0.140616
0.145148
0.14914
0.152625
0.155649
0.158272
0.160548
0.162523
0.164229
0.165685
0.166894
0.167853
0.168538
0.168864
0.0283217
0.0605365
0.0771325
0.089193
0.0991061
0.107585
0.115043
0.1217
0.127683
0.133068
0.137896
0.142194
0.145985
0.149299
0.152181
0.154679
0.156839
0.158696
0.160277
0.161594
0.162651
0.163436
0.163879
0.0245525
0.053573
0.069061
0.0805867
0.0902521
0.0986788
0.106194
0.112983
0.119151
0.124758
0.129835
0.134401
0.138472
0.142067
0.145218
0.147964
0.150343
0.152393
0.154139
0.155601
0.156789
0.157696
0.158269
0.0211666
0.0467114
0.0610741
0.0720034
0.0813024
0.0895739
0.0970478
0.103875
0.11014
0.11589
0.121146
0.125919
0.130219
0.134057
0.137455
0.14044
0.143045
0.1453
0.147233
0.148862
0.150201
0.151252
0.15197
0.0181941
0.0405484
0.0537163
0.0639191
0.0727132
0.0806749
0.0879907
0.0947399
0.100996
0.106791
0.112136
0.117037
0.121497
0.12552
0.129119
0.132313
0.135125
0.137582
0.139704
0.141512
0.143019
0.144231
0.145114
0.0157102
0.0353517
0.047347
0.0567846
0.0650013
0.0725028
0.0794842
0.0860136
0.092142
0.0978782
0.103211
0.108149
0.112686
0.116822
0.120563
0.123918
0.126904
0.129539
0.131841
0.133826
0.135507
0.136892
0.137955
0.013776
0.031264
0.0421837
0.0508666
0.0584753
0.0654543
0.072005
0.0781947
0.0840562
0.089595
0.0948063
0.0996894
0.104218
0.108387
0.112199
0.115657
0.118769
0.121546
0.124001
0.126147
0.127994
0.12955
0.130795
0.0123879
0.0282814
0.0382768
0.0462628
0.0532816
0.0597309
0.0658084
0.0715899
0.0771052
0.0823607
0.0873508
0.0920655
0.096488
0.100608
0.104423
0.107918
0.111098
0.113969
0.116539
0.118814
0.120803
0.122513
0.123925
0.0114753
0.0262708
0.0355177
0.0428986
0.0493833
0.0553391
0.0609545
0.0663129
0.071449
0.0763732
0.0810828
0.0855677
0.0898139
0.0938087
0.0975419
0.101004
0.10419
0.107102
0.109739
0.112102
0.114196
0.116026
0.117578
0.0109289
0.025022
0.0336915
0.0405734
0.0466012
0.0521286
0.0573307
0.0622951
0.0670628
0.0716502
0.0760593
0.0802839
0.0843128
0.0881339
0.0917356
0.0951075
0.0982422
0.101135
0.103782
0.106183
0.108338
0.110247
0.111899
0.0106351
0.0243099
0.0325496
0.0390374
0.0446979
0.0498733
0.0547306
0.0593565
0.0637971
0.0680744
0.0721957
0.0761594
0.0799583
0.0835827
0.0870221
0.0902663
0.0933064
0.0961353
0.0987471
0.101138
0.103305
0.105246
0.106949
0.0105066
0.0239435
0.0318752
0.0380715
0.0434545
0.0483591
0.0529449
0.057298
0.0614668
0.0654775
0.0693422
0.073064
0.07664
0.0800641
0.0833279
0.0864227
0.0893399
0.0920714
0.0946105
0.096951
0.0990885
0.101019
0.102729
0.0104818
0.0237935
0.031527
0.037533
0.042731
0.0474465
0.0518337
0.055978
0.0599296
0.0637183
0.067361
0.0708655
0.0742333
0.077462
0.0805467
0.0834806
0.0862564
0.0888666
0.0913042
0.0935625
0.0956356
0.0975181
0.0991978
0.0105167
0.0238001
0.0314646
0.0374007
0.0425143
0.0471216
0.0513746
0.055361
0.0591359
0.0627346
0.0661794
0.0694833
0.0726526
0.0756891
0.0785909
0.0813542
0.0839735
0.0864425
0.0887547
0.0909035
0.0928827
0.0946861
0.0963027
0.010604
0.0240199
0.0318105
0.0378307
0.0429651
0.0475297
0.0516869
0.0555371
0.059147
0.0625613
0.0658097
0.0689111
0.0718769
0.0747126
0.0774199
0.0799974
0.0824418
0.0847482
0.0869111
0.0889245
0.0907823
0.0924783
0.0940022
0.0108047
0.0247198
0.0329404
0.039216
0.0444447
0.0489804
0.053025
0.0567097
0.0601217
0.0633196
0.0663417
0.069213
0.0719489
0.0745585
0.077046
0.0794122
0.0816555
0.0837724
0.0857584
0.0876084
0.0893165
0.0908768
0.09228
0.0113364
0.0265308
0.0355537
0.0421866
0.0474756
0.0518934
0.0557232
0.0591451
0.0622736
0.0651812
0.0679138
0.0705001
0.072958
0.075298
0.0775258
0.0796432
0.0816497
0.083543
0.0853191
0.0869737
0.0885014
0.0898964
0.0911505
0.0127246
0.0305112
0.0405843
0.0474634
0.052594
0.0566714
0.0600938
0.0630946
0.0658106
0.0683221
0.0706766
0.0729027
0.0750171
0.0770297
0.0789456
0.0807668
0.0824927
0.0841214
0.0856494
0.0870727
0.0883866
0.0895853
0.0906616
0.0159762
0.0379394
0.0489205
0.0555854
0.0601273
0.0635355
0.0663093
0.0687091
0.0708731
0.0728757
0.074758
0.0765425
0.078242
0.0798633
0.0814097
0.0828818
0.0842786
0.0855979
0.0868365
0.0879906
0.0890557
0.0900266
0.0908969
0.0229649
0.0501712
0.0610765
0.066607
0.0699834
0.0723867
0.0743089
0.0759723
0.0774831
0.0788936
0.0802305
0.0815074
0.082731
0.0839044
0.0850281
0.0861016
0.087123
0.0880899
0.0889991
0.0898473
0.0906304
0.0913438
0.0919822
0.0387286
0.0687011
0.0767083
0.0798178
0.0815448
0.0827725
0.0837827
0.0846835
0.0855217
0.086319
0.0870858
0.0878267
0.0885434
0.0892359
0.0899035
0.0905445
0.0911573
0.0917395
0.0922887
0.0928023
0.0932772
0.0937101
0.094097
0.0861087
0.093251
0.0934819
0.0935999
0.0938007
0.0940369
0.0942812
0.0945244
0.0947641
0.095
0.0952321
0.0954601
0.0956835
0.0959019
0.0961143
0.0963199
0.0965178
0.096707
0.0968865
0.0970552
0.0972118
0.0973548
0.0974828
0.0560266
0.0465228
0.0383288
0.0312345
0.0791168
0.073833
0.0674368
0.0589719
0.0944468
0.0910933
0.0869929
0.0822422
0.108577
0.106845
0.105172
0.103799
0.124421
0.124013
0.123832
0.123854
0.141244
0.141711
0.142319
0.142995
0.158322
0.159409
0.160577
0.161785
0.175562
0.17717
0.178827
0.180496
0.192352
0.194434
0.196605
0.198858
0.209112
0.211838
0.214769
0.217853
0.226535
0.2301
0.234229
0.23882
0.242384
0.246494
0.251565
0.256386
0.243417
0.246685
0.251083
0.255296
0.233361
0.235386
0.237683
0.239795
0.218267
0.219213
0.22011
0.220818
0.204008
0.204262
0.204375
0.204315
0.192709
0.192617
0.192385
0.192
0.184421
0.184224
0.18391
0.183466
0.178343
0.178167
0.177895
0.177511
0.173461
0.17335
0.173159
0.17287
0.168886
0.168847
0.168738
0.16854
0.164002
0.164032
0.163997
0.16388
0.158495
0.158592
0.158628
0.158588
0.152308
0.152477
0.152586
0.152625
0.145576
0.145823
0.146013
0.146137
0.13855
0.138882
0.139158
0.139372
0.131526
0.131944
0.132307
0.132612
0.124782
0.125282
0.125727
0.126116
0.11854
0.119108
0.119623
0.120084
0.112939
0.113558
0.114126
0.114643
0.108035
0.108687
0.10929
0.109843
0.10383
0.104496
0.105114
0.105684
0.100287
0.100947
0.101562
0.102131
0.0973544
0.0979938
0.0985897
0.0991414
0.094995
0.0955988
0.0961613
0.0966819
0.0931937
0.0937486
0.0942649
0.0947417
0.0919656
0.0924592
0.0929172
0.0933386
0.0913587
0.0917791
0.0921675
0.0925224
0.0914578
0.0917941
0.0921027
0.0923818
0.0923915
0.0926349
0.0928561
0.0930527
0.0943436
0.0944889
0.0946192
0.0947319
0.0975641
0.0976114
0.0976532
0.097688
0.0305842
0.0510685
0.0735852
0.0880714
0.0966513
0.104539
0.112302
0.119043
0.123916
0.126128
0.125235
0.121404
0.115482
0.107597
0.0973606
0.085304
0.0717799
0.0538305
0.0252252
0.0536575
0.0657979
0.0821025
0.0954395
0.104342
0.112089
0.119616
0.126429
0.131774
0.134774
0.134774
0.131771
0.126234
0.11807
0.106994
0.0936099
0.078266
0.0593978
0.0304564
0.0794145
0.0856537
0.0961088
0.10666
0.11508
0.122463
0.129235
0.135303
0.140255
0.143419
0.144133
0.142073
0.13708
0.128648
0.116561
0.101513
0.0840582
0.0633186
0.0318305
0.102611
0.106174
0.113189
0.121102
0.128436
0.135084
0.1409
0.145939
0.150069
0.152972
0.154035
0.152614
0.147937
0.139011
0.125696
0.108902
0.0893593
0.066062
0.0312103
0.124006
0.126051
0.130503
0.136534
0.143007
0.148912
0.154008
0.158235
0.161602
0.164024
0.164941
0.163574
0.158872
0.14913
0.134177
0.115422
0.0939822
0.0682283
0.0294757
0.14406
0.145743
0.148917
0.153749
0.159316
0.16454
0.169011
0.172519
0.175124
0.176805
0.177254
0.175661
0.170912
0.160257
0.143055
0.121678
0.0983654
0.0708702
0.0287871
0.163718
0.165859
0.168871
0.173159
0.178043
0.182557
0.186414
0.189224
0.191203
0.192165
0.191887
0.189856
0.185608
0.174492
0.154283
0.128781
0.103095
0.0757972
0.0308671
0.183213
0.186307
0.189866
0.194318
0.198982
0.203052
0.206633
0.20879
0.210116
0.211189
0.210583
0.206421
0.196529
0.178766
0.153986
0.126004
0.099598
0.0744329
0.0329746
0.202666
0.207154
0.211876
0.217167
0.222063
0.226033
0.230023
0.230856
0.229213
0.225923
0.219129
0.208849
0.192722
0.172284
0.146337
0.11884
0.093119
0.0673276
0.0297604
0.223082
0.229074
0.235396
0.242329
0.247048
0.250736
0.252743
0.248116
0.234892
0.220749
0.206745
0.193511
0.178654
0.159429
0.135264
0.110229
0.0859871
0.0607499
0.0276134
0.246265
0.252406
0.259061
0.265376
0.265449
0.262778
0.253842
0.239863
0.221776
0.205537
0.191551
0.179064
0.16596
0.147762
0.125219
0.102137
0.0796879
0.0571786
0.0264739
0.262075
0.264034
0.267784
0.268009
0.261935
0.249463
0.236209
0.221181
0.204785
0.190014
0.177514
0.166514
0.154381
0.137225
0.116478
0.0956888
0.0757807
0.0550755
0.0258366
0.259962
0.258883
0.255485
0.250555
0.241341
0.228747
0.215607
0.202149
0.18857
0.176171
0.165471
0.155509
0.143693
0.127856
0.109742
0.09188
0.0742647
0.0545295
0.0256905
0.241867
0.239818
0.234897
0.227978
0.218886
0.208185
0.19711
0.185999
0.175084
0.164977
0.155829
0.146533
0.135225
0.121167
0.105829
0.0904508
0.0744488
0.0552092
0.0259154
0.221252
0.218808
0.213987
0.207593
0.19999
0.191494
0.182664
0.173779
0.165078
0.156833
0.148848
0.140161
0.12972
0.117437
0.104269
0.0906324
0.0756119
0.0565658
0.0263774
0.203786
0.201269
0.197219
0.192079
0.186095
0.179492
0.172551
0.165471
0.158426
0.151469
0.144285
0.136198
0.126678
0.115826
0.10414
0.0915785
0.077122
0.0581478
0.0269471
0.191089
0.188763
0.18551
0.181493
0.176816
0.17162
0.166059
0.160259
0.154303
0.148144
0.141491
0.133915
0.125161
0.115322
0.104581
0.092678
0.0785734
0.0596722
0.027529
0.18252
0.180503
0.177888
0.174683
0.170918
0.166666
0.162009
0.157015
0.151708
0.146005
0.13969
0.132503
0.124315
0.115158
0.105029
0.0935674
0.0797504
0.0609894
0.0280614
0.176679
0.174978
0.172824
0.170163
0.166986
0.163325
0.159219
0.154698
0.149753
0.14431
0.138219
0.131327
0.123553
0.114876
0.10519
0.0940891
0.0805757
0.0620437
0.0285179
0.172189
0.170758
0.16893
0.166628
0.163826
0.160532
0.156761
0.152523
0.1478
0.142533
0.136628
0.129989
0.122554
0.114265
0.104959
0.0942158
0.0810513
0.0628285
0.0288853
0.168003
0.166793
0.165206
0.163159
0.160616
0.157575
0.15404
0.150011
0.145471
0.14038
0.134677
0.1283
0.121192
0.113269
0.104342
0.0939801
0.0812082
0.0633535
0.029159
0.163475
0.162455
0.16107
0.159234
0.156908
0.154086
0.150767
0.146947
0.142615
0.137743
0.132291
0.126214
0.119455
0.111914
0.103384
0.0934302
0.0810792
0.063628
0.0293328
0.158311
0.157476
0.156287
0.154659
0.152555
0.149964
0.146884
0.143312
0.139238
0.134644
0.129502
0.123772
0.117393
0.110254
0.102139
0.0926076
0.0806859
0.063651
0.0294109
0.152483
0.151848
0.150869
0.14947
0.147612
0.145284
0.142483
0.139205
0.135442
0.13118
0.126395
0.121048
0.115072
0.108349
0.100654
0.0915409
0.0800395
0.0634209
0.0293994
0.146144
0.14573
0.144981
0.143837
0.142253
0.14022
0.137732
0.134785
0.131372
0.127477
0.123077
0.118128
0.112561
0.106249
0.098959
0.0902461
0.0791423
0.0629272
0.0293054
0.139541
0.139367
0.138865
0.13799
0.136698
0.134978
0.132822
0.130224
0.127175
0.123658
0.119644
0.11509
0.109916
0.103991
0.0970782
0.0887324
0.0779947
0.0621652
0.0291372
0.132946
0.133018
0.13277
0.132163
0.131163
0.129754
0.127927
0.125673
0.122979
0.119825
0.116179
0.111992
0.107179
0.101604
0.0950287
0.0870081
0.0766134
0.0611974
0.028822
0.126608
0.126915
0.126906
0.126552
0.125824
0.124705
0.123184
0.121247
0.118879
0.116056
0.112741
0.108879
0.104383
0.0991101
0.0928286
0.0851076
0.0750278
0.0600001
0.0283477
0.120713
0.121227
0.12143
0.121296
0.120807
0.119941
0.118686
0.117026
0.11494
0.112402
0.10937
0.105783
0.101555
0.0965428
0.0905137
0.0830439
0.0732402
0.058585
0.0277287
0.115379
0.116058
0.116432
0.116479
0.116182
0.115523
0.114487
0.113053
0.111199
0.108895
0.106096
0.102738
0.0987294
0.0939279
0.0881023
0.0808406
0.0712797
0.0569851
0.026984
0.110653
0.111449
0.111947
0.112128
0.111976
0.111475
0.110606
0.10935
0.107679
0.105559
0.102944
0.0997664
0.095931
0.0912951
0.0856316
0.0785414
0.0691941
0.0552454
0.0261375
0.106532
0.107397
0.107973
0.108242
0.108189
0.107798
0.10705
0.105924
0.104389
0.10241
0.0999355
0.0968965
0.0931954
0.0886894
0.0831555
0.0762075
0.0670482
0.053428
0.0252218
0.102986
0.103876
0.104486
0.104801
0.104804
0.104482
0.103814
0.102777
0.10134
0.0994642
0.0970963
0.0941648
0.0905702
0.0861694
0.0807428
0.073916
0.0649234
0.0516078
0.0242777
0.0999753
0.100852
0.101459
0.101783
0.101807
0.101517
0.100895
0.0999144
0.0985449
0.096745
0.09446
0.0916159
0.0881118
0.0838036
0.0784739
0.0717573
0.0629156
0.0498766
0.0233565
0.0974708
0.0983011
0.0988742
0.0991744
0.0991882
0.0989016
0.0982959
0.0973469
0.0960228
0.0942809
0.0920649
0.0892992
0.0858811
0.0816653
0.0764347
0.0698291
0.06113
0.0483356
0.0225186
0.0954643
0.0962197
0.0967293
0.0969773
0.0969519
0.0966408
0.0960282
0.0950908
0.0937966
0.0921021
0.0899496
0.0872623
0.0839357
0.0798232
0.0747062
0.0682251
0.0596713
0.0470919
0.0218308
0.0939751
0.0946289
0.0950472
0.0952129
0.0951161
0.0947514
0.0941079
0.0931646
0.091889
0.0902362
0.088147
0.0855436
0.0823207
0.0783302
0.0733512
0.0670201
0.0586269
0.0462393
0.0213596
0.0930549
0.0935816
0.0938791
0.0939245
0.0937124
0.0932551
0.0925524
0.0915849
0.0903174
0.0887021
0.0866775
0.0841648
0.0810587
0.0772109
0.0723984
0.066251
0.0580457
0.0458404
0.0211596
0.0927946
0.0931718
0.0933153
0.0931834
0.0927819
0.0921726
0.0913731
0.09036
0.0890894
0.0875061
0.0855448
0.0831253
0.0801435
0.0764528
0.0718302
0.0658991
0.0579155
0.0458972
0.021259
0.093336
0.0935493
0.0935042
0.0930956
0.0923633
0.0915097
0.0905665
0.0894855
0.0881998
0.0866403
0.084735
0.0824021
0.0795392
0.076004
0.0715769
0.0658789
0.0581449
0.046332
0.0216504
0.0948862
0.0949453
0.0946944
0.0937967
0.09245
0.0912287
0.0901017
0.0889397
0.0876309
0.0860851
0.0842214
0.0819562
0.0791891
0.0757832
0.0715258
0.0660418
0.0585542
0.0469633
0.0222836
0.0977312
0.0977027
0.0973459
0.0952688
0.0928495
0.0912023
0.0899111
0.0886852
0.0873568
0.0858156
0.0839735
0.081745
0.0790319
0.075701
0.0715464
0.0662001
0.0588871
0.0474858
0.0229843
)
;

boundaryField
{
    leftWall
    {
        type            kqRWallFunction;
        value           nonuniform List<scalar> 
50
(
0.00137821
0.00329602
0.00472297
0.00607863
0.00747684
0.00908738
0.0109857
0.0131557
0.0158437
0.0201712
0.0247796
0.0299848
0.0367763
0.0461562
0.0571622
0.0657228
0.0611752
0.0555151
0.0481582
0.0416861
0.0377995
0.0373737
0.0385269
0.0397934
0.0404578
0.0396901
0.0378424
0.0351935
0.0319511
0.0283217
0.0245525
0.0211666
0.0181941
0.0157102
0.013776
0.0123879
0.0114753
0.0109289
0.0106351
0.0105066
0.0104818
0.0105167
0.010604
0.0108047
0.0113364
0.0127246
0.0159762
0.0229649
0.0387286
0.0861087
)
;
    }
    rightWall
    {
        type            kqRWallFunction;
        value           nonuniform List<scalar> 
50
(
0.00455925
0.00931324
0.0122251
0.0152564
0.0169406
0.0171146
0.0185777
0.0206999
0.0252252
0.0304564
0.0318305
0.0312103
0.0294757
0.0287871
0.0308671
0.0329746
0.0297604
0.0276134
0.0264739
0.0258366
0.0256905
0.0259154
0.0263774
0.0269471
0.027529
0.0280614
0.0285179
0.0288853
0.029159
0.0293328
0.0294109
0.0293994
0.0293054
0.0291372
0.028822
0.0283477
0.0277287
0.026984
0.0261375
0.0252218
0.0242777
0.0233565
0.0225186
0.0218308
0.0213596
0.0211596
0.021259
0.0216504
0.0222836
0.0229843
)
;
    }
    lowerWall
    {
        type            kqRWallFunction;
        value           nonuniform List<scalar> 
62
(
0.00137821
0.00400775
0.00660959
0.00879108
0.0106309
0.0121866
0.013493
0.0145755
0.0154453
0.0161034
0.0165539
0.0168205
0.0169447
0.0169727
0.0169809
0.0170824
0.0171306
0.0170127
0.0165741
0.0155853
0.0137009
0.0102995
0.0032558
0.0032558
0.00966925
0.0146576
0.0192047
0.0234858
0.0277731
0.0327144
0.0413203
0.0560266
0.0465228
0.0383288
0.0312345
0.0114427
0.0195457
0.0234397
0.0263498
0.0277204
0.026626
0.0249167
0.024196
0.0114427
0.0174473
0.0226327
0.0240143
0.025272
0.0271861
0.0287742
0.0295627
0.0294934
0.0283415
0.026148
0.0238388
0.0222704
0.0199582
0.0168954
0.0141776
0.0123814
0.00920994
0.00455925
)
;
    }
    atmosphere
    {
        type            inletOutlet;
        inletValue      uniform 0.1;
        value           nonuniform List<scalar> 
46
(
0.1
0.1
0.1
0.1
0.1
0.1
0.1
0.1
0.1
0.1
0.1
0.1
0.1
0.1
0.1
0.1
0.1
0.1
0.1
0.1
0.1
0.1
0.1
0.1
0.1
0.1
0.1
0.1
0.1
0.1
0.0952688
0.0928495
0.0912023
0.0899111
0.0886852
0.0873568
0.0858156
0.0839735
0.081745
0.0790319
0.075701
0.0715464
0.0662001
0.0588871
0.0474858
0.0229843
)
;
    }
    defaultFaces
    {
        type            empty;
    }
}


// ************************************************************************* //
