/*--------------------------------*- C++ -*----------------------------------*\
  =========                 |
  \\      /  F ield         | OpenFOAM: The Open Source CFD Toolbox
   \\    /   O peration     | Website:  https://openfoam.org
    \\  /    A nd           | Version:  13
     \\/     M anipulation  |
\*---------------------------------------------------------------------------*/
FoamFile
{
    format      ascii;
    class       volScalarField;
    location    "1.4";
    object      p;
}
// * * * * * * * * * * * * * * * * * * * * * * * * * * * * * * * * * * * * * //

dimensions      [1 -1 -2 0 0 0 0];

internalField   nonuniform List<scalar> 
2268
(
4893.22
4913.32
4947.39
4997.96
5064.61
5148.93
5249.8
5363.77
5486.2
5611.36
5733.21
5846.72
5947.79
6034.96
6108.59
6172.29
6229.37
6285.06
6344.88
6413.5
6491.85
6573.01
6666.89
4093.49
4110.28
4137.31
4181.42
4242.86
4323.07
4420.71
4532.46
4654.17
4780.66
4906.21
5025.98
5135.13
5231.41
5315.53
5387.9
5453.49
5516.59
5582.1
5653.82
5730.56
5805.1
5887.35
3292.78
3308.69
3328.93
3364.99
3419.38
3493.96
3587.47
3696.47
3817.48
3945.67
4075.49
4202.3
4320.53
4427.03
4520.83
4603.19
4677
4746.32
4815.31
4886.79
4958.64
5028.09
5113.47
2489.19
2507.82
2520.98
2548.31
2595.41
2664.88
2754.79
2862.04
2983.6
3114.64
3249.31
3383.86
3511.02
3626.86
3729.3
3818.67
3897.41
3969.07
4037.18
4104.06
4168.57
4237.46
4343.49
1690.15
1714.36
1721.74
1740.62
1780.68
1846.56
1933.85
2038.4
2159.2
2291.55
2429.87
2570.67
2706.52
2831.39
2941.58
3036.41
3117.94
3189.19
3253.48
3313.07
3369.11
3438.81
3571.15
1142.57
1158.87
1161.8
1168.76
1184.12
1211.21
1250.14
1313.46
1400.89
1512.14
1641.97
1779.8
1916.93
2046.45
2161.37
2259.37
2341.59
2410.05
2468.17
2518.59
2564.68
2631.42
2787.77
959.255
966.056
967.626
967.364
963.783
957.645
952.209
961.594
985.323
1024.28
1077.61
1146.05
1232.73
1323.73
1411.77
1492.81
1561.13
1614.76
1656.61
1690.45
1720.12
1780.86
1974.18
898.727
905.879
908.805
909.076
906.794
902.952
899.125
893.008
885.548
877.298
869.732
870.011
888.47
915.378
946.717
980.832
1012.15
1036.18
1052.28
1060.89
1061.85
1071.27
1176.98
3656.37
3123.82
2868.7
2556.38
2344.4
2193.83
2072.45
1983.92
1927.28
1891.81
1869.33
1899.91
1962.76
2015.57
2048.74
2066.84
2075.1
2042.29
1971.72
3006.96
2419.76
2181.41
1944.09
1769.28
1611.84
1479.24
1401.08
1363.39
1349.28
1375.94
1403.68
1433.89
1472.86
1501.53
1514.61
1500.37
1469.64
1436.28
2383.91
1894.27
1671.05
1382.37
1223.47
1107.49
1025.02
975.03
945.183
936.953
989.078
1030.44
1075.38
1107.16
1122.4
1116.14
1073.54
1030.41
1024.38
1815.28
1598.9
1385.72
1116.23
1003.28
932.626
889.538
855.681
827.369
810.178
804.624
812.917
859.763
901.862
908.063
891.226
846.257
784.604
760.543
1295.44
1296.91
1188.98
1018.98
935.765
874.435
833.982
806.108
784.96
766.214
731.066
706.888
697.829
702.035
693.599
680.773
663.314
634.363
625.319
937.935
977.278
1026.26
933.266
871.525
816.197
775.12
745.05
722.497
705.426
682.467
651.094
609.993
573.829
549.201
532.931
535.133
548.486
560.672
819.055
776.441
885.582
850.366
804.33
755.428
715.164
683.837
659.537
639.997
619.166
592.51
556.699
522.451
495.434
479.568
481.681
497.524
513.443
745.694
677.71
774.244
771.767
736.39
693.142
654.037
621.768
596.067
574.977
553.476
529.495
498.05
469.334
449.872
441.187
443.283
454.171
468.08
801.508
807.955
811.02
811.239
809.516
806.687
803.786
800.755
797.885
795.388
793.648
792.437
790.436
789.095
789.279
790.779
793.361
795.118
792.608
782.361
759.932
715.945
653.821
666.588
672.178
674.912
675.087
673.897
672.11
670.145
668.343
666.592
664.998
663.778
663.357
663.256
663.257
663.087
662.698
661.582
658.169
650.071
635.317
612.893
580.942
544.165
529.697
533.5
535.38
535.545
535.246
534.891
534.722
535.071
535.456
535.463
535.5
535.965
536.805
537.199
536.72
535.584
534.076
530.339
521.582
506.749
488.023
465.296
439.857
393.295
393.728
393.15
393.16
394.117
395.53
397.422
400.925
404.554
406.85
408.297
410.494
412.925
414.109
413.179
411.1
410.24
408.074
401.51
391.302
380.294
368.334
356.166
257.248
254.34
254.408
257.806
262.843
267.35
272.198
279.029
285.292
289.878
293.383
297.4
301.339
304.086
305.435
306.622
308.576
309.634
308.79
306.963
303.686
298.629
294.303
127.326
134.448
148.873
159.747
169.807
178.927
187.516
195.621
203.188
209.737
215.751
220.616
224.804
228.791
232.89
237.065
239.984
242.186
244.242
245.47
244.075
240.61
235.177
52.4988
59.4139
76.8081
89.4987
101.847
114.408
125.845
134.752
143.288
151.211
158.213
163.673
168.375
173.045
177.383
180.728
182.756
184.294
185.425
185.466
183.907
181.042
176.813
22.4187
22.4096
26.9526
31.202
39.6123
50.3571
61.4358
70.828
79.2083
87.2255
94.0096
100.015
105.455
110.471
115.057
118.842
121.665
123.675
124.908
125.153
124.101
121.694
118.067
7.84894
4.02949
3.98673
5.11346
8.35851
12.6721
17.2227
21.6881
26.1445
30.9819
36.1421
41.6858
47.1707
51.6158
55.6988
59.4108
62.1833
64.0754
65.1443
65.3079
64.3405
62.1741
58.6495
4.22904
3.46872
3.54318
3.4492
3.23283
3.07544
3.09499
3.72872
5.04395
6.66851
8.72183
11.0819
13.5997
15.4345
16.7597
17.8523
18.6487
18.9875
19.0014
18.7242
18.0276
16.8417
15.2279
3.59605
3.38178
3.34535
3.29487
3.25153
3.23772
3.23436
3.19306
3.06283
3.02264
3.02195
2.97271
2.93301
2.79435
3.20848
3.60109
3.98931
4.27929
4.45044
4.53107
4.4509
4.1724
3.88647
3.12285
3.14728
3.17444
3.14052
3.11433
3.10279
3.10423
3.11124
3.11328
3.12875
3.13943
3.13332
3.09961
3.06588
3.01328
3.03425
3.10406
3.18719
3.27469
3.36875
3.47431
3.60161
3.8096
2.97037
2.99266
3.00428
2.99221
2.97042
2.95546
2.9603
2.95798
2.96887
2.97669
2.98649
3.00307
3.01508
3.0548
3.11612
3.20731
3.30879
3.41498
3.52493
3.64031
3.76217
3.88671
4.03389
2.85064
2.86115
2.86313
2.85376
2.8395
2.82865
2.82389
2.82911
2.83006
2.839
2.85347
2.87184
2.91277
2.94176
3.00817
3.07463
3.15914
3.25547
3.36033
3.47226
3.5897
3.70654
3.83207
2.72976
2.73266
2.73166
2.72564
2.71685
2.70999
2.70768
2.70933
2.71347
2.72373
2.74029
2.76273
2.79286
2.83929
2.88558
2.94672
3.02593
3.11842
3.22081
3.33032
3.44455
3.55678
3.68044
2.60918
2.60748
2.60515
2.60127
2.59675
2.59395
2.59469
2.59891
2.60563
2.61647
2.63512
2.66131
2.69489
2.73561
2.78443
2.84571
2.92131
3.00971
3.10866
3.21506
3.32596
3.43448
3.5552
2.49096
2.48653
2.48335
2.48086
2.47919
2.47949
2.48276
2.48919
2.49843
2.51138
2.53042
2.55843
2.59542
2.63952
2.68965
2.74937
2.821
2.90466
2.99902
3.10112
3.20786
3.31236
3.42921
2.37562
2.36992
2.36634
2.36477
2.36491
2.36725
2.37236
2.38052
2.39183
2.40702
2.42739
2.45499
2.49196
2.53722
2.58772
2.64621
2.71475
2.79435
2.88434
2.98194
3.08429
3.18474
3.29711
2.26294
2.25719
2.2537
2.25276
2.25403
2.25765
2.26398
2.27336
2.28614
2.30291
2.32476
2.35296
2.38859
2.43153
2.48128
2.53826
2.60419
2.68018
2.76595
2.85909
2.95688
3.05299
3.1606
2.15266
2.14765
2.14468
2.14429
2.14624
2.15061
2.15769
2.16779
2.18136
2.19898
2.2214
2.24953
2.28402
2.32515
2.37287
2.42787
2.49114
2.56369
2.64532
2.7339
2.82698
2.91862
3.02082
2.04459
2.0408
2.03864
2.03873
2.04111
2.04587
2.05331
2.06375
2.07762
2.09543
2.11781
2.14538
2.17869
2.21805
2.26375
2.3164
2.37686
2.4459
2.52338
2.6074
2.6957
2.78273
2.87963
1.93867
1.93628
1.93501
1.93554
1.93817
1.94308
1.95061
1.96109
1.97492
1.99255
2.01449
2.04124
2.07324
2.11087
2.15449
2.20468
2.26217
2.32764
2.40095
2.48037
2.56385
2.64636
2.73779
1.83478
1.83372
1.83327
1.83415
1.83691
1.84185
1.8493
1.85963
1.8732
1.89041
1.9117
1.93747
1.96811
2.00398
2.04548
2.09313
2.14758
2.20943
2.27853
2.35336
2.432
2.50989
2.59605
1.73277
1.73274
1.73293
1.73407
1.73688
1.74177
1.74906
1.75912
1.77231
1.78898
1.80949
1.83421
1.86345
1.89757
1.93693
1.98201
2.03339
2.0916
2.15651
2.22674
2.30053
2.37379
2.45445
1.63224
1.63295
1.63363
1.63495
1.63777
1.64255
1.64961
1.65935
1.6721
1.68817
1.70786
1.73148
1.75932
1.79168
1.82892
1.87144
1.91977
1.97436
2.03511
2.10079
2.16979
2.23842
2.31382
1.53286
1.53404
1.53505
1.53653
1.53932
1.54394
1.55078
1.56017
1.57244
1.58786
1.60671
1.62925
1.6557
1.68634
1.72147
1.76147
1.80678
1.85783
1.91451
1.97573
2.04002
2.10413
2.17432
1.43434
1.43576
1.43697
1.43857
1.44134
1.44583
1.45242
1.46146
1.47324
1.48803
1.50604
1.52747
1.55255
1.5815
1.61458
1.6521
1.69447
1.74205
1.79475
1.85162
1.91131
1.97092
2.03615
1.33647
1.33796
1.33928
1.34095
1.34371
1.34808
1.35445
1.36315
1.37446
1.38859
1.40575
1.42612
1.44987
1.47716
1.50821
1.5433
1.5828
1.627
1.67585
1.72847
1.78364
1.8388
1.89908
1.23914
1.2406
1.24196
1.24367
1.2464
1.25067
1.25684
1.26522
1.27607
1.28957
1.30589
1.32518
1.34758
1.37323
1.4023
1.43504
1.47174
1.51265
1.55773
1.6062
1.65694
1.70759
1.76337
1.14232
1.1437
1.14504
1.14677
1.14947
1.15363
1.15961
1.1677
1.1781
1.19097
1.20646
1.22467
1.24572
1.26972
1.29682
1.3272
1.36113
1.39883
1.44026
1.4847
1.53103
1.57686
1.62914
1.046
1.04727
1.04858
1.05031
1.05298
1.05704
1.06286
1.07066
1.08061
1.09285
1.1075
1.12462
1.14431
1.16665
1.19175
1.21977
1.25093
1.28545
1.32326
1.36372
1.40591
1.44793
1.4941
0.95019
0.951348
0.952626
0.954345
0.956987
0.960985
0.966642
0.974149
0.983651
0.995253
1.00903
1.02505
1.04336
1.06401
1.08709
1.11273
1.14112
1.17245
1.20665
1.24315
1.28112
1.31891
1.3599
0.854876
0.855937
0.857187
0.858914
0.861555
0.865502
0.871001
0.878215
0.887255
0.898197
0.911092
0.925968
0.94285
0.961771
0.982795
1.00603
1.03163
1.05975
1.09035
1.12289
1.15667
1.19016
1.22635
0.760106
0.761075
0.762305
0.764054
0.766707
0.7706
0.77594
0.782854
0.791418
0.801675
0.813646
0.827336
0.842747
0.859894
0.878818
0.899604
0.922388
0.947306
0.974305
1.00293
1.03255
1.06183
1.09336
0.66592
0.666805
0.66801
0.669769
0.672422
0.676258
0.681438
0.688042
0.696107
0.705642
0.71664
0.729088
0.74297
0.758285
0.775062
0.793368
0.813319
0.835034
0.858468
0.883222
0.908761
0.933927
0.960981
0.572338
0.573134
0.574294
0.576046
0.578689
0.582462
0.58747
0.593738
0.601262
0.610018
0.619978
0.631113
0.643397
0.656823
0.671407
0.687207
0.704323
0.722861
0.742786
0.763759
0.785318
0.806497
0.829208
0.479365
0.480089
0.481201
0.482918
0.485527
0.489212
0.494008
0.499886
0.506795
0.514689
0.523524
0.533262
0.543876
0.555355
0.567713
0.580999
0.595303
0.610718
0.627217
0.644519
0.662266
0.679642
0.698268
0.387056
0.387745
0.388793
0.390439
0.392976
0.396521
0.401033
0.406424
0.412611
0.419529
0.427131
0.43538
0.444251
0.453736
0.46385
0.474638
0.486178
0.498552
0.511745
0.525543
0.539647
0.553449
0.568245
0.295364
0.296118
0.297123
0.298691
0.301138
0.304485
0.308607
0.313373
0.318685
0.324482
0.330722
0.337378
0.344433
0.351886
0.359755
0.368079
0.376926
0.386367
0.396393
0.406836
0.4175
0.427929
0.439121
0.203972
0.204892
0.206096
0.207796
0.210217
0.213293
0.216859
0.220789
0.225011
0.229486
0.234194
0.239125
0.244273
0.249644
0.255256
0.261144
0.267363
0.273968
0.280953
0.288208
0.295581
0.302776
0.310499
0.112588
0.113161
0.115614
0.118028
0.120443
0.123023
0.125726
0.128506
0.131354
0.134271
0.137262
0.140332
0.143488
0.146738
0.150099
0.153598
0.157272
0.16116
0.165258
0.169493
0.173787
0.177988
0.182472
0.0328992
0.0283587
0.0333975
0.0357306
0.0371936
0.0384471
0.0396023
0.0406978
0.0417633
0.042818
0.0438737
0.044938
0.0460174
0.047118
0.0482482
0.049419
0.0506452
0.0519405
0.0533046
0.0547157
0.0561426
0.0575741
0.0591275
599.201
611.778
632.062
641.566
530.437
524.259
524.934
522.102
423.136
415.133
411.373
406.686
344.251
338.716
334.722
328.903
286.661
280.99
275.979
269.386
228.853
224.179
219.669
214.09
171.426
167.326
163.219
158.503
113.711
110.13
106.391
102.094
53.4185
49.6933
46.3869
44.1041
12.3998
11.3591
11.0441
11.6715
3.95426
4.13659
4.25409
4.17665
4.17027
4.50272
4.86274
5.06132
4.2588
4.46889
4.70336
4.88672
4.03038
4.24771
4.49774
4.69629
3.89039
4.11156
4.3586
4.5524
3.76432
3.98151
4.22158
4.40822
3.63145
3.84162
4.07398
4.25398
3.49128
3.69314
3.91642
4.08988
3.34542
3.53777
3.75148
3.91804
3.1956
3.37769
3.58065
3.74017
3.04382
3.21504
3.4071
3.55893
2.89161
3.05185
3.23201
3.37573
2.73929
2.88839
3.05689
3.19212
2.58728
2.72535
2.88186
3.00872
2.43635
2.5636
2.70869
2.82705
2.28721
2.40416
2.53774
2.64763
2.13974
2.24683
2.36963
2.47112
1.99382
2.09158
2.20382
2.29723
1.84957
1.9384
2.0408
2.12627
1.70734
1.78748
1.88001
1.9577
1.56486
1.63766
1.72174
1.79216
1.42335
1.48879
1.5644
1.62789
1.28256
1.34076
1.40829
1.46499
1.14265
1.19384
1.25329
1.30336
1.0035
1.04786
1.09959
1.14316
0.865165
0.902878
0.946962
0.984295
0.727902
0.759153
0.795932
0.827161
0.591944
0.617024
0.646575
0.671857
0.457183
0.476347
0.499055
0.518578
0.323192
0.336697
0.352798
0.366906
0.189508
0.197493
0.207367
0.216574
0.0611638
0.063704
0.0669578
0.0703997
660.165
604.949
652.037
658.344
631.846
594.996
558.296
528.08
504.447
483.807
462.897
440.758
418.72
402.341
393.885
390.985
392.684
397.637
405.272
509.569
473.987
499.118
512.192
496.071
467.272
442.823
424.313
407.564
390.379
372.407
354.794
339.735
330.124
325.822
323.592
323.333
325.455
331.88
381.056
355.844
362.855
379.896
377.292
365.489
357.367
348.203
335.329
320.298
304.321
288.776
275.366
265.703
259.795
255.856
253.788
255.168
262.755
308.792
274.664
269.664
284.128
290.609
291.267
287.361
278.306
265.606
251.37
236.202
222.064
209.757
199.884
192.717
187.251
183.589
183.591
190.101
255.037
233.943
224.729
226.282
229.052
227.233
220.295
209.704
196.747
183.035
167.497
152.736
138.2
126.881
119.515
112.705
107.225
105.8
111.132
203.703
187.808
177.465
173.913
170.577
163.936
154.575
142.425
128.244
111.875
89.766
70.2574
55.1142
46.1772
42.8978
39.3802
35.7043
33.7125
37.6719
150.096
137.316
125.852
118.388
111.894
102.125
90.364
72.8066
51.8194
39.8008
24.4478
15.2236
10.6549
9.50962
9.4087
9.61978
9.65509
8.66936
9.63348
94.9029
84.4301
72.8154
64.5607
57.0004
42.9415
32.3606
21.3623
8.86418
7.19784
7.04869
7.1598
7.31306
7.48925
7.59419
7.585
7.44959
7.27497
7.3069
42.7763
36.703
26.8234
22.717
20.2124
10.8182
6.27126
6.32095
6.55942
6.55719
6.56639
6.63696
6.79097
6.97456
7.04181
7.02797
6.97141
6.98557
7.06257
14.1573
13.5183
7.70368
5.49791
5.65685
6.10752
6.12849
6.13222
6.22484
6.31689
6.40663
6.49189
6.59716
6.70319
6.72872
6.72843
6.74943
6.7803
6.8124
4.69184
5.09782
5.62222
5.69304
5.70202
5.79923
5.9165
5.98788
6.08351
6.17111
6.26271
6.33323
6.38196
6.41889
6.45352
6.49721
6.53953
6.5648
6.55898
5.17005
5.27001
5.39913
5.49212
5.55477
5.65074
5.74726
5.83083
5.91282
6.00107
6.08567
6.14687
6.17829
6.19984
6.25453
6.30562
6.33825
6.35984
6.36009
5.03708
5.11947
5.22209
5.31869
5.40919
5.50228
5.59134
5.66331
5.73264
5.81315
5.89535
5.9592
5.99793
6.03244
6.07385
6.11089
6.13699
6.15152
6.14977
4.87937
4.97135
5.07152
5.17122
5.26241
5.35109
5.43313
5.50368
5.56983
5.64256
5.71691
5.77676
5.81955
5.85411
5.88836
5.91708
5.9367
5.94424
5.93961
4.72934
4.82346
4.91984
5.0159
5.10598
5.19141
5.2709
5.34279
5.40968
5.47682
5.54105
5.59528
5.63734
5.67089
5.69998
5.72268
5.73582
5.73819
5.73205
4.57818
4.66793
4.75894
4.85234
4.94142
5.0254
5.10348
5.17485
5.24108
5.30383
5.36194
5.41144
5.45112
5.4825
5.50749
5.52491
5.53335
5.53242
5.52565
4.4175
4.50378
4.5911
4.68212
4.7698
4.85242
4.92917
4.9996
5.06426
5.12387
5.17746
5.22306
5.25993
5.28872
5.31022
5.32395
5.32921
5.32625
5.3194
4.24795
4.33176
4.41647
4.50525
4.59116
4.67221
4.74743
4.81649
4.87947
4.93644
4.98673
5.02929
5.06368
5.09014
5.10903
5.12019
5.1234
5.1194
5.11284
4.07071
4.15278
4.23534
4.32192
4.4059
4.48521
4.55879
4.62625
4.68745
4.74223
4.79008
4.83038
4.86281
4.88744
4.90447
4.91397
4.91602
4.91171
4.90579
3.88783
3.9681
4.04866
4.13302
4.21493
4.29237
4.36422
4.43002
4.48951
4.54245
4.58842
4.62699
4.65794
4.68125
4.69708
4.70561
4.70721
4.70319
4.69811
3.70082
3.77931
3.85776
3.93977
4.01947
4.0949
4.16493
4.22904
4.28691
4.33824
4.3827
4.41995
4.4498
4.47223
4.48738
4.49553
4.49721
4.49386
4.48979
3.51166
3.58794
3.66409
3.74356
3.82086
3.89412
3.96221
4.02457
4.08085
4.13073
4.17391
4.21012
4.23918
4.26107
4.27593
4.28409
4.28622
4.28384
4.28081
3.32142
3.39539
3.46902
3.54572
3.6204
3.6913
3.75729
3.81781
3.87248
3.92097
3.963
3.99833
4.0268
4.04838
4.06321
4.07168
4.07448
4.07317
4.07126
3.13161
3.20286
3.27377
3.34747
3.41928
3.48759
3.55131
3.60985
3.66282
3.7099
3.75082
3.78534
3.81331
3.8347
3.84967
3.85857
3.86216
3.86195
3.86121
2.94298
3.01138
3.07928
3.14975
3.21845
3.28395
3.34519
3.40158
3.45273
3.49832
3.53808
3.57177
3.59926
3.62051
3.63565
3.64507
3.64945
3.65015
3.65085
2.75658
2.82169
2.8863
2.95329
3.01867
3.08112
3.13967
3.19372
3.24289
3.28686
3.32535
3.35815
3.38511
3.40618
3.42151
3.43141
3.43659
3.43835
3.43972
2.57262
2.63427
2.69531
2.75861
2.82044
2.87963
2.93527
2.98679
3.03381
3.07599
3.11309
3.14487
3.1712
3.19203
3.20745
3.21777
3.2236
3.2262
3.22812
2.39152
2.4494
2.50661
2.56598
2.62407
2.67981
2.73235
2.78115
2.82583
2.86607
2.90162
2.93226
2.95783
2.97826
2.99362
3.00415
3.01048
3.01379
3.01615
2.21304
2.26714
2.32027
2.37553
2.42972
2.48184
2.53111
2.57702
2.6192
2.65734
2.69116
2.72046
2.74507
2.76491
2.78001
2.79065
2.79738
2.80123
2.80397
2.03708
2.08759
2.13627
2.18725
2.23741
2.28578
2.33164
2.37449
2.41399
2.44983
2.48175
2.50951
2.53297
2.55205
2.56681
2.57744
2.58446
2.58877
2.59172
1.86401
1.9096
1.95423
2.00093
2.04698
2.09151
2.13383
2.17349
2.21015
2.24352
2.27336
2.29946
2.32167
2.33991
2.3542
2.36475
2.37195
2.37653
2.37962
1.69274
1.73351
1.77397
1.81636
1.85826
1.89886
1.93756
1.97393
2.00766
2.03848
2.06616
2.09051
2.11137
2.12866
2.14241
2.15274
2.16002
2.16479
2.16786
1.52285
1.55918
1.59544
1.63351
1.67125
1.7079
1.74292
1.77595
1.80668
1.83488
1.86032
1.88283
1.90225
1.91851
1.93159
1.94163
1.94885
1.95366
1.95665
1.35453
1.38656
1.41867
1.45246
1.48603
1.51872
1.55004
1.57968
1.60736
1.63287
1.656
1.67657
1.69446
1.70958
1.7219
1.7315
1.73857
1.74335
1.74615
1.18773
1.21568
1.24373
1.27328
1.3027
1.33143
1.35904
1.38525
1.40983
1.43258
1.45331
1.47187
1.48812
1.50199
1.51342
1.5225
1.5293
1.53392
1.53653
1.02265
1.04665
1.07072
1.09608
1.12137
1.14612
1.17
1.19275
1.21418
1.23411
1.25237
1.26881
1.28331
1.2958
1.30624
1.31463
1.32105
1.32549
1.32785
0.85937
0.87961
0.899775
0.920962
0.942112
0.962891
0.983012
1.00227
1.02049
1.03752
1.05321
1.06743
1.08008
1.09106
1.10035
1.10796
1.11388
1.11803
1.12022
0.698181
0.714715
0.731022
0.748023
0.764971
0.781733
0.798063
0.813784
0.828744
0.8428
0.855826
0.867713
0.878366
0.88772
0.895739
0.902404
0.907745
0.911634
0.913658
0.539091
0.552081
0.564562
0.577292
0.589862
0.602539
0.615047
0.627194
0.638831
0.64983
0.660089
0.669522
0.678061
0.685655
0.692273
0.697938
0.702634
0.706212
0.708221
0.382102
0.391708
0.400387
0.408709
0.416365
0.424965
0.433697
0.442274
0.450548
0.458417
0.465809
0.472674
0.478976
0.484695
0.489834
0.494404
0.498442
0.501849
0.503957
0.227492
0.23408
0.23906
0.24264
0.243747
0.248622
0.253819
0.258904
0.263812
0.268499
0.272941
0.277134
0.281083
0.284809
0.288351
0.291787
0.295199
0.298527
0.301035
0.075224
0.0778043
0.0789464
0.0783308
0.0780129
0.0803784
0.0824628
0.0843432
0.0861008
0.0877526
0.0893073
0.0907737
0.0921629
0.0934924
0.094791
0.0961012
0.0974876
0.0989561
0.100222
)
;

boundaryField
{
    leftWall
    {
        type            calculated;
        value           nonuniform List<scalar> 
50
(
4893.22
4093.49
3292.78
2489.19
1690.15
1142.57
959.255
898.727
801.508
666.588
529.697
393.295
257.248
127.326
52.4988
22.4187
7.84894
4.22904
3.59605
3.12285
2.97037
2.85064
2.72976
2.60918
2.49096
2.37562
2.26294
2.15266
2.04459
1.93867
1.83478
1.73277
1.63224
1.53286
1.43434
1.33647
1.23914
1.14232
1.046
0.95019
0.854876
0.760106
0.66592
0.572338
0.479365
0.387056
0.295364
0.203972
0.112588
0.0328992
)
;
    }
    rightWall
    {
        type            calculated;
        value           nonuniform List<scalar> 
50
(
1971.72
1436.28
1024.38
760.543
625.319
560.672
513.443
468.08
405.272
331.88
262.755
190.101
111.132
37.6719
9.63348
7.3069
7.06257
6.8124
6.55898
6.36009
6.14977
5.93961
5.73205
5.52565
5.3194
5.11284
4.90579
4.69811
4.48979
4.28081
4.07126
3.86121
3.65085
3.43972
3.22812
3.01615
2.80397
2.59172
2.37962
2.16786
1.95665
1.74615
1.53653
1.32785
1.12022
0.913658
0.708221
0.503957
0.301035
0.100222
)
;
    }
    lowerWall
    {
        type            calculated;
        value           nonuniform List<scalar> 
62
(
5291.37
5311.47
5345.54
5396.11
5462.76
5547.08
5647.95
5761.92
5884.35
6009.51
6131.36
6244.87
6345.94
6433.11
6506.74
6570.44
6627.52
6683.21
6743.03
6811.65
6890
6970.99
7064.83
6666.89
5887.35
5113.47
4343.49
3571.15
2787.77
1974.18
1176.98
675.969
694.575
710.74
705.561
3656.37
3006.96
2383.91
1815.28
1295.44
937.935
819.055
745.694
4006.84
3474.27
3217.39
2820.18
2563.37
2413.23
2306.2
2225.59
2168.98
2128.68
2104.91
2155.9
2242.83
2296.4
2331.38
2347.78
2357.02
2323.16
2252.75
)
;
    }
    atmosphere
    {
        type            calculated;
        value           nonuniform List<scalar> 
46
(
-0.000632418
-0.00113893
-0.000854483
-0.000712477
-0.000629832
-0.000577974
-0.000544498
-0.000522587
-0.000507983
-0.000497876
-0.000490279
-0.00048366
-0.000476733
-0.000468441
-0.000457984
-0.000444906
-0.000429084
-0.000410707
-0.00038993
-0.000366455
-0.000339351
-0.000309821
-0.000271914
-0.000188997
-0.000170549
-0.000159489
-0.00015231
-0.000134483
-0.000100249
-6.60449e-05
-4.53782e-05
-2.54639e-05
-7.57844e-06
-8.9352e-08
0
0
0
0
0
0
0
0
0
0
0
0
)
;
    }
    defaultFaces
    {
        type            empty;
    }
}


// ************************************************************************* //
