/*--------------------------------*- C++ -*----------------------------------*\
  =========                 |
  \\      /  F ield         | OpenFOAM: The Open Source CFD Toolbox
   \\    /   O peration     | Website:  https://openfoam.org
    \\  /    A nd           | Version:  13
     \\/     M anipulation  |
\*---------------------------------------------------------------------------*/
FoamFile
{
    format      ascii;
    class       volScalarField;
    location    "1.4";
    object      p_rgh;
}
// * * * * * * * * * * * * * * * * * * * * * * * * * * * * * * * * * * * * * //

dimensions      [1 -1 -2 0 0 0 0];

internalField   nonuniform List<scalar> 
2268
(
5291.37
5311.47
5345.54
5396.11
5462.76
5547.08
5647.95
5761.92
5884.35
6009.51
6131.36
6244.87
6345.94
6433.11
6506.74
6570.44
6627.52
6683.21
6743.03
6811.65
6890
6970.99
7064.83
5287.94
5304.73
5331.76
5375.87
5437.31
5517.52
5615.16
5726.91
5848.62
5975.11
6100.66
6220.43
6329.58
6425.86
6509.98
6582.35
6647.94
6711.04
6776.55
6848.27
6925.01
6999.43
7081.14
5283.53
5299.44
5319.68
5355.74
5410.13
5484.71
5578.22
5687.22
5808.22
5936.42
6066.24
6193.05
6311.28
6417.78
6511.58
6593.94
6667.75
6737.07
6806.06
6877.54
6949.39
7018.84
7103.57
5276.23
5294.86
5308.03
5335.36
5382.46
5451.92
5541.84
5649.09
5770.65
5901.69
6036.36
6170.91
6298.06
6413.91
6516.34
6605.72
6684.45
6756.11
6824.23
6891.11
6955.62
7024.51
7130.5
5213.01
5248.07
5261
5291.69
5352.43
5429.91
5517.2
5621.75
5742.55
5874.9
6013.22
6154.02
6289.87
6414.74
6524.93
6619.76
6701.29
6772.54
6836.83
6896.42
6952.46
7022.15
7154.49
2837.88
2986.13
3039.88
3143.11
3406.38
3869.18
4470.42
4987.95
5447.47
5798.33
6017.13
6159.45
6296.58
6426.1
6541.01
6639.01
6721.24
6789.7
6847.82
6898.24
6944.32
7011.06
7166.63
1341.84
1348.64
1350.21
1349.95
1346.36
1340.23
1351.59
1640.59
2148.1
2901.15
3863.34
4819.56
5512.93
6058.36
6437.31
6637.9
6737.08
6790.7
6832.53
6866.26
6895.6
6956.47
7147.84
1340.17
1347.32
1350.25
1350.52
1348.23
1344.39
1340.57
1334.45
1326.99
1318.74
1311.17
1400.48
1790.69
2216.62
2648.3
3064.1
3354.01
3493.51
3571.34
3666.5
3772.39
4211.02
5820.79
4006.84
3474.27
3217.39
2820.18
2563.37
2413.23
2306.2
2225.59
2168.98
2128.68
2104.91
2155.9
2242.83
2296.4
2331.38
2347.78
2357.02
2323.16
2252.75
4059.58
3475.37
3223.72
2997.85
2821.61
2661.13
2492.53
2357.2
2276.97
2236.2
2118.26
2102.35
2161.6
2240.79
2281.86
2304.01
2339.68
2288.23
2143.04
4118.19
2824.86
2589.4
2371.48
2092.43
1804.28
1546.2
1467.11
1475.71
1489.26
1627.84
1688.44
1629.78
1649.15
1715.03
1782.65
1801.33
1806.15
1841.36
4212.4
2271.08
2025.51
1338.06
1211.77
1137.36
1057.78
965.565
906.137
959.235
1266.33
1411.39
1596.91
1573.3
1568.81
1551.52
1436.84
1367.69
1393.74
3902.08
3031.78
1902.11
1283.89
1200.7
1140.86
1102.48
1072.78
1039.06
977.96
871.391
1008.1
1366.4
1719.16
1780.98
1772.71
1588.38
1215.38
975.284
1669.49
3097.23
1831.75
1257.34
1195.57
1143.4
1104.62
1074.14
1047.75
1029.11
987.412
927.848
891.993
871.511
881.78
917.47
896.829
832.277
816.42
1485.03
2573.39
1870
1233.31
1187.32
1138.35
1098.17
1066.48
1042.12
1022.61
1002.24
964.099
927.324
879.825
820.485
765.436
764.973
777.543
813.645
1514.99
1483.5
1573.52
1224.85
1178.17
1134.6
1095.31
1063.1
1037.46
1016.39
995.485
971.594
933.485
844.495
729.002
672.325
670.112
716.166
788.806
1334.97
1341.42
1344.49
1344.71
1342.98
1340.15
1337.25
1334.22
1331.35
1328.86
1327.12
1325.9
1323.9
1322.56
1322.75
1324.25
1326.83
1328.59
1326.07
1315.82
1293.55
1253.45
1373.24
1325.25
1330.84
1333.57
1333.75
1332.56
1330.77
1328.81
1327
1325.25
1323.66
1322.44
1322.02
1321.92
1321.92
1321.75
1321.36
1320.24
1316.83
1308.73
1293.98
1271.61
1239.54
1211.08
1313.55
1317.36
1319.24
1319.4
1319.1
1318.75
1318.58
1318.93
1319.31
1319.32
1319.36
1319.82
1320.66
1321.05
1320.58
1319.44
1317.93
1314.2
1305.44
1290.61
1271.89
1206.76
1064.4
1302.35
1302.78
1302.2
1301.72
1302.21
1304.33
1306.37
1309.48
1313.6
1315.9
1317.35
1319.54
1321.98
1323.16
1321.2
1315.71
1318.65
1317.12
1277.76
1175.6
1104.77
1043.72
800.26
1291.49
1286.28
1218.22
1183.78
1167.69
1164.3
1142.19
1151.72
1184.25
1197.47
1175.99
1179.8
1210.24
1225.09
1181.93
1074.72
1055.22
1042.58
961.108
849.412
816.544
790.385
806.264
1041.34
891.725
785.794
758.304
759.517
733.199
680.784
717.386
739.069
742.972
715.265
725.923
743.632
738.43
716.099
718.967
762.368
786.401
790.782
806.097
820.338
820.303
814.897
205.383
442.381
708.795
723.81
736.175
743.642
739.433
732.931
763.465
761.626
782.037
791.792
802.215
814.399
819.699
823.045
825.073
826.611
827.742
827.784
826.225
823.359
819.13
80.3517
429.454
516.246
607.691
700.807
747.686
766.35
775.742
784.123
792.14
798.924
804.93
810.369
815.385
819.972
823.757
826.579
828.589
829.822
830.068
829.016
826.609
822.981
58.727
25.242
5.57076
52.4333
182.249
344.1
508.594
626.886
701.89
755.525
788.289
806.744
814.682
819.127
823.211
826.923
829.695
831.587
832.656
832.82
831.852
829.686
826.161
34.8435
5.13983
5.21943
5.1235
4.89553
4.73571
4.75526
39.7661
109.339
192.694
288.038
392.703
502.23
599.601
663.339
713.996
751.803
775.569
790.043
799.159
801.078
794.919
776.709
17.6152
7.32712
5.1311
5.08034
5.03696
5.02315
5.01984
4.97854
4.8484
4.80832
4.80792
4.75864
4.71853
11.5533
43.9862
79.6349
118.037
151.135
176.27
193.754
194.876
170.472
119.556
6.09267
5.44635
5.0891
5.05155
5.02501
5.01346
5.01492
5.02209
5.02424
5.03949
5.05073
5.04482
5.01044
4.97651
4.9239
4.94486
5.01467
5.0978
5.1853
5.27936
5.38491
5.51226
5.72028
5.00732
5.03016
5.04278
5.02853
5.00634
4.99137
4.99627
4.99455
5.00912
5.0211
5.03837
5.04397
5.05171
5.09074
5.15195
5.24312
5.34462
5.45086
5.56107
5.67684
5.79879
5.92327
6.07059
5.01249
5.02474
5.02641
5.0151
5.00062
4.98977
4.98513
4.9911
4.99789
5.1113
5.1798
5.06467
5.07669
5.10347
5.16963
5.23607
5.32087
5.4175
5.52277
5.63467
5.75206
5.86866
5.99356
5.01626
5.01962
5.018
5.01196
5.00314
4.9963
4.99412
4.99605
5.01043
5.20266
5.2282
5.22424
5.08452
5.12761
5.17305
5.23509
5.31532
5.40661
5.50841
5.6174
5.73104
5.8431
5.96669
5.02064
5.01895
5.01668
5.01278
5.00824
5.00545
5.00622
5.01049
5.01741
5.09956
5.25436
5.2847
5.21977
5.15281
5.19919
5.26381
5.34028
5.42553
5.52049
5.62647
5.73745
5.84598
5.96667
5.02763
5.02323
5.02007
5.01757
5.01587
5.01616
5.01944
5.02587
5.03511
5.048
5.14018
5.31313
5.31753
5.18366
5.23403
5.29382
5.36542
5.44892
5.53655
5.63773
5.74456
5.84909
5.96591
5.03747
5.03181
5.02825
5.02668
5.0268
5.02909
5.03419
5.04234
5.05364
5.06883
5.0892
5.1194
5.18642
5.24987
5.25359
5.31124
5.38198
5.46128
5.54654
5.64377
5.74615
5.84664
5.95899
5.04998
5.04426
5.04078
5.03987
5.04111
5.04469
5.05099
5.06036
5.07315
5.08992
5.11175
5.13995
5.17558
5.2217
5.27723
5.32694
5.39149
5.46728
5.55326
5.64641
5.74395
5.84002
5.94763
5.06487
5.05988
5.05693
5.05655
5.05851
5.06285
5.06989
5.07999
5.09356
5.11118
5.13359
5.16171
5.19621
5.23752
5.2873
5.34226
5.40446
5.47595
5.55758
5.64619
5.73924
5.83082
5.93301
5.08199
5.07821
5.07606
5.07616
5.07855
5.08331
5.09071
5.10114
5.115
5.13282
5.15519
5.18277
5.21608
5.25542
5.30112
5.35393
5.41438
5.48342
5.56077
5.64479
5.73308
5.82012
5.917
5.10126
5.09886
5.0976
5.09814
5.10078
5.1057
5.1132
5.12367
5.13749
5.15512
5.17706
5.20381
5.23581
5.27344
5.31705
5.36724
5.42473
5.49023
5.56353
5.64294
5.72642
5.80892
5.90035
5.12255
5.12149
5.12104
5.12192
5.12469
5.12963
5.13708
5.14739
5.16096
5.17817
5.19945
5.22523
5.25587
5.29174
5.33324
5.38089
5.43534
5.49718
5.56628
5.64112
5.71975
5.79764
5.8838
5.14573
5.14569
5.14589
5.14702
5.14984
5.15474
5.16203
5.17208
5.18526
5.20193
5.22244
5.24715
5.2764
5.31052
5.34988
5.39496
5.44634
5.50455
5.56946
5.63969
5.71347
5.78673
5.8674
5.17039
5.1711
5.17177
5.17309
5.17591
5.18069
5.18776
5.1975
5.21025
5.22631
5.24599
5.26961
5.29746
5.32982
5.36706
5.40958
5.45791
5.5125
5.57325
5.63893
5.70793
5.77656
5.85196
5.1962
5.19738
5.19838
5.19986
5.20265
5.20728
5.21411
5.22351
5.23578
5.2512
5.27005
5.29258
5.31903
5.34967
5.3848
5.4248
5.47012
5.52116
5.57784
5.63906
5.70335
5.76746
5.83765
5.22287
5.22429
5.2255
5.22709
5.22986
5.23435
5.24095
5.24999
5.26177
5.27655
5.29456
5.31599
5.34107
5.37003
5.4031
5.44063
5.48299
5.53057
5.58328
5.64014
5.69983
5.75945
5.82468
5.25019
5.25168
5.253
5.25467
5.25743
5.2618
5.26817
5.27687
5.28818
5.30231
5.31947
5.33984
5.36359
5.39088
5.42193
5.45702
5.49652
5.54072
5.58957
5.64219
5.69736
5.75252
5.8128
5.27806
5.27952
5.28087
5.28259
5.28532
5.28958
5.29575
5.30414
5.31498
5.32848
5.3448
5.36409
5.38649
5.41214
5.44122
5.47396
5.51065
5.55157
5.59664
5.64511
5.69585
5.7465
5.80229
5.30643
5.30781
5.30915
5.31088
5.31358
5.31774
5.32372
5.33181
5.34221
5.35508
5.37057
5.38878
5.40983
5.43383
5.46092
5.49131
5.52523
5.56294
5.60437
5.6488
5.69513
5.74097
5.79325
5.3353
5.33657
5.33789
5.33961
5.34228
5.34635
5.35216
5.35996
5.36991
5.38216
5.3968
5.41393
5.43362
5.45595
5.48105
5.50907
5.54024
5.57476
5.61256
5.65302
5.69521
5.73724
5.7834
5.36469
5.36585
5.36712
5.36884
5.37148
5.37548
5.38114
5.38865
5.39815
5.40975
5.42353
5.43955
5.45786
5.4785
5.50158
5.52723
5.55562
5.58695
5.62115
5.65764
5.69562
5.73341
5.7744
5.39457
5.39563
5.39688
5.39861
5.40125
5.40519
5.41069
5.41791
5.42695
5.43789
5.45078
5.46566
5.48254
5.50146
5.52249
5.54572
5.57132
5.59945
5.63004
5.66258
5.69636
5.72985
5.76604
5.42499
5.42596
5.42719
5.42894
5.43159
5.43549
5.44083
5.44774
5.4563
5.46656
5.47853
5.49222
5.50763
5.52478
5.5437
5.56449
5.58727
5.61219
5.63919
5.66782
5.69743
5.72672
5.75824
5.456
5.45689
5.45809
5.45985
5.4625
5.46634
5.47152
5.47812
5.48619
5.49572
5.50672
5.51917
5.53305
5.54837
5.56514
5.58345
5.6034
5.62512
5.64855
5.6733
5.69884
5.72401
5.75106
5.48761
5.48841
5.48957
5.49132
5.49396
5.49774
5.50275
5.50901
5.51654
5.52529
5.53525
5.54639
5.55867
5.5721
5.58668
5.60248
5.6196
5.63814
5.65806
5.67903
5.70059
5.72177
5.74448
5.51983
5.52056
5.52167
5.52339
5.526
5.52968
5.53448
5.54036
5.54727
5.55516
5.56399
5.57373
5.58435
5.59582
5.60818
5.62147
5.63577
5.65119
5.66769
5.68499
5.70274
5.72011
5.73874
5.55272
5.55341
5.55446
5.5561
5.55864
5.56219
5.5667
5.57209
5.57828
5.58519
5.5928
5.60104
5.60992
5.6194
5.62951
5.6403
5.65184
5.66422
5.67741
5.69121
5.70531
5.71911
5.73391
5.58622
5.58698
5.58798
5.58955
5.592
5.59534
5.59947
5.60423
5.60954
5.61534
5.62158
5.62824
5.63529
5.64275
5.65061
5.65894
5.66778
5.67723
5.68725
5.69769
5.70836
5.71879
5.72998
5.62003
5.62095
5.62215
5.62385
5.62627
5.62935
5.63291
5.63684
5.64106
5.64554
5.65025
5.65518
5.66033
5.6657
5.67131
5.6772
5.68342
5.69002
5.69701
5.70426
5.71163
5.71883
5.72655
5.65384
5.65441
5.65686
5.65928
5.66169
5.66427
5.66697
5.66975
5.6726
5.67552
5.67851
5.68158
5.68474
5.68799
5.69135
5.69485
5.69852
5.70241
5.70651
5.71074
5.71503
5.71924
5.72372
5.69934
5.6948
5.69984
5.70217
5.70364
5.70489
5.70604
5.70714
5.70821
5.70926
5.71032
5.71138
5.71246
5.71356
5.71469
5.71586
5.71709
5.71838
5.71975
5.72116
5.72259
5.72402
5.72557
1253.44
1317.4
1302.58
1186.95
1345.51
1352.1
1304.05
916.414
1283.57
1131.26
863.54
711.325
779.222
791.604
768.62
778.615
803.693
798.112
793.102
786.496
808.573
803.899
799.388
793.809
813.743
809.644
805.536
800.82
818.625
815.044
811.305
807.009
820.93
817.205
813.899
811.616
757.561
733.958
679.221
660.192
79.454
57.4525
39.7549
11.5481
6.08103
6.41345
6.77361
6.97218
6.29554
6.50545
6.73985
6.92304
6.19155
6.40882
6.65885
6.85738
6.17663
6.39778
6.64483
6.83862
6.17576
6.39292
6.633
6.81963
6.1681
6.37823
6.61061
6.7906
6.15314
6.35496
6.57825
6.7517
6.13245
6.32478
6.5385
6.70505
6.10779
6.28988
6.49284
6.65236
6.0812
6.25242
6.44447
6.5963
6.05417
6.21441
6.39457
6.53829
6.02705
6.17614
6.34465
6.47987
6.00022
6.1383
6.2948
6.42166
5.97449
6.10174
6.24683
6.36518
5.95054
6.06749
6.20107
6.31097
5.92826
6.03535
6.15815
6.25964
5.90754
6.00529
6.11754
6.21095
5.88848
5.97731
6.07971
6.16519
5.87145
5.95159
6.04412
6.12181
5.85416
5.92696
6.01104
6.08146
5.83785
5.90328
5.9789
6.04239
5.82226
5.88045
5.94798
6.00468
5.80753
5.85873
5.91818
5.96824
5.79358
5.83794
5.88967
5.93324
5.78044
5.81815
5.86224
5.89957
5.76837
5.79962
5.8364
5.86763
5.75761
5.78269
5.81224
5.83752
5.74804
5.76721
5.78991
5.80944
5.73925
5.75275
5.76885
5.78296
5.73076
5.73874
5.74862
5.75782
5.72761
5.73015
5.7334
5.73684
1506.52
1677.55
1513.43
1192.5
1164.64
1123.99
1070.57
1009.19
958.229
927.895
901.73
865.038
805.935
732.264
673.123
662.13
660.376
668.178
764.276
1602.1
1871.48
1858.26
1177.13
1121.35
1052.07
874.805
774.147
746.232
724.289
703.253
685.392
669.947
660.119
655.326
653.038
652.554
654.807
703.732
920.396
1845.15
1758.27
1064.62
985.989
798.981
749.131
740.131
727.167
712.129
696.183
680.702
667.377
657.802
651.862
647.811
645.714
647.089
667.816
802.789
744.941
747.953
829.255
739.495
725.659
741.887
732.832
720.133
705.895
690.727
676.589
664.284
654.428
647.451
641.955
638.183
644.1
644.853
772.28
751.765
720.085
694.897
725.301
745.82
737.467
726.827
713.87
700.07
684.585
669.858
655.323
644.071
636.862
630.019
624.27
619.586
596.198
783.529
767.559
757.258
753.659
750.304
743.656
734.296
722.147
707.862
691.594
669.485
645.52
501.282
422.656
417.716
390.306
347.442
359.598
415.72
792.414
779.637
768.171
760.706
754.211
744.442
732.681
706.822
682.472
533.169
233.166
101.415
36.9641
23.3327
22.0437
20.9503
20.6336
19.2716
49.0559
799.817
789.345
777.73
769.475
757.769
693.634
604.06
323.371
33.2617
13.1199
8.46055
8.57169
8.72512
8.90161
9.11224
11.3538
13.5711
8.9513
8.71981
810.288
798.177
718.241
639.075
478.62
114.421
7.80723
7.85612
8.09615
8.09364
8.10171
8.17233
8.32658
9.08181
10.8447
10.9238
9.26999
8.52063
8.59787
635.435
469.172
101.113
7.15853
7.31726
7.76786
7.78885
7.79252
7.88513
8.06945
8.0668
8.15231
8.27955
11.1812
11.2594
9.98011
8.84756
8.44061
8.47273
6.47752
6.88345
7.40786
7.47862
7.48762
7.58484
7.70201
7.81449
8.52637
8.90453
8.46245
8.11993
8.38919
10.4967
9.42404
8.29903
8.33092
8.35028
8.34472
7.08091
7.18084
7.30989
7.403
7.46646
7.56226
7.65795
7.97671
8.8385
8.94446
8.50498
8.06313
8.25055
8.18821
8.16521
8.21632
8.24894
8.27086
8.27202
7.07323
7.15536
7.25797
7.35503
7.44649
7.53945
7.64326
7.80839
8.11794
8.29865
8.0207
7.99734
8.03579
8.0683
8.10972
8.1468
8.17294
8.18797
8.18732
7.04044
7.13239
7.23262
7.33251
7.42408
7.51474
7.59885
7.66471
7.73084
7.80367
7.8785
7.94081
7.98062
8.01516
8.04944
8.07816
8.09782
8.10607
8.10245
7.01556
7.10967
7.20606
7.30215
7.39226
7.47777
7.55709
7.62898
7.69588
7.76306
7.82779
7.88373
7.92356
7.95713
7.98623
8.00893
8.02217
8.02495
8.01951
6.98959
7.07933
7.17034
7.26374
7.35282
7.43679
7.51487
7.58624
7.65247
7.71525
7.77345
7.82303
7.86253
7.89392
7.9189
7.93634
7.94483
7.94413
7.93725
6.95411
7.04038
7.1277
7.21871
7.30639
7.389
7.46575
7.53619
7.60085
7.66046
7.71406
7.75964
7.79652
7.82531
7.84681
7.86055
7.86584
7.86293
7.85607
6.90977
6.99356
7.07826
7.16703
7.25294
7.33399
7.40921
7.47827
7.54125
7.59821
7.6485
7.69107
7.72546
7.75192
7.77081
7.78197
7.78519
7.78121
7.77464
6.85772
6.93977
7.02232
7.1089
7.19287
7.27218
7.34576
7.41322
7.47442
7.5292
7.57705
7.61735
7.64978
7.67441
7.69145
7.70094
7.703
7.69869
7.69277
6.80002
6.88029
6.96083
7.04519
7.1271
7.20454
7.27639
7.34219
7.40168
7.45461
7.50058
7.53916
7.5701
7.59341
7.60925
7.61778
7.61938
7.61536
7.61028
6.73819
6.81668
6.89512
6.97714
7.05683
7.13226
7.20229
7.2664
7.32427
7.3756
7.42006
7.45731
7.48716
7.50959
7.52474
7.5329
7.53457
7.53123
7.52716
6.67422
6.7505
6.82665
6.90612
6.98341
7.05667
7.12476
7.18712
7.2434
7.29328
7.33646
7.37267
7.40174
7.42363
7.43849
7.44665
7.44879
7.44641
7.44338
6.60917
6.68314
6.75677
6.83347
6.90815
6.97905
7.04504
7.10556
7.16022
7.20872
7.25075
7.28608
7.31455
7.33613
7.35096
7.35943
7.36224
7.36094
7.35903
6.54456
6.61581
6.68671
6.76042
6.83222
6.90053
6.96425
7.02279
7.07576
7.12284
7.16376
7.19828
7.22625
7.24765
7.26261
7.27152
7.27512
7.27494
7.27418
6.48111
6.54952
6.61742
6.68789
6.75659
6.82209
6.88333
6.93972
6.99087
7.03646
7.07621
7.10991
7.1374
7.15865
7.1738
7.18322
7.18762
7.18835
7.18903
6.41991
6.48502
6.54963
6.61662
6.682
6.74445
6.803
6.85705
6.90622
6.95019
6.98868
7.02148
7.04844
7.06952
7.08485
7.09476
7.09997
7.10177
7.10312
6.36114
6.4228
6.48383
6.54713
6.60896
6.66816
6.7238
6.77532
6.82233
6.86452
6.90161
6.9334
6.95973
6.98056
6.99599
7.00632
7.0122
7.01489
7.01672
6.30524
6.36312
6.42033
6.4797
6.53779
6.59353
6.64607
6.69487
6.73955
6.77979
6.81534
6.84598
6.87155
6.89198
6.90734
6.9179
6.9243
6.92772
6.92996
6.25195
6.30605
6.35919
6.41444
6.46863
6.52075
6.57002
6.61593
6.65811
6.69625
6.73008
6.75938
6.78399
6.80383
6.81893
6.82961
6.83643
6.84037
6.84298
6.20119
6.2517
6.30038
6.35136
6.40152
6.44989
6.49575
6.5386
6.5781
6.61394
6.64586
6.67362
6.69709
6.71617
6.73093
6.7416
6.74874
6.7531
6.75592
6.15332
6.1989
6.24354
6.29023
6.33629
6.38081
6.42313
6.46279
6.49945
6.53282
6.56266
6.58877
6.61098
6.62922
6.64352
6.65412
6.66145
6.66607
6.669
6.10723
6.14801
6.18847
6.23085
6.27276
6.31336
6.35206
6.38843
6.42215
6.45297
6.48066
6.50501
6.52587
6.54317
6.55694
6.56732
6.57472
6.57948
6.58241
6.06254
6.09887
6.13513
6.1732
6.21094
6.24759
6.28261
6.31564
6.34637
6.37457
6.40001
6.42252
6.44195
6.45821
6.47131
6.48139
6.48871
6.49347
6.49637
6.01942
6.05145
6.08355
6.11734
6.15091
6.1836
6.21493
6.24457
6.27225
6.29776
6.32089
6.34147
6.35936
6.37448
6.38682
6.39645
6.40354
6.40828
6.41106
5.97781
6.00576
6.03381
6.06336
6.09278
6.12151
6.14912
6.17533
6.19991
6.22266
6.2434
6.26196
6.27821
6.29208
6.30353
6.31262
6.3194
6.32401
6.32662
5.93793
5.96193
5.986
6.01135
6.03664
6.0614
6.08528
6.10803
6.12946
6.14939
6.16764
6.18409
6.1986
6.21109
6.22153
6.22993
6.23634
6.24077
6.24313
5.89984
5.92008
5.94024
5.96143
5.98258
6.00336
6.02348
6.04274
6.06096
6.07799
6.09368
6.10791
6.12055
6.13154
6.14083
6.14844
6.15435
6.1585
6.1607
5.86385
5.88038
5.89669
5.91369
5.93064
5.9474
5.96373
5.97945
5.99441
6.00847
6.02149
6.03338
6.04404
6.05339
6.06141
6.06807
6.07341
6.0773
6.07932
5.82995
5.84294
5.85542
5.86815
5.88072
5.8934
5.90591
5.91805
5.92969
5.94069
5.95095
5.96038
5.96892
5.97652
5.98314
5.9888
5.99349
5.99707
5.99908
5.79816
5.80776
5.81644
5.82476
5.83242
5.84102
5.84975
5.85833
5.8666
5.87447
5.88186
5.88873
5.89503
5.90075
5.90589
5.91046
5.9145
5.9179
5.92001
5.76874
5.77533
5.78031
5.78389
5.785
5.78987
5.79507
5.80015
5.80506
5.80975
5.81419
5.81838
5.82233
5.82606
5.8296
5.83304
5.83645
5.83978
5.84228
5.74167
5.74425
5.74539
5.74477
5.74446
5.74682
5.74891
5.75079
5.75254
5.7542
5.75575
5.75722
5.75861
5.75994
5.76123
5.76254
5.76393
5.7654
5.76667
)
;

boundaryField
{
    leftWall
    {
        type            fixedFluxPressure;
        gradient        uniform 0;
        value           nonuniform List<scalar> 
50
(
5291.37
5287.94
5283.53
5276.23
5213.01
2837.88
1341.84
1340.17
1334.97
1325.25
1313.55
1302.35
1291.49
1041.34
205.383
80.3517
58.727
34.8435
17.6152
6.09267
5.00732
5.01249
5.01626
5.02064
5.02763
5.03747
5.04998
5.06487
5.08199
5.10126
5.12255
5.14573
5.17039
5.1962
5.22287
5.25019
5.27806
5.30643
5.3353
5.36469
5.39457
5.42499
5.456
5.48761
5.51983
5.55272
5.58622
5.62003
5.65384
5.69934
)
;
    }
    rightWall
    {
        type            fixedFluxPressure;
        gradient        uniform 0;
        value           nonuniform List<scalar> 
50
(
2252.75
2143.04
1841.36
1393.74
975.284
816.42
813.645
788.806
764.276
703.732
667.816
644.853
596.198
415.72
49.0559
8.71981
8.59787
8.47273
8.34472
8.27202
8.18732
8.10245
8.01951
7.93725
7.85607
7.77464
7.69277
7.61028
7.52716
7.44338
7.35903
7.27418
7.18903
7.10312
7.01672
6.92996
6.84298
6.75592
6.669
6.58241
6.49637
6.41106
6.32662
6.24313
6.1607
6.07932
5.99908
5.92001
5.84228
5.76667
)
;
    }
    lowerWall
    {
        type            fixedFluxPressure;
        gradient        uniform 0;
        value           nonuniform List<scalar> 
62
(
5291.37
5311.47
5345.54
5396.11
5462.76
5547.08
5647.95
5761.92
5884.35
6009.51
6131.36
6244.87
6345.94
6433.11
6506.74
6570.44
6627.52
6683.21
6743.03
6811.65
6890
6970.99
7064.83
7064.83
7081.14
7103.57
7130.5
7154.49
7166.63
7147.84
5820.79
1253.44
1317.4
1302.58
1186.95
4006.84
4059.58
4118.19
4212.4
3902.08
1669.49
1485.03
1514.99
4006.84
3474.27
3217.39
2820.18
2563.37
2413.23
2306.2
2225.59
2168.98
2128.68
2104.91
2155.9
2242.83
2296.4
2331.38
2347.78
2357.02
2323.16
2252.75
)
;
    }
    atmosphere
    {
        type            prghTotalPressure;
        rho             rho;
        psi             none;
        gamma           1;
        p0              uniform 0;
        value           nonuniform List<scalar> 
46
(
5.72841
5.7279
5.72819
5.72833
5.72841
5.72846
5.7285
5.72852
5.72853
5.72854
5.72855
5.72856
5.72856
5.72857
5.72858
5.7286
5.72861
5.72863
5.72865
5.72867
5.7287
5.72873
5.72877
5.72885
5.72887
5.72888
5.72889
5.72891
5.72894
5.72897
5.72899
5.72902
5.72903
5.72904
5.72904
5.72904
5.72904
5.72904
5.72904
5.72904
5.72904
5.72904
5.72904
5.72904
5.72904
5.72904
)
;
        rho             rho;
    }
    defaultFaces
    {
        type            empty;
    }
}


// ************************************************************************* //
