/*--------------------------------*- C++ -*----------------------------------*\
  =========                 |
  \\      /  F ield         | OpenFOAM: The Open Source CFD Toolbox
   \\    /   O peration     | Website:  https://openfoam.org
    \\  /    A nd           | Version:  13
     \\/     M anipulation  |
\*---------------------------------------------------------------------------*/
FoamFile
{
    format      ascii;
    class       surfaceScalarField;
    location    "1.4";
    object      phi;
}
// * * * * * * * * * * * * * * * * * * * * * * * * * * * * * * * * * * * * * //

dimensions      [0 3 -1 0 0 0 0];

internalField   nonuniform List<scalar> 
4432
(
-8.49757e-07
8.49761e-07
-4.41269e-07
-4.08484e-07
6.29225e-07
-1.07049e-06
1.89858e-06
-1.26936e-06
3.29405e-06
-1.39547e-06
4.81523e-06
-1.52118e-06
6.46241e-06
-1.64719e-06
8.21727e-06
-1.75486e-06
1.00358e-05
-1.81849e-06
1.18387e-05
-1.80296e-06
1.35144e-05
-1.67568e-06
1.49382e-05
-1.42377e-06
1.5987e-05
-1.04887e-06
1.65588e-05
-5.71768e-07
1.65628e-05
-4.02867e-09
1.59426e-05
6.20249e-07
1.46449e-05
1.29764e-06
1.26454e-05
1.9995e-06
9.94776e-06
2.69766e-06
6.61394e-06
3.33382e-06
2.9324e-06
3.68155e-06
1.55416e-07
2.77699e-06
1.55425e-07
1.12859e-07
7.3691e-07
1.00848e-06
-1.3041e-06
1.98907e-06
-2.05108e-06
3.03162e-06
-2.3119e-06
4.17527e-06
-2.53911e-06
5.4607e-06
-2.8066e-06
6.89571e-06
-3.08221e-06
8.46347e-06
-3.32261e-06
1.01272e-05
-3.48219e-06
1.18231e-05
-3.49887e-06
1.34581e-05
-3.31067e-06
1.49173e-05
-2.88306e-06
1.60701e-05
-2.20165e-06
1.67954e-05
-1.29705e-06
1.69925e-05
-2.01171e-07
1.65658e-05
1.04694e-06
1.54617e-05
2.40179e-06
1.36574e-05
3.80381e-06
1.11787e-05
5.17632e-06
8.12003e-06
6.39247e-06
4.72695e-06
7.07462e-06
1.49694e-06
6.00699e-06
1.65234e-06
1.00144e-06
-2.64523e-07
2.06605e-06
-2.36871e-06
2.96328e-06
-2.94831e-06
3.85403e-06
-3.20265e-06
4.83439e-06
-3.51947e-06
5.95731e-06
-3.92953e-06
7.23447e-06
-4.35936e-06
8.64751e-06
-4.73566e-06
1.01652e-05
-4.99984e-06
1.1736e-05
-5.06967e-06
1.32835e-05
-4.85821e-06
1.47085e-05
-4.30801e-06
1.58841e-05
-3.37726e-06
1.6687e-05
-2.09996e-06
1.70036e-05
-5.17811e-07
1.67356e-05
1.31492e-06
1.58166e-05
3.32083e-06
1.42251e-05
5.39534e-06
1.19975e-05
7.40389e-06
9.23317e-06
9.15679e-06
6.10412e-06
1.02037e-05
2.78706e-06
9.32405e-06
4.43941e-06
1.81129e-06
-2.07581e-06
2.93388e-06
-3.49129e-06
3.76961e-06
-3.78404e-06
4.56303e-06
-3.99607e-06
5.43634e-06
-4.39278e-06
6.44753e-06
-4.94072e-06
7.60302e-06
-5.51485e-06
8.88604e-06
-6.01868e-06
1.02686e-05
-6.38243e-06
1.1709e-05
-6.51004e-06
1.31479e-05
-6.29712e-06
1.45098e-05
-5.66989e-06
1.56717e-05
-4.53919e-06
1.65124e-05
-2.94067e-06
1.69176e-05
-9.22958e-07
1.67842e-05
1.44833e-06
1.60392e-05
4.06582e-06
1.4658e-05
6.77655e-06
1.26785e-05
9.3833e-06
1.01895e-05
1.16458e-05
7.2792e-06
1.31139e-05
3.87133e-06
1.27319e-05
8.31071e-06
2.40981e-06
-4.48563e-06
3.57295e-06
-4.65443e-06
4.41447e-06
-4.62557e-06
5.18587e-06
-4.76748e-06
6.00943e-06
-5.21634e-06
6.95103e-06
-5.88232e-06
8.0204e-06
-6.58423e-06
9.19719e-06
-7.19547e-06
1.04562e-05
-7.64147e-06
1.17676e-05
-7.82145e-06
1.30878e-05
-7.61729e-06
1.43581e-05
-6.94022e-06
1.54715e-05
-5.6526e-06
1.63123e-05
-3.78144e-06
1.67713e-05
-1.38194e-06
1.6747e-05
1.47267e-06
1.61624e-05
4.65035e-06
1.49858e-05
7.95313e-06
1.32489e-05
1.11203e-05
1.10202e-05
1.38745e-05
8.30518e-06
1.5829e-05
4.82081e-06
1.62163e-05
1.31315e-05
2.76809e-06
-7.25371e-06
3.99077e-06
-5.87712e-06
4.96409e-06
-5.59889e-06
5.81993e-06
-5.62332e-06
6.68239e-06
-6.07881e-06
7.60353e-06
-6.80347e-06
8.57776e-06
-7.55846e-06
9.64463e-06
-8.26235e-06
1.07746e-05
-8.77144e-06
1.19322e-05
-8.97902e-06
1.31048e-05
-8.78999e-06
1.426e-05
-8.09539e-06
1.52933e-05
-6.68589e-06
1.60918e-05
-4.57992e-06
1.65629e-05
-1.8531e-06
1.66153e-05
1.42025e-06
1.61709e-05
5.09482e-06
1.5189e-05
8.93497e-06
1.36906e-05
1.26187e-05
1.17208e-05
1.58443e-05
9.21171e-06
1.83381e-05
5.70515e-06
1.97228e-05
1.88367e-05
2.77239e-06
-1.00261e-05
4.47192e-06
-7.57664e-06
5.8252e-06
-6.95218e-06
6.89707e-06
-6.69519e-06
7.76205e-06
-6.94379e-06
8.52063e-06
-7.56206e-06
9.28412e-06
-8.32195e-06
1.02316e-05
-9.2098e-06
1.12439e-05
-9.78374e-06
1.22883e-05
-1.00235e-05
1.33057e-05
-9.80746e-06
1.42689e-05
-9.0586e-06
1.51471e-05
-7.56402e-06
1.5834e-05
-5.26687e-06
1.62459e-05
-2.26505e-06
1.63226e-05
1.34359e-06
1.5989e-05
5.42842e-06
1.5192e-05
9.73201e-06
1.39358e-05
1.38749e-05
1.22449e-05
1.75352e-05
9.99089e-06
2.05921e-05
6.56197e-06
2.31517e-05
2.53986e-05
3.07078e-06
-1.30969e-05
5.76985e-06
-1.02757e-05
7.79831e-06
-8.98064e-06
9.31839e-06
-8.21527e-06
1.0423e-05
-8.04836e-06
1.12083e-05
-8.34737e-06
1.17595e-05
-8.87315e-06
1.21409e-05
-9.5912e-06
1.25722e-05
-1.02151e-05
1.30827e-05
-1.0534e-05
1.36529e-05
-1.03777e-05
1.43259e-05
-9.73159e-06
1.50359e-05
-8.27403e-06
1.5569e-05
-5.8e-06
1.58882e-05
-2.58424e-06
1.59625e-05
1.26933e-06
1.57327e-05
5.6582e-06
1.5152e-05
1.03127e-05
1.42113e-05
1.48156e-05
1.2922e-05
1.88245e-05
1.11424e-05
2.23717e-05
8.10911e-06
2.61851e-05
3.35078e-05
-9.6637e-06
9.6637e-06
-1.17317e-05
2.06795e-06
-9.65118e-06
-2.08048e-06
-9.93472e-06
2.83536e-07
-1.11958e-05
1.26112e-06
-1.13963e-05
2.00499e-07
-1.1135e-05
-2.61378e-07
-1.0641e-05
-4.93998e-07
-9.99567e-06
-6.45295e-07
-9.50512e-06
-4.90549e-07
-9.94812e-06
4.42996e-07
-1.06039e-05
6.55785e-07
-9.72842e-06
-8.75483e-07
-8.52486e-06
-1.20356e-06
-7.76542e-06
-7.59449e-07
-6.99527e-06
-7.70143e-07
-4.41927e-06
-2.576e-06
-1.77684e-06
-2.64243e-06
-1.77684e-06
-7.30701e-06
1.69707e-05
-7.91484e-06
2.67578e-06
-8.08405e-06
-1.91126e-06
-9.70536e-06
1.90485e-06
-1.05477e-05
2.10347e-06
-1.06894e-05
3.42189e-07
-1.05774e-05
-3.73384e-07
-1.03168e-05
-7.54635e-07
-1.00133e-05
-9.48724e-07
-1.00255e-05
-4.78401e-07
-9.83093e-06
2.48449e-07
-9.40693e-06
2.31779e-07
-8.62068e-06
-1.66173e-06
-7.36284e-06
-2.4614e-06
-6.08289e-06
-2.0394e-06
-4.34983e-06
-2.5032e-06
-2.17858e-06
-4.74725e-06
-7.02859e-07
-4.11815e-06
-2.4797e-06
-4.89938e-06
2.18701e-05
-2.38244e-06
1.58846e-07
-3.05797e-06
-1.23573e-06
-6.2045e-06
5.05137e-06
-7.65724e-06
3.55621e-06
-8.06148e-06
7.46429e-07
-8.2278e-06
-2.07062e-07
-8.35674e-06
-6.25706e-07
-8.55515e-06
-7.50309e-07
-9.07333e-06
3.97684e-08
-8.67699e-06
-1.47886e-07
-8.15741e-06
-2.87801e-07
-7.01011e-06
-2.80904e-06
-5.60311e-06
-3.8684e-06
-4.03873e-06
-3.60378e-06
-1.9214e-06
-4.62053e-06
-8.33808e-08
-6.58527e-06
6.19558e-07
-4.82109e-06
-1.86015e-06
-5.02375e-06
2.68938e-05
2.85415e-06
-7.71906e-06
4.10434e-06
-2.48592e-06
6.02882e-08
9.09543e-06
-2.22266e-06
5.83916e-06
-2.88114e-06
1.40491e-06
-2.88528e-06
-2.02925e-07
-3.25663e-06
-2.54355e-07
-4.31712e-06
3.10181e-07
-5.44435e-06
1.16699e-06
-5.89978e-06
3.07546e-07
-5.75267e-06
-4.34907e-07
-4.66653e-06
-3.89518e-06
-3.25785e-06
-5.27708e-06
-1.85334e-06
-5.00829e-06
-5.70266e-09
-6.46817e-06
1.83149e-06
-8.42246e-06
2.61546e-06
-5.60506e-06
7.55322e-07
-5.50866e-06
3.24025e-05
4.24365e-06
-1.74714e-05
9.12442e-06
-7.36668e-06
8.04626e-06
1.01736e-05
5.96602e-06
7.91939e-06
4.66002e-06
2.7109e-06
4.18759e-06
2.69502e-07
3.9466e-06
-1.33657e-08
3.27793e-06
9.7884e-07
1.79597e-06
2.64895e-06
-5.63759e-07
2.66728e-06
-1.61999e-06
6.21325e-07
-1.68773e-06
-3.82744e-06
-1.11747e-06
-5.84734e-06
-3.23134e-07
-5.80264e-06
7.07576e-07
-7.49888e-06
1.66924e-06
-9.38413e-06
2.26243e-06
-6.19825e-06
3.01774e-06
-2.2814e-06
3.46839e-05
5.06901e-06
-2.48218e-05
1.015e-05
-1.24477e-05
1.17267e-05
8.5969e-06
1.10254e-05
8.62074e-06
9.85835e-06
3.8779e-06
8.96649e-06
1.16136e-06
8.38156e-06
5.71567e-07
7.90868e-06
1.45172e-06
7.41464e-06
3.14298e-06
6.30424e-06
3.77768e-06
4.62275e-06
2.30282e-06
2.85003e-06
-2.05472e-06
1.88631e-06
-4.88362e-06
1.71181e-06
-5.62813e-06
1.43801e-06
-7.22508e-06
2.89729e-07
-8.23585e-06
-2.11777e-06
-3.79075e-06
8.99996e-07
4.05168e-06
3.06322e-05
6.88577e-06
-2.76559e-05
1.05263e-05
-1.60882e-05
1.36872e-05
5.43596e-06
1.44125e-05
7.89544e-06
1.38029e-05
4.48745e-06
1.28888e-05
2.07548e-06
1.21155e-05
1.34485e-06
1.15882e-05
1.97904e-06
1.12736e-05
3.45756e-06
1.08533e-05
4.19799e-06
1.01012e-05
3.05492e-06
8.67018e-06
-6.23675e-07
7.0371e-06
-3.25054e-06
5.31286e-06
-3.90389e-06
3.16376e-06
-5.07597e-06
1.62276e-07
-5.23437e-06
-3.1416e-06
-4.86864e-07
-2.2416e-06
9.64181e-06
2.09904e-05
8.94423e-06
-2.69583e-05
1.16386e-05
-1.87826e-05
1.53805e-05
1.69407e-06
1.69787e-05
6.29729e-06
1.69301e-05
4.53602e-06
1.61626e-05
2.84302e-06
1.53383e-05
2.16916e-06
1.47598e-05
2.55749e-06
1.44893e-05
3.72803e-06
1.42688e-05
4.41855e-06
1.38211e-05
3.50266e-06
1.2599e-05
5.98423e-07
1.07919e-05
-1.44352e-06
8.49813e-06
-1.61008e-06
5.54762e-06
-2.12545e-06
1.71572e-06
-1.40246e-06
-1.5327e-06
2.76156e-06
-3.7743e-06
7.78016e-06
-2.0877e-05
1.48509e-05
-1.73465e-05
2.03962e-05
-1.45258e-05
2.45658e-05
-1.23849e-05
2.75264e-05
-1.10089e-05
2.95097e-05
-1.03306e-05
3.08662e-05
-1.02297e-05
3.18195e-05
-1.05445e-05
3.26044e-05
-1.09999e-05
3.32958e-05
-1.12254e-05
3.38673e-05
-1.09492e-05
3.41606e-05
-1.00249e-05
3.42481e-05
-8.36148e-06
3.43179e-05
-5.86983e-06
3.43314e-05
-2.59777e-06
3.42494e-05
1.35129e-06
3.41561e-05
5.75154e-06
3.40489e-05
1.04199e-05
3.3847e-05
1.50175e-05
3.36147e-05
1.90568e-05
3.39346e-05
2.20518e-05
3.65456e-05
2.35741e-05
2.1834e-05
4.82194e-05
7.92457e-06
-2.88016e-05
1.47892e-05
-2.42111e-05
2.02792e-05
-2.00158e-05
2.4548e-05
-1.66537e-05
2.77647e-05
-1.42256e-05
3.01037e-05
-1.26696e-05
3.17631e-05
-1.18891e-05
3.30243e-05
-1.18057e-05
3.40496e-05
-1.20252e-05
3.48987e-05
-1.20745e-05
3.56205e-05
-1.16709e-05
3.63737e-05
-1.07781e-05
3.72353e-05
-9.22314e-06
3.82456e-05
-6.88005e-06
3.93483e-05
-3.70049e-06
4.05985e-05
1.01128e-07
4.21676e-05
4.18238e-06
4.41239e-05
8.46366e-06
4.63126e-05
1.28288e-05
4.86254e-05
1.6744e-05
5.11341e-05
1.95431e-05
5.32445e-05
2.14636e-05
2.19772e-05
5.31013e-05
6.18595e-06
-3.49876e-05
1.16472e-05
-2.96723e-05
1.61724e-05
-2.4541e-05
1.99078e-05
-2.03892e-05
2.29825e-05
-1.73003e-05
2.54373e-05
-1.51245e-05
2.73682e-05
-1.38199e-05
2.90345e-05
-1.34721e-05
3.0573e-05
-1.35636e-05
3.19654e-05
-1.34669e-05
3.32575e-05
-1.2963e-05
3.4612e-05
-1.21326e-05
3.62049e-05
-1.08161e-05
3.79966e-05
-8.67168e-06
3.98775e-05
-5.58139e-06
4.1891e-05
-1.91242e-06
4.4305e-05
1.76842e-06
4.71714e-05
5.59728e-06
5.01586e-05
9.84155e-06
5.29402e-05
1.39623e-05
5.558e-05
1.69033e-05
5.76843e-05
1.93593e-05
2.19719e-05
5.76895e-05
2.52137e-06
-3.75089e-05
5.7377e-06
-3.28886e-05
8.86598e-06
-2.76693e-05
1.19247e-05
-2.34479e-05
1.48717e-05
-2.02472e-05
1.75369e-05
-1.77898e-05
1.97904e-05
-1.60733e-05
2.19534e-05
-1.56351e-05
2.41221e-05
-1.57323e-05
2.6162e-05
-1.55069e-05
2.80069e-05
-1.48078e-05
2.99164e-05
-1.40421e-05
3.2059e-05
-1.29587e-05
3.43879e-05
-1.10006e-05
3.67467e-05
-7.94013e-06
3.90761e-05
-4.24185e-06
4.17773e-05
-9.32739e-07
4.48795e-05
2.49506e-06
4.80582e-05
6.66287e-06
5.10903e-05
1.09302e-05
5.40379e-05
1.39558e-05
5.68817e-05
1.65155e-05
1.91098e-05
5.97438e-05
-3.65617e-06
-3.38528e-05
-3.68962e-06
-3.28552e-05
-1.7291e-06
-2.96298e-05
1.09937e-06
-2.62764e-05
4.29495e-06
-2.34428e-05
7.46335e-06
-2.09582e-05
1.03013e-05
-1.89112e-05
1.31704e-05
-1.85043e-05
1.59513e-05
-1.85132e-05
1.85505e-05
-1.81061e-05
2.0933e-05
-1.71903e-05
2.33098e-05
-1.6419e-05
2.57336e-05
-1.53825e-05
2.81698e-05
-1.34368e-05
3.06283e-05
-1.03986e-05
3.32299e-05
-6.84336e-06
3.61752e-05
-3.87804e-06
3.93088e-05
-6.38587e-07
4.27104e-05
3.26125e-06
4.65222e-05
7.11838e-06
5.04181e-05
1.00599e-05
5.44215e-05
1.25121e-05
1.41052e-05
5.94261e-05
-1.4581e-05
-1.92717e-05
-1.83378e-05
-2.90985e-05
-1.63877e-05
-3.15799e-05
-1.34598e-05
-2.92042e-05
-9.93976e-06
-2.69629e-05
-6.11687e-06
-2.47811e-05
-2.18305e-06
-2.28451e-05
1.56843e-06
-2.22558e-05
5.00328e-06
-2.19481e-05
8.12274e-06
-2.12255e-05
1.12407e-05
-2.03083e-05
1.4236e-05
-1.94143e-05
1.7015e-05
-1.81615e-05
1.96968e-05
-1.61186e-05
2.25905e-05
-1.32924e-05
2.59846e-05
-1.02374e-05
2.94492e-05
-7.34263e-06
3.30217e-05
-4.21115e-06
3.70572e-05
-7.74244e-07
4.16764e-05
2.49921e-06
4.65626e-05
5.1737e-06
5.18521e-05
7.22262e-06
8.2634e-06
5.76939e-05
-3.31268e-05
1.38551e-05
-3.35459e-05
-2.86793e-05
-2.95464e-05
-3.55795e-05
-2.63843e-05
-3.23663e-05
-2.29731e-05
-3.03741e-05
-1.90745e-05
-2.86797e-05
-1.46097e-05
-2.73099e-05
-1.04353e-05
-2.64301e-05
-6.53282e-06
-2.58506e-05
-2.80151e-06
-2.49568e-05
9.69248e-07
-2.40791e-05
4.57977e-06
-2.30248e-05
8.02247e-06
-2.16042e-05
1.15024e-05
-1.95985e-05
1.52454e-05
-1.70354e-05
1.92641e-05
-1.42561e-05
2.33716e-05
-1.14501e-05
2.76835e-05
-8.52297e-06
3.24111e-05
-5.50191e-06
3.75749e-05
-2.66459e-06
4.30651e-05
-3.16456e-07
4.89533e-05
1.3344e-06
1.96337e-06
5.52534e-05
-3.58309e-05
4.96861e-05
-3.34687e-05
-3.10417e-05
-3.36727e-05
-3.53755e-05
-3.24773e-05
-3.35618e-05
-2.96582e-05
-3.31932e-05
-2.59896e-05
-3.23483e-05
-2.18097e-05
-3.14898e-05
-1.76386e-05
-3.06013e-05
-1.37514e-05
-2.97378e-05
-9.8717e-06
-2.88365e-05
-6.03337e-06
-2.79174e-05
-2.18638e-06
-2.68718e-05
1.68562e-06
-2.54762e-05
5.63234e-06
-2.35452e-05
9.77036e-06
-2.11734e-05
1.41321e-05
-1.86178e-05
1.86809e-05
-1.59989e-05
2.34729e-05
-1.3315e-05
2.86207e-05
-1.06498e-05
3.41643e-05
-8.20809e-06
4.00576e-05
-6.2098e-06
4.62535e-05
-4.86147e-06
-4.46228e-06
5.26791e-05
-2.84697e-06
5.25331e-05
-1.76748e-05
-1.62138e-05
-3.6517e-05
-1.65338e-05
-3.61401e-05
-3.39389e-05
-3.22521e-05
-3.70813e-05
-2.83326e-05
-3.62679e-05
-2.45368e-05
-3.52855e-05
-2.09367e-05
-3.42015e-05
-1.73475e-05
-3.33271e-05
-1.37207e-05
-3.24635e-05
-1.00572e-05
-3.15809e-05
-6.30795e-06
-3.0621e-05
-2.34764e-06
-2.94366e-05
1.80725e-06
-2.77001e-05
6.11515e-06
-2.54813e-05
1.06244e-05
-2.31271e-05
1.53881e-05
-2.07626e-05
2.04381e-05
-1.83649e-05
2.58276e-05
-1.60394e-05
3.15888e-05
-1.39693e-05
3.76866e-05
-1.23076e-05
4.405e-05
-1.12248e-05
-1.09836e-05
5.05713e-05
1.90009e-05
3.35323e-05
-3.96951e-06
6.75673e-06
-1.83321e-05
-2.17109e-06
-2.90488e-05
-2.32224e-05
-3.17036e-05
-3.44267e-05
-2.89054e-05
-3.90662e-05
-2.61109e-05
-3.80805e-05
-2.26228e-05
-3.76898e-05
-1.91063e-05
-3.68437e-05
-1.54956e-05
-3.60743e-05
-1.17134e-05
-3.53632e-05
-7.89924e-06
-3.44352e-05
-4.01899e-06
-3.33168e-05
-1.22928e-07
-3.15962e-05
4.04745e-06
-2.96518e-05
8.52658e-06
-2.76063e-05
1.32988e-05
-2.55349e-05
1.84137e-05
-2.34798e-05
2.38886e-05
-2.15144e-05
2.9722e-05
-1.98026e-05
3.58732e-05
-1.84588e-05
4.22385e-05
-1.75902e-05
-1.74359e-05
4.86908e-05
1.7e-05
1.65325e-05
1.48957e-05
8.86108e-06
9.69608e-06
3.02918e-06
2.7761e-06
-1.63022e-05
-3.35947e-06
-2.8291e-05
-1.01209e-05
-3.23048e-05
-1.617e-05
-3.20313e-05
-2.03625e-05
-3.34976e-05
-1.99608e-05
-3.72457e-05
-1.63514e-05
-3.96838e-05
-1.22787e-05
-3.9436e-05
-8.87913e-06
-3.78349e-05
-5.4055e-06
-3.6791e-05
-1.86538e-06
-3.51367e-05
2.31465e-06
-3.38322e-05
6.61327e-06
-3.19051e-05
1.14591e-05
-3.03808e-05
1.67304e-05
-2.87513e-05
2.23729e-05
-2.71569e-05
2.83539e-05
-2.57837e-05
3.4618e-05
-2.4723e-05
4.11467e-05
-2.4119e-05
-2.41264e-05
4.78372e-05
5.17404e-06
1.13584e-05
1.13422e-05
2.69304e-06
1.5194e-05
-8.22475e-07
1.17951e-05
-1.2903e-05
6.66279e-06
-2.31585e-05
9.91841e-07
-2.66336e-05
-3.24074e-06
-2.77983e-05
-4.61802e-06
-3.21201e-05
-3.80217e-06
-3.80614e-05
-1.45128e-06
-4.20346e-05
1.04739e-06
-4.19346e-05
2.21941e-06
-3.90069e-05
8.21356e-07
-3.5393e-05
-4.57063e-07
-3.38587e-05
-1.01612e-07
-3.41879e-05
3.73228e-06
-3.57392e-05
8.77662e-06
-3.54254e-05
1.43606e-05
-3.43354e-05
2.04137e-05
-3.32101e-05
2.68777e-05
-3.22478e-05
3.36566e-05
-3.1502e-05
4.02835e-05
-3.0746e-05
-2.88762e-05
4.50332e-05
5.60076e-06
5.75756e-06
7.9861e-06
3.07688e-07
1.0885e-05
-3.72137e-06
9.58074e-06
-1.15987e-05
5.54721e-06
-1.91249e-05
2.42409e-06
-2.35104e-05
1.10972e-06
-2.64837e-05
-1.35088e-08
-3.09964e-05
-9.28298e-07
-3.71463e-05
-2.27228e-06
-4.06904e-05
-3.27643e-06
-4.09303e-05
-4.328e-06
-3.79551e-05
-6.55867e-06
-3.31617e-05
-7.89938e-06
-3.25177e-05
-8.0647e-06
-3.40223e-05
-6.65209e-06
-3.71517e-05
-4.40884e-06
-3.76686e-05
-1.75247e-06
-3.69918e-05
1.1255e-06
-3.60881e-05
4.0734e-06
-3.51957e-05
6.80854e-06
-3.42372e-05
8.77176e-06
-3.27092e-05
-2.93883e-05
9.28375e-06
4.53876e-06
1.21862e-06
5.69555e-06
-8.49177e-07
6.50036e-06
-4.52622e-06
5.29644e-06
-1.03947e-05
2.53603e-06
-1.63645e-05
2.94394e-08
-2.10037e-05
-1.4712e-06
-2.4983e-05
-2.88099e-06
-2.95866e-05
-5.7508e-06
-3.42764e-05
-8.98899e-06
-3.74521e-05
-1.18473e-05
-3.80719e-05
-1.34278e-05
-3.63745e-05
-1.29746e-05
-3.36148e-05
-1.31927e-05
-3.22991e-05
-1.25185e-05
-3.46961e-05
-1.28973e-05
-3.67727e-05
-1.3258e-05
-3.73076e-05
-1.33034e-05
-3.69463e-05
-1.31758e-05
-3.62155e-05
-1.31093e-05
-3.52621e-05
-1.34032e-05
-3.39433e-05
-1.42216e-05
-3.18908e-05
-2.85166e-05
-1.50935e-05
1.71333e-06
-4.94709e-07
2.14555e-06
-1.28144e-06
2.0641e-06
-4.44481e-06
8.91673e-07
-9.22232e-06
-1.16078e-06
-1.4312e-05
-3.29831e-06
-1.88662e-05
-5.27093e-06
-2.30104e-05
-7.68168e-06
-2.71758e-05
-1.09018e-05
-3.10563e-05
-1.42976e-05
-3.40564e-05
-1.7135e-05
-3.52344e-05
-1.87866e-05
-3.47229e-05
-1.90849e-05
-3.33164e-05
-1.84728e-05
-3.29112e-05
-1.90738e-05
-3.4095e-05
-2.05883e-05
-3.52581e-05
-2.22713e-05
-3.56245e-05
-2.38691e-05
-3.53484e-05
-2.5438e-05
-3.46466e-05
-2.71408e-05
-3.35593e-05
-2.91352e-05
-3.19488e-05
-3.14727e-05
-2.95534e-05
-2.62075e-05
-3.3782e-05
-6.89799e-07
1.9491e-07
-1.16308e-06
-8.0823e-07
-1.82006e-06
-3.78786e-06
-3.07212e-06
-7.97028e-06
-4.88489e-06
-1.24992e-05
-6.93646e-06
-1.68146e-05
-9.11566e-06
-2.08312e-05
-1.16797e-05
-2.46117e-05
-1.47089e-05
-2.80272e-05
-1.79675e-05
-3.07978e-05
-2.0729e-05
-3.2473e-05
-2.25864e-05
-3.28655e-05
-2.35315e-05
-3.23714e-05
-2.44096e-05
-3.2033e-05
-2.58993e-05
-3.26053e-05
-2.79893e-05
-3.31682e-05
-3.0315e-05
-3.32989e-05
-3.27084e-05
-3.2955e-05
-3.51742e-05
-3.21809e-05
-3.77694e-05
-3.09642e-05
-4.05395e-05
-2.91788e-05
-4.34335e-05
-2.66595e-05
-2.34619e-05
-4.61792e-05
-2.31905e-06
2.51397e-06
-3.60359e-06
4.76287e-07
-4.73024e-06
-2.66123e-06
-6.131e-06
-6.56952e-06
-7.88427e-06
-1.0746e-05
-9.88934e-06
-1.48096e-05
-1.21091e-05
-1.86114e-05
-1.46102e-05
-2.21106e-05
-1.74296e-05
-2.52079e-05
-2.0457e-05
-2.77705e-05
-2.33304e-05
-2.95996e-05
-2.56729e-05
-3.0523e-05
-2.74521e-05
-3.05921e-05
-2.90993e-05
-3.03859e-05
-3.1148e-05
-3.05567e-05
-3.35687e-05
-3.07475e-05
-3.62102e-05
-3.06574e-05
-3.89632e-05
-3.02021e-05
-4.18034e-05
-2.93407e-05
-4.47274e-05
-2.80403e-05
-4.77053e-05
-2.6201e-05
-5.06412e-05
-2.37237e-05
-2.07407e-05
-5.33627e-05
-3.10971e-06
5.62352e-06
-4.96629e-06
2.33281e-06
-6.46368e-06
-1.16386e-06
-8.02474e-06
-5.00847e-06
-9.79838e-06
-8.97233e-06
-1.17903e-05
-1.28176e-05
-1.3994e-05
-1.64078e-05
-1.64326e-05
-1.9672e-05
-1.91031e-05
-2.25374e-05
-2.19462e-05
-2.49273e-05
-2.4827e-05
-2.67188e-05
-2.75472e-05
-2.78028e-05
-2.99313e-05
-2.82081e-05
-3.20707e-05
-2.82465e-05
-3.43944e-05
-2.82331e-05
-3.69583e-05
-2.81836e-05
-3.96837e-05
-2.7932e-05
-4.25112e-05
-2.73746e-05
-4.53966e-05
-2.64554e-05
-4.83052e-05
-2.51317e-05
-5.1178e-05
-2.33282e-05
-5.39148e-05
-2.09871e-05
-1.82576e-05
-5.63981e-05
-3.17563e-06
8.79922e-06
-5.29848e-06
4.45566e-06
-7.03482e-06
5.72464e-07
-8.7222e-06
-3.3211e-06
-1.05335e-05
-7.16099e-06
-1.25227e-05
-1.08285e-05
-1.47055e-05
-1.4225e-05
-1.70912e-05
-1.72862e-05
-1.96714e-05
-1.99572e-05
-2.24169e-05
-2.21819e-05
-2.52431e-05
-2.38926e-05
-2.80262e-05
-2.50198e-05
-3.06365e-05
-2.55978e-05
-3.31014e-05
-2.57815e-05
-3.55573e-05
-2.57772e-05
-3.81238e-05
-2.56171e-05
-4.07915e-05
-2.52644e-05
-4.35175e-05
-2.46486e-05
-4.62565e-05
-2.37165e-05
-4.89651e-05
-2.24231e-05
-5.15759e-05
-2.07175e-05
-5.39974e-05
-1.85657e-05
-1.60939e-05
-5.61612e-05
-2.75489e-06
1.15539e-05
-4.81671e-06
6.51741e-06
-6.59762e-06
2.35334e-06
-8.32983e-06
-1.5889e-06
-1.01471e-05
-5.34373e-06
-1.21152e-05
-8.86043e-06
-1.42575e-05
-1.20826e-05
-1.65798e-05
-1.4964e-05
-1.90717e-05
-1.74653e-05
-2.17049e-05
-1.95487e-05
-2.44267e-05
-2.11709e-05
-2.71426e-05
-2.23038e-05
-2.97731e-05
-2.29673e-05
-3.22945e-05
-2.32601e-05
-3.47764e-05
-2.32954e-05
-3.72675e-05
-2.3126e-05
-3.97876e-05
-2.27444e-05
-4.23165e-05
-2.21198e-05
-4.48181e-05
-2.12149e-05
-4.72438e-05
-1.99973e-05
-4.95325e-05
-1.84289e-05
-5.16099e-05
-1.64884e-05
-1.42878e-05
-5.34162e-05
-2.00237e-06
1.35563e-05
-3.73709e-06
8.25211e-06
-5.37262e-06
3.98885e-06
-7.03491e-06
7.33631e-08
-8.79296e-06
-3.58569e-06
-1.06951e-05
-6.95831e-06
-1.27587e-05
-1.00191e-05
-1.49841e-05
-1.27385e-05
-1.7358e-05
-1.50914e-05
-1.98529e-05
-1.70539e-05
-2.24211e-05
-1.86026e-05
-2.49999e-05
-1.9725e-05
-2.75259e-05
-2.04414e-05
-2.9975e-05
-2.08111e-05
-3.23631e-05
-2.09073e-05
-3.47178e-05
-2.07713e-05
-3.70473e-05
-2.0415e-05
-3.93407e-05
-1.98264e-05
-4.15692e-05
-1.89864e-05
-4.36934e-05
-1.78732e-05
-4.56591e-05
-1.64632e-05
-4.74041e-05
-1.47435e-05
-1.27959e-05
-4.88961e-05
-1.05123e-06
1.46074e-05
-2.27447e-06
9.47529e-06
-3.60763e-06
5.32196e-06
-5.07799e-06
1.54369e-06
-6.69577e-06
-1.96792e-06
-8.46975e-06
-5.18435e-06
-1.04036e-05
-8.08527e-06
-1.24886e-05
-1.06535e-05
-1.47062e-05
-1.28738e-05
-1.70277e-05
-1.47324e-05
-1.94122e-05
-1.62181e-05
-2.18089e-05
-1.73284e-05
-2.41701e-05
-1.80802e-05
-2.64685e-05
-1.85127e-05
-2.87027e-05
-1.86731e-05
-3.08783e-05
-1.85958e-05
-3.29969e-05
-1.82963e-05
-3.50485e-05
-1.77749e-05
-3.7011e-05
-1.7024e-05
-3.885e-05
-1.60342e-05
-4.05232e-05
-1.47901e-05
-4.19836e-05
-1.32832e-05
-1.15803e-05
-4.31993e-05
-5.40197e-08
1.46615e-05
-6.51133e-07
1.00724e-05
-1.57235e-06
6.24315e-06
-2.74248e-06
2.71379e-06
-4.13001e-06
-5.80419e-07
-5.70574e-06
-3.60865e-06
-7.45261e-06
-6.33842e-06
-9.35049e-06
-8.75568e-06
-1.1374e-05
-1.08503e-05
-1.34921e-05
-1.26143e-05
-1.56672e-05
-1.4043e-05
-1.78568e-05
-1.51388e-05
-2.00216e-05
-1.59154e-05
-2.21343e-05
-1.64e-05
-2.41829e-05
-1.66246e-05
-2.61629e-05
-1.66157e-05
-2.80698e-05
-1.63895e-05
-2.98925e-05
-1.59522e-05
-3.16117e-05
-1.53047e-05
-3.32014e-05
-1.44445e-05
-3.46275e-05
-1.33641e-05
-3.58518e-05
-1.20591e-05
-1.05705e-05
-3.68617e-05
8.89827e-07
1.37715e-05
9.11953e-07
1.00502e-05
4.69128e-07
6.68593e-06
-3.18117e-07
3.501e-06
-1.39368e-06
4.95113e-07
-2.70332e-06
-2.29905e-06
-4.20596e-06
-4.83581e-06
-5.87077e-06
-7.0909e-06
-7.6646e-06
-9.05651e-06
-9.55324e-06
-1.07257e-05
-1.15001e-05
-1.20962e-05
-1.34672e-05
-1.31716e-05
-1.54198e-05
-1.39629e-05
-1.73311e-05
-1.44887e-05
-1.91841e-05
-1.47716e-05
-2.09681e-05
-1.48318e-05
-2.26738e-05
-1.46839e-05
-2.42894e-05
-1.43366e-05
-2.57989e-05
-1.37953e-05
-2.71801e-05
-1.30633e-05
-2.84065e-05
-1.21377e-05
-2.94496e-05
-1.1016e-05
-9.72811e-06
-3.02922e-05
1.57936e-06
1.21922e-05
2.21131e-06
9.4182e-06
2.27577e-06
6.62142e-06
1.91834e-06
3.85839e-06
1.21766e-06
1.19575e-06
2.35221e-07
-1.31665e-06
-9.72982e-07
-3.62764e-06
-2.36312e-06
-5.70079e-06
-3.89494e-06
-7.52472e-06
-5.53103e-06
-9.08966e-06
-7.23432e-06
-1.03929e-05
-8.96849e-06
-1.14375e-05
-1.07012e-05
-1.22302e-05
-1.24057e-05
-1.27842e-05
-1.40624e-05
-1.3115e-05
-1.56566e-05
-1.32375e-05
-1.71764e-05
-1.31642e-05
-1.86089e-05
-1.29041e-05
-1.9939e-05
-1.24652e-05
-2.11495e-05
-1.18528e-05
-2.22191e-05
-1.10682e-05
-2.31234e-05
-1.01118e-05
-8.99523e-06
-2.38564e-05
2.02034e-06
1.01717e-05
3.14559e-06
8.29287e-06
3.67947e-06
6.08748e-06
3.75608e-06
3.78173e-06
3.45682e-06
1.49496e-06
2.84109e-06
-7.00969e-07
1.96566e-06
-2.75225e-06
8.8228e-07
-4.61745e-06
-3.63086e-07
-6.2794e-06
-1.72826e-06
-7.72453e-06
-3.17487e-06
-8.94637e-06
-4.66765e-06
-9.94476e-06
-6.17555e-06
-1.07223e-05
-7.67142e-06
-1.12884e-05
-9.1339e-06
-1.16526e-05
-1.05461e-05
-1.18253e-05
-1.18938e-05
-1.18166e-05
-1.31632e-05
-1.16347e-05
-1.4341e-05
-1.12875e-05
-1.54116e-05
-1.07822e-05
-1.63577e-05
-1.01221e-05
-1.71615e-05
-9.30802e-06
-8.3459e-06
-1.7811e-05
2.2236e-06
7.94811e-06
3.69872e-06
6.81771e-06
4.61893e-06
5.16723e-06
5.08391e-06
3.3167e-06
5.16377e-06
1.41505e-06
4.91329e-06
-4.50538e-07
4.38495e-06
-2.22397e-06
3.62805e-06
-3.86059e-06
2.68745e-06
-5.33884e-06
1.60577e-06
-6.64289e-06
4.23005e-07
-7.76364e-06
-8.24033e-07
-8.69775e-06
-2.10354e-06
-9.44287e-06
-3.38933e-06
-1.00026e-05
-4.65935e-06
-1.03826e-05
-5.89518e-06
-1.05895e-05
-7.08073e-06
-1.0631e-05
-8.20188e-06
-1.05136e-05
-9.24501e-06
-1.02444e-05
-1.01968e-05
-9.83044e-06
-1.10432e-05
-9.27567e-06
-1.17682e-05
-8.58307e-06
-7.74915e-06
-1.23651e-05
2.24406e-06
5.70387e-06
3.91991e-06
5.14176e-06
5.11592e-06
3.97115e-06
5.88985e-06
2.5427e-06
6.29299e-06
1.01185e-06
6.37142e-06
-5.29023e-07
6.16816e-06
-2.02076e-06
5.72691e-06
-3.41939e-06
5.08948e-06
-4.70146e-06
4.29574e-06
-5.84919e-06
3.3828e-06
-6.85075e-06
2.38419e-06
-7.69918e-06
1.33165e-06
-8.39036e-06
2.53083e-07
-8.92406e-06
-8.27378e-07
-9.30214e-06
-1.89023e-06
-9.52668e-06
-2.91948e-06
-9.60182e-06
-3.90066e-06
-9.53246e-06
-4.82069e-06
-9.32441e-06
-5.66693e-06
-8.98422e-06
-6.42717e-06
-8.51547e-06
-7.08883e-06
-7.9214e-06
-7.20389e-06
-7.63424e-06
2.14889e-06
3.55499e-06
3.89535e-06
3.39524e-06
5.25118e-06
2.61526e-06
6.23903e-06
1.55479e-06
6.88954e-06
3.61278e-07
7.23627e-06
-8.75819e-07
7.31134e-06
-2.09588e-06
7.15128e-06
-3.25939e-06
6.79183e-06
-4.34207e-06
6.26792e-06
-5.32533e-06
5.6129e-06
-6.19576e-06
4.85784e-06
-6.94416e-06
4.03175e-06
-7.5643e-06
3.16043e-06
-8.05277e-06
2.26649e-06
-8.40824e-06
1.37048e-06
-8.6307e-06
4.90475e-07
-8.72184e-06
-3.57672e-07
-8.68434e-06
-1.16009e-06
-8.52201e-06
-1.90523e-06
-8.23908e-06
-2.58441e-06
-7.83629e-06
-3.1965e-06
-7.3094e-06
-6.7072e-06
-3.69327e-06
1.99058e-06
1.56422e-06
3.71183e-06
1.67389e-06
5.12886e-06
1.19817e-06
6.23981e-06
4.43774e-07
7.0575e-06
-4.5647e-07
7.60129e-06
-1.41967e-06
7.89444e-06
-2.38909e-06
7.96534e-06
-3.33034e-06
7.84263e-06
-4.2194e-06
7.55525e-06
-5.03799e-06
7.13169e-06
-5.77224e-06
6.59926e-06
-6.41177e-06
5.98375e-06
-6.94883e-06
5.3089e-06
-7.37795e-06
4.59622e-06
-7.69558e-06
3.86516e-06
-7.89967e-06
3.13294e-06
-7.98965e-06
2.4149e-06
-7.96633e-06
1.72476e-06
-7.83188e-06
1.07521e-06
-7.58954e-06
4.85579e-07
-7.2467e-06
-1.38e-08
-6.81001e-06
-6.19361e-06
-5.27538e-07
1.80436e-06
-2.40092e-07
3.43953e-06
3.86733e-08
4.84605e-06
-2.08415e-07
6.00653e-06
-7.16764e-07
6.91963e-06
-1.36964e-06
7.59265e-06
-2.09274e-06
8.04199e-06
-2.83848e-06
8.28788e-06
-3.57627e-06
8.35229e-06
-4.28386e-06
8.25837e-06
-4.94411e-06
8.02961e-06
-5.54352e-06
7.68911e-06
-6.07131e-06
7.25914e-06
-6.51888e-06
6.76066e-06
-6.8795e-06
6.21315e-06
-7.14809e-06
5.63448e-06
-7.32102e-06
5.04087e-06
-7.39606e-06
4.4469e-06
-7.37238e-06
3.86578e-06
-7.25079e-06
3.30942e-06
-7.03318e-06
2.78534e-06
-6.72263e-06
2.29298e-06
-6.31775e-06
-5.78098e-06
1.88027e-06
1.60491e-06
-1.84521e-06
3.12329e-06
-1.47982e-06
4.4765e-06
-1.5617e-06
5.63531e-06
-1.87563e-06
6.58794e-06
-2.32231e-06
7.33459e-06
-2.83944e-06
7.88466e-06
-3.3886e-06
8.25197e-06
-3.94362e-06
8.45317e-06
-4.48511e-06
8.50663e-06
-4.9976e-06
8.43142e-06
-5.46834e-06
8.24669e-06
-5.8866e-06
7.97115e-06
-6.24335e-06
7.62276e-06
-6.53113e-06
7.21852e-06
-6.74386e-06
6.77433e-06
-6.87684e-06
6.30492e-06
-6.92667e-06
5.82382e-06
-6.89129e-06
5.34314e-06
-6.77011e-06
4.87352e-06
-6.56356e-06
4.42435e-06
-6.27348e-06
4.00445e-06
-5.89782e-06
-5.40746e-06
3.6308e-06
1.40442e-06
-3.2496e-06
2.79531e-06
-2.87076e-06
4.07307e-06
-2.83951e-06
5.19859e-06
-3.00119e-06
6.15226e-06
-3.27602e-06
6.92919e-06
-3.61641e-06
7.53357e-06
-3.993e-06
7.9752e-06
-4.38528e-06
8.26716e-06
-4.77709e-06
8.42426e-06
-5.15472e-06
8.46205e-06
-5.50614e-06
8.39621e-06
-5.82076e-06
8.24218e-06
-6.08934e-06
8.01498e-06
-6.30393e-06
7.72902e-06
-6.4579e-06
7.39802e-06
-6.54585e-06
7.03494e-06
-6.56359e-06
6.65184e-06
-6.5082e-06
6.26e-06
-6.37828e-06
5.86963e-06
-6.17317e-06
5.48927e-06
-5.89309e-06
5.12818e-06
-5.5368e-06
-5.07449e-06
4.79515e-06
1.21774e-06
-4.46754e-06
2.48335e-06
-4.13643e-06
3.67786e-06
-4.03407e-06
4.75026e-06
-4.07361e-06
5.67634e-06
-4.20212e-06
6.44821e-06
-4.38829e-06
7.06812e-06
-4.61293e-06
7.54414e-06
-4.86131e-06
7.88723e-06
-5.12019e-06
8.10965e-06
-5.37715e-06
8.2241e-06
-5.62059e-06
8.24327e-06
-5.83993e-06
8.17967e-06
-6.02574e-06
8.04555e-06
-6.1698e-06
7.85278e-06
-6.26513e-06
7.6129e-06
-6.30596e-06
7.33701e-06
-6.28769e-06
7.03578e-06
-6.20696e-06
6.71904e-06
-6.06152e-06
6.39588e-06
-5.84999e-06
6.07526e-06
-5.57247e-06
5.76479e-06
-5.22628e-06
-4.7816e-06
5.4718e-06
1.06151e-06
-5.52891e-06
2.21376e-06
-5.28866e-06
3.32026e-06
-5.14057e-06
4.32209e-06
-5.07545e-06
5.19405e-06
-5.07408e-06
5.92964e-06
-5.12388e-06
6.53213e-06
-5.21543e-06
7.00938e-06
-5.33854e-06
7.371e-06
-5.4818e-06
7.62715e-06
-5.63328e-06
7.78797e-06
-5.78139e-06
7.86344e-06
-5.91538e-06
7.86337e-06
-6.02565e-06
7.79742e-06
-6.10383e-06
7.67512e-06
-6.1428e-06
7.50587e-06
-6.13669e-06
7.29897e-06
-6.08077e-06
7.06344e-06
-5.9714e-06
6.80808e-06
-5.80615e-06
6.54145e-06
-5.58332e-06
6.2706e-06
-5.30158e-06
6.00318e-06
-4.95892e-06
-4.52156e-06
5.7431e-06
9.48902e-07
-6.47799e-06
2.00186e-06
-6.34166e-06
3.01016e-06
-6.14886e-06
3.91793e-06
-5.9832e-06
4.70765e-06
-5.86378e-06
5.37841e-06
-5.79461e-06
5.93592e-06
-5.77292e-06
6.38804e-06
-5.79064e-06
6.7429e-06
-5.83664e-06
7.00834e-06
-5.8987e-06
7.1919e-06
-5.96492e-06
7.30093e-06
-6.02438e-06
7.34269e-06
-6.06739e-06
7.32448e-06
-6.08558e-06
7.25365e-06
-6.07193e-06
7.13764e-06
-6.02065e-06
6.98402e-06
-5.92713e-06
6.80042e-06
-5.78778e-06
6.59432e-06
-5.60001e-06
6.37278e-06
-5.36173e-06
6.14341e-06
-5.07219e-06
5.91253e-06
-4.72796e-06
-4.29413e-06
5.68504e-06
8.87802e-07
-7.36563e-06
1.83986e-06
-7.29366e-06
2.72493e-06
-7.0339e-06
3.50955e-06
-6.76779e-06
4.19027e-06
-6.54447e-06
4.77279e-06
-6.37711e-06
5.26464e-06
-6.26475e-06
5.67269e-06
-6.19867e-06
6.00272e-06
-6.16664e-06
6.2598e-06
-6.15575e-06
6.4487e-06
-6.15378e-06
6.57418e-06
-6.14983e-06
6.6412e-06
-6.13437e-06
6.6549e-06
-6.09924e-06
6.62069e-06
-6.03769e-06
6.54429e-06
-5.94422e-06
6.43167e-06
-5.81448e-06
6.28904e-06
-5.64512e-06