/*--------------------------------*- C++ -*----------------------------------*\
  =========                 |
  \\      /  F ield         | OpenFOAM: The Open Source CFD Toolbox
   \\    /   O peration     | Website:  https://openfoam.org
    \\  /    A nd           | Version:  13
     \\/     M anipulation  |
\*---------------------------------------------------------------------------*/
FoamFile
{
    format      ascii;
    class       volScalarField;
    location    "1.4";
    object      rho;
}
// * * * * * * * * * * * * * * * * * * * * * * * * * * * * * * * * * * * * * //

dimensions      [1 -3 0 0 0 0 0];

internalField   nonuniform List<scalar> 
2268
(
13529
13529
13529
13529
13529
13529
13529
13529
13529
13529
13529
13529
13529
13529
13529
13529
13529
13529
13529
13529
13529
13523.4
13521.6
13529
13529
13529
13529
13529
13529
13529
13529
13529
13529
13529
13529
13529
13529
13529
13529
13529
13529
13529
13529
13529
13527.7
13521.6
13529
13529
13529
13529
13529
13529
13529
13529
13529
13529
13529
13529
13529
13529
13529
13529
13529
13529
13529
13529
13529
13529
13524.6
13529
13529
13529
13529
13529
13529
13529
13529
13529
13529
13529
13529
13529
13529
13529
13529
13529
13529
13529
13529
13529
13529
13528.8
13300.6
13341.6
13362.5
13407.1
13485.2
13529
13529
13529
13529
13529
13529
13529
13529
13529
13529
13529
13529
13529
13529
13529
13529
13529
13529
5236.91
5644.52
5801.53
6098.89
6864.7
8210.65
9947.65
11350.7
12500.1
13240.3
13515.2
13529
13529
13529
13529
13529
13529
13529
13529
13529
13529
13529
13526.6
1000
1000
1000
1000
1000
1000
1043.9
1774.77
3039.3
4905.8
7281.41
9601.91
11187.7
12375.5
13135.8
13448.3
13529
13529
13528.9
13528.6
13527.8
13528.1
13523
1000
1000
1000
1000
1000
1000
1000
1000
1000
1000
1000
1201.68
2043.81
2947.73
3854.61
4719.26
5305.04
5566.6
5706.44
5902.5
6140.22
7112.52
10519.7
11909
11908.2
11848.2
8963.89
7440.66
7455.35
7942.82
8211.63
8213.18
8048.79
8004.93
8698.61
9516.62
9542.43
9604.02
9546.15
9579.39
9543.95
9549.28
11922.6
11956.4
11805.7
11935.5
11919.3
11884.9
11477.1
10829.6
10347.7
10045.7
8408
7913.56
8242.44
8698.03
8838.41
8941.17
9506.43
9271.84
8005.16
11786
6324.19
6241.04
6721.95
5905.37
4735.33
3541.9
3344.14
3605.41
3753.45
4341
4471.7
3767.67
3683.29
4027.48
4529.57
4946
5271.84
5552.15
11636.2
3262.92
3105.71
1076.79
1012.08
993.842
816.677
533.406
382.36
723.555
2241.25
2905.15
3578.28
3259.32
3207.44
3205.25
2866.83
2830.42
3073.71
9841.4
6550.02
2692.43
1000.18
1000.29
1005.88
1013.73
1006.84
959.361
799.452
529.8
1137.22
2524.2
3840.18
4105.44
4122.65
3492.61
2193.64
1321.3
2259.82
6548.67
2488.21
1001.09
1000.98
1010.74
1017.84
1016.57
1004.72
999.868
941.995
854.912
871.116
919.557
1027.36
1187.86
1117.3
876.649
790.021
1740.75
4696.91
2573.1
1000.95
1001.07
1000.88
1001.11
1000.17
1000
1000.07
1001.28
971.267
968.747
934.111
849.625
747.209
740.476
731.92
784.675
1742.7
1825.37
1810.6
1026.38
1000.78
1000.04
999.631
999.753
999.904
999.945
1001.29
1001.49
986.394
849.857
632.316
523.601
513.838
593.5
726.545
1000
1000
1000
1000
1000
1000
1000
1000
1000
1000
1000
1000
1000
1000
1000
1000
1000
1000
999.999
999.993
1000.29
1007.58
1348.58
1000
1000
1000
1000
1000
1000
1000
1000
1000
1000
1000
1000
1000
1000
1000
1000
1000
1000
1000
1000
1000.09
999.9
1012.53
1000
1000
1000
1000
1000
1000
1000
1000
1000
1000
1000
1000
1000
1000
1000
1000
1000
1000
1000
1000
1000.02
945.923
796.761
1000
1000
1000
999.459
998.952
999.729
999.882
999.45
1000
1000
1000
1000
1000
1000
998.872
995.11
999.291
999.991
963.923
862.768
796.96
742.959
488.526
1000
997.773
931.903
895.314
874.883
867.256
841.186
843.796
869.196
877.536
853.386
853.184
878.809
890.507
847.47
742.662
721.925
708.682
630.72
524.489
495.876
475.473
495.009
788.32
653.14
549.336
516.247
508.616
478.052
425.437
450.014
462.189
459.908
430.823
435.821
447.482
439.556
416.761
415.634
450.548
469.378
471.383
483.532
497.019
499.977
500
119.01
298.114
491.959
493.768
493.781
489.815
477.636
465.642
482.765
475.166
485.604
488.947
493.401
499.25
499.999
500
500
500
499.999
500.001
500.001
500
500
41.0922
288.719
347.059
408.907
468.99
494.62
500
500
500
500
500
500
500
500
500
500
500
499.999
500
500.001
500.001
500
500
33.1448
13.819
1.03193
30.8268
113.282
215.911
320.106
394.26
440.218
472.008
489.99
498.402
500
500
500
500
500
500
500
500
500
500
500
18.44
1.00656
1.00966
1.00848
1.00149
1.00003
1.00003
21.7064
62.8198
112.049
168.241
229.862
294.317
351.861
389.455
419.309
441.601
455.712
464.422
470.08
471.655
468.66
458.663
7.85204
2.20976
1.00019
1.00003
1.00001
1.00001
1.00004
1.00004
1.00009
1.00015
1.00031
1.00029
1.00006
4.90586
22.8394
42.5861
63.8776
82.2534
96.2352
105.983
106.656
93.1434
64.7859
1.55439
1.20332
1.00212
1.00022
1.00004
1.00003
1.00004
1.00013
1.00018
1.00007
1.00036
1.00047
1.00011
1.00001
1
1
1
1
1
1
1
1.00003
1.00004
1.00057
1.00084
1.00133
1.00026
1.00006
1.00005
1.00009
1.00038
1.00219
1.00423
1.0079
1.0025
1.00041
1.00007
1.00002
1.00001
1.00001
1.00004
1.00016
1.00036
1.0004
1.00037
1.00044
1.0004
1.0012
1.00106
1.00016
1.00006
1.00005
1.00012
1.00046
1.00316
1.0515
1.07651
1.01473
1.00135
1.00033
1.00021
1.00021
1.00034
1.00048
1.00067
1.00066
1.00063
1.00052
1.00023
1.00014
1.00034
1.00007
1.00006
1.00005
1.00005
1.00011
1.00023
1.00471
1.08431
1.08823
1.07669
1.00239
1.00093
1.00056
1.00096
1.0014
1.00087
1.00062
1.00039
1.00013
1.00006
1.00003
1.00003
1.00003
1.00006
1.00005
1.00004
1.00004
1.00006
1.00008
1.00016
1.02974
1.0862
1.08792
1.04707
1.00241
1.0014
1.00278
1.00314
1.00184
1.00019
1.00001
1.00004
1.00005
1.00004
1.00003
1.00005
1.00006
1.00005
1.00004
1.00004
1.00004
1.00004
1.00004
1.00001
1.02885
1.08599
1.07314
1.00298
1.00308
1.0031
1.00309
1.00303
1.00038
1.00001
1.00005
1.00006
1.00005
1.00003
1.00004
1.00005
1.00005
1.00004
1.00003
1.00002
1.00002
1.00001
1.00001
1.00001
1.00099
1.01228
1.01911
1.00154
1.00122
1.00205
1.00194
1.00016
1.00002
1.00003
1.00005
1.00004
1.00002
1.00003
1.00004
1.00005
1.00004
1.00003
1.00002
1.00001
1.00001
1.00001
1.00001
1.00001
1.00001
1.00115
1.00322
1.00062
1.00012
1.00005
1.00012
1.00013
1.00004
1.00002
1.00002
1.00002
1.00002
1.00003
1.00004
1.00004
1.00003
1.00001
1.00001
1.00001
1.00001
1.00001
1.00001
1.00001
1.00007
1.00078
1.00077
1.0004
1.00003
1.00003
1.00004
1.00003
1.00001
1.00001
1.00001
1.00002
1.00002
1.00002
1.00003
1.00002
1.00001
1.00001
1.00001
1.00001
1.00001
1.00001
1.00001
1
1
1.00006
1.00005
1.00005
1.00001
1.00001
1.00001
1.00001
1.00001
1.00001
1.00001
1.00001
1.00001
1.00002
1.00002
1.00001
1.00001
1.00001
1.00001
1.00001
1.00001
1.00001
1.00001
1
1
1
1.00001
1.00001
1.00001
1
1
1
1.00001
1.00001
1.00001
1.00001
1.00001
1.00001
1.00001
1.00001
1
1
1
1
1
1
1
1
1
1
1
1
1
1
1
1.00001
1
1
1
1
1.00001
1.00001
1
1
1
1
1
1
1
1
1
1
1
1
1
1
1
1
1
1
1
1
1
1
1
1
1
1
1
1
1
1
1
1
1
1
1
1
1
1
1
1
1
1
1
1
1
1
1
1
1
1
1
1
1
1
1
1
1
1
1
1
1
1
1
1
1
1
1
1
1
1
1
1
1
1
1
1
1
1
1
1
1
1
1
1
1
1
1
1
1
1
1
1
1
1
1
1
1
1
1
1
1
1
1
1
1
1
1
1
1
1
1
1
1
1
1
1
1
1
1
1
1
1
1
1
1
1
1
1
1
1
1
1
1
1
1
1
1
1
1
1
1
1
1
1
1
1
1
1
1
1
1
1
1
1
1
1
1
1
1
1
1
1
1
1
1
1
1
1
1
1
1
1
1
1
1
1
1
1
1
1
1
1
1
1
1
1
1
1
1
1
1
1
1
1
1
1
1
1
1
1
1
1
1
1
1
1
1
1
1
1
1
1
1
1
1
1
1
1
1
1
1
1
1
1
1
1
1
1
1
1
1
1
1
1
1
1
1
1
1
1
1
1
1
1
1
1
1
1
1
1
1
1
1
1
1
1
1
1
1
1
1
1
1
1
1
1
1
1
1
1
1
1
1
1
1
1
1
1
1
1
1
1
1
1
1
1
1
1
1
1
1
1
1
1
1
1
1
1
1
1
1
1
1
1
1
1
1
1
1
1
1
1
1
1
1
1
1
1
1
1
1
1
1
1
1
1
1
1
1
1
1
1
1
1
1
1
1
1
1
1
1
1
1
1
1
1
1
1
1
1
1
1
1
1
1
1
1
1
1
1
1
1
1
1
1
1
1
1
1
1
1
1
1
1
1
1
1
1
1
1
1
1
1
1
1
1
1
1
1
1
1
1
1
1
1
1
1
1
1
1
1
1
1
1
1
1
1
1
1
1
1
1
1
1
1
1
1
1
1
1
1
1
1
1
1
1
1
1
1
1
1226.39
1322.71
1256.9
1022.33
1237.47
1256.85
1182.88
598.656
1097.7
913.596
576.849
388.641
478.489
498.198
477.309
494.705
499.913
500
500
499.988
500
500
500
500
500
500
500
500
500
500
500
500
500
500
500
500
448.833
435.244
402.463
390.624
42.287
29.8619
19.8838
4.12873
1.00008
1.00006
1.00014
1.00013
1.00046
1.00037
1.00034
1.00026
1.00008
1.00006
1.00006
1.00004
1.00002
1.00002
1.00002
1.00001
1.00002
1.00001
1.00001
1.00001
1.00003
1.00001
1.00002
1.00002
1.00003
1.00002
1.00002
1.00002
1.00002
1.00002
1.00002
1.00002
1.00001
1.00001
1.00001
1.00001
1.00001
1.00001
1.00001
1.00001
1
1
1
1
1
1
1
1
1
1
1
1
1
1
1
1
1
1
1
1
1
1
1
1
1
1
1
1
1
1
1
1
1
1
1
1
1
1
1
1
1
1
1
1
1
1
1
1
1
1
1
1
1
1
1
1
1
1
1
1
1
1
1
1
1
1
1
1
1
1
1
1
1
1
1
1
1
1
1
1
1
1
1
1
1586.51
2010.62
1614.7
1001.3
998.736
991.619
960.273
901.856
850.627
832.457
822.606
795.324
725.846
618.452
523.439
508.269
501.797
507.138
672.964
1658.71
2121.71
2063.5
1009.52
949.314
887.857
655.849
531.128
514.177
506.952
502.301
501.925
501.338
501.008
500.264
500.175
499.833
500.033
564.558
688.06
1899.97
1780.2
873.533
776.542
553.026
499.79
499.999
499.885
499.877
499.915
499.997
500.107
500.219
500.178
500.035
499.998
499.991
516.754
543.421
517.327
526.142
599.666
493.797
477.852
500.001
500.002
500.002
500.001
499.999
500
500.002
500.021
500.229
500.196
500.076
506.582
500.249
500.116
500.677
478.954
453.098
479.817
501.415
500.048
500.001
500
499.916
499.967
500
500.001
500.065
500.216
500.186
499.925
496.774
469.005
500.091
500.027
500.063
500.023
500.006
500
500.001
500.001
499.913
500
499.999
496.156
384.813
324.708
323.275
302.669
268.869
281.072
326.061
500.001
500.003
500.002
500
500
500
500
493.538
490.92
384.053
162.473
67.0942
20.4799
10.7603
9.83546
8.82001
8.546
8.25315
30.6877
500
500
500
500
497.06
461.54
405.51
214.216
17.3053
4.20057
1.00144
1.00146
1.00158
1.0018
1.07676
2.67326
4.34204
1.18903
1.00219
500
496.067
450.428
401.53
298.632
67.4924
1.00061
1.00009
1.00111
1.00093
1.00019
1.00023
1.00038
1.37278
2.47742
2.53797
1.49743
1.00002
1.00018
374.215
274.454
56.2632
1.00024
1.00012
1.00007
1.00008
1.00005
1.00004
1.05562
0.999969
1.00012
1.01335
2.69724
2.72897
1.95858
1.26377
1.00005
1.00007
1.00015
1.00012
1.00013
1.0001
1.0001
1.00011
1.00005
1.02307
1.36824
1.53097
1.23206
1.00072
1.12424
2.28396
1.66377
1.00919
1.00335
1.00004
1.00018
1.00014
1.00012
1.00008
1.00014
1.00057
1.00048
1.00004
1.12314
1.53129
1.54055
1.26625
1.00296
1.08461
1.0407
1.00004
1.00005
1.00004
1.00021
1.0007
1.00017
1.00004
1.00004
1.00027
1.00074
1.00067
1.00792
1.05368
1.17168
1.22089
1.04399
1.00115
1.00101
1.00003
1.00003
1.00005
1.00007
1.00032
1.00086
1.00003
1.00002
1.00005
1.00013
1.00031
1.00123
1.00218
1.00001
1.00001
1.00005
1.00028
1.00141
1.00003
1.00002
1.00004
1.00004
1.00006
1.00039
1.00085
1.00001
1.00001
1.00001
1.00002
1.00004
1.00008
1
1
1
1.00002
1.00024
1.00099
1.00001
1.00002
1.00003
1.00002
1.00007
1.00025
1.00055
1.00001
1.00001
1
1
1.00001
1
1
1
1
1.00001
1.00005
1.00008
1.00001
1.00001
1.00001
1.00002
1.00004
1.00014
1.00009
1.00001
1.00001
1
1
1
1
1
1
1
1
1.00001
1
1.00001
1.00001
1.00001
1.00001
1.00002
1.00004
1.00004
1.00002
1.00001
1.00001
1
1
1
1
1
1
1
1
1
1
1
1
1
1.00001
1.00001
1.00001
1.00001
1.00001
1.00001
1
1
1
1
1
1
1
1
1
1
1
1
1
1
1
1
1.00001
1.00001
1
1
1
1
1
1
1
1
1
1
1
1
1
1
1
1
1
1
1
1
1
1
1
1
1
1
1
1
1
1
1
1
1
1
1.00001
1.00001
1
1
1
1
1
1
1
1
1
1
1
1
1
1
1
1
1
1.00001
1.00001
1
1
1
1
1
1
1
1
1
1
1
1
1
1
1
1
1.00001
1.00001
1.00001
1
1
1
1
1
1
1
1
1
1
1
1
1
1
1
1
1.00001
1.00001
1.00001
1
1
1
1
1
1
1
1
1
1
1
1
1
1
1
1
1.00001
1.00002
1.00001
1
1
1
1
1
1
1
1
1
1
1
1
1
1
1
1
1.00001
1.00003
1.00002
1
1
1
1
1
1
1
1
1
1
1
1
1
1
1
1.00001
1.00002
1.00004
1.00002
1
1
1
1
1
1
1
1
1
1
1
1
1
1
1
1.00001
1.00002
1.00005
1.00002
1
1
1
1
1
1
1
1
1
1
1
1
1
1
1
1.00001
1.00003
1.00005
1.00002
1
1
1
1
1
1
1
1
1
1
1
1
1
1
1
1.00001
1.00004
1.00006
1.00002
1
1
1
1
1
1
1
1
1
1
1
1
1
1
1
1.00002
1.00005
1.00005
1.00002
1
1
1
1
1
1
1
1
1
1
1
1
1
1
1.00001
1.00002
1.00005
1.00004
1.00001
1
1
1
1
1
1
1
1
1
1
1
1
1
1
1.00001
1.00002
1.00004
1.00003
1.00001
1
1
1
1
1
1
1
1
1
1
1
1
1
1
1.00001
1.00001
1.00002
1.00001
1
1
1
1
1
1
1
1
1
1
1
1
1
1
1
1
1.00001
1.00001
1
1
1
1
1
1
1
1
1
1
1
1
1
1
1
1
1
1
1
1
1
1
1
1
1
1
1
1
1
1
1
1
1
1
1
1
1
1
1
1
1
1
1
1
1
1
1
1
1
1
1
1
1
1
1
1
1
1
1
1
1
1
1
1
1
1
1
1
1
1
1
1
1
1
1
1
1
1
1
1
1
1
1
1
1
1
1
1
1
1
1
1
1
1
1
1
1
1
1
1
1
1
1
1
1
1
1
1
1
1
1
1
1
1
1
1
1
1
1
1
1
1
1
1
1
1
1
1
1
1
1
1
1
1
1
)
;

boundaryField
{
    leftWall
    {
        type            calculated;
        value           nonuniform List<scalar> 
50
(
13529
13529
13529
13529
13300.6
5236.91
1000
1000
1000
1000
1000
1000
1000
788.32
119.01
41.0922
33.1448
18.44
7.85204
1.55439
1.00057
1.0004
1.00014
1.00003
1.00003
1.00003
1.00002
1.00002
1.00001
1.00001
1.00001
1.00001
1
1
1
1
1
1
1
1
1
1
1
1
1
1
1
1
1
1
)
;
    }
    rightWall
    {
        type            calculated;
        value           nonuniform List<scalar> 
50
(
9549.28
8005.16
5552.15
3073.71
1321.3
790.021
784.675
726.545
672.964
564.558
516.754
500.249
469.005
326.061
30.6877
1.00219
1.00018
1.00007
1.00018
1.0007
1.00086
1.00085
1.00055
1.00009
1.00004
1.00001
1
1
1.00001
1.00001
1.00001
1.00001
1.00001
1.00002
1.00002
1.00002
1.00002
1.00002
1.00002
1.00001
1.00001
1
1
1
1
1
1
1
1
1
)
;
    }
    lowerWall
    {
        type            calculated;
        value           nonuniform List<scalar> 
62
(
13529
13529
13529
13529
13529
13529
13529
13529
13529
13529
13529
13529
13529
13529
13529
13529
13529
13529
13529
13529
13529
13523.4
13521.6
13521.6
13521.6
13524.6
13528.8
13529
13526.6
13523
10519.7
1226.39
1322.71
1256.9
1022.33
11909
11922.6
11786
11636.2
9841.4
2259.82
1740.75
1742.7
11909
11908.2
11848.2
8963.89
7440.66
7455.35
7942.82
8211.63
8213.18
8048.79
8004.93
8698.61
9516.62
9542.43
9604.02
9546.15
9579.39
9543.95
9549.28
)
;
    }
    atmosphere
    {
        type            calculated;
        value           nonuniform List<scalar> 
46
(
1
1
1
1
1
1
1
1
1
1
1
1
1
1
1
1
1
1
1
1
1
1
1
1
1
1
1
1
1
1
1
1
1
1
1
1
1
1
1
1
1
1
1
1
1
1
)
;
    }
    defaultFaces
    {
        type            empty;
    }
}


// ************************************************************************* //
