/*--------------------------------*- C++ -*----------------------------------*\
  =========                 |
  \\      /  F ield         | OpenFOAM: The Open Source CFD Toolbox
   \\    /   O peration     | Website:  https://openfoam.org
    \\  /    A nd           | Version:  13
     \\/     M anipulation  |
\*---------------------------------------------------------------------------*/
FoamFile
{
    format      ascii;
    class       volScalarField;
    location    "0.45";
    object      alpha.water;
}
// * * * * * * * * * * * * * * * * * * * * * * * * * * * * * * * * * * * * * //

dimensions      [];

internalField   nonuniform List<scalar> 
2268
(
5.91008e-14
1.35536e-12
3.23498e-12
4.32213e-12
4.90009e-12
6.1812e-12
8.13347e-12
1.06763e-11
1.40097e-11
1.82729e-11
2.30287e-11
2.82042e-11
3.34821e-11
3.92694e-11
4.34281e-11
4.62544e-11
4.94032e-11
5.27117e-11
5.7204e-11
1.23918e-10
6.77287e-10
2.67841e-09
2.56954e-09
4.0908e-15
2.17662e-11
3.48758e-11
4.14187e-11
4.23582e-11
4.41068e-11
4.70108e-11
5.40441e-11
6.38417e-11
7.57747e-11
9.16042e-11
1.09163e-10
1.3047e-10
1.52135e-10
1.75304e-10
1.93842e-10
2.01906e-10
1.94057e-10
2.18057e-10
4.72352e-10
1.33669e-09
3.06108e-09
2.57823e-09
2.85778e-11
9.80767e-11
1.32777e-10
1.57684e-10
1.63212e-10
1.63171e-10
1.56087e-10
1.66574e-10
1.79212e-10
2.02549e-10
2.10444e-10
2.20497e-10
2.42518e-10
2.75638e-10
3.2355e-10
3.71382e-10
4.13977e-10
4.18802e-10
4.44749e-10
7.42354e-10
1.47184e-09
3.04184e-09
3.02438e-09
2.87945e-11
2.90122e-11
2.92313e-11
2.91745e-11
4.44282e-11
9.53987e-11
1.04681e-10
1.51051e-10
1.56977e-10
2.08087e-10
2.10854e-10
2.11144e-10
2.5422e-10
3.16002e-10
3.61866e-10
4.10304e-10
4.66673e-10
5.48656e-10
5.94692e-10
7.38045e-10
1.03018e-09
2.57258e-09
2.57906e-09
0.00771603
0.00412996
0.00347039
0.00307292
0.00232285
0.00154273
0.000727888
0.000204464
2.10227e-09
1.82098e-09
1.35149e-09
1.07846e-09
6.63823e-10
3.63745e-10
3.67686e-10
9.57447e-10
8.39353e-10
7.37957e-10
6.22539e-10
5.6626e-10
5.56569e-10
5.14392e-10
8.25245e-10
0.585975
0.539244
0.529232
0.523446
0.511989
0.494987
0.47338
0.446943
0.414356
0.373141
0.324686
0.27321
0.207921
0.130611
0.0439962
4.68476e-11
1.14837e-11
4.55321e-11
1.40954e-10
1.211e-10
6.71435e-09
4.56588e-08
1.07738e-08
1
1
1
1
1
1
1
1
1
1
0.994875
0.972921
0.936347
0.871863
0.75249
0.521163
0.192561
5.48342e-12
1.21133e-10
3.26489e-09
3.45611e-08
7.38451e-08
4.57684e-08
1
1
1
1
1
1
1
1
1
1
1
1
1
1
1
0.994406
0.90322
0.495614
0.0133801
3.82096e-09
1.21312e-08
4.94329e-08
5.05045e-08
1.12335e-10
1.52941e-10
2.02883e-10
2.46687e-10
2.77804e-10
3.09818e-10
3.46684e-10
3.79063e-10
3.72789e-10
3.06716e-10
2.06923e-10
1.7361e-10
1.39119e-10
9.42866e-11
6.0143e-11
4.73359e-11
2.26547e-11
3.26609e-12
5.88732e-14
1.14481e-10
2.45664e-10
3.52822e-10
3.81176e-10
3.73597e-10
3.32878e-10
2.77974e-10
3.31603e-10
5.70704e-10
6.37653e-10
5.38313e-10
3.39597e-10
2.36299e-10
1.98301e-10
1.49024e-10
8.86285e-11
3.94667e-11
6.33222e-12
2.42336e-13
1.23912e-10
3.18582e-10
3.71145e-10
2.99378e-10
1.75193e-10
6.48847e-11
2.38403e-11
1.84647e-11
1.045e-10
5.97033e-10
6.95e-10
5.70812e-10
3.83386e-10
3.00695e-10
2.40013e-10
1.55127e-10
7.52485e-11
1.64323e-11
1.14679e-12
1.17895e-10
2.76369e-10
2.59771e-10
1.24281e-10
4.61229e-11
1.41561e-11
2.15541e-12
2.61567e-12
-3.94642e-12
4.13078e-10
7.33483e-10
7.16061e-10
5.66015e-10
3.67071e-10
2.81916e-10
2.13288e-10
1.20592e-10
3.82884e-11
3.7701e-12
1.07063e-10
1.64279e-10
1.71505e-10
1.90343e-12
1.0467e-09
9.39028e-13
2.49943e-12
3.50146e-08
2.65821e-08
4.12123e-09
1.24765e-09
9.21171e-10
7.26638e-10
4.49903e-10
3.31236e-10
2.56874e-10
1.57082e-10
5.90756e-11
6.01405e-12
8.65393e-11
5.40518e-11
7.06563e-11
1.1278e-07
1.41487e-08
9.47972e-11
1.19604e-05
1.21308e-06
7.74437e-08
1.20997e-08
1.3761e-09
1.31657e-09
9.63205e-10
5.57512e-10
4.09411e-10
3.13412e-10
2.0033e-10
6.94278e-11
1.07663e-11
-1.1589e-14
7.04553e-11
2.65151e-11
2.89621e-07
-2.32732e-07
0.000256709
9.40986e-05
7.05503e-08
-3.96652e-10
2.26038e-09
1.69381e-09
1.52931e-09
1.12219e-09
8.11563e-10
5.53028e-10
3.96165e-10
2.28221e-10
7.99725e-11
1.86872e-11
1.57138e-05
0.000130183
7.52007e-10
-1.07106e-08
-1.49237e-19
0.000248925
0.000121303
5.39949e-07
7.59699e-07
1.16048e-07
5.46455e-09
1.79958e-09
1.40261e-09
9.76307e-10
7.16122e-10
4.98165e-10
2.60065e-10
9.52298e-11
2.14087e-11
1
1
1
1
1
1
1
1
1
1
1
1
1
1
1
1
1
0.997068
0.786645
0.290935
6.17348e-09
6.29036e-09
3.49121e-08
1
1
1
1
1
1
1
1
1
1
1
1
1
1
1
1
1
1
0.999996
0.976368
0.632154
0.147714
-7.51092e-11
1
1
1
1
1
1
1
1
1
1
1
1
1
1
1
1
1
1
1
1
0.99985
0.905715
0.761654
1
1
1
1
1
1
1
1
1
1
1
1
1
1
1
1
1
1
1
0.999998
0.999854
0.999418
0.999527
0.700269
0.7394
0.790415
0.842171
0.890715
0.932476
0.965411
0.987901
0.9987
1
1
1
1
1
1
1
1
1
1
1
0.999985
0.999999
0.999999
0.0126026
0.0328781
0.0593289
0.0973941
0.147932
0.212282
0.292938
0.393016
0.514405
0.655576
0.770042
0.86965
0.943658
0.986402
0.999693
1
0.999996
1
1
0.999999
0.999999
0.999999
0.999999
-2.63068e-17
-6.15554e-17
-1.49801e-15
-9.78042e-14
-1.17733e-13
-8.72931e-14
-1.06226e-14
-8.49069e-15
-5.75555e-15
0
0.0452948
0.119863
0.226098
0.37061
0.560102
0.774075
0.934302
0.990399
0.994068
0.990683
0.966655
0.914367
0.839819
-4.33508e-17
-1.86503e-16
-3.34662e-15
-1.99518e-13
-2.77607e-13
-2.32781e-13
-2.09494e-13
-2.04123e-13
-1.51843e-13
5.80889e-27
1.38257e-25
2.27884e-24
2.56951e-23
2.4147e-22
3.11718e-15
-3.11809e-15
0.07335
0.357808
0.635536
0.643402
0.390078
0.102594
0.0358553
-5.4282e-17
-3.7891e-16
-5.64907e-15
-2.58078e-13
-3.47318e-13
-2.91111e-13
-2.75842e-13
-2.83527e-13
-2.14587e-13
1.46646e-13
1.5146e-12
5.02306e-12
2.08205e-11
5.98905e-11
9.28492e-11
1.56417e-20
1.08803e-20
4.1984e-21
-4.2691e-14
-3.75003e-14
-2.27961e-24
-2.33926e-23
-4.99263e-23
-5.99908e-17
-5.68613e-16
-7.8862e-15
-2.71464e-13
-3.29126e-13
-2.57996e-13
-2.54158e-13
-2.65912e-13
-1.62873e-13
4.49382e-13
3.26275e-12
1.47123e-11
5.71216e-11
2.49674e-10
5.70807e-10
7.39634e-10
5.55305e-10
2.8812e-10
1.98994e-11
2.43056e-14
2.00699e-06
7.16758e-06
1.52019e-05
-5.97456e-17
-6.92755e-16
-9.16237e-15
-2.34862e-13
-2.45797e-13
-1.7221e-13
-1.78871e-13
-1.81622e-13
-2.73878e-14
9.24369e-13
4.51379e-12
2.4696e-11
9.49581e-11
3.39376e-10
8.24932e-10
1.10224e-09
1.12546e-09
8.97848e-10
3.86954e-10
1.55957e-08
2.31965e-09
6.71727e-12
1.29039e-12
-5.40555e-17
-7.15451e-16
-8.92162e-15
-1.67234e-13
-1.4603e-13
-8.815e-14
-9.92721e-14
-8.54749e-14
1.1415e-13
1.26994e-12
5.38864e-12
2.93961e-11
1.24127e-10
3.8509e-10
5.89541e-10
9.00718e-10
9.00673e-10
7.79849e-10
6.00844e-10
2.6374e-10
4.47141e-11
1.63334e-11
2.37346e-12
-4.43276e-17
-6.29683e-16
-7.24301e-15
-9.70246e-14
-6.83642e-14
-3.41485e-14
-4.2479e-14
-1.57215e-14
1.98613e-13
1.3215e-12
6.38268e-12
2.62946e-11
1.28888e-10
2.39011e-10
4.07954e-10
4.47919e-10
4.17317e-10
3.68554e-10
2.90611e-10
1.9666e-10
1.09989e-10
6.34929e-11
3.5541e-11
-3.21556e-17
-4.65563e-16
-4.81164e-15
-4.50404e-14
-2.47826e-14
-9.63268e-15
-1.23164e-14
1.69904e-14
2.02787e-13
1.08302e-12
5.73317e-12
2.07923e-11
7.64621e-11
1.57924e-10
1.94176e-10
1.99403e-10
1.75141e-10
1.27192e-10
8.53365e-11
5.28945e-11
3.25807e-11
2.0971e-11
1.30773e-11
-1.97846e-17
-2.8049e-16
-2.52574e-15
-1.62565e-14
-6.78427e-15
-1.73172e-15
-7.51462e-16
2.22747e-14
1.49529e-13
7.60483e-13
3.35506e-12
1.33319e-11
3.91205e-11
5.75061e-11
6.4618e-11
6.02481e-11
4.69657e-11
3.17458e-11
2.03204e-11
1.20096e-11
6.62125e-12
3.94997e-12
1.67387e-12
-9.69674e-18
-1.30129e-16
-9.89617e-16
-4.37773e-15
-1.36162e-15
-2.91265e-17
1.62356e-15
1.53343e-14
8.54791e-14
3.96674e-13
1.63417e-12
5.38742e-12
1.44914e-11
1.92916e-11
1.71112e-11
1.25395e-11
8.24362e-12
4.73111e-12
2.56157e-12
1.53274e-12
6.42534e-13
1.67845e-13
5.41527e-14
-3.40076e-18
-4.21933e-17
-2.66219e-16
-8.33053e-16
-1.90811e-16
1.24092e-16
1.08888e-15
7.16002e-15
3.56935e-14
1.56409e-13
5.26373e-13
1.55924e-12
3.16138e-12
3.39986e-12
2.46711e-12
1.43668e-12
7.14412e-13
3.92874e-13
1.25153e-13
2.86957e-14
7.95834e-15
4.57501e-15
1.90317e-15
-7.38715e-19
-8.31794e-18
-4.38186e-17
-1.02931e-16
-1.41667e-17
5.2591e-17
3.70811e-16
2.17186e-15
9.94959e-15
3.91803e-14
1.22519e-13
2.83887e-13
4.38927e-13
2.96358e-13
1.35509e-13
5.89252e-14
9.17222e-15
2.08018e-16
5.02431e-16
9.77158e-16
1.03686e-15
5.93928e-16
1.65817e-16
-7.54628e-20
-7.61264e-19
-3.41435e-18
-6.30483e-18
2.69233e-19
9.92636e-18
6.11657e-17
2.8454e-16
1.35933e-15
4.76695e-15
1.2911e-14
2.41828e-14
2.30001e-14
5.53333e-15
1.37501e-16
1.42333e-19
1.45268e-21
3.70052e-24
1.64434e-24
3.57343e-25
2.28091e-26
3.147e-27
5.79456e-27
3.6822e-32
9.68978e-31
1.12605e-29
7.44622e-29
2.58507e-28
1.17852e-41
1.49659e-40
1.79393e-39
1.92336e-38
1.8824e-37
1.72058e-36
1.45455e-35
1.15209e-34
8.80007e-34
6.36928e-33
4.01603e-32
2.2992e-31
1.36484e-30
8.25655e-30
4.85898e-29
2.74109e-28
1.94813e-27
1.50273e-26
3.27605e-42
1.01805e-40
1.37697e-39
9.68441e-39
2.80741e-38
1.59493e-41
2.21288e-40
2.77975e-39
3.06596e-38
3.03521e-37
2.77366e-36
2.32008e-35
1.83257e-34
1.36799e-33
9.97336e-33
7.18305e-32
4.74791e-31
3.18853e-30
2.13577e-29
1.41496e-28
9.89088e-28
6.82954e-27
5.30892e-26
7.51739e-49
5.27116e-47
1.99416e-45
5.25262e-44
1.05566e-42
1.76388e-41
2.60871e-40
3.36757e-39
3.81908e-38
3.90801e-37
3.66032e-36
3.15019e-35
2.55092e-34
1.95572e-33
1.48021e-32
1.0447e-31
7.07842e-31
5.34722e-30
3.74551e-29
2.56942e-28
1.72752e-27
1.08279e-26
7.61361e-26
4.76166e-49
3.60788e-47
1.44035e-45
3.94343e-44
8.35053e-43
1.49102e-41
2.30417e-40
3.0577e-39
3.57472e-38
3.76236e-37
3.61729e-36
3.19456e-35
2.63495e-34
2.08549e-33
1.63402e-32
1.2135e-31
8.35739e-31
6.72173e-30
4.73071e-29
3.16851e-28
2.04239e-27
1.29006e-26
7.69622e-26
2.29026e-49
1.83777e-47
7.62971e-46
2.17388e-44
4.87174e-43
9.22788e-42
1.48634e-40
2.03126e-39
2.43372e-38
2.64185e-37
2.64516e-36
2.40337e-35
2.05114e-34
1.71767e-33
1.42447e-32
1.12508e-31
7.97683e-31
6.37322e-30
4.32599e-29
2.90709e-28
1.87632e-27
1.06051e-26
5.71918e-26
7.44104e-50
6.43248e-48
2.84094e-46
8.58282e-45
2.03495e-43
4.03304e-42
6.75076e-41
9.57361e-40
1.17783e-38
1.33371e-37
1.43933e-36
1.36288e-35
1.21721e-34
1.08086e-33
9.3761e-33
7.60664e-32
5.64468e-31
4.30954e-30
2.87243e-29
1.72738e-28
1.02564e-27
6.35201e-27
3.16058e-26
1.5705e-50
1.44634e-48
6.92432e-47
2.29894e-45
5.94147e-44
1.2606e-42
2.24248e-41
3.40434e-40
4.48992e-39
5.2296e-38
5.71622e-37
6.01198e-36
5.64244e-35
5.19141e-34
4.49067e-33
3.51591e-32
2.56393e-31
1.82162e-30
1.24342e-29
8.01927e-29
5.02423e-28
2.78371e-27
1.38818e-26
2.30411e-51
2.37005e-49
1.24569e-47
4.48168e-46
1.24755e-44
2.8376e-43
5.39997e-42
8.75804e-41
1.2271e-39
1.52162e-38
1.78289e-37
1.97289e-36
1.90246e-35
1.70096e-34
1.39687e-33
1.09186e-32
8.65896e-32
6.42992e-31
4.20173e-30
2.54845e-29
1.53227e-28
9.28779e-28
4.72756e-27
2.16367e-52
2.4719e-50
1.44854e-48
5.68185e-47
1.71895e-45
4.28519e-44
8.95496e-43
1.57944e-41
2.40874e-40
3.25056e-39
3.93036e-38
4.31813e-37
4.36109e-36
4.08495e-35
3.55386e-34
2.86999e-33
2.18667e-32
1.61087e-31
1.15053e-30
7.66694e-30
4.64985e-29
2.60657e-28
1.40512e-27
1.24365e-53
1.58286e-51
1.0151e-49
4.48432e-48
1.54583e-46
4.3038e-45
9.73732e-44
1.82951e-42
2.95428e-41
4.20177e-40
5.3428e-39
6.1778e-38
6.59718e-37
6.58128e-36
6.20988e-35
5.46113e-34
4.28383e-33
3.12791e-32
2.14758e-31
1.37891e-30
9.00918e-30
5.9042e-29
3.29274e-28
4.74836e-55
6.86039e-53
4.90084e-51
2.40159e-49
9.17773e-48
2.84021e-46
7.12149e-45
1.46751e-43
2.56926e-42
3.92973e-41
5.35496e-40
6.63886e-39
7.62514e-38
8.19574e-37
8.20137e-36
7.51521e-35
6.27133e-34
4.86171e-33
3.59376e-32
2.5787e-31
1.76957e-30
1.11666e-29
6.68925e-29
1.35855e-56
2.23438e-54
1.79196e-52
9.64837e-51
4.01509e-49
1.36024e-47
3.75857e-46
8.51509e-45
1.62612e-43
2.69678e-42
3.94908e-41
5.1768e-40
6.22195e-39
7.06339e-38
7.64515e-37
7.70442e-36
7.0563e-35
5.93894e-34
4.79207e-33
3.77486e-32
2.65882e-31
1.73739e-30
1.13565e-29
1.94621e-58
3.85077e-56
3.69419e-54
2.3498e-52
1.13658e-50
4.37724e-49
1.36157e-47
3.4737e-46
7.45542e-45
1.38541e-43
2.28152e-42
3.36706e-41
4.48117e-40
5.48307e-39
6.23415e-38
6.45138e-37
6.11868e-36
5.40345e-35
4.89548e-34
4.18622e-33
3.3037e-32
2.37986e-31
1.60464e-30
1.93828e-60
4.658e-58
5.8717e-56
4.32642e-54
2.36331e-52
1.01326e-50
3.50444e-49
1.00371e-47
2.43611e-46
5.0354e-45
9.08531e-44
1.47534e-42
2.05044e-41
2.60217e-40
3.14845e-39
3.56505e-38
3.77624e-37
4.12961e-36
4.41699e-35
4.03783e-34
3.28527e-33
2.63378e-32
2.03477e-31
1.52105e-62
4.15215e-60
5.33593e-58
4.53291e-56
2.89791e-54
1.4596e-52
5.89226e-51
1.95887e-49
5.52033e-48
1.33869e-46
2.78571e-45
4.95097e-44
7.72278e-43
1.12806e-41
1.57091e-40
1.99056e-39
2.30891e-38
2.58283e-37
2.80999e-36
2.85277e-35
2.65329e-34
2.4346e-33
2.11433e-32
6.2543e-65
1.91122e-62
2.68167e-60
2.84983e-58
2.39539e-56
1.30846e-54
6.34448e-53
2.43738e-51
7.92058e-50
2.18603e-48
5.16498e-47
1.08297e-45
2.11625e-44
3.81424e-43
6.06671e-42
8.53172e-41
8.2494e-40
1.51823e-38
1.8326e-37
2.00035e-36
1.92695e-35
1.86383e-34
1.75741e-33
1.64386e-67
6.39775e-65
1.16845e-62
1.42382e-60
1.28047e-58
8.88277e-57
4.94217e-55
2.28262e-53
8.94705e-52
2.94291e-50
7.8267e-49
1.96391e-47
5.13587e-46
1.03222e-44
1.85545e-43
2.98854e-42
3.39244e-41
6.40996e-40
7.97952e-39
9.3009e-38
1.1001e-36
1.28266e-35
1.10129e-34
2.04684e-70
9.21992e-68
2.00553e-65
2.96599e-63
3.2641e-61
2.8275e-59
1.98218e-57
1.13394e-55
5.48539e-54
2.2121e-52
7.16055e-51
2.1972e-49
6.9582e-48
1.65866e-46
3.55088e-45
7.13224e-44
9.26048e-43
2.02284e-41
2.80259e-40
3.52049e-39
4.25148e-38
5.69686e-37
7.41319e-36
1.83328e-73
7.91516e-71
1.91333e-68
3.42104e-66
4.74406e-64
5.18729e-62
4.67535e-60
3.58545e-58
2.30561e-56
1.20846e-54
5.03685e-53
2.00512e-51
8.09234e-50
2.42804e-48
6.38457e-47
1.47701e-45
2.2242e-44
5.71037e-43
9.48422e-42
1.46465e-40
2.11139e-39
2.93246e-38
3.2272e-37
6.22273e-77
2.04672e-74
5.19946e-72
1.12659e-69
2.06601e-67
3.13577e-65
3.90618e-63
4.00394e-61
3.41276e-59
2.44989e-57
1.49904e-55
7.91366e-54
3.64227e-52
1.46904e-50
5.16855e-49
1.56458e-47
2.94964e-46
9.42951e-45
1.9889e-43
3.53452e-42
5.46739e-41
1.17291e-39
1.956e-38
8.30737e-81
1.80118e-78
4.38938e-76
1.12701e-73
2.78568e-71
6.06113e-69
1.11418e-66
1.71029e-64
2.18817e-62
2.2534e-60
1.79755e-58
1.3641e-56
1.02935e-54
5.68336e-53
2.71674e-51
1.12663e-49
2.9011e-48
1.2563e-46
3.35725e-45
8.28511e-44
1.88428e-42
3.87345e-41
5.98232e-40
4.7831e-86
7.17782e-84
1.53653e-81
4.71632e-79
1.72063e-76
6.12125e-74
1.89655e-71
4.888e-69
1.03551e-66
1.8068e-64
2.61775e-62
3.18797e-60
3.31376e-58
2.98363e-56
2.34191e-54
1.5865e-52
9.04414e-51
3.12319e-49
1.67255e-47
5.75445e-46
2.04299e-44
7.81779e-43
2.3596e-41
1.30002e-95
9.8297e-94
2.22205e-91
1.14405e-88
9.46044e-86
9.09462e-83
8.12151e-80
6.09617e-77
3.74685e-74
1.8886e-71
7.86332e-69
2.71376e-66
7.75297e-64
1.8385e-61
3.6951e-59
6.5169e-57
1.01749e-54
9.74704e-53
1.51515e-50
1.40249e-48
1.08616e-46
6.80361e-45
3.28764e-43
4.20303e-07
4.79988e-07
6.21152e-05
0.000139197
0.000215702
0.00876397
0.00462884
0.00619791
0.753122
0.732721
0.539187
0.509772
0.999501
0.999267
0.9993
0.999578
0.999999
0.999999
0.999998
0.999998
0.999999
0.999999
0.999999
0.997659
0.774419
0.733277
0.673748
0.55915
0.0122094
0
-2.09103e-20
6.69599e-12
4.36314e-22
4.71212e-23
3.17537e-06
1.16569e-05
1.94487e-05
2.55306e-05
3.62915e-05
4.70577e-05
1.53786e-09
5.28768e-10
5.4254e-14
4.90641e-10
3.80802e-12
3.08112e-12
1.63124e-12
1.29041e-15
2.34536e-11
1.53288e-11
8.41515e-12
3.36347e-12
6.27052e-12
3.23288e-12
1.48952e-12
4.76687e-13
5.54421e-13
1.77122e-13
4.27026e-14
1.35157e-14
1.16759e-14
2.48283e-15
1.32001e-15
1.03252e-15
4.98398e-16
1.19264e-16
2.38509e-17
7.50461e-18
2.22393e-18
9.95638e-21
2.18982e-20
1.76568e-20
2.13747e-26
9.8093e-26
3.85662e-25
1.29375e-24
1.32826e-25
4.64718e-25
1.42514e-24
3.92252e-24
3.00248e-25
8.57169e-25
2.3151e-24
5.51623e-24
3.81451e-25
1.03197e-24
2.68696e-24
5.93579e-24
3.50115e-25
9.75221e-25
2.35067e-24
5.11297e-24
2.53239e-25
6.60566e-25
1.66354e-24
3.66197e-24
1.4627e-25
3.75393e-25
9.22991e-25
2.16006e-24
6.34518e-26
1.6952e-25
4.25508e-25
1.03395e-24
2.35239e-26
6.56117e-26
1.75666e-25
4.43152e-25
6.94213e-27
1.9064e-26
6.02478e-26
1.5748e-25
1.78949e-27
5.29907e-27
1.52592e-26
4.27362e-26
3.84076e-28
1.16946e-27
3.45958e-27
1.03866e-26
6.16467e-29
1.99471e-28
6.84464e-28
2.1285e-27
1.03151e-29
3.51299e-29
1.17861e-28
4.25839e-28
1.32132e-30
4.65464e-30
1.64247e-29
6.2692e-29
1.52558e-31
5.75594e-31
2.23648e-30
9.36533e-30
1.42252e-32
6.16968e-32
2.67903e-31
1.17133e-30
1.2296e-33
5.39203e-33
2.50412e-32
1.21619e-31
8.11925e-35
4.56255e-34
2.48172e-33
1.27725e-32
4.76892e-36
2.7713e-35
1.6962e-34
1.03361e-33
2.76923e-37
1.94154e-36
1.31157e-35
8.51071e-35
1.28778e-38
1.03785e-37
8.00739e-37
5.53563e-36
5.01404e-40
5.05709e-39
4.90228e-38
4.51973e-37
1.16594e-41
1.819e-40
2.60384e-39
3.28335e-38
0.00124819
0.00911772
0.0904373
0.206707
0.144066
0.0174175
0.000403581
4.9523e-05
1.50535e-06
6.76769e-07
3.91795e-09
1.96461e-09
2.16509e-09
1.58098e-09
9.82297e-10
6.89359e-10
3.77001e-10
1.35755e-10
2.77291e-11
0.0258838
0.13046
0.357003
0.586794
0.63684
0.170037
0.00286104
0.000228432
2.444e-08
2.62639e-08
1.78551e-08
5.48947e-09
3.18613e-09
2.44906e-09
1.50647e-09
9.47804e-10
4.34921e-10
1.49568e-10
3.65394e-11
0.615836
0.796559
0.939065
0.985524
0.971422
0.288766
7.10158e-06
-1.7404e-09
2.36477e-09
1.73406e-09
3.53554e-09
3.18263e-09
3.0223e-09
2.43534e-09
1.61526e-09
1.00883e-09
3.91631e-10
1.41867e-10
4.16309e-11
0.998977
0.978585
0.985523
0.983774
0.904539
0.266361
1.64689e-10
1.55528e-10
3.45769e-10
1.2161e-09
1.5059e-09
1.6312e-09
1.9419e-09
1.84287e-09
1.4747e-09
8.07103e-10
3.51965e-10
1.45594e-10
4.43511e-11
0.999997
0.999994
0.946563
0.679894
0.251984
0.00885485
2.03007e-10
5.58263e-10
8.97864e-10
1.34278e-09
1.60761e-09
1.57196e-09
1.18116e-09
1.08765e-09
9.84568e-10
5.64089e-10
3.09178e-10
1.42738e-10
4.40914e-11
0.972431
0.756734
0.307016
0.000300347
4.73577e-10
8.20702e-10
2.18435e-09
6.35843e-09
4.28705e-09
1.33718e-09
1.21456e-09
1.24901e-09
9.25464e-10
6.35526e-10
4.79788e-10
3.69894e-10
2.44749e-10
1.31452e-10
4.23119e-11
0.320369
0.0259174
4.88111e-09
4.30081e-08
2.52038e-08
3.73177e-09
1.09543e-08
1.82453e-08
1.00013e-08
1.88145e-09
7.8641e-10
8.1495e-10
6.28942e-10
4.11593e-10
2.79529e-10
1.86012e-10
1.80571e-10
1.12004e-10
3.96201e-11
1.69843e-10
1.91317e-15
1.72964e-06
3.08593e-06
1.97595e-06
5.33432e-07
1.00817e-07
4.57485e-08
1.8867e-08
6.11421e-09
1.21819e-09
5.96517e-10
2.94665e-10
1.32484e-10
1.4689e-10
1.23247e-10
1.21878e-10
9.01782e-11
3.44496e-11
6.02759e-06
3.10582e-06
4.87926e-06
4.86506e-06
3.30742e-06
1.3798e-06
2.39588e-07
6.46907e-08
3.35271e-08
8.79955e-09
1.72753e-09
3.70006e-10
7.09343e-11
1.78439e-11
3.18518e-11
7.77282e-11
6.34171e-11
6.85853e-11
2.95372e-11
2.71417e-05
9.08953e-06
4.66024e-06
3.43785e-06
1.63391e-06
3.19478e-08
3.17465e-08
4.4854e-08
1.74792e-08
3.58199e-09
1.1467e-09
2.30019e-10
2.24402e-11
9.833e-13
3.61681e-12
2.8432e-11
4.81156e-11
5.51588e-11
2.49233e-11
1.68115e-07
8.96748e-07
1.87984e-07
0
-2.00571e-14
1.78503e-09
1.3291e-08
1.97342e-08
5.58958e-09
5.33713e-10
6.09562e-10
1.46568e-10
1.58516e-11
3.07479e-13
1.77583e-12
1.81566e-11
3.90252e-11
4.23711e-11
2.09295e-11
-2.49366e-25
-2.11598e-13
-4.18036e-13
-3.63474e-13
3.10686e-15
2.05198e-16
6.68784e-16
6.44589e-10
8.45976e-10
2.66493e-10
2.45795e-10
7.52754e-11
1.23059e-11
2.90138e-13
1.60966e-12
1.11375e-11
2.52655e-11
3.28932e-11
1.75426e-11
5.81995e-13
1.8016e-14
-8.29347e-15
-3.63666e-14
4.36625e-13
2.37852e-12
1.73159e-11
5.08926e-11
1.4931e-10
1.04735e-10
6.63569e-11
4.37547e-11
6.42475e-12
2.45564e-13
9.99e-13
7.52303e-12
1.71975e-11
2.29664e-11
1.39934e-11
6.0738e-14
2.48558e-15
2.48331e-16
4.27081e-17
1.27617e-16
4.37628e-16
1.95848e-12
1.36062e-11
3.44909e-11
2.51327e-11
1.33822e-11
2.46503e-11
4.77395e-12
1.92332e-13
3.33825e-13
4.60878e-12
1.24833e-11
1.65381e-11
1.12539e-11
6.29895e-15
1.14621e-15
6.64634e-17
2.03601e-17
9.31503e-18
2.82189e-18
5.12905e-14
2.1699e-12
9.04532e-12
6.14988e-12
5.63466e-12
1.42354e-11
3.42991e-12
1.55498e-13
1.00449e-13
2.38152e-12
8.92447e-12
1.15885e-11
9.10107e-12
5.17714e-16
6.69425e-17
5.2525e-18
1.42244e-18
2.70326e-19
8.27409e-20
4.34191e-15
2.52537e-13
2.34888e-12
1.57522e-12
2.46847e-12
6.96867e-12
2.48743e-12
1.48304e-13
3.44548e-14
7.61528e-13
4.72725e-12
6.06673e-12
6.49112e-12
2.23906e-18
6.01955e-19
7.34005e-20
3.85471e-21
5.45431e-22
2.29076e-21
1.61563e-16
7.04136e-14
3.11674e-13
4.03149e-13
1.23866e-12
2.90312e-12
1.44528e-12
1.47176e-13
2.56414e-14
9.30302e-14
1.89397e-12
4.44929e-12
4.75747e-12
4.80564e-21
1.37688e-22
6.40184e-23
1.74488e-22
5.36652e-22
1.27835e-21
5.90391e-20
5.23795e-15
5.55422e-14
1.99648e-13
4.94284e-13
1.11358e-12
6.67878e-13
1.32749e-13
2.40178e-14
9.57335e-15
5.46101e-13
2.99117e-12
3.86001e-12
4.28786e-24
2.28209e-23
9.99532e-23
3.35039e-22
8.756e-22
3.81534e-21
3.57441e-19
7.37341e-17
1.25022e-15
5.58495e-14
2.67381e-13
5.75454e-13
3.69267e-13
1.10326e-13
2.64008e-14
5.68442e-15
8.14224e-14
1.84552e-12
3.25806e-12
1.07541e-23
4.80556e-23
1.6077e-22
4.68591e-22
1.30476e-21
3.55045e-21
2.66366e-20
8.13208e-19
1.22322e-16
2.10638e-14
1.08096e-13
2.50337e-13
1.8316e-13
9.10219e-14
2.97945e-14
5.72831e-15
3.92262e-15
3.76921e-13
2.39728e-12
1.38058e-23
6.11632e-23
1.9963e-22
6.08449e-22
1.74996e-21
4.42876e-21
1.40005e-20
1.86027e-19
1.22714e-17
1.10211e-15
4.17901e-14
1.05436e-13
9.52132e-14
6.57448e-14
2.8093e-14
7.73743e-15
2.33316e-15
1.02647e-14
1.54376e-12
1.51031e-23
6.6792e-23
2.23851e-22
7.1752e-22
2.13854e-21
5.34597e-21
1.29451e-20
5.39813e-20
1.21768e-18
7.39653e-17
9.78683e-15
4.61413e-14
5.21518e-14
4.1777e-14
2.27895e-14
8.74905e-15
2.41517e-15
4.70528e-16
8.85456e-13
1.38522e-23
6.38418e-23
2.25891e-22
7.70532e-22
2.40626e-21
6.30638e-21
1.44863e-20
3.10521e-20
1.18505e-19
4.13637e-18
1.98791e-16
1.38662e-14
2.868e-14
2.44075e-14
1.73562e-14
6.89923e-15
2.0782e-15
4.11652e-16
4.07547e-13
1.06873e-23
5.27336e-23
2.03592e-22
7.641e-22
2.57281e-21
7.1699e-21
1.69923e-20
3.4035e-20
6.59045e-20
1.59136e-19
4.04035e-18
4.30242e-16
4.33511e-15
1.19148e-14
7.62654e-15
3.96535e-15
1.31131e-15
3.62146e-16
1.15334e-13
5.66703e-24
3.69871e-23
1.55775e-22
6.47594e-22
2.34697e-21
7.03612e-21
1.79122e-20
3.82339e-20
7.63221e-20
1.37771e-19
2.50866e-19
1.65709e-18
5.49631e-17
1.37535e-15
9.08522e-16
1.37339e-15
6.71805e-16
3.18348e-16
1.17893e-14
3.58199e-24
2.07093e-23
1.00118e-22
4.39196e-22
1.64495e-21
5.40169e-21
1.53212e-20
3.67473e-20
8.17599e-20
1.42641e-19
2.59799e-19
4.09328e-19
1.07942e-18
3.12105e-17
1.02043e-17
3.37962e-16
3.72255e-16
2.78098e-16
2.32341e-16
1.32468e-24
1.01087e-23
5.04243e-23
2.36732e-22
9.73056e-22
3.57506e-21
1.14051e-20
3.07721e-20
7.1278e-20
1.38702e-19
2.75522e-19
4.64671e-19
7.27438e-19
1.54272e-18
2.84913e-18
4.66472e-17
3.05287e-16
2.53584e-16
5.52034e-18
4.8508e-25
3.74253e-24
2.06101e-23
1.08222e-22
5.04513e-22
2.04096e-21
7.00318e-21
2.06522e-20
5.34483e-20
1.17523e-19
2.74903e-19
4.91737e-19
8.01883e-19
1.34984e-18
3.42379e-18
3.54613e-17
2.05645e-16
2.20089e-16
4.55487e-18
1.48067e-25
1.29754e-24
7.74046e-24
4.34692e-23
2.20061e-22
9.71417e-22
3.69735e-21
1.222e-20
3.51915e-20
8.30566e-20
2.12703e-19
4.82272e-19
8.58613e-19
1.41803e-18
4.21159e-18
1.84811e-17
8.9759e-17
1.51318e-16
4.35853e-18
3.89174e-26
3.51092e-25
2.29084e-24
1.42e-23
7.96923e-23
3.93267e-22
1.64779e-21
5.85242e-21
1.82854e-20
4.91843e-20
1.05707e-19
3.35913e-19
7.80779e-19
1.46487e-18
3.46894e-18
9.83909e-18
1.43031e-17
5.03218e-17
4.19622e-18
8.45349e-27
8.16305e-26
5.79092e-25
3.9254e-24
2.41849e-23
1.30342e-22
6.02553e-22
2.46314e-21
8.44729e-21
2.49182e-20
6.28528e-20
1.52849e-19
4.43922e-19
1.04496e-18
2.03139e-18
2.96656e-18
1.36734e-18
4.55424e-18
3.71103e-18
1.62635e-27
1.28655e-26
1.19649e-25
8.87116e-25
6.25287e-24
3.84693e-23
2.01241e-22
9.03585e-22
3.40033e-21
1.08426e-20
3.00564e-20
6.73532e-20
2.0503e-19
4.90391e-19
7.66214e-19
8.19019e-19
8.08826e-19
6.48384e-19
2.14563e-18
2.76136e-28
2.47675e-27
2.05167e-26
1.69235e-25
1.31114e-24
9.07903e-24
5.44986e-23
2.66392e-22
1.1261e-21
4.25107e-21
1.17516e-20
3.41368e-20
7.59278e-20
1.76558e-19
2.60083e-19
3.45046e-19
5.81262e-19
5.35451e-19
9.8783e-19
4.06038e-29
3.53715e-28
3.13559e-27
2.82084e-26
2.40114e-25
1.8037e-24
1.15043e-23
6.48556e-23
3.33543e-22
1.35423e-21
4.08054e-21
1.35477e-20
2.92803e-20
5.74747e-20
7.94851e-20
1.55493e-19
3.25153e-19
2.92246e-19
2.96883e-19
5.14226e-30
4.57523e-29
4.22448e-28
4.0832e-27
3.6374e-26
2.84694e-25
2.08165e-24
1.42194e-23
7.89367e-23
3.577e-22
1.20537e-21
4.79368e-21
1.12771e-20
2.294e-20
3.08672e-20
5.77488e-20
1.08764e-19
1.77918e-19
8.64408e-20
5.87541e-31
5.56153e-30
5.31229e-29
5.15701e-28
4.63531e-27
4.09187e-26
3.49239e-25
2.51402e-24
1.49632e-23
7.49611e-23
3.57906e-22
1.0611e-21
3.96459e-21
7.92497e-21
1.44956e-20
2.68996e-20
5.73109e-20
8.71064e-20
3.2832e-20
6.31446e-32
6.25605e-31
6.26183e-30
6.24574e-29
6.03959e-28
5.55544e-27
4.90034e-26
3.73812e-25
2.51065e-24
1.36557e-23
6.27307e-23
3.04481e-22
8.87017e-22
2.8337e-21
6.23667e-21
1.27099e-20
2.52958e-20
3.44446e-20
1.01404e-20
5.96535e-33
6.63502e-32
7.07351e-31
7.05144e-30
6.90306e-29
6.59042e-28
5.9333e-27
4.8036e-26
3.49003e-25
2.20774e-24
1.10459e-23
5.94017e-23
2.26935e-22
7.28362e-22
1.8855e-21
4.23903e-21
8.8306e-21
9.29776e-21
3.25679e-21
5.30005e-34
6.49212e-33
7.16845e-32
7.07235e-31
6.59737e-30
6.04629e-29
5.81689e-28
5.51911e-27
4.12822e-26
2.76433e-25
1.82493e-24
9.73401e-24
4.24942e-23
1.50441e-22
4.63864e-22
1.13934e-21
1.80573e-21
2.35903e-21
6.23982e-22
4.01902e-35
6.57318e-34
7.83182e-33
8.00833e-32
7.40491e-31
6.50659e-30
5.77128e-29
5.56627e-28
4.54294e-27
3.10144e-26
1.90345e-25
1.1087e-24
5.37554e-24
2.19731e-23
6.65516e-23
1.74851e-22
4.34795e-22
2.86504e-22
1.641e-22
3.89037e-36
6.34598e-35
8.14856e-34
8.66937e-33
8.05628e-32
6.9545e-31
5.84868e-30
5.17705e-29
4.44376e-28
3.40212e-27
2.23525e-26
1.44104e-25
7.58243e-25
3.30918e-24
1.31451e-23
3.57673e-23
4.3654e-23
5.85765e-23
3.51403e-23
3.6215e-37
6.24619e-36
8.1016e-35
8.72119e-34
8.27233e-33
7.0217e-32
5.68531e-31
4.65765e-30
3.9432e-29
3.11259e-28
2.30994e-27
1.58942e-26
9.07514e-26
4.33282e-25
1.71488e-24
4.84495e-24
7.74419e-24
8.1562e-24
5.19082e-24
)
;

boundaryField
{
    leftWall
    {
        type            alphaContactAngle;
        contactAngleProperties 
        {
            mercury         
            {
                theta0          90;
            }
            air             
            {
                theta0          90;
            }
            oil             
            {
                theta0          90;
            }
        }
        value           nonuniform List<scalar> 
50
(
5.91008e-14
4.0908e-15
2.85778e-11
2.87945e-11
0.00771603
0.585975
1
1
1
1
1
1
0.700269
0.0126026
-2.63068e-17
-4.33508e-17
-5.4282e-17
-5.99908e-17
-5.97456e-17
-5.40555e-17
-4.43276e-17
-3.21556e-17
-1.97846e-17
-9.69674e-18
-3.40076e-18
-7.38715e-19
-7.54628e-20
3.6822e-32
3.27605e-42
7.51739e-49
4.76166e-49
2.29026e-49
7.44104e-50
1.5705e-50
2.30411e-51
2.16367e-52
1.24365e-53
4.74836e-55
1.35855e-56
1.94621e-58
1.93828e-60
1.52105e-62
6.2543e-65
1.64386e-67
2.04684e-70
1.83328e-73
6.22273e-77
8.30737e-81
4.7831e-86
1.30002e-95
)
;
    }
    rightWall
    {
        type            alphaContactAngle;
        contactAngleProperties 
        {
            mercury         
            {
                theta0          90;
            }
            air             
            {
                theta0          90;
            }
            oil             
            {
                theta0          90;
            }
        }
        value           nonuniform List<scalar> 
50
(
5.88732e-14
2.42336e-13
1.14679e-12
3.7701e-12
6.01405e-12
1.07663e-11
1.86872e-11
2.14087e-11
2.77291e-11
3.65394e-11
4.16309e-11
4.43511e-11
4.40914e-11
4.23119e-11
3.96201e-11
3.44496e-11
2.95372e-11
2.49233e-11
2.09295e-11
1.75426e-11
1.39934e-11
1.12539e-11
9.10107e-12
6.49112e-12
4.75747e-12
3.86001e-12
3.25806e-12
2.39728e-12
1.54376e-12
8.85456e-13
4.07547e-13
1.15334e-13
1.17893e-14
2.32341e-16
5.52034e-18
4.55487e-18
4.35853e-18
4.19622e-18
3.71103e-18
2.14563e-18
9.8783e-19
2.96883e-19
8.64408e-20
3.2832e-20
1.01404e-20
3.25679e-21
6.23982e-22
1.641e-22
3.51403e-23
5.19082e-24
)
;
    }
    lowerWall
    {
        type            alphaContactAngle;
        contactAngleProperties 
        {
            mercury         
            {
                theta0          90;
            }
            air             
            {
                theta0          90;
            }
            oil             
            {
                theta0          90;
            }
        }
        value           nonuniform List<scalar> 
62
(
5.91008e-14
1.35536e-12
3.23498e-12
4.32213e-12
4.90009e-12
6.1812e-12
8.13347e-12
1.06763e-11
1.40097e-11
1.82729e-11
2.30287e-11
2.82042e-11
3.34821e-11
3.92694e-11
4.34281e-11
4.62544e-11
4.94032e-11
5.27117e-11
5.7204e-11
1.23918e-10
6.77287e-10
2.67841e-09
2.56954e-09
2.56954e-09
2.57823e-09
3.02438e-09
2.57906e-09
8.25245e-10
1.07738e-08
4.57684e-08
5.05045e-08
4.20303e-07
4.79988e-07
6.21152e-05
0.000139197
1.12335e-10
1.14481e-10
1.23912e-10
1.17895e-10
1.07063e-10
8.65393e-11
-1.1589e-14
1.57138e-05
1.12335e-10
1.52941e-10
2.02883e-10
2.46687e-10
2.77804e-10
3.09818e-10
3.46684e-10
3.79063e-10
3.72789e-10
3.06716e-10
2.06923e-10
1.7361e-10
1.39119e-10
9.42866e-11
6.0143e-11
4.73359e-11
2.26547e-11
3.26609e-12
5.88732e-14
)
;
    }
    atmosphere
    {
        type            inletOutlet;
        inletValue      uniform 0;
        value           nonuniform List<scalar> 
46
(
0
0
0
0
0
0
0
0
0
0
0
0
0
0
0
0
0
0
0
0
0
0
0
0
0
2.60384e-39
3.28335e-38
3.6215e-37
6.24619e-36
8.1016e-35
8.72119e-34
8.27233e-33
7.0217e-32
5.68531e-31
4.65765e-30
3.9432e-29
3.11259e-28
2.30994e-27
1.58942e-26
9.07514e-26
4.33282e-25
1.71488e-24
4.84495e-24
7.74419e-24
8.1562e-24
5.19082e-24
)
;
    }
    defaultFaces
    {
        type            empty;
    }
}

