/*--------------------------------*- C++ -*----------------------------------*\
  =========                 |
  \\      /  F ield         | OpenFOAM: The Open Source CFD Toolbox
   \\    /   O peration     | Website:  https://openfoam.org
    \\  /    A nd           | Version:  13
     \\/     M anipulation  |
\*---------------------------------------------------------------------------*/
FoamFile
{
    format      ascii;
    class       volScalarField;
    location    "0.45";
    object      alpha.mercury;
}
// * * * * * * * * * * * * * * * * * * * * * * * * * * * * * * * * * * * * * //

dimensions      [];

internalField   nonuniform List<scalar> 
2268
(
1
1
1
1
1
1
1
1
1
1
1
1
1
1
1
1
1
1
1
1
1
1
0.99941
1
1
1
1
1
1
1
1
1
1
1
1
1
1
1
1
1
1
1
1
1
1
0.999395
1
1
1
1
1
1
1
1
1
1
1
1
1
1
1
1
1
1
1
1
1
1
0.999395
1
1
1
1
1
1
1
1
1
1
1
1
1
1
1
1
1
1
1
1
1
1
0.99976
0.992284
0.99587
0.99653
0.996927
0.997677
0.998457
0.999272
0.999796
1
1
1
1
1
1
1
1
1
1
1
1
1
1
1
0.414025
0.460756
0.470768
0.476554
0.488011
0.505013
0.52662
0.553057
0.585644
0.626859
0.675314
0.72679
0.792079
0.869389
0.956004
1
1
1
1
1
1
1
1
-7.76891e-93
-2.48049e-21
-1.57728e-21
-1.8407e-18
-5.16414e-19
-1.66717e-15
1.41126e-08
1.34628e-08
2.9782e-09
1.33887e-10
0.00512547
0.0270794
0.0636534
0.128137
0.24751
0.478837
0.807439
1
1
1
1
1
1
-2.51506e-92
-1.10687e-20
-7.36664e-21
-1.67968e-19
-2.72505e-19
-8.75345e-15
-8.85971e-15
-4.91159e-15
-1.94648e-15
-6.08768e-16
-1.57461e-16
-3.46915e-17
-7.50804e-18
-7.77066e-18
1.96118e-19
0.00559374
0.0967802
0.504386
0.98662
0.999992
0.999997
1
1
1.10574e-09
1.38174e-09
1.81983e-09
4.36103e-09
6.6607e-08
1.65263e-06
1.00892e-09
1.00466e-09
1.00886e-09
1.06682e-09
1.17867e-09
1.13601e-09
9.34993e-10
6.70731e-10
4.81987e-10
4.10795e-10
2.28039e-10
3.982e-11
9.46793e-13
1.09997e-09
1.88139e-09
2.71112e-09
2.22339e-09
5.63181e-06
1.71458e-06
0.00242083
0.00241062
0.00072506
1.0302e-05
1.28418e-09
1.80455e-09
1.10457e-09
1.06698e-09
8.16065e-10
5.67389e-10
3.37011e-10
7.51367e-11
3.6535e-12
1.16174e-09
2.2433e-09
2.25352e-09
2.29547e-09
6.71245e-06
5.03926e-07
0.0105481
0.0156785
0.00779342
0.0018431
4.62008e-06
1.31701e-09
9.84311e-10
1.04642e-09
1.44835e-09
1.04605e-09
4.93614e-10
1.47741e-10
1.43411e-11
1.13082e-09
2.28999e-09
4.57005e-09
2.49062e-09
2.37731e-07
2.84544e-07
0.0891109
0.262731
0.0647422
0.0122515
0.000131974
1.85022e-09
3.53126e-08
5.29288e-08
1.74179e-08
3.09178e-09
8.6797e-10
2.79882e-10
3.57988e-11
9.65578e-10
9.3179e-10
8.34026e-08
4.42076e-09
5.97892e-26
0.0633595
0.488975
0.548282
0.50978
0.0781794
0.011234
-1.43857e-19
4.50384e-08
4.23134e-08
1.33411e-08
4.03389e-09
1.40088e-09
3.86586e-10
5.05502e-11
7.47109e-10
4.63445e-12
4.60841e-07
6.53962e-19
0.00638096
0.443255
0.546663
0.548554
0.544411
0.254416
0.0385371
6.89534e-09
8.46429e-09
7.94244e-09
5.30477e-09
3.13568e-09
1.31715e-09
3.95049e-10
8.22856e-11
-5.29538e-14
7.46975e-10
0.00258617
0.0377747
0.385602
0.603582
0.550399
0.547915
0.389804
0.243056
0.0262653
0.000410649
2.96494e-09
5.47233e-09
4.10066e-09
2.59406e-09
1.17137e-09
4.24361e-10
1.34604e-10
0.250085
0.218632
0.3242
0.436728
0.613095
0.611443
0.543873
0.323526
0.0710127
0.00310335
0.00545242
0.000583514
3.22405e-06
3.89903e-09
3.20159e-09
1.96028e-09
1.03691e-09
5.17814e-10
1.62038e-10
-3.10269e-92
-6.82025e-21
-7.00993e-21
-2.29556e-19
-3.72454e-19
-3.75817e-19
-3.03589e-19
-2.11551e-19
-1.30895e-19
-7.30873e-20
-1.103e-19
-5.65154e-19
-2.87816e-18
-1.0286e-17
6.96254e-12
7.94773e-15
1.20315e-19
0.00293151
0.213349
0.709041
0.999996
1
1
6.11406e-66
-6.49404e-21
-6.7495e-21
-1.70828e-19
-2.75337e-19
-2.79226e-19
-2.2435e-19
-1.55465e-19
-9.68972e-20
-5.56776e-20
-3.00347e-20
-6.36847e-19
-5.61555e-18
-2.93766e-17
1.34331e-13
7.57556e-15
2.10499e-15
3.10051e-08
1.18992e-10
0.0236313
0.367846
0.845087
0.989537
2.66702e-64
-2.42214e-21
-2.51518e-21
-2.08044e-21
-1.59902e-21
-1.19797e-21
-8.90746e-22
-6.60743e-22
-4.88812e-22
-3.68997e-22
-3.16436e-22
-3.7425e-19
-3.68187e-18
-2.06217e-17
1.62028e-19
4.97147e-13
1.00604e-13
7.40739e-10
1.82405e-10
1.00152e-07
0.000149499
0.0884208
0.227794
0
-3.35628e-22
-3.55605e-22
-2.95278e-22
-2.23942e-22
-1.62056e-22
-1.13994e-22
-7.87518e-23
-5.38146e-23
-3.83714e-23
-3.56535e-23
-8.43849e-20
-8.85442e-19
-5.33474e-18
-2.7459e-17
8.625e-14
5.10126e-13
1.61427e-10
-1.1091e-16
2.35949e-06
7.47299e-06
6.74501e-14
-9.72871e-10
1.14829e-61
8.7394e-68
1.32288e-65
8.18781e-64
3.10687e-62
8.12868e-61
5.64085e-60
2.37558e-59
7.23283e-58
5.96121e-56
9.74896e-57
2.29468e-57
5.13789e-59
1.23849e-59
-2.96544e-19
2.5357e-15
7.91729e-14
1.864e-12
-3.32826e-15
1.72244e-07
1.6074e-08
8.71691e-12
4.17107e-07
4.23091e-60
3.52996e-59
1.51807e-57
3.19747e-56
5.15995e-55
5.66723e-54
2.1309e-53
2.49265e-53
1.70289e-53
2.07633e-54
4.69386e-55
7.70952e-56
1.23568e-56
7.24211e-56
6.19644e-64
3.94411e-17
3.67687e-15
4.22133e-15
9.41224e-17
3.12001e-09
3.7815e-09
2.02199e-09
1.44875e-09
2.2699e-59
2.45551e-58
1.00769e-56
2.13071e-55
3.5067e-54
4.07933e-53
2.49184e-52
2.95455e-52
1.97266e-52
5.93101e-53
1.31531e-53
3.55423e-54
1.39184e-54
2.19411e-52
3.23051e-53
-2.47521e-42
2.20571e-17
2.76814e-17
1.96684e-18
5.62987e-11
9.47658e-15
3.3572e-10
1.26193e-08
1.05277e-58
2.0806e-57
6.47389e-56
1.28401e-54
1.99672e-53
2.48194e-52
1.26359e-51
1.33103e-51
8.70454e-52
3.36871e-52
7.96149e-53
2.45645e-53
3.03728e-53
9.02424e-51
5.37262e-52
5.7238e-51
9.37835e-52
1.19339e-51
1.72258e-17
1.15256e-14
6.55919e-15
4.91113e-11
2.50395e-12
4.37697e-58
1.24938e-56
3.26587e-55
7.48603e-54
1.13054e-52
1.40837e-51
6.74057e-51
7.51289e-51
4.83815e-51
1.37773e-51
4.59196e-52
1.19062e-52
1.23703e-51
1.29804e-49
1.03362e-49
2.34526e-50
1.06786e-48
4.20302e-46
2.83763e-45
2.17739e-17
5.02513e-15
1.27048e-31
-2.99871e-35
1.71154e-57
7.72288e-56
2.12547e-54
4.02842e-53
6.74198e-52
7.21439e-51
3.44071e-50
3.46538e-50
2.00972e-50
4.83702e-51
2.2231e-51
7.48296e-52
4.55652e-50
7.56731e-48
2.33427e-48
2.81484e-49
4.14546e-48
2.00151e-45
7.16993e-45
1.87264e-43
8.80838e-45
2.08977e-18
1.1124e-17
6.2856e-57
3.19648e-55
9.31967e-54
1.65161e-52
3.12726e-51
3.25007e-50
1.6979e-49
1.58737e-49
7.69181e-50
1.20728e-50
8.65772e-51
4.458e-51
5.3126e-49
3.25074e-46
9.81914e-47
6.35276e-48
2.7272e-47
4.03869e-43
4.19651e-43
5.05877e-41
1.17992e-40
9.77676e-39
8.82717e-41
2.16391e-56
1.18802e-54
3.64058e-53
8.0454e-52
1.26759e-50
1.25206e-49
7.72354e-49
6.44984e-49
2.62316e-49
2.63415e-50
3.13018e-50
1.883e-50
7.0079e-48
3.16114e-45
1.24955e-45
3.79235e-46
4.04513e-46
3.22023e-41
1.11554e-40
8.17606e-39
6.83187e-39
1.40033e-37
1.66915e-36
7.05191e-56
3.98008e-54
1.24923e-52
2.73383e-51
4.38916e-50
4.14912e-49
2.79336e-48
2.3007e-48
8.31693e-49
6.0543e-50
1.68302e-49
7.06359e-49
1.28113e-45
8.64389e-44
1.70863e-43
3.91155e-43
1.04518e-42
3.19818e-39
1.17801e-38
1.14352e-37
9.07138e-37
1.2215e-35
1.15394e-34
2.21987e-55
1.25092e-53
3.90293e-52
8.50799e-51
1.30267e-49
1.2123e-48
7.81864e-48
8.29762e-48
3.25496e-48
2.11742e-47
2.41605e-46
1.58563e-45
1.91828e-44
1.12131e-42
2.52383e-42
1.74031e-40
5.54011e-40
4.71564e-38
2.07719e-37
1.50524e-36
1.65827e-35
2.73986e-34
1.86799e-33
6.8914e-55
3.8428e-53
1.16847e-51
2.36083e-50
3.20864e-49
3.07108e-48
2.52679e-47
3.62737e-47
4.39622e-46
4.0326e-45
4.59729e-44
3.89616e-43
4.02994e-42
5.36085e-41
2.56785e-40
1.20288e-38
4.56104e-38
1.18532e-36
6.19248e-36
4.73168e-35
3.4471e-34
2.15267e-33
8.82056e-33
2.11152e-54
1.17204e-52
3.46793e-51
5.12748e-50
6.23551e-49
7.14341e-48
9.04195e-47
1.37496e-45
1.41829e-44
1.56247e-43
1.67401e-42
1.60251e-41
1.3883e-40
9.93109e-40
7.90439e-39
1.90541e-37
8.94471e-37
1.02441e-35
5.34853e-35
3.5304e-34
1.7175e-33
6.24745e-33
2.35138e-32
6.17894e-54
3.4436e-52
9.99847e-51
2.27858e-49
4.00374e-48
6.91692e-47
1.02275e-45
1.35549e-44
1.49579e-43
1.82818e-42
1.82718e-41
1.82267e-40
1.41023e-39
1.04997e-38
8.75359e-38
1.08348e-36
6.13398e-36
3.90009e-35
1.96475e-34
1.01276e-33
3.84371e-33
1.86721e-32
7.59277e-32
2.77464e-53
1.71507e-51
5.39889e-50
1.18084e-48
2.15185e-47
3.45533e-46
4.97312e-45
6.49429e-44
7.87631e-43
9.48103e-42
9.10259e-41
9.00747e-40
6.66436e-39
5.64859e-38
4.45922e-37
3.15304e-36
1.97811e-35
8.58233e-35
4.3593e-34
2.40827e-33
1.43941e-32
1.78588e-31
4.75997e-30
5.35969e-53
3.62333e-51
1.28497e-49
3.2387e-48
6.50112e-47
1.07514e-45
1.51682e-44
2.11986e-43
2.65352e-42
2.92808e-41
2.88327e-40
2.72686e-39
2.16602e-38
1.77217e-37
1.28214e-36
6.61123e-36
4.22387e-35
2.47802e-34
1.66647e-33
2.78477e-32
5.47449e-31
1.3455e-29
2.59183e-28
7.25014e-53
5.64749e-51
2.27222e-49
6.47762e-48
1.41604e-46
2.46723e-45
3.72063e-44
5.23122e-43
6.36781e-42
6.85414e-41
6.87771e-40
6.1504e-39
5.00052e-38
3.82742e-37
2.62091e-36
1.84791e-35
1.45433e-34
2.17223e-33
4.96514e-32
1.05347e-30
1.6823e-29
2.71873e-28
3.5909e-27
8.1193e-53
7.12163e-51
3.136e-49
9.52519e-48
2.18972e-46
4.11057e-45
6.75584e-44
9.68952e-43
1.19666e-41
1.30545e-40
1.28694e-39
1.13629e-38
9.38133e-38
7.5857e-37
7.35536e-36
1.00401e-34
1.92452e-33
4.13948e-32
7.56567e-31
1.11205e-29
1.4095e-28
1.52834e-27
1.80996e-26
8.66011e-53
7.55778e-51
3.4626e-49
1.08211e-47
2.58366e-46
5.15592e-45
8.87116e-44
1.29012e-42
1.62593e-41
1.82272e-40
1.85507e-39
1.77163e-38
1.76664e-37
2.28258e-36
4.15131e-35
8.15006e-34
1.33773e-32
2.44075e-31
3.29929e-30
3.72657e-29
3.78108e-28
3.56401e-27
3.7827e-26
7.05155e-53
6.53471e-51
3.1196e-49
1.01227e-47
2.54244e-46
5.30928e-45
9.31341e-44
1.37145e-42
1.7539e-41
2.00843e-40
2.14586e-39
2.39979e-38
3.46326e-37
6.63837e-36
1.34133e-34
2.41757e-33
3.24558e-32
5.14015e-31
5.86044e-30
5.98858e-29
5.85772e-28
5.3876e-27
4.87508e-26
4.25453e-53
4.13268e-51
2.05132e-49
6.96436e-48
1.84395e-46
4.01968e-45
7.25149e-44
1.09497e-42
1.43795e-41
1.73014e-40
2.08321e-39
2.8753e-38
5.26271e-37
1.09806e-35
2.11358e-34
3.52779e-33
4.35197e-32
6.26952e-31
6.82591e-30
7.09552e-29
6.7651e-28
5.88293e-27
4.70693e-26
1.7259e-53
1.79789e-51
9.50556e-50
3.427e-48
9.54693e-47
2.16099e-45
4.03177e-44
6.29205e-43
8.54417e-42
1.12042e-40
1.61853e-39
2.76445e-38
5.71983e-37
1.18893e-35
2.16155e-34
3.33439e-33
4.1757e-32
5.26657e-31
5.32626e-30
4.82161e-29
4.64875e-28
4.34868e-27
3.15542e-26
4.54373e-54
5.11964e-52
2.96331e-50
1.16884e-48
3.50658e-47
8.4133e-46
1.6589e-44
2.76329e-43
4.02328e-42
5.55837e-41
8.77316e-40
1.68049e-38
3.43279e-37
6.66947e-36
1.11109e-34
1.56919e-33
1.99053e-32
2.38359e-31
2.67727e-30
2.82661e-29
2.68781e-28
2.18125e-27
1.55249e-26
8.90516e-55
1.11005e-52
6.96452e-51
2.94204e-49
9.40156e-48
2.39666e-46
5.01304e-45
8.81981e-44
1.35162e-42
1.98887e-41
3.31896e-40
6.32047e-39
1.22615e-37
2.23227e-36
3.61269e-35
5.44562e-34
7.6891e-33
9.41849e-32
9.78288e-31
9.20395e-30
8.80179e-29
7.82579e-28
5.77212e-27
1.14031e-55
1.57693e-53
1.08808e-51
4.95556e-50
1.71082e-48
4.74697e-47
1.07567e-45
2.02899e-44
3.35034e-43
5.25055e-42
8.64345e-41
1.58018e-39
3.0426e-38
5.63421e-37
9.46717e-36
1.42495e-34
1.95906e-33
2.49772e-32
2.89798e-31
2.97036e-30
2.69878e-29
2.25734e-28
1.77464e-27
8.84733e-57
1.32814e-54
9.9267e-53
5.0317e-51
1.93968e-49
5.87975e-48
1.42106e-46
2.82512e-45
4.87686e-44
7.89998e-43
1.33633e-41
2.5334e-40
5.08235e-39
9.70149e-38
1.66199e-36
2.5091e-35
3.40907e-34
4.25692e-33
4.71666e-32
4.86268e-31
5.20196e-30
5.04749e-29
4.06257e-28
4.14994e-58
6.99185e-56
5.77005e-54
3.21881e-52
1.36878e-50
4.58964e-49
1.22159e-47
2.64504e-46
4.89762e-45
8.32297e-44
1.43564e-42
2.74383e-41
5.68056e-40
1.14745e-38
2.08235e-37
3.31848e-36
4.74353e-35
6.2806e-34
7.87498e-33
9.23106e-32
9.66137e-31
9.02515e-30
7.80016e-29
1.38147e-59
2.58969e-57
2.35411e-55
1.4321e-53
6.65087e-52
2.45622e-50
7.23391e-49
1.72307e-47
3.44931e-46
6.13317e-45
1.05546e-43
1.98309e-42
4.23304e-41
9.19339e-40
1.82489e-38
3.23988e-37
5.18052e-36
7.50847e-35
1.0111e-33
1.21242e-32
1.24558e-31
1.23912e-30
1.12673e-29
2.20812e-61
5.04087e-59
5.52541e-57
3.97567e-55
2.13196e-53
8.90955e-52
2.95717e-50
7.96662e-49
1.80236e-47
3.59528e-46
6.74842e-45
1.27554e-43
2.53575e-42
5.28744e-41
1.08398e-39
2.05078e-38
3.5462e-37
5.83012e-36
9.09768e-35
1.2365e-33
1.45884e-32
1.52992e-31
1.48193e-30
2.3952e-63
6.68687e-61
9.51782e-59
7.87459e-57
4.78029e-55
2.24446e-53
8.38518e-52
2.56574e-50
6.58962e-49
1.44019e-47
2.81641e-46
5.32554e-45
1.02135e-43
2.19597e-42
4.84162e-41
1.02053e-39
2.21653e-38
4.64448e-37
7.94731e-36
1.07317e-34
1.28262e-33
1.52798e-32
1.62056e-31
2.01072e-65
6.32641e-63
9.34259e-61
9.05913e-59
6.49922e-57
3.59844e-55
1.57289e-53
5.60359e-52
1.67592e-50
4.27906e-49
9.39155e-48
1.82521e-46
3.51294e-45
7.72364e-44
1.90498e-42
4.72507e-41
1.09389e-39
2.28228e-38
4.19476e-37
6.53889e-36
9.17336e-35
1.26261e-33
1.49601e-32
8.3518e-68
2.90528e-65
4.70167e-63
5.81296e-61
5.46434e-59
3.32395e-57
1.77293e-55
7.41804e-54
2.59201e-52
7.621e-51
1.92749e-49
4.49582e-48
1.06093e-46
2.60109e-45
6.61726e-44
1.74074e-42
2.63682e-41
1.148e-39
2.29608e-38
3.76937e-37
5.49719e-36
8.08315e-35
1.06597e-33
2.41311e-70
1.08231e-67
2.27176e-65
3.13918e-63
3.15427e-61
2.42342e-59
1.48472e-57
7.49398e-56
3.17979e-54
1.11785e-52
3.15606e-51
8.63453e-50
2.5344e-48
6.23368e-47
1.56738e-45
4.19657e-44
6.92408e-43
3.15256e-41
6.77445e-40
1.33933e-38
2.68635e-37
4.77483e-36
5.52018e-35
3.2187e-73
1.66222e-70
4.11362e-68
6.81906e-66
8.32306e-64
7.95787e-62
6.13214e-60
3.85101e-58
2.03289e-56
8.83698e-55
3.05688e-53
1.02135e-51
3.55893e-50
9.85871e-49
2.71056e-47
7.79673e-46
1.34168e-44
6.17729e-43
1.53097e-41
3.38952e-40
7.5481e-39
1.73636e-37
3.33361e-36
2.82937e-76
1.41652e-73
3.94821e-71
8.01749e-69
1.24642e-66
1.52135e-64
1.52649e-62
1.29114e-60
9.07892e-59
5.14122e-57
2.29306e-55
9.88774e-54
4.29285e-52
1.41649e-50
4.33591e-49
1.29773e-47
2.44816e-46
1.27897e-44
3.91827e-43
1.12219e-41
2.9198e-40
6.77456e-39
1.04349e-37
9.48943e-80
3.65516e-77
1.07837e-74
2.66843e-72
5.51078e-70
9.33322e-68
1.28794e-65
1.45354e-63
1.35657e-61
1.0608e-59
7.04213e-58
4.02459e-56
2.00679e-54
8.81477e-53
3.42695e-51
1.20203e-49
2.59892e-48
1.59012e-46
6.1201e-45
1.69417e-43
5.22282e-42
2.1354e-40
5.5556e-39
1.29461e-83
3.21548e-81
8.95941e-79
2.61132e-76
7.29342e-74
1.78983e-71
3.6938e-69
6.30961e-67
8.89056e-65
9.92427e-63
8.51311e-61
7.05596e-59
5.73343e-57
3.42399e-55
1.79607e-53
8.42808e-52
2.40093e-50
1.51781e-48
6.55415e-47
2.95447e-45
1.26692e-43
4.85294e-42
1.16589e-40
7.66428e-89
1.28711e-86
3.07754e-84
1.05565e-81
4.30475e-79
1.70959e-76
5.89301e-74
1.68081e-71
3.91629e-69
7.47523e-67
1.18122e-64
1.56916e-62
1.78348e-60
1.7596e-58
1.51219e-56
1.11993e-54
7.0923e-53
2.68975e-51
2.28565e-49
1.40233e-47
1.03873e-45
7.20166e-44
3.47128e-42
1.98436e-98
1.71009e-96
4.37396e-94
2.53591e-91
2.34603e-88
2.50667e-85
2.4745e-82
2.04512e-79
1.37973e-76
7.60887e-74
3.45169e-71
1.2916e-68
3.98632e-66
1.0227e-63
2.24445e-61
4.37721e-59
7.65613e-57
8.00223e-55
1.66016e-52
2.20715e-50
2.81289e-48
3.19016e-46
2.9055e-44
1
0.999999
0.999925
0.965219
0.98927
0.987056
0.995163
0.993783
0.238203
0.265719
0.460778
0.490214
1.60353e-24
2.30265e-24
9.39322e-24
9.95482e-24
7.86019e-07
1.24694e-06
1.82798e-06
2.45193e-06
2.16909e-09
1.1287e-09
6.19071e-08
2.40901e-06
1.4525e-08
7.88885e-09
1.57776e-13
5.70005e-18
1.3935e-13
2.83619e-29
1.0936e-14
7.88939e-15
1.23398e-31
-7.11596e-35
1.19893e-17
7.49445e-17
1.68636e-17
2.44789e-17
3.11089e-17
8.80901e-17
1.17128e-36
3.42775e-36
5.0036e-36
1.7615e-35
5.28268e-36
2.2504e-35
5.19532e-35
2.45146e-34
2.45105e-34
4.28231e-34
7.29293e-34
1.11457e-33
2.80496e-33
3.83465e-33
4.76811e-33
5.51301e-33
1.24429e-32
1.63658e-32
2.55859e-32
4.10268e-32
3.79463e-32
7.5801e-32
4.03333e-31
4.71879e-30
4.97461e-31
1.07133e-29
1.38925e-28
1.28612e-27
9.67984e-29
1.14471e-27
9.38129e-27
5.63692e-26
3.69439e-27
2.59362e-26
1.38537e-25
6.26319e-25
3.83589e-26
1.82678e-25
7.61281e-25
2.78021e-24
1.46041e-25
5.62689e-25
2.06664e-24
6.23719e-24
2.64172e-25
9.75064e-25
3.26927e-24
8.81701e-24
3.22851e-25
1.22395e-24
3.71521e-24
9.77332e-24
3.04759e-25
1.05522e-24
3.23121e-24
8.5833e-24
2.05253e-25
6.77787e-25
2.07279e-24
5.81723e-24
9.98656e-26
3.45729e-25
1.04773e-24
3.10411e-24
4.05594e-26
1.4438e-25
4.76707e-25
1.42745e-24
1.17979e-26
4.14737e-26
1.68547e-25
5.23681e-25
3.04495e-27
1.14286e-26
4.11929e-26
1.40261e-25
6.09387e-28
2.36519e-27
8.94714e-27
3.352e-26
8.3063e-29
3.6405e-28
1.64649e-27
6.53078e-27
1.3223e-29
5.97508e-29
2.65458e-28
1.26749e-27
1.43464e-30
6.70514e-30
3.1781e-29
1.64889e-28
1.4324e-31
7.12262e-31
3.81961e-30
2.16962e-29
1.19401e-32
6.83065e-32
3.91826e-31
2.26248e-30
8.67525e-34
4.99643e-33
3.11644e-32
2.00118e-31
5.24388e-35
3.89756e-34
2.69791e-33
1.75776e-32
2.36325e-36
1.91472e-35
1.57799e-34
1.23341e-33
1.17044e-37
1.12691e-36
1.00783e-35
8.45753e-35
4.24039e-39
4.8715e-38
4.96773e-37
4.40946e-36
1.21056e-40
1.82812e-39
2.5028e-38
3.12034e-37
1.90108e-42
4.98168e-41
1.07496e-39
1.8838e-38
0.83038
0.721054
0.692831
0.688644
0.662321
0.333232
0.0833257
-2.496e-06
2.5001e-06
9.70629e-10
1.08965e-08
1.82676e-05
3.63027e-07
1.81492e-09
1.38845e-09
1.10894e-09
8.19371e-10
5.39163e-10
2.10887e-10
0.900373
0.802186
0.635294
0.407581
0.332231
0.027196
0.000178705
2.84107e-07
2.2428e-08
1.71128e-08
6.15713e-09
1.10354e-08
1.26276e-09
7.56843e-10
6.42463e-10
6.56813e-10
5.83545e-10
4.91938e-10
2.50464e-10
0.25046
0.0449228
-1.34353e-06
0.000996753
3.85618e-10
2.70047e-20
7.32935e-10
7.30356e-09
4.64188e-08
8.95696e-08
6.06397e-08
7.69356e-09
1.99343e-09
9.34425e-10
6.06052e-10
5.00997e-10
4.29674e-10
4.15034e-10
2.47804e-10
-3.67375e-11
-4.59329e-24
3.31359e-24
-1.09269e-12
1.29846e-06
4.90044e-06
3.65058e-06
2.35271e-07
4.65644e-09
8.36837e-08
6.49395e-08
3.31988e-08
9.94006e-09
1.36468e-09
5.70532e-10
3.12131e-10
3.09478e-10
3.45697e-10
2.33207e-10
1.69257e-06
2.26657e-07
1.39016e-24
6.40114e-18
4.26969e-06
7.84608e-06
8.04541e-06
3.21561e-07
-1.78714e-26
4.5075e-08
6.74486e-08
6.50999e-08
1.85878e-08
1.98675e-09
4.47956e-10
2.19776e-10
2.5126e-10
3.0363e-10
2.09923e-10
2.16817e-06
3.45755e-08
5.06443e-10
1.09674e-10
2.55643e-13
1.9311e-06
1.55327e-06
2.27836e-07
-2.69635e-15
8.13756e-09
4.78956e-08
4.50726e-08
1.45371e-08
1.30121e-09
2.91898e-10
1.90423e-10
1.9768e-10
2.47262e-10
1.82872e-10
2.66945e-18
6.84015e-10
1.16864e-09
6.56326e-10
2.08557e-13
2.55642e-13
2.08557e-13
2.55643e-13
6.33411e-12
8.32221e-12
2.82124e-09
7.19175e-09
5.53163e-09
1.16222e-09
2.63022e-10
1.27299e-10
1.59234e-10
2.12175e-10
1.62611e-10
2.57271e-16
4.89539e-25
6.65955e-19
9.17718e-12
2.53047e-11
2.29645e-11
7.99429e-12
1.42184e-12
7.97645e-13
1.12018e-12
1.1396e-12
1.3134e-10
5.85728e-10
2.56412e-10
1.40727e-10
9.24309e-11
1.28166e-10
1.85261e-10
1.34172e-10
1.23673e-16
7.4059e-17
1.38501e-17
1.9185e-18
7.07704e-15
8.39732e-14
3.84093e-13
4.7234e-13
3.8551e-13
6.09551e-13
1.27245e-11
9.71969e-11
6.68106e-11
3.34006e-11
4.04275e-11
6.69737e-11
9.79408e-11
1.55079e-10
1.12741e-10
1.22749e-16
9.59271e-17
5.59947e-17
1.20825e-17
1.10492e-21
2.35589e-23
3.26656e-24
4.12808e-15
2.47949e-14
2.16974e-13
1.24884e-11
8.7246e-11
3.93203e-11
5.19637e-12
6.24225e-12
3.61726e-11
8.94695e-11
1.32073e-10
9.35033e-11
3.08831e-37
1.4773e-36
2.55488e-27
2.83169e-25
2.88314e-24
1.6478e-23
2.77097e-23
3.42317e-18
1.61307e-16
4.27164e-14
6.44164e-12
6.08066e-11
2.7702e-11
9.55016e-13
2.05393e-12
2.77198e-11
8.07473e-11
1.06185e-10
7.69865e-11
5.55978e-33
2.36825e-32
1.02392e-31
3.1454e-31
3.4655e-29
3.32136e-27
5.02417e-27
1.76791e-22
7.50264e-18
1.77004e-14
1.39627e-12
2.14416e-11
1.83986e-11
5.52956e-13
2.06295e-12
1.83231e-11
5.76202e-11
8.44633e-11
6.32243e-11
1.36237e-32
4.64088e-32
3.14618e-31
1.00146e-30
3.3714e-28
2.85933e-26
9.47874e-26
4.29495e-25
6.80484e-19
5.19587e-15
3.51651e-13
7.05174e-12
5.78513e-12
3.71546e-13
1.26658e-12
1.27425e-11
3.90899e-11
5.92975e-11
4.88166e-11
2.07919e-32
8.16328e-32
1.22841e-29
1.94676e-28
7.49743e-27
3.95627e-25
1.79972e-24
5.33646e-24
7.91634e-20
6.7081e-16
7.22827e-14
2.98824e-12
3.40068e-12
2.56303e-13
4.07593e-13
7.97269e-12
2.77267e-11
4.21902e-11
3.79566e-11
6.86128e-31
4.59338e-29
4.39671e-27
4.20205e-26
4.84645e-25
2.81174e-24
2.32594e-23
4.81507e-23
1.23984e-20
9.80933e-17
1.72624e-14
1.49712e-12
2.12106e-12
1.64141e-13
1.2522e-13
4.24859e-12
1.92589e-11
2.96358e-11
2.98416e-11
2.18017e-28
1.01561e-26
2.551e-25
1.99028e-24
1.26725e-23
4.37178e-23
1.77624e-22
3.03909e-22
1.91427e-21
1.19608e-17
1.30338e-15
5.82309e-13
1.35371e-12
1.08202e-13
2.06189e-14
1.37405e-12
9.94279e-12
1.58967e-11
2.10482e-11
1.75535e-26
3.9494e-25
4.28512e-24
2.5823e-23
1.23062e-22
3.85463e-22
7.97383e-22
1.52011e-21
2.18626e-21
1.49606e-19
1.06421e-16
1.6461e-13
6.18501e-13
8.85281e-14
5.60264e-15
1.7782e-13
4.19373e-12
1.16239e-11
1.59716e-11
3.88802e-25
4.24196e-24
2.92057e-23
1.39757e-22
5.22906e-22
1.09427e-21
2.4201e-21
4.37626e-21
6.4444e-21
2.48033e-20
8.3904e-19
4.16287e-14
1.93181e-13
4.93291e-14
3.62217e-15
1.21557e-14
1.28859e-12
7.71031e-12
1.34656e-11
2.80788e-24
1.98811e-23
1.0459e-22
4.36471e-22
1.22294e-21
3.05361e-21
6.19193e-21
1.00559e-20
1.42765e-20
1.6417e-20
4.34335e-19
1.71201e-14
7.42588e-14
2.22287e-14
3.19044e-15
4.409e-16
1.68233e-13
4.66137e-12
1.16388e-11
1.0091e-23
6.08341e-23
2.591e-22
8.70694e-22
2.61747e-21
6.39215e-21
1.25194e-20
2.02708e-20
2.79197e-20
3.82542e-20
1.75288e-19
5.0506e-15
1.88596e-14
1.25091e-14
3.03196e-15
3.21207e-16
3.92242e-15
8.96012e-13
8.83761e-12
1.98294e-23
1.13956e-22
4.36264e-22
1.48974e-21
4.53905e-21
1.09236e-20
2.15262e-20
3.56079e-20
5.11571e-20
6.48956e-20
1.06479e-19
1.32235e-15
4.9391e-15
5.83952e-15
2.232e-15
3.41734e-16
1.54133e-16
2.09535e-14
5.99579e-12
2.87549e-23
1.61665e-22
6.25291e-22
2.15449e-21
6.64377e-21
1.62808e-20
3.31585e-20
5.72961e-20
8.50766e-20
1.13731e-19
1.44348e-19
2.9371e-16
1.74477e-15
2.57193e-15
1.36936e-15
3.34287e-16
1.4091e-16
3.3959e-16
3.93647e-12
3.35102e-23
1.87062e-22
7.39005e-22
2.67278e-21
8.46167e-21
2.17852e-20
4.74117e-20
8.6182e-20
1.31196e-19
1.87627e-19
2.44449e-19
4.15292e-17
7.789e-16
1.14612e-15
7.91285e-16
1.98189e-16
1.31107e-16
3.08971e-16
2.44412e-12
3.10262e-23
1.78963e-22
7.49743e-22
2.91179e-21
9.82151e-21
2.67981e-20
6.10972e-20
1.1555e-19
1.93417e-19
2.87434e-19
4.01034e-19
8.28222e-19
8.17567e-17
4.44271e-16
1.93962e-16
9.09843e-17
1.22207e-16
3.2123e-16
1.22844e-12
1.83528e-23
1.38836e-22
6.21007e-22
2.62796e-21
9.45369e-21
2.76721e-20
6.80138e-20
1.39013e-19
2.59222e-19
4.03079e-19
5.59899e-19
8.13288e-19
1.75352e-18
2.61736e-17
1.25611e-17
3.41273e-17
1.44397e-16
3.65578e-16
3.2423e-13
1.29795e-23
8.3777e-23
4.24461e-22
1.88104e-21
6.96545e-21
2.22663e-20
6.07776e-20
1.39604e-19
2.93435e-19
4.78174e-19
7.6384e-19
1.02855e-18
1.48545e-18
2.57248e-18
4.00876e-18
2.38426e-17
1.82908e-16
4.07776e-16
2.33908e-14
5.01699e-24
4.28963e-23
2.2323e-22
1.05542e-21
4.2808e-21
1.53168e-20
4.71384e-20
1.21696e-19
2.67428e-19
4.93901e-19
9.0216e-19
1.36624e-18
1.79664e-18
2.76782e-18
4.84413e-18
2.93253e-17
2.19085e-16
4.11892e-16
2.34371e-16
1.88609e-24
1.63391e-23
9.40272e-23
4.97884e-22
2.296e-21
9.08092e-21
3.01413e-20
8.5127e-20
2.09419e-19
4.36804e-19
9.44531e-19
1.5914e-18
2.38747e-18
3.36826e-18
7.25111e-18
3.91688e-17
2.17086e-16
4.09186e-16
2.94074e-17
5.86316e-25
5.79646e-24
3.61915e-23
2.0564e-22
1.03266e-21
4.46764e-21
1.65084e-20
5.25065e-20
1.44586e-19
3.26631e-19
7.82069e-19
1.62856e-18
2.78606e-18
4.34735e-18
1.1329e-17
3.74176e-17
1.82602e-16
3.69261e-16
1.81853e-17
1.53993e-25
1.57721e-24
1.08718e-23
6.85977e-23
3.83609e-22
1.86411e-21
7.63505e-21
2.63499e-20
7.94505e-20
2.05386e-19
4.27892e-19
1.23316e-18
2.65196e-18
4.86767e-18
1.06045e-17
3.14814e-17
8.77417e-17
2.1809e-16
1.61477e-17
3.26209e-26
3.6481e-25
2.77249e-24
1.92743e-23
1.18915e-22
6.34042e-22
2.87853e-21
1.14954e-20
3.84277e-20
1.09797e-19
2.68268e-19
6.26039e-19
1.68451e-18
3.8001e-18
7.97765e-18
1.58941e-17
1.54708e-17
4.45477e-17
1.41709e-17
5.9204e-27
5.54612e-26
5.71489e-25
4.39627e-24
3.12145e-23
1.9072e-22
9.83904e-22
4.34025e-21
1.60263e-20
5.00187e-20
1.35394e-19
2.98263e-19
8.60814e-19
2.01289e-18
3.53642e-18
4.53767e-18
4.22924e-18
3.66929e-18
8.54244e-18
9.42043e-28
1.02608e-26
9.61999e-26
8.39572e-25
6.621e-24
4.57486e-23
2.71603e-22
1.30892e-21
5.44336e-21
2.02375e-20
5.50871e-20
1.57963e-19
3.47102e-19
7.9823e-19
1.24968e-18
1.50066e-18
2.4583e-18
2.32952e-18
4.1392e-18
1.21496e-28
1.34615e-27
1.40944e-26
1.38319e-25
1.21886e-24
9.21094e-24
5.83231e-23
3.24412e-22
1.64509e-21
6.5879e-21
1.96395e-20
6.47389e-20
1.40014e-19
2.76614e-19
3.92298e-19
6.82945e-19
1.35094e-18
1.26829e-18
1.3074e-18
1.30078e-29
1.53408e-28
1.7625e-27
1.9405e-26
1.83848e-25
1.46747e-24
1.07036e-23
7.23159e-23
3.95782e-22
1.77096e-21
5.91085e-21
2.33342e-20
5.49328e-20
1.12775e-19
1.53318e-19
2.7658e-19
4.95899e-19
8.0539e-19
4.06702e-19
1.25087e-30
1.58382e-29
1.97352e-28
2.2969e-27
2.28476e-26
2.11215e-25
1.8194e-24
1.29827e-23
7.62593e-23
3.76936e-22
1.77953e-21
5.24872e-21
1.95006e-20
3.91351e-20
7.1622e-20
1.31695e-19
2.71361e-19
4.04635e-19
1.61797e-19
1.11597e-31
1.48547e-30
1.98779e-29
2.52532e-28
2.85384e-27
2.83971e-26
2.57281e-25
1.95983e-24
1.29992e-23
6.978e-23
3.16403e-22
1.51882e-21
4.40744e-21
1.40293e-20
3.08277e-20
6.23408e-20
1.21423e-19
1.63611e-19
5.26408e-20
8.96424e-33
1.3085e-31
1.86913e-30
2.46789e-29
3.00538e-28
3.26355e-27
3.10863e-26
2.54954e-25
1.83745e-24
1.14521e-23
5.65424e-23
2.9975e-22
1.13545e-21
3.62597e-21
9.35044e-21
2.08891e-20
4.28158e-20
4.50953e-20
1.73686e-20
6.71787e-34
1.06845e-32
1.55458e-31
2.05368e-30
2.49872e-29
2.77736e-28
2.98423e-27
2.94429e-26
2.20876e-25
1.4598e-24
9.48226e-24
4.97884e-23
2.14869e-22
7.54952e-22
2.31335e-21
5.64831e-21
8.88538e-21
1.15607e-20
3.43259e-21
4.30052e-35
9.165e-34
1.42843e-32
1.93975e-31
2.39042e-30
2.67794e-29
2.81164e-28
2.94743e-27
2.45662e-26
1.66984e-25
1.00807e-24
5.77249e-24
2.75705e-23
1.11457e-22
3.35268e-22
8.75552e-22
2.15775e-21
1.43267e-21
9.12594e-22
3.52275e-36
7.50931e-35
1.25644e-33
1.7593e-32
2.18286e-31
2.48923e-30
2.61338e-29
2.65762e-28
2.40637e-27
1.85733e-26
1.2068e-25
7.63597e-25
3.94654e-24
1.69926e-23
6.6695e-23
1.80277e-22
2.20275e-22
2.95466e-22
1.98385e-22
2.74053e-37
6.16703e-36
1.04191e-34
1.47649e-33
1.85646e-32
2.1103e-31
2.23372e-30
2.23345e-29
2.10037e-28
1.71556e-27
1.26826e-26
8.56446e-26
4.79114e-25
2.25062e-24
8.79773e-24
2.46732e-23
3.94253e-23
4.18286e-23
2.95666e-23
)
;

boundaryField
{
    leftWall
    {
        type            alphaContactAngle;
        contactAngleProperties 
        {
            air             
            {
                theta0          90;
            }
            water           
            {
                theta0          90;
            }
            oil             
            {
                theta0          90;
            }
        }
        value           nonuniform List<scalar> 
50
(
1
1
1
1
0.992284
0.414025
-7.76891e-93
-2.51506e-92
-3.10269e-92
6.11406e-66
2.66702e-64
0
1.14829e-61
4.23091e-60
2.2699e-59
1.05277e-58
4.37697e-58
1.71154e-57
6.2856e-57
2.16391e-56
7.05191e-56
2.21987e-55
6.8914e-55
2.11152e-54
6.17894e-54
2.77464e-53
5.35969e-53
7.25014e-53
8.1193e-53
8.66011e-53
7.05155e-53
4.25453e-53
1.7259e-53
4.54373e-54
8.90516e-55
1.14031e-55
8.84733e-57
4.14994e-58
1.38147e-59
2.20812e-61
2.3952e-63
2.01072e-65
8.3518e-68
2.41311e-70
3.2187e-73
2.82937e-76
9.48943e-80
1.29461e-83
7.66428e-89
1.98436e-98
)
;
    }
    rightWall
    {
        type            alphaContactAngle;
        contactAngleProperties 
        {
            air             
            {
                theta0          90;
            }
            water           
            {
                theta0          90;
            }
            oil             
            {
                theta0          90;
            }
        }
        value           nonuniform List<scalar> 
50
(
9.46793e-13
3.6535e-12
1.43411e-11
3.57988e-11
5.05502e-11
8.22856e-11
1.34604e-10
1.62038e-10
2.10887e-10
2.50464e-10
2.47804e-10
2.33207e-10
2.09923e-10
1.82872e-10
1.62611e-10
1.34172e-10
1.12741e-10
9.35033e-11
7.69865e-11
6.32243e-11
4.88166e-11
3.79566e-11
2.98416e-11
2.10482e-11
1.59716e-11
1.34656e-11
1.16388e-11
8.83761e-12
5.99579e-12
3.93647e-12
2.44412e-12
1.22844e-12
3.2423e-13
2.33908e-14
2.34371e-16
2.94074e-17
1.81853e-17
1.61477e-17
1.41709e-17
8.54244e-18
4.1392e-18
1.3074e-18
4.06702e-19
1.61797e-19
5.26408e-20
1.73686e-20
3.43259e-21
9.12594e-22
1.98385e-22
2.95666e-23
)
;
    }
    lowerWall
    {
        type            alphaContactAngle;
        contactAngleProperties 
        {
            air             
            {
                theta0          90;
            }
            water           
            {
                theta0          90;
            }
            oil             
            {
                theta0          90;
            }
        }
        value           nonuniform List<scalar> 
62
(
1
1
1
1
1
1
1
1
1
1
1
1
1
1
1
1
1
1
1
1
1
1
0.99941
0.99941
0.999395
0.999395
0.99976
1
1
1
1
1
0.999999
0.999925
0.965219
1.10574e-09
1.09997e-09
1.16174e-09
1.13082e-09
9.65578e-10
7.47109e-10
-5.29538e-14
0.250085
1.10574e-09
1.38174e-09
1.81983e-09
4.36103e-09
6.6607e-08
1.65263e-06
1.00892e-09
1.00466e-09
1.00886e-09
1.06682e-09
1.17867e-09
1.13601e-09
9.34993e-10
6.70731e-10
4.81987e-10
4.10795e-10
2.28039e-10
3.982e-11
9.46793e-13
)
;
    }
    atmosphere
    {
        type            inletOutlet;
        inletValue      uniform 0;
        value           nonuniform List<scalar> 
46
(
0
0
0
0
0
0
0
0
0
0
0
0
0
0
0
0
0
0
0
0
0
0
0
0
0
1.07496e-39
1.8838e-38
2.74053e-37
6.16703e-36
1.04191e-34
1.47649e-33
1.85646e-32
2.1103e-31
2.23372e-30
2.23345e-29
2.10037e-28
1.71556e-27
1.26826e-26
8.56446e-26
4.79114e-25
2.25062e-24
8.79773e-24
2.46732e-23
3.94253e-23
4.18286e-23
2.95666e-23
)
;
    }
    defaultFaces
    {
        type            empty;
    }
}


// ************************************************************************* //
