/*--------------------------------*- C++ -*----------------------------------*\
  =========                 |
  \\      /  F ield         | OpenFOAM: The Open Source CFD Toolbox
   \\    /   O peration     | Website:  https://openfoam.org
    \\  /    A nd           | Version:  13
     \\/     M anipulation  |
\*---------------------------------------------------------------------------*/
FoamFile
{
    format      ascii;
    class       volScalarField;
    location    "0.45";
    object      alpha.air;
}
// * * * * * * * * * * * * * * * * * * * * * * * * * * * * * * * * * * * * * //

dimensions      [];

internalField   nonuniform List<scalar> 
2268
(
1.31938e-19
7.26138e-18
2.29122e-17
2.04096e-17
1.1863e-17
9.50245e-18
8.38552e-18
5.73032e-18
3.32654e-18
2.09397e-18
1.37533e-18
7.25752e-19
4.42605e-19
4.06224e-19
6.77436e-19
1.0637e-18
1.51543e-18
1.86015e-18
2.00799e-18
1.89217e-18
1.15109e-18
2.25561e-19
3.68509e-20
2.27007e-21
2.79117e-16
5.62708e-16
4.57493e-16
2.47463e-16
1.98394e-16
1.87321e-16
1.40186e-16
9.46048e-17
6.46369e-17
4.30402e-17
2.32532e-17
1.14811e-17
6.43033e-18
7.83575e-18
1.32803e-17
1.98856e-17
2.53851e-17
2.58288e-17
2.15271e-17
8.87071e-18
1.22533e-18
2.74577e-19
4.28203e-16
3.32529e-15
4.8466e-15
4.13657e-15
2.07048e-15
1.81197e-15
1.60044e-15
1.53662e-15
1.83553e-15
1.50718e-15
7.62152e-16
4.31741e-16
2.49944e-16
1.22075e-16
7.00027e-17
9.27139e-17
1.51284e-16
1.99714e-16
2.13983e-16
1.59425e-16
5.67656e-17
8.61933e-18
2.08957e-18
2.03366e-14
3.21257e-14
4.15423e-14
4.09627e-14
2.6797e-14
1.8713e-14
1.55929e-14
1.28517e-14
2.18093e-14
1.96881e-14
7.90048e-15
3.64226e-15
3.03659e-15
1.82411e-15
7.39327e-16
4.96971e-16
6.23765e-16
9.79671e-16
9.86069e-16
7.25462e-16
2.90299e-16
6.57515e-17
9.11091e-18
4.63003e-12
3.88186e-12
3.92871e-12
3.84313e-12
3.32465e-12
2.85138e-12
2.22524e-12
1.88922e-12
1.56802e-12
1.18427e-12
8.25198e-13
5.209e-13
2.42189e-13
6.97723e-14
2.54017e-14
7.2734e-15
4.66377e-15
5.94728e-15
6.23035e-15
3.96357e-15
1.33101e-15
3.46279e-16
3.06024e-17
9.35001e-11
7.54543e-11
7.25481e-11
7.04722e-11
6.45294e-11
5.88541e-11
4.52574e-11
4.01171e-11
3.55761e-11
3.03198e-11
2.43897e-11
1.80483e-11
1.15198e-11
5.64528e-12
1.99149e-12
4.54609e-13
8.36788e-14
3.52582e-14
2.55902e-14
2.35111e-14
1.00956e-14
1.34112e-15
1.35181e-16
2.4306e-10
2.1524e-10
2.08075e-10
2.03697e-10
1.97228e-10
1.86419e-10
1.81304e-10
1.66871e-10
1.52378e-10
1.36018e-10
1.18422e-10
9.79071e-11
7.44823e-11
5.00906e-11
2.87665e-11
1.32348e-11
4.19572e-12
9.46903e-13
3.28657e-13
1.96662e-13
4.97619e-14
1.52724e-14
7.11671e-16
3.82235e-10
3.52188e-10
3.49601e-10
3.51748e-10
3.43394e-10
3.29419e-10
3.07138e-10
2.82474e-10
2.59566e-10
2.33736e-10
2.06783e-10
1.76761e-10
1.41721e-10
1.12154e-10
8.62887e-11
5.6224e-11
2.89817e-11
1.06661e-11
3.10279e-12
8.48685e-13
2.22657e-13
3.73549e-14
1.59087e-15
1.81505e-05
1.32048e-07
1.59055e-08
1.89236e-08
5.18702e-08
0.003287
0.043357
0.0315694
0.0010546
3.37499e-05
7.70989e-05
0.000102787
6.39227e-05
7.12069e-08
0.00115511
0.00218148
1.81167e-07
0.0655198
0.0993182
1.8953e-06
1.01005e-06
1.5662e-08
0.0113677
0.196255
0.528438
0.810986
0.801135
0.556936
0.063938
1.06258e-05
1.16468e-05
7.467e-06
1.15013e-08
0.000155407
0.00148112
1.49399e-08
0.0724953
0.130262
2.94925e-05
0.000990654
0.111346
0.552492
0.963044
0.999988
0.989452
0.984321
0.992207
0.896081
0.130971
3.46275e-08
3.42345e-08
1.17575e-08
2.57732e-08
3.58183e-05
1.54922e-08
0.0517282
0.130138
3.64735e-05
0.00312343
0.468954
0.999998
0.999999
0.999993
0.910889
0.737269
0.935258
0.975401
0.595545
0.0243103
4.17321e-14
2.41572e-09
4.10134e-09
1.20374e-08
1.20154e-08
0.010885
0.130262
5.43862e-05
5.77565e-05
0.418001
0.984588
0.999088
0.936569
0.511025
0.324539
0.373076
0.911201
0.913584
0.197588
2.40049e-10
3.20008e-10
1.15664e-09
9.12631e-09
2.09978e-09
1.07348e-08
0.0696659
5.78103e-05
6.25452e-05
0.0843805
0.680076
0.951902
0.548342
0.281036
0.0017704
1.30614e-18
0.567515
0.823034
0.375759
3.78689e-09
2.42052e-10
3.94342e-10
1.94444e-09
1.43698e-09
1.21908e-08
0.000116902
0.00444643
0.0102333
0.00553171
0.308465
0.22745
0.102514
0.00576144
5.1292e-13
-1.96126e-05
0.0974802
0.572452
0.241654
2.82762e-08
4.1737e-10
3.1745e-10
7.25355e-10
1.79275e-09
1.56962e-08
2.86512e-08
0.139397
0.137665
0.109053
0.0686149
-0.000516129
2.61094e-05
3.27572e-21
-1.47788e-09
-6.54276e-10
-8.03758e-11
0.0292345
0.023121
0.0036559
2.3248e-09
8.65754e-10
5.12891e-10
2.13524e-09
8.29425e-09
2.985e-08
5.25611e-10
5.11196e-10
5.32826e-10
5.60301e-10
5.65178e-10
5.57631e-10
5.24327e-10
4.84313e-10
4.46054e-10
3.98468e-10
3.51284e-10
3.04899e-10
2.46865e-10
1.96261e-10
1.67908e-10
1.44372e-10
1.20123e-10
6.64999e-11
2.87608e-11
1.27482e-11
4.31921e-12
1.40982e-12
4.04646e-13
7.19833e-10
7.20662e-10
8.16628e-10
9.18046e-10
1.00599e-09
1.0717e-09
1.05237e-09
1.00772e-09
9.33852e-10
8.47729e-10
7.52007e-10
6.57446e-10
5.48772e-10
4.55734e-10
4.36062e-10
4.42359e-10
4.07194e-10
2.52259e-10
1.77739e-10
8.58799e-11
4.35863e-11
2.32156e-11
1.39965e-11
7.1946e-10
7.19287e-10
7.21699e-10
7.86042e-10
9.41757e-10
1.06918e-09
1.19098e-09
1.26583e-09
1.27695e-09
1.20631e-09
1.09035e-09
9.99151e-10
8.96696e-10
8.18462e-10
8.33696e-10
1.1681e-09
1.00822e-09
7.6549e-10
6.39591e-10
4.98967e-10
3.96003e-10
2.78381e-10
1.95373e-10
7.19416e-10
7.20275e-10
7.18136e-10
6.91963e-10
7.21708e-10
7.72864e-10
9.6358e-10
9.65285e-10
9.56363e-10
9.43265e-10
9.31332e-10
9.31914e-10
9.20244e-10
8.69212e-10
1.00731e-09
2.603e-09
3.50038e-09
2.76639e-09
1.74152e-09
1.04359e-09
7.73883e-10
5.73291e-10
3.52718e-10
0.299731
0.2606
0.209585
0.157829
0.109285
0.0675236
0.0345895
0.0120989
0.00130008
9.55079e-10
9.43337e-10
8.80784e-10
9.3261e-10
8.81036e-10
1.02722e-09
1.27823e-09
2.68579e-08
2.7535e-08
7.84116e-09
1.69668e-10
1.15241e-10
3.71999e-09
2.42658e-08
0.987397
0.967122
0.940671
0.902606
0.852068
0.787718
0.707062
0.606984
0.485595
0.344424
0.229958
0.13035
0.0563422
0.0135978
0.000307098
8.23874e-08
3.63669e-09
3.77177e-09
3.59082e-09
7.70558e-07
1.24863e-06
1.27004e-06
4.14425e-07
1
1
1
1
1
1
1
1
1
1
0.954705
0.880137
0.773902
0.629389
0.439892
0.225924
0.0656969
0.00922124
0.000391305
3.37672e-09
1.8352e-08
3.37646e-09
8.7387e-09
1
1
1
1
1
1
1
1
1
1
1
1
1
0.999997
0.999959
0.999918
0.926608
0.642187
0.364462
0.352302
0.198032
0.0515644
0.0416713
1
1
1
1
1
1
1
1
1
1
1
1
1
1
0.999993
0.999853
0.999869
0.999923
0.999979
0.999901
0.935235
0.621929
0.550548
1
1
1
1
1
1
1
1
1
1
1
1
1
1
1
0.999871
0.999809
0.999814
0.999963
1
0.999998
0.999993
0.999985
1
1
1
1
1
1
1
1
1
1
1
1
1
1
1
1
0.999932
0.999947
0.999995
1
1
1
1
1
1
1
1
1
1
1
1
1
1
1
1
1
1
1
1
1
1
1
1
1
1
1
1
1
1
1
1
1
1
1
1
1
1
1
1
1
1
1
1
1
1
1
1
1
1
1
1
1
1
1
1
1
1
1
1
1
1
1
1
1
1
1
1
1
1
1
1
1
1
1
1
1
1
1
1
1
1
1
1
1
1
1
1
1
1
1
1
1
1
1
1
1
1
1
1
1
1
1
1
1
1
1
1
1
1
1
1
1
1
1
1
1
1
1
1
1
1
1
1
1
1
1
1
1
1
1
1
1
1
1
1
1
1
1
1
1
1
1
1
1
1
1
1
1
1
1
1
1
1
1
1
1
1
1
1
1
1
1
1
1
1
1
1
1
1
1
1
1
1
1
1
1
1
1
1
1
1
1
1
1
1
1
1
1
1
1
1
1
1
1
1
1
1
1
1
1
1
1
1
1
1
1
1
1
1
1
1
1
1
1
1
1
1
1
1
1
1
1
1
1
1
1
1
1
1
1
1
1
1
1
1
1
1
1
1
1
1
1
1
1
1
1
1
1
1
1
1
1
1
1
1
1
1
1
1
1
1
1
1
1
1
1
1
1
1
1
1
1
1
1
1
1
1
1
1
1
1
1
1
1
1
1
1
1
1
1
1
1
1
1
1
1
1
1
1
1
1
1
1
1
1
1
1
1
1
1
1
1
1
1
1
1
1
1
1
1
1
1
1
1
1
1
1
1
1
1
1
1
1
1
1
1
1
1
1
1
1
1
1
1
1
1
1
1
1
1
1
1
1
1
1
1
1
1
1
1
1
1
1
1
1
1
1
1
1
1
1
1
1
1
1
1
1
1
1
1
1
1
1
1
1
1
1
1
1
1
1
1
1
1
1
1
1
1
1
1
1
1
1
1
1
1
1
1
1
1
1
1
1
1
1
1
1
1
1
1
1
1
1
1
1
1
1
1
1
1
1
1
1
1
1
1
1
1
1
1
1
1
1
1
1
1
1
1
1
1
1
1
1
1
1
1
1
1
1
1
1
1
1
1
1
1
1
1
1
1
1
1
1
1
1
1
1
1
1
1
1
1
1
1
1
1
1
1
1
1
1
1
1
1
1
1
1
1
1
1
1
1
1
1
1
1
1
1
1
1
1
1
1
1
1
1
1
1
1
1
1
1
1
1
1
1
1
1
1
1
1
1
1
1
1
1
1
1
1
1
1
1
1
1
1
1
1
1
1
1
1
1
1
1
1
1
1
1
1
1
1
1
1
1
1
1
1
1
1
1
1
1
1
1
1
1
1
1
1
1
1
1
1
1
1
1
1
1
1
1
1
1
1
1
1
1
1
1
1
1
1
1
1
1
1
1
1
1
1
1
1
1
1
1
1
1
1
1
1
1
1
1
1
1
1
1
1
1
1
1
1
1
1
1
1
1
1
1
1
1
1
1
1
1
1
1
1
1
1
1
1
1
1
1
1
1
1
1
1
1
1
1
1
1
1
1
1
1
1
1
1
1
1
1
1
1
1
1
1
1
1
1
1
1
1
1
1
1
1
1
1
1
1
1
1
1
1
1
1
1
1
1
1
1
1
1
1
1
1
1
1
1
1
1
1
1
5.93383e-15
3.53595e-16
3.02076e-13
0.0346281
5.57738e-12
1.29713e-11
8.97472e-05
2.55891e-09
1.65797e-10
2.56933e-10
1.23378e-09
3.51527e-09
7.67675e-10
1.58972e-09
1.19308e-08
2.62176e-08
1.27405e-08
2.37586e-08
5.47682e-08
7.73184e-08
5.90807e-08
5.82205e-08
5.03292e-09
4.02312e-09
3.37634e-09
0.000777083
0.00264339
0.00417934
0.0457272
0.045325
0.0477498
0.0465864
0.608934
0.663726
0.574463
0.371956
0.999981
0.999974
0.999964
0.999953
1
1
1
1
1
1
1
1
1
1
1
1
1
1
1
1
1
1
1
1
1
1
1
1
1
1
1
1
1
1
1
1
1
1
1
1
1
1
1
1
1
1
1
1
1
1
1
1
1
1
1
1
1
1
1
1
1
1
1
1
1
1
1
1
1
1
1
1
1
1
1
1
1
1
1
1
1
1
1
1
1
1
1
1
1
1
1
1
1
1
1
1
1
1
1
1
1
1
1
1
1
1
1
1
1
1
1
1
1
1
1
1
1
1
1
1
1
1
1
1
1
1
1
1
1
1
1
1
0.156648
0.160902
0.143901
0.047931
0.000405996
3.50457e-12
1.08894e-09
-2.61087e-09
-1.45659e-09
-1.82468e-10
3.00874e-08
1.32136e-09
0.000192553
1.08511e-05
2.08903e-09
4.83717e-10
2.68413e-09
1.07957e-08
2.25396e-08
1.28812e-18
-5.78221e-12
-2.15618e-08
-1.68679e-23
-6.64213e-09
-1.9247e-09
4.78885e-08
3.65466e-09
-2.33403e-09
-6.06179e-10
1.18661e-08
2.58432e-09
5.29168e-09
8.01641e-07
1.40747e-08
1.09711e-09
3.1286e-09
1.49772e-08
1.99875e-08
9.86524e-10
3.68262e-10
-1.19208e-08
9.12422e-07
1.22197e-07
8.53092e-10
6.42546e-07
6.91888e-08
5.95215e-10
-4.79342e-10
7.20633e-10
1.63571e-09
3.57247e-09
3.68653e-09
2.12683e-09
8.20966e-10
3.11382e-09
1.42499e-08
1.62134e-08
2.59697e-08
5.16607e-09
2.20811e-15
1.65449e-06
4.07695e-08
7.75017e-06
3.56166e-06
5.66281e-12
3.43579e-10
5.32675e-10
1.07785e-10
-7.14563e-11
1.94923e-06
2.76428e-06
9.47648e-07
4.37652e-09
4.45922e-09
1.03978e-08
1.12277e-08
8.44138e-08
2.28317e-08
1.68921e-10
4.0487e-06
0.0010029
0.000226997
1.66085e-07
-5.66281e-12
1.63014e-08
9.04599e-21
1.77859e-12
-1.6043e-11
1.75003e-06
3.08823e-06
1.23602e-06
8.97995e-09
5.17619e-09
6.96087e-09
7.46992e-09
3.40267e-09
4.04413e-09
0.00226115
0.00442856
0.00589904
0.000319263
4.54208e-05
0.0151596
0.0190213
0.00672347
1.31673e-09
3.52487e-09
7.9626e-08
6.62029e-07
2.52841e-07
7.20456e-09
4.17627e-09
4.61114e-09
5.3428e-09
0.0155136
0.0288264
0.0206976
0.00971156
0.0501771
0.210219
0.442017
0.607376
0.628661
0.491694
0.277706
0.0667942
1.89468e-08
6.28992e-09
2.35998e-08
0.000273079
1.91376e-05
4.43639e-09
4.42721e-09
0.0483685
0.166998
0.283611
0.452353
0.696386
0.941658
1
1
1
0.99145
0.942998
0.764201
0.376648
0.0541158
5.07723e-09
0.00059325
3.69904e-05
2.90588e-09
4.08062e-09
0.545287
0.893754
0.999995
0.999995
0.999997
0.999999
1
1
1
1
1
1
0.98457
0.645936
6.33692e-08
8.77778e-05
0.00024288
3.10356e-09
3.82592e-09
0.999973
0.999991
0.999995
0.999997
0.999998
1
1
1
1
0.999999
1
1
1
0.948686
0.0961379
1.42901e-07
0.000261675
3.09299e-09
3.31234e-09
1
0.999999
1
1
1
1
1
0.999999
0.999991
0.99999
0.999998
1
1
0.979393
0.29924
4.71679e-08
0.000190488
2.89091e-09
2.94818e-09
1
1
1
1
1
1
1
0.999995
0.999989
0.999989
0.999995
1
1
0.995412
0.437465
3.37207e-08
8.71147e-07
2.88502e-09
2.89861e-09
1
1
1
1
1
1
1
0.999999
0.999991
0.999989
0.999996
1
1
1
0.665176
3.57323e-08
2.23239e-07
5.85525e-06
2.88507e-09
1
1
1
1
1
1
1
1
0.999999
0.999998
0.999999
1
1
1
0.899534
0.0493969
3.57303e-08
8.05487e-06
2.88532e-09
1
1
1
1
1
1
1
1
1
1
1
1
1
1
0.988464
0.344966
1.26539e-07
3.4112e-06
2.88507e-09
1
1
1
1
1
1
1
1
1
1
1
1
1
1
1
0.756911
2.47422e-08
2.21909e-08
1.97702e-08
1
1
1
1
1
1
1
1
1
1
1
1
1
1
1
0.988949
0.315022
2.47422e-08
2.14632e-08
1
1
1
1
1
1
1
1
1
1
1
1
1
1
1
1
0.730518
2.74952e-08
2.55854e-08
1
1
1
1
1
1
1
1
1
1
1
1
1
1
1
1
0.827351
2.75043e-08
0.000680025
1
1
1
1
1
1
1
1
1
1
1
1
1
1
1
1
0.942554
0.230731
0.0131096
1
1
1
1
1
1
1
1
1
1
1
1
1
1
1
1
0.998767
0.9218
0.0284192
1
1
1
1
1
1
1
1
1
1
1
1
1
1
1
1
1
0.999844
0.0288013
1
1
1
1
1
1
1
1
1
1
1
1
1
1
1
1
1
1
0.151723
1
1
1
1
1
1
1
1
1
1
1
1
1
1
1
1
1
1
0.679503
1
1
1
1
1
1
1
1
1
1
1
1
1
1
1
1
1
1
0.572927
1
1
1
1
1
1
1
1
1
1
1
1
1
1
1
1
1
1
0.157424
1
1
1
1
1
1
1
1
1
1
1
1
1
1
1
1
1
0.999962
0.0625097
1
1
1
1
1
1
1
1
1
1
1
1
1
1
1
1
1
0.987577
0.0625097
1
1
1
1
1
1
1
1
1
1
1
1
1
1
1
1
1
0.923133
0.0625097
1
1
1
1
1
1
1
1
1
1
1
1
1
1
1
1
1
0.878035
0.0625097
1
1
1
1
1
1
1
1
1
1
1
1
1
1
0.999999
1
1
0.929095
0.456009
1
1
1
1
1
1
1
1
1
1
1
1
1
1
1
0.999992
0.999972
0.997329
0.995573
1
1
1
1
1
1
1
1
1
1
1
1
1
1
1
0.999993
0.999981
1
1
1
1
1
1
1
1
1
1
1
1
1
1
1
1
1
1
1
1
1
1
1
1
1
1
1
1
1
1
1
1
1
1
1
1
1
1
1
1
1
1
1
1
1
1
1
1
1
1
1
1
1
1
1
1
1
1
1
1
1
1
1
1
1
1
1
1
1
1
1
1
1
1
1
1
1
1
1
1
1
1
1
1
1
1
1
1
1
1
1
1
1
1
1
1
1
1
1
1
1
1
1
1
1
1
1
1
1
1
1
1
1
1
1
1
1
1
1
1
1
1
1
1
1
1
1
1
1
1
1
1
1
1
1
1
1
1
1
1
1
1
1
1
1
1
1
1
1
1
1
1
1
1
1
1
1
1
1
1
1
1
1
1
1
1
1
1
1
1
1
1
1
)
;

boundaryField
{
    leftWall
    {
        type            alphaContactAngle;
        contactAngleProperties 
        {
            mercury         
            {
                theta0          90;
            }
            water           
            {
                theta0          90;
            }
            oil             
            {
                theta0          90;
            }
        }
        value           nonuniform List<scalar> 
50
(
1.31938e-19
2.27007e-21
4.28203e-16
2.03366e-14
4.63003e-12
9.35001e-11
2.4306e-10
3.82235e-10
5.25611e-10
7.19833e-10
7.1946e-10
7.19416e-10
0.299731
0.987397
1
1
1
1
1
1
1
1
1
1
1
1
1
1
1
1
1
1
1
1
1
1
1
1
1
1
1
1
1
1
1
1
1
1
1
1
)
;
    }
    rightWall
    {
        type            alphaContactAngle;
        contactAngleProperties 
        {
            mercury         
            {
                theta0          90;
            }
            water           
            {
                theta0          90;
            }
            oil             
            {
                theta0          90;
            }
        }
        value           nonuniform List<scalar> 
50
(
0.0993182
0.130262
0.130138
0.130262
0.0696659
0.000116902
2.86512e-08
2.985e-08
2.25396e-08
1.99875e-08
1.62134e-08
1.12277e-08
7.46992e-09
5.3428e-09
4.42721e-09
4.08062e-09
3.82592e-09
3.31234e-09
2.94818e-09
2.89861e-09
2.88507e-09
2.88532e-09
2.88507e-09
1.97702e-08
2.14632e-08
2.55854e-08
0.000680025
0.0131096
0.0284192
0.0288013
0.151723
0.679503
0.572927
0.157424
0.0625097
0.0625097
0.0625097
0.0625097
0.456009
0.995573
1
1
1
1
1
1
1
1
1
1
)
;
    }
    lowerWall
    {
        type            alphaContactAngle;
        contactAngleProperties 
        {
            mercury         
            {
                theta0          90;
            }
            water           
            {
                theta0          90;
            }
            oil             
            {
                theta0          90;
            }
        }
        value           nonuniform List<scalar> 
62
(
1.31938e-19
7.26138e-18
2.29122e-17
2.04096e-17
1.1863e-17
9.50245e-18
8.38552e-18
5.73032e-18
3.32654e-18
2.09397e-18
1.37533e-18
7.25752e-19
4.42605e-19
4.06224e-19
6.77436e-19
1.0637e-18
1.51543e-18
1.86015e-18
2.00799e-18
1.89217e-18
1.15109e-18
2.25561e-19
3.68509e-20
3.68509e-20
2.74577e-19
2.08957e-18
9.11091e-18
3.06024e-17
1.35181e-16
7.11671e-16
1.59087e-15
5.93383e-15
3.53595e-16
3.02076e-13
0.0346281
1.81505e-05
1.8953e-06
2.94925e-05
3.64735e-05
5.43862e-05
5.78103e-05
0.00444643
0.139397
1.81505e-05
1.32048e-07
1.59055e-08
1.89236e-08
5.18702e-08
0.003287
0.043357
0.0315694
0.0010546
3.37499e-05
7.70989e-05
0.000102787
6.39227e-05
7.12069e-08
0.00115511
0.00218148
1.81167e-07
0.0655198
0.0993182
)
;
    }
    atmosphere
    {
        type            inletOutlet;
        inletValue      uniform 1;
        value           nonuniform List<scalar> 
46
(
1
1
1
1
1
1
1
1
1
1
1
1
1
1
1
1
1
1
1
1
1
1
1
1
1
1
1
1
1
1
1
1
1
1
1
1
1
1
1
1
1
1
1
1
1
1
)
;
    }
    defaultFaces
    {
        type            empty;
    }
}


// ************************************************************************* //
