/*--------------------------------*- C++ -*----------------------------------*\
  =========                 |
  \\      /  F ield         | OpenFOAM: The Open Source CFD Toolbox
   \\    /   O peration     | Website:  https://openfoam.org
    \\  /    A nd           | Version:  13
     \\/     M anipulation  |
\*---------------------------------------------------------------------------*/
FoamFile
{
    format      ascii;
    class       volScalarField;
    location    "0.45";
    object      alphas;
}
// * * * * * * * * * * * * * * * * * * * * * * * * * * * * * * * * * * * * * //

dimensions      [];

internalField   nonuniform List<scalar> 
2268
(
2
2
2
2
2
2
2
2
2
2
2
2
2
2
2
2
2
2
2
2
2
2
1.99941
2
2
2
2
2
2
2
2
2
2
2
2
2
2
2
2
2
2
2
2
2
2
1.99939
2
2
2
2
2
2
2
2
2
2
2
2
2
2
2
2
2
2
2
2
2
2
1.99939
2
2
2
2
2
2
2
2
2
2
2
2
2
2
2
2
2
2
2
2
2
2
1.99976
1.98457
1.99174
1.99306
1.99385
1.99535
1.99691
1.99854
1.99959
2
2
2
2
2
2
2
2
2
2
2
2
2
2
2
0.82805
0.921512
0.941535
0.953109
0.976021
1.01003
1.05324
1.10611
1.17129
1.25372
1.35063
1.45358
1.58416
1.73878
1.91201
2
2
2
2
2
2
2
2
7.2918e-10
6.45721e-10
6.24224e-10
6.11091e-10
5.91685e-10
5.59255e-10
2.87692e-08
2.74261e-08
6.41354e-09
6.75829e-10
0.0102509
0.0541588
0.127307
0.256274
0.495021
0.957674
1.61488
2
2
2
2
2
2
1.1467e-09
1.05656e-09
1.0488e-09
1.05524e-09
1.03018e-09
9.88241e-10
9.21397e-10
8.47412e-10
7.78696e-10
7.01207e-10
6.20349e-10
5.30282e-10
4.25165e-10
3.36565e-10
2.5957e-10
0.0111875
0.19356
1.00877
1.97324
1.99999
2
2
2
1.00004
1
1
1
1
1.00658
1.08671
1.06314
1.00211
1.00007
1.00015
1.00021
1.00013
1
1.00231
1.00436
1
1.13104
1.19864
1
1
1
1.02274
1.39252
2.05688
2.62439
2.60468
2.1146
1.12789
1.00002
1.00002
1.00001
1
1.00031
1.00296
1
1.14499
1.26052
1.00006
1.00198
1.22269
2.10498
2.9261
2.99998
2.98945
2.98432
2.99221
2.79401
1.26195
1
1
1
1
1.00007
1
1.10346
1.26028
1.00007
1.00625
1.93791
3
3
2.99999
2.91089
2.73727
2.93526
2.96305
2.19122
1.04862
1
1
1
1
1
1.02177
1.26052
1.00011
1.00012
1.836
2.96918
2.99818
2.9365
2.51102
2.19736
2.25593
2.90058
2.8384
1.39518
1
1
1
1
1
1
1.13933
1.00012
1.00013
1.16876
2.36015
2.91019
2.53994
2.10872
1.55209
1.54441
2.38945
2.68461
1.75152
1
1
1
1
1
1
1.00023
1.00889
1.02047
1.01365
1.6547
1.8405
1.80835
1.56183
1.54791
1.38976
1.43802
2.17117
1.48372
1
1
1
1
1
1
1
1.52886
1.49383
1.54231
1.57396
1.61206
1.61125
1.54375
1.32353
1.07101
1.0031
1.06392
1.04683
1.00732
1
1
1
1
1
1
1.57683e-09
1.53359e-09
1.59848e-09
1.6809e-09
1.69553e-09
1.67289e-09
1.57298e-09
1.45294e-09
1.33816e-09
1.1954e-09
1.05385e-09
9.14698e-10
7.40607e-10
5.89054e-10
5.19852e-10
4.67067e-10
4.1524e-10
0.00586303
0.426705
1.41811
2
2
2
2.1595e-09
2.16199e-09
2.44988e-09
2.75414e-09
3.01797e-09
3.21511e-09
3.15711e-09
3.02316e-09
2.80156e-09
2.54319e-09
2.25602e-09
1.97234e-09
1.6468e-09
1.36741e-09
1.3094e-09
1.34052e-09
1.26248e-09
6.2767e-08
3.89946e-06
0.047263
0.735691
1.69737
1.98954
2.15838e-09
2.15786e-09
2.1651e-09
2.35813e-09
2.82527e-09
3.20755e-09
3.57295e-09
3.79748e-09
3.83084e-09
3.61894e-09
3.27106e-09
2.99745e-09
2.69881e-09
2.45918e-09
2.50122e-09
3.50552e-09
3.03431e-09
3.77795e-09
1.33367e-07
2.22292e-07
0.000299013
0.182705
0.46614
2.15825e-09
2.16082e-09
2.15441e-09
2.07589e-09
2.16513e-09
2.31859e-09
2.89074e-09
2.89585e-09
2.86909e-09
2.8298e-09
2.794e-09
2.79574e-09
2.93932e-09
2.71301e-09
3.02557e-09
7.79461e-09
1.04966e-08
8.62058e-09
2.5151e-08
4.72212e-06
0.000153694
0.000581517
0.000472709
0.899193
0.7818
0.628754
0.473488
0.327856
0.202571
0.103768
0.0362967
0.00390024
2.86524e-09
2.83001e-09
2.64235e-09
6.06309e-09
3.96297e-09
3.24061e-09
7.50604e-09
8.53721e-08
8.51474e-08
2.47414e-08
3.44996e-07
1.52122e-05
6.64413e-07
1.00107e-06
2.96219
2.90137
2.82201
2.70782
2.5562
2.36315
2.12119
1.82095
1.45678
1.03327
0.689874
0.391049
0.169027
0.0407934
0.000921293
2.53365e-07
3.96434e-06
4.65876e-08
1.07725e-08
2.31791e-06
3.76336e-06
3.82643e-06
1.47069e-06
3
3
3
3
3
3
3
3
3
3
2.86412
2.64041
2.32171
1.88817
1.31968
0.677773
0.197092
0.0280433
0.00671485
0.00931679
0.033345
0.0856333
0.160182
3
3
3
3
3
3
3
3
3
3
3
3
3
2.99999
2.99992
2.99984
2.77987
1.92657
1.09339
1.0612
1.00599
1.00054
1.04749
3
3
3
3
3
3
3
3
3
3
3
3
3
3
2.99999
2.99971
2.99974
2.99985
2.99996
2.9998
2.87047
2.24386
2.1011
3
3
3
3
3
3
3
3
3
3
3
3
3
3
3
2.99974
2.99962
2.99963
2.99993
3
2.99999
2.99998
2.99995
3
3
3
3
3
3
3
3
3
3
3
3
3
3
3
3
2.99986
2.99989
2.99999
3
3
3
3
3
3
3
3
3
3
3
3
3
3
3
3
3
3
3
3
3
3
3
3
3
3
3
3
3
3
3
3
3
3
3
3
3
3
3
3
3
3
3
3
3
3
3
3
3
3
3
3
3
3
3
3
3
3
3
3
3
3
3
3
3
3
3
3
3
3
3
3
3
3
3
3
3
3
3
3
3
3
3
3
3
3
3
3
3
3
3
3
3
3
3
3
3
3
3
3
3
3
3
3
3
3
3
3
3
3
3
3
3
3
3
3
3
3
3
3
3
3
3
3
3
3
3
3
3
3
3
3
3
3
3
3
3
3
3
3
3
3
3
3
3
3
3
3
3
3
3
3
3
3
3
3
3
3
3
3
3
3
3
3
3
3
3
3
3
3
3
3
3
3
3
3
3
3
3
3
3
3
3
3
3
3
3
3
3
3
3
3
3
3
3
3
3
3
3
3
3
3
3
3
3
3
3
3
3
3
3
3
3
3
3
3
3
3
3
3
3
3
3
3
3
3
3
3
3
3
3
3
3
3
3
3
3
3
3
3
3
3
3
3
3
3
3
3
3
3
3
3
3
3
3
3
3
3
3
3
3
3
3
3
3
3
3
3
3
3
3
3
3
3
3
3
3
3
3
3
3
3
3
3
3
3
3
3
3
3
3
3
3
3
3
3
3
3
3
3
3
3
3
3
3
3
3
3
3
3
3
3
3
3
3
3
3
3
3
3
3
3
3
3
3
3
3
3
3
3
3
3
3
3
3
3
3
3
3
3
3
3
3
3
3
3
3
3
3
3
3
3
3
3
3
3
3
3
3
3
3
3
3
3
3
3
3
3
3
3
3
3
3
3
3
3
3
3
3
3
3
3
3
3
3
3
3
3
3
3
3
3
3
3
3
3
3
3
3
3
3
3
3
3
3
3
3
3
3
3
3
3
3
3
3
3
3
3
3
3
3
3
3
3
3
3
3
3
3
3
3
3
3
3
3
3
3
3
3
3
3
3
3
3
3
3
3
3
3
3
3
3
3
3
3
3
3
3
3
3
3
3
3
3
3
3
3
3
3
3
3
3
3
3
3
3
3
3
3
3
3
3
3
3
3
3
3
3
3
3
3
3
3
3
3
3
3
3
3
3
3
3
3
3
3
3
3
3
3
3
3
3
3
3
3
3
3
3
3
3
3
3
3
3
3
3
3
3
3
3
3
3
3
3
3
3
3
3
3
3
3
3
3
3
3
3
3
3
3
3
3
3
3
3
3
3
3
3
3
3
3
3
3
3
3
3
3
3
3
3
3
3
3
3
3
3
3
3
3
3
3
3
3
3
3
3
3
3
3
3
3
3
3
3
3
3
3
3
3
3
3
3
3
3
3
3
3
3
3
3
3
3
3
3
3
3
3
3
3
3
3
3
3
3
3
3
3
3
3
3
3
3
3
3
3
3
3
3
3
3
3
3
3
3
3
3
3
3
3
3
3
3
3
3
3
3
3
3
3
3
3
3
3
3
3
3
3
3
3
3
3
3
3
3
3
3
3
3
3
3
3
3
3
3
3
3
3
3
3
3
3
3
3
3
3
3
3
3
3
3
3
3
3
3
3
3
3
3
3
3
3
3
3
3
3
3
3
2
2
1.99986
2.03434
1.98905
1.97829
1.99071
1.98758
0.485081
0.532998
0.921591
0.980443
0.000498586
0.000732807
0.000699553
0.000421992
1.6644e-06
2.56529e-06
3.82027e-06
4.68643e-06
6.70629e-07
9.59356e-07
8.20555e-07
0.00234375
0.225581
0.268277
0.331539
0.449209
1.07924
1.09065
1.0955
1.09317
2.21787
2.32745
2.14892
1.7439
2.99994
2.99992
2.99989
2.99986
3
3
3
3
3
3
3
3
3
3
3
3
3
3
3
3
3
3
3
3
3
3
3
3
3
3
3
3
3
3
3
3
3
3
3
3
3
3
3
3
3
3
3
3
3
3
3
3
3
3
3
3
3
3
3
3
3
3
3
3
3
3
3
3
3
3
3
3
3
3
3
3
3
3
3
3
3
3
3
3
3
3
3
3
3
3
3
3
3
3
3
3
3
3
3
3
3
3
3
3
3
3
3
3
3
3
3
3
3
3
3
3
3
3
3
3
3
3
3
3
3
3
3
3
3
3
3
3
2.14243
2.03374
1.89019
1.5778
1.51907
1.31581
1.08292
0.999948
1
0.999999
1
1.00002
1.00039
1.00002
1
1
1
1
1
1.87449
1.67173
1.27829
0.820787
0.695391
0.857159
0.997318
0.999772
1
1
1
1
1
1
1
1
1
1
1
0.634624
0.248364
0.0609335
0.0154742
0.0285786
0.711234
0.999994
1
1
1
1
1
1
1
1
1
1
1
1
0.0010231
0.021415
0.0144772
0.0162288
0.0954628
0.733659
1.00001
1
1
1
1
1
1
1.00001
1
1
1
1
1
4.63472e-06
6.21433e-06
0.0534365
0.320114
0.750026
0.991607
1.00001
1
1
1
1
1
1
1.00001
1
1
1
1
1
0.0275714
0.243266
0.697506
1.00856
1.0118
1.00064
1.00009
1.03032
1.03804
1.01345
1
1
1
1
1
1
1
1
1
0.710658
1.03174
1.0414
1.01942
1.10035
1.42044
1.88403
2.21475
2.25732
1.98339
1.55541
1.13359
1
1
1
1.00055
1.00004
1
1
1.09674
1.334
1.56722
1.9047
2.39277
2.88332
3
3
3
2.9829
2.886
2.5284
1.7533
1.10823
1
1.00119
1.00007
1
1
2.09057
2.7875
2.99999
2.99999
2.99999
3
3
3
3
3
3
3
2.96914
2.29187
1
1.00018
1.00049
1
1
2.99992
2.99997
2.99999
2.99999
3
3
3
3
3
3
3
3
3
2.89737
1.19228
1
1.00052
1
1
3
3
3
3
3
3
3
3
2.99998
2.99998
3
3
3
2.95879
1.59848
1
1.00038
1
1
3
3
3
3
3
3
3
2.99999
2.99998
2.99998
2.99999
3
3
2.99082
1.87493
1
1
1
1
3
3
3
3
3
3
3
3
2.99998
2.99998
2.99999
3
3
3
2.33035
1
1
1.00001
1
3
3
3
3
3
3
3
3
3
3
3
3
3
3
2.79907
1.09879
1
1.00002
1
3
3
3
3
3
3
3
3
3
3
3
3
3
3
2.97693
1.68993
1
1.00001
1
3
3
3
3
3
3
3
3
3
3
3
3
3
3
3
2.51382
1
1
1
3
3
3
3
3
3
3
3
3
3
3
3
3
3
3
2.9779
1.63004
1
1
3
3
3
3
3
3
3
3
3
3
3
3
3
3
3
3
2.46104
1
1
3
3
3
3
3
3
3
3
3
3
3
3
3
3
3
3
2.6547
1
1.00136
3
3
3
3
3
3
3
3
3
3
3
3
3
3
3
3
2.88511
1.46146
1.02622
3
3
3
3
3
3
3
3
3
3
3
3
3
3
3
3
2.99753
2.8436
1.05684
3
3
3
3
3
3
3
3
3
3
3
3
3
3
3
3
3
2.99969
1.0576
3
3
3
3
3
3
3
3
3
3
3
3
3
3
3
3
3
3
1.30345
3
3
3
3
3
3
3
3
3
3
3
3
3
3
3
3
3
3
2.35901
3
3
3
3
3
3
3
3
3
3
3
3
3
3
3
3
3
3
2.14585
3
3
3
3
3
3
3
3
3
3
3
3
3
3
3
3
3
3
1.31485
3
3
3
3
3
3
3
3
3
3
3
3
3
3
3
3
3
2.99992
1.12502
3
3
3
3
3
3
3
3
3
3
3
3
3
3
3
3
3
2.97515
1.12502
3
3
3
3
3
3
3
3
3
3
3
3
3
3
3
3
3
2.84627
1.12502
3
3
3
3
3
3
3
3
3
3
3
3
3
3
3
3
3
2.75607
1.12502
3
3
3
3
3
3
3
3
3
3
3
3
3
3
3
3
3
2.85819
1.91202
3
3
3
3
3
3
3
3
3
3
3
3
3
3
3
2.99998
2.99994
2.99466
2.99115
3
3
3
3
3
3
3
3
3
3
3
3
3
3
3
2.99999
2.99996
3
3
3
3
3
3
3
3
3
3
3
3
3
3
3
3
3
3
3
3
3
3
3
3
3
3
3
3
3
3
3
3
3
3
3
3
3
3
3
3
3
3
3
3
3
3
3
3
3
3
3
3
3
3
3
3
3
3
3
3
3
3
3
3
3
3
3
3
3
3
3
3
3
3
3
3
3
3
3
3
3
3
3
3
3
3
3
3
3
3
3
3
3
3
3
3
3
3
3
3
3
3
3
3
3
3
3
3
3
3
3
3
3
3
3
3
3
3
3
3
3
3
3
3
3
3
3
3
3
3
3
3
3
3
3
3
3
3
3
3
3
3
3
3
3
3
3
3
3
3
3
3
3
3
3
3
3
3
3
3
3
3
3
3
3
3
3
3
3
3
3
3
3
)
;

boundaryField
{
    leftWall
    {
        type            calculated;
        value           nonuniform List<scalar> 
50
(
2
2
2
2
1.98457
0.82805
7.2918e-10
1.1467e-09
1.57683e-09
2.1595e-09
2.15838e-09
2.15825e-09
0.899193
2.96219
3
3
3
3
3
3
3
3
3
3
3
3
3
3
3
3
3
3
3
3
3
3
3
3
3
3
3
3
3
3
3
3
3
3
3
3
)
;
    }
    rightWall
    {
        type            calculated;
        value           nonuniform List<scalar> 
50
(
1.19864
1.26052
1.26028
1.26052
1.13933
1.00023
1
1
1
1
1
1
1
1
1
1
1
1
1
1
1
1
1
1
1
1
1.00136
1.02622
1.05684
1.0576
1.30345
2.35901
2.14585
1.31485
1.12502
1.12502
1.12502
1.12502
1.91202
2.99115
3
3
3
3
3
3
3
3
3
3
)
;
    }
    lowerWall
    {
        type            calculated;
        value           nonuniform List<scalar> 
62
(
2
2
2
2
2
2
2
2
2
2
2
2
2
2
2
2
2
2
2
2
2
2
1.99941
1.99941
1.99939
1.99939
1.99976
2
2
2
2
2
2
1.99986
2.03434
1.00004
1
1.00006
1.00007
1.00011
1.00012
1.00889
1.52886
1.00004
1
1
1
1
1.00658
1.08671
1.06314
1.00211
1.00007
1.00015
1.00021
1.00013
1
1.00231
1.00436
1
1.13104
1.19864
)
;
    }
    atmosphere
    {
        type            calculated;
        value           nonuniform List<scalar> 
46
(
3
3
3
3
3
3
3
3
3
3
3
3
3
3
3
3
3
3
3
3
3
3
3
3
3
3
3
3
3
3
3
3
3
3
3
3
3
3
3
3
3
3
3
3
3
3
)
;
    }
    defaultFaces
    {
        type            empty;
    }
}


// ************************************************************************* //
