/*--------------------------------*- C++ -*----------------------------------*\
  =========                 |
  \\      /  F ield         | OpenFOAM: The Open Source CFD Toolbox
   \\    /   O peration     | Website:  https://openfoam.org
    \\  /    A nd           | Version:  13
     \\/     M anipulation  |
\*---------------------------------------------------------------------------*/
FoamFile
{
    format      ascii;
    class       volScalarField;
    location    "0.45";
    object      alpha.oil;
}
// * * * * * * * * * * * * * * * * * * * * * * * * * * * * * * * * * * * * * //

dimensions      [];

internalField   nonuniform List<scalar> 
2268
(
4.37072e-46
4.44519e-44
5.24071e-42
8.88592e-41
4.77968e-40
7.22346e-39
6.47194e-38
7.68612e-37
-1.76172e-32
-5.00744e-29
-9.34096e-28
-1.09281e-26
2.92813e-18
6.27308e-17
3.59762e-16
3.72207e-15
6.91411e-14
3.50228e-13
1.59053e-12
7.10446e-12
1.67376e-11
3.24998e-13
0.000589888
3.82774e-48
2.58243e-42
1.81307e-40
2.70978e-39
1.10083e-38
1.4992e-37
1.62746e-36
2.53881e-35
-2.46944e-31
-1.11978e-27
-2.09073e-26
-2.40157e-25
1.66738e-19
2.32709e-16
1.75827e-15
4.60127e-15
2.24556e-14
2.76703e-12
2.29513e-11
7.79946e-11
1.00661e-10
5.96504e-13
0.000605358
3.00967e-42
3.72106e-41
1.81068e-39
2.93526e-38
8.84905e-38
1.18581e-36
1.35462e-35
3.39711e-34
-1.374e-30
-1.29946e-26
-2.45496e-25
-2.79241e-24
1.32052e-19
8.96009e-16
1.01454e-14
3.03643e-14
8.99365e-13
2.57449e-12
7.84058e-12
2.39202e-11
2.61446e-11
3.24107e-13
0.000605169
3.12797e-40
3.86361e-40
1.46999e-38
2.73951e-37
1.14837e-36
1.25056e-35
9.51507e-35
2.63247e-33
-2.83852e-30
-1.02739e-25
-1.9898e-24
-2.2523e-23
1.80601e-20
1.38519e-15
2.50273e-14
1.17251e-13
3.80594e-13
2.8667e-13
2.30701e-13
7.54054e-15
4.82066e-11
9.39601e-13
0.000239613
1.61751e-36
1.31523e-36
2.92944e-35
3.69672e-34
2.61809e-33
2.36127e-32
5.84221e-32
6.7929e-31
2.99466e-30
-6.17338e-25
-1.24753e-23
-1.41241e-22
3.46257e-19
1.78342e-16
3.07232e-14
1.57862e-13
1.67722e-13
1.68786e-09
6.69964e-09
7.00387e-09
4.47379e-09
1.07163e-09
6.59601e-10
1.74343e-34
2.10933e-34
4.47917e-33
5.19952e-32
3.99596e-31
3.15537e-30
8.83522e-30
5.95196e-29
6.27441e-28
-2.98233e-24
-6.44635e-23
-7.3518e-22
4.25764e-17
1.65555e-15
9.411e-15
5.67011e-13
2.7277e-12
2.99778e-09
9.31545e-09
9.38793e-09
4.48217e-09
1.03633e-09
1.34419e-09
1.088e-33
1.65026e-33
3.54464e-32
4.13043e-31
3.22887e-30
2.46676e-29
2.15953e-28
1.19048e-27
1.36386e-26
-1.19685e-23
-2.8642e-22
-3.32646e-21
5.86733e-16
3.1658e-14
1.36182e-13
3.12934e-12
2.90769e-12
2.58529e-09
3.96739e-09
5.39786e-10
-1.68253e-12
1.84576e-08
6.80249e-09
4.44452e-33
8.25961e-33
1.83399e-31
2.35463e-30
1.73918e-29
1.40621e-28
1.16178e-27
5.72446e-27
5.96782e-26
-4.03675e-23
-1.12173e-21
-1.34913e-20
2.00131e-15
1.01812e-13
7.03796e-13
3.85268e-12
1.59781e-11
4.28392e-10
3.75826e-10
8.15835e-06
3.14218e-06
3.74956e-08
3.01973e-08
0.999982
1
1
1
1
0.996711
0.956643
0.968431
0.998945
0.999966
0.999923
0.999897
0.999936
1
0.998845
0.997819
1
0.93448
0.900682
0.999998
0.999999
1
0.988632
0.803739
0.47156
0.186594
0.196454
0.442339
0.936052
0.999989
0.999988
0.999993
1
0.999845
0.998519
1
0.927505
0.869738
0.999971
0.999009
0.888654
0.447508
0.0369491
1.10135e-05
1.60949e-11
-2.48189e-20
-4.33284e-21
0.102076
0.869025
1
1
1
1
0.999964
1
0.948272
0.869862
0.999964
0.996877
0.531046
1.82221e-06
3.88363e-07
6.2357e-06
7.63243e-08
6.39977e-19
-3.31222e-19
0.0123477
0.404323
0.97569
1
1
1
1
1
0.989115
0.869738
0.999946
0.999942
0.581999
0.0154115
0.000912095
7.19942e-05
2.3335e-10
0.127179
0.117145
0.0106192
0.0751816
0.802412
1
1
1
1
1
1
0.930334
0.999942
0.999937
0.915619
0.319924
0.041717
0.00840372
0.172289
0.449674
0.455589
0.178069
0.138429
0.624241
1
1
1
1
1
1
0.999883
0.995554
0.989767
0.991882
0.65376
0.386948
0.293648
0.443746
0.452085
0.610216
0.659464
0.401282
0.757935
1
1
1
1
1
1
1
0.610502
0.643573
0.566747
0.494657
0.387421
0.388281
0.456006
0.676474
0.928986
0.996897
0.965313
0.976295
0.996341
1
1
1
1
1
1
1.44512e-32
3.14062e-32
7.37546e-31
1.06726e-29
8.13625e-29
7.98906e-28
6.48102e-27
3.08088e-26
2.69334e-25
-1.11143e-22
-3.8239e-21
-4.84275e-20
1.38881e-14
2.69739e-13
2.20306e-12
3.39363e-11
5.48697e-11
1.35963e-27
5.98207e-06
2.4403e-05
3.90114e-06
7.27186e-08
4.68335e-08
9.70197e-32
2.04904e-31
4.41005e-30
5.00449e-29
5.02132e-28
7.28046e-27
4.9267e-26
2.40142e-25
1.87954e-24
-3.62918e-22
-1.82464e-20
-2.48886e-19
4.85482e-13
2.06188e-13
9.49528e-13
1.34305e-11
4.08989e-11
2.15228e-29
3.89869e-06
3.93133e-07
7.89927e-09
0.00719901
0.0104634
8.43686e-31
1.66646e-30
9.59748e-29
8.9669e-28
3.62245e-27
4.6043e-26
2.05872e-25
1.04486e-24
9.47642e-24
-7.10293e-22
-6.90922e-20
-1.03508e-18
8.72291e-12
3.79009e-12
1.3527e-13
2.27939e-13
9.45799e-12
2.30632e-29
1.31084e-07
2.04903e-08
1.47389e-08
0.00586384
0.0105515
3.8754e-29
7.55491e-29
1.54431e-27
1.41082e-26
1.01417e-25
7.61623e-25
2.42223e-24
9.8901e-24
4.95535e-23
-2.44465e-22
-2.09308e-19
-3.60376e-18
1.78582e-10
1.05376e-10
3.63019e-12
-1.45553e-11
-5.55264e-12
-1.45308e-12
1.99265e-08
6.35841e-14
0.000138746
0.000581515
0.00047271
1.88729e-27
4.89173e-27
1.14775e-25
1.38046e-24
1.2342e-23
8.88882e-23
2.10921e-22
9.35604e-22
3.83071e-21
4.76234e-21
-4.78547e-19
-1.0741e-17
3.26525e-09
1.31986e-09
1.5896e-10
3.67136e-09
4.79815e-09
2.53874e-09
1.21792e-09
4.37733e-24
1.51797e-05
6.53235e-07
9.40547e-08
1.47553e-26
5.07102e-26
1.22205e-24
1.67321e-23
1.70202e-22
1.41711e-21
6.58863e-21
3.49498e-20
1.53887e-19
2.53377e-19
-6.04842e-19
-2.7859e-17
8.07633e-09
9.70927e-09
1.19755e-10
6.20246e-09
3.95343e-06
3.52723e-08
4.38606e-24
-2.15738e-37
9.91851e-09
1.22534e-08
2.24513e-07
3.55105e-26
1.5212e-25
3.42425e-24
4.80712e-23
5.00363e-22
4.31505e-21
3.23391e-20
1.88622e-19
8.42821e-19
2.49644e-18
8.15827e-19
-6.3298e-17
7.09464e-15
1.21273e-06
6.63636e-06
1.23654e-06
9.86402e-07
0.000379601
0.00554093
0.00931678
0.0333449
0.0856333
0.160181
7.74788e-26
6.12704e-25
1.01802e-23
1.3044e-22
1.27893e-21
1.09482e-20
7.66529e-20
4.40039e-19
2.00141e-18
8.08679e-18
9.21036e-18
-1.16239e-16
1.45481e-08
2.89509e-06
4.10882e-05
8.2465e-05
4.23151e-05
4.78271e-06
2.11585e-06
0.00429562
0.411891
0.845842
0.922473
1.52015e-25
1.97802e-24
2.75305e-23
3.4266e-22
3.16183e-21
2.78279e-20
1.92956e-19
1.14959e-18
5.39721e-18
1.84431e-17
4.11002e-17
-1.38493e-16
3.06971e-09
1.91015e-09
6.73095e-06
0.000147369
0.000130766
7.73134e-05
2.0653e-05
9.86771e-05
0.0647654
0.378071
0.449452
2.81073e-25
5.22825e-24
7.40913e-23
8.21992e-22
7.85129e-21
6.52288e-20
4.47602e-19
2.58197e-18
1.21365e-17
4.44121e-17
1.261e-16
-1.06528e-16
2.69194e-08
1.51456e-08
9.66489e-09
0.000128832
0.000190793
0.000186128
3.67291e-05
3.65462e-07
-1.0107e-09
-4.3256e-10
0
4.9386e-25
1.06954e-23
1.56493e-22
1.70962e-21
1.65865e-20
1.37482e-19
9.15741e-19
5.37966e-18
2.59486e-17
1.02503e-16
3.05163e-16
4.12088e-17
8.36948e-08
1.21477e-07
1.00219e-07
5.13998e-08
6.81409e-05
5.25191e-05
4.70138e-06
8.98344e-08
8.72704e-08
3.6863e-08
1.68595e-08
8.21516e-25
1.96207e-23
2.9545e-22
3.41872e-21
3.16351e-20
2.56133e-19
1.66953e-18
9.78425e-18
4.9933e-17
1.94353e-16
6.27835e-16
8.90212e-18
1.30695e-07
2.13141e-07
1.77984e-07
3.09015e-08
5.55772e-09
6.35088e-09
4.89824e-08
7.85212e-08
7.19049e-08
4.9061e-08
1.47404e-08
1.27874e-24
3.21731e-23
4.9157e-22
5.59267e-21
5.26698e-20
4.12107e-19
2.76592e-18
1.55198e-17
7.88209e-17
3.27565e-16
1.27061e-15
2.15775e-16
2.21383e-08
7.4995e-08
5.88151e-08
2.74783e-08
1.46076e-08
6.43383e-09
1.54719e-09
1.96683e-09
2.24678e-09
9.92307e-10
1.2285e-09
1.83309e-24
4.73182e-23
7.23446e-22
8.18814e-21
7.57325e-20
5.77544e-19
3.79164e-18
2.15575e-17
1.08884e-16
5.14905e-16
2.12429e-15
5.82496e-15
-1.11369e-31
-3.59942e-13
-1.11054e-11
-3.19247e-11
-5.32059e-11
-6.60957e-11
-6.73475e-11
-5.87165e-11
-4.30862e-11
-6.904e-13
2.05767e-10
2.38324e-24
6.20838e-23
9.41554e-22
1.04601e-20
9.46372e-20
7.02103e-19
4.46704e-18
2.52753e-17
1.26952e-16
5.52622e-16
2.18068e-15
7.17092e-15
1.13578e-14
-1.7112e-13
-5.78757e-12
-1.516e-11
-2.30462e-11
-2.59815e-11
-2.32726e-11
-1.65384e-11
-5.87535e-12
3.62283e-11
2.20975e-10
2.77043e-24
7.19864e-23
1.07747e-21
1.17094e-20
1.02647e-19
7.38841e-19
4.55284e-18
2.53881e-17
1.2062e-16
5.14913e-16
2.00325e-15
6.632e-15
1.68931e-14
-3.59391e-14
-1.99278e-12
-4.30897e-12
-5.20326e-12
-4.26756e-12
-1.70601e-12
1.32355e-12
6.88918e-12
2.88553e-11
1.44059e-10
2.78343e-24
7.30903e-23
1.07133e-21
1.1364e-20
9.56834e-20
6.62211e-19
3.98512e-18
2.15903e-17
9.81975e-17
4.11033e-16
1.52931e-15
5.15755e-15
1.49649e-14
1.90295e-14
-3.92004e-13
-6.04604e-13
-2.89501e-13
4.0713e-13
1.58704e-12
2.98764e-12
4.84283e-12
1.83794e-11
5.50581e-11
2.29865e-24
6.25265e-23
9.18308e-22
9.36958e-21
7.55447e-20
4.98711e-19
2.94653e-18
1.5321e-17
6.68084e-17
2.74691e-16
9.87434e-16
3.23574e-15
9.60095e-15
2.32662e-14
7.91255e-15
7.01327e-14
2.69095e-13
5.85016e-13
1.03046e-12
1.73617e-12
3.0423e-12
7.33863e-12
1.50178e-11
1.51944e-24
4.23906e-23
6.31823e-22
6.43104e-21
4.98778e-20
3.16348e-19
1.80368e-18
8.56488e-18
3.74931e-17
1.47509e-16
5.08171e-16
1.61187e-15
4.4409e-15
1.20909e-14
3.03025e-14
6.63229e-14
1.35881e-13
2.69469e-13
5.19583e-13
1.06309e-12
2.03563e-12
4.08669e-12
7.39161e-12
7.76232e-25
2.20423e-23
3.29537e-22
3.33539e-21
2.57175e-20
1.62879e-19
8.94867e-19
4.14971e-18
1.68098e-17
6.27067e-17
2.06112e-16
6.27539e-16
1.73953e-15
4.47926e-15
1.08619e-14
2.55351e-14
5.93746e-14
1.34407e-13
3.22796e-13
7.66412e-13
1.61988e-12
3.15756e-12
5.60375e-12
2.85744e-25
8.40658e-24
1.24768e-22
1.26326e-21
9.88984e-21
6.3346e-20
3.26474e-19
1.48977e-18
5.91562e-18
2.11823e-17
6.74034e-17
1.9806e-16
5.46378e-16
1.46294e-15
4.269e-15
1.21324e-14
3.37419e-14
9.17413e-14
2.40762e-13
5.74795e-13
1.20111e-12
2.25064e-12
3.7393e-12
7.75665e-26
2.18927e-24
3.24666e-23
3.40062e-22
2.72999e-21
1.70718e-20
8.85516e-20
4.04998e-19
1.60654e-18
5.6761e-18
1.87368e-17
5.88033e-17
1.99489e-16
6.79407e-16
2.34687e-15
7.60036e-15
2.276e-14
6.53026e-14
1.69037e-13
3.86597e-13
7.80725e-13
1.35016e-12
2.23819e-12
1.31981e-26
3.84849e-25
5.90939e-24
6.39092e-23
5.31592e-22
3.30508e-21
1.72898e-20
8.3747e-20
3.75989e-19
1.50214e-18
5.98697e-18
2.36557e-17
9.41451e-17
3.66334e-16
1.37243e-15
4.59641e-15
1.38759e-14
4.00139e-14
1.00471e-13
2.21355e-13
4.27199e-13
7.68849e-13
1.25374e-12
1.23305e-27
3.88348e-26
6.41576e-25
7.29026e-24
6.29453e-23
4.38252e-22
2.77369e-21
1.58977e-20
8.27363e-20
4.18535e-19
2.07688e-18
9.73229e-18
4.31937e-17
1.78829e-16
6.94502e-16
2.37506e-15
7.28053e-15
2.08423e-14
5.11932e-14
1.11549e-13
2.27924e-13
3.97709e-13
6.58936e-13
7.26232e-29
2.65221e-27
5.17847e-26
6.89405e-25
6.89082e-24
5.83439e-23
4.5205e-22
3.22058e-21
2.05504e-20
1.22825e-19
7.17904e-19
3.68652e-18
1.72301e-17
7.39772e-17
2.95361e-16
1.02592e-15
3.16964e-15
9.36437e-15
2.34243e-14
5.1483e-14
1.00776e-13
1.88119e-13
3.12148e-13
3.92858e-30
1.72889e-28
3.96769e-27
6.35738e-26
8.00371e-25
8.47049e-24
8.08537e-23
6.82561e-22
5.06552e-21
3.38111e-20
2.04129e-19
1.16786e-18
5.67765e-18
2.56278e-17
1.0733e-16
3.85438e-16
1.22054e-15
3.48712e-15
9.29604e-15
2.09879e-14
4.4519e-14
8.42631e-14
1.44371e-13
2.15097e-31
1.14229e-29
3.18011e-28
6.08899e-27
9.112e-26
1.16394e-24
1.29296e-23
1.2347e-22
1.0223e-21
7.47598e-21
4.90962e-20
3.02742e-19
1.58464e-18
7.44348e-18
3.07467e-17
1.10871e-16
3.8123e-16
1.22189e-15
3.23256e-15
7.62647e-15
1.6203e-14
3.24791e-14
5.75743e-14
9.2963e-33
5.95948e-31
2.05029e-29
4.76251e-28
8.58839e-27
1.27948e-25
1.62767e-24
1.7599e-23
1.62975e-22
1.33379e-21
9.5777e-21
6.0722e-20
3.42442e-19
1.71799e-18
7.64905e-18
2.99875e-17
1.04564e-16
3.26902e-16
9.44882e-16
2.445e-15
5.73604e-15
1.18326e-14
2.19902e-14
3.22724e-34
2.52888e-32
1.0042e-30
2.70945e-29
5.76794e-28
1.03224e-26
1.53172e-25
1.8655e-24
1.92209e-23
1.72443e-22
1.34621e-21
9.21595e-21
5.55806e-20
2.95091e-19
1.40791e-18
6.32218e-18
2.42763e-17
8.22793e-17
2.46359e-16
6.68284e-16
1.63852e-15
3.6918e-15
7.19967e-15
8.8177e-36
8.44913e-34
3.93692e-32
1.23695e-30
3.02197e-29
6.1299e-28
1.03376e-26
1.43057e-25
1.66038e-24
1.6663e-23
1.44884e-22
1.10047e-21
7.34745e-21
4.32916e-20
2.26278e-19
1.05269e-18
4.35263e-18
1.60948e-17
5.386e-17
1.59323e-16
4.3237e-16
1.0381e-15
2.15427e-15
1.90207e-37
2.18249e-35
1.2242e-33
4.52403e-32
1.26205e-30
2.87875e-29
5.50061e-28
8.69e-27
1.1352e-25
1.25729e-24
1.20402e-23
1.00426e-22
7.31856e-22
4.6789e-21
2.65873e-20
1.37649e-19
6.44778e-19
2.65844e-18
9.54329e-18
3.1651e-17
9.72579e-17
2.41267e-16
5.79824e-16
2.44039e-39
3.42343e-37
2.3183e-35
1.01022e-33
3.33827e-32
8.95646e-31
1.98067e-29
3.6069e-28
5.45921e-27
6.97841e-26
7.64467e-25
7.24129e-24
5.93841e-23
4.28345e-22
2.82071e-21
1.60471e-20
8.18667e-20
3.60651e-19
1.47571e-18
5.4462e-18
1.7865e-17
5.25816e-17
1.32142e-16
2.06423e-41
3.49645e-39
3.23494e-37
1.75378e-35
7.00198e-34
2.19059e-32
5.5212e-31
1.13688e-29
1.95679e-28
2.84558e-27
3.54137e-26
3.98803e-25
3.72743e-24
3.00256e-23
2.12899e-22
1.3684e-21
7.78306e-21
3.903e-20
1.87815e-19
7.71192e-19
2.83482e-18
9.0292e-18
2.69882e-17
1.62956e-43
3.34616e-41
3.19078e-39
1.96585e-37
9.02604e-36
3.30397e-34
9.78425e-33
2.36694e-31
4.7907e-30
8.30021e-29
1.23729e-27
1.57567e-26
1.70251e-25
1.60087e-24
1.37304e-23
1.05222e-22
6.79875e-22
3.82922e-21
1.9761e-20
9.34202e-20
3.91624e-19
1.42702e-18
4.75347e-18
6.53796e-46
1.5856e-43
1.71861e-41
1.33878e-39
8.6436e-38
3.57114e-36
1.2992e-34
3.67385e-33
8.72154e-32
1.75146e-30
2.98029e-29
4.34099e-28
5.62034e-27
6.63639e-26
6.84961e-25
5.92398e-24
3.77934e-23
3.10808e-22
1.83392e-21
9.9546e-21
4.65307e-20
1.86905e-19
7.17153e-19
1.68197e-48
5.09689e-46
7.15065e-44
6.69527e-42
4.67401e-40
2.51778e-38
1.07245e-36
3.72714e-35
1.08225e-33
2.6328e-32
5.2081e-31
9.01671e-30
1.62088e-28
2.20851e-27
2.62911e-26
2.69775e-25
2.16378e-24
2.06591e-23
1.39376e-22
8.31119e-22
4.47921e-21
2.29792e-20
9.01686e-20
2.03878e-51
7.19461e-49
1.21874e-46
1.41654e-44
1.23891e-42
8.53602e-41
4.74014e-39
2.10314e-37
7.75392e-36
2.37339e-34
5.83442e-33
1.2582e-31
2.81197e-30
4.68112e-29
6.73699e-28
8.90547e-27
8.26987e-26
9.82693e-25
8.07078e-24
5.73579e-23
3.47402e-22
1.95165e-21
1.08692e-20
2.03458e-54
6.93797e-52
1.30973e-49
1.83807e-47
2.02148e-45
1.74272e-43
1.21633e-41
7.18184e-40
3.52791e-38
1.41061e-36
4.5045e-35
1.27775e-33
3.75227e-32
8.18964e-31
1.54404e-29
2.49259e-28
2.81651e-27
4.11584e-26
4.10769e-25
3.58672e-24
2.69471e-23
1.76125e-22
9.639e-22
7.47647e-58
1.94783e-55
3.87788e-53
6.61302e-51
9.62047e-49
1.1597e-46
1.14362e-44
9.2272e-43
6.14281e-41
3.41296e-39
1.59578e-37
6.33131e-36
2.1478e-34
6.26583e-33
1.57582e-31
3.40174e-30
5.00268e-29
9.75744e-28
1.27912e-26
1.43322e-25
1.2547e-24
1.16603e-23
9.00421e-23
9.7488e-62
1.71287e-59
3.36435e-57
6.99624e-55
1.40344e-52
2.45394e-50
3.57332e-48
4.30523e-46
4.30885e-44
3.52345e-42
2.25243e-40
1.28666e-38
7.47562e-37
3.1452e-35
1.1228e-33
3.39213e-32
6.83901e-31
1.86536e-29
3.27804e-28
4.91296e-27
6.4073e-26
7.03296e-25
5.72173e-24
5.37132e-67
6.72348e-65
1.20612e-62
3.09847e-60
9.42594e-58
2.78149e-55
7.10633e-53
1.50212e-50
2.59856e-48
3.68754e-46
4.31781e-44
4.19774e-42
3.41071e-40
2.33417e-38
1.35717e-36
6.74027e-35
2.84229e-33
7.91421e-32
2.81591e-30
6.19582e-29
1.14492e-27
2.1187e-26
3.53512e-25
1.70946e-76
1.06639e-74
1.99127e-72
8.43391e-70
5.73895e-67
4.55382e-64
3.36715e-61
2.09474e-58
1.06517e-55
4.42797e-53
1.51715e-50
4.30884e-48
1.01274e-45
1.95733e-43
3.1136e-41
4.16305e-39
4.79989e-37
3.66888e-35
3.71625e-33
2.28724e-31
1.09828e-29
3.94645e-28
1.00336e-26
4.40212e-08
7.04735e-08
1.28544e-05
1.3983e-05
0.0105141
0.00418019
0.000118391
1.94847e-05
0.00867531
0.0015602
3.55515e-05
1.39831e-05
0.000498584
0.000732802
0.000699517
0.000421914
5.41415e-08
1.38608e-10
1.09985e-24
-4.49398e-07
4.89048e-07
7.82437e-07
6.81642e-07
0.00233892
0.225581
0.265946
0.323608
0.436671
0.942063
0.954675
0.95225
0.953414
0.391066
0.336274
0.425533
0.628032
-3.32574e-10
-1.32923e-10
-3.72656e-11
-1.03917e-10
1.04416e-08
4.93909e-09
2.20675e-09
1.04245e-09
9.91119e-09
4.25606e-09
2.31816e-09
1.67467e-09
1.12537e-09
1.04435e-09
1.21148e-09
1.40231e-09
3.80514e-10
6.24292e-10
8.87576e-10
1.30426e-09
3.64075e-10
5.50495e-10
8.34306e-10
1.01722e-09
2.31963e-10
2.93701e-10
4.33101e-10
5.3432e-10
8.61395e-11
1.06139e-10
1.18264e-10
1.65995e-10
2.00151e-11
2.07979e-11
2.52316e-11
2.59459e-11
1.05413e-11
1.32207e-11
1.528e-11
1.85495e-11
8.17648e-12
9.25043e-12
1.10962e-11
1.21106e-11
5.19918e-12
6.04542e-12
6.79944e-12
8.00496e-12
3.08673e-12
3.45846e-12
4.31095e-12
5.22844e-12
1.74271e-12
2.13799e-12
2.66331e-12
3.45553e-12
9.40374e-13
1.15514e-12
1.58919e-12
2.15586e-12
4.87977e-13
6.32781e-13
8.5491e-13
1.22937e-12
2.27047e-13
2.98439e-13
4.24176e-13
6.15034e-13
9.63457e-14
1.32574e-13
1.92248e-13
2.8689e-13
3.82064e-14
5.23695e-14
7.9147e-14
1.19856e-13
1.33162e-14
1.8949e-14
2.81679e-14
4.30736e-14
4.2465e-15
6.2323e-15
9.21348e-15
1.42571e-14
1.1963e-15
1.7856e-15
2.82709e-15
4.31948e-15
3.08871e-16
4.88235e-16
7.55552e-16
1.21392e-15
6.73659e-17
1.12511e-16
1.83016e-16
3.01748e-16
1.34732e-17
2.41291e-17
4.1619e-17
7.21355e-17
2.26906e-18
4.37992e-18
8.25298e-18
1.55212e-17
3.66752e-19
7.41704e-19
1.48576e-18
2.92747e-18
4.5829e-20
1.06534e-19
2.41938e-19
5.37305e-19
5.49332e-21
1.40241e-20
3.48601e-20
8.40012e-20
5.45371e-22
1.68643e-21
4.87124e-21
1.33419e-20
4.85151e-23
1.71621e-22
5.82193e-22
1.81854e-21
3.4815e-24
1.59769e-23
6.71716e-23
2.58861e-22
1.69115e-25
1.16012e-24
6.80014e-24
3.42929e-23
0.011724
0.108926
0.0728315
0.0567184
0.193207
0.64935
0.916271
0.999953
0.999996
0.999999
1
0.999982
0.999807
0.999989
1
1
1
1
1
0.0737434
0.0673542
0.00770353
0.00562473
0.0309295
0.802767
0.99696
0.999771
1
1
1
1
1
0.999999
1
1
1
1
1
0.133704
0.158518
0.0609362
0.013478
0.0285782
0.711234
0.999992
1
1
1
1
1
1
1
1
1
1
1
1
0.00102302
0.021415
0.0144772
0.0162239
0.0954601
0.733626
0.999993
1
1
1
1
1
0.999998
0.999997
0.999999
1
1
1
1
9.96342e-07
5.69252e-06
0.0534365
0.320102
0.747008
0.99091
0.999992
1
1
1
1
1
0.999998
0.999997
0.999999
1
1
1
1
0.027567
0.243266
0.690722
0.995271
0.994101
0.999679
0.999953
0.98484
0.980979
0.993277
1
1
1
0.999999
1
1
1
1
1
0.664117
0.945256
0.979302
0.990288
0.949823
0.789781
0.557983
0.392624
0.371339
0.508306
0.722294
0.933206
1
1
1
0.999727
0.999981
1
1
0.951631
0.833002
0.716387
0.547644
0.303612
0.0583413
9.46794e-09
7.66422e-11
2.53147e-08
0.0085503
0.057002
0.235799
0.623352
0.945884
1
0.999407
0.999963
1
1
0.454707
0.106243
1.14941e-16
8.21188e-13
1.13383e-16
3.6913e-19
5.73386e-10
1.18266e-15
7.82106e-08
1.03183e-07
6.66824e-08
5.8508e-08
0.0154302
0.354064
1
0.999912
0.999757
1
1
-4.86029e-11
-2.73056e-26
3.68012e-26
6.21766e-10
1.56153e-08
7.68388e-09
2.54836e-09
5.73386e-10
1.45881e-07
6.58324e-07
5.85092e-08
6.66717e-08
-1.28032e-19
0.051314
0.903862
1
0.999738
1
1
3.44044e-10
1.98192e-09
3.90447e-09
1.08985e-08
5.05551e-08
5.15518e-08
1.46903e-08
1.31156e-06
9.01896e-06
1.04813e-05
2.16118e-06
6.1593e-08
2.04278e-08
0.0206069
0.70076
1
0.99981
1
1
1.86309e-09
5.85985e-09
1.00157e-08
1.93324e-08
9.76928e-08
1.05062e-07
2.8204e-08
5.22967e-06
1.06378e-05
1.06529e-05
5.29376e-06
6.14183e-08
4.66737e-14
0.00458839
0.562535
1
0.999999
1
1
2.77172e-09
9.23294e-09
2.25042e-08
3.78317e-08
8.18002e-08
1.10017e-07
1.08608e-07
1.2611e-06
8.73106e-06
1.06378e-05
4.01044e-06
1.39385e-07
2.04278e-08
2.5078e-08
0.334824
1
1
0.999994
1
3.11385e-09
1.03571e-08
2.27593e-08
2.55815e-08
2.38119e-08
2.9115e-08
2.90559e-08
7.75813e-08
7.11685e-07
2.25625e-06
5.84837e-07
1.82413e-07
2.50779e-08
3.36751e-08
0.100466
0.950603
1
0.999992
1
2.88167e-09
7.09622e-09
8.61814e-09
7.81452e-09
3.55739e-09
7.72657e-10
7.95368e-10
2.08611e-09
2.37084e-08
5.75782e-08
5.85333e-08
1.35826e-07
3.94871e-08
1.12192e-07
0.0115359
0.655034
1
0.999997
1
1.20341e-09
2.11018e-09
1.65424e-09
1.63975e-09
1.06644e-09
5.64364e-10
3.55484e-10
2.86024e-10
3.96948e-09
1.23888e-08
1.22221e-08
6.03601e-08
3.09973e-08
4.25869e-08
5.02978e-08
0.243089
1
1
1
1.4519e-10
7.84791e-11
5.24757e-11
7.38967e-11
9.20143e-11
1.29725e-10
1.93871e-10
2.86583e-10
4.6176e-10
5.62886e-09
1.72442e-08
2.73136e-08
2.7613e-08
3.83001e-08
3.10154e-08
0.0110514
0.684978
1
1
2.87102e-11
3.56707e-11
4.49854e-11
5.81465e-11
8.53801e-11
1.37204e-10
2.35972e-10
3.62818e-10
6.04236e-10
4.8033e-09
1.40012e-08
1.65042e-08
2.09471e-08
2.35268e-08
3.43212e-08
4.81996e-08
0.269482
1
1
2.12323e-11
2.6083e-11
3.58245e-11
5.91459e-11
1.13539e-10
2.17667e-10
3.69055e-10
5.34339e-10
7.60117e-10
2.36398e-09
1.02591e-08
1.58206e-08
1.91811e-08
2.05975e-08
4.75169e-08
1.04197e-07
0.172649
1
0.99932
1.40597e-11
2.04234e-11
3.53947e-11
7.32261e-11
1.60404e-10
3.19927e-10
5.41338e-10
7.88283e-10
1.042e-09
1.83552e-09
6.33731e-09
1.1808e-08
1.55111e-08
2.01832e-08
3.41742e-08
1.29995e-08
0.0574459
0.769269
0.98689
9.75092e-12
1.79794e-11
3.78501e-11
8.79508e-11
2.04341e-10
4.11747e-10
7.11738e-10
1.07097e-09
1.45338e-09
1.91357e-09
4.19732e-09
8.41027e-09
1.2265e-08
1.70216e-08
2.03479e-08
2.08535e-08
0.00123306
0.0782001
0.971581
7.23469e-12
1.63095e-11
3.87135e-11
9.68102e-11
2.3509e-10
4.89232e-10
8.85638e-10
1.40764e-09
1.9717e-09
2.5839e-09
3.70132e-09
6.31442e-09
9.66217e-09
1.34354e-08
1.41331e-08
2.49074e-08
1.38666e-07
0.000155719
0.971199
5.30734e-12
1.39974e-11
3.63971e-11
9.85545e-11
2.56857e-10
5.80802e-10
1.15802e-09
1.96722e-09
2.79043e-09
3.80694e-09
4.16131e-09
5.7224e-09
8.52003e-09
1.11972e-08
1.13165e-08
2.14523e-08
1.68885e-08
1.19109e-08
0.848277
3.63398e-12
1.07628e-11
3.08571e-11
9.37451e-11
2.73962e-10
6.91608e-10
1.50598e-09
2.73173e-09
4.41364e-09
6.46289e-09
8.37924e-09
8.76244e-09
9.00788e-09
1.01128e-08
1.14083e-08
1.49208e-08
2.05242e-08
1.09501e-07
0.320497
1.96852e-12
7.18675e-12
2.23015e-11
7.59345e-11
2.44775e-10
6.86806e-10
1.6764e-09
3.41661e-09
6.62638e-09
1.03932e-08
1.35816e-08
1.59041e-08
1.60976e-08
1.28193e-08
1.59127e-08
1.2257e-08
2.54008e-08
1.18094e-08
0.427073
1.15799e-12
3.94433e-12
1.37079e-11
4.89945e-11
1.61659e-10
4.99189e-10
1.38851e-09
3.29252e-09
7.5164e-09
1.22202e-08
2.2914e-08
2.86994e-08
3.18358e-08
1.33778e-08
2.36971e-08
1.47505e-08
2.64066e-08
1.18608e-08
0.842576
4.89066e-13
1.98934e-12
6.93679e-12
2.57526e-11
9.03882e-11
3.04365e-10
9.4244e-10
2.56664e-09
6.13593e-09
1.15442e-08
2.8635e-08
4.76734e-08
3.9027e-08
5.64041e-08
3.21346e-08
1.73509e-08
1.83335e-08
3.78626e-05
0.93749
2.0766e-13
8.22464e-13
3.01374e-12
1.18748e-11
4.54539e-11
1.63623e-10
5.29809e-10
1.55202e-09
4.17709e-09
9.14732e-09
3.09497e-08
6.64851e-08
1.09582e-07
2.23562e-08
2.58706e-08
2.0285e-08
2.24739e-08
0.0124235
0.93749
7.56669e-14
3.16099e-13
1.21813e-12
4.97459e-12
2.0294e-11
7.77196e-11
2.71078e-10
8.64069e-10
2.50766e-09
5.56534e-09
1.67456e-08
7.04479e-08
2.00269e-07
3.02957e-07
1.0788e-07
2.24739e-08
5.94395e-08
0.0768673
0.93749
2.52908e-14
1.03891e-13
4.13447e-13
1.78308e-12
7.82245e-12
3.27715e-11
1.22855e-10
4.06034e-10
1.22751e-09
3.18444e-09
4.64681e-09
3.29995e-08
1.6808e-07
4.7032e-07
4.16365e-07
1.53296e-07
2.05449e-08
0.121965
0.93749
7.60855e-15
3.05858e-14
1.23652e-13
5.6076e-13
2.61255e-12
1.16842e-11
4.78123e-11
1.8156e-10
5.98916e-10
1.7462e-09
4.08096e-09
8.24902e-09
5.72219e-08
2.53251e-07
7.34004e-07
2.97934e-07
4.59649e-07
0.070905
0.543991
2.14446e-15
7.11176e-15
3.22868e-14
1.50156e-13
7.56912e-13
3.71143e-12
1.69337e-11
7.12561e-11
2.65296e-10
8.78049e-10
2.49369e-09
4.96292e-09
2.60738e-08
1.23957e-07
4.11063e-07
8.35207e-06
2.80631e-05
0.0026707
0.00442726
5.48788e-16
1.91903e-15
7.55249e-15
3.61876e-14
1.87198e-13
9.69434e-13
4.8548e-12
2.17246e-11
9.23497e-11
3.80538e-10
1.12793e-09
4.32086e-09
1.3145e-08
8.08793e-08
4.94716e-07
7.30069e-06
1.86733e-05
4.29446e-07
3.82047e-09
1.33657e-16
4.39272e-16
1.69613e-15
8.13725e-15
4.28627e-14
2.25567e-13
1.12961e-12
5.49862e-12
2.72034e-11
1.19038e-10
3.96418e-10
2.00051e-09
6.22255e-09
2.94653e-08
2.14279e-07
4.86222e-07
1.16206e-07
3.24869e-08
3.82556e-09
2.97062e-17
9.6428e-17
3.5931e-16
1.6962e-15
8.77334e-15
4.52346e-14
2.35218e-13
1.28575e-12
6.40693e-12
2.9273e-11
1.06238e-10
6.34123e-10
2.16111e-09
8.1287e-09
1.90171e-08
4.72352e-09
7.12283e-09
3.16231e-08
4.08361e-09
5.93588e-18
2.06221e-17
7.52825e-17
3.33411e-16
1.6303e-15
8.49681e-15
4.81876e-14
2.55903e-13
1.26771e-12
5.89667e-12
2.94341e-11
9.92907e-11
5.8149e-10
1.43978e-09
2.68818e-09
4.11111e-09
8.82613e-09
1.2857e-08
1.98979e-09
1.1592e-18
4.11937e-18
1.54641e-17
6.4333e-17
3.07405e-16
1.59339e-15
8.70608e-15
4.58588e-14
2.36016e-13
1.09526e-12
4.75918e-12
2.50861e-11
8.47034e-11
4.06566e-10
1.16289e-09
2.36066e-09
5.04663e-09
3.43028e-09
6.57339e-10
2.00875e-19
8.10954e-19
3.11041e-18
1.22146e-17
5.47221e-17
2.75921e-16
1.45424e-15
7.57254e-15
3.89358e-14
1.93691e-13
8.42503e-13
4.32996e-12
1.80105e-11
7.17989e-11
2.44236e-10
7.12122e-10
1.68181e-09
5.87796e-10
2.20907e-10
3.46672e-20
1.49884e-19
5.86415e-19
2.17656e-18
8.7968e-18
4.06173e-17
2.09342e-16
1.19188e-15
5.88459e-15
2.8516e-14
1.50201e-13
7.00473e-13
2.93551e-12
1.10816e-11
4.30924e-11
1.49167e-10
2.3847e-10
1.4411e-10
4.53251e-11
5.24527e-21
2.86796e-20
1.17106e-19
4.27056e-19
1.60071e-18
6.82085e-18
3.22067e-17
1.70574e-16
8.63316e-16
4.02563e-15
1.81502e-14
8.62026e-14
3.66495e-13
1.43065e-12
4.43408e-12
1.49664e-11
4.59581e-11
1.46555e-11
1.24725e-11
9.05392e-22
5.23754e-21
2.27862e-20
8.25158e-20
2.88594e-19
1.12326e-18
4.98202e-18
2.3987e-17
1.19858e-16
5.67892e-16
2.58209e-15
1.2635e-14
5.49528e-14
2.12679e-13
8.29788e-13
2.62607e-12
2.8354e-12
3.13565e-12
2.80159e-12
1.54179e-22
9.79228e-22
4.41114e-21
1.56767e-20
5.2026e-20
1.81739e-19
7.38878e-19
3.35203e-18
1.59499e-17
7.30438e-17
3.37397e-16
1.62827e-15
7.25456e-15
2.94775e-14
1.06358e-13
3.06911e-13
4.73636e-13
4.65152e-13
4.24759e-13
)
;

boundaryField
{
    leftWall
    {
        type            alphaContactAngle;
        contactAngleProperties 
        {
            mercury         
            {
                theta0          90;
            }
            air             
            {
                theta0          90;
            }
            water           
            {
                theta0          90;
            }
        }
        value           nonuniform List<scalar> 
50
(
4.37072e-46
3.82774e-48
3.00967e-42
3.12797e-40
1.61751e-36
1.74343e-34
1.088e-33
4.44452e-33
1.44512e-32
9.70197e-32
8.43686e-31
3.8754e-29
1.88729e-27
1.47553e-26
3.55105e-26
7.74788e-26
1.52015e-25
2.81073e-25
4.9386e-25
8.21516e-25
1.27874e-24
1.83309e-24
2.38324e-24
2.77043e-24
2.78343e-24
2.29865e-24
1.51944e-24
7.76232e-25
2.85744e-25
7.75665e-26
1.31981e-26
1.23305e-27
7.26232e-29
3.92858e-30
2.15097e-31
9.2963e-33
3.22724e-34
8.8177e-36
1.90207e-37
2.44039e-39
2.06423e-41
1.62956e-43
6.53796e-46
1.68197e-48
2.03878e-51
2.03458e-54
7.47647e-58
9.7488e-62
5.37132e-67
1.70946e-76
)
;
    }
    rightWall
    {
        type            alphaContactAngle;
        contactAngleProperties 
        {
            mercury         
            {
                theta0          90;
            }
            air             
            {
                theta0          90;
            }
            water           
            {
                theta0          90;
            }
        }
        value           nonuniform List<scalar> 
50
(
0.900682
0.869738
0.869862
0.869738
0.930334
0.999883
1
1
1
1
1
1
1
1
1
1
1
1
1
1
1
1
1
1
1
1
0.99932
0.98689
0.971581
0.971199
0.848277
0.320497
0.427073
0.842576
0.93749
0.93749
0.93749
0.93749
0.543991
0.00442726
3.82047e-09
3.82556e-09
4.08361e-09
1.98979e-09
6.57339e-10
2.20907e-10
4.53251e-11
1.24725e-11
2.80159e-12
4.24759e-13
)
;
    }
    lowerWall
    {
        type            alphaContactAngle;
        contactAngleProperties 
        {
            mercury         
            {
                theta0          90;
            }
            air             
            {
                theta0          90;
            }
            water           
            {
                theta0          90;
            }
        }
        value           nonuniform List<scalar> 
62
(
4.37072e-46
4.44519e-44
5.24071e-42
8.88592e-41
4.77968e-40
7.22346e-39
6.47194e-38
7.68612e-37
-1.76172e-32
-5.00744e-29
-9.34096e-28
-1.09281e-26
2.92813e-18
6.27308e-17
3.59762e-16
3.72207e-15
6.91411e-14
3.50228e-13
1.59053e-12
7.10446e-12
1.67376e-11
3.24998e-13
0.000589888
0.000589888
0.000605358
0.000605169
0.000239613
6.59601e-10
1.34419e-09
6.80249e-09
3.01973e-08
4.40212e-08
7.04735e-08
1.28544e-05
1.3983e-05
0.999982
0.999998
0.999971
0.999964
0.999946
0.999942
0.995554
0.610502
0.999982
1
1
1
1
0.996711
0.956643
0.968431
0.998945
0.999966
0.999923
0.999897
0.999936
1
0.998845
0.997819
1
0.93448
0.900682
)
;
    }
    atmosphere
    {
        type            inletOutlet;
        inletValue      uniform 0;
        value           nonuniform List<scalar> 
46
(
0
0
0
0
0
0
0
0
0
0
0
0
0
0
0
0
0
0
0
0
0
0
0
0
0
6.80014e-24
3.42929e-23
1.54179e-22
9.79228e-22
4.41114e-21
1.56767e-20
5.2026e-20
1.81739e-19
7.38878e-19
3.35203e-18
1.59499e-17
7.30438e-17
3.37397e-16
1.62827e-15
7.25456e-15
2.94775e-14
1.06358e-13
3.06911e-13
4.73636e-13
4.65152e-13
4.24759e-13
)
;
    }
    defaultFaces
    {
        type            empty;
    }
}


// ************************************************************************* //
