/*--------------------------------*- C++ -*----------------------------------*\
  =========                 |
  \\      /  F ield         | OpenFOAM: The Open Source CFD Toolbox
   \\    /   O peration     | Website:  https://openfoam.org
    \\  /    A nd           | Version:  13
     \\/     M anipulation  |
\*---------------------------------------------------------------------------*/
FoamFile
{
    format      ascii;
    class       volScalarField;
    location    "0.45";
    object      epsilon;
}
// * * * * * * * * * * * * * * * * * * * * * * * * * * * * * * * * * * * * * //

dimensions      [0 2 -3 0 0 0 0];

internalField   nonuniform List<scalar> 
2268
(
0.0172242
0.0669528
0.126995
0.180616
0.231516
0.279468
0.324261
0.365381
0.402088
0.433571
0.45909
0.478104
0.490361
0.495974
0.495462
0.492472
0.48652
0.473187
0.446899
0.401581
0.332107
0.231314
0.091217
0.0222374
0.0467228
0.0703055
0.0917859
0.111623
0.13005
0.147156
0.162876
0.177055
0.189519
0.200133
0.208842
0.215708
0.220953
0.224988
0.229301
0.234886
0.241157
0.246393
0.246742
0.235403
0.198591
0.141928
0.035595
0.0485796
0.0647343
0.0796483
0.0932295
0.105647
0.117017
0.127351
0.136597
0.144705
0.151661
0.157542
0.162555
0.167086
0.171695
0.17754
0.185399
0.195335
0.206535
0.21647
0.219804
0.206696
0.22537
0.0468243
0.0533916
0.0656973
0.077451
0.0881985
0.097951
0.106771
0.114674
0.121652
0.127702
0.132876
0.137327
0.141368
0.145528
0.150541
0.157446
0.166837
0.178681
0.192294
0.205861
0.215801
0.218477
0.301427
0.0564847
0.0587861
0.0686281
0.078295
0.0872206
0.0952987
0.10253
0.108921
0.114482
0.119246
0.123308
0.126882
0.130373
0.134436
0.139947
0.147887
0.15865
0.171878
0.18676
0.202014
0.215899
0.231337
0.370584
0.0664122
0.0644431
0.072549
0.0806122
0.0881368
0.0949442
0.100986
0.106255
0.110771
0.114593
0.117857
0.120833
0.124016
0.128183
0.134327
0.14335
0.155391
0.169725
0.185405
0.201621
0.218509
0.245557
0.437251
0.0767847
0.0703128
0.0769948
0.0836629
0.0900123
0.0957689
0.100844
0.105217
0.108909
0.111996
0.114638
0.117167
0.120174
0.124572
0.131486
0.141746
0.155127
0.17038
0.186588
0.20361
0.223357
0.262187
0.513959
0.0859778
0.074357
0.0798441
0.0855843
0.0910617
0.0960039
0.100338
0.104057
0.107197
0.109847
0.112189
0.114576
0.117639
0.122382
0.130131
0.141872
0.156911
0.173126
0.189896
0.207873
0.230601
0.28158
0.663368
0.406289
0.803074
1.41936
2.26541
4.34958
7.32464
9.86419
10.0759
8.7802
6.8874
5.45132
4.42855
3.78686
3.40139
3.09626
2.69945
2.09619
1.18721
0.401177
0.385354
0.600708
0.897716
1.36154
2.36521
3.75287
4.52867
4.54783
4.16745
3.65117
3.16377
2.72924
2.37795
2.1436
1.99005
1.83198
1.57307
1.09818
0.656864
0.478853
0.602302
0.869894
1.34503
2.36159
3.28921
3.07103
3.30956
3.50843
3.04469
2.72774
2.40668
2.11103
1.90523
1.7857
1.68602
1.51861
1.19253
1.19453
0.511616
0.622535
0.896308
1.47175
2.33711
2.32229
2.11161
2.26024
2.72673
2.83489
2.4579
2.2199
1.97139
1.79567
1.70368
1.63913
1.52562
1.30832
1.67454
0.529604
0.637642
0.900682
1.47991
1.79664
1.64052
1.54386
1.64847
1.90941
2.1517
2.15993
2.00255
1.83041
1.70468
1.64847
1.61713
1.54927
1.42715
2.11881
0.539808
0.657094
0.861943
1.15772
1.31989
1.22349
1.21304
1.311
1.49371
1.68934
1.82057
1.77975
1.68674
1.61874
1.60244
1.60462
1.5798
1.54394
2.53668
0.62763
0.674624
0.779295
0.909494
0.976327
0.983569
1.02599
1.13021
1.2858
1.44776
1.57446
1.59962
1.56171
1.54403
1.56479
1.59885
1.61479
1.65791
2.93279
1.06711
0.67223
0.682034
0.755673
0.810828
0.854861
0.924717
1.03929
1.1899
1.33589
1.44043
1.47373
1.46942
1.4873
1.53794
1.60034
1.65438
1.77181
3.31332
0.0932683
0.0765238
0.080964
0.0860831
0.0907917
0.0949122
0.0984579
0.10149
0.104102
0.106439
0.108727
0.111347
0.114929
0.120472
0.129383
0.142839
0.160584
0.1797
0.198367
0.218415
0.245163
0.298234
0.466058
0.0997859
0.0777965
0.0809417
0.0853768
0.0894231
0.0928697
0.0957869
0.0983116
0.100619
0.102941
0.105598
0.109053
0.113963
0.121226
0.131958
0.147085
0.166676
0.189369
0.213606
0.238664
0.267956
0.312713
0.391862
0.102087
0.0784118
0.0807142
0.0844413
0.0878616
0.0907712
0.0932755
0.095561
0.0978626
0.10048
0.103809
0.108368
0.114826
0.123994
0.136752
0.153828
0.175256
0.200018
0.226851
0.255394
0.286857
0.327283
0.375851
0.104134
0.0797858
0.0810451
0.0837962
0.0864491
0.0888016
0.0909686
0.0931579
0.0956365
0.0987458
0.102925
0.108726
0.116819
0.127957
0.142887
0.162301
0.186306
0.214011
0.243772
0.274274
0.30598
0.342122
0.381017
0.110183
0.0835899
0.0827061
0.0839543
0.0855956
0.0872937
0.0891146
0.091257
0.0939979
0.0976987
0.102833
0.10998
0.119818
0.133085
0.150464
0.172601
0.199815
0.231347
0.265294
0.299786
0.334127
0.369389
0.404962
0.124325
0.0922268
0.0866256
0.0855639
0.0859226
0.0868448
0.0882615
0.0903408
0.0933605
0.097711
0.103913
0.112552
0.124346
0.14005
0.16024
0.185256
0.215643
0.25106
0.289343
0.328136
0.366487
0.403974
0.439319
0.151263
0.107943
0.0927821
0.0887478
0.0878462
0.0880415
0.0890857
0.0911171
0.0944708
0.0995126
0.106975
0.117455
0.131703
0.150533
0.174297
0.202318
0.235099
0.273492
0.315214
0.357297
0.398168
0.437308
0.473163
0.177592
0.113762
0.0969427
0.0895773
0.0875028
0.0875785
0.0890655
0.0919087
0.0964198
0.102782
0.111772
0.124855
0.142578
0.166286
0.19691
0.229437
0.261164
0.302081
0.348126
0.392172
0.431381
0.468945
0.503645
0.196464
0.1195
0.0973241
0.0883096
0.0852615
0.0852356
0.0872146
0.0909276
0.0962351
0.10357
0.113685
0.127287
0.145416
0.168811
0.199416
0.238789
0.2852
0.341048
0.399622
0.44628
0.46861
0.499866
0.53398
0.207367
0.115692
0.0953872
0.0870858
0.0841445
0.0843017
0.0866579
0.0908898
0.0968686
0.104375
0.114105
0.126825
0.143485
0.164853
0.192153
0.227952
0.276061
0.331763
0.388207
0.439447
0.486459
0.534481
0.573047
0.21424
0.112145
0.0924512
0.0852282
0.0829596
0.0836265
0.0864765
0.0912144
0.0977039
0.105926
0.115989
0.128779
0.145117
0.165727
0.191442
0.222722
0.260043
0.302657
0.350792
0.40569
0.467922
0.525878
0.566376
0.220195
0.109865
0.089889
0.0833125
0.0816547
0.0828465
0.0861858
0.0914128
0.0984335
0.107236
0.118037
0.131319
0.147696
0.16774
0.191996
0.22069
0.253357
0.290084
0.332341
0.380877
0.434623
0.487654
0.532559
0.226191
0.108867
0.0881254
0.0817183
0.0803951
0.0819412
0.0856339
0.091224
0.0986468
0.107934
0.119235
0.13287
0.149231
0.168694
0.191573
0.217943
0.247657
0.280902
0.318678
0.361698
0.408682
0.455296
0.498792
0.232011
0.108718
0.0870835
0.080555
0.0793188
0.0810169
0.0848811
0.0906496
0.0982615
0.107754
0.119241
0.132921
0.149028
0.167784
0.189365
0.213828
0.241145
0.271516
0.305479
0.343235
0.383788
0.424709
0.46433
0.237313
0.109025
0.0865435
0.0797712
0.0784695
0.0801638
0.0840385
0.089809
0.0974016
0.106839
0.118201
0.131605
0.147187
0.165068
0.185343
0.208059
0.233235
0.260998
0.29157
0.324907
0.3603
0.396449
0.432529
0.241943
0.109537
0.0863092
0.079275
0.0778395
0.0794358
0.0832081
0.0888466
0.0962571
0.10544
0.116441
0.129327
0.144168
0.161027
0.179949
0.200962
0.224087
0.249379
0.2769
0.30654
0.337856
0.370172
0.403025
0.245708
0.110056
0.0862317
0.0789782
0.0773975
0.0788541
0.0824613
0.0878864
0.0950135
0.103819
0.114318
0.126539
0.14051
0.156253
0.173781
0.193101
0.214217
0.237145
0.26188
0.288321
0.316207
0.345171
0.374923
0.248296
0.110321
0.0862053
0.0788077
0.0771016
0.0784126
0.0818318
0.0870077
0.0938047
0.102177
0.112112
0.123608
0.136661
0.151261
0.167395
0.185051
0.204216
0.224881
0.247023
0.270566
0.295357
0.321192
0.347883
0.249737
0.110346
0.086129
0.0786926
0.0769062
0.0780852
0.0813193
0.0862409
0.0926999
0.100632
0.109999
0.120772
0.132922
0.146411
0.161204
0.177266
0.194571
0.213094
0.232805
0.253652
0.275544
0.298372
0.322034
0.250126
0.110135
0.0859813
0.0785776
0.0767592
0.0778378
0.0808993
0.0855765
0.0917128
0.0992263
0.108054
0.118147
0.12945
0.141904
0.15545
0.170033
0.185609
0.202139
0.219591
0.237925
0.257086
0.27702
0.297708
0.24957
0.109708
0.0857512
0.078432
0.0766115
0.0776152
0.0805326
0.0849944
0.0908318
0.0979516
0.106282
0.115753
0.12629
0.13781
0.150232
0.163481
0.177493
0.192215
0.207608
0.223637
0.240263
0.257456
0.275191
0.248186
0.109096
0.0854427
0.0782412
0.0764333
0.0773722
0.0801576
0.0844214
0.0899894
0.0967587
0.104646
0.113566
0.123423
0.134117
0.145543
0.157605
0.17022
0.183322
0.196861
0.210802
0.22512
0.239804
0.254857
0.246111
0.10835
0.0850755
0.0780067
0.0762118
0.0770831
0.0797357
0.0838064
0.0891191
0.0955647
0.10305
0.111478
0.120737
0.130708
0.141268
0.152301
0.163705
0.175399
0.187326
0.199449
0.211754
0.224249
0.236972
0.24351
0.107532
0.0846843
0.0777454
0.0759502
0.0767396
0.079248
0.0831195
0.0881792
0.094315
0.101428
0.10941
0.118139
0.127481
0.137298
0.147456
0.157837
0.168347
0.178919
0.189516
0.200131
0.210791
0.221565
0.24058
0.106726
0.084319
0.0774895
0.0756678
0.0763505
0.0786936
0.0823507
0.08715
0.0929788
0.0997345
0.107304
0.115558
0.124351
0.133533
0.142957
0.152491
0.162029
0.171497
0.180854
0.1901
0.199273
0.208464
0.237553
0.106028
0.0840444
0.0772854
0.0753985
0.0759399
0.0780889
0.0815089
0.0860323
0.0915475
0.0979514
0.105129
0.112946
0.121251
0.129887
0.138695
0.147535
0.15629
0.164877
0.173254
0.18142
0.189421
0.197361
0.234697
0.105556
0.0839397
0.0771929
0.0751893
0.0755462
0.0774655
0.0806199
0.0848458
0.0900336
0.0960813
0.102874
0.110277
0.118137
0.126291
0.134577
0.142845
0.150971
0.158865
0.166479
0.17381
0.180904
0.187867
0.232314
0.105442
0.0840967
0.0772824
0.0750978
0.0752189
0.0768677
0.0797239
0.0836268
0.0884682
0.0941479
0.100553
0.107551
0.11499
0.122705
0.130533
0.138319
0.145931
0.153275
0.160296
0.166983
0.173379
0.179583
0.230743
0.105838
0.0846194
0.0776332
0.0751892
0.0750155
0.076349
0.0788726
0.082425
0.0868981
0.0921931
0.0982001
0.10479
0.111816
0.119114
0.126522
0.133882
0.14106
0.147953
0.154501
0.160684
0.166536
0.172141
0.230368
0.106916
0.0856223
0.0783301
0.0755324
0.0749976
0.0759687
0.0781248
0.0812996
0.085382
0.0902733
0.0958669
0.102039
0.108646
0.115532
0.122535
0.129499
0.136286
0.14279
0.148941
0.154712
0.160123
0.165242
0.231633
0.108875
0.0872292
0.0794596
0.076196
0.0752267
0.0757872
0.0775428
0.0803154
0.0839866
0.0884557
0.0936183
0.0993561
0.105533
0.111999
0.118596
0.125171
0.131585
0.137726
0.143519
0.148928
0.15396
0.158665
0.235079
0.111948
0.0895719
0.0811055
0.0772425
0.0757591
0.0758619
0.0771881
0.0795386
0.0827821
0.0868131
0.0915284
0.0968154
0.102546
0.108577
0.114758
0.120936
0.126974
0.132756
0.1382
0.143264
0.147942
0.152269
0.241403
0.116412
0.092788
0.0833418
0.0787223
0.0766409
0.0762431
0.0771182
0.0790337
0.0818392
0.0854206
0.0896752
0.094496
0.0997634
0.105344
0.111091
0.116859
0.122507
0.127918
0.133004
0.137716
0.142039
0.145996
0.251568
0.122619
0.0970156
0.0862226
0.0806645
0.0779019
0.0769702
0.0773834
0.0788612
0.0812261
0.0843525
0.0881372
0.0924792
0.0972689
0.102382
0.107682
0.113024
0.118268
0.123291
0.127999
0.132336
0.136283
0.139855
0.267
0.131017
0.10238
0.089765
0.0830654
0.0795487
0.0780681
0.0780258
0.0790764
0.0810079
0.0836808
0.086991
0.090845
0.0951448
0.0997782
0.104617
0.109522
0.114351
0.118973
0.123285
0.127223
0.130763
0.133921
0.289956
0.142185
0.10896
0.0939187
0.0858716
0.0815585
0.0795457
0.079079
0.0797302
0.0812473
0.0834756
0.0863114
0.0896707
0.0934694
0.0976105
0.101978
0.10644
0.110851
0.115071
0.118982
0.122505
0.12561
0.128317
0.324262
0.156855
0.116712
0.0985149
0.0889586
0.0838728
0.0813965
0.0805712
0.0808726
0.0820072
0.0838078
0.0861733
0.0890321
0.0923173
0.0959509
0.0998345
0.103846
0.107843
0.111675
0.115201
0.118317
0.120977
0.123205
0.376879
0.175831
0.12529
0.103184
0.0921068
0.086398
0.0836058
0.0825322
0.082558
0.0833562
0.0847535
0.0866566
0.0890087
0.0917632
0.0948653
0.09824
0.101785
0.105367
0.108832
0.112015
0.11477
0.117014
0.11876
0.461445
0.199547
0.133676
0.107235
0.0949898
0.0890205
0.0861667
0.0850056
0.0848538
0.0853739
0.0863999
0.0878518
0.0896903
0.0918903
0.0944226
0.0972415
0.100274
0.103415
0.106517
0.109405
0.111888
0.113811
0.115135
0.608269
0.226331
0.139437
0.109548
0.0972132
0.0916554
0.0891127
0.088067
0.0878507
0.0881583
0.0888501
0.0898665
0.0911859
0.0928021
0.09471
0.0968946
0.0993215
0.101927
0.104605
0.107202
0.109509
0.111289
0.112377
0.901041
0.245979
0.137564
0.108668
0.0984931
0.0943514
0.0925671
0.091845
0.0916716
0.0918297
0.0922273
0.09283
0.0936307
0.0946352
0.0958538
0.0972946
0.0989585
0.100832
0.102878
0.105021
0.107122
0.108948
0.110189
1.65176
0.215043
0.120172
0.103716
0.0991049
0.0974597
0.0967995
0.0965418
0.0964819
0.0965395
0.0966833
0.0969029
0.0971989
0.0975775
0.0980483
0.098623
0.0993152
0.10014
0.101116
0.102268
0.103622
0.105172
0.106749
1.07157
0.899322
0.887482
1.08084
0.467181
0.481653
0.489089
0.499174
0.404649
0.422414
0.437695
0.452925
0.406083
0.424213
0.441555
0.458712
0.429634
0.448155
0.466214
0.483935
0.463668
0.481733
0.499397
0.516813
0.49709
0.514569
0.531705
0.54871
0.526166
0.542561
0.558876
0.575558
0.555991
0.571683
0.587088
0.603394
0.593961
0.607552
0.620554
0.635408
0.588779
0.604701
0.622163
0.643181
0.562763
0.585379
0.60921
0.634018
0.528891
0.550858
0.573727
0.597599
0.493034
0.513796
0.535248
0.557445
0.459333
0.478415
0.497984
0.518103
0.427693
0.444932
0.462513
0.480503
0.39738
0.412787
0.428444
0.444411
0.36812
0.381758
0.395595
0.40968
0.340073
0.352029
0.364166
0.376518
0.3136
0.324001
0.334597
0.345424
0.288957
0.29797
0.307175
0.316627
0.266677
0.274421
0.282348
0.290521
0.247057
0.253664
0.260442
0.267453
0.230153
0.235778
0.241556
0.247549
0.215806
0.220608
0.225541
0.230669
0.203688
0.207816
0.212052
0.216457
0.19338
0.196961
0.200625
0.204431
0.184442
0.187578
0.190772
0.194077
0.17647
0.179241
0.182041
0.184922
0.169129
0.171593
0.17406
0.176574
0.16217
0.164369
0.166546
0.168739
0.155432
0.157393
0.159311
0.161218
0.148833
0.150573
0.152252
0.153898
0.142368
0.143891
0.145341
0.146742
0.136095
0.137398
0.13862
0.13978
0.130131
0.131203
0.13219
0.133107
0.124636
0.125466
0.126209
0.126874
0.119798
0.12038
0.120874
0.121279
0.1158
0.116148
0.116407
0.116556
0.112763
0.112935
0.113015
0.11294
0.110599
0.110763
0.110784
0.110569
0.107682
0.108354
0.108759
0.108551
0.629819
0.564929
0.594912
0.649695
0.704944
0.768457
0.85874
0.988305
1.14311
1.27471
1.34405
1.36281
1.38062
1.4316
1.5159
1.61507
1.72354
1.95351
3.94377
0.495092
0.516028
0.556832
0.607722
0.667124
0.744542
0.855655
1.0053
1.16891
1.29825
1.35715
1.36534
1.38468
1.44505
1.54273
1.66236
1.81024
2.12884
4.48004
0.478506
0.513012
0.554933
0.605078
0.669939
0.760352
0.886132
1.04687
1.21864
1.35507
1.4196
1.43591
1.45981
1.51997
1.61544
1.73733
1.90411
2.28439
4.91841
0.487777
0.524369
0.567583
0.621228
0.693545
0.794294
0.930011
1.09769
1.2732
1.41605
1.49891
1.53864
1.576
1.63503
1.71889
1.82808
1.99488
2.41204
5.24786
0.513401
0.549941
0.593658
0.650224
0.728957
0.83947
0.985674
1.15953
1.33661
1.48694
1.59435
1.66436
1.71951
1.77569
1.83967
1.92324
2.0739
2.50513
5.44468
0.545804
0.582003
0.626376
0.686679
0.7739
0.897897
1.06211
1.25109
1.43592
1.59653
1.72649
1.8226
1.88964
1.93419
1.96727
2.01354
2.13516
2.55933
5.48603
0.577281
0.614251
0.6615
0.728468
0.828052
0.973953
1.17765
1.40565
1.61094
1.77961
1.91982
2.02779
2.08909
2.10355
2.09259
2.09371
2.17887
2.57748
5.36358
0.604971
0.645634
0.698697
0.776179
0.894924
1.07605
1.37173
1.6777
1.90006
2.04912
2.17925
2.2823
2.31137
2.26955
2.20497
2.16307
2.21331
2.57301
5.09513
0.634057
0.679086
0.739838
0.834178
0.983579
1.18159
1.4456
1.74533
2.02526
2.26962
2.46731
2.58213
2.53656
2.40867
2.29604
2.22538
2.25411
2.57754
4.78839
0.666336
0.715766
0.782784
0.881892
1.02131
1.18867
1.38319
1.6553
1.98983
2.36133
2.68703
2.82628
2.68643
2.50672
2.36169
2.27706
2.29998
2.59696
4.4978
0.684459
0.738907
0.80055
0.880673
0.990849
1.1502
1.3628
1.64276
1.99505
2.39722
2.74932
2.87843
2.72645
2.54532
2.39563
2.31126
2.33622
2.60918
4.21731
0.676397
0.725773
0.782599
0.85489
0.961597
1.11969
1.33829
1.625
1.98403
2.39014
2.74165
2.86839
2.7382
2.56005
2.40902
2.32608
2.35083
2.59695
3.95391
0.638789
0.689708
0.744815
0.816765
0.921004
1.07604
1.29455
1.58484
1.9429
2.33552
2.66766
2.79819
2.72519
2.57169
2.41343
2.32577
2.34157
2.55584
3.72139
0.595689
0.645
0.699519
0.769572
0.870889
1.02183
1.2373
1.52532
1.87542
2.24725
2.55605
2.69361
2.68775
2.58168
2.4166
2.31725
2.31478
2.49334
3.53424
0.552718
0.599025
0.651217
0.71868
0.816009
0.961032
1.17056
1.45124
1.78892
2.13902
2.42647
2.57165
2.60998
2.56979
2.42865
2.31023
2.28165
2.42477
3.40236
0.511401
0.554133
0.603098
0.666803
0.758937
0.896825
1.09781
1.36785
1.69099
2.02159
2.29116
2.44212
2.50019
2.53763
2.46928
2.31541
2.25516
2.36639
3.32898
0.471786
0.510783
0.556034
0.615323
0.701524
0.831491
1.02234
1.27989
1.588
1.90212
2.1591
2.31441
2.38979
2.48269
2.5005
2.33643
2.24005
2.32393
3.31152
0.433791
0.469092
0.510513
0.5652
0.645239
0.766913
0.946765
1.19089
1.48434
1.78521
2.03498
2.19427
2.2836
2.38884
2.45909
2.35727
2.23183
2.29222
3.34432
0.397625
0.429335
0.467081
0.517367
0.591453
0.704725
0.8728
1.10244
1.38156
1.67237
1.91923
2.08431
2.1815
2.27609
2.3917
2.36763
2.22798
2.27587
3.42141
0.363797
0.391987
0.425988
0.471974
0.540254
0.64516
0.801329
1.0161
1.28016
1.56155
1.80877
1.98148
2.08568
2.17098
2.29602
2.35381
2.24274
2.28701
3.53672
0.332437
0.357185
0.387605
0.429345
0.491772
0.588157
0.732256
0.931895
1.18032
1.45055
1.69867
1.87951
1.99283
2.07789
2.18515
2.30139
2.3175
2.3231
3.67465
0.304014
0.325552
0.352531
0.390015
0.446406
0.533883
0.66549
0.849499
1.08146
1.33877
1.58365
1.77221
1.89545
1.98644
2.09387
2.22858
2.39761
2.35856
3.72193
0.278911
0.297545
0.321272
0.354529
0.404705
0.482803
0.601266
0.768874
0.983346
1.22572
1.46259
1.65665
1.78861
1.88669
1.99503
2.14032
2.3197
2.31657
3.69808
0.25727
0.27335
0.294077
0.323245
0.367185
0.435587
0.540252
0.690544
0.886475
1.11248
1.33877
1.53211
1.67193
1.77598
1.88343
2.02175
2.19273
2.21206
3.47193
0.238942
0.252823
0.270853
0.29619
0.334108
0.39287
0.483399
0.615563
0.791937
1.00067
1.21527
1.40435
1.54837
1.65698
1.76382
1.89099
2.05816
2.05545
3.16357
0.22354
0.235545
0.251179
0.273019
0.305339
0.354947
0.431579
0.545215
0.701062
0.891715
1.09445
1.27937
1.42541
1.53636
1.6404
1.75855
1.88718
1.89155
2.77599
0.210532
0.220927
0.234437
0.253125
0.280379
0.321645
0.385211
0.480578
0.615086
0.786332
0.976641
1.15798
1.30699
1.42114
1.52151
1.63192
1.70851
1.71719
2.38663
0.199357
0.208349
0.219955
0.235807
0.258547
0.29242
0.344165
0.422226
0.535042
0.684914
0.860627
1.03756
1.19004
1.30802
1.40675
1.51496
1.55062
1.53376
2.04565
0.189503
0.197248
0.207131
0.220422
0.239154
0.26659
0.307952
0.370242
0.461797
0.588271
0.745375
0.914382
1.06891
1.19087
1.28578
1.38482
1.3929
1.36203
1.74747
0.180549
0.187176
0.195492
0.206466
0.221613
0.243557
0.276008
0.324447
0.396134
0.498098
0.631713
0.786049
0.937882
1.06263
1.1509
1.2217
1.21832
1.22074
1.47888
0.172182
0.177801
0.184703
0.193623
0.205707
0.222903
0.247847
0.284557
0.338708
0.416917
0.523579
0.654921
0.79439
0.917162
1.00204
1.04749
1.02916
1.08234
1.2277
0.164185
0.168896
0.174527
0.181622
0.191095
0.204287
0.223042
0.250165
0.289729
0.34698
0.426815
0.529763
0.646475
0.756237
0.837325
0.879645
0.85419
0.870307
0.986572
0.156433
0.160323
0.164823
0.170328
0.177578
0.187446
0.201198
0.220713
0.248732
0.288961
0.345469
0.420412
0.509599
0.598292
0.665638
0.699496
0.685884
0.589303
0.678706
0.148872
0.152012
0.155508
0.159661
0.165017
0.172163
0.181942
0.195567
0.214777
0.24197
0.280025
0.331212
0.394416
0.461079
0.514568
0.541752
0.51471
0.427791
0.425242
0.141518
0.143952
0.146524
0.149528
0.153301
0.158252
0.164935
0.1741
0.18679
0.204429
0.228793
0.261565
0.302926
0.3489
0.389251
0.413052
0.395366
0.316319
0.301145
0.134451
0.136202
0.137937
0.139912
0.142358
0.145561
0.149873
0.155739
0.163743
0.174655
0.189425
0.209003
0.233712
0.261846
0.288003
0.304559
0.2956
0.237776
0.229776
0.127808
0.128858
0.129792
0.130832
0.13216
0.133978
0.136503
0.139983
0.144718
0.151074
0.159479
0.170335
0.183732
0.198811
0.212818
0.221079
0.214551
0.177406
0.185102
0.121775
0.122068
0.122202
0.12237
0.122742
0.123464
0.124658
0.126447
0.128958
0.132334
0.136715
0.142194
0.14868
0.155613
0.161533
0.163843
0.157869
0.136924
0.157303
0.116591
0.116072
0.115358
0.114694
0.11424
0.11409
0.114298
0.1149
0.115928
0.117406
0.119338
0.12168
0.124275
0.126731
0.128244
0.127483
0.122431
0.11209
0.14115
0.112501
0.1111
0.109518
0.10808
0.106925
0.106088
0.105565
0.105338
0.105382
0.105667
0.106144
0.106726
0.107264
0.107492
0.106982
0.10514
0.101413
0.097483
0.13148
0.10966
0.107348
0.104983
0.102923
0.101237
0.0998989
0.0988561
0.0980548
0.0974449
0.0969744
0.0965801
0.0961772
0.095647
0.0948263
0.093512
0.0915356
0.0891173
0.0891194
0.125399
0.107425
0.104771
0.102099
0.0997767
0.0978465
0.0962514
0.0949184
0.0937799
0.0927753
0.0918454
0.0909243
0.0899334
0.0887785
0.0873551
0.0855812
0.0835101
0.0817576
0.0837787
0.120622
)
;

boundaryField
{
    leftWall
    {
        type            epsilonWallFunction;
        value           nonuniform List<scalar> 
50
(
0.0172242
0.0222374
0.035595
0.0468243
0.0564847
0.0664122
0.0767847
0.0859778
0.0932683
0.0997859
0.102087
0.104134
0.110183
0.124325
0.151263
0.177592
0.196464
0.207367
0.21424
0.220195
0.226191
0.232011
0.237313
0.241943
0.245708
0.248296
0.249737
0.250126
0.24957
0.248186
0.246111
0.24351
0.24058
0.237553
0.234697
0.232314
0.230743
0.230368
0.231633
0.235079
0.241403
0.251568
0.267
0.289956
0.324262
0.376879
0.461445
0.608269
0.901041
1.65176
)
;
    }
    rightWall
    {
        type            epsilonWallFunction;
        value           nonuniform List<scalar> 
50
(
0.401177
0.656864
1.19453
1.67454
2.11881
2.53668
2.93279
3.31332
3.94377
4.48004
4.91841
5.24786
5.44468
5.48603
5.36358
5.09513
4.78839
4.4978
4.21731
3.95391
3.72139
3.53424
3.40236
3.32898
3.31152
3.34432
3.42141
3.53672
3.67465
3.72193
3.69808
3.47193
3.16357
2.77599
2.38663
2.04565
1.74747
1.47888
1.2277
0.986572
0.678706
0.425242
0.301145
0.229776
0.185102
0.157303
0.14115
0.13148
0.125399
0.120622
)
;
    }
    lowerWall
    {
        type            epsilonWallFunction;
        value           nonuniform List<scalar> 
62
(
0.0172242
0.0669528
0.126995
0.180616
0.231516
0.279468
0.324261
0.365381
0.402088
0.433571
0.45909
0.478104
0.490361
0.495974
0.495462
0.492472
0.48652
0.473187
0.446899
0.401581
0.332107
0.231314
0.091217
0.091217
0.141928
0.22537
0.301427
0.370584
0.437251
0.513959
0.663368
1.07157
0.899322
0.887482
1.08084
0.406289
0.385354
0.478853
0.511616
0.529604
0.539808
0.62763
1.06711
0.406289
0.803074
1.41936
2.26541
4.34958
7.32464
9.86419
10.0759
8.7802
6.8874
5.45132
4.42855
3.78686
3.40139
3.09626
2.69945
2.09619
1.18721
0.401177
)
;
    }
    atmosphere
    {
        type            inletOutlet;
        inletValue      uniform 0.1;
        value           nonuniform List<scalar> 
46
(
0.1
0.1
0.1
0.1
0.1
0.1
0.1
0.1
0.1
0.1
0.1
0.1
0.1
0.1
0.1
0.1
0.1
0.1
0.1
0.1
0.1
0.1
0.1
0.1
0.1
0.108759
0.108551
0.107425
0.104771
0.102099
0.0997767
0.0978465
0.0962514
0.0949184
0.0937799
0.0927753
0.0918454
0.0909243
0.0899334
0.0887785
0.0873551
0.0855812
0.0835101
0.0817576
0.0837787
0.120622
)
;
    }
    defaultFaces
    {
        type            empty;
    }
}


// ************************************************************************* //
