/*--------------------------------*- C++ -*----------------------------------*\
  =========                 |
  \\      /  F ield         | OpenFOAM: The Open Source CFD Toolbox
   \\    /   O peration     | Website:  https://openfoam.org
    \\  /    A nd           | Version:  13
     \\/     M anipulation  |
\*---------------------------------------------------------------------------*/
FoamFile
{
    format      ascii;
    class       volScalarField;
    location    "0.45";
    object      k;
}
// * * * * * * * * * * * * * * * * * * * * * * * * * * * * * * * * * * * * * //

dimensions      [0 2 -2 0 0 0 0];

internalField   nonuniform List<scalar> 
2268
(
0.0025367
0.00627004
0.0096057
0.0121445
0.0143274
0.0162405
0.01793
0.019413
0.0206896
0.0217525
0.0225936
0.023208
0.0235974
0.0237723
0.0237535
0.0236687
0.0234819
0.0230503
0.0221814
0.0206396
0.0181603
0.0142409
0.00762855
0.00494865
0.0132632
0.0194694
0.0246162
0.0289838
0.0327527
0.036031
0.0388692
0.0412853
0.0432841
0.0448719
0.0460669
0.0469085
0.0474636
0.0478293
0.048103
0.0481708
0.0478158
0.0466343
0.044068
0.0394355
0.0314653
0.0169408
0.00677467
0.0161567
0.0238079
0.0302265
0.0356821
0.0403746
0.0444344
0.0479306
0.0508962
0.0533502
0.0553156
0.0568348
0.0579843
0.0588842
0.0597
0.0605039
0.0611885
0.0614156
0.0606313
0.058091
0.0528457
0.0431397
0.0230601
0.00814002
0.0181543
0.0267602
0.0339904
0.0401394
0.045419
0.0499701
0.0538742
0.0571777
0.0599142
0.0621242
0.0638746
0.0652791
0.06651
0.0677852
0.0691655
0.0704878
0.0712798
0.0708612
0.0683927
0.062802
0.0520474
0.0279921
0.00923275
0.0199448
0.0292925
0.0370636
0.0436652
0.0493316
0.0542089
0.0583856
0.0619187
0.0648552
0.0672521
0.0692004
0.0708496
0.0724204
0.0741737
0.0761546
0.0781108
0.0794151
0.0792777
0.0768321
0.070974
0.0594507
0.0321247
0.0102941
0.0218964
0.0318252
0.0399096
0.0467719
0.0526714
0.057753
0.0621066
0.0657955
0.0688772
0.0714248
0.0735526
0.075446
0.0773733
0.0796295
0.0822293
0.0848031
0.08657
0.0866705
0.0842568
0.0782509
0.0662066
0.0358786
0.0113433
0.0242613
0.0344924
0.0426737
0.049645
0.0556623
0.0608617
0.0653285
0.0691274
0.0723219
0.074996
0.0772878
0.0794199
0.0817132
0.0845002
0.0877665
0.0909815
0.0931743
0.0934993
0.0912227
0.0853231
0.0732231
0.0399996
0.012227
0.0265028
0.0367406
0.0449329
0.0519365
0.0580074
0.0632802
0.0678405
0.0717565
0.0750974
0.0779547
0.0804741
0.0828917
0.0855622
0.0888954
0.0929157
0.0968876
0.0995446
0.100171
0.0982273
0.0928494
0.0816594
0.0476067
0.0204552
0.032403
0.0477087
0.0654732
0.101626
0.144791
0.178597
0.183051
0.168117
0.144058
0.123078
0.105976
0.0938862
0.0861682
0.0803563
0.0732455
0.0619902
0.0425841
0.0205416
0.0349925
0.0664844
0.0992422
0.141636
0.214589
0.295466
0.335534
0.338378
0.315892
0.280246
0.241086
0.210162
0.188983
0.176508
0.168218
0.157441
0.137936
0.103179
0.0507173
0.0404683
0.0818397
0.122823
0.180036
0.273176
0.34505
0.340402
0.365325
0.382087
0.338611
0.301664
0.270217
0.246687
0.232253
0.222997
0.211075
0.188397
0.146241
0.0754583
0.0423026
0.0903515
0.138008
0.210826
0.298258
0.31443
0.312081
0.336041
0.378024
0.378472
0.33239
0.305806
0.284149
0.27058
0.262064
0.250414
0.2267
0.180999
0.0944923
0.0433494
0.0940784
0.146722
0.225351
0.275447
0.280504
0.290409
0.314052
0.343458
0.359283
0.345254
0.323838
0.307912
0.297831
0.291611
0.281316
0.25785
0.210423
0.110496
0.0440893
0.0979074
0.150952
0.208349
0.248937
0.260157
0.279133
0.30427
0.329609
0.344479
0.343789
0.332906
0.32353
0.318096
0.314966
0.306655
0.284177
0.235851
0.124519
0.0496447
0.104498
0.153076
0.19654
0.228811
0.251772
0.276608
0.303844
0.328981
0.343517
0.344876
0.340827
0.335866
0.334606
0.334482
0.328281
0.307082
0.258184
0.137085
0.0720518
0.116301
0.157619
0.194769
0.225437
0.252258
0.280253
0.30984
0.336689
0.352271
0.35388
0.350712
0.348203
0.349689
0.351887
0.347533
0.327594
0.278281
0.1486
0.0129018
0.0283803
0.0387856
0.0471214
0.0542265
0.0603944
0.0657832
0.0704994
0.0746328
0.0782763
0.081543
0.0845889
0.0876441
0.0910414
0.0951886
0.100192
0.105447
0.10937
0.110897
0.109918
0.106107
0.0982013
0.0777925
0.0134877
0.029528
0.0402332
0.0488124
0.0561044
0.0624331
0.0679926
0.0729285
0.0773719
0.0814591
0.0853471
0.0892246
0.0933185
0.0978791
0.103153
0.109184
0.115561
0.121317
0.125486
0.127236
0.126498
0.123917
0.119477
0.0136931
0.0296993
0.0408067
0.0496904
0.0572155
0.0637466
0.0695214
0.0747295
0.0795458
0.0841501
0.0887383
0.0935234
0.0987264
0.104543
0.111087
0.118371
0.126024
0.133306
0.139498
0.144219
0.147639
0.15114
0.155586
0.0138824
0.0294808
0.0410184
0.0502059
0.0579564
0.0646894
0.070693
0.0762025
0.0814338
0.0866033
0.0919368
0.0976632
0.103998
0.111106
0.119036
0.127811
0.137144
0.146412
0.15487
0.162097
0.168512
0.175638
0.184249
0.0144274
0.029381
0.0413813
0.0508201
0.058739
0.0656296
0.0718341
0.0776328
0.0832794
0.0890208
0.0951113
0.101795
0.109289
0.117746
0.127198
0.137632
0.148902
0.160483
0.171576
0.181661
0.190918
0.200318
0.210292
0.0156479
0.0299692
0.0424261
0.0520125
0.0600212
0.0669995
0.0733436
0.0793804
0.0854024
0.091695
0.0985518
0.106216
0.114917
0.124814
0.135892
0.14798
0.161061
0.174837
0.188417
0.201088
0.212904
0.224182
0.234891
0.0178251
0.0316001
0.0440574
0.0538483
0.0620181
0.0691123
0.0755938
0.0818435
0.0882277
0.0950379
0.102698
0.111448
0.12151
0.133043
0.145927
0.159557
0.1739
0.18927
0.204752
0.219333
0.232668
0.244988
0.256199
0.0198295
0.0356083
0.0462642
0.0550951
0.06313
0.070426
0.0773061
0.0841067
0.0912123
0.0988206
0.107346
0.117503
0.129323
0.143139
0.159033
0.174505
0.188257
0.204649
0.221976
0.237673
0.250829
0.262929
0.273974
0.0211984
0.0399169
0.0488175
0.0567126
0.0641956
0.0713452
0.0783794
0.0855513
0.0929914
0.101031
0.110097
0.120483
0.132533
0.146276
0.162248
0.180679
0.200402
0.222338
0.243925
0.260534
0.268256
0.278453
0.289448
0.021969
0.0411327
0.0509642
0.0588859
0.0661713
0.0732126
0.0802684
0.0875545
0.0952067
0.103176
0.111873
0.121666
0.132932
0.145813
0.160578
0.177992
0.199209
0.221903
0.243364
0.261714
0.277563
0.293152
0.305608
0.0224588
0.0417673
0.0524769
0.0607412
0.0681164
0.0751992
0.0823171
0.0896835
0.097416
0.105585
0.11426
0.123911
0.134889
0.147388
0.161571
0.177377
0.194741
0.213088
0.232301
0.252643
0.274182
0.293496
0.306792
0.0228839
0.0424002
0.0536469
0.0621962
0.06972
0.0769003
0.0841042
0.0915581
0.0993962
0.107692
0.116587
0.126332
0.137191
0.149335
0.162854
0.177641
0.193273
0.209577
0.226991
0.24566
0.265116
0.283432
0.298304
0.0233051
0.0431202
0.0546279
0.063323
0.0709392
0.0781863
0.0854456
0.0929528
0.100859
0.109267
0.118286
0.12808
0.138812
0.150583
0.163417
0.177189
0.191659
0.206744
0.222725
0.239776
0.257344
0.273871
0.28848
0.0237069
0.0438539
0.0554737
0.0642079
0.07184
0.0790903
0.0863425
0.093835
0.101727
0.110129
0.119137
0.128853
0.139364
0.150716
0.162897
0.17581
0.189309
0.203352
0.218056
0.23341
0.248957
0.263758
0.277239
0.0240674
0.0445324
0.0561988
0.0649132
0.0725037
0.0796979
0.0868785
0.0942828
0.10207
0.110349
0.119205
0.128701
0.138882
0.149757
0.161298
0.173429
0.186056
0.199127
0.212641
0.226491
0.24032
0.253577
0.265953
0.0243775
0.045121
0.0568126
0.0654841
0.073002
0.0801003
0.0871606
0.0944167
0.102024
0.110088
0.118682
0.127849
0.137609
0.147955
0.15885
0.170231
0.18202
0.194151
0.206558
0.219104
0.231528
0.243497
0.254807
0.0246322
0.0456159
0.0573251
0.0659513
0.073388
0.0803721
0.0872851
0.0943568
0.101738
0.109529
0.117793
0.126564
0.135848
0.145629
0.155868
0.166505
0.177469
0.188682
0.200052
0.211443
0.222655
0.233462
0.243702
0.0248085
0.0460392
0.0577473
0.0663316
0.0736938
0.0805627
0.0873218
0.094196
0.101332
0.108826
0.116733
0.12508
0.133866
0.143071
0.152652
0.162553
0.172702
0.183017
0.193399
0.203719
0.213813
0.223507
0.232656
0.0249083
0.046362
0.0580955
0.0666469
0.0739336
0.0806963
0.0873102
0.0939909
0.100885
0.108083
0.115635
0.123562
0.131858
0.140499
0.149441
0.158625
0.167982
0.177426
0.186858
0.196157
0.205179
0.213777
0.22182
0.0249384
0.0465821
0.0583492
0.0668895
0.0741245
0.0807913
0.0872643
0.0937635
0.100433
0.107355
0.114573
0.122104
0.129939
0.138049
0.146387
0.154895
0.163498
0.172112
0.180639
0.188961
0.19695
0.204472
0.21141
0.0249055
0.0467029
0.0585033
0.067043
0.0742421
0.0808338
0.08719
0.0935298
0.0999909
0.106656
0.113569
0.120739
0.128155
0.135781
0.143569
0.151454
0.159361
0.167204
0.174885
0.18229
0.189299
0.195785
0.201628
0.0248175
0.0467314
0.058559
0.0671008
0.0742716
0.0807997
0.0870547
0.0932544
0.099534
0.105975
0.112617
0.119468
0.126511
0.133707
0.141001
0.148324
0.155599
0.162739
0.169645
0.176209
0.182318
0.187852
0.192699
0.024683
0.0466784
0.0585234
0.0670639
0.0742065
0.0806745
0.0868357
0.0929071
0.0990232
0.105264
0.111667
0.118239
0.124956
0.131776
0.138638
0.145471
0.152193
0.158715
0.164942
0.170769
0.176091
0.180796
0.184784
0.0245126
0.0465589
0.0584094
0.0669405
0.0740487
0.080453
0.0865201
0.0924674
0.0984296
0.104487
0.110675
0.116999
0.123433
0.129928
0.136422
0.142838
0.149092
0.155094
0.160749
0.16596
0.170626
0.174648
0.177935
0.0243192
0.0463936
0.0582371
0.0667472
0.0738095
0.08014
0.0861056
0.0919253
0.0977354
0.103617
0.109606
0.115707
0.121891
0.128108
0.134291
0.14036
0.146228
0.151806
0.157
0.161718
0.165866
0.169355
0.172103
0.0241183
0.0462084
0.0580341
0.0665089
0.0735097
0.0797508
0.0856014
0.0912831
0.0969351
0.10264
0.108438
0.114331
0.12029
0.126264
0.132183
0.137966
0.143523
0.148765
0.153601
0.157942
0.161702
0.164799
0.167162
0.0239279
0.0460353
0.0578351
0.0662594
0.0731796
0.0793115
0.085028
0.0905552
0.0960364
0.101558
0.107162
0.112852
0.118602
0.124357
0.130049
0.135593
0.1409
0.14588
0.150445
0.15451
0.157994
0.160823
0.162934
0.0237686
0.0459118
0.0576819
0.0660404
0.0728586
0.0788576
0.0844166
0.0897676
0.0950594
0.100383
0.105784
0.111269
0.116812
0.122362
0.127849
0.133188
0.138291
0.143067
0.147429
0.151297
0.154595
0.157255
0.159219
0.0236639
0.0458807
0.057623
0.0659008
0.0725938
0.0784333
0.0838078
0.0889569
0.0940358
0.0991411
0.104323
0.109591
0.114923
0.12027
0.125561
0.130715
0.135642
0.140252
0.144461
0.14819
0.151367
0.15393
0.155824
0.0236405
0.0459907
0.0577132
0.0658959
0.0724391
0.0780901
0.08325
0.0881681
0.0930068
0.0978689
0.102809
0.107843
0.112951
0.118086
0.123182
0.128156
0.132921
0.137387
0.141471
0.145097
0.148195
0.150706
0.15258
0.0237289
0.0462962
0.0580129
0.0660864
0.0724531
0.0778844
0.0827975
0.0874528
0.0920212
0.0966116
0.101285
0.10606
0.110924
0.115833
0.120722
0.125512
0.130115
0.134443
0.138415
0.141953
0.144992
0.147475
0.149354
0.0239652
0.046859
0.0585884
0.066537
0.0726979
0.0778757
0.0825076
0.0868667
0.0911325
0.0954205
0.0997971
0.104288
0.108882
0.113543
0.118207
0.122799
0.127231
0.131417
0.135273
0.138724
0.141707
0.144167
0.146056
0.0243942
0.0477506
0.0595129
0.0673161
0.0732371
0.0781241
0.0824385
0.0864668
0.0903968
0.0943504
0.0983994
0.102575
0.106872
0.111258
0.115675
0.120048
0.124293
0.128322
0.132052
0.135407
0.138324
0.140749
0.142638
0.025075
0.0490562
0.0608668
0.0684943
0.0741334
0.078688
0.0826465
0.0863088
0.0898699
0.0934569
0.0971466
0.100975
0.104945
0.109027
0.113169
0.117301
0.121338
0.125192
0.128778
0.13202
0.134853
0.137225
0.139095
0.0260907
0.0508814
0.0627403
0.0701433
0.0754464
0.0796207
0.0831829
0.0864444
0.0896048
0.0927943
0.0960934
0.0995436
0.103153
0.1069
0.110738
0.1146
0.118406
0.122065
0.12549
0.1286
0.131329
0.133625
0.13545
0.0275655
0.0533623
0.0652345
0.0723335
0.0772281
0.0809664
0.0840907
0.0869184
0.0896496
0.0924139
0.0952937
0.0983342
0.10155
0.104927
0.108428
0.111991
0.115538
0.118981
0.122227
0.12519
0.127797
0.129997
0.131754
0.0296988
0.0566819
0.0684619
0.0751282
0.0795178
0.082756
0.0854009
0.0877665
0.0900457
0.0923629
0.0947987
0.097401
0.10019
0.103161
0.106285
0.109511
0.112768
0.115969
0.119019
0.121823
0.1243
0.126392
0.128068
0.0328297
0.061092
0.0725413
0.0785732
0.0823322
0.0850007
0.0871293
0.0890128
0.0908267
0.0926837
0.0946584
0.0967981
0.099128
0.101652
0.104353
0.107194
0.110115
0.113038
0.115868
0.118505
0.120853
0.122842
0.124442
0.037573
0.066941
0.0775766
0.0826744
0.085653
0.0876854
0.0892733
0.0906693
0.0920188
0.0934152
0.0949217
0.096582
0.0984232
0.100457
0.102681
0.105071
0.107588
0.110169
0.112733
0.11518
0.117405
0.119316
0.120876
0.0451749
0.074686
0.083596
0.0873587
0.089409
0.0907642
0.0918125
0.0927373
0.093642
0.0945931
0.0956383
0.0968127
0.0981423
0.0996439
0.101324
0.103179
0.10519
0.107321
0.109518
0.111704
0.11378
0.115646
0.117246
0.058729
0.0847782
0.0903925
0.092413
0.0934644
0.0941626
0.0947143
0.0952133
0.095714
0.0962533
0.0968596
0.0975559
0.098362
0.0992938
0.100364
0.10158
0.102944
0.104449
0.106082
0.107812
0.109595
0.111371
0.113103
0.088109
0.0965332
0.0971494
0.0974303
0.0976331
0.0978011
0.0979528
0.098102
0.0982604
0.098438
0.0986438
0.0988862
0.0991735
0.0995134
0.0999141
0.100383
0.10093
0.101563
0.102295
0.103148
0.104154
0.105373
0.106906
0.0663212
0.0592636
0.0593905
0.0680564
0.120625
0.124447
0.13022
0.138157
0.161007
0.16569
0.17129
0.178081
0.191124
0.196551
0.202366
0.20869
0.217892
0.223687
0.229606
0.235684
0.242634
0.248338
0.25404
0.259789
0.263864
0.269362
0.274802
0.28025
0.281225
0.286369
0.291481
0.296689
0.296575
0.301497
0.30627
0.311232
0.312417
0.316693
0.320672
0.325038
0.314025
0.318889
0.324002
0.329945
0.30788
0.314668
0.321586
0.328582
0.298054
0.304679
0.311366
0.318163
0.286425
0.292737
0.299063
0.30543
0.27455
0.280372
0.286154
0.291925
0.262689
0.267928
0.273087
0.278194
0.250806
0.255434
0.259953
0.26439
0.238949
0.242964
0.246852
0.250636
0.227288
0.230702
0.233977
0.237132
0.216056
0.218893
0.221586
0.224152
0.205467
0.207773
0.209924
0.211937
0.195799
0.197619
0.199272
0.200771
0.187237
0.18863
0.189843
0.190887
0.179853
0.180894
0.181744
0.182412
0.173611
0.174383
0.174957
0.175339
0.168382
0.168967
0.169352
0.16954
0.163973
0.164445
0.164718
0.164794
0.160165
0.16058
0.160803
0.160834
0.156738
0.15714
0.157356
0.157389
0.153502
0.153917
0.154154
0.154216
0.150304
0.150745
0.151016
0.151122
0.147038
0.147507
0.147816
0.147967
0.143645
0.144139
0.144479
0.14467
0.14011
0.140618
0.14098
0.1412
0.136456
0.136965
0.137336
0.137572
0.132733
0.133234
0.133604
0.133843
0.129012
0.129501
0.129866
0.130102
0.125362
0.125849
0.126219
0.126459
0.121817
0.12234
0.122758
0.123037
0.118313
0.118963
0.119537
0.11995
0.114501
0.115492
0.116508
0.117276
0.108628
0.110394
0.113138
0.114735
0.104432
0.139161
0.171734
0.202838
0.231672
0.260053
0.290729
0.323903
0.354685
0.373508
0.375942
0.371502
0.369862
0.3733
0.377695
0.375415
0.357059
0.307168
0.166715
0.154894
0.177317
0.201564
0.226705
0.252806
0.281346
0.314712
0.351854
0.386146
0.408211
0.412729
0.40691
0.403167
0.404964
0.408158
0.404977
0.385611
0.332707
0.181312
0.191322
0.209388
0.22935
0.251188
0.276112
0.30581
0.341144
0.380238
0.41678
0.441625
0.448916
0.444811
0.440389
0.43969
0.439537
0.432893
0.410227
0.353156
0.192821
0.22019
0.235831
0.253735
0.274494
0.29963
0.330501
0.367148
0.407183
0.444357
0.470595
0.481466
0.481212
0.477918
0.475054
0.470443
0.458428
0.430552
0.368461
0.201308
0.246201
0.26026
0.276821
0.297021
0.322616
0.354832
0.39295
0.433453
0.470181
0.497102
0.511623
0.515748
0.514202
0.509157
0.49919
0.480356
0.445882
0.378304
0.206406
0.269562
0.282545
0.298265
0.318466
0.345256
0.379734
0.420782
0.463057
0.499733
0.526877
0.543661
0.550668
0.549569
0.541085
0.524443
0.497563
0.455576
0.382371
0.207668
0.289475
0.301971
0.317701
0.338845
0.367839
0.406424
0.454671
0.502618
0.540458
0.566119
0.582001
0.588702
0.584864
0.570208
0.545211
0.509497
0.459684
0.380942
0.20487
0.305809
0.318778
0.335448
0.358608
0.391384
0.436809
0.502581
0.56169
0.598154
0.616606
0.627549
0.630642
0.619778
0.595179
0.560483
0.516269
0.459195
0.375182
0.198288
0.320366
0.334045
0.35221
0.379013
0.418101
0.465341
0.522155
0.578652
0.623871
0.656138
0.674957
0.67652
0.65243
0.613609
0.569602
0.518485
0.455683
0.366975
0.190368
0.333831
0.348222
0.367415
0.394579
0.430229
0.469721
0.511661
0.563906
0.619917
0.673132
0.709958
0.71285
0.673695
0.624915
0.573296
0.516781
0.449781
0.35709
0.182613
0.341358
0.356779
0.37394
0.395659
0.424099
0.462022
0.507758
0.56158
0.621104
0.679652
0.720339
0.721582
0.679283
0.627512
0.572006
0.511976
0.441914
0.346288
0.174867
0.340267
0.353979
0.369556
0.388949
0.416397
0.454074
0.501307
0.556752
0.618066
0.678024
0.719339
0.720682
0.680413
0.626875
0.568454
0.505603
0.432967
0.335249
0.167327
0.329624
0.343642
0.358533
0.377691
0.404451
0.441634
0.489379
0.546298
0.608459
0.667487
0.707344
0.710155
0.67762
0.626179
0.564977
0.499543
0.424451
0.325061
0.160422
0.316129
0.329627
0.344225
0.362778
0.388862
0.425435
0.473241
0.530765
0.592849
0.650133
0.688366
0.693594
0.671073
0.62582
0.56291
0.495267
0.417905
0.316974
0.154659
0.301584
0.314112
0.327923
0.3457
0.37086
0.40642
0.45374
0.511019
0.572428
0.628028
0.665172
0.673345
0.658431
0.62291
0.563343
0.493752
0.41429
0.312014
0.150455
0.286701
0.298001
0.310698
0.327314
0.351177
0.38538
0.431616
0.488023
0.548459
0.602836
0.639531
0.65068
0.640446
0.617383
0.568221
0.495436
0.413987
0.310776
0.148024
0.271735
0.281669
0.293008
0.308158
0.330387
0.3629
0.407574
0.462665
0.522021
0.575684
0.612741
0.626875
0.621353
0.608165
0.571948
0.49975
0.416533
0.313153
0.147363
0.256849
0.265347
0.275179
0.288651
0.308983
0.339491
0.382196
0.435606
0.493836
0.547261
0.585473
0.602591
0.601548
0.59263
0.565876
0.504196
0.420918
0.3182
0.148304
0.242256
0.249282
0.257534
0.269206
0.28744
0.315616
0.355879
0.407151
0.464136
0.517733
0.557712
0.578104
0.58075
0.573452
0.556514
0.50743
0.425846
0.325234
0.150622
0.228235
0.233774
0.240368
0.250114
0.266031
0.291534
0.328926
0.377607
0.43294
0.486664
0.528825
0.552775
0.559092
0.55374
0.542549
0.50758
0.43211
0.333699
0.154044
0.215033
0.219102
0.224026
0.231735
0.245089
0.267524
0.301557
0.347116
0.400286
0.453589
0.497877
0.52541
0.535761
0.533667
0.524275
0.502251
0.445626
0.343209
0.15815
0.202966
0.205651
0.208931
0.214528
0.225091
0.244022
0.274118
0.315899
0.366227
0.418398
0.463957
0.49488
0.509302
0.511159
0.50549
0.489797
0.454828
0.34944
0.159973
0.192301
0.19375
0.195494
0.199002
0.206641
0.221682
0.247218
0.284442
0.331096
0.38125
0.426962
0.460746
0.47887
0.48453
0.482064
0.470871
0.440557
0.342877
0.159652
0.183191
0.183617
0.184028
0.185615
0.190385
0.201337
0.221778
0.25362
0.295659
0.342856
0.387755
0.423152
0.444608
0.453596
0.453651
0.444321
0.416737
0.327513
0.154
0.175647
0.175305
0.174672
0.174651
0.176846
0.183834
0.198919
0.224659
0.261091
0.304337
0.347526
0.383455
0.407426
0.419255
0.421579
0.413303
0.388689
0.304338
0.144943
0.169537
0.168693
0.167341
0.166126
0.166244
0.169752
0.17966
0.198916
0.228823
0.267045
0.307611
0.343359
0.368995
0.38312
0.387248
0.380237
0.355115
0.279187
0.133129
0.164621
0.163513
0.161754
0.159774
0.15841
0.15918
0.16456
0.177486
0.200258
0.23233
0.269177
0.303951
0.330692
0.346721
0.35237
0.347182
0.320443
0.253432
0.120206
0.1606
0.159416
0.157503
0.155131
0.152848
0.151699
0.153517
0.16085
0.176446
0.201407
0.233181
0.26584
0.292932
0.310366
0.317448
0.3145
0.28706
0.22541
0.10825
0.15717
0.156037
0.154147
0.151657
0.148907
0.146571
0.145881
0.148775
0.157851
0.175249
0.200536
0.2295
0.255775
0.273928
0.281647
0.279449
0.251903
0.197373
0.0973025
0.154058
0.153049
0.151286
0.148851
0.145941
0.142986
0.140728
0.140475
0.144269
0.15447
0.172243
0.195625
0.219374
0.237246
0.24473
0.240469
0.213281
0.170461
0.0869722
0.151045
0.150191
0.1486
0.14631
0.143436
0.140232
0.137123
0.134898
0.134924
0.139141
0.14935
0.165543
0.184485
0.200485
0.207584
0.201563
0.174577
0.143994
0.0767929
0.147974
0.147274
0.145858
0.143739
0.140994
0.137766
0.134283
0.130984
0.128671
0.128632
0.132461
0.141116
0.153375
0.165117
0.170967
0.166001
0.142112
0.113267
0.0669658
0.14475
0.144182
0.142918
0.140957
0.138368
0.13522
0.131638
0.127852
0.124287
0.121672
0.121062
0.123471
0.128859
0.134921
0.137385
0.13197
0.112555
0.0764941
0.0526823
0.141334
0.140862
0.139711
0.137878
0.135423
0.132386
0.128836
0.124889
0.120756
0.116804
0.11361
0.11186
0.111885
0.112749
0.111738
0.105683
0.0884792
0.0599786
0.0386656
0.137738
0.137317
0.13622
0.134476
0.132116
0.129178
0.125703
0.121752
0.117419
0.112872
0.108379
0.104299
0.100908
0.0979478
0.094114
0.0875829
0.073883
0.0510405
0.030598
0.134018
0.1336
0.132507
0.130786
0.128472
0.1256
0.122202
0.118307
0.113953
0.1092
0.104149
0.0989405
0.0936943
0.0883278
0.082284
0.0746561
0.0629411
0.0441845
0.0255471
0.130268
0.129804
0.128656
0.126894
0.12457
0.121725
0.118387
0.114567
0.11027
0.105504
0.100284
0.0946333
0.0885563
0.0819692
0.0745842
0.0659255
0.0547715
0.0386887
0.0220875
0.126616
0.126056
0.124796
0.12293
0.120543
0.117688
0.114387
0.11064
0.106433
0.101745
0.0965505
0.0908193
0.0844995
0.0774868
0.0695767
0.0604549
0.0494565
0.0352144
0.019755
0.123217
0.122538
0.121104
0.119079
0.116585
0.113686
0.110399
0.106713
0.102601
0.0980268
0.0929478
0.0873109
0.0810444
0.0740399
0.0661256
0.057047
0.0463526
0.0332034
0.0183273
0.120248
0.11945
0.117804
0.115589
0.112964
0.109999
0.106702
0.103055
0.0990231
0.0945627
0.0896236
0.0841462
0.0780549
0.071246
0.0635689
0.0547992
0.0445592
0.0321364
0.0174509
0.117878
0.116993
0.115153
0.112771
0.110032
0.107
0.103679
0.100044
0.0960584
0.0916768
0.086849
0.0815162
0.0756057
0.0690212
0.0616274
0.0532196
0.0434447
0.0315746
0.0168894
0.115975
0.115273
0.113431
0.111014
0.108242
0.105184
0.101845
0.0982033
0.094221
0.0898558
0.0850602
0.079779
0.0739448
0.0674701
0.0602324
0.0520439
0.0425687
0.0310696
0.0164446
)
;

boundaryField
{
    leftWall
    {
        type            kqRWallFunction;
        value           nonuniform List<scalar> 
50
(
0.0025367
0.00494865
0.00677467
0.00814002
0.00923275
0.0102941
0.0113433
0.012227
0.0129018
0.0134877
0.0136931
0.0138824
0.0144274
0.0156479
0.0178251
0.0198295
0.0211984
0.021969
0.0224588
0.0228839
0.0233051
0.0237069
0.0240674
0.0243775
0.0246322
0.0248085
0.0249083
0.0249384
0.0249055
0.0248175
0.024683
0.0245126
0.0243192
0.0241183
0.0239279
0.0237686
0.0236639
0.0236405
0.0237289
0.0239652
0.0243942
0.025075
0.0260907
0.0275655
0.0296988
0.0328297
0.037573
0.0451749
0.058729
0.088109
)
;
    }
    rightWall
    {
        type            kqRWallFunction;
        value           nonuniform List<scalar> 
50
(
0.0205416
0.0507173
0.0754583
0.0944923
0.110496
0.124519
0.137085
0.1486
0.166715
0.181312
0.192821
0.201308
0.206406
0.207668
0.20487
0.198288
0.190368
0.182613
0.174867
0.167327
0.160422
0.154659
0.150455
0.148024
0.147363
0.148304
0.150622
0.154044
0.15815
0.159973
0.159652
0.154
0.144943
0.133129
0.120206
0.10825
0.0973025
0.0869722
0.0767929
0.0669658
0.0526823
0.0386656
0.030598
0.0255471
0.0220875
0.019755
0.0183273
0.0174509
0.0168894
0.0164446
)
;
    }
    lowerWall
    {
        type            kqRWallFunction;
        value           nonuniform List<scalar> 
62
(
0.0025367
0.00627004
0.0096057
0.0121445
0.0143274
0.0162405
0.01793
0.019413
0.0206896
0.0217525
0.0225936
0.023208
0.0235974
0.0237723
0.0237535
0.0236687
0.0234819
0.0230503
0.0221814
0.0206396
0.0181603
0.0142409
0.00762855
0.00762855
0.0169408
0.0230601
0.0279921
0.0321247
0.0358786
0.0399996
0.0476067
0.0663212
0.0592636
0.0593905
0.0680564
0.0204552
0.0349925
0.0404683
0.0423026
0.0433494
0.0440893
0.0496447
0.0720518
0.0204552
0.032403
0.0477087
0.0654732
0.101626
0.144791
0.178597
0.183051
0.168117
0.144058
0.123078
0.105976
0.0938862
0.0861682
0.0803563
0.0732455
0.0619902
0.0425841
0.0205416
)
;
    }
    atmosphere
    {
        type            inletOutlet;
        inletValue      uniform 0.1;
        value           nonuniform List<scalar> 
46
(
0.1
0.1
0.1
0.1
0.1
0.1
0.1
0.1
0.1
0.1
0.1
0.1
0.1
0.1
0.1
0.1
0.1
0.1
0.1
0.1
0.1
0.1
0.1
0.1
0.1
0.113138
0.114735
0.115975
0.115273
0.113431
0.111014
0.108242
0.105184
0.101845
0.0982033
0.094221
0.0898558
0.0850602
0.079779
0.0739448
0.0674701
0.0602324
0.0520439
0.0425687
0.0310696
0.0164446
)
;
    }
    defaultFaces
    {
        type            empty;
    }
}


// ************************************************************************* //
