/*--------------------------------*- C++ -*----------------------------------*\
  =========                 |
  \\      /  F ield         | OpenFOAM: The Open Source CFD Toolbox
   \\    /   O peration     | Website:  https://openfoam.org
    \\  /    A nd           | Version:  13
     \\/     M anipulation  |
\*---------------------------------------------------------------------------*/
FoamFile
{
    format      ascii;
    class       volScalarField;
    location    "0.45";
    object      nut;
}
// * * * * * * * * * * * * * * * * * * * * * * * * * * * * * * * * * * * * * //

dimensions      [0 2 -1 0 0 0 0];

internalField   nonuniform List<scalar> 
2268
(
3.36234e-05
5.28463e-05
6.53903e-05
7.34923e-05
7.97992e-05
8.49391e-05
8.92297e-05
9.28288e-05
9.58132e-05
9.82206e-05
0.000100073
0.00010139
0.000102201
0.000102548
0.000102492
0.000102378
0.000102002
0.000101057
9.9086e-05
9.54713e-05
8.93735e-05
7.89067e-05
5.74184e-05
9.91131e-05
0.000338852
0.00048524
0.000594168
0.000677327
0.000742383
0.000793994
0.00083483
0.000866416
0.000889708
0.000905466
0.000914542
0.000918077
0.000917624
0.000915105
0.000908198
0.000889104
0.000853269
0.000794374
0.000708349
0.000594571
0.00044869
0.000181989
0.000116046
0.00048361
0.000788044
0.00103239
0.00122911
0.00138868
0.00151855
0.00162356
0.00170675
0.00177024
0.00181578
0.00184533
0.00186149
0.00186767
0.00186824
0.00185572
0.0018175
0.00173788
0.00160193
0.00140302
0.00114348
0.000810334
0.000212358
0.000127357
0.000555557
0.00098101
0.00134255
0.00164408
0.00189544
0.0021048
0.00227791
0.00241867
0.00252991
0.00261406
0.00267389
0.00271295
0.00273571
0.002747
0.00273458
0.00268027
0.00255916
0.00235014
0.00204498
0.00164489
0.00111593
0.000233955
0.000135823
0.000609014
0.00112526
0.00157908
0.0019674
0.0022983
0.00257948
0.0028167
0.00301404
0.0031746
0.00330114
0.0033967
0.0034652
0.00351115
0.00353817
0.00352943
0.00346118
0.00330238
0.00302873
0.00262994
0.00209986
0.00137503
0.00025063
0.000143605
0.000669595
0.00125648
0.00177827
0.00223386
0.0026298
0.00297257
0.00326716
0.00351731
0.00372593
0.0038957
0.00402951
0.00413084
0.00420335
0.00424842
0.00424521
0.00416523
0.00397403
0.00364639
0.00316895
0.00252204
0.00160655
0.000264961
0.000150817
0.000753416
0.00139068
0.00195898
0.00246429
0.00291166
0.00330583
0.0036506
0.00394892
0.0042032
0.00441562
0.00458839
0.00472379
0.00482399
0.00488741
0.00489091
0.00480242
0.00458582
0.00421673
0.00367831
0.00293343
0.00184046
0.000280172
0.000156495
0.000850164
0.00152157
0.00212313
0.00266595
0.00315443
0.0035918
0.00398061
0.00432298
0.00462066
0.00487503
0.005087
0.0052567
0.00538381
0.00546538
0.00547676
0.00538424
0.00515129
0.00475564
0.00417743
0.00336466
0.00213134
0.000307486
9.26858e-05
0.000117668
0.000144326
0.000170303
0.000213702
0.000257595
0.000291024
0.000299298
0.000289709
0.000271184
0.000250094
0.00022824
0.000209492
0.000196463
0.000187692
0.000178867
0.00016499
0.000137471
9.46619e-05
0.000285978
0.000662244
0.000987408
0.00132606
0.00175221
0.0020936
0.0022374
0.0022659
0.00215501
0.00193594
0.00165342
0.0014565
0.00135172
0.00130806
0.00127974
0.00121774
0.00108855
0.000872479
0.000352435
0.000307802
0.00100082
0.00156075
0.00216884
0.00284396
0.00325773
0.0033958
0.00362936
0.00374503
0.00338924
0.00300252
0.00273054
0.00259441
0.0025481
0.0025063
0.00237822
0.0021035
0.00161404
0.000429002
0.000314799
0.00118018
0.00191246
0.00271805
0.00342569
0.00383154
0.00415111
0.00449647
0.00471671
0.00454751
0.00404553
0.00379141
0.00368607
0.00366951
0.00362801
0.00344307
0.00303179
0.00225362
0.000479889
0.000319344
0.00124924
0.00215111
0.00308834
0.00380067
0.00431656
0.00491648
0.00538474
0.00556023
0.00539926
0.00496684
0.00471319
0.00466172
0.00468318
0.00464269
0.0044044
0.00386233
0.00279228
0.000518608
0.000324093
0.00131294
0.00237925
0.0033746
0.00422556
0.00497864
0.00578085
0.00635561
0.00654597
0.00632193
0.00584279
0.00560438
0.005585
0.00562577
0.00557171
0.00527437
0.00460064
0.00324258
0.000550106
0.000353414
0.00145678
0.00270616
0.00382246
0.00482614
0.00580031
0.00671164
0.00735165
0.00757548
0.00733571
0.00679888
0.0065357
0.0065009
0.00652609
0.00643477
0.00606633
0.00525576
0.0036186
0.000576686
0.000437849
0.00181087
0.00327832
0.00451801
0.0056411
0.00669941
0.00764424
0.00831342
0.00857409
0.00836038
0.00782459
0.00751149
0.00742611
0.00739962
0.00724618
0.00679238
0.00583819
0.00393361
0.000599818
0.000160624
0.00094728
0.00167222
0.00232146
0.00291487
0.00345871
0.00395568
0.00440747
0.0048155
0.00518089
0.00550399
0.00578348
0.00601532
0.00619207
0.00630283
0.00632503
0.00623174
0.00599088
0.00557973
0.0049785
0.00413307
0.00291018
0.00116863
0.000164078
0.00100867
0.00179987
0.00251167
0.00316801
0.00377745
0.0043437
0.00486892
0.00535461
0.00580143
0.00620817
0.00657012
0.00687723
0.00711259
0.00725718
0.00729448
0.00721093
0.00699481
0.00663469
0.00610482
0.00537464
0.00441939
0.00327854
0.000165302
0.0010124
0.00185676
0.00263168
0.00335329
0.0040291
0.00466349
0.00525952
0.00581916
0.00634265
0.00682699
0.00726411
0.00763957
0.0079329
0.00812154
0.00819781
0.00815601
0.00799598
0.00772034
0.00732956
0.00683875
0.00628175
0.00579648
0.000166562
0.000980382
0.00186841
0.00270724
0.00349692
0.00424119
0.00494429
0.00560999
0.00624062
0.00683586
0.00739097
0.00789538
0.00833268
0.00868265
0.00892491
0.00905847
0.0090859
0.00901491
0.0088551
0.00862197
0.00835235
0.00811514
0.00801878
0.000170021
0.000929437
0.00186343
0.00276867
0.00362781
0.00444078
0.00521141
0.00594384
0.00664047
0.00730024
0.00791725
0.00847971
0.00897156
0.00937579
0.00967768
0.00987722
0.00998655
0.0100192
0.00998684
0.00990733
0.00981801
0.00977682
0.00982825
0.000177255
0.000876465
0.00187009
0.00284556
0.0037735
0.00465203
0.00548524
0.00627748
0.00703103
0.00774444
0.00841201
0.00902126
0.0095583
0.0100112
0.010372
0.0106384
0.0108265
0.010958
0.0110426
0.0110908
0.0111315
0.0111967
0.011303
0.000189049
0.000832579
0.00188285
0.00294055
0.00394054
0.00488276
0.00577308
0.00661623
0.00741575
0.00816881
0.00887328
0.00951725
0.0100895
0.0105827
0.0109957
0.011325
0.0115769
0.0117886
0.01197
0.0121178
0.0122363
0.0123522
0.012485
0.00019927
0.00100311
0.00198709
0.0030498
0.00409913
0.00509695
0.00603893
0.00692703
0.00776574
0.00855105
0.00927853
0.00995253
0.0105571
0.0110893
0.0115598
0.0119452
0.0122132
0.0124778
0.0127385
0.0129636
0.0131261
0.0132678
0.0134133
0.000205858
0.00120002
0.00220381
0.00327788
0.00435011
0.00537466
0.00633953
0.00724435
0.00808714
0.00886987
0.00959608
0.0102639
0.0108712
0.0114075
0.0118808
0.0123039
0.0126735
0.0130453
0.0134
0.0136887
0.0138207
0.0139602
0.0141207
0.00020947
0.00131617
0.00245066
0.00358359
0.00468334
0.0057224
0.00669151
0.00759074
0.0084216
0.00917912
0.00987169
0.0105045
0.011084
0.0116076
0.0120771
0.0125083
0.0129376
0.013358
0.0137307
0.0140278
0.0142534
0.0144709
0.0146683
0.000211892
0.00140003
0.00268081
0.00389607
0.0050336
0.00608591
0.0070522
0.00793605
0.0087416
0.00947207
0.0101302
0.0107304
0.0112844
0.0117971
0.0122724
0.0127137
0.0131254
0.0135024
0.0138451
0.01416
0.0144593
0.0147422
0.0149563
0.00021404
0.00147271
0.00288154
0.00417888
0.00535767
0.00642427
0.00738656
0.00825333
0.00903316
0.00973353
0.0103639
0.010938
0.011469
0.0119655
0.0124322
0.0128691
0.0132694
0.0136272
0.0139533
0.0142602
0.0145547
0.0148261
0.0150381
0.000216109
0.00153712
0.00304769
0.00441618
0.00563359
0.00671432
0.00767319
0.00852429
0.00928089
0.00995551
0.010561
0.0111117
0.0116208
0.0120975
0.012546
0.012965
0.0133491
0.0136947
0.0140097
0.0143056
0.0145843
0.0148265
0.015016
0.000218014
0.00159204
0.00318039
0.00460604
0.00585598
0.00694886
0.00790461
0.00874191
0.00947825
0.01013
0.0107129
0.0112418
0.0117294
0.0121846
0.0126115
0.0130096
0.0133754
0.0137071
0.0140087
0.0142853
0.0145345
0.0147422
0.0148979
0.000219673
0.00163708
0.00328444
0.00475404
0.00602923
0.00713111
0.00808331
0.00890814
0.0096265
0.0102577
0.0108195
0.0113275
0.0117941
0.012228
0.0126334
0.0130107
0.0133578
0.0136731
0.0139571
0.0142097
0.0144264
0.0145974
0.0147176
0.000221059
0.00167277
0.00336569
0.00486831
0.00616186
0.00726933
0.00821708
0.00903024
0.00973228
0.0103448
0.0108869
0.0113748
0.0118214
0.012235
0.0126202
0.0129779
0.0133066
0.0136039
0.0138677
0.0140948
0.0142797
0.0144154
0.0144988
0.000222244
0.00170162
0.00342977
0.00495658
0.00626275
0.00737274
0.00831521
0.00911732
0.00980446
0.0103998
0.0109236
0.011393
0.0118207
0.0122155
0.0125821
0.0129215
0.0132322
0.013511
0.0137539
0.0139557
0.0141102
0.0142115
0.0142567
0.000223087
0.00172918
0.00348154
0.00502475
0.00633929
0.00744945
0.00838622
0.00917804
0.00985174
0.0104317
0.010939
0.0113912
0.0118016
0.0121792
0.0125287
0.0128511
0.0131447
0.0134052
0.0136275
0.0138048
0.0139304
0.0139978
0.0140036
0.000223589
0.00175312
0.00352678
0.00508005
0.00639683
0.00750552
0.00843682
0.00921936
0.00988134
0.0104478
0.0109405
0.0113774
0.0117723
0.0121343
0.0124682
0.012775
0.0130524
0.0132956
0.0134982
0.0136525
0.0137505
0.013785
0.0137513
0.000223779
0.00177318
0.00356376
0.00512459
0.00644223
0.00754711
0.0084717
0.00924604
0.00989835
0.0104536
0.0109337
0.0113574
0.0117387
0.0120869
0.0124068
0.0126993
0.0129619
0.0131891
0.0133736
0.0135067
0.0135793
0.0135831
0.0135115
0.000223687
0.00178934
0.00359222
0.0051577
0.00647514
0.00757673
0.0084958
0.00926301
0.00990661
0.0104521
0.0109219
0.0113346
0.0117042
0.0120404
0.0123481
0.012628
0.0128774
0.0130903
0.0132587
0.013373
0.0134231
0.0133998
0.0132957
0.000223347
0.00180157
0.00361206
0.0051792
0.0064954
0.00759412
0.00850908
0.00927103
0.00990818
0.0104462
0.0109075
0.011311
0.0116709
0.0119969
0.012294
0.0125631
0.0128011
0.013002
0.0131572
0.0132564
0.0132888
0.0132439
0.0131131
0.000222795
0.00180987
0.00362324
0.00518906
0.00650286
0.00759899
0.00851111
0.00926965
0.00990252
0.0104353
0.0108904
0.0112869
0.011639
0.0119567
0.0122451
0.0125052
0.0127341
0.0129256
0.0130709
0.0131592
0.013179
0.0131187
0.0129681
0.000222078
0.0018143
0.00362581
0.00518736
0.00649754
0.00759114
0.00850136
0.00925799
0.00988844
0.010418
0.010869
0.0112604
0.0116067
0.011918
0.0121997
0.0124529
0.0126749
0.0128596
0.0129982
0.0130799
0.0130924
0.0130232
0.0128606
0.00022125
0.00181505
0.00362007
0.00517446
0.00647972
0.00757058
0.00847942
0.00923517
0.00986458
0.0103924
0.010841
0.0112291
0.0115714
0.0118781
0.0121548
0.0124029
0.01262
0.0128005
0.0129356
0.0130146
0.013025
0.0129536
0.0127875
0.000220382
0.00181243
0.00360662
0.00515115
0.00645013
0.00753777
0.0084453
0.00920064
0.00982976
0.010357
0.0108043
0.0111904
0.0115301
0.0118336
0.0121069
0.0123516
0.0125659
0.0127442
0.0128786
0.0129584
0.0129713
0.012904
0.0127425
0.000219555
0.00180693
0.00358639
0.00511871
0.00641012
0.0074938
0.00839959
0.00915434
0.00978326
0.0103102
0.0107569
0.0111419
0.0114799
0.0117815
0.0120526
0.0122954
0.0125083
0.0126865
0.0128224
0.0129061
0.0129255
0.0128674
0.0127178
0.000218863
0.0017992
0.00356076
0.00507903
0.00636175
0.0074405
0.00834361
0.00909689
0.00972495
0.0102512
0.0106972
0.0110814
0.0114184
0.0117187
0.0119887
0.0122307
0.0124436
0.0126232
0.0127625
0.0128523
0.0128813
0.0128368
0.0127049
0.000218417
0.00179004
0.00353155
0.00503473
0.00630793
0.00738062
0.00827956
0.00902974
0.0096554
0.0101798
0.0106243
0.0110072
0.0113432
0.0116427
0.0119122
0.0121543
0.0123683
0.0125505
0.0126947
0.0127923
0.0128331
0.012805
0.0126949
0.000218341
0.00178049
0.00350111
0.0049892
0.00625252
0.00731791
0.00821063
0.00895522
0.00957599
0.0100964
0.0105377
0.0109183
0.0112527
0.0115512
0.0118205
0.0120632
0.012279
0.0124648
0.0126149
0.0127217
0.0127757
0.0127658
0.0126799
0.000218775
0.00177175
0.0034724
0.00494675
0.00620047
0.00725724
0.00814106
0.00887664
0.00948897
0.0100021
0.0104377
0.010814
0.0111455
0.0114424
0.0117112
0.0119547
0.0121728
0.0123628
0.0125196
0.0126363
0.0127043
0.0127137
0.012653
0.000219882
0.00176528
0.00344901
0.00491268
0.00615786
0.00720462
0.00807619
0.0087983
0.00939748
0.00989896
0.0103251
0.0106943
0.0110208
0.0113147
0.0115822
0.0118263
0.0120468
0.0122413
0.0124053
0.0125325
0.0126151
0.0126439
0.0126086
0.000221857
0.00176279
0.00343536
0.00489347
0.00613207
0.00716724
0.00802235
0.00872538
0.00930543
0.00978969
0.0102015
0.0105597
0.0108782
0.0111669
0.0114318
0.0116755
0.011898
0.0120972
0.0122687
0.0124068
0.0125041
0.0125524
0.0125423
0.000224942
0.00176633
0.00343686
0.004897
0.0061318
0.00715339
0.00798673
0.00866372
0.00921738
0.00967764
0.0100693
0.0104115
0.0107181
0.0109985
0.0112583
0.0115001
0.0117237
0.0119269
0.0121059
0.0122551
0.0123676
0.0124357
0.0124505
0.000229457
0.00177842
0.00346036
0.00493297
0.00616736
0.00717234
0.00797695
0.00861941
0.00913814
0.0095666
0.00993125
0.0102517
0.0105415
0.0108096
0.0110611
0.0112983
0.0115209
0.011727
0.0119128
0.012073
0.012201
0.0122895
0.0123297
0.000235855
0.00180243
0.00351504
0.00501383
0.00625092
0.00723407
0.00800058
0.00859815
0.00907227
0.00946038
0.00979063
0.0100829
0.0103503
0.0106011
0.01084
0.0110688
0.0112874
0.0114938
0.0116846
0.0118549
0.0119986
0.0121083
0.0121755
0.000244807
0.00184345
0.00361432
0.0051564
0.0063971
0.00734887
0.0080642
0.0086044
0.00902333
0.00936236
0.00965079
0.00990824
0.0101472
0.010375
0.0105959
0.0108113
0.0110211
0.0112237
0.0114162
0.0115944
0.0117527
0.0118844
0.0119811
0.00025738
0.00191036
0.00378003
0.00538494
0.00662355
0.00752634
0.00817211
0.0086402
0.00899313
0.00927496
0.00951487
0.00973139
0.0099358
0.0101346
0.0103311
0.0105268
0.0107215
0.010914
0.0111023
0.0112834
0.0114533
0.0116064
0.0117356
0.000275343
0.00202107
0.00405181
0.00573654
0.00695105
0.00777333
0.00832428
0.00870392
0.00898099
0.00919924
0.00938556
0.00955618
0.00972058
0.0098841
0.0100495
0.0102177
0.0103891
0.0105628
0.0107381
0.0109135
0.0110875
0.0112579
0.0114213
0.000301954
0.00221808
0.00451061
0.00626977
0.00740082
0.00808934
0.00851346
0.00878898
0.00898335
0.00913479
0.00926506
0.00938663
0.00950666
0.0096291
0.00975604
0.00988837
0.0100264
0.0101701
0.0103196
0.0104755
0.0106397
0.0108157
0.0110094
0.000344511
0.00262974
0.00534567
0.00707305
0.00798232
0.00845768
0.00872201
0.00888346
0.00899413
0.00908011
0.0091552
0.00922702
0.00929991
0.00937636
0.00945776
0.00954484
0.00963801
0.00973769
0.00984471
0.00996104
0.0100914
0.0102462
0.0104484
0.000422995
0.00390005
0.00706838
0.0082373
0.00865648
0.00883294
0.00892078
0.00897186
0.00900645
0.00903364
0.00905797
0.00908192
0.00910693
0.0091339
0.00916338
0.00919576
0.00923133
0.00927047
0.00931387
0.00936309
0.00942208
0.00950176
0.00963575
0.000369424
0.000351482
0.000357698
0.000385674
0.00280304
0.00289387
0.0031204
0.00344143
0.00576572
0.00584921
0.00603302
0.00630164
0.00809575
0.00819612
0.00834703
0.00854488
0.00994552
0.0100484
0.0101771
0.0103304
0.0114272
0.0115219
0.0116305
0.0117531
0.0126057
0.0126903
0.0127824
0.0128822
0.0135278
0.0136034
0.0136819
0.0137644
0.0142379
0.0143104
0.0143797
0.0144481
0.0147895
0.0148572
0.0149137
0.0149643
0.0150736
0.0151349
0.0151857
0.0152333
0.0151593
0.0152234
0.0152781
0.015326
0.015117
0.0151666
0.0152083
0.0152452
0.0149757
0.0150109
0.0150388
0.0150614
0.0147693
0.0147879
0.0147988
0.0148037
0.014521
0.0145206
0.0145117
0.0144958
0.0142466
0.0142257
0.014195
0.0141562
0.0139593
0.0139168
0.0138632
0.0138001
0.0136718
0.0136071
0.0135297
0.0134412
0.0133967
0.0133094
0.013207
0.0130911
0.013149
0.0130391
0.0129116
0.0127676
0.0129384
0.0128081
0.0126575
0.0124873
0.0127712
0.0126243
0.0124544
0.0122616
0.0126492
0.0124908
0.0123069
0.0120972
0.0125699
0.012406
0.0122147
0.0119953
0.0125275
0.0123643
0.0121726
0.0119513
0.0125134
0.0123567
0.0121713
0.0119558
0.0125175
0.0123721
0.0121988
0.0119957
0.0125292
0.0123989
0.0122417
0.012056
0.0125387
0.0124256
0.0122872
0.0121221
0.0125375
0.0124424
0.0123241
0.0121809
0.0125187
0.0124418
0.0123435
0.0122224
0.0124774
0.0124181
0.0123392
0.0122395
0.01241
0.0123677
0.0123074
0.012228
0.0123136
0.012288
0.0122459
0.0121859
0.0121848
0.0121767
0.012153
0.0121125
0.0120188
0.01203
0.0120266
0.012007
0.0118066
0.011841
0.011862
0.0118674
0.0115333
0.0115976
0.0116509
0.011689
0.0111722
0.0112781
0.0113792
0.0114655
0.0106687
0.0108381
0.0110276
0.0111951
0.00986236
0.0101226
0.0105925
0.0109144
0.00155847
0.00308522
0.00446174
0.00569942
0.0068523
0.00792037
0.00885847
0.00955389
0.00990467
0.00984993
0.00946386
0.00911447
0.00891761
0.00876069
0.00846946
0.0078537
0.00665733
0.00434687
0.000634281
0.00436142
0.00548364
0.00656666
0.00761131
0.00862208
0.00956832
0.0104177
0.0110834
0.0114806
0.0115519
0.0112965
0.0109144
0.0105648
0.0102139
0.00971873
0.0088793
0.00739274
0.00467976
0.000660407
0.00688467
0.00769162
0.00853098
0.00938492
0.0102418
0.0110695
0.01182
0.0124297
0.0128286
0.0129535
0.0127763
0.0124012
0.0119569
0.0114472
0.0107633
0.00970778
0.00795421
0.00491366
0.000680342
0.00894572
0.00954572
0.0102088
0.0109158
0.0116503
0.0123767
0.0130448
0.0135939
0.0139576
0.0140754
0.0139187
0.0135449
0.0130435
0.0124223
0.011588
0.0103464
0.0083633
0.00506572
0.000694996
0.0106259
0.0110852
0.0116173
0.0122111
0.0128503
0.0134984
0.0140989
0.0145829
0.0148856
0.0149568
0.014776
0.0143837
0.013839
0.0131395
0.0121909
0.0107978
0.00862768
0.00514155
0.000704229
0.0119818
0.012345
0.0127824
0.0132928
0.0138624
0.0144536
0.0150033
0.0154249
0.0156527
0.0156489
0.0154076
0.0149738
0.0143849
0.013623
0.0125827
0.0110657
0.00874848
0.00514144
0.000707492
0.013064
0.0133606
0.0137326
0.0141852
0.0147062
0.0152638
0.0157987
0.016175
0.0163188
0.0162081
0.0158792
0.0153819
0.0147365
0.0139109
0.0127846
0.0111586
0.0087283
0.00506717
0.000704277
0.0139126
0.0141655
0.0144945
0.0149114
0.0154051
0.0159585
0.0165724
0.0169247
0.0169473
0.016699
0.0162641
0.0156832
0.0149571
0.0140475
0.0128223
0.0110898
0.00857423
0.00492361
0.00069451
0.0145682
0.0147886
0.0150907
0.0154986
0.0159954
0.0164937
0.0169743
0.0172664
0.0172962
0.0170718
0.0166177
0.0159524
0.0151031
0.0140686
0.0127176
0.010872
0.00829072
0.00470231
0.000681147
0.0150523
0.015247
0.0155208
0.0158889
0.0163112
0.0167055
0.0170343
0.0172894
0.0173817
0.0172697
0.0168825
0.0161817
0.0152053
0.014021
0.012525
0.0105556
0.00791626
0.00441909
0.000667278
0.015322
0.0155043
0.0157202
0.0159981
0.0163369
0.016703
0.0170264
0.017278
0.0174027
0.0173423
0.016986
0.0162802
0.0152316
0.0139233
0.0122921
0.0102069
0.00752323
0.00413632
0.000652562
0.0154057
0.015538
0.0157059
0.0159264
0.016228
0.016573
0.0169005
0.0171677
0.0173286
0.0173105
0.0169863
0.0162964
0.0152168
0.0138152
0.0120724
0.00989095
0.00717679
0.00389504
0.000637309
0.0153081
0.0154096
0.0155329
0.0157188
0.015985
0.0163132
0.0166499
0.0169479
0.0171496
0.017169
0.0168801
0.0162208
0.0151642
0.0137221
0.0119033
0.00965654
0.00692451
0.00372081
0.000622397
0.0150991
0.015161
0.015245
0.0153913
0.0156268
0.0159416
0.0162904
0.0166221
0.0168668
0.0169276
0.0166844
0.0160738
0.0150797
0.0136533
0.0118009
0.00952684
0.00679027
0.00362668
0.000609113
0.01481
0.014824
0.0148615
0.014966
0.0151694
0.0154687
0.0158294
0.0161948
0.0164851
0.0165953
0.016411
0.0158674
0.0149495
0.0135893
0.0117604
0.00949743
0.00677023
0.00361344
0.000598788
0.0144657
0.0144233
0.0144056
0.0144602
0.0146247
0.0149044
0.0152725
0.0156706
0.01601
0.0161789
0.0160661
0.0156031
0.014765
0.0135183
0.0117681
0.0095409
0.00683971
0.00367327
0.000592374
0.014086
0.0139793
0.0138963
0.0138895
0.0140038
0.0142547
0.0146238
0.0150523
0.0154443
0.015681
0.0156503
0.0152815
0.0145399
0.013408
0.0117741
0.00962046
0.00697082
0.00379781
0.000590193
0.0136873
0.0135087
0.0133495
0.0132674
0.0133165
0.0135255
0.0138859
0.0143404
0.0147868
0.0150988
0.0151599
0.0148936
0.0142614
0.0132319
0.0117196
0.0097058
0.00714455
0.00397545
0.000591892
0.0132837
0.0130265
0.0127797
0.012607
0.0125723
0.0127215
0.0130597
0.0135331
0.0140334
0.0144252
0.0145859
0.0144309
0.0139144
0.0130031
0.0116544
0.0097877
0.0073255
0.004183
0.000596783
0.0128869
0.0125476
0.0122068
0.0119289
0.0117898
0.0118564
0.0121515
0.0126294
0.0131775
0.0136504
0.013915
0.0138787
0.0134884
0.0127115
0.0115384
0.009851
0.00749291
0.00438211
0.000603852
0.0125183
0.012096
0.0116534
0.0112569
0.0109933
0.0109515
0.0111768
0.0116366
0.0122175
0.0127654
0.0131334
0.0132189
0.0129633
0.0123356
0.0113209
0.00986494
0.00771193
0.00456343
0.000612582
0.0121954
0.0116919
0.0111443
0.0106201
0.0102148
0.0100382
0.0101619
0.0105724
0.0111617
0.0117684
0.0122331
0.0124373
0.0123163
0.011838
0.0109829
0.00968824
0.00776531
0.00465951
0.000618827
0.0119327
0.0113546
0.0107062
0.0100532
0.00949593
0.00916078
0.00914818
0.00947053
0.0100333
0.0106726
0.0112176
0.0115328
0.0115388
0.0111991
0.0104834
0.00932326
0.00753037
0.00456745
0.000620323
0.0117398
0.0111007
0.0103646
0.00959259
0.00888432
0.00837558
0.00819376
0.00838334
0.00887482
0.00950983
0.0101077
0.0105183
0.010641
0.0104266
0.00983413
0.0087884
0.00712824
0.00436418
0.00061477
0.0116207
0.01094
0.0101381
0.0092686
0.00842457
0.00774186
0.00736694
0.00737938
0.00774703
0.00833031
0.00894426
0.00942311
0.00964858
0.00954733
0.00906873
0.00812998
0.00660645
0.00405552
0.000597671
0.0115723
0.0108734
0.0100338
0.00909754
0.0081462
0.00730647
0.0067311
0.00653154
0.00672179
0.00719754
0.00778124
0.00829359
0.00859691
0.00859844
0.00822757
0.00739939
0.00601404
0.00370866
0.000574608
0.011585
0.0108917
0.0100445
0.00907655
0.0080549
0.00708994
0.00632689
0.00589935
0.00586793
0.00617802
0.00667701
0.00718038
0.00753036
0.00761322
0.00734455
0.00664752
0.00540911
0.00336628
0.000544892
0.011644
0.0109777
0.0101504
0.00918504
0.00813248
0.00708275
0.00616296
0.0055149
0.00523697
0.00533034
0.00568609
0.00613018
0.00648954
0.00662793
0.00644718
0.00587599
0.00478281
0.00298147
0.000515549
0.0117319
0.0111092
0.0103244
0.00939102
0.00834445
0.00725264
0.00621954
0.0053804
0.00485606
0.00469871
0.0048557
0.0051842
0.00550829
0.00567087
0.00555245
0.0050752
0.00410006
0.00257413
0.000487619
0.0118308
0.011263
0.0105368
0.00965819
0.00864967
0.00755487
0.00645773
0.00547393
0.00472875
0.00431135
0.00422674
0.00438169
0.00461813
0.00476716
0.00468359
0.00425988
0.00336035
0.00214224
0.000460333
0.0119252
0.0114182
0.0107598
0.00995025
0.00900132
0.00794006
0.00682777
0.00575556
0.00483723
0.00417932
0.00383419
0.00376595
0.00385597
0.00394419
0.00387032
0.00349073
0.00266522
0.00172413
0.000432307
0.0120027
0.0115578
0.0109709
0.0102382
0.00936259
0.0083615
0.00727606
0.00617243
0.00514295
0.00429178
0.00369979
0.00338307
0.00327491
0.00324467
0.00314178
0.00281941
0.00212789
0.00132671
0.000409091
0.0120546
0.0116699
0.0111532
0.0104986
0.00970336
0.00877906
0.00775146
0.00666548
0.00558935
0.00461092
0.00381814
0.00326362
0.00293255
0.00273833
0.00255202
0.00224082
0.00166233
0.000893635
0.000368036
0.0120761
0.0117477
0.0112966
0.0107161
0.0100023
0.00916194
0.00821073
0.00717791
0.00611047
0.00507458
0.00414835
0.00340005
0.00285648
0.00248137
0.00218374
0.00185548
0.00136887
0.00075684
0.000316415
0.0120653
0.0117889
0.0113977
0.0108844
0.0102473
0.00949003
0.00862226
0.00766289
0.00664305
0.00560887
0.00462055
0.00374305
0.00302522
0.00247474
0.00204796
0.00167139
0.0012426
0.00074122
0.000279803
0.0120227
0.0117943
0.0114563
0.011003
0.0104346
0.00975383
0.00896758
0.00808847
0.0071372
0.00614477
0.00515369
0.00421539
0.00338055
0.00268158
0.00211581
0.00164703
0.00120617
0.000738949
0.000255637
0.0119499
0.0117681
0.0114777
0.0110768
0.0105674
0.00995339
0.0092408
0.00843889
0.00756199
0.00663117
0.00567548
0.0047318
0.00384146
0.0030416
0.00235249
0.0017693
0.00125841
0.000759352
0.000237206
0.0118485
0.0117156
0.01147
0.0111143
0.0106544
0.0100964
0.0094466
0.00871286
0.00790582
0.00704037
0.00613671
0.00522057
0.00432215
0.00347259
0.00269717
0.0020076
0.00139442
0.000815084
0.000223286
0.0117199
0.0116429
0.0114422
0.0111268
0.010708
0.0101955
0.00959695
0.00891977
0.00817247
0.00736617
0.00651542
0.00563844
0.00475668
0.00389306
0.00306864
0.00229751
0.00157942
0.000885194
0.000214169
0.0115675
0.0115585
0.0114046
0.0111257
0.0107411
0.0102648
0.00970657
0.00907398
0.00837432
0.00761629
0.00681073
0.00597091
0.00511199
0.00424997
0.00339954
0.00257052
0.00176208
0.000953473
0.000208459
0.0114042
0.0114754
0.0113676
0.0111206
0.0107632
0.0103145
0.00978631
0.00918666
0.00852224
0.00780017
0.00702885
0.00621811
0.00537873
0.00452146
0.00365529
0.00278481
0.00190613
0.00100681
0.000204727
0.0112685
0.0114145
0.0113419
0.0111166
0.0107767
0.010345
0.00983502
0.00925519
0.00861202
0.00791184
0.00716168
0.00636939
0.00554307
0.00469005
0.00381526
0.00291906
0.00199478
0.001037
0.000201774
)
;

boundaryField
{
    leftWall
    {
        type            nutkWallFunction;
        Cmu             0.09;
        kappa           0.41;
        E               9.8;
        value           nonuniform List<scalar> 
50
(
3.70717e-06
9.94892e-06
1.14772e-05
1.24773e-05
1.32189e-05
1.45995e-05
1.75226e-05
1.81429e-05
1.86001e-05
1.89865e-05
1.91198e-05
1.92415e-05
1.9596e-05
2.12672e-05
1.8426e-05
1.99213e-05
2.08938e-05
2.14255e-05
2.1758e-05
2.20432e-05
2.2323e-05
2.25871e-05
2.28219e-05
2.30223e-05
2.31858e-05
2.32985e-05
2.3362e-05
2.33811e-05
2.33602e-05
2.33042e-05
2.32183e-05
2.31092e-05
2.29848e-05
2.28549e-05
2.27312e-05
2.26274e-05
2.25589e-05
2.25436e-05
2.26014e-05
2.27555e-05
2.3033e-05
2.34679e-05
2.41043e-05
2.50038e-05
2.62579e-05
2.80094e-05
3.04912e-05
3.41232e-05
3.98246e-05
5.0028e-05
)
;
    }
    rightWall
    {
        type            nutkWallFunction;
        Cmu             0.09;
        kappa           0.41;
        E               9.8;
        value           nonuniform List<scalar> 
50
(
1.147e-05
3.84221e-05
4.60532e-05
5.10219e-05
5.47787e-05
5.78294e-05
6.04157e-05
6.26744e-05
6.60417e-05
6.86121e-05
7.05603e-05
7.19565e-05
7.27797e-05
7.29818e-05
7.25329e-05
7.14633e-05
7.01505e-05
6.88357e-05
6.74917e-05
6.61519e-05
6.48957e-05
6.38244e-05
6.3029e-05
6.25637e-05
6.24364e-05
6.26175e-05
6.30611e-05
6.37108e-05
6.44805e-05
6.48177e-05
6.47825e-05
6.40259e-05
6.21702e-05
5.96437e-05
5.69185e-05
5.42681e-05
5.16967e-05
4.91209e-05
4.64996e-05
4.91792e-05
4.22211e-05
3.52648e-05
3.05903e-05
2.72973e-05
2.48226e-05
2.30274e-05
2.18686e-05
2.11317e-05
2.06484e-05
2.02592e-05
)
;
    }
    lowerWall
    {
        type            nutkWallFunction;
        Cmu             0.09;
        kappa           0.41;
        E               9.8;
        value           nonuniform List<scalar> 
62
(
3.70717e-06
5.60165e-06
6.80215e-06
7.56808e-06
8.15914e-06
8.63782e-06
9.03558e-06
9.36818e-06
9.64356e-06
9.86587e-06
1.00376e-05
1.01609e-05
1.02381e-05
1.02725e-05
1.02688e-05
1.02521e-05
1.02153e-05
1.01294e-05
9.95389e-06
9.63296e-06
9.08818e-06
8.13668e-06
6.12493e-06
6.12493e-06
1.74212e-05
2.00505e-05
2.19033e-05
2.33235e-05
2.453e-05
2.57783e-05
2.79117e-05
3.26326e-05
3.09966e-05
3.1027e-05
3.30215e-05
1.14453e-05
3.2419e-05
3.46465e-05
3.53553e-05
3.57522e-05
3.60296e-05
3.80358e-05
3.87956e-05
1.14453e-05
1.42119e-05
1.70209e-05
1.97096e-05
2.41376e-05
2.83959e-05
3.12628e-05
3.16162e-05
3.04064e-05
2.83299e-05
2.63571e-05
2.4607e-05
2.32739e-05
2.23726e-05
2.16642e-05
2.07579e-05
1.92177e-05
1.6147e-05
1.147e-05
)
;
    }
    atmosphere
    {
        type            calculated;
        value           nonuniform List<scalar> 
46
(
0.009
0.009
0.009
0.009
0.009
0.009
0.009
0.009
0.009
0.009
0.009
0.009
0.009
0.009
0.009
0.009
0.009
0.009
0.009
0.009
0.009
0.009
0.009
0.009
0.009
0.0105925
0.0109144
0.0112685
0.0114145
0.0113419
0.0111166
0.0107767
0.010345
0.00983502
0.00925519
0.00861202
0.00791184
0.00716168
0.00636939
0.00554307
0.00469005
0.00381526
0.00291906
0.00199478
0.001037
0.000201774
)
;
    }
    defaultFaces
    {
        type            empty;
    }
}


// ************************************************************************* //
