/*--------------------------------*- C++ -*----------------------------------*\
  =========                 |
  \\      /  F ield         | OpenFOAM: The Open Source CFD Toolbox
   \\    /   O peration     | Website:  https://openfoam.org
    \\  /    A nd           | Version:  13
     \\/     M anipulation  |
\*---------------------------------------------------------------------------*/
FoamFile
{
    format      ascii;
    class       volScalarField;
    location    "0.45";
    object      p;
}
// * * * * * * * * * * * * * * * * * * * * * * * * * * * * * * * * * * * * * //

dimensions      [1 -1 -2 0 0 0 0];

internalField   nonuniform List<scalar> 
2268
(
4756.61
4788.49
4842.66
4894.98
4937.2
4973.6
5009.46
5048.87
5095.33
5152.76
5226.2
5322.01
5448.02
5612.38
5822.06
6080.51
6390.95
6750.98
7155.35
7586.89
8011.33
8357.87
8587.9
3956.27
3975.07
4013.06
4054.53
4090.59
4124.02
4158.75
4198.23
4245.89
4305.79
4383.14
4484.47
4617.75
4791.1
5011.1
5284.42
5608.93
5984.82
6406.19
6853.3
7288.64
7631.68
7845.7
3155.98
3174.3
3193.81
3219.64
3245.22
3272.17
3303.2
3341.04
3388.93
3450.96
3532.63
3640.43
3782.65
3967.57
4202.4
4489.7
4830.9
5223.26
5659.68
6116.45
6552.84
6886.84
7114.04
2347.54
2375.09
2378.41
2389.13
2403.28
2422.34
2448.26
2483.23
2530.25
2593.5
2678.57
2792.29
2943.31
3140.18
3389.56
3692.9
4049.52
4454.57
4902.51
5366.65
5803.99
6137.53
6397.14
1534.97
1574.68
1570.45
1572.92
1580.14
1593.95
1615.75
1647.27
1691.28
1751.78
1834.4
1947.04
2099.9
2303.55
2567.06
2889.18
3263.26
3679.08
4135.43
4608.36
5053.22
5398.53
5692.9
954.926
981.295
980.07
984.255
990.832
1001.23
1016.19
1036.61
1064
1100.77
1152.63
1228.51
1337
1493.71
1719.86
2039.7
2446.83
2891.34
3361.87
3847.82
4308.57
4677.53
4999.32
745.292
755.32
759.307
767.162
775.689
785.487
796.953
810.317
825.943
844.308
867.81
901.244
947.657
1015.34
1122.07
1305.33
1606.76
2042.99
2569.55
3082.4
3569.38
3971.91
4313.73
684.988
694.053
701.39
710.943
721.533
733.273
746.275
760.602
776.356
793.631
812.288
833.056
858.126
888.803
929.478
986.311
1084.1
1305
1733.66
2297.38
2826.26
3248.21
3595.86
2657.49
2657.33
2663.52
2644.04
2624.58
2607.41
2590.89
2407.86
2028.95
1657.34
1430.33
1324.36
1287.11
1274.17
1274.86
1287.31
1307.53
1322.84
1332.36
2628.29
2627.24
2633.57
2610.46
2588.61
2572.88
2552.11
2362.94
1991.1
1600.74
1388.57
1294.71
1263.55
1251.81
1253.05
1265.89
1286.09
1299.76
1306.71
2597.26
2599.15
2610.22
2591.94
2583.89
2577.53
2551.29
2318.34
1896.12
1556.07
1333.55
1250.89
1231.75
1223.38
1226.07
1239.4
1259.03
1272.08
1283.59
2565.85
2571.99
2595.83
2588.96
2585.4
2586.03
2475.81
2048.61
1747.76
1499.94
1260.71
1179.33
1184.32
1183.73
1190.08
1205.1
1225.04
1239.9
1260.45
2534.36
2545.36
2580.42
2585.26
2585.11
2551.57
2092.2
1573.58
1323.47
1359.49
1183.84
1079.21
1120.74
1133.19
1145.74
1163.96
1185.6
1203.93
1234.64
2503.02
2519.14
2552.94
2565.61
2562.21
2208.96
1555.49
1163.98
939.241
1007.89
1028.41
999.238
1049.86
1075.23
1095.41
1117.8
1142.11
1164.6
1204.05
2459.39
2475.72
2487.3
2470.51
2168.71
1576.28
1104.96
881.898
726.084
675.347
819.117
927.525
977.813
1013.63
1041.29
1068.06
1095.43
1122.31
1168.39
2257.58
2304.35
2203.22
2023.71
1534.44
1020.87
730.932
632.054
549.933
538.072
702.822
850.31
908.146
951.274
985.093
1016.05
1046.57
1078.2
1128.86
587.381
594.086
601.565
610.825
621.42
633.266
646.367
660.749
676.498
693.655
712.536
733.499
757.035
782.986
811.298
843.161
881.668
929.074
1037.3
1298.25
1670.47
2038.07
2131.54
453.334
458.944
465.953
474.845
485.212
496.933
509.95
524.242
539.827
556.81
575.379
595.941
618.735
643.846
670.639
697.454
720.37
735.373
728.295
701.289
742.925
881.128
992.23
316.382
322.13
328.882
337.83
348.377
360.346
373.632
388.152
403.841
420.704
438.872
458.573
479.969
502.988
527.218
550.755
569.404
578.121
572.87
550.744
480.781
395.817
337.394
175.204
182.09
188.859
198.19
209.15
221.532
235.26
250.256
266.359
283.39
301.406
320.483
340.575
361.581
383.111
403.837
420.944
429.679
425.265
407.239
372.189
311.973
242.14
51.6089
57.591
62.6233
69.869
78.4638
88.5767
100.46
114.346
130.041
146.702
163.841
181.829
200.077
218.633
237.762
256.682
274.362
286.276
286.875
274.105
248.435
214.363
179.829
5.87833
7.1921
8.50229
10.5958
13.3047
16.7984
21.2679
26.9327
33.8614
41.4953
50.9907
61.5418
72.649
84.3317
96.9122
112.051
129.354
144.831
151.553
146.052
129.933
108.426
86.7642
4.91337
4.93111
4.86743
4.83697
4.80286
4.7789
4.7605
4.73132
4.70484
4.69233
6.69712
9.62611
13.0445
16.3564
18.2015
18.355
20.7028
28.7786
33.999
31.3223
25.6395
19.3212
14.6959
4.75157
4.75213
4.74533
4.74127
4.7358
4.72772
4.7174
4.70453
4.69344
4.70533
4.65718
4.52705
4.43085
4.3329
4.11432
3.74535
2.56391
3.24075
1.71542
-3.55593
-7.42893
-11.3486
-13.5476
4.59092
4.59293
4.5891
4.58188
4.57383
4.56536
4.55648
4.54973
4.54457
4.55125
4.54959
4.53664
4.52742
4.51839
4.4999
4.46204
4.19987
3.71724
3.53125
3.08699
1.81224
2.67138
2.97256
4.43597
4.43706
4.43454
4.42832
4.42079
4.41318
4.40562
4.39873
4.39625
4.38906
4.38198
4.36295
4.3422
4.32044
4.29959
4.3005
4.34289
4.28468
4.21473
4.07399
3.74881
3.38181
3.42919
4.28426
4.28476
4.28359
4.27963
4.27409
4.26799
4.26151
4.25461
4.24788
4.241
4.22655
4.20696
4.18556
4.16126
4.1356
4.11135
4.09295
4.04453
3.9934
3.96738
4.00454
3.99118
3.99167
4.13508
4.13527
4.13486
4.13247
4.12854
4.12373
4.11825
4.11203
4.10487
4.09572
4.08256
4.06579
4.04655
4.02413
3.99846
3.9707
3.93707
3.89046
3.8457
3.81942
3.80875
3.79366
3.75311
3.98807
3.98796
3.98769
3.98604
3.98305
3.97908
3.97431
3.96869
3.96191
3.95318
3.94123
3.92622
3.90867
3.88845
3.8655
3.83971
3.80967
3.77364
3.73701
3.70508
3.68177
3.65213
3.62635
3.84297
3.84256
3.84215
3.84076
3.83823
3.83473
3.83034
3.82499
3.81842
3.80999
3.79898
3.78536
3.76942
3.75126
3.73094
3.70839
3.68293
3.65424
3.6247
3.59696
3.57193
3.54758
3.52857
3.69957
3.69878
3.69813
3.69673
3.69438
3.69109
3.68687
3.68162
3.67512
3.66696
3.65669
3.64426
3.62981
3.61345
3.59527
3.57523
3.55313
3.52915
3.50468
3.4813
3.45963
3.4391
3.42254
3.55769
3.55634
3.55547
3.55392
3.55157
3.54833
3.54416
3.53896
3.53254
3.52464
3.515
3.50356
3.49038
3.47556
3.45915
3.44119
3.42167
3.40093
3.37982
3.3593
3.33986
3.32178
3.30678
3.41686
3.41529
3.41407
3.41227
3.4098
3.40653
3.40236
3.3972
3.39089
3.38327
3.37417
3.36355
3.35144
3.33791
3.32299
3.30675
3.28929
3.27089
3.25211
3.23359
3.21578
3.19927
3.18523
3.27713
3.27536
3.27371
3.27166
3.26903
3.26569
3.26152
3.25641
3.25025
3.24292
3.23431
3.2244
3.21321
3.20075
3.1871
3.1723
3.15648
3.13987
3.12285
3.10588
3.08937
3.07396
3.06044
3.13836
3.13636
3.13436
3.13204
3.12925
3.12583
3.12165
3.11663
3.11064
3.10362
3.09548
3.08621
3.07581
3.06431
3.05174
3.03818
3.02373
3.00856
2.99296
2.97728
2.96188
2.94733
2.93422
3.00043
2.99822
2.99591
2.99333
2.99039
2.98691
2.98276
2.97784
2.97206
2.96536
2.95769
2.94901
2.93934
2.92869
2.91711
2.90463
2.89136
2.87743
2.86306
2.84853
2.83414
2.82039
2.80778
2.86324
2.86084
2.85827
2.85548
2.85241
2.84889
2.84479
2.84001
2.83448
2.82813
2.82091
2.81282
2.80384
2.79399
2.7833
2.77182
2.75963
2.74683
2.73359
2.72015
2.70673
2.69379
2.68183
2.72669
2.72415
2.72135
2.7184
2.71525
2.71172
2.70771
2.7031
2.69784
2.69186
2.68512
2.6776
2.66929
2.66021
2.65039
2.63985
2.62867
2.61694
2.60479
2.59241
2.57999
2.56791
2.55672
2.5907
2.58805
2.58509
2.58202
2.57883
2.57534
2.57144
2.56705
2.56209
2.5565
2.55025
2.54331
2.53567
2.52735
2.51836
2.50874
2.49854
2.48784
2.47674
2.46541
2.45399
2.44282
2.43247
2.45519
2.45247
2.44941
2.44628
2.44308
2.43967
2.43593
2.43178
2.42714
2.42196
2.41622
2.40987
2.40291
2.39534
2.38718
2.37845
2.3692
2.3595
2.34943
2.33913
2.3287
2.31845
2.30901
2.32009
2.31734
2.31423
2.31108
2.30794
2.30464
2.30109
2.2972
2.29291
2.28817
2.28294
2.27719
2.2709
2.26408
2.25674
2.24889
2.24057
2.23183
2.22277
2.21347
2.20402
2.19468
2.18615
2.18532
2.18259
2.17948
2.17637
2.17331
2.17016
2.16683
2.16323
2.15932
2.15503
2.15032
2.14517
2.13956
2.13348
2.12693
2.11994
2.11252
2.10473
2.09663
2.08831
2.0798
2.07136
2.06372
2.05082
2.04814
2.04509
2.04206
2.03913
2.03616
2.03307
2.02979
2.02626
2.02243
2.01826
2.01371
2.00876
2.00341
1.99765
1.99149
1.98495
1.97806
1.97089
1.96349
1.9559
1.94834
1.94154
1.91654
1.91395
1.911
1.90809
1.90532
1.90255
1.89973
1.89678
1.89365
1.89028
1.88664
1.88269
1.8784
1.87376
1.86876
1.8634
1.85771
1.85169
1.84541
1.8389
1.83218
1.82546
1.81946
1.78244
1.77996
1.77715
1.7744
1.77181
1.76927
1.76673
1.76412
1.7614
1.7585
1.75539
1.75202
1.74837
1.74441
1.74015
1.73557
1.73068
1.7255
1.72006
1.7144
1.70851
1.70259
1.69734
1.64848
1.64613
1.64349
1.64092
1.63853
1.63625
1.634
1.63175
1.62943
1.62699
1.62439
1.62159
1.61856
1.61527
1.61171
1.60787
1.60375
1.59937
1.59473
1.58988
1.58478
1.57963
1.57508
1.51462
1.51242
1.50997
1.50761
1.50544
1.50341
1.50147
1.49957
1.49766
1.49567
1.49358
1.49132
1.48888
1.48623
1.48334
1.48021
1.47683
1.47319
1.46933
1.46524
1.46091
1.45649
1.4526
1.38085
1.37879
1.37656
1.3744
1.37247
1.37071
1.36908
1.36754
1.36602
1.36448
1.36286
1.36113
1.35926
1.35721
1.35496
1.3525
1.34981
1.34689
1.34376
1.34041
1.33681
1.3331
1.32984
1.24715
1.24522
1.24321
1.24127
1.23958
1.23809
1.23678
1.23558
1.23445
1.23333
1.23217
1.23093
1.22959
1.22811
1.22647
1.22464
1.22262
1.22039
1.21795
1.2153
1.2124
1.20938
1.20672
1.11351
1.11168
1.10989
1.10817
1.10671
1.10551
1.1045
1.10364
1.10288
1.10215
1.10142
1.10065
1.09981
1.09886
1.09779
1.09657
1.09517
1.09359
1.09182
1.08984
1.08763
1.08527
1.08319
0.97993
0.978121
0.976566
0.975051
0.973839
0.972906
0.972199
0.971662
0.97124
0.970884
0.970553
0.970214
0.969836
0.969392
0.968854
0.968197
0.967398
0.966438
0.965303
0.96398
0.962431
0.960727
0.959229
0.846438
0.844503
0.843196
0.841884
0.840913
0.840248
0.839826
0.839587
0.839479
0.839458
0.839489
0.839544
0.839595
0.839616
0.839579
0.839457
0.839224
0.838858
0.83834
0.837655
0.836763
0.835724
0.834835
0.71313
0.710739
0.709719
0.708614
0.707887
0.707484
0.707327
0.707356
0.707525
0.707802
0.708158
0.708569
0.709012
0.709462
0.709891
0.710272
0.710575
0.710777
0.710857
0.710799
0.710574
0.710228
0.710011
0.580063
0.576714
0.576071
0.575186
0.57471
0.574559
0.57464
0.5749
0.575308
0.575844
0.576486
0.577217
0.578016
0.578858
0.579717
0.580563
0.581369
0.58211
0.582767
0.583333
0.583794
0.584206
0.5848
0.446913
0.442335
0.442251
0.441602
0.441366
0.44144
0.441721
0.44217
0.442777
0.443533
0.444425
0.445438
0.446552
0.447746
0.44899
0.450258
0.45152
0.452756
0.453952
0.455116
0.456266
0.457494
0.459126
0.313065
0.306945
0.308035
0.307918
0.307928
0.308173
0.308603
0.309199
0.309964
0.310901
0.312
0.31325
0.314631
0.316119
0.317687
0.319304
0.320944
0.322584
0.32422
0.325875
0.327606
0.329597
0.332528
0.18053
0.166504
0.171707
0.173662
0.174184
0.174606
0.17517
0.175894
0.176796
0.177885
0.179158
0.180602
0.182197
0.183918
0.185733
0.187612
0.189521
0.191437
0.193355
0.195318
0.197449
0.200156
0.205003
0.0606375
0.0137542
0.0309863
0.0366285
0.0381311
0.0389949
0.0398247
0.0407548
0.0418528
0.0431455
0.0446356
0.0463127
0.0481569
0.0501417
0.0522348
0.0544005
0.0566043
0.0588238
0.0610775
0.0634927
0.0664389
0.0709646
0.081367
1584.25
1598.79
1718.14
1706.38
889.193
823.99
741.527
638.895
281.011
264.05
293.854
291.812
196.122
172.747
157.612
155.3
151.47
135.841
127.696
121.834
66.6921
55.3849
50.2711
49.4808
9.98182
8.28694
10.7195
13.9373
-19.9557
-21.331
-16.6364
-8.39838
1.06392
0.193808
2.77903
8.65778
3.19441
3.09869
3.18748
3.44403
4.0092
4.00666
3.99524
3.97633
3.70242
3.68428
3.68834
3.71245
3.61392
3.61138
3.61418
3.62303
3.52329
3.52235
3.52307
3.52657
3.41759
3.41661
3.41631
3.41759
3.30162
3.30018
3.29907
3.29917
3.17955
3.1775
3.17574
3.17499
3.0542
3.05158
3.04926
3.04783
2.9275
2.92441
2.92165
2.9196
2.80088
2.79749
2.79441
2.79186
2.67508
2.67163
2.6684
2.66551
2.55029
2.54692
2.54371
2.54065
2.4265
2.42332
2.42023
2.41711
2.30359
2.30066
2.29776
2.29467
2.18131
2.17867
2.17598
2.173
2.05944
2.05708
2.05465
2.05181
1.93779
1.93572
1.93352
1.93087
1.81622
1.81441
1.81245
1.80999
1.69456
1.693
1.69127
1.68903
1.57271
1.57139
1.56989
1.56788
1.45062
1.44952
1.44823
1.44645
1.32824
1.32735
1.32626
1.32469
1.20547
1.20478
1.20388
1.20252
1.08228
1.08177
1.08105
1.07989
0.958649
0.958326
0.957771
0.956799
0.834611
0.834476
0.834092
0.833284
0.710211
0.710297
0.710088
0.709436
0.585612
0.58601
0.586019
0.585472
0.46105
0.462009
0.46229
0.461705
0.33659
0.338901
0.339682
0.338654
0.212973
0.220299
0.222981
0.219315
0.104865
0.126737
0.130423
0.117585
1357.26
1380.43
1198.44
995.799
776.135
573.475
477.245
458.578
458.393
500.05
621.415
737.589
805.208
855.091
896.659
933.958
969.864
1009.85
1064.44
466.962
508.086
488.47
448.855
421.791
366.538
364.182
377.064
403.065
456.039
540.728
621.115
682.586
734.006
779.942
822.052
862.986
908.961
968.467
208.515
175.876
195.357
241.794
270.492
299.777
309.311
325.869
354.135
397.646
456.396
515.337
568.05
616.962
663.192
706.862
749.908
797.854
858.758
161.398
184.719
199.366
209.409
220.069
232.836
251.705
271.954
294.362
325.296
366.427
411.692
457.53
503.662
549.406
593.49
636.865
683.794
742.256
115.552
116.863
125.928
138.929
153.53
174.652
198.226
214.932
227.509
245.212
272.822
308.785
350.006
394.315
440.259
484.881
527.796
571.745
625.176
53.8499
62.704
75.2693
91.5714
110.034
129.518
143.732
144.672
142.564
149.671
169.74
204.062
245.638
290.539
338.152
384.06
426.237
465.785
512.158
20.4759
31.5699
44.6007
58.5943
67.6631
65.6236
57.252
47.9741
44.8751
48.4708
62.6331
94.4721
140.859
192.696
246.567
295.031
336.365
370.368
407.989
7.0097
16.7651
21.7757
25.105
21.4902
11.1989
6.47491
6.386
6.19698
6.91713
10.3018
21.359
48.4716
97.4265
166.588
221.356
261.997
289.735
317.531
10.3267
6.1939
3.86843
4.38731
4.86083
4.9218
4.70631
4.72248
4.86507
5.06492
5.25899
5.51803
8.21792
28.4925
95.0961
163.401
204.482
226.377
243.73
3.82289
4.06564
4.071
4.07472
4.18959
4.31271
4.55099
4.72476
4.79446
4.79629
4.79928
4.91626
5.29059
7.32712
43.3873
121.472
162.558
178.935
187.131
3.93777
3.94347
3.99082
4.02779
4.12669
4.23846
4.41417
4.5457
4.64454
4.71238
4.76705
4.8166
4.84662
5.72438
23.6184
93.0639
132.559
144.57
145.377
3.76137
3.80859
3.84968
3.92588
3.99149
4.09046
4.20357
4.31582
4.42926
4.54233
4.63798
4.6938
4.71688
5.404
15.3422
71.5924
109.525
119.244
114.67
3.64427
3.67804
3.72398
3.7666
3.82836
3.90876
4.00101
4.09996
4.20972
4.3292
4.4348
4.4916
4.52247
4.94212
9.68378
51.4445
89.7044
98.9455
91.1201
3.53559
3.55598
3.58683
3.62387
3.67205
3.73438
3.80868
3.89333
3.99059
4.09909
4.19819
4.24671
4.24225
4.25849
6.0834
32.4751
70.6002
80.773
71.6963
3.42155
3.43394
3.45527
3.48216
3.51757
3.5636
3.62079
3.68942
3.7706
3.86199
3.94731
3.98016
3.94132
3.82641
4.80109
17.5894
51.5962
63.9345
54.8014
3.30022
3.30636
3.31934
3.33728
3.36178
3.39438
3.43631
3.48906
3.55296
3.62507
3.69299
3.71323
3.66131
3.50239
3.69802
7.89283
32.3482
48.434
40.1732
3.1739
3.1749
3.18089
3.19104
3.20627
3.22765
3.25659
3.29474
3.34201
3.39527
3.44531
3.4654
3.41876
3.296
3.19079
4.20498
17.2357
33.7144
28.0831
3.04506
3.04197
3.04227
3.04581
3.05318
3.0652
3.0832
3.10854
3.14077
3.17694
3.21053
3.22714
3.19853
3.1182
2.97905
3.78283
7.6732
22.1011
18.8772
2.91549
2.90936
2.90539
2.9036
2.90443
2.90854
2.91714
2.93126
2.9504
2.97176
2.99035
2.99867
2.98063
2.91984
2.80658
2.99474
4.7298
15.7746
12.7127
2.78673
2.77853
2.7715
2.76564
2.76113
2.75854
2.75894
2.76316
2.77094
2.7799
2.78545
2.78372
2.76465
2.71427
2.6132
2.41654
3.52287
12.6412
9.47575
2.6597
2.65023
2.64101
2.63206
2.62336
2.61531
2.60885
2.60468
2.60272
2.60123
2.59707
2.58588
2.56179
2.50184
2.39027
2.16676
2.1776
3.04001
6.59693
2.53445
2.52428
2.51369
2.50262
2.49087
2.47865
2.46677
2.45588
2.44609
2.43649
2.42506
2.40699
2.37997
2.32876
2.22391
2.0682
2.0244
2.18079
6.18277
2.41079
2.40038
2.38911
2.37679
2.36307
2.34796
2.33211
2.31615
2.30041
2.28454
2.26708
2.24482
2.2149
2.17288
2.10404
2.00943
1.97326
2.15289
6.30322
2.28839
2.27812
2.2667
2.25386
2.23916
2.22236
2.20393
2.18448
2.16441
2.14372
2.12149
2.09563
2.06228
2.0218
1.97544
1.92999
1.90655
1.97874
2.58608
2.16691
2.15703
2.14585
2.13308
2.1182
2.10078
2.0811
2.05965
2.03681
2.01274
1.98694
1.95791
1.92272
1.88159
1.84839
1.82445
1.82185
1.80757
2.54574
2.04601
2.03669
2.02602
2.01373
1.99932
1.98219
1.96244
1.94041
1.91632
1.89039
1.86239
1.83148
1.79615
1.75679
1.72465
1.73661
1.7389
1.64599
5.35566
1.92543
1.91675
1.90676
1.89524
1.88172
1.86562
1.84683
1.82547
1.80164
1.77549
1.74703
1.71599
1.68224
1.64738
1.62056
1.63578
1.6951
1.59187
6.39944
1.80494
1.79696
1.78775
1.77714
1.76478
1.75019
1.73314
1.71351
1.69129
1.66657
1.63954
1.61061
1.58061
1.55228
1.53301
1.54719
1.6707
1.29853
7.26401
1.68441
1.67713
1.66872
1.65908
1.648
1.63517
1.62027
1.60308
1.58349
1.56156
1.53771
1.51295
1.48847
1.46659
1.45068
1.4607
1.52113
0.37504
10.6937
1.56368
1.5571
1.54948
1.5408
1.53103
1.51995
1.50726
1.49277
1.47632
1.45797
1.43826
1.41851
1.40038
1.38311
1.36753
1.35418
1.29776
0.675377
17.5284
1.44269
1.43675
1.42988
1.42212
1.41358
1.40407
1.39339
1.38144
1.36809
1.35338
1.33771
1.32228
1.30888
1.29458
1.27022
1.23975
1.19716
1.47835
17.0873
1.32132
1.316
1.30981
1.3029
1.29544
1.28725
1.27824
1.26841
1.25771
1.24614
1.23381
1.22109
1.20875
1.19419
1.15767
1.08994
1.06977
0.662796
0.722231
1.19954
1.19476
1.18919
1.18307
1.1765
1.16935
1.16165
1.15343
1.14472
1.1355
1.12559
1.11451
1.10152
1.08432
1.04934
0.975882
0.926254
0.814379
0.883955
1.07727
1.07298
1.06798
1.06253
1.05667
1.05035
1.04362
1.03656
1.0292
1.02147
1.013
1.00276
0.989009
0.968854
0.934985
0.872119
0.815969
0.718138
0.754564
0.954504
0.95065
0.946166
0.941261
0.935954
0.930266
0.924263
0.918006
0.911504
0.904621
0.896845
0.886989
0.872976
0.851818
0.818783
0.766435
0.714022
0.642488
0.645847
0.831281
0.8278
0.823733
0.819233
0.814355
0.809158
0.803706
0.798035
0.792113
0.785741
0.778363
0.768857
0.75545
0.735866
0.707533
0.668475
0.634012
0.598885
0.601048
0.70767
0.704466
0.700686
0.696469
0.691918
0.687109
0.6821
0.676905
0.671458
0.665525
0.658579
0.649694
0.637605
0.620983
0.598899
0.571885
0.54978
0.527016
0.52738
0.58376
0.580686
0.577046
0.572991
0.568683
0.564201
0.559587
0.554839
0.549872
0.544458
0.538144
0.53023
0.519898
0.506488
0.489822
0.470637
0.453453
0.436959
0.432511
0.459654
0.456473
0.45279
0.448801
0.444688
0.440512
0.436294
0.432018
0.427598
0.422838
0.417389
0.410761
0.402461
0.39221
0.380102
0.366716
0.354164
0.342602
0.337213
0.336043
0.332608
0.328563
0.324394
0.320313
0.316336
0.312446
0.308608
0.304745
0.300713
0.296276
0.291127
0.285002
0.277819
0.269741
0.261162
0.253019
0.245606
0.240891
0.216023
0.211375
0.20608
0.201058
0.196499
0.192317
0.188418
0.184732
0.181196
0.177728
0.174209
0.170503
0.166513
0.162253
0.157856
0.153508
0.149493
0.145768
0.142549
0.0970905
0.0861216
0.0798824
0.0749971
0.0709087
0.0673613
0.0641752
0.0612491
0.0585289
0.0559879
0.0536142
0.0514089
0.0493993
0.0476516
0.0462511
0.0452515
0.0446283
0.044124
0.042956
)
;

boundaryField
{
    leftWall
    {
        type            calculated;
        value           nonuniform List<scalar> 
50
(
4756.61
3956.27
3155.98
2347.54
1534.97
954.926
745.292
684.988
587.381
453.334
316.382
175.204
51.6089
5.87833
4.91337
4.75157
4.59092
4.43597
4.28426
4.13508
3.98807
3.84297
3.69957
3.55769
3.41686
3.27713
3.13836
3.00043
2.86324
2.72669
2.5907
2.45519
2.32009
2.18532
2.05082
1.91654
1.78244
1.64848
1.51462
1.38085
1.24715
1.11351
0.97993
0.846438
0.71313
0.580063
0.446913
0.313065
0.18053
0.0606375
)
;
    }
    rightWall
    {
        type            calculated;
        value           nonuniform List<scalar> 
50
(
1332.36
1306.71
1283.59
1260.45
1234.64
1204.05
1168.39
1128.86
1064.44
968.467
858.758
742.256
625.176
512.158
407.989
317.531
243.73
187.131
145.377
114.67
91.1201
71.6963
54.8014
40.1732
28.0831
18.8772
12.7127
9.47575
6.59693
6.18277
6.30322
2.58608
2.54574
5.35566
6.39944
7.26401
10.6937
17.5284
17.0873
0.722231
0.883955
0.754564
0.645847
0.601048
0.52738
0.432511
0.337213
0.240891
0.142549
0.042956
)
;
    }
    lowerWall
    {
        type            calculated;
        value           nonuniform List<scalar> 
62
(
5154.76
5186.64
5240.81
5293.13
5335.35
5371.75
5407.61
5447.02
5493.48
5550.91
5624.35
5720.16
5846.17
6010.53
6220.21
6478.66
6789.1
7149.13
7553.5
7985.04
8409.48
8756.02
8985.83
8587.9
7845.7
7114.04
6397.14
5692.9
4999.32
4313.73
3595.86
2431.12
2445.67
2564.96
2523.81
2657.49
2628.29
2597.26
2565.85
2534.36
2503.02
2459.39
2257.58
2672.2
2672.05
2678.24
2658.75
2639.29
2622.08
2604.97
2422.11
2043.65
1672.05
1445.04
1339.07
1301.82
1288.88
1289.56
1301.99
1322.24
1336.59
1345.62
)
;
    }
    atmosphere
    {
        type            calculated;
        value           nonuniform List<scalar> 
46
(
-0.0135189
-0.0346269
-0.0327874
-0.0318028
-0.031011
-0.0302328
-0.0293588
-0.0283246
-0.0270951
-0.0256562
-0.0240086
-0.0221641
-0.0201433
-0.0179746
-0.0156934
-0.0133423
-0.0109707
-0.00863511
-0.00640034
-0.00434246
-0.00255657
-0.00116796
-0.00031843
-7.59353e-05
-4.55014e-05
0
0
0
0
0
0
0
0
0
0
0
0
0
0
0
0
0
0
0
0
0
)
;
    }
    defaultFaces
    {
        type            empty;
    }
}


// ************************************************************************* //
