/*--------------------------------*- C++ -*----------------------------------*\
  =========                 |
  \\      /  F ield         | OpenFOAM: The Open Source CFD Toolbox
   \\    /   O peration     | Website:  https://openfoam.org
    \\  /    A nd           | Version:  13
     \\/     M anipulation  |
\*---------------------------------------------------------------------------*/
FoamFile
{
    format      ascii;
    class       volScalarField;
    location    "0.45";
    object      p_rgh;
}
// * * * * * * * * * * * * * * * * * * * * * * * * * * * * * * * * * * * * * //

dimensions      [1 -1 -2 0 0 0 0];

internalField   nonuniform List<scalar> 
2268
(
5154.76
5186.64
5240.81
5293.13
5335.35
5371.75
5407.61
5447.02
5493.48
5550.91
5624.35
5720.16
5846.17
6010.53
6220.21
6478.66
6789.1
7149.13
7553.5
7985.04
8409.48
8756.02
8985.83
5150.72
5169.52
5207.51
5248.98
5285.04
5318.47
5353.2
5392.68
5440.34
5500.24
5577.59
5678.92
5812.2
5985.55
6205.55
6478.86
6803.37
7179.27
7600.64
8047.75
8483.09
8826.13
9039.45
5146.73
5165.05
5184.56
5210.39
5235.97
5262.92
5293.95
5331.79
5379.68
5441.7
5523.38
5631.18
5773.4
5958.32
6193.15
6480.45
6821.64
7214.01
7650.43
8107.2
8543.59
8877.59
9103.63
5134.59
5162.14
5165.45
5176.18
5190.33
5209.39
5235.31
5270.28
5317.3
5380.55
5465.62
5579.34
5730.36
5927.23
6176.61
6479.95
6836.57
7241.62
7689.56
8153.7
8591.04
8924.58
9183.54
5092.71
5144.32
5142.28
5146.07
5155.78
5172.18
5196.68
5229.94
5274.63
5335.13
5417.75
5530.39
5683.25
5886.89
6150.41
6472.53
6846.6
7262.43
7718.78
8191.71
8636.57
8981.88
9276.25
2957.9
3173.81
3213.19
3240.85
3293.89
3373.25
3475.84
3603.49
3763.05
3966.99
4215.38
4500.03
4873.33
5343.62
5921.06
6419.35
6826.48
7270.99
7741.52
8227.46
8688.22
9057.18
9378.97
1127.87
1137.9
1141.89
1149.74
1158.27
1168.07
1179.53
1192.9
1208.53
1226.89
1274.96
1413.63
1635.35
2012.13
2691.06
3983.15
5859.69
7218.94
7745.5
8258.35
8745.32
9147.85
9489.67
1126.43
1135.49
1142.83
1152.38
1162.97
1174.71
1187.72
1202.04
1217.8
1235.07
1253.73
1274.5
1299.57
1330.24
1370.92
1458.69
2060.82
4536.1
7631.91
8269.58
8798.49
9220.46
9568.11
2672.2
2672.05
2678.24
2658.75
2639.29
2622.08
2604.97
2422.11
2043.65
1672.05
1445.04
1339.07
1301.82
1288.88
1289.56
1301.99
1322.24
1336.59
1345.62
2672.43
2671.38
2677.71
2654.1
2624.11
2593.75
2563.31
2374.56
2011.54
1642.08
1432.72
1338.86
1307.7
1295.95
1297.19
1309.97
1330.23
1340.71
1345.11
2670.83
2672.65
2675.62
2624.94
2586.76
2577.68
2572.43
2349.69
1911.78
1567.38
1397.52
1324.47
1305.32
1296.95
1299.64
1312.97
1332.6
1341.86
1347.61
2668.85
2674.68
2650.63
2589.16
2585.61
2586.24
2724.35
2781.01
1928.39
1535.56
1302.85
1279.83
1287.32
1286.73
1293.08
1308.11
1328.05
1341.78
1350.07
2666.79
2677.78
2657.61
2587.56
2585.5
2778.87
3844.5
3555.2
3165.8
1641.28
1234.29
1185.53
1253.17
1265.63
1278.17
1296.4
1318.04
1336.36
1357.87
2664.88
2681
2701.17
2617.61
2597.21
4151.79
3977.66
3639.24
3397.31
2151.15
1219.86
1100.4
1211.72
1237.09
1257.27
1279.66
1303.97
1326.47
1365.89
2649.83
2665.06
2690.42
2791.21
4238.67
4756.69
4038.72
3804.36
2860.42
2059.58
1032.05
1074.73
1169.1
1204.92
1232.58
1259.36
1286.72
1313.6
1359.68
3885.96
3752.24
4264.56
4741.17
5281.5
4758.37
4079.78
2713.54
1179.09
776.641
948.463
1069.29
1128.08
1171.99
1205.81
1236.77
1267.29
1298.92
1349.58
1120.85
1127.55
1135.03
1144.29
1154.89
1166.73
1179.83
1194.22
1209.96
1227.12
1246
1266.97
1290.5
1316.45
1344.76
1376.63
1415.14
1482.14
2996.75
6570.81
8887.72
9255.35
9348.82
1112
1117.61
1124.61
1133.51
1143.87
1155.59
1168.61
1182.9
1198.49
1215.47
1234.04
1254.6
1277.4
1302.51
1329.3
1356.12
1379.03
1394.03
1386.96
1554.96
4437.19
8511.39
9813.47
1100.24
1105.99
1112.74
1121.69
1132.23
1144.2
1157.49
1172.01
1187.7
1204.56
1222.73
1242.43
1263.83
1286.84
1311.07
1334.61
1353.26
1361.98
1356.73
1334.6
1266.11
2045.75
3354.27
1084.25
1091.14
1097.91
1107.24
1118.2
1130.58
1144.31
1159.31
1175.41
1192.44
1210.46
1229.53
1249.63
1270.63
1292.16
1312.89
1329.99
1338.73
1334.32
1316.32
1281.26
1220.76
1150.98
776.169
822.581
880.323
941.043
999.794
1053.06
1098.97
1136.09
1162.94
1180.95
1198.09
1216.07
1234.32
1252.88
1272.01
1290.93
1308.61
1320.52
1321.12
1308.35
1282.67
1248.61
1214.08
21.6351
46.4336
78.3813
124.565
185.811
263.84
361.731
483.315
630.846
801.995
944.074
1070
1166.83
1228.02
1256
1271.49
1288.79
1304.27
1310.99
1305.49
1289.37
1267.86
1246.2
6.19801
6.21574
6.15207
6.1216
6.08749
6.06354
6.04513
6.01595
5.98947
5.97696
66.1109
164.737
304.492
493.264
738.297
1013.05
1221.02
1301.33
1314.57
1309.97
1288.86
1248.95
1196.44
6.1614
6.16196
6.15516
6.1511
6.14563
6.13755
6.12722
6.11436
6.10327
6.11516
6.067
5.93688
5.84069
5.74477
5.55306
5.21319
107.311
508.597
898.228
907.056
833.141
729.61
687.326
6.12595
6.12795
6.12412
6.1169
6.10886
6.10039
6.0915
6.08476
6.07959
6.08627
6.08462
6.07166
6.06244
6.05341
6.04008
6.10995
5.83505
5.31149
5.08209
4.6976
52.9561
293.8
348.778
6.09619
6.09728
6.09476
6.08854
6.08101
6.0734
6.06584
6.05895
6.05646
6.04928
6.04219
6.02317
6.00244
5.98067
5.95982
6.06745
6.16117
6.0991
5.90537
5.73451
5.41235
5.05391
5.11462
6.06967
6.07018
6.06901
6.06504
6.0595
6.0534
6.04692
6.04002
6.0333
6.02642
6.01196
5.99237
5.97105
5.94678
5.9211
5.89681
5.93908
5.87674
5.78301
5.7529
5.79003
5.77662
5.7771
6.04569
6.04587
6.04546
6.04307
6.03915
6.03433
6.02886
6.02263
6.01548
6.00633
5.99317
5.9764
5.95728
5.93494
5.90924
5.88134
5.84769
5.80107
5.75636
5.7301
5.71943
5.70431
5.66373
6.02387
6.02376
6.02349
6.02184
6.01885
6.01488
6.01011
6.00449
5.99771
5.98898
5.97703
5.96202
5.9445
5.92433
5.90136
5.87554
5.84549
5.80945
5.77282
5.74088
5.71758
5.68793
5.66215
6.00397
6.00355
6.00315
6.00175
5.99923
5.99573
5.99133
5.98599
5.97941
5.97099
5.95998
5.94636
5.93042
5.91226
5.89194
5.86939
5.84392
5.81523
5.7857
5.75796
5.73293
5.70858
5.68957
5.98576
5.98497
5.98432
5.98292
5.98057
5.97728
5.97306
5.96781
5.96131
5.95315
5.94288
5.93045
5.916
5.89964
5.88146
5.86142
5.83932
5.81534
5.79087
5.76749
5.74582
5.72529
5.70873
5.96908
5.96772
5.96685
5.96531
5.96295
5.95972
5.95555
5.95035
5.94393
5.93602
5.92638
5.91494
5.90177
5.88695
5.87054
5.85257
5.83306
5.81231
5.7912
5.77068
5.75124
5.73316
5.71816
5.95344
5.95187
5.95065
5.94884
5.94637
5.94311
5.93894
5.93378
5.92747
5.91984
5.91075
5.90013
5.88802
5.87449
5.85957
5.84333
5.82586
5.80747
5.78869
5.77017
5.75236
5.73585
5.72181
5.93891
5.93713
5.93549
5.93343
5.93081
5.92746
5.92329
5.91818
5.91202
5.90469
5.89609
5.88618
5.87498
5.86253
5.84887
5.83408
5.81826
5.80165
5.78463
5.76765
5.75115
5.73573
5.72222
5.92533
5.92333
5.92133
5.919
5.91622
5.91279
5.90862
5.90359
5.89761
5.89059
5.88245
5.87318
5.86278
5.85128
5.83871
5.82515
5.81069
5.79553
5.77993
5.76425
5.74885
5.7343
5.72118
5.91259
5.91038
5.90807
5.9055
5.90255
5.89907
5.89492
5.89
5.88423
5.87753
5.86985
5.86118
5.85151
5.84086
5.82927
5.81679
5.80352
5.78959
5.77522
5.76069
5.7463
5.73255
5.71994
5.90059
5.8982
5.89562
5.89284
5.88977
5.88625
5.88215
5.87737
5.87184
5.86549
5.85827
5.85018
5.84119
5.83135
5.82066
5.80918
5.79698
5.78419
5.77095
5.7575
5.74409
5.73115
5.71919
5.88924
5.8867
5.88391
5.88095
5.8778
5.87427
5.87026
5.86566
5.86039
5.85441
5.84767
5.84015
5.83185
5.82277
5.81294
5.8024
5.79122
5.77949
5.76734
5.75496
5.74254
5.73047
5.71927
5.87845
5.8758
5.87284
5.86977
5.86657
5.86309
5.85919
5.8548
5.84983
5.84424
5.83799
5.83105
5.82342
5.8151
5.80611
5.79649
5.78629
5.77558
5.76449
5.75316
5.74174
5.73056
5.72021
5.86814
5.86541
5.86235
5.85922
5.85602
5.85261
5.84887
5.84472
5.84008
5.83491
5.82916
5.82281
5.81585
5.80828
5.80012
5.79139
5.78214
5.77244
5.76237
5.75207
5.74164
5.73139
5.72195
5.85823
5.85548
5.85237
5.84922
5.84607
5.84277
5.83922
5.83533
5.83105
5.82631
5.82108
5.81533
5.80904
5.80222
5.79487
5.78702
5.7787
5.76997
5.7609
5.75161
5.74215
5.73282
5.72429
5.84865
5.84592
5.84281
5.8397
5.83664
5.83349
5.83016
5.82656
5.82265
5.81836
5.81365
5.8085
5.80289
5.79681
5.79026
5.78327
5.77585
5.76806
5.75996
5.75164
5.74313
5.73469
5.72705
5.83935
5.83667
5.83362
5.83059
5.82765
5.82468
5.82159
5.81831
5.81478
5.81095
5.80678
5.80223
5.79729
5.79194
5.78617
5.78001
5.77347
5.76659
5.75942
5.75202
5.74442
5.73686
5.73007
5.83026
5.82767
5.82472
5.82181
5.81904
5.81627
5.81345
5.8105
5.80737
5.804
5.80036
5.79641
5.79212
5.78748
5.78248
5.77712
5.77143
5.76541
5.75913
5.75262
5.7459
5.73918
5.73318
5.82136
5.81887
5.81607
5.81331
5.81072
5.80819
5.80564
5.80304
5.80031
5.79741
5.7943
5.79093
5.78728
5.78333
5.77906
5.77448
5.76959
5.76441
5.75897
5.75331
5.74742
5.74151
5.73626
5.81259
5.81024
5.8076
5.80503
5.80264
5.80036
5.79811
5.79585
5.79353
5.7911
5.7885
5.7857
5.78267
5.77938
5.77582
5.77198
5.76786
5.76347
5.75884
5.75399
5.74889
5.74374
5.73919
5.80392
5.80172
5.79928
5.79691
5.79474
5.79272
5.79078
5.78888
5.78696
5.78498
5.78288
5.78063
5.77819
5.77553
5.77265
5.76951
5.76613
5.7625
5.75863
5.75454
5.75021
5.7458
5.7419
5.79535
5.79329
5.79106
5.7889
5.78697
5.78521
5.78358
5.78204
5.78052
5.77897
5.77736
5.77563
5.77375
5.7717
5.76946
5.76699
5.76431
5.76139
5.75826
5.7549
5.75131
5.7476
5.74433
5.78684
5.78492
5.7829
5.78096
5.77927
5.77778
5.77647
5.77527
5.77414
5.77302
5.77186
5.77063
5.76928
5.7678
5.76616
5.76433
5.76231
5.76008
5.75764
5.75499
5.75209
5.74907
5.74641
5.7784
5.77656
5.77478
5.77305
5.7716
5.77039
5.76939
5.76853
5.76776
5.76704
5.76631
5.76554
5.7647
5.76375
5.76268
5.76145
5.76006
5.75848
5.7567
5.75473
5.75251
5.75016
5.74808
5.77001
5.7682
5.76665
5.76513
5.76392
5.76299
5.76228
5.76174
5.76132
5.76097
5.76063
5.7603
5.75992
5.75947
5.75894
5.75828
5.75748
5.75652
5.75538
5.75406
5.75251
5.75081
5.74931
5.76171
5.75978
5.75847
5.75716
5.75619
5.75552
5.7551
5.75486
5.75475
5.75473
5.75476
5.75482
5.75487
5.75489
5.75485
5.75473
5.7545
5.75413
5.75362
5.75293
5.75204
5.751
5.75011
5.7536
5.75121
5.75019
5.74908
5.74836
5.74795
5.7478
5.74783
5.748
5.74827
5.74863
5.74904
5.74948
5.74993
5.75036
5.75074
5.75105
5.75125
5.75133
5.75127
5.75104
5.7507
5.75048
5.74573
5.74238
5.74174
5.74085
5.74037
5.74022
5.7403
5.74056
5.74097
5.74151
5.74215
5.74288
5.74368
5.74452
5.74538
5.74623
5.74703
5.74777
5.74843
5.749
5.74946
5.74987
5.75047
5.73777
5.73319
5.73311
5.73246
5.73222
5.7323
5.73258
5.73303
5.73364
5.73439
5.73528
5.7363
5.73741
5.7386
5.73985
5.74112
5.74238
5.74361
5.74481
5.74597
5.74712
5.74835
5.74999
5.72912
5.723
5.72409
5.72397
5.72398
5.72423
5.72466
5.72525
5.72602
5.72695
5.72805
5.7293
5.73068
5.73217
5.73374
5.73536
5.737
5.73864
5.74027
5.74193
5.74366
5.74565
5.74858
5.72178
5.70775
5.71296
5.71491
5.71543
5.71585
5.71642
5.71714
5.71804
5.71913
5.72041
5.72185
5.72345
5.72517
5.72698
5.72886
5.73077
5.73269
5.7346
5.73657
5.7387
5.7414
5.74625
5.72708
5.6802
5.69743
5.70307
5.70457
5.70544
5.70627
5.7072
5.7083
5.70959
5.71108
5.71276
5.7146
5.71658
5.71868
5.72084
5.72305
5.72527
5.72752
5.72994
5.73288
5.73741
5.74781
8801.52
8816.07
8934.91
8672.73
9708.22
9626.83
9612.54
9498.61
3400.84
3656.9
5602.96
5890.02
1104.95
1081.46
1066.34
1064.16
1185.73
1170.1
1161.96
1156.11
1226.13
1214.82
1209.71
1207.6
1149.72
1121.1
1084.1
1012.73
661.396
651.697
654.686
663.742
302.147
259.307
330.268
491.269
4.88688
4.80125
4.90788
5.1823
5.79463
5.79208
5.78065
5.76175
5.61304
5.59489
5.59895
5.62306
5.64973
5.64718
5.64999
5.65883
5.68428
5.68335
5.68407
5.68756
5.70378
5.7028
5.70251
5.70378
5.713
5.71156
5.71045
5.71055
5.71613
5.71408
5.71232
5.71157
5.71597
5.71335
5.71104
5.7096
5.71447
5.71138
5.70862
5.70657
5.71304
5.70966
5.70658
5.70402
5.71244
5.70899
5.70576
5.70287
5.71284
5.70947
5.70626
5.7032
5.71425
5.71107
5.70797
5.70486
5.71653
5.7136
5.7107
5.70762
5.71945
5.7168
5.71412
5.71114
5.72277
5.72041
5.71798
5.71514
5.72632
5.72424
5.72204
5.71939
5.72993
5.72813
5.72617
5.72371
5.73347
5.73192
5.73018
5.72795
5.73682
5.7355
5.734
5.73199
5.73993
5.73883
5.73753
5.73576
5.74273
5.74184
5.74076
5.73919
5.74516
5.74447
5.74357
5.74221
5.74717
5.74666
5.74594
5.74478
5.74873
5.74841
5.74785
5.74688
5.74989
5.74975
5.74937
5.74856
5.75068
5.75077
5.75056
5.74991
5.75128
5.75167
5.75168
5.75114
5.75191
5.75287
5.75315
5.75256
5.75264
5.75495
5.75574
5.75471
5.75422
5.76155
5.76423
5.76056
5.77131
5.79318
5.79687
5.78403
7354.22
6618.48
6266.54
6091.36
5684.68
3161
1323.25
725.307
725.144
766.784
888.149
1004.45
1071.89
1121.82
1163.39
1200.69
1236.6
1276.59
1331.17
8531.55
7764.5
6387.28
4469.18
3811.96
985.255
695.988
706.473
732.396
785.37
870.059
950.445
1011.92
1063.34
1109.27
1151.38
1192.32
1238.29
1297.8
3399.72
1338.79
955.318
1030.16
1043.15
804.88
701.242
717.798
746.064
789.575
848.325
907.266
959.979
1008.89
1055.12
1098.79
1141.84
1189.78
1250.69
1069.98
1084.04
1101.84
1111.08
1085.74
808.484
706.272
726.482
748.887
779.822
820.953
866.217
912.055
958.186
1003.93
1048.02
1091.39
1138.32
1196.78
1149.82
1151.11
1132.54
1007.64
800.499
696.343
715.457
732.059
744.631
762.335
789.945
825.908
867.128
911.436
957.381
1002
1044.92
1088.87
1142.3
1197.34
1081.12
831.664
668.903
686.341
709.083
723.449
715.624
711.279
725.501
749.461
783.783
825.358
870.258
917.872
963.78
1005.96
1045.51
1091.88
858.627
672.056
673.65
694.686
677.815
573.184
416.222
300.943
284.2
375.596
526.932
693.972
783.176
835.013
888.885
937.173
978.67
1012.68
1050.31
677.897
604.195
527.169
411.789
236.496
53.6529
7.88489
7.79589
7.60685
14.3421
51.8127
188.654
488.412
764.27
871.502
925.853
966.885
994.649
1022.45
360.166
89.1132
5.41094
5.9298
6.40092
6.45894
6.2417
6.2576
6.40021
6.60004
6.79406
7.0531
21.5721
301.232
862.608
930.845
971.808
993.889
1011.24
5.52812
5.74093
5.73895
5.74064
5.85253
5.97298
6.21127
6.38505
6.45483
6.45706
6.45955
6.57654
6.95081
51.4984
793.851
951.581
992.45
1009.04
1017.24
5.72348
5.73049
5.77657
5.81322
5.91215
6.02392
6.19962
6.33231
6.43799
6.50713
6.55439
6.60207
6.63206
25.8689
649.725
985.77
1025.1
1037.28
1038.08
5.67198
5.7192
5.7603
5.8365
5.90219
6.00117
6.11421
6.23141
6.35001
6.46309
6.55364
6.60447
6.62749
11.6891
553.569
1026.9
1064.83
1074.55
1069.97
5.68007
5.71385
5.75981
5.80244
5.86424
5.94467
6.03692
6.13705
6.2544
6.37581
6.47467
6.52755
6.55829
6.97795
351.856
1069.35
1107.6
1116.84
1109.02
5.69659
5.71699
5.74785
5.78489
5.83307
5.89541
5.96971
6.05441
6.15236
6.26251
6.35982
6.40791
6.40328
6.41952
116.581
1059.71
1151.1
1161.26
1152.19
5.70774
5.72014
5.74147
5.76836
5.80376
5.84979
5.90698
5.97561
6.05681
6.14824
6.23357
6.26651
6.22755
6.11273
20.2475
767.144
1194.69
1207.03
1197.9
5.7116
5.71774
5.73072
5.74867
5.77316
5.80576
5.8477
5.90045
5.96435
6.03647
6.10439
6.12469
6.07274
5.91382
6.10947
302.809
1238.04
1254.13
1245.87
5.71048
5.71148
5.71747
5.72761
5.74285
5.76423
5.79317
5.83132
5.87859
5.93185
5.98191
6.00201
5.95538
5.83263
5.72741
20.7299
886.786
1302
1296.37
5.70684
5.70374
5.70404
5.70758
5.71495
5.72697
5.74497
5.77031
5.80254
5.83872
5.87232
5.88894
5.86033
5.78001
5.64087
6.44467
368.268
1352.99
1349.76
5.70246
5.69633
5.69236
5.69057
5.6914
5.69551
5.70411
5.71823
5.73737
5.75874
5.77733
5.78566
5.76763
5.70684
5.59361
5.78185
247.62
1409.26
1405.25
5.69889
5.6907
5.68366
5.6778
5.6733
5.6707
5.6711
5.67533
5.6831
5.69206
5.69763
5.6959
5.67684
5.62646
5.52541
5.32873
89.9136
1133.43
1446.51
5.69706
5.68759
5.67837
5.66942
5.66072
5.65267
5.64621
5.64204
5.64008
5.63859
5.63443
5.62325
5.59916
5.53922
5.42765
5.20415
7.08383
124.601
1482.2
5.697
5.68683
5.67624
5.66517
5.65342
5.6412
5.62932
5.61843
5.60865
5.59904
5.58762
5.56956
5.54254
5.49133
5.38648
5.23079
5.18717
5.58908
1542.01
5.69853
5.68813
5.67686
5.66454
5.65082
5.63571
5.61986
5.6039
5.58816
5.57229
5.55483
5.53258
5.50266
5.46065
5.3918
5.29721
5.26103
5.44066
1401.26
5.70133
5.69106
5.67964
5.66681
5.6521
5.6353
5.61687
5.59743
5.57735
5.55667
5.53445
5.50858
5.47523
5.43476
5.3884
5.34296
5.31952
5.39187
551.824
5.70504
5.69517
5.68398
5.67122
5.65634
5.63892
5.61923
5.59779
5.57496
5.55089
5.5251
5.49608
5.46089
5.41975
5.38655
5.36261
5.36003
5.34573
760.093
5.70934
5.70002
5.68935
5.67706
5.66265
5.64552
5.62578
5.60374
5.57967
5.55374
5.52576
5.49487
5.45954
5.42015
5.38802
5.39997
5.40228
5.30934
1549.25
5.71395
5.70528
5.69529
5.68376
5.67025
5.65414
5.63536
5.614
5.59018
5.56403
5.53561
5.50461
5.47084
5.43601
5.40914
5.42434
5.48366
5.45197
1782.49
5.71866
5.71068
5.70147
5.69086
5.6785
5.66391
5.64686
5.62723
5.60501
5.5803
5.55332
5.52446
5.49454
5.46604
5.44678
5.46095
5.58446
29.4746
1842.05
5.72332
5.71604
5.70763
5.69799
5.68691
5.67408
5.65918
5.642
5.62241
5.60049
5.57665
5.55201
5.52779
5.50611
5.48981
5.49966
5.56016
159.334
1904.17
5.72779
5.72121
5.71358
5.70491
5.69514
5.68405
5.67137
5.65688
5.64043
5.62208
5.60238
5.58269
5.56484
5.5482
5.53251
5.51861
5.46191
258.27
1969.69
5.73199
5.72606
5.71918
5.71142
5.70289
5.69337
5.6827
5.67074
5.65739
5.64269
5.62702
5.6116
5.5983
5.58442
5.56109
5.52969
5.48745
157.53
1185.71
5.73582
5.73049
5.72431
5.7174
5.70994
5.70174
5.69274
5.6829
5.6722
5.66064
5.64832
5.6356
5.62331
5.60897
5.57307
5.52283
5.54609
10.9604
14.8893
5.73923
5.73445
5.72888
5.72276
5.71619
5.70905
5.70134
5.69312
5.68442
5.6752
5.66528
5.65421
5.64124
5.62419
5.59015
5.53211
5.50825
5.35504
5.42366
5.74215
5.73787
5.73287
5.72742
5.72156
5.71524
5.70851
5.70145
5.69409
5.68636
5.67788
5.66765
5.65391
5.63381
5.60037
5.53814
5.48113
5.3831
5.41946
5.74458
5.74073
5.73625
5.73134
5.72604
5.72035
5.71434
5.70809
5.70159
5.6947
5.68693
5.67707
5.66306
5.64192
5.60891
5.55653
5.50412
5.43264
5.43594
5.74656
5.74308
5.73901
5.73451
5.72963
5.72443
5.71898
5.71331
5.70739
5.70102
5.69364
5.68413
5.67073
5.65115
5.62282
5.58376
5.54931
5.51419
5.51633
5.74814
5.74494
5.74116
5.73694
5.73239
5.72758
5.72257
5.71738
5.71193
5.70599
5.69905
5.69016
5.67808
5.66145
5.63937
5.61236
5.59026
5.5675
5.56785
5.74942
5.74635
5.74271
5.73866
5.73435
5.72987
5.72525
5.7205
5.71554
5.71012
5.70381
5.6959
5.68556
5.67215
5.65549
5.6363
5.61912
5.60263
5.59818
5.75051
5.74733
5.74365
5.73966
5.73555
5.73137
5.72715
5.72288
5.71846
5.7137
5.70825
5.70162
5.69332
5.68307
5.67096
5.65758
5.64502
5.63346
5.62807
5.7521
5.74866
5.74462
5.74045
5.73637
5.73239
5.7285
5.72466
5.7208
5.71677
5.71233
5.70718
5.70106
5.69387
5.68579
5.67722
5.66907
5.66166
5.65694
5.75727
5.75262
5.74733
5.74231
5.73775
5.73357
5.72967
5.72598
5.72244
5.71898
5.71546
5.71175
5.70776
5.7035
5.6991
5.69476
5.69074
5.68702
5.6838
5.76353
5.75256
5.74633
5.74144
5.73735
5.7338
5.73062
5.72769
5.72497
5.72243
5.72006
5.71785
5.71584
5.71409
5.71269
5.71169
5.71107
5.71057
5.7094
)
;

boundaryField
{
    leftWall
    {
        type            fixedFluxPressure;
        gradient        uniform 0;
        value           nonuniform List<scalar> 
50
(
5154.76
5150.72
5146.73
5134.59
5092.71
2957.9
1127.87
1126.43
1120.85
1112
1100.24
1084.25
776.169
21.6351
6.19801
6.1614
6.12595
6.09619
6.06967
6.04569
6.02387
6.00397
5.98576
5.96908
5.95344
5.93891
5.92533
5.91259
5.90059
5.88924
5.87845
5.86814
5.85823
5.84865
5.83935
5.83026
5.82136
5.81259
5.80392
5.79535
5.78684
5.7784
5.77001
5.76171
5.7536
5.74573
5.73777
5.72912
5.72178
5.72708
)
;
    }
    rightWall
    {
        type            fixedFluxPressure;
        gradient        uniform 0;
        value           nonuniform List<scalar> 
50
(
1345.62
1345.11
1347.61
1350.07
1357.87
1365.89
1359.68
1349.58
1331.17
1297.8
1250.69
1196.78
1142.3
1091.88
1050.31
1022.45
1011.24
1017.24
1038.08
1069.97
1109.02
1152.19
1197.9
1245.87
1296.37
1349.76
1405.25
1446.51
1482.2
1542.01
1401.26
551.824
760.093
1549.25
1782.49
1842.05
1904.17
1969.69
1185.71
14.8893
5.42366
5.41946
5.43594
5.51633
5.56785
5.59818
5.62807
5.65694
5.6838
5.7094
)
;
    }
    lowerWall
    {
        type            fixedFluxPressure;
        gradient        uniform 0;
        value           nonuniform List<scalar> 
62
(
5154.76
5186.64
5240.81
5293.13
5335.35
5371.75
5407.61
5447.02
5493.48
5550.91
5624.35
5720.16
5846.17
6010.53
6220.21
6478.66
6789.1
7149.13
7553.5
7985.04
8409.48
8756.02
8985.83
8985.83
9039.45
9103.63
9183.54
9276.25
9378.97
9489.67
9568.11
8801.52
8816.07
8934.91
8672.73
2672.2
2672.43
2670.83
2668.85
2666.79
2664.88
2649.83
3885.96
2672.2
2672.05
2678.24
2658.75
2639.29
2622.08
2604.97
2422.11
2043.65
1672.05
1445.04
1339.07
1301.82
1288.88
1289.56
1301.99
1322.24
1336.59
1345.62
)
;
    }
    atmosphere
    {
        type            prghTotalPressure;
        rho             rho;
        psi             none;
        gamma           1;
        p0              uniform 0;
        value           nonuniform List<scalar> 
46
(
5.71552
5.69441
5.69625
5.69724
5.69803
5.69881
5.69968
5.70072
5.70194
5.70338
5.70503
5.70688
5.7089
5.71107
5.71335
5.7157
5.71807
5.7204
5.72264
5.7247
5.72648
5.72787
5.72872
5.72896
5.72899
5.72904
5.72904
5.72904
5.72904
5.72904
5.72904
5.72904
5.72904
5.72904
5.72904
5.72904
5.72904
5.72904
5.72904
5.72904
5.72904
5.72904
5.72904
5.72904
5.72904
5.72904
)
;
        rho             rho;
    }
    defaultFaces
    {
        type            empty;
    }
}


// ************************************************************************* //
