/*--------------------------------*- C++ -*----------------------------------*\
  =========                 |
  \\      /  F ield         | OpenFOAM: The Open Source CFD Toolbox
   \\    /   O peration     | Website:  https://openfoam.org
    \\  /    A nd           | Version:  13
     \\/     M anipulation  |
\*---------------------------------------------------------------------------*/
FoamFile
{
    format      ascii;
    class       surfaceScalarField;
    location    "0.45";
    object      phi;
}
// * * * * * * * * * * * * * * * * * * * * * * * * * * * * * * * * * * * * * //

dimensions      [0 3 -1 0 0 0 0];

internalField   nonuniform List<scalar> 
4432
(
-1.71904e-06
1.71905e-06
4.58849e-07
-2.17788e-06
3.6105e-06
-3.15165e-06
6.80267e-06
-3.19216e-06
9.85486e-06
-3.0522e-06
1.27358e-05
-2.88091e-06
1.5454e-05
-2.71827e-06
1.80118e-05
-2.55773e-06
2.0392e-05
-2.38022e-06
2.25574e-05
-2.16539e-06
2.44529e-05
-1.8955e-06
2.6011e-05
-1.55817e-06
2.71582e-05
-1.14719e-06
2.78197e-05
-6.6145e-07
2.79302e-05
-1.10499e-07
2.73749e-05
5.55237e-07
2.6027e-05
1.34788e-06
2.36855e-05
2.34152e-06
2.01277e-05
3.55786e-06
1.51944e-05
4.93321e-06
8.91755e-06
6.27689e-06
2.06305e-06
6.85449e-06
2.06305e-06
8.68331e-07
8.50734e-07
3.40124e-06
-4.71078e-06
6.19659e-06
-5.94699e-06
9.02328e-06
-6.01884e-06
1.17606e-05
-5.78954e-06
1.43748e-05
-5.49507e-06
1.6857e-05
-5.20042e-06
1.91963e-05
-4.89707e-06
2.13673e-05
-4.55117e-06
2.33261e-05
-4.12419e-06
2.50116e-05
-3.58106e-06
2.63495e-05
-2.89601e-06
2.72576e-05
-2.05528e-06
2.76531e-05
-1.05702e-06
2.74485e-05
9.41311e-08
2.65809e-05
1.42288e-06
2.49475e-05
2.98123e-06
2.24476e-05
4.84143e-06
1.89927e-05
7.01277e-06
1.45531e-05
9.3728e-06
9.26386e-06
1.15662e-05
3.79055e-06
1.23278e-05
5.8536e-06
2.83991e-06
-1.98917e-06
5.37591e-06
-7.24678e-06
7.87269e-06
-8.44376e-06
1.03788e-05
-8.525e-06
1.2834e-05
-8.24465e-06
1.52082e-05
-7.8693e-06
1.7483e-05
-7.47528e-06
1.96355e-05
-7.04948e-06
2.16296e-05
-6.54528e-06
2.34137e-05
-5.90836e-06
2.492e-05
-5.08732e-06
2.60661e-05
-4.04211e-06
2.67623e-05
-2.75146e-06
2.69187e-05
-1.21339e-06
2.64611e-05
5.51683e-07
2.53384e-05
2.54554e-06
2.35116e-05
4.80811e-06
2.09524e-05
7.40058e-06
1.7667e-05
1.02982e-05
1.37229e-05
1.33168e-05
9.32187e-06
1.59672e-05
4.80649e-06
1.68432e-05
1.06601e-05
4.19202e-06
-6.18118e-06
6.72824e-06
-9.78299e-06
9.01107e-06
-1.07266e-05
1.12668e-05
-1.07807e-05
1.3495e-05
-1.04728e-05
1.56771e-05
-1.00514e-05
1.77873e-05
-9.58544e-06
1.9791e-05
-9.05315e-06
2.16424e-05
-8.39669e-06
2.32819e-05
-7.54792e-06
2.46343e-05
-6.43963e-06
2.56094e-05
-5.01722e-06
2.61087e-05
-3.25079e-06
2.6037e-05
-1.14172e-06
2.53328e-05
1.2559e-06
2.39752e-05
3.90318e-06
2.1981e-05
6.80227e-06
1.93833e-05
9.99832e-06
1.6263e-05
1.34185e-05
1.27537e-05
1.68262e-05
9.06385e-06
1.9657e-05
5.21937e-06
2.06877e-05
1.58795e-05
4.93477e-06
-1.11159e-05
7.45052e-06
-1.22987e-05
9.60835e-06
-1.28844e-05
1.17047e-05
-1.2877e-05
1.37846e-05
-1.25527e-05
1.58403e-05
-1.21071e-05
1.78388e-05
-1.1584e-05
1.97366e-05
-1.09509e-05
2.14793e-05
-1.01394e-05
2.30022e-05
-9.0708e-06
2.42246e-05
-7.66205e-06
2.50471e-05
-5.8397e-06
2.53602e-05
-3.56392e-06
2.50607e-05
-8.42205e-07
2.41048e-05
2.21175e-06
2.25092e-05
5.49879e-06
2.03545e-05
8.95698e-06
1.77349e-05
1.26179e-05
1.4781e-05
1.63724e-05
1.16681e-05
1.99391e-05
8.58426e-06
2.27409e-05
5.30653e-06
2.39654e-05
2.1186e-05
5.27292e-06
-1.63889e-05
7.58913e-06
-1.46149e-05
9.70056e-06
-1.49958e-05
1.17211e-05
-1.48976e-05
1.37267e-05
-1.45583e-05
1.57145e-05
-1.40948e-05
1.76471e-05
-1.35167e-05
1.94757e-05
-1.27795e-05
2.11406e-05
-1.18043e-05
2.2566e-05
-1.04961e-05
2.36714e-05
-8.76747e-06
2.43601e-05
-6.52843e-06
2.4508e-05
-3.71175e-06
2.40025e-05
-3.36716e-07
2.2789e-05
3.42525e-06
2.09294e-05
7.35839e-06
1.86167e-05
1.12696e-05
1.60087e-05
1.52259e-05
1.32551e-05
1.91259e-05
1.05485e-05
2.26458e-05
8.04917e-06
2.52402e-05
5.33426e-06
2.66803e-05
2.65202e-05
4.29625e-06
-2.06851e-05
6.76996e-06
-1.70887e-05
8.97165e-06
-1.71975e-05
1.10112e-05
-1.69371e-05
1.3003e-05
-1.65502e-05
1.49589e-05
-1.60508e-05
1.68484e-05
-1.54061e-05
1.86247e-05
-1.45558e-05
2.02293e-05
-1.34089e-05
2.15874e-05
-1.18542e-05
2.26092e-05
-9.78933e-06
2.31936e-05
-7.11276e-06
2.32103e-05
-3.72844e-06
2.25469e-05
3.26673e-07
2.11579e-05
4.81425e-06
1.9157e-05
9.35926e-06
1.67549e-05
1.36718e-05
1.42035e-05
1.77773e-05
1.17798e-05
2.15497e-05
9.54509e-06
2.48805e-05
7.69475e-06
2.70905e-05
5.589e-06
2.8786e-05
3.21092e-05
2.25099e-06
-2.29361e-05
4.90944e-06
-1.97471e-05
7.13371e-06
-1.94218e-05
9.19485e-06
-1.89982e-05
1.11558e-05
-1.85111e-05
1.30392e-05
-1.79342e-05
1.4836e-05
-1.72029e-05
1.65185e-05
-1.62383e-05
1.80502e-05
-1.49406e-05
1.93906e-05
-1.31947e-05
2.04653e-05
-1.0864e-05
2.11656e-05
-7.81305e-06
2.13658e-05
-3.92861e-06
2.08646e-05
8.2787e-07
1.95577e-05
6.12108e-06
1.73932e-05
1.15238e-05
1.47635e-05
1.63015e-05
1.2418e-05
2.01228e-05
1.04453e-05
2.35224e-05
8.88399e-06
2.64417e-05
7.87128e-06
2.81032e-05
6.65975e-06
2.99976e-05
3.8769e-05
-1.01455e-05
1.01454e-05
-9.08843e-06
-1.05707e-06
-1.62147e-06
-7.46698e-06
5.44206e-06
-7.06354e-06
1.75525e-05
-1.21104e-05
3.88588e-05
-2.13063e-05
7.83402e-05
-3.94813e-05
0.000113202
-3.48613e-05
0.000128965
-1.57629e-05
0.000127251
1.71366e-06
0.000113556
1.36949e-05
9.60506e-05
1.75055e-05
7.90675e-05
1.6983e-05
6.31463e-05
1.59213e-05
4.7632e-05
1.55142e-05
3.14974e-05
1.61346e-05
1.40887e-05
1.74087e-05
-3.1015e-06
1.71902e-05
-3.10153e-06
-5.81928e-06
1.59646e-05
-2.06931e-06
-4.80705e-06
4.8792e-06
-1.44155e-05
1.15093e-05
-1.36936e-05
2.47969e-05
-2.5398e-05
5.10508e-05
-4.756e-05
0.000100308
-8.87384e-05
0.000136963
-7.15171e-05
0.000146576
-2.53751e-05
0.000137461
1.0829e-05
0.000120873
3.02821e-05
0.000101212
3.7167e-05
8.28369e-05
3.5358e-05
6.61378e-05
3.26205e-05
5.04273e-05
3.12247e-05
3.49656e-05
3.15963e-05
1.96027e-05
3.27716e-05
6.25724e-06
3.05356e-05
3.15565e-06
-2.67956e-06
1.86441e-05
2.41878e-06
-9.90539e-06
9.2816e-06
-2.12783e-05
1.5471e-05
-1.98829e-05
3.56394e-05
-4.55664e-05
6.98157e-05
-8.17363e-05
8.51497e-05
-0.000104072
0.000107112
-9.34793e-05
0.000138383
-5.6646e-05
0.000142174
7.03828e-06
0.00012091
5.15463e-05
0.000100607
5.74693e-05
8.24393e-05
5.35262e-05
6.62315e-05
4.88282e-05
5.1197e-05
4.62593e-05
3.6729e-05
4.60643e-05
2.28596e-05
4.66409e-05
1.10768e-05
4.23184e-05
1.42325e-05
1.16012e-07
1.8528e-05
5.98453e-06
-1.5774e-05
1.53378e-05
-3.06315e-05
3.18295e-05
-3.63742e-05
4.56314e-05
-5.93686e-05
7.07255e-05
-0.00010683
7.2181e-05
-0.000105528
7.75039e-05
-9.88022e-05
9.43939e-05
-7.35363e-05
0.000116029
-1.45969e-05
0.00011167
5.59053e-05
9.4726e-05
7.44132e-05
7.9221e-05
6.90311e-05
6.47404e-05
6.33088e-05
5.09595e-05
6.00402e-05
3.75871e-05
5.94366e-05
2.47625e-05
5.94656e-05
1.31549e-05
5.3926e-05
2.73873e-05
3.42156e-06
1.51065e-05
1.096e-05
-2.33123e-05
2.33846e-05
-4.30559e-05
4.47017e-05
-5.7691e-05
6.80578e-05
-8.27248e-05
6.40759e-05
-0.000102849
6.63336e-05
-0.000107786
6.92811e-05
-0.00010175
7.40192e-05
-7.82743e-05
8.77699e-05
-2.83478e-05
9.24894e-05
5.11858e-05
8.47767e-05
8.2126e-05
7.40216e-05
7.97863e-05
6.2144e-05
7.51864e-05
5.00005e-05
7.21837e-05
3.77992e-05
7.16379e-05
2.58072e-05
7.14576e-05
1.41393e-05
6.55938e-05
4.15267e-05
8.12178e-06
6.98463e-06
1.90804e-05
-3.42709e-05
3.19264e-05
-5.5902e-05
4.63709e-05
-7.21359e-05
5.88595e-05
-9.52135e-05
6.07508e-05
-0.00010474
6.21717e-05
-0.000109207
6.36291e-05
-0.000103207
6.5339e-05
-7.99843e-05
6.95628e-05
-3.25717e-05
7.55543e-05
4.51942e-05
7.44131e-05
8.32671e-05
6.80188e-05
8.61806e-05
5.8928e-05
8.42772e-05
4.85395e-05
8.25723e-05
3.75232e-05
8.26542e-05
2.62747e-05
8.27061e-05
1.46584e-05
7.72102e-05
5.61851e-05
1.82914e-05
-1.13068e-05
2.99558e-05
-4.59354e-05
4.05729e-05
-6.65193e-05
5.13718e-05
-8.2935e-05
5.57688e-05
-9.96106e-05
5.78364e-05
-0.000106808
5.87127e-05
-0.000110083
5.87437e-05
-0.000103238
5.83086e-05
-7.95491e-05
5.79735e-05
-3.22366e-05
6.22816e-05
4.08861e-05
6.52414e-05
8.03073e-05
6.21271e-05
8.92949e-05
5.54956e-05
9.09087e-05
4.67601e-05
9.13078e-05
3.68756e-05
9.25387e-05
2.63236e-05
9.32581e-05
1.49146e-05
8.86192e-05
7.10997e-05
2.76246e-05
-3.89314e-05
3.60568e-05
-5.43677e-05
4.32552e-05
-7.37178e-05
5.01734e-05
-8.98533e-05
5.39404e-05
-0.000103378
5.57316e-05
-0.000108599
5.59067e-05
-0.000110258
5.45909e-05
-0.000101922
5.15077e-05
-7.64658e-05
4.90643e-05
-2.97932e-05
5.35142e-05
3.64362e-05
5.78424e-05
7.59792e-05
5.689e-05
9.02473e-05
5.21091e-05
9.56896e-05
4.47938e-05
9.86231e-05
3.59385e-05
0.000101394
2.60573e-05
0.000103139
1.49412e-05
9.97353e-05
8.60409e-05
2.74447e-06
-2.56806e-05
7.3575e-06
-2.43602e-05
1.16597e-05
-2.3724e-05
1.57596e-05
-2.30982e-05
1.96669e-05
-2.24185e-05
2.33803e-05
-2.16476e-05
2.68821e-05
-2.07047e-05
3.01332e-05
-1.94895e-05
3.3076e-05
-1.78834e-05
3.56328e-05
-1.57515e-05
3.77096e-05
-1.29408e-05
3.91802e-05
-9.28368e-06
3.98902e-05
-4.63862e-06
3.96168e-05
1.10129e-06
3.79378e-05
7.80013e-06
3.4336e-05
1.51255e-05
2.89189e-05
2.17187e-05
2.28611e-05
2.61805e-05
1.95132e-05
2.68703e-05
1.88595e-05
2.70954e-05
1.99617e-05
2.7001e-05
2.54407e-05
2.45186e-05
2.06967e-05
4.3513e-05
2.16816e-06
-2.78488e-05
5.84772e-06
-2.80397e-05
9.52557e-06
-2.74019e-05
1.3113e-05
-2.66856e-05
1.65808e-05
-2.58863e-05
1.98932e-05
-2.496e-05
2.30192e-05
-2.38307e-05
2.59255e-05
-2.23957e-05
2.85709e-05
-2.05288e-05
3.09072e-05
-1.80879e-05
3.28866e-05
-1.49202e-05
3.44724e-05
-1.08695e-05
3.56316e-05
-5.79788e-06
3.63848e-05
3.48073e-07
3.67115e-05
7.47348e-06
3.66522e-05
1.51848e-05
3.58167e-05
2.25542e-05
3.38745e-05
2.81227e-05
3.05337e-05
3.02111e-05
2.76115e-05
3.00176e-05
3.08677e-05
2.37448e-05
3.79065e-05
1.74797e-05
9.68088e-06
4.89224e-05
2.26777e-06
-3.01165e-05
5.35725e-06
-3.11292e-05
8.49154e-06
-3.05361e-05
1.16157e-05
-2.98097e-05
1.46751e-05
-2.89457e-05
1.76258e-05
-2.79107e-05
2.04366e-05
-2.66414e-05
2.30845e-05
-2.50437e-05
2.55463e-05
-2.29906e-05
2.78033e-05
-2.03449e-05
2.98495e-05
-1.69664e-05
3.17027e-05
-1.27227e-05
3.34173e-05
-7.51241e-06
3.51138e-05
-1.3485e-06
3.70004e-05
5.58696e-06
3.9336e-05
1.28492e-05
4.2205e-05
1.96852e-05
4.52671e-05
2.50607e-05
4.77433e-05
2.77349e-05
5.07167e-05
2.70443e-05
5.25074e-05
2.1954e-05
5.78536e-05
1.21336e-05
-7.30965e-07
6.82654e-05
2.52973e-06
-3.26462e-05
5.14115e-06
-3.37406e-05
7.874e-06
-3.3269e-05
1.06587e-05
-3.25944e-05
1.33973e-05
-3.16843e-05
1.60431e-05
-3.05566e-05
1.85774e-05
-2.91756e-05
2.10038e-05
-2.74701e-05
2.33293e-05
-2.5316e-05
2.55606e-05
-2.25762e-05
2.77347e-05
-1.91405e-05
2.99078e-05
-1.48958e-05
3.21651e-05
-9.76974e-06
3.46641e-05
-3.84748e-06
3.76721e-05
2.57891e-06
4.15282e-05
8.99306e-06
4.65098e-05
1.47037e-05
5.25839e-05
1.89866e-05
5.93336e-05
2.09852e-05
6.65032e-05
1.98747e-05
7.40317e-05
1.44254e-05
8.16453e-05
4.51997e-06
-8.76452e-06
8.96789e-05
2.89925e-06
-3.55454e-05
4.7765e-06
-3.56178e-05
7.35429e-06
-3.58466e-05
1.00034e-05
-3.52434e-05
1.25532e-05
-3.4234e-05
1.49667e-05
-3.29699e-05
1.72412e-05
-3.14501e-05
1.94144e-05
-2.96431e-05
2.1571e-05
-2.74725e-05
2.37541e-05
-2.47594e-05
2.60226e-05
-2.1409e-05
2.84869e-05
-1.73601e-05
3.12325e-05
-1.25154e-05
3.43859e-05
-7.00086e-06
3.82062e-05
-1.2414e-06
4.30011e-05
4.19821e-06
4.91631e-05
8.5416e-06
5.67653e-05
1.13844e-05
6.54273e-05
1.23233e-05
7.46543e-05
1.06477e-05
8.37802e-05
5.29951e-06
9.23202e-05
-4.01998e-06
-1.64541e-05
0.00010001
2.81419e-06
-3.83592e-05
2.50917e-06
-3.5312e-05
5.57477e-06
-3.89116e-05
8.49706e-06
-3.81652e-05
1.12535e-05
-3.69902e-05
1.38071e-05
-3.55233e-05
1.61344e-05
-3.37773e-05
1.82792e-05
-3.17879e-05
2.02815e-05
-2.94748e-05
2.21854e-05
-2.66632e-05
2.4415e-05
-2.36384e-05
2.70662e-05
-2.00112e-05
3.02362e-05
-1.56853e-05
3.4078e-05
-1.08425e-05
3.86797e-05
-5.84315e-06
4.42757e-05
-1.39776e-06
5.1139e-05
1.67833e-06
5.94273e-05
3.09604e-06
6.87998e-05
2.95082e-06
7.86608e-05
7.86713e-07
8.83618e-05
-4.40148e-06
9.73252e-05
-1.29834e-05
-2.44217e-05
0.000105293
1.20312e-05
-5.03898e-05
7.61713e-06
-3.08974e-05
6.82861e-06
-3.81227e-05
8.25076e-06
-3.9587e-05
1.03154e-05
-3.90545e-05
1.24964e-05
-3.77041e-05
1.45381e-05
-3.58187e-05
1.61943e-05
-3.34439e-05
1.77787e-05
-3.10584e-05
1.85984e-05
-2.74825e-05
2.12423e-05
-2.62819e-05
2.44337e-05
-2.32023e-05
2.85679e-05
-1.98195e-05
3.3764e-05
-1.60386e-05
3.99528e-05
-1.20319e-05
4.67648e-05
-8.2098e-06
5.40694e-05
-5.62617e-06
6.25428e-05
-5.3772e-06
7.19426e-05
-6.44893e-06
8.17501e-05
-9.02082e-06
9.1572e-05
-1.42233e-05
0.000100866
-2.22775e-05
-3.26795e-05
0.000109124
5.92213e-06
-5.63118e-05
1.26071e-05
-3.75826e-05
1.53009e-05
-4.08166e-05
1.79056e-05
-4.21918e-05
2.02481e-05
-4.1397e-05
2.22215e-05
-3.96774e-05
2.36369e-05
-3.72339e-05
2.40271e-05
-3.38341e-05
2.26659e-05
-2.96972e-05
2.1279e-05
-2.60949e-05
1.94917e-05
-2.44943e-05
2.09058e-05
-2.46162e-05
2.43515e-05
-2.3265e-05
2.95648e-05
-2.12518e-05
3.8063e-05
-2.05297e-05
4.95451e-05
-1.96915e-05
5.91215e-05
-1.52024e-05
6.76176e-05
-1.38732e-05
7.66089e-05
-1.54403e-05
8.66676e-05
-1.90795e-05
9.69614e-05
-2.45169e-05
0.000106566
-3.18825e-05
-4.14996e-05
0.000115387
2.76161e-06
-5.90732e-05
1.13734e-05
-4.61943e-05
1.62675e-05
-4.57108e-05
1.94052e-05
-4.53296e-05
2.19787e-05
-4.39705e-05
2.41971e-05
-4.18959e-05
2.61635e-05
-3.92004e-05
2.80908e-05
-3.57615e-05
2.97185e-05
-3.13256e-05
3.2026e-05
-2.84028e-05
3.46048e-05
-2.70735e-05
3.75373e-05
-2.75488e-05
4.13637e-05
-2.70914e-05
4.62215e-05
-2.61096e-05
5.1049e-05
-2.53572e-05
5.56015e-05
-2.42438e-05
5.8523e-05
-1.81236e-05
6.84559e-05
-2.38059e-05
8.16215e-05
-2.86057e-05
9.7051e-05
-3.45083e-05
0.000107626
-3.50921e-05
0.000114892
-3.91482e-05
-4.86786e-05
0.000122071
2.3293e-06
-6.14023e-05
9.26069e-06
-5.31255e-05
1.42175e-05
-5.06673e-05
1.78199e-05
-4.89318e-05
2.08301e-05
-4.69806e-05
2.35993e-05
-4.46649e-05
2.63495e-05
-4.19505e-05
2.94313e-05
-3.88434e-05
3.36037e-05
-3.54981e-05
3.78089e-05
-3.26087e-05
4.2436e-05
-3.17011e-05
4.64101e-05
-3.15233e-05
5.03628e-05
-3.10444e-05
5.45792e-05
-3.03262e-05
5.84061e-05
-2.91846e-05
6.26117e-05
-2.84498e-05
7.32713e-05
-2.87834e-05
8.39711e-05
-3.45056e-05
9.58272e-05
-4.04618e-05
0.000106562
-4.5243e-05
0.000112876
-4.14057e-05
0.000122763
-4.9034e-05
-5.8462e-05
0.000132546
2.16604e-06
-6.35681e-05
7.22184e-06
-5.8181e-05
1.15547e-05
-5.49999e-05
1.52034e-05
-5.25803e-05
1.8525e-05
-5.0302e-05
2.17942e-05
-4.79339e-05
2.52417e-05
-4.53979e-05
2.91142e-05
-4.27158e-05
3.36689e-05
-4.00529e-05
3.89598e-05
-3.78997e-05
4.39978e-05
-3.67392e-05
4.86118e-05
-3.61375e-05
5.318e-05
-3.56129e-05
5.80083e-05
-3.51548e-05
6.36432e-05
-3.48197e-05
7.02247e-05
-3.50318e-05
7.8791e-05
-3.73501e-05
8.66754e-05
-4.23904e-05
9.33336e-05
-4.71201e-05
9.79107e-05
-4.98205e-05
0.000108023
-5.15181e-05
0.000116562
-5.75727e-05
-6.52255e-05
0.000123326
1.78218e-06
-6.535e-05
5.40624e-06
-6.18048e-05
9.00681e-06
-5.86002e-05
1.24197e-05
-5.5993e-05
1.57702e-05
-5.36522e-05
1.92211e-05
-5.13847e-05
2.29358e-05
-4.91125e-05
2.70717e-05
-4.68516e-05
3.1742e-05
-4.47232e-05
3.682e-05
-4.29777e-05
4.1926e-05
-4.18453e-05
4.69432e-05
-4.11549e-05
5.20567e-05
-4.07266e-05
5.74783e-05
-4.05768e-05
6.34833e-05
-4.0825e-05
7.03301e-05
-4.18788e-05
7.73695e-05
-4.43897e-05
8.32843e-05
-4.83054e-05
8.83508e-05
-5.21867e-05
9.38054e-05
-5.52752e-05
0.000100432
-5.81448e-05
0.000106643
-6.37843e-05
-6.89371e-05
0.000110355
1.30252e-06
-6.66522e-05
3.88795e-06
-6.439e-05
6.78335e-06
-6.14954e-05
9.79265e-06
-5.90021e-05
1.29275e-05
-5.67869e-05
1.62653e-05
-5.47223e-05
1.99003e-05
-5.27474e-05
2.39175e-05
-5.08687e-05
2.83558e-05
-4.91616e-05
3.31394e-05
-4.77613e-05
3.80774e-05
-4.67834e-05
4.31082e-05
-4.61858e-05
4.83023e-05
-4.59209e-05
5.37538e-05
-4.60285e-05
5.95495e-05
-4.66208e-05
6.55967e-05
-4.79262e-05
7.14185e-05
-5.02117e-05
7.64202e-05
-5.33072e-05
8.0754e-05
-5.65205e-05
8.49688e-05
-5.94899e-05
8.94329e-05
-6.26088e-05
9.21708e-05
-6.65221e-05
-6.96134e-05
9.28472e-05
8.21692e-07
-6.74736e-05
2.6334e-06
-6.62014e-05
4.89428e-06
-6.3756e-05
7.42961e-06
-6.15372e-05
1.02038e-05
-5.95609e-05
1.32411e-05
-5.77595e-05
1.65868e-05
-5.6093e-05
2.02818e-05
-5.45636e-05
2.43363e-05
-5.32161e-05
2.87006e-05
-5.21256e-05
3.32752e-05
-5.13581e-05
3.80091e-05
-5.09198e-05
4.29032e-05
-5.08152e-05
4.79607e-05
-5.10862e-05
5.31495e-05
-5.18098e-05
5.83235e-05
-5.31004e-05
6.31525e-05
-5.50408e-05
6.73293e-05
-5.7484e-05
7.08769e-05
-6.00681e-05
7.39585e-05
-6.25714e-05
7.64034e-05
-6.50534e-05
7.74488e-05
-6.75674e-05
-6.92061e-05
7.70415e-05
3.82319e-07
-6.78556e-05
1.59377e-06
-6.74126e-05
3.29308e-06
-6.54551e-05
5.3387e-06
-6.35826e-05
7.67996e-06
-6.1902e-05
1.03123e-05
-6.03917e-05
1.32502e-05
-5.90308e-05
1.65075e-05
-5.78209e-05
2.00797e-05
-5.67883e-05
2.393e-05
-5.5976e-05
2.79957e-05
-5.54239e-05
3.22268e-05
-5.51511e-05
3.65869e-05
-5.51754e-05
4.10292e-05
-5.55287e-05
4.54736e-05
-5.62543e-05
4.97711e-05
-5.7398e-05
5.3695e-05
-5.89649e-05
5.70465e-05
-6.08355e-05
5.97708e-05
-6.27923e-05
6.18627e-05
-6.46631e-05
6.31779e-05
-6.63684e-05
6.33747e-05
-6.77639e-05
-6.83362e-05
6.2505e-05
-7.03663e-09
-6.78483e-05
7.25411e-07
-6.81448e-05
1.92658e-06
-6.66561e-05
3.49309e-06
-6.5149e-05
5.37379e-06
-6.37826e-05
7.54967e-06
-6.25674e-05
1.00169e-05
-6.1498e-05
1.27727e-05
-6.05767e-05
1.58036e-05
-5.98191e-05
1.90771e-05
-5.92495e-05
2.25449e-05
-5.88918e-05
2.61561e-05
-5.87625e-05
2.98569e-05
-5.88764e-05
3.35796e-05
-5.92515e-05
3.72302e-05
-5.99051e-05
4.06759e-05
-6.08439e-05
4.37505e-05
-6.20396e-05
4.63089e-05
-6.33939e-05
4.82721e-05
-6.47555e-05
4.95874e-05
-6.59782e-05
5.01538e-05
-6.69345e-05
4.98331e-05
-6.7443e-05
-6.71785e-05
4.86755e-05
-2.97806e-07
-6.75502e-05
1.81388e-09
-6.84442e-05
7.50905e-07
-6.74049e-05
1.86035e-06
-6.62582e-05
3.27907e-06
-6.52012e-05
4.98097e-06
-6.42692e-05
6.95138e-06
-6.34683e-05
9.17731e-06
-6.28027e-05
1.16391e-05
-6.22809e-05
1.43052e-05
-6.19157e-05
1.71324e-05
-6.17192e-05
2.007e-05
-6.17002e-05
2.30585e-05
-6.18651e-05
2.6025e-05
-6.22182e-05
2.88777e-05
-6.2758e-05
3.15035e-05
-6.34698e-05
3.37753e-05
-6.43115e-05
3.5581e-05
-6.51996e-05
3.68424e-05
-6.60169e-05
3.75012e-05
-6.66368e-05
3.7494e-05
-6.6927e-05
3.67684e-05
-6.67171e-05
-6.57744e-05
3.53644e-05
-5.65106e-07
-6.69849e-05
-6.23366e-07
-6.83857e-05
-2.72423e-07
-6.77557e-05
4.11187e-07
-6.69417e-05
1.3836e-06
-6.61735e-05
2.61637e-06
-6.55019e-05
4.0889e-06
-6.49408e-05
5.78195e-06
-6.44957e-05
7.67181e-06
-6.41708e-05
9.7267e-06
-6.39707e-05
1.19057e-05
-6.38983e-05
1.41593e-05
-6.3954e-05
1.64286e-05
-6.41347e-05
1.86436e-05
-6.44334e-05
2.07212e-05
-6.48358e-05
2.25667e-05
-6.53154e-05
2.40806e-05
-6.58255e-05
2.51742e-05
-6.62932e-05
2.57799e-05
-6.66226e-05
2.58486e-05
-6.67052e-05
2.53423e-05
-6.64204e-05
2.42468e-05
-6.56213e-05
-6.41273e-05
2.25998e-05
-7.95839e-07
-6.61888e-05
-1.15979e-06
-6.80216e-05
-1.16613e-06
-6.77492e-05
-8.7454e-07
-6.72332e-05
-3.23155e-07
-6.67248e-05
4.59832e-07
-6.62849e-05
1.45077e-06
-6.59317e-05
2.62649e-06
-6.56715e-05
3.9608e-06
-6.55052e-05
5.42165e-06
-6.54316e-05
6.96973e-06
-6.54466e-05
8.55804e-06
-6.55425e-05
1.01314e-05
-6.57082e-05
1.16259e-05
-6.5928e-05
1.29692e-05
-6.61793e-05
1.40828e-05
-6.64292e-05
1.4888e-05
-6.66308e-05
1.53145e-05
-6.67197e-05
1.53079e-05
-6.66159e-05
1.48307e-05
-6.62277e-05
1.38626e-05
-6.5452e-05
1.24095e-05
-6.41678e-05
-6.22287e-05
1.0511e-05
-9.95063e-07
-6.51936e-05
-1.62708e-06
-6.73894e-05
-1.94982e-06
-6.74263e-05
-2.01204e-06
-6.71708e-05
-1.848e-06
-6.68887e-05
-1.48526e-06
-6.66476e-05
-9.48183e-07
-6.64688e-05
-2.61402e-07
-6.63583e-05
5.47863e-07
-6.63145e-05
1.44757e-06
-6.63315e-05
2.39995e-06
-6.63991e-05
3.3613e-06
-6.6504e-05
4.28143e-06
-6.66286e-05
5.10391e-06
-6.67507e-05
5.76708e-06
-6.68427e-05
6.20658e-06
-6.68689e-05
6.35972e-06
-6.67841e-05
6.17161e-06
-6.65316e-05
5.60019e-06
-6.60444e-05
4.61904e-06
-6.52464e-05
3.2198e-06
-6.40525e-05
1.41837e-06
-6.23661e-05
-6.00747e-05
-7.3552e-07
-1.16553e-06
-6.40278e-05
-2.03137e-06
-6.65234e-05
-2.63333e-06
-6.68242e-05
-3.01184e-06
-6.67922e-05
-3.19791e-06
-6.67026e-05
-3.21809e-06
-6.66274e-05
-3.09719e-06
-6.65897e-05
-2.86055e-06
-6.6595e-05
-2.53574e-06
-6.66394e-05
-2.15375e-06
-6.67136e-05
-1.74991e-06
-6.68031e-05
-1.36428e-06
-6.68898e-05
-1.0416e-06
-6.69515e-05
-8.30766e-07
-6.69618e-05
-7.83551e-07
-6.68901e-05
-9.52316e-07
-6.67003e-05
-1.38653e-06
-6.635e-05
-2.12844e-06
-6.57898e-05
-3.20902e-06
-6.49638e-05
-4.64485e-06
-6.38103e-05
-6.43489e-06
-6.22622e-05
-8.55507e-06
-6.02456e-05
-5.76775e-05
-1.09522e-05
-1.30855e-06
-6.27191e-05
-2.37526e-06
-6.54565e-05
-3.22031e-06
-6.59791e-05
-3.87748e-06
-6.6135e-05
-4.37489e-06
-6.62051e-05
-4.73794e-06
-6.62643e-05
-4.99119e-06
-6.63365e-05
-5.15991e-06
-6.64263e-05
-5.27121e-06
-6.65282e-05
-5.35478e-06
-6.66301e-05
-5.44346e-06
-6.67146e-05
-5.57341e-06
-6.67601e-05
-5.78382e-06
-6.67413e-05
-6.11628e-06
-6.66295e-05
-6.61347e-06
-6.63931e-05
-7.31717e-06
-6.59968e-05
-8.26561e-06
-6.54016e-05
-9.49019e-06
-6.45652e-05
-1.10123e-05
-6.34415e-05
-1.28406e-05
-6.19819e-05
-1.49675e-05
-6.0135e-05
-1.73659e-05
-5.7847e-05
-5.50587e-05
-1.99845e-05
-1.42395e-06
-6.1295e-05
-2.65891e-06
-6.42214e-05
-3.71133e-06
-6.49265e-05
-4.60923e-06
-6.5237e-05
-5.37807e-06
-6.54362e-05
-6.04185e-06
-6.56005e-05
-6.62438e-06
-6.57539e-05
-7.15028e-06
-6.59004e-05
-7.64563e-06
-6.6033e-05
-8.13845e-06
-6.61374e-05
-8.65885e-06
-6.61944e-05
-9.23898e-06
-6.61801e-05
-9.91264e-06
-6.60678e-05
-1.07145e-05
-6.58279e-05
-1.16791e-05
-6.54288e-05
-1.28389e-05
-6.48371e-05
-1.42226e-05
-6.4018e-05
-1.58526e-05
-6.29353e-05
-1.77424e-05
-6.15517e-05
-1.98944e-05
-5.98296e-05
-2.22977e-05
-5.77314e-05
-2.49248e-05
-5.52196e-05
-5.2254e-05
-2.77295e-05
-1.51144e-06
-5.97835e-05
-2.88195e-06
-6.28508e-05
-4.10598e-06
-6.37024e-05
-5.20642e-06
-6.41365e-05
-6.20608e-06
-6.44365e-05
-7.12731e-06
-6.46793e-05
-7.99271e-06
-6.48886e-05
-8.82575e-06
-6.50675e-05
-9.65109e-06
-6.52077e-05
-1.04947e-05
-6.5294e-05
-1.13838e-05
-6.53054e-05
-1.23466e-05
-6.52175e-05
-1.34117e-05
-6.5003e-05
-1.46074e-05
-6.46324e-05
-1.59609e-05
-6.40755e-05
-1.74968e-05
-6.33014e-05
-1.92357e-05
-6.22792e-05
-2.11924e-05
-6.09785e-05
-2.33743e-05
-5.93697e-05
-2.57796e-05
-5.74242e-05
-2.83952e-05
-5.51155e-05
-3.11954e-05
-5.2419e-05
-4.93085e-05
-3.41409e-05
-1.57052e-06
-5.82129e-05
-3.04395e-06
-6.13773e-05
-4.40408e-06
-6.23422e-05
-5.66896e-06
-6.28716e-05
-6.85872e-06
-6.32468e-05
-7.99379e-06
-6.35442e-05
-9.0952e-06
-6.37872e-05
-1.01849e-05
-6.39778e-05
-1.12858e-05
-6.41069e-05
-1.24217e-05
-6.41583e-05
-1.36167e-05
-6.41106e-05
-1.48951e-05
-6.39393e-05
-1.62808e-05
-6.36175e-05
-1.77963e-05
-6.3117e-05
-1.94625e-05
-6.24095e-05
-2.12969e-05
-6.14671e-05
-2.33136e-05
-6.02627e-05
-2.55212e-05
-5.87709e-05
-2.79223e-05
-5.69685e-05
-3.05116e-05
-5.48346e-05
-3.32759e-05
-5.2351e-05
-3.6192e-05
-4.95026e-05
-4.62743e-05
-3.9226e-05
-1.6014e-06
-5.66114e-05
-3.14549e-06
-5.98332e-05
-4.6066e-06
-6.08811e-05
-5.9983e-06
-6.14799e-05
-7.33787e-06
-6.19072e-05
-8.64361e-06
-6.22385e-05
-9.93471e-06
-6.24961e-05
-1.12313e-05
-6.26813e-05
-1.25545e-05
-6.27839e-05
-1.39255e-05
-6.27874e-05
-1.53656e-05
-6.26707e-05
-1.68954e-05
-6.24097e-05
-1.85342e-05
-6.19788e-05
-2.02997e-05
-6.13518e-05
-2.22068e-05
-6.05027e-05
-2.42674e-05
-5.94065e-05
-2.649e-05
-5.80402e-05
-2.88783e-05
-5.63827e-05
-3.14308e-05
-5.4416e-05
-3.41404e-05
-5.21247e-05
-3.69935e-05
-4.94976e-05
-3.99696e-05
-4.65262e-05
-4.32024e-05
-4.30414e-05
-1.60456e-06
-5.50068e-05
-3.18802e-06
-5.82496e-05
-4.71606e-06
-5.9353e-05
-6.19791e-06
-5.9998e-05
-7.64801e-06
-6.04571e-05
-9.08234e-06
-6.08042e-05
-1.05181e-05
-6.10604e-05
-1.19736e-05
-6.12258e-05
-1.34678e-05
-6.12899e-05
-1.50196e-05
-6.12357e-05
-1.66475e-05
-6.1043e-05
-1.83685e-05
-6.06888e-05
-2.01981e-05
-6.01494e-05
-2.21491e-05
-5.94009e-05
-2.42319e-05
-5.84201e-05
-2.64535e-05
-5.71851e-05
-2.88174e-05
-5.56763e-05
-3.13236e-05
-5.38766e-05
-3.39675e-05
-5.17719e-05
-3.67405e-05
-4.93516e-05
-3.96292e-05
-4.66086e-05
-4.26157e-05
-4.35394e-05
-4.01409e-05
-4.5677e-05
-1.58152e-06
-5.34252e-05
-3.17455e-06
-5.66566e-05
-4.73679e-06
-5.77907e-05
-6.27351e-06
-5.84612e-05
-7.79626e-06
-5.89343e-05
-9.31874e-06
-5.92817e-05
-1.08562e-05
-5.9523e-05
-1.24249e-05
-5.96571e-05
-1.40419e-05
-5.9673e-05
-1.57238e-05
-5.95539e-05
-1.74864e-05
-5.92805e-05
-1.93437e-05
-5.88317e-05
-2.13074e-05
-5.8186e-05
-2.33865e-05
-5.7322e-05
-2.55871e-05
-5.62196e-05
-2.79121e-05
-5.48602e-05
-3.03613e-05
-5.32272e-05
-3.29312e-05
-5.13067e-05
-3.5615e-05
-4.90881e-05
-3.84028e-05
-4.65636e-05
-4.12816e-05
-4.37295e-05
-4.42357e-05
-4.0585e-05
-3.71295e-05
-4.7247e-05
-1.53412e-06
-5.1891e-05
-3.10912e-06
-5.50815e-05
-4.67485e-06
-5.62249e-05
-6.23294e-06
-5.69031e-05
-7.7923e-06
-5.7375e-05
-9.36446e-06
-5.77096e-05
-1.09628e-05
-5.79247e-05
-1.2602e-05
-5.80181e-05
-1.4297e-05
-5.7978e-05
-1.60626e-05
-5.77885e-05
-1.79118e-05
-5.74314e-05
-1.9856e-05
-5.68877e-05
-2.19035e-05
-5.61386e-05
-2.40602e-05
-5.51656e-05
-2.63284e-05
-5.39516e-05
-2.87077e-05
-5.2481e-05
-3.11946e-05
-5.07403e-05
-3.37829e-05
-4.87185e-05
-3.64639e-05
-4.6407e-05
-3.92267e-05
-4.38006e-05
-4.20586e-05
-4.08973e-05
-4.49459e-05
-3.76975e-05
-3.42023e-05
-4.78729e-05
-1.46508e-06
-5.04259e-05
-2.99716e-06
-5.35494e-05
-4.53788e-06
-5.46842e-05
-6.08592e-06
-5.53551e-05
-7.64789e-06
-5.5813e-05
-9.23357e-06
-5.61239e-05
-1.08548e-05
-5.63035e-05
-1.25248e-05
-5.63482e-05
-1.42568e-05
-5.62461e-05
-1.60638e-05
-5.59818e-05
-1.79566e-05
-5.55388e-05
-1.99439e-05
-5.49006e-05
-2.20316e-05
-5.40511e-05
-2.42222e-05
-5.29751e-05
-2.65155e-05
-5.16585e-05
-2.89079e-05
-5.00887e-05
-3.13933e-05
-4.8255e-05
-3.39632e-05
-4.61485e-05
-3.66072e-05
-4.37629e-05
-3.93135e-05
-4.10941e-05
-4.20695e-05
-3.81411e-05
-4.48624e-05
-3.49043e-05
-3.13845e-05
-4.76802e-05
-1.37712e-06
-4.90488e-05
-2.84481e-06
-5.20817e-05
-4.33482e-06
-5.31942e-05
-5.84372e-06
-5.38462e-05
-7.37659e-06
-5.42801e-05
-8.94201e-06
-5.45585e-05
-1.05508e-05
-5.46947e-05
-1.22151e-05
-5.4684e-05
-1.39469e-05
-5.45144e-05
-1.57573e-05
-5.41715e-05
-1.76554e-05
-5.36408e-05
-1.96477e-05
-5.29085e-05
-2.17375e-05
-5.19614e-05
-2.39252e-05
-5.07875e-05
-2.62079e-05
-4.9376e-05
-2.85797e-05
-4.7717e-05
-3.10322e-05
-4.58025e-05
-3.3555e-05
-4.36258e-05
-3.6136e-05
-4.11819e-05
-3.87621e-05
-3.84678e-05
-4.14205e-05
-3.54824e-05
-4.40995e-05
-3.22252e-05
-2.86959e-05
-4.67879e-05
-1.27383e-06
-4.77749e-05
-2.65951e-06
-5.06961e-05
-4.07592e-06
-5.17778e-05
-5.51895e-06
-5.24032e-05
-6.99325e-06
-5.28059e-05
-8.50711e-06
-5.30447e-05
-1.0071e-05
-5.31309e-05
-1.16963e-05
-5.30587e-05
-1.33942e-05
-5.28166e-05
-1.51741e-05
-5.23916e-05
-1.70437e-05
-5.17715e-05
-1.90073e-05
-5.0945e-05
-2.10667e-05
-4.99022e-05
-2.322e-05
-4.86343e-05
-2.54625e-05
-4.71335e-05
-2.77866e-05
-4.5393e-05
-3.01819e-05
-4.34072e-05
-3.26361e-05
-4.11716e-05
-3.51353e-05
-3.86826e-05
-3.76652e-05
-3.59378e-05
-4.02117e-05
-3.29356e-05
-4.2763e-05
-2.96736e-05
-2.61486e-05
-4.53103e-05
-1.15923e-06
-4.66157e-05
-2.44971e-06
-4.94056e-05
-3.77255e-06
-5.04549e-05
-5.12527e-06
-5.10505e-05
-6.51378e-06
-5.14174e-05
-7.94724e-06
-5.16113e-05
-9.4365e-06
-5.16417e-05
-1.09927e-05
-5.15026e-05
-1.26262e-05
-5.11833e-05
-1.43453e-05
-5.06726e-05
-1.6156e-05
-4.99609e-05
-1.80614e-05
-4.90397e-05
-2.00616e-05
-4.79022e-05
-2.21536e-05
-4.65425e-05
-2.43313e-05
-4.4956e-05
-2.65857e-05
-4.31387e-05
-2.89053e-05
-4.10877e-05
-3.1276e-05
-3.88009e-05
-3.3682e-05
-3.62765e-05
-3.61067e-05
-3.3513e-05
-3.85343e-05
-3.05078e-05
-4.09515e-05
-2.72562e-05
-2.37508e-05
-4.33491e-05
-1.03947e-06
-4.55762e-05
-2.22596e-06
-4.82191e-05
-3.43758e-06
-4.92433e-05
-4.67733e-06
-4.98107e-05
-5.95483e-06
-5.01399e-05
-7.28149e-06
-5.02847e-05
-8.66917e-06
-5.02541e-05
-1.01291e-05
-5.00428e-05
-1.16708e-05
-4.96417e-05
-1.33015e-05
-4.9042e-05
-1.5026e-05
-4.82365e-05
-1.68462e-05
-4.72196e-05
-1.87614e-05
-4.59872e-05
-2.07677e-05
-4.45362e-05
-2.28589e-05
-4.28649e-05
-2.50256e-05
-4.09721e-05
-2.72553e-05
-3.8858e-05
-2.95329e-05
-3.65233e-05
-3.18404e-05
-3.39689e-05
-3.41586e-05
-3.11947e-05
-3.64677e-05
-2.81984e-05
-3.87512e-05
-2.49724e-05
-2.15028e-05
-4.09991e-05
-9.22914e-07
-4.46533e-05
-2.00113e-06
-4.71409e-05
-3.08543e-06
-4.8159e-05
-4.19062e-06
-4.87055e-05
-5.3336e-06
-4.89969e-05
-6.52949e-06
-4.90888e-05
-7.79157e-06
-4.8992e-05
-9.13091e-06
-4.87035e-05
-1.05562e-05
-4.82165e-05
-1.20733e-05
-4.75249e-05
-1.3686e-05
-4.66239e-05
-1.53954e-05
-4.55103e-05
-1.72005e-05
-4.41822e-05
-1.9098e-05
-4.26389e-05
-2.10819e-05
-4.0881e-05
-2.31437e-05
-3.89104e-05
-2.52715e-05
-3.67302e-05
-2.74497e-05
-3.4345e-05
-2.9659e-05
-3.17595e-05
-3.18761e-05
-2.89774e-05
-3.40763e-05
-2.59981e-05
-3.62364e-05
-2.28122e-05
-1.93984e-05
-3.83406e-05
-8.23235e-07
-4.38301e-05
-1.79273e-06
-4.61714e-05
-2.73278e-06
-4.7219e-05
-3.68135e-06
-4.7757e-05
-4.66755e-06
-4.80108e-05
-5.71132e-06
-4.80451e-05
-6.8269e-06
-4.78765e-05
-8.02448e-06
-4.7506e-05
-9.31108e-06
-4.693e-05
-1.06912e-05
-4.61449e-05
-1.21673e-05
-4.51479e-05
-1.37403e-05
-4.39374e-05
-1.54097e-05
-4.25129e-05
-1.71733e-05
-4.08754e-05
-1.90273e-05
-3.90271e-05
-2.09653e-05
-3.69724e-05
-2.29779e-05
-3.47177e-05
-2.50508e-05
-3.2272e-05
-2.71646e-05
-2.96457e-05
-2.92928e-05
-2.68491e-05
-3.14031e-05
-2.38876e-05
-3.34613e-05
-2.07537e-05
-1.74183e-05
-3.54413e-05
-7.70195e-07
-4.30599e-05
-1.62649e-06
-4.53151e-05
-2.39867e-06
-4.64468e-05
-3.16556e-06
-4.69901e-05
-3.97367e-06
-4.72027e-05
-4.84712e-06
-4.71716e-05
-5.79906e-06
-4.69246e-05
-6.83696e-06
-4.64681e-05
-7.96508e-06
-4.5802e-05
-9.18585e-06
-4.49242e-05
-1.05007e-05
-4.38331e-05
-1.19107e-05
-4.25275e-05
-1.34163e-05
-4.10074e-05
-1.50176e-05
-3.92741e-05
-1.67141e-05
-3.73307e-05
-1.85036e-05
-3.51829e-05
-2.03813e-05
-3.284e-05
-2.23378e-05
-3.03154e-05
-2.43567e-05
-2.76268e-05