/*--------------------------------*- C++ -*----------------------------------*\
  =========                 |
  \\      /  F ield         | OpenFOAM: The Open Source CFD Toolbox
   \\    /   O peration     | Website:  https://openfoam.org
    \\  /    A nd           | Version:  13
     \\/     M anipulation  |
\*---------------------------------------------------------------------------*/
FoamFile
{
    format      ascii;
    class       volVectorField;
    location    "0.45";
    object      U;
}
// * * * * * * * * * * * * * * * * * * * * * * * * * * * * * * * * * * * * * //

dimensions      [0 1 -1 0 0 0 0];

internalField   nonuniform List<vector> 
2268
(
(-0.0252689 0.00726086 0)
(-0.0124151 -0.00859076 0)
(0.024231 -0.0134552 0)
(0.0597319 -0.0133916 0)
(0.0952992 -0.0126514 0)
(0.129201 -0.011825 0)
(0.161193 -0.0110801 0)
(0.191342 -0.0103855 0)
(0.219584 -0.00966328 0)
(0.245623 -0.00883559 0)
(0.268935 -0.00783852 0)
(0.288818 -0.00662878 0)
(0.304466 -0.00518201 0)
(0.315029 -0.00348159 0)
(0.319715 -0.00150759 0)
(0.31754 0.000644015 0)
(0.307206 0.00350564 0)
(0.286966 0.00731067 0)
(0.254546 0.0123146 0)
(0.207534 0.0184735 0)
(0.146043 0.0252929 0)
(0.0626437 0.029941 0)
(-0.00826051 0.00808843 0)
(-0.00366289 0.0102747 0)
(0.0237829 -0.0179428 0)
(0.0550884 -0.0247222 0)
(0.0870328 -0.0253775 0)
(0.118871 -0.024474 0)
(0.149472 -0.0232192 0)
(0.178589 -0.0219632 0)
(0.206157 -0.0206858 0)
(0.231988 -0.019247 0)
(0.255692 -0.0174859 0)
(0.276668 -0.0152584 0)
(0.294136 -0.0124589 0)
(0.307196 -0.00903489 0)
(0.314889 -0.0049719 0)
(0.316256 -0.000289983 0)
(0.310384 0.00512895 0)
(0.296418 0.0117384 0)
(0.27325 0.0198295 0)
(0.239825 0.029442 0)
(0.195198 0.0399848 0)
(0.140738 0.0498047 0)
(0.0731962 0.0526706 0)
(0.0199961 0.0185573 0)
(0.0197389 -8.97403e-05 0)
(0.0467214 -0.0313443 0)
(0.0757755 -0.0386755 0)
(0.104261 -0.0394068 0)
(0.132661 -0.0381388 0)
(0.160287 -0.036361 0)
(0.186875 -0.0345054 0)
(0.212221 -0.0325318 0)
(0.236004 -0.0302282 0)
(0.25773 -0.0273452 0)
(0.276714 -0.0236505 0)
(0.292094 -0.0189796 0)
(0.302876 -0.013236 0)
(0.308003 -0.00641692 0)
(0.306502 0.00138993 0)
(0.297617 0.0103741 0)
(0.280902 0.02078 0)
(0.256002 0.0330064 0)
(0.222816 0.046965 0)
(0.181469 0.0617565 0)
(0.134145 0.0749694 0)
(0.0791525 0.0789648 0)
(0.037589 0.0437583 0)
(0.0369174 -0.0209494 0)
(0.0622055 -0.0460845 0)
(0.0900913 -0.052407 0)
(0.115793 -0.0529498 0)
(0.141416 -0.0514206 0)
(0.166658 -0.0492733 0)
(0.191239 -0.0469262 0)
(0.214827 -0.0442935 0)
(0.236972 -0.0410932 0)
(0.257081 -0.0369921 0)
(0.274385 -0.0316728 0)
(0.287937 -0.0248763 0)
(0.296647 -0.0164908 0)
(0.299356 -0.00653854 0)
(0.295074 0.0047125 0)
(0.283319 0.0172325 0)
(0.264112 0.0311362 0)
(0.237808 0.0467982 0)
(0.205107 0.0640735 0)
(0.166906 0.0816866 0)
(0.125881 0.0966889 0)
(0.0805272 0.101704 0)
(0.0467121 0.0717457 0)
(0.0472259 -0.0491372 0)
(0.0703072 -0.0606959 0)
(0.0977655 -0.0645461 0)
(0.12169 -0.0645681 0)
(0.145507 -0.0628169 0)
(0.169193 -0.0604486 0)
(0.192442 -0.0577677 0)
(0.214813 -0.0546245 0)
(0.235755 -0.0506727 0)
(0.254583 -0.0455055 0)
(0.270499 -0.0386953 0)
(0.282473 -0.0298777 0)
(0.289272 -0.0188269 0)
(0.289632 -0.0055377 0)
(0.282555 0.00949666 0)
(0.267865 0.0257796 0)
(0.246149 0.0428904 0)
(0.218586 0.0612164 0)
(0.186584 0.0805881 0)
(0.151464 0.0996352 0)
(0.116155 0.115071 0)
(0.0789991 0.121085 0)
(0.0509127 0.100178 0)
(0.0531678 -0.0720573 0)
(0.0719774 -0.0719757 0)
(0.0993082 -0.0737968 0)
(0.122315 -0.0734176 0)
(0.145252 -0.0715652 0)
(0.168135 -0.0691058 0)
(0.190636 -0.0662054 0)
(0.212251 -0.0626622 0)
(0.232367 -0.0580852 0)
(0.250225 -0.0520174 0)
(0.264895 -0.0439784 0)
(0.275449 -0.0335176 0)
(0.280561 -0.0203127 0)
(0.278771 -0.00425578 0)
(0.269052 0.0140989 0)
(0.251361 0.0341932 0)
(0.226967 0.055065 0)
(0.198225 0.075972 0)
(0.167357 0.096361 0)
(0.135708 0.115574 0)
(0.106112 0.130317 0)
(0.0770033 0.137632 0)
(0.0535646 0.129084 0)
(0.0436272 -0.0983318 0)
(0.0610894 -0.0813724 0)
(0.091141 -0.0828136 0)
(0.114222 -0.0821073 0)
(0.137124 -0.0801899 0)
(0.15973 -0.0775871 0)
(0.181797 -0.0742899 0)
(0.202863 -0.0700561 0)
(0.222334 -0.064465 0)
(0.239401 -0.0570354 0)
(0.253323 -0.0474761 0)
(0.26281 -0.0351756 0)
(0.266554 -0.0196962 0)
(0.263048 -0.000998108 0)
(0.251301 0.0198652 0)
(0.231712 0.0420449 0)
(0.206058 0.064938 0)
(0.177163 0.0885107 0)
(0.148132 0.110578 0)
(0.120917 0.129116 0)
(0.0977987 0.142272 0)
(0.077634 0.1516 0)
(0.0582651 0.161788 0)
(0.0167201 -0.124699 0)
(0.0404117 -0.104376 0)
(0.0697509 -0.104037 0)
(0.0935488 -0.101964 0)
(0.116372 -0.0996123 0)
(0.138322 -0.0967172 0)
(0.159385 -0.0929249 0)
(0.179337 -0.0878108 0)
(0.197796 -0.0808145 0)
(0.214307 -0.0712387 0)
(0.228289 -0.0582017 0)
(0.238782 -0.0412842 0)
(0.244354 -0.0201546 0)
(0.243049 0.00443727 0)
(0.233016 0.0303852 0)
(0.212483 0.0544054 0)
(0.183297 0.0765729 0)
(0.154812 0.0996663 0)
(0.130796 0.120938 0)
(0.109455 0.138875 0)
(0.0944919 0.149772 0)
(0.084848 0.160185 0)
(0.0748287 0.200213 0)
(-0.133673 0.0428881 0)
(-0.115166 -0.00160111 0)
(-0.0673506 -0.0284186 0)
(0.0145448 -0.0319869 0)
(0.111742 -0.0623125 0)
(0.302418 -0.104334 0)
(0.673912 -0.146306 0)
(1.10097 -0.123928 0)
(1.40108 -0.0819754 0)
(1.49412 -0.0172308 0)
(1.40637 0.0289249 0)
(1.21195 0.0462579 0)
(1.00033 0.0475683 0)
(0.810125 0.0467317 0)
(0.634566 0.0481373 0)
(0.457654 0.0536591 0)
(0.27855 0.0630769 0)
(0.046894 0.0653315 0)
(-0.109941 -0.0294828 0)
(-0.0991447 0.0640806 0)
(-0.0447234 -0.0111725 0)
(0.0133069 -0.0520399 0)
(0.0838854 -0.0511407 0)
(0.177564 -0.0847888 0)
(0.401239 -0.14918 0)
(0.890864 -0.288324 0)
(1.37667 -0.199086 0)
(1.65377 -0.0399648 0)
(1.64747 0.0245583 0)
(1.50193 0.104259 0)
(1.27543 0.133607 0)
(1.04678 0.129259 0)
(0.846474 0.120425 0)
(0.664844 0.116337 0)
(0.488764 0.119062 0)
(0.317899 0.125306 0)
(0.130925 0.118231 0)
(0.0135358 -0.00596228 0)
(-0.0735409 0.084134 0)
(0.00708931 -0.0331502 0)
(0.0628568 -0.0794458 0)
(0.125397 -0.0716188 0)
(0.229945 -0.116955 0)
(0.6742 -0.252065 0)
(0.89278 -0.509145 0)
(1.00104 -0.471125 0)
(1.38738 -0.210015 0)
(1.75485 0.105407 0)
(1.51635 0.197754 0)
(1.26776 0.233228 0)
(1.03832 0.217759 0)
(0.843921 0.1991 0)
(0.668829 0.189133 0)
(0.501465 0.189394 0)
(0.341718 0.193371 0)
(0.178722 0.176477 0)
(0.0827344 0.0408362 0)
(-0.0504472 0.0943145 0)
(0.050598 -0.0625799 0)
(0.110733 -0.123612 0)
(0.180799 -0.0700587 0)
(0.461986 -0.212217 0)
(0.763025 -0.545361 0)
(0.790976 -0.52027 0)
(0.836403 -0.479543 0)
(0.936115 -0.361782 0)
(1.21164 -0.0317483 0)
(1.40252 0.29603 0)
(1.18673 0.324934 0)
(0.988279 0.301359 0)
(0.818626 0.274247 0)
(0.659532 0.259188 0)
(0.504836 0.256851 0)
(0.355943 0.258023 0)
(0.206299 0.233528 0)
(0.110373 0.101671 0)
(-0.0230978 0.0857033 0)
(0.0970564 -0.090976 0)
(0.181427 -0.173982 0)
(0.317224 -0.260159 0)
(0.789299 -0.380211 0)
(0.698905 -0.504184 0)
(0.739888 -0.522027 0)
(0.770222 -0.489009 0)
(0.812868 -0.375961 0)
(0.892762 -0.125905 0)
(1.07185 0.274493 0)
(1.0507 0.383751 0)
(0.908845 0.365699 0)
(0.777463 0.338904 0)
(0.640811 0.322611 0)
(0.501247 0.319261 0)
(0.363203 0.318488 0)
(0.222063 0.290102 0)
(0.121517 0.168291 0)
(0.0149797 0.0679915 0)
(0.169473 -0.119951 0)
(0.28392 -0.221514 0)
(0.448143 -0.326443 0)
(0.636847 -0.490062 0)
(0.67762 -0.509643 0)
(0.70224 -0.527089 0)
(0.717861 -0.498059 0)
(0.734041 -0.382902 0)
(0.764697 -0.164965 0)
(0.818594 0.202361 0)
(0.893771 0.412198 0)
(0.821454 0.406899 0)
(0.728601 0.389884 0)
(0.615975 0.377497 0)
(0.492378 0.375767 0)
(0.365043 0.374975 0)
(0.230679 0.346689 0)
(0.126848 0.236933 0)
(0.14009 0.0344202 0)
(0.283631 -0.193464 0)
(0.402101 -0.311438 0)
(0.541274 -0.407065 0)
(0.615188 -0.481365 0)
(0.651376 -0.513903 0)
(0.668246 -0.532315 0)
(0.673564 -0.50046 0)
(0.666976 -0.386997 0)
(0.661229 -0.158927 0)
(0.674361 0.20227 0)
(0.746879 0.399983 0)
(0.738899 0.428908 0)
(0.678365 0.427683 0)
(0.587858 0.423814 0)
(0.479628 0.426439 0)
(0.362516 0.427788 0)
(0.234524 0.402484 0)
(0.129847 0.308331 0)
(0.283225 -0.19228 0)
(0.364262 -0.267855 0)
(0.454155 -0.358868 0)
(0.53953 -0.432112 0)
(0.598394 -0.493115 0)
(0.630842 -0.522679 0)
(0.642016 -0.534464 0)
(0.635739 -0.499418 0)
(0.608864 -0.385925 0)
(0.558201 -0.152639 0)
(0.578923 0.197555 0)
(0.645627 0.378274 0)
(0.667471 0.4378 0)
(0.630487 0.454713 0)
(0.55845 0.462426 0)
(0.46401 0.4717 0)
(0.356327 0.477175 0)
(0.234809 0.457014 0)
(0.131482 0.378828 0)
(0.0069616 -0.133111 0)
(0.0264362 -0.120635 0)
(0.0515414 -0.11799 0)
(0.0738919 -0.114928 0)
(0.0953296 -0.111774 0)
(0.115782 -0.108194 0)
(0.135176 -0.103729 0)
(0.153354 -0.0978697 0)
(0.170054 -0.0900072 0)
(0.184905 -0.0794481 0)
(0.197489 -0.0654514 0)
(0.207213 -0.0468951 0)
(0.213343 -0.0227893 0)
(0.214865 0.00768712 0)
(0.210093 0.044964 0)
(0.196532 0.0859494 0)
(0.171851 0.116429 0)
(0.133592 0.125631 0)
(0.111905 0.135961 0)
(0.102689 0.148765 0)
(0.103719 0.153133 0)
(0.118013 0.152451 0)
(0.173643 0.166952 0)
(0.00523434 -0.144438 0)
(0.0209053 -0.141621 0)
(0.041555 -0.138164 0)
(0.0609328 -0.134455 0)
(0.0798913 -0.130436 0)
(0.0981174 -0.125842 0)
(0.115426 -0.120239 0)
(0.131652 -0.113071 0)
(0.146597 -0.103667 0)
(0.16002 -0.09127 0)
(0.171661 -0.0750185 0)
(0.181287 -0.0540504 0)
(0.188715 -0.0275101 0)
(0.193898 0.00504876 0)
(0.19694 0.0433747 0)
(0.197873 0.085803 0)
(0.196371 0.127324 0)
(0.190636 0.158954 0)
(0.172896 0.159394 0)
(0.14526 0.157172 0)
(0.154985 0.14749 0)
(0.181985 0.123638 0)
(0.231433 0.0834747 0)
(0.00789779 -0.154783 0)
(0.0194583 -0.159444 0)
(0.0374138 -0.156411 0)
(0.0540715 -0.152559 0)
(0.070701 -0.148053 0)
(0.0868696 -0.142719 0)
(0.102357 -0.136193 0)
(0.117025 -0.127946 0)
(0.130752 -0.117287 0)
(0.143425 -0.103443 0)
(0.154969 -0.085634 0)
(0.165406 -0.0630358 0)
(0.1749 -0.0350171 0)
(0.183888 -0.00145736 0)
(0.193338 0.0368552 0)
(0.204552 0.0778485 0)
(0.21857 0.117372 0)
(0.235146 0.149053 0)
(0.251233 0.163574 0)
(0.26698 0.157496 0)
(0.271918 0.123805 0)
(0.287252 0.0853902 0)
(0.33707 0.031115 0)
(0.0126428 -0.171578 0)
(0.0184224 -0.177602 0)
(0.0351775 -0.174623 0)
(0.0498317 -0.170567 0)
(0.064682 -0.165551 0)
(0.0791685 -0.159493 0)
(0.0930791 -0.152107 0)
(0.106378 -0.142928 0)
(0.119101 -0.131251 0)
(0.131298 -0.116341 0)
(0.143064 -0.0975187 0)
(0.154646 -0.0742164 0)
(0.1664 -0.0459255 0)
(0.178923 -0.0129165 0)
(0.193372 0.0235231 0)
(0.21146 0.0607728 0)
(0.23506 0.0950988 0)
(0.264918 0.121946 0)
(0.299623 0.135543 0)
(0.337919 0.13085 0)
(0.377312 0.0977354 0)
(0.414936 0.0385544 0)
(0.458804 -0.034308 0)
(0.0200119 -0.197796 0)
(0.0159379 -0.197055 0)
(0.0328442 -0.191956 0)
(0.0467091 -0.186588 0)
(0.0606891 -0.180518 0)
(0.0740441 -0.173592 0)
(0.0866268 -0.165473 0)
(0.0985639 -0.15575 0)
(0.109996 -0.143874 0)
(0.121544 -0.129168 0)
(0.133441 -0.110884 0)
(0.145971 -0.0882965 0)
(0.159795 -0.0611452 0)
(0.175407 -0.0299578 0)
(0.193785 0.00351196 0)
(0.216524 0.0359317 0)
(0.245721 0.0636569 0)
(0.282774 0.0834045 0)
(0.326822 0.0918382 0)
(0.375449 0.0845217 0)
(0.425291 0.0550562 0)
(0.472941 0.000882535 0)
(0.518224 -0.072249 0)
(0.0367991 -0.196873 0)
(0.00199262 -0.196266 0)
(0.0228177 -0.19583 0)
(0.0380351 -0.192749 0)
(0.053319 -0.187558 0)
(0.0675861 -0.181075 0)
(0.0807153 -0.17321 0)
(0.0926415 -0.163813 0)
(0.103751 -0.152455 0)
(0.113772 -0.138031 0)
(0.124597 -0.120614 0)
(0.137598 -0.100144 0)
(0.15295 -0.0758739 0)
(0.17154 -0.0486273 0)
(0.193996 -0.0204957 0)
(0.22127 0.00507652 0)
(0.254607 0.0246513 0)
(0.295233 0.0366222 0)
(0.343022 0.0393922 0)
(0.395285 0.0294706 0)
(0.448481 0.00133006 0)
(0.499259 -0.0467033 0)
(0.546044 -0.110722 0)
(0.128985 -0.206401 0)
(0.0277053 -0.182174 0)
(0.0374436 -0.200889 0)
(0.0387512 -0.195503 0)
(0.0494808 -0.187529 0)
(0.0613814 -0.179477 0)
(0.0729037 -0.170798 0)
(0.0830498 -0.161528 0)
(0.0907017 -0.150375 0)
(0.0961534 -0.137698 0)
(0.107166 -0.12507 0)
(0.121641 -0.107951 0)
(0.141074 -0.08679 0)
(0.165968 -0.0629863 0)
(0.196258 -0.0386948 0)
(0.231771 -0.0184723 0)
(0.269876 -0.0072853 0)
(0.311855 -0.00664751 0)
(0.359925 -0.0126284 0)
(0.411832 -0.0254298 0)
(0.465302 -0.0521896 0)
(0.517353 -0.094927 0)
(0.565693 -0.152351 0)
(0.0190504 -0.317323 0)
(0.0506196 -0.154278 0)
(0.0768499 -0.226291 0)
(0.0900268 -0.245296 0)
(0.102751 -0.245123 0)
(0.114274 -0.236139 0)
(0.123824 -0.221905 0)
(0.129423 -0.202032 0)
(0.129277 -0.184768 0)
(0.122425 -0.152533 0)
(0.101887 -0.139319 0)
(0.105126 -0.116808 0)
(0.119637 -0.0937416 0)
(0.142128 -0.068554 0)
(0.17515 -0.0412308 0)
(0.234044 -0.0213343 0)
(0.295807 -0.0288194 0)
(0.340778 -0.0378782 0)
(0.384618 -0.0460829 0)
(0.437154 -0.0626609 0)
(0.493083 -0.09431 0)
(0.54727 -0.142911 0)
(0.598214 -0.199919 0)
(-0.00754997 -0.312717 0)
(0.0411974 -0.227254 0)
(0.0769712 -0.234435 0)
(0.0966427 -0.235782 0)
(0.111572 -0.230093 0)
(0.124207 -0.219855 0)
(0.135034 -0.205825 0)
(0.145877 -0.187365 0)
(0.155406 -0.158388 0)
(0.16566 -0.152073 0)
(0.177615 -0.146847 0)
(0.192576 -0.164125 0)
(0.210872 -0.1715 0)
(0.234752 -0.174837 0)
(0.265893 -0.188518 0)
(0.297694 -0.179581 0)
(0.28566 -0.0764314 0)
(0.339113 -0.0474227 0)
(0.396912 -0.0491357 0)
(0.480197 -0.0679196 0)
(0.558755 -0.131142 0)
(0.598062 -0.180766 0)
(0.635982 -0.230335 0)
(-0.00590438 -0.32478 0)
(0.0334264 -0.270119 0)
(0.0647707 -0.260395 0)
(0.086789 -0.253238 0)
(0.104148 -0.243782 0)
(0.119368 -0.231723 0)
(0.133831 -0.216989 0)
(0.148722 -0.199423 0)
(0.168556 -0.180699 0)
(0.191458 -0.159663 0)
(0.215529 -0.1585 0)
(0.238885 -0.159276 0)
(0.25917 -0.156431 0)
(0.280927 -0.152059 0)
(0.302706 -0.145338 0)
(0.324453 -0.153212 0)
(0.358527 -0.178661 0)
(0.421226 -0.235047 0)
(0.485558 -0.279376 0)
(0.555021 -0.313184 0)
(0.575379 -0.19972 0)
(0.63338 -0.187605 0)
(0.687677 -0.239915 0)
(-0.00173335 -0.337418 0)
(0.0263752 -0.302059 0)
(0.0512616 -0.285722 0)
(0.0722295 -0.273661 0)
(0.0906822 -0.261807 0)
(0.108115 -0.248921 0)
(0.125836 -0.234588 0)
(0.145115 -0.218878 0)
(0.167563 -0.202653 0)
(0.194629 -0.190724 0)
(0.2231 -0.183555 0)
(0.248902 -0.1804 0)
(0.273051 -0.177131 0)
(0.297463 -0.173442 0)
(0.325159 -0.169971 0)
(0.357783 -0.166443 0)
(0.398942 -0.177324 0)
(0.444051 -0.21046 0)
(0.483521 -0.240266 0)
(0.51532 -0.26263 0)
(0.547427 -0.308851 0)
(0.604952 -0.359066 0)
(0.645925 -0.41019 0)
(5.54699e-05 -0.348407 0)
(0.0196356 -0.325154 0)
(0.0389185 -0.307457 0)
(0.0575545 -0.293433 0)
(0.0755739 -0.280666 0)
(0.0936579 -0.267971 0)
(0.112689 -0.254898 0)
(0.133569 -0.241543 0)
(0.157187 -0.228667 0)
(0.183707 -0.217939 0)
(0.211407 -0.211552 0)
(0.238543 -0.207806 0)
(0.265451 -0.205127 0)
(0.293315 -0.203445 0)
(0.323586 -0.203166 0)
(0.358368 -0.20752 0)
(0.396855 -0.220038 0)
(0.43219 -0.242672 0)
(0.460329 -0.265474 0)
(0.488342 -0.28378 0)
(0.521101 -0.294821 0)
(0.557935 -0.3351 0)
(0.586718 -0.364608 0)
(0.000181073 -0.356751 0)
(0.0137589 -0.34152 0)
(0.0284773 -0.324867 0)
(0.0442849 -0.31086 0)
(0.0607251 -0.298388 0)
(0.0780033 -0.2866 0)
(0.0966072 -0.27512 0)
(0.117064 -0.264001 0)
(0.13978 -0.253748 0)
(0.164708 -0.245319 0)
(0.190963 -0.239512 0)
(0.217711 -0.235905 0)
(0.24504 -0.234007 0)
(0.273446 -0.234001 0)
(0.303586 -0.23655 0)
(0.335772 -0.243122 0)
(0.368385 -0.256127 0)
(0.397686 -0.274717 0)
(0.422133 -0.293621 0)
(0.444483 -0.309864 0)
(0.46897 -0.327887 0)
(0.489939 -0.351429 0)
(0.498957 -0.373 0)
(-0.000376482 -0.362388 0)
(0.00885947 -0.353114 0)
(0.0198226 -0.338645 0)
(0.0327281 -0.325819 0)
(0.0469749 -0.31442 0)
(0.062533 -0.303944 0)
(0.0796126 -0.294124 0)
(0.0984789 -0.284981 0)
(0.119306 -0.276816 0)
(0.141991 -0.270143 0)
(0.166067 -0.265408 0)
(0.191076 -0.262572 0)
(0.216907 -0.261596 0)
(0.243614 -0.262739 0)
(0.271213 -0.266516 0)
(0.299365 -0.273792 0)
(0.326657 -0.285288 0)
(0.350977 -0.300157 0)
(0.371507 -0.315782 0)
(0.389259 -0.330687 0)
(0.40481 -0.345564 0)
(0.414832 -0.362536 0)
(0.415845 -0.374917 0)
(-0.00111608 -0.365531 0)
(0.0048401 -0.361105 0)
(0.0126318 -0.349232 0)
(0.0227504 -0.33816 0)
(0.0345452 -0.328262 0)
(0.0478867 -0.319317 0)
(0.0628197 -0.311169 0)
(0.079443 -0.303824 0)
(0.0977994 -0.297461 0)
(0.117777 -0.292375 0)
(0.139084 -0.288834 0)
(0.161402 -0.286933 0)
(0.184509 -0.286764 0)
(0.208208 -0.288542 0)
(0.232206 -0.292585 0)
(0.255926 -0.29927 0)
(0.278275 -0.308764 0)
(0.297943 -0.320353 0)
(0.314256 -0.332611 0)
(0.327293 -0.344516 0)
(0.336787 -0.355859 0)
(0.341064 -0.36606 0)
(0.338608 -0.371662 0)
(-0.00186367 -0.366461 0)
(0.00153225 -0.366236 0)
(0.00659579 -0.356983 0)
(0.0141101 -0.347876 0)
(0.0233945 -0.339661 0)
(0.0342936 -0.332322 0)
(0.0467589 -0.325795 0)
(0.0607877 -0.320091 0)
(0.0763464 -0.315315 0)
(0.0933127 -0.311638 0)
(0.111462 -0.309226 0)
(0.130524 -0.308185 0)
(0.150225 -0.308614 0)
(0.170252 -0.310649 0)
(0.190189 -0.314443 0)
(0.209434 -0.320109 0)
(0.227138 -0.327551 0)
(0.24239 -0.3362 0)
(0.254601 -0.345115 0)
(0.263514 -0.353444 0)
(0.268718 -0.360541 0)
(0.269441 -0.365441 0)
(0.264976 -0.366025 0)
(-0.00262808 -0.365574 0)
(-0.00126645 -0.36893 0)
(0.00149813 -0.362182 0)
(0.00658552 -0.355057 0)
(0.0134066 -0.348546 0)
(0.0218038 -0.342784 0)
(0.031676 -0.337777 0)
(0.0429585 -0.333543 0)
(0.0555704 -0.330145 0)
(0.0693769 -0.327676 0)
(0.0841762 -0.326233 0)
(0.0997168 -0.325884 0)
(0.115707 -0.326689 0)
(0.131797 -0.328706 0)
(0.147549 -0.331968 0)
(0.162411 -0.336438 0)
(0.175711 -0.341912 0)
(0.186774 -0.347909 0)
(0.19509 -0.353724 0)
(0.200332 -0.35862 0)
(0.202137 -0.361864 0)
(0.20019 -0.36249 0)
(0.194087 -0.359059 0)
(-0.00328664 -0.363193 0)
(-0.00363444 -0.369511 0)
(-0.00287 -0.365089 0)
(-1.90413e-05 -0.359852 0)
(0.00446113 -0.354966 0)
(0.0104066 -0.350679 0)
(0.0176912 -0.347049 0)
(0.0262133 -0.344101 0)
(0.0358631 -0.34187 0)
(0.0464944 -0.340398 0)
(0.0579131 -0.339725 0)
(0.0698783 -0.339874 0)
(0.0821012 -0.340854 0)
(0.0942372 -0.342652 0)
(0.105875 -0.34522 0)
(0.116532 -0.348437 0)
(0.125671 -0.352058 0)
(0.132768 -0.355664 0)
(0.137403 -0.358689 0)
(0.139273 -0.360497 0)
(0.138115 -0.360396 0)
(0.133816 -0.357531 0)
(0.126119 -0.350815 0)
(-0.00384034 -0.359478 0)
(-0.00567558 -0.368319 0)
(-0.00666334 -0.365961 0)
(-0.00582323 -0.36243 0)
(-0.00353014 -0.359035 0)
(7.90451e-05 -0.356082 0)
(0.00486993 -0.353661 0)
(0.0107148 -0.351806 0)
(0.0174871 -0.350533 0)
(0.0250335 -0.349845 0)
(0.0331634 -0.34974 0)
(0.0416468 -0.350195 0)
(0.0502103 -0.35117 0)
(0.058534 -0.3526 0)
(0.0662497 -0.354379 0)
(0.0729476 -0.356344 0)
(0.078195 -0.358237 0)
(0.0815805 -0.35969 0)
(0.0827659 -0.360233 0)
(0.081508 -0.359326 0)
(0.0776201 -0.356363 0)
(0.0711125 -0.350627 0)
(0.0618098 -0.341239 0)
(-0.00430806 -0.354608 0)
(-0.00744364 -0.365585 0)
(-0.00997563 -0.365023 0)
(-0.0109319 -0.362997 0)
(-0.0106301 -0.360914 0)
(-0.00918704 -0.359123 0)
(-0.00674175 -0.357736 0)
(-0.00342527 -0.356783 0)
(0.00062652 -0.356265 0)
(0.00525842 -0.356159 0)
(0.0102809 -0.356427 0)
(0.0154781 -0.35701 0)
(0.0205981 -0.357827 0)
(0.0253534 -0.358773 0)
(0.0294243 -0.359709 0)
(0.0324678 -0.360447 0)
(0.0341358 -0.360736 0)
(0.0341041 -0.360251 0)
(0.0321094 -0.358598 0)
(0.0279669 -0.355325 0)
(0.0215563 -0.349926 0)
(0.0129476 -0.341813 0)
(0.00204117 -0.33028 0)
(-0.00469852 -0.348742 0)
(-0.00896339 -0.361499 0)
(-0.012851 -0.362479 0)
(-0.0154023 -0.361757 0)
(-0.016891 -0.360802 0)
(-0.0174154 -0.359994 0)
(-0.0171141 -0.359455 0)
(-0.0161212 -0.359215 0)
(-0.0145773 -0.359262 0)
(-0.0126375 -0.35955 0)
(-0.0104796 -0.360014 0)
(-0.00830517 -0.360566 0)
(-0.0063421 -0.361096 0)
(-0.00484312 -0.361471 0)
(-0.00408111 -0.361531 0)
(-0.00433952 -0.36108 0)
(-0.0058972 -0.35988 0)
(-0.00900652 -0.357646 0)
(-0.0138673 -0.354047 0)
(-0.0206078 -0.348714 0)
(-0.0293004 -0.341235 0)
(-0.0398309 -0.331159 0)
(-0.0522097 -0.317961 0)
(-0.00501585 -0.342031 0)
(-0.0102461 -0.356242 0)
(-0.0153065 -0.358527 0)
(-0.0192553 -0.358912 0)
(-0.0223295 -0.358904 0)
(-0.0246105 -0.358903 0)
(-0.0262334 -0.359038 0)
(-0.0273325 -0.359335 0)
(-0.0280475 -0.359769 0)
(-0.0285298 -0.360281 0)
(-0.028947 -0.360784 0)
(-0.0294839 -0.361169 0)
(-0.0303435 -0.361306 0)
(-0.0317441 -0.361044 0)
(-0.0339141 -0.360213 0)
(-0.0370834 -0.358618 0)
(-0.0414712 -0.356041 0)
(-0.0472692 -0.352233 0)
(-0.0546211 -0.346921 0)
(-0.0636085 -0.33981 0)
(-0.0742662 -0.330583 0)
(-0.0864579 -0.318899 0)
(-0.100135 -0.304385 0)
(-0.00525819 -0.334623 0)
(-0.0112916 -0.34999 0)
(-0.0173449 -0.35336 0)
(-0.0224945 -0.354665 0)
(-0.0269453 -0.355434 0)
(-0.030763 -0.356075 0)
(-0.0340773 -0.356721 0)
(-0.0370194 -0.357394 0)
(-0.0397251 -0.35806 0)
(-0.0423391 -0.358648 0)
(-0.0450173 -0.359057 0)
(-0.047927 -0.359163 0)
(-0.051246 -0.358824 0)
(-0.0551595 -0.357881 0)
(-0.0598551 -0.356162 0)
(-0.0655152 -0.353481 0)
(-0.0723075 -0.349638 0)
(-0.0803724 -0.344422 0)
(-0.0898077 -0.33761 0)
(-0.100657 -0.328972 0)
(-0.112929 -0.31827 0)
(-0.126483 -0.305265 0)
(-0.141231 -0.289692 0)
(-0.00542421 -0.326669 0)
(-0.0120982 -0.342918 0)
(-0.0189641 -0.347171 0)
(-0.0251172 -0.349223 0)
(-0.0307334 -0.350608 0)
(-0.0358632 -0.35174 0)
(-0.0406288 -0.352752 0)
(-0.0451557 -0.35366 0)
(-0.0495732 -0.354424 0)
(-0.0540172 -0.354963 0)
(-0.0586307 -0.355169 0)
(-0.0635628 -0.35491 0)
(-0.0689667 -0.354037 0)
(-0.0749966 -0.352391 0)
(-0.0818031 -0.349804 0)
(-0.089527 -0.346101 0)
(-0.0982919 -0.341106 0)
(-0.108196 -0.33464 0)
(-0.119299 -0.326523 0)
(-0.131615 -0.316579 0)
(-0.145138 -0.30464 0)
(-0.159729 -0.290541 0)
(-0.175278 -0.274111 0)
(-0.00551103 -0.318319 0)
(-0.0126628 -0.335203 0)
(-0.0201628 -0.340153 0)
(-0.0271233 -0.342791 0)
(-0.0336934 -0.344647 0)
(-0.0399093 -0.346135 0)
(-0.0458839 -0.347383 0)
(-0.0517349 -0.348405 0)
(-0.0575831 -0.349155 0)
(-0.0635541 -0.349546 0)
(-0.0697772 -0.349464 0)
(-0.076383 -0.348775 0)
(-0.0835015 -0.347333 0)
(-0.0912584 -0.34498 0)
(-0.099771 -0.341558 0)
(-0.109144 -0.336908 0)
(-0.119464 -0.330874 0)
(-0.130794 -0.323306 0)
(-0.143163 -0.314063 0)
(-0.156564 -0.303014 0)
(-0.17098 -0.290041 0)
(-0.186282 -0.275042 0)
(-0.202345 -0.25791 0)
(-0.00551917 -0.309728 0)
(-0.0129875 -0.327022 0)
(-0.0209452 -0.332496 0)
(-0.0285191 -0.335575 0)
(-0.0358342 -0.33777 0)
(-0.0429126 -0.339493 0)
(-0.0498563 -0.340868 0)
(-0.0567739 -0.341903 0)
(-0.0637765 -0.342546 0)
(-0.0709783 -0.342709 0)
(-0.0784944 -0.342277 0)
(-0.0864379 -0.341117 0)
(-0.0949168 -0.339087 0)
(-0.104031 -0.336039 0)
(-0.113868 -0.331827 0)
(-0.124503 -0.326308 0)
(-0.13599 -0.319346 0)
(-0.148363 -0.310818 0)
(-0.161627 -0.300613 0)
(-0.175758 -0.288636 0)
(-0.190735 -0.27481 0)
(-0.206435 -0.259075 0)
(-0.222728 -0.241372 0)
(-0.00544928 -0.301047 0)
(-0.0130771 -0.318545 0)
(-0.0213221 -0.324389 0)
(-0.0293208 -0.327775 0)
(-0.0371772 -0.330193 0)
(-0.0448997 -0.332046 0)
(-0.0525791 -0.333453 0)
(-0.0603136 -0.334416 0)
(-0.0682043 -0.33488 0)
(-0.0763537 -0.334755 0)
(-0.0848631 -0.333927 0)
(-0.0938286 -0.332271 0)
(-0.103338 -0.329651 0)
(-0.113468 -0.325933 0)
(-0.124282 -0.320983 0)
(-0.135826 -0.314674 0)
(-0.14813 -0.306893 0)
(-0.161204 -0.297537 0)
(-0.175032 -0.28652 0)
(-0.18958 -0.273775 0)
(-0.20482 -0.259254 0)
(-0.220643 -0.242927 0)
(-0.236915 -0.224768 0)
(-0.00530681 -0.292422 0)
(-0.0129442 -0.309939 0)
(-0.0213135 -0.31601 0)
(-0.0295555 -0.319587 0)
(-0.0377566 -0.322124 0)
(-0.0459129 -0.324018 0)
(-0.0541038 -0.325377 0)
(-0.0624173 -0.326199 0)
(-0.0709442 -0.326426 0)
(-0.0797756 -0.325967 0)
(-0.0889996 -0.324714 0)
(-0.0986968 -0.322549 0)
(-0.108937 -0.319348 0)
(-0.119776 -0.31499 0)
(-0.131255 -0.309357 0)
(-0.143398 -0.302339 0)
(-0.156214 -0.293841 0)
(-0.169691 -0.283778 0)
(-0.1838 -0.272085 0)
(-0.198494 -0.258715 0)
(-0.213747 -0.24364 0)
(-0.229453 -0.226849 0)
(-0.245485 -0.208338 0)
(-0.00509776 -0.28399 0)
(-0.0126043 -0.301359 0)
(-0.0209473 -0.307533 0)
(-0.0292604 -0.311195 0)
(-0.0376192 -0.313764 0)
(-0.0460091 -0.31562 0)
(-0.0544989 -0.316865 0)
(-0.0631671 -0.317491 0)
(-0.072095 -0.317435 0)
(-0.0813632 -0.316609 0)
(-0.0910476 -0.314911 0)
(-0.101214 -0.312233 0)
(-0.111917 -0.308466 0)
(-0.123194 -0.303502 0)
(-0.135068 -0.297241 0)
(-0.147543 -0.28959 0)
(-0.160609 -0.280468 0)
(-0.174239 -0.269809 0)
(-0.188392 -0.257563 0)
(-0.203013 -0.243694 0)
(-0.218069 -0.22819 0)
(-0.233468 -0.211051 0)
(-0.249087 -0.192281 0)
(-0.00483232 -0.275877 0)
(-0.0120797 -0.292948 0)
(-0.0202593 -0.299118 0)
(-0.0284823 -0.302776 0)
(-0.0368225 -0.3053 0)
(-0.045257 -0.307055 0)
(-0.0538462 -0.308132 0)
(-0.0626603 -0.308514 0)
(-0.0717724 -0.308138 0)
(-0.0812538 -0.306919 0)
(-0.0911693 -0.304763 0)
(-0.101572 -0.301574 0)
(-0.112503 -0.297258 0)
(-0.123982 -0.291723 0)
(-0.136018 -0.284885 0)
(-0.148599 -0.276669 0)
(-0.1617 -0.267009 0)
(-0.17528 -0.255852 0)
(-0.189286 -0.243158 0)
(-0.203656 -0.228904 0)
(-0.218357 -0.213082 0)
(-0.233293 -0.195697 0)
(-0.248357 -0.176754 0)
(-0.00452078 -0.268191 0)
(-0.0113934 -0.284831 0)
(-0.0192913 -0.29091 0)
(-0.0272756 -0.294493 0)
(-0.0354328 -0.296911 0)
(-0.0437355 -0.298512 0)
(-0.0522381 -0.299373 0)
(-0.0610052 -0.299474 0)
(-0.0701033 -0.298747 0)
(-0.0795958 -0.297114 0)
(-0.0895376 -0.29449 0)
(-0.0999713 -0.290793 0)
(-0.110924 -0.285943 0)
(-0.122405 -0.279868 0)
(-0.134407 -0.272499 0)
(-0.146908 -0.263778 0)
(-0.159867 -0.253652 0)
(-0.173235 -0.242081 0)
(-0.186947 -0.229034 0)
(-0.200935 -0.214492 0)
(-0.215155 -0.198451 0)
(-0.229523 -0.180913 0)
(-0.243934 -0.161879 0)
(-0.00417969 -0.261025 0)
(-0.0105742 -0.277113 0)
(-0.0180925 -0.283042 0)
(-0.0257017 -0.286496 0)
(-0.0335237 -0.288762 0)
(-0.0415305 -0.290165 0)
(-0.0497746 -0.290774 0)
(-0.0583179 -0.290558 0)
(-0.067222 -0.289453 0)
(-0.0765438 -0.287387 0)
(-0.0863297 -0.284285 0)
(-0.0966124 -0.28008 0)
(-0.107409 -0.274711 0)
(-0.118718 -0.26812 0)
(-0.130523 -0.260257 0)
(-0.14279 -0.251079 0)
(-0.155471 -0.240547 0)
(-0.168503 -0.228632 0)
(-0.181814 -0.21531 0)
(-0.195326 -0.200567 0)
(-0.208989 -0.184395 0)
(-0.222709 -0.166789 0)
(-0.236397 -0.147741 0)
(-0.00383144 -0.254452 0)
(-0.00965178 -0.269879 0)
(-0.0167185 -0.275628 0)
(-0.023828 -0.278924 0)
(-0.0311741 -0.281004 0)
(-0.0387335 -0.282178 0)
(-0.0465614 -0.2825 0)
(-0.0547197 -0.281937 0)
(-0.0632672 -0.280429 0)
(-0.0722548 -0.27791 0)
(-0.0817216 -0.27432 0)
(-0.0916922 -0.269606 0)
(-0.102175 -0.263725 0)
(-0.113163 -0.256635 0)
(-0.124631 -0.248304 0)
(-0.136539 -0.238703 0)
(-0.148832 -0.227808 0)
(-0.161439 -0.215601 0)
(-0.174279 -0.202067 0)
(-0.187262 -0.187195 0)
(-0.200321 -0.170972 0)
(-0.213363 -0.153382 0)
(-0.226295 -0.134397 0)
(-0.00351672 -0.248529 0)
(-0.00866432 -0.263186 0)
(-0.0152349 -0.268769 0)
(-0.0217279 -0.271901 0)
(-0.0284672 -0.27378 0)
(-0.0354398 -0.274699 0)
(-0.0427081 -0.274706 0)
(-0.0503362 -0.273767 0)
(-0.0583804 -0.27183 0)
(-0.0668864 -0.268839 0)
(-0.0758864 -0.264749 0)
(-0.0853983 -0.259522 0)
(-0.0954253 -0.25313 0)
(-0.105956 -0.245549 0)
(-0.116962 -0.236761 0)
(-0.128403 -0.226754 0)
(-0.14022 -0.215519 0)
(-0.152338 -0.203052 0)
(-0.164668 -0.189349 0)
(-0.177105 -0.174403 0)
(-0.189565 -0.1582 0)
(-0.20193 -0.140708 0)
(-0.214103 -0.12187 0)
(-0.00330275 -0.243286 0)
(-0.00765412 -0.257068 0)
(-0.0137194 -0.262552 0)
(-0.0194809 -0.265546 0)
(-0.0254896 -0.267221 0)
(-0.0317474 -0.267864 0)
(-0.0383276 -0.267528 0)
(-0.0452963 -0.266186 0)
(-0.0527063 -0.263795 0)
(-0.0605967 -0.260315 0)
(-0.0689931 -0.255713 0)
(-0.0779082 -0.249967 0)
(-0.0873425 -0.243062 0)
(-0.0972844 -0.234987 0)
(-0.10771 -0.225741 0)
(-0.11858 -0.215325 0)
(-0.129842 -0.203749 0)
(-0.141421 -0.191025 0)
(-0.153224 -0.177167 0)
(-0.165133 -0.162181 0)
(-0.177035 -0.146055 0)
(-0.188784 -0.12874 0)
(-0.200249 -0.110146 0)
(-0.00332199 -0.23866 0)
(-0.00667927 -0.251532 0)
(-0.0122677 -0.257063 0)
(-0.0171722 -0.259974 0)
(-0.022329 -0.261447 0)
(-0.0277559 -0.261795 0)
(-0.0335361 -0.261088 0)
(-0.0397336 -0.259316 0)
(-0.0463934 -0.256452 0)
(-0.0535457 -0.252469 0)
(-0.0612086 -0.247349 0)
(-0.069391 -0.241078 0)
(-0.0780938 -0.233654 0)
(-0.0873102 -0.225077 0)
(-0.0970247 -0.215356 0)
(-0.107211 -0.204508 0)
(-0.117828 -0.19256 0)
(-0.128815 -0.179547 0)
(-0.14008 -0.165509 0)
(-0.151501 -0.150477 0)
(-0.162936 -0.134459 0)
(-0.174182 -0.1174 0)
(-0.185055 -0.0991624 0)
(-0.00387386 -0.234352 0)
(-0.00583896 -0.246591 0)
(-0.0109985 -0.252409 0)
(-0.0148895 -0.255311 0)
(-0.0190701 -0.256579 0)
(-0.0235637 -0.256601 0)
(-0.0284521 -0.25549 0)
(-0.0337861 -0.253263 0)
(-0.0395955 -0.249913 0)
(-0.0458969 -0.245424 0)
(-0.0527001 -0.239787 0)
(-0.0600112 -0.232995 0)
(-0.0678343 -0.22505 0)
(-0.0761719 -0.215958 0)
(-0.0850232 -0.205737 0)
(-0.0943822 -0.194414 0)
(-0.104232 -0.182033 0)
(-0.114538 -0.168656 0)
(-0.125234 -0.154357 0)
(-0.136207 -0.139214 0)
(-0.147291 -0.12328 0)
(-0.158232 -0.106528 0)
(-0.168721 -0.0887866 0)
(-0.00566687 -0.229816 0)
(-0.00537566 -0.242305 0)
(-0.0100472 -0.248753 0)
(-0.0127052 -0.251715 0)
(-0.0157829 -0.252736 0)
(-0.0192628 -0.252376 0)
(-0.0231946 -0.25082 0)
(-0.0275961 -0.24812 0)
(-0.032471 -0.244283 0)
(-0.0378179 -0.239301 0)
(-0.0436372 -0.233165 0)
(-0.0499332 -0.225869 0)
(-0.0567153 -0.217412 0)
(-0.0639977 -0.207801 0)
(-0.0717987 -0.197052 0)
(-0.0801387 -0.185199 0)
(-0.089037 -0.172298 0)
(-0.0985037 -0.158433 0)
(-0.108523 -0.14372 0)
(-0.11903 -0.128305 0)
(-0.12988 -0.112331 0)
(-0.140769 -0.0958646 0)
(-0.151228 -0.0787654 0)
(-0.00994558 -0.22492 0)
(-0.00569686 -0.23875 0)
(-0.00950362 -0.246271 0)
(-0.0106465 -0.249338 0)
(-0.0125069 -0.25001 0)
(-0.0149325 -0.249177 0)
(-0.0178802 -0.247132 0)
(-0.021307 -0.243954 0)
(-0.0251804 -0.239652 0)
(-0.0294786 -0.234213 0)
(-0.0341929 -0.22762 0)
(-0.0393266 -0.21986 0)
(-0.0448945 -0.210921 0)
(-0.050922 -0.200804 0)
(-0.0574457 -0.189517 0)
(-0.0645136 -0.177088 0)
(-0.072186 -0.163573 0)
(-0.0805318 -0.149063 0)
(-0.0896192 -0.133711 0)
(-0.0994871 -0.117734 0)
(-0.110095 -0.101417 0)
(-0.121206 -0.0850385 0)
(-0.132193 -0.0686738 0)
(-0.0180206 -0.220562 0)
(-0.00695442 -0.236434 0)