/*--------------------------------*- C++ -*----------------------------------*\
  =========                 |
  \\      /  F ield         | OpenFOAM: The Open Source CFD Toolbox
   \\    /   O peration     | Website:  https://openfoam.org
    \\  /    A nd           | Version:  13
     \\/     M anipulation  |
\*---------------------------------------------------------------------------*/
FoamFile
{
    format      ascii;
    class       volScalarField;
    location    "1.85";
    object      alpha.oil;
}
// * * * * * * * * * * * * * * * * * * * * * * * * * * * * * * * * * * * * * //

dimensions      [];

internalField   nonuniform List<scalar> 
2268
(
6.58146e-15
4.13875e-14
1.5907e-13
4.77027e-13
1.19236e-12
2.75931e-12
6.09191e-12
1.32984e-11
2.88411e-11
5.83595e-11
1.07025e-10
2.00645e-10
3.98303e-10
8.54365e-10
1.97836e-09
4.54656e-09
1.12655e-08
2.26947e-08
2.32629e-08
0.000128986
0.0005014
0.000567274
0.000567337
2.54329e-15
1.16913e-14
5.7989e-14
3.86482e-13
1.39833e-12
3.44405e-12
8.41289e-12
1.90948e-11
4.28692e-11
8.34466e-11
1.70307e-10
3.51334e-10
7.07394e-10
1.45898e-09
3.16752e-09
7.10569e-09
1.84398e-08
4.72203e-08
7.09834e-08
1.24435e-08
1.32001e-06
0.000105109
0.000145021
1.36901e-15
4.13811e-15
1.68842e-14
2.30595e-13
1.49662e-12
3.88687e-12
1.02052e-11
2.43712e-11
5.21711e-11
9.48073e-11
1.91212e-10
3.39468e-10
7.25973e-10
1.34398e-09
2.62762e-09
5.05239e-09
8.58481e-09
1.23182e-08
1.34798e-08
1.25506e-08
1.19916e-08
1.17372e-08
1.2315e-08
1.41774e-15
5.25853e-15
1.72511e-14
7.32138e-14
9.33813e-13
3.45963e-12
1.01643e-11
2.57005e-11
5.46838e-11
1.39369e-10
2.96505e-10
5.77352e-10
1.13647e-09
2.21641e-09
3.84194e-09
5.9644e-09
6.48171e-09
5.77536e-09
5.67188e-09
7.04214e-09
1.16922e-08
2.44813e-08
2.02389e-08
6.96378e-14
6.43226e-13
1.15683e-12
1.15735e-12
1.13665e-12
1.648e-12
5.62403e-12
1.73095e-11
4.22271e-11
8.81667e-11
2.85634e-10
7.53669e-10
1.74478e-09
3.52956e-09
7.00526e-09
1.29539e-08
1.82334e-08
5.19823e-09
5.45508e-09
5.04037e-09
7.39498e-09
8.06155e-09
1.13455e-08
1.4394e-12
1.15226e-11
1.89562e-11
1.80732e-11
1.27334e-11
7.40584e-12
6.32497e-12
1.28426e-11
4.72657e-11
1.53468e-10
3.87556e-10
9.30504e-10
2.29315e-09
4.33096e-09
7.30601e-09
1.44361e-08
1.23144e-07
8.20045e-07
1.55204e-06
1.31023e-06
6.82026e-08
1.77961e-06
1.71718e-05
1.43339e-12
7.37461e-11
8.60633e-11
9.41202e-11
6.39248e-11
3.61485e-11
2.20288e-11
1.79088e-11
2.01673e-11
3.45083e-11
1.2417e-10
3.04628e-10
3.93708e-10
3.95575e-10
3.97729e-10
4.28715e-10
1.97782e-07
2.14433e-06
3.23164e-06
3.30888e-06
8.65762e-06
3.59189e-05
7.40389e-05
1.5699e-09
9.39034e-10
5.44171e-10
3.84315e-10
2.63895e-10
1.35873e-10
9.44912e-11
6.75097e-11
4.89839e-11
4.89302e-11
9.74352e-11
2.41555e-10
3.91438e-10
5.09005e-10
7.72491e-10
7.61023e-09
1.35249e-07
9.3838e-07
2.059e-06
3.77571e-06
1.64787e-05
4.15371e-05
5.93958e-05
0.116483
0.116235
0.091542
0.032368
0.0285109
0.0285125
0.274613
0.330664
0.361931
0.364384
0.354752
0.287999
0.063913
0.0825683
0.131788
0.232733
0.257598
0.256211
0.25621
0.40017
0.40182
0.317225
0.13876
0.0335308
0.0325823
0.0675218
0.102902
0.112711
0.159161
0.22089
0.182828
0.0548378
0.0545245
0.11069
0.243723
0.258859
0.268513
0.415802
0.496889
0.484598
0.661213
0.674764
0.412965
0.0932663
4.9055e-10
1.92194e-12
4.96031e-10
1.92902e-12
0.0581337
0.211053
0.160034
0.0548043
0.113997
0.269419
0.286597
0.325681
0.506785
0.0183573
0.0317642
0.197144
0.620033
0.652437
0.361584
0.00924779
0.000126976
3.28321e-05
1.06548e-05
0.0634087
0.221734
0.251457
0.253601
0.263847
0.261129
0.190034
0.245397
0.506522
0.00715616
0.00624061
0.00514408
0.267355
0.652876
0.520357
0.0797953
0.0129165
0.000808789
0.00961325
0.158376
0.207549
0.252016
0.264244
0.264173
0.264118
0.125169
0.139281
0.508488
0.0407238
0.0216848
0.00557629
0.04001
0.513213
0.681873
0.379529
0.0209675
0.000320892
0.020304
0.205207
0.264139
0.264367
0.264296
0.264249
0.171926
0.0498365
0.0564901
0.508951
0.0434294
0.0366863
0.00808189
0.00518886
0.450044
0.689503
0.610341
0.109762
-8.83305e-15
0.00846839
0.104044
0.24124
0.264242
0.264248
0.12361
0.0134011
0.0135758
0.0317625
0.256554
0.0349928
0.0358825
0.0388056
0.007383
0.441968
0.689484
0.651451
0.142999
-3.63387e-14
-1.1737e-08
0.00190661
0.0256063
0.0824611
0.0660738
0.00295238
0.000417755
0.0424157
0.0371257
0.0422655
6.39305e-09
5.5046e-09
4.46647e-09
3.70083e-09
3.27365e-09
2.76057e-09
1.28369e-09
7.0532e-10
3.87479e-10
2.10829e-10
1.64009e-10
2.26996e-10
4.32109e-10
7.785e-10
1.67188e-09
6.03939e-09
1.86983e-08
-6.14268e-27
-8.0334e-21
7.09444e-07
7.43119e-06
8.17426e-06
7.78059e-06
6.70099e-09
6.15944e-09
5.53459e-09
5.16336e-09
5.60397e-09
5.60659e-09
4.56317e-09
2.13611e-09
1.18574e-09
7.28762e-10
3.48794e-10
2.76834e-10
4.88934e-10
1.36384e-09
1.80871e-09
2.42591e-09
2.19208e-13
2.81222e-09
1.42082e-20
-3.37878e-10
-1.25669e-09
0.00277031
0.0481155
2.88989e-09
2.54411e-09
2.38814e-09
2.31433e-09
2.66651e-09
3.27824e-09
3.26945e-09
2.05652e-09
1.23813e-09
7.52091e-10
4.11466e-10
9.14863e-10
3.00126e-09
-1.50479e-11
-4.64763e-14
-1.41203e-14
-1.74246e-19
0.0028555
0.0206131
0.0755458
0.195022
0.420547
0.663296
2.66589e-19
8.75959e-20
4.14112e-20
8.42899e-27
-5.17096e-25
-4.70226e-12
1.21804e-12
-9.72758e-12
-2.77932e-12
-6.7485e-16
-2.42974e-16
0.00121025
0.00952349
0.0337589
0.0822667
0.173406
0.323442
0.46173
0.567942
0.695385
0.822353
0.883783
0.961601
0.08793
0.401405
0.519324
0.531877
0.492454
0.336186
0.173247
0.177238
0.221611
0.286113
0.354841
0.429583
0.518906
0.616382
0.715629
0.837982
0.916984
0.945129
0.923042
0.920224
0.975933
0.999692
0.999979
0.614508
0.957304
0.981649
0.981928
0.98192
0.919446
0.827167
0.849559
0.917042
0.943671
0.941649
0.929736
0.937684
0.983175
0.983424
0.982026
0.972087
0.957498
0.94695
0.945156
0.956965
0.983241
0.999999
0.85192
0.955576
0.981974
0.981938
0.981735
0.979959
0.976538
0.972163
0.961719
0.94091
0.905016
0.856495
0.79299
0.712804
0.628338
0.521473
0.427886
0.367853
0.348425
0.364172
0.393995
0.4466
0.533197
0.61113
0.57519
0.541493
0.546782
0.534568
0.491602
0.433808
0.366396
0.289812
0.215698
0.152148
0.0988257
0.0541185
0.012909
1.62518e-13
3.48023e-24
6.1189e-05
-1.54351e-19
1.13237e-18
-3.98453e-10
9.2104e-09
0.000181955
0.00493666
0.0595069
0.0761694
0.0798527
0.0529043
0.0119327
2.11423e-07
5.33473e-10
2.83853e-10
3.26605e-10
2.83872e-10
4.99141e-10
2.63265e-10
2.23227e-10
1.06998e-10
2.30347e-10
2.18679e-10
3.47361e-11
-2.40925e-21
-6.6453e-27
4.14107e-08
4.14358e-08
4.10573e-08
7.45445e-08
7.8998e-07
7.7704e-07
7.84828e-07
0.00308016
0.00171518
3.13213e-05
8.32417e-09
4.61677e-08
1.69434e-07
1.38054e-10
4.56637e-05
7.68784e-05
3.51125e-05
6.43644e-07
7.41253e-08
9.01525e-09
9.14843e-11
8.35496e-08
2.67777e-07
2.82834e-07
1.00417e-07
6.18015e-08
6.65302e-08
7.7999e-07
8.46506e-06
1.09756e-06
0.000438323
8.09584e-05
1.51953e-08
1.54424e-08
1.74384e-07
9.80577e-07
5.77036e-05
0.00017242
0.000171911
9.81576e-05
2.28443e-08
2.30738e-08
7.27008e-09
1.13809e-08
4.4994e-07
5.74011e-07
5.40781e-07
5.57132e-07
2.40755e-07
1.18627e-07
9.34611e-07
1.71985e-05
2.77477e-06
6.92393e-06
1.878e-08
1.99497e-08
1.0589e-07
3.94404e-07
1.3158e-05
0.000172414
0.000172413
0.000172414
7.12781e-05
2.28976e-08
2.90359e-08
2.43026e-08
3.70924e-08
3.91335e-07
5.87554e-07
5.23496e-07
4.05564e-07
3.78438e-07
1.62133e-07
8.79238e-07
9.06752e-07
4.03231e-07
1.38645e-07
1.41835e-07
9.49808e-08
1.64876e-07
4.38461e-07
7.23985e-06
0.00011338
0.000172414
0.000115011
3.28428e-08
3.58369e-08
1.20987e-07
3.2164e-08
2.96603e-08
9.57813e-08
2.1315e-07
1.47104e-07
2.33617e-07
2.02723e-07
1.22859e-07
8.11897e-07
9.21466e-07
4.51878e-07
1.35601e-07
1.29228e-07
1.17157e-07
1.9043e-07
3.98452e-07
7.13924e-07
1.42748e-07
2.09092e-05
3.22713e-06
3.27275e-07
4.09638e-07
4.80444e-08
4.16384e-09
7.35229e-09
1.41344e-08
4.51682e-08
4.7812e-08
6.18251e-08
8.24034e-08
6.12566e-08
2.88161e-07
4.9251e-07
1.96261e-07
1.01784e-07
8.83471e-08
1.06553e-07
1.88435e-07
4.5842e-07
6.04349e-07
1.36584e-08
1.34985e-08
5.87897e-08
6.49416e-07
1.28558e-06
4.16453e-09
4.14217e-09
4.93316e-09
4.30709e-09
6.60249e-09
5.22272e-09
1.14707e-08
1.87374e-08
2.07352e-08
6.9921e-08
1.37419e-07
1.05315e-07
8.07834e-08
6.98283e-08
6.06004e-08
4.23187e-08
2.34153e-08
1.4572e-08
1.67099e-08
4.62487e-08
3.70807e-07
1.17477e-06
1.26359e-06
8.46569e-08
4.17026e-09
9.22554e-09
7.63837e-09
5.22438e-09
4.47235e-09
3.16639e-09
2.83265e-09
5.57008e-09
4.61501e-08
9.13971e-08
9.4372e-08
7.65583e-08
5.51228e-08
3.45881e-08
2.00985e-08
1.45321e-08
1.48751e-08
1.957e-08
1.01031e-07
5.34223e-07
1.06453e-06
5.8718e-07
8.30119e-09
8.247e-09
1.28267e-08
1.2797e-08
1.0468e-08
7.30402e-09
4.00385e-09
2.26259e-09
1.71916e-09
3.82213e-08
8.20262e-08
9.16574e-08
7.41494e-08
4.77326e-08
2.5942e-08
1.79788e-08
1.62282e-08
1.66398e-08
2.85313e-08
7.98e-08
1.68572e-07
1.30601e-07
9.79715e-09
1.55175e-08
1.47427e-08
1.16117e-08
1.06931e-08
9.68932e-09
7.47397e-09
5.00495e-09
2.84122e-09
1.89499e-09
3.50619e-08
7.59934e-08
8.91688e-08
7.31878e-08
4.55715e-08
2.63932e-08
1.80138e-08
1.56331e-08
1.54004e-08
1.7341e-08
1.96571e-08
1.25002e-08
5.59312e-09
9.8109e-09
1.7745e-08
1.56347e-08
9.6393e-09
8.17031e-09
7.67784e-09
6.55655e-09
4.87201e-09
3.08223e-09
2.24519e-09
2.54132e-08
5.74256e-08
7.23592e-08
6.56069e-08
4.61014e-08
2.66914e-08
1.66494e-08
1.27018e-08
1.08767e-08
9.00272e-09
6.52876e-09
4.81031e-09
5.57307e-09
8.50286e-09
1.19613e-08
1.09449e-08
7.17121e-09
6.03442e-09
5.73634e-09
5.2902e-09
4.27644e-09
3.00137e-09
2.19984e-09
1.84312e-08
4.35362e-08
5.68625e-08
5.25834e-08
4.14765e-08
2.61385e-08
1.39921e-08
9.34649e-09
7.558e-09
6.57439e-09
5.60442e-09
4.77352e-09
4.52834e-09
4.76044e-09
5.22657e-09
5.21392e-09
4.56219e-09
4.01706e-09
3.92031e-09
3.89681e-09
3.48032e-09
2.67724e-09
2.04713e-09
1.2342e-08
2.87969e-08
3.70063e-08
3.82003e-08
3.30588e-08
2.30885e-08
1.25201e-08
7.05811e-09
5.12688e-09
4.42296e-09
4.18792e-09
3.83494e-09
3.33945e-09
2.89873e-09
2.68318e-09
2.63404e-09
2.58204e-09
2.4616e-09
2.45581e-09
2.45904e-09
2.37615e-09
2.14987e-09
1.73703e-09
7.45346e-09
1.72669e-08
2.22803e-08
2.30242e-08
2.23516e-08
1.85332e-08
1.08585e-08
5.54004e-09
3.42874e-09
2.57197e-09
2.30425e-09
2.30616e-09
2.20481e-09
1.95743e-09
1.71549e-09
1.51524e-09
1.41144e-09
1.37532e-09
1.3991e-09
1.45225e-09
1.44756e-09
1.364e-09
1.23533e-09
4.14347e-09
9.445e-09
1.22443e-08
1.2343e-08
1.16459e-08
1.19988e-08
8.38189e-09
4.18055e-09
2.33236e-09
1.46061e-09
1.13604e-09
1.10447e-09
1.17014e-09
1.16682e-09
1.04886e-09
9.12597e-10
8.15031e-10
7.665e-10
7.606e-10
7.73938e-10
7.77312e-10
7.71317e-10
7.30472e-10
2.21115e-09
4.74781e-09
5.99325e-09
5.87549e-09
5.03184e-09
5.73864e-09
5.14123e-09
2.93548e-09
1.65875e-09
9.49315e-10
6.18925e-10
5.16295e-10
5.39527e-10
5.66461e-10
5.50651e-10
5.03796e-10
4.5081e-10
4.12297e-10
3.96735e-10
3.96958e-10
3.92354e-10
3.76836e-10
3.60607e-10
1.09176e-09
2.16823e-09
2.62907e-09
2.49461e-09
1.92735e-09
2.17616e-09
2.24187e-09
1.58275e-09
9.89765e-10
5.83798e-10
3.36728e-10
2.4712e-10
2.26138e-10
2.42161e-10
2.50948e-10
2.41589e-10
2.2482e-10
2.07281e-10
1.95991e-10
1.8633e-10
1.7924e-10
1.75854e-10
1.63099e-10
4.72172e-10
8.77387e-10
1.02217e-09
9.43155e-10
6.87627e-10
7.24942e-10
8.11297e-10
6.53817e-10
4.60595e-10
2.95831e-10
1.80672e-10
1.14058e-10
9.15221e-11
9.16953e-11
1.01985e-10
1.04792e-10
1.01109e-10
9.43028e-11
8.97149e-11
8.43637e-11
8.01124e-11
7.52762e-11
6.95656e-11
1.74808e-10
3.05957e-10
3.44647e-10
3.11798e-10
2.21388e-10
2.17473e-10
2.48496e-10
2.19412e-10
1.65772e-10
1.15176e-10
7.66604e-11
5.00708e-11
3.63451e-11
3.25163e-11
3.58075e-11
3.93071e-11
4.00629e-11
3.84602e-11
3.6407e-11
3.45742e-11
3.11608e-11
2.88257e-11
2.6385e-11
5.32055e-11
8.96994e-11
9.83531e-11
8.742e-11
6.11461e-11
5.67226e-11
6.44161e-11
6.11864e-11
4.86201e-11
3.57748e-11
2.5208e-11
1.74215e-11
1.26774e-11
1.1104e-11
1.13546e-11
1.28732e-11
1.39638e-11
1.35349e-11
1.32083e-11
1.24046e-11
1.12554e-11
9.95555e-12
9.02941e-12
1.33645e-11
2.17931e-11
2.31372e-11
2.01261e-11
1.38619e-11
1.2305e-11
1.39102e-11
1.42191e-11
1.16312e-11
8.85912e-12
6.55927e-12
4.80772e-12
3.6841e-12
3.18663e-12
3.31448e-12
3.7157e-12
4.08602e-12
4.29448e-12
4.2455e-12
4.13535e-12
3.64379e-12
3.00747e-12
2.63196e-12
2.58721e-12
4.06115e-12
4.3464e-12
3.68258e-12
2.48378e-12
2.14025e-12
2.46051e-12
2.73796e-12
2.3063e-12
1.8129e-12
1.39298e-12
1.06794e-12
8.68313e-13
7.92337e-13
8.4607e-13
9.83741e-13
1.1153e-12
1.17553e-12
1.17455e-12
1.15025e-12
1.05106e-12
8.11305e-13
6.39311e-13
3.79084e-13
5.77955e-13
6.32479e-13
5.18667e-13
3.41622e-13
2.91458e-13
3.52688e-13
4.27713e-13
3.80698e-13
3.09042e-13
2.44574e-13
1.94761e-13
1.64775e-13
1.65813e-13
1.85866e-13
2.21646e-13
2.50636e-13
2.72141e-13
2.7716e-13
2.72843e-13
2.49008e-13
1.71887e-13
1.35156e-13
3.27372e-14
6.10758e-14
6.54074e-14
5.14878e-14
3.31967e-14
2.88581e-14
3.80609e-14
5.01284e-14
4.79119e-14
4.01469e-14
3.29852e-14
2.81426e-14
2.7381e-14
2.96434e-14
3.5562e-14
4.2746e-14
5.15043e-14
5.59599e-14
5.65162e-14
5.48516e-14
4.66866e-14
3.49024e-14
2.38198e-14
2.28793e-15
4.9106e-15
4.86139e-15
3.69484e-15
2.37695e-15
2.22315e-15
3.35473e-15
4.81891e-15
4.97661e-15
4.5556e-15
4.11193e-15
3.88557e-15
4.15248e-15
4.94685e-15
6.22291e-15
7.83993e-15
8.99085e-15
9.63187e-15
1.00039e-14
9.52994e-15
7.93511e-15
5.3821e-15
3.5539e-15
7.07742e-17
1.46378e-16
1.29402e-16
9.81883e-17
1.01485e-16
1.12845e-16
2.05236e-16
3.25031e-16
3.8278e-16
3.61835e-16
3.43215e-16
4.1475e-16
5.14975e-16
6.8323e-16
9.11479e-16
1.16404e-15
1.46085e-15
1.60794e-15
1.54399e-15
1.44202e-15
1.11041e-15
7.44815e-16
5.00883e-16
2.04008e-18
5.63864e-18
4.73346e-18
3.61399e-18
3.37044e-18
4.8392e-18
1.08753e-17
1.93723e-17
2.84865e-17
3.80273e-17
4.12057e-17
5.22967e-17
7.08314e-17
1.0021e-16
1.40213e-16
1.83649e-16
2.13658e-16
2.25999e-16
2.17887e-16
1.80841e-16
1.33233e-16
9.2752e-17
8.85298e-17
6.37042e-20
1.58101e-19
1.30114e-19
1.03845e-19
1.202e-19
2.25573e-19
6.01672e-19
1.2117e-18
2.22966e-18
3.29502e-18
4.14238e-18
5.78026e-18
8.57381e-18
1.29178e-17
1.85022e-17
2.4466e-17
2.84882e-17
2.86608e-17
2.5552e-17
2.00701e-17
1.46778e-17
1.38516e-17
2.77962e-17
1.51984e-21
2.43042e-21
2.01737e-21
1.8736e-21
2.8421e-21
7.74534e-21
2.54899e-20
6.07674e-20
1.43757e-19
2.53328e-19
3.67903e-19
5.78406e-19
9.4131e-19
1.50434e-18
2.20603e-18
2.89764e-18
3.28292e-18
3.17389e-18
2.71771e-18
2.24141e-18
2.17555e-18
3.68456e-18
1.34125e-17
1.28636e-23
1.74809e-23
1.67172e-23
2.27514e-23
5.21714e-23
2.28454e-22
9.55388e-22
2.77721e-21
8.4812e-21
1.79348e-20
3.0005e-20
5.36657e-20
9.51697e-20
1.59495e-19
2.38397e-19
3.10653e-19
3.48738e-19
3.40325e-19
3.09396e-19
3.33611e-19
5.22153e-19
1.45149e-18
7.9648e-18
8.47759e-26
4.04406e-26
6.95737e-26
2.06046e-25
9.25267e-25
6.4318e-24
3.42675e-23
1.23381e-22
4.85015e-22
1.20464e-21
2.33306e-21
4.75885e-21
9.26466e-21
1.64479e-20
2.52982e-20
3.36638e-20
3.92546e-20
4.20785e-20
4.83029e-20
7.82132e-20
1.91355e-19
8.75795e-19
5.58211e-18
1.16616e-28
4.58937e-29
1.18738e-28
1.73911e-27
1.85948e-26
1.85866e-25
1.24686e-24
5.6343e-24
2.83164e-23
8.03074e-23
1.82731e-22
4.27626e-22
9.24941e-22
1.76484e-21
2.86075e-21
4.0737e-21
5.30919e-21
6.83868e-21
1.04336e-20
2.41413e-20
9.90558e-20
5.32157e-19
3.6115e-18
3.04748e-32
1.08341e-31
1.25352e-30
2.99513e-29
5.45457e-28
6.49362e-27
5.20142e-26
2.95891e-25
1.80016e-24
5.75249e-24
1.56151e-23
4.17104e-23
9.99519e-23
2.06113e-22
3.69527e-22
5.75962e-22
8.47624e-22
1.28264e-21
2.4167e-21
7.97924e-21
3.98514e-20
2.28371e-19
1.68102e-18
1.35541e-05
0.0209299
0.0557412
0.0632798
0.139155
0.325086
0.614554
0.607218
0.866905
0.995646
0.984405
0.889885
0.999793
0.999986
0.98405
0.96308
0.999999
0.999951
0.999563
1
0.999999
0.999999
1
1
0.589454
0.697809
0.90436
0.999999
0.0131304
0.0361125
0.0915375
0.189137
7.21845e-08
6.96257e-08
9.73369e-07
4.82764e-07
6.94347e-08
7.35811e-08
9.26287e-08
1.48168e-07
9.44169e-08
8.61107e-08
7.21628e-08
1.03035e-07
1.34268e-07
1.17478e-07
8.26701e-08
8.15948e-08
1.17844e-07
9.18196e-08
8.72675e-08
8.39282e-08
6.44604e-08
6.6908e-08
6.0806e-08
6.29635e-08
2.4852e-08
1.6284e-08
2.95596e-08
3.57481e-08
7.19388e-09
5.47992e-09
1.15415e-08
1.73227e-08
1.62881e-09
1.43214e-09
4.48843e-09
7.48238e-09
1.3652e-09
1.2171e-09
1.66103e-09
2.98661e-09
1.46276e-09
1.20629e-09
1.27911e-09
1.55064e-09
1.59237e-09
1.25641e-09
1.14682e-09
1.1688e-09
1.49612e-09
1.21763e-09
1.10223e-09
1.01083e-09
1.36826e-09
1.12091e-09
1.00043e-09
9.13387e-10
1.03539e-09
9.25688e-10
8.40302e-10
7.63982e-10
6.6004e-10
5.94844e-10
5.59858e-10
5.29797e-10
3.28654e-10
3.16092e-10
3.02084e-10
2.88994e-10
1.45258e-10
1.32085e-10
1.33035e-10
1.28364e-10
5.83132e-11
5.39141e-11
5.15332e-11
4.86648e-11
2.11992e-11
1.79365e-11
1.75572e-11
1.61456e-11
7.20273e-12
5.95582e-12
5.42307e-12
4.69174e-12
2.10965e-12
1.67969e-12
1.47288e-12
1.18229e-12
5.21998e-13
4.09633e-13
3.37145e-13
2.62217e-13
1.12746e-13
8.19629e-14
6.55872e-14
5.00285e-14
1.94567e-14
1.42966e-14
1.08651e-14
8.21457e-15
2.87923e-15
2.17441e-15
1.78349e-15
1.6246e-15
4.37427e-16
4.02922e-16
4.39103e-16
5.67276e-16
1.00506e-16
1.22869e-16
1.82376e-16
3.10693e-16
4.00734e-17
6.11614e-17
1.09883e-16
2.40942e-16
2.13639e-17
3.78299e-17
8.95618e-17
2.5325e-16
1.40465e-17
3.12e-17
9.56253e-17
3.04799e-16
1.11081e-17
3.21238e-17
1.12246e-16
3.5431e-16
8.4338e-18
3.03969e-17
1.1145e-16
3.45522e-16
6.16527e-18
2.14796e-17
6.98894e-17
1.93114e-16
0.170288
0.372115
0.0557072
0.00715884
0.156172
0.660353
0.653144
0.13561
-3.83782e-19
2.09444e-06
5.17635e-09
6.40242e-16
6.00843e-10
5.26627e-05
2.71301e-05
1.57533e-05
0.0307538
0.200922
0.382982
0.776303
0.79402
0.222549
0.00670707
0.283363
0.821272
0.823981
0.145901
-5.75427e-10
-2.78789e-09
-6.13638e-11
2.70573e-10
-3.30269e-10
0.00328731
2.344e-05
0.0252976
0.410031
0.897706
0.887889
0.856313
0.94256
0.677072
0.540906
0.812149
0.993781
0.90256
0.406538
-1.52718e-18
0.00209444
0.0317952
0.140338
0.276645
0.535554
0.742201
0.845411
0.980044
0.997181
0.98226
0.993129
0.998729
0.976048
0.961318
0.993086
0.999907
0.983718
0.794283
0.521444
0.462987
0.712468
0.965179
0.999965
0.999957
0.999848
0.999415
0.999392
0.998983
0.991124
1
1
1
0.999988
0.999949
0.999908
0.99988
0.959416
0.900203
0.956196
0.999905
0.999937
0.999965
0.999965
0.999866
0.999619
0.999549
0.999235
0.994493
1
1
1
0.999996
0.999975
0.999904
0.999852
0.999999
0.999999
0.999999
0.999984
0.99993
0.999948
0.999969
0.999981
0.999999
0.999999
0.996025
0.98234
0.999999
1
0.999999
0.999999
0.999996
0.999992
0.999988
0.999998
0.999999
0.999999
0.999995
0.999991
0.999996
0.999996
1
1
0.999996
0.986378
0.969618
0.4709
0.86826
0.999999
0.999999
0.999998
0.999997
0.999996
0.999998
0.999999
0.999999
0.999998
1
1
1
1
1
0.999881
0.982442
0.969624
0.000174603
0.0515622
0.195621
0.48212
0.85005
0.97387
0.979315
1
1
1
1
1
0.999999
0.999999
0.999998
0.999999
0.999968
0.993799
0.985235
3.63828e-07
5.18004e-07
7.97562e-07
0.000557657
0.0116365
0.0575693
0.328889
0.675667
0.826486
0.915813
0.984395
1
1
0.999998
0.999994
0.999899
0.996051
0.959754
0.899609
1.2947e-07
1.37485e-07
2.84939e-07
1.01688e-06
2.78365e-07
5.29246e-07
3.09683e-07
5.63608e-07
0.000856121
0.207749
0.398174
0.555326
0.729339
0.795817
0.804599
0.783392
0.568535
0.275394
0.139005
8.52827e-08
1.04475e-07
1.11382e-07
2.81361e-07
2.60629e-07
2.54344e-07
3.11276e-07
4.50234e-07
5.1833e-07
4.65236e-07
3.18131e-07
1.22081e-06
0.0118916
0.0422787
0.043452
0.0117601
4.76928e-13
1.33666e-20
-5.34088e-08
7.33412e-08
7.58714e-08
8.5773e-08
1.94025e-07
3.23979e-07
2.64919e-07
9.85615e-08
2.59528e-07
9.34666e-06
5.36171e-06
1.32792e-06
5.13471e-07
3.88931e-11
1.69652e-09
3.88933e-11
2.85357e-07
1.70805e-05
2.9174e-06
2.39492e-06
6.05437e-08
6.39495e-08
9.57637e-08
2.59863e-07
3.60929e-07
2.84702e-07
1.10729e-07
8.46645e-05
0.000816556
0.00061616
7.27554e-05
3.43399e-06
0.000293515
0.00113439
0.0010759
0.000532123
0.000128309
5.97299e-06
3.33157e-06
4.031e-08
5.07307e-08
9.85776e-08
2.6362e-07
3.62945e-07
2.64497e-07
9.82625e-08
0.000577667
0.0010081
0.00100759
0.000418989
1.48708e-06
0.00037967
0.00200688
0.00202627
0.00138128
0.000186671
5.49845e-06
1.36459e-06
2.32708e-08
3.83382e-08
7.56331e-08
2.12081e-07
3.2111e-07
1.93407e-07
1.04182e-07
8.03249e-05
0.000778439
0.00075669
0.000141844
1.08899e-06
4.24761e-05
0.000550683
0.000584042
9.13763e-05
8.43998e-06
1.81385e-06
5.20032e-07
1.19428e-08
2.13747e-08
4.61496e-08
9.94042e-08
1.39589e-07
2.0362e-07
4.08932e-06
6.40525e-07
1.9946e-05
5.19066e-08
2.64953e-07
1.14773e-06
5.71993e-06
1.02469e-07
7.34907e-08
8.61647e-08
8.58697e-08
2.54573e-07
4.6438e-07
5.5162e-09
1.07866e-08
2.33477e-08
4.67954e-08
7.42275e-08
8.18986e-08
2.32727e-06
7.86124e-07
1.87851e-07
5.49309e-08
2.36794e-07
4.84154e-06
1.81547e-06
1.52331e-07
6.13616e-08
7.74089e-08
1.10411e-07
3.06307e-07
6.53507e-07
2.59928e-09
4.85748e-09
1.15882e-08
2.37137e-08
4.34014e-08
7.65877e-08
1.13001e-07
1.32884e-07
8.39555e-08
5.46305e-08
5.49157e-08
2.23437e-06
2.2214e-06
5.50499e-07
6.19623e-08
8.21035e-08
1.83962e-07
5.53556e-07
9.09483e-07
1.45822e-09
2.23064e-09
5.77944e-09
1.1223e-08
1.96933e-08
4.02783e-08
4.54573e-08
6.12899e-08
6.55666e-08
9.67407e-08
1.88123e-07
2.17253e-08
2.00549e-08
2.72601e-08
5.43367e-08
8.95058e-08
1.89455e-07
5.6171e-07
8.43495e-07
1.01416e-09
1.20685e-09
2.17414e-09
4.39203e-09
9.07531e-09
1.4763e-08
2.50142e-08
3.55274e-08
4.09144e-08
5.55159e-08
5.28432e-08
2.8861e-08
2.15269e-08
3.10475e-08
5.12828e-08
8.26518e-08
1.43938e-07
1.49435e-07
4.66602e-07
8.26635e-10
7.2598e-10
9.08423e-10
1.73544e-09
3.28261e-09
5.59036e-09
8.80283e-09
1.53442e-08
1.78165e-08
2.0153e-08
1.65736e-08
1.42101e-08
1.73002e-08
2.30473e-08
3.33364e-08
4.92829e-08
5.4402e-08
4.87586e-08
1.65606e-08
6.8015e-10
5.2309e-10
4.77935e-10
5.92952e-10
1.17602e-09
2.036e-09
3.28461e-09
4.72367e-09
6.02795e-09
6.56241e-09
6.71927e-09
7.69108e-09
9.59554e-09
1.31383e-08
1.79758e-08
2.58821e-08
2.49517e-08
1.31631e-08
1.74374e-08
4.84851e-10
3.82898e-10
3.08857e-10
2.98197e-10
3.95469e-10
6.42709e-10
1.02741e-09
1.51068e-09
1.95618e-09
2.48196e-09
3.07464e-09
3.87853e-09
5.15992e-09
6.91382e-09
1.00618e-08
1.27589e-08
1.39e-08
1.33352e-08
1.33207e-08
2.73277e-10
2.28321e-10
1.85477e-10
1.67062e-10
1.8571e-10
2.58833e-10
3.94549e-10
6.08394e-10
8.79891e-10
1.22141e-09
1.68032e-09
2.41297e-09
3.37951e-09
4.89144e-09
7.23906e-09
1.08935e-08
1.48699e-08
1.53643e-08
1.50822e-08
1.23648e-10
1.07202e-10
9.09759e-11
8.66536e-11
9.65567e-11
1.27958e-10
1.96578e-10
3.13328e-10
4.98374e-10
7.73908e-10
1.17709e-09
1.75301e-09
2.71436e-09
4.2605e-09
6.90669e-09
1.16061e-08
1.90934e-08
2.64365e-08
2.02462e-08
4.65676e-11
4.04914e-11
3.58612e-11
3.73641e-11
4.62599e-11
6.96486e-11
1.15919e-10
1.98012e-10
3.40747e-10
5.67327e-10
9.21031e-10
1.4665e-09
2.34083e-09
3.93976e-09
6.72825e-09
1.32795e-08
3.02741e-08
4.03909e-08
3.92083e-08
1.51048e-11
1.2627e-11
1.18388e-11
1.42767e-11
2.20558e-11
3.97357e-11
7.46721e-11
1.40016e-10
2.54968e-10
4.54283e-10
7.77295e-10
1.29047e-09
2.14122e-09
3.54704e-09
6.82671e-09
1.60788e-08
3.53244e-08
9.7626e-08
4.39576e-08
4.19402e-12
3.45881e-12
3.58296e-12
5.60119e-12
1.19077e-11
2.51155e-11
5.2447e-11
1.05868e-10
2.0519e-10
3.87528e-10
6.9365e-10
1.20278e-09
2.0025e-09
3.33988e-09
6.67919e-09
1.74902e-08
4.85985e-08
1.05141e-07
5.80845e-08
9.61733e-13
8.97842e-13
1.35279e-12
2.95785e-12
7.15601e-12
1.78663e-11
3.95982e-11
8.45954e-11
1.76025e-10
3.47626e-10
6.51814e-10
1.17226e-09
1.98769e-09
3.30119e-09
6.78161e-09
1.98049e-08
5.77207e-08
1.0771e-07
5.60259e-08
2.0314e-13
2.61343e-13
7.02238e-13
1.9727e-12
5.13476e-12
1.33787e-11
3.20261e-11
7.23708e-11
1.56076e-10
3.2111e-10
6.48728e-10
1.20524e-09
2.06113e-09
3.35286e-09
6.5177e-09
2.26574e-08
7.23891e-08
1.07508e-07
5.61183e-08
4.17623e-14
1.07114e-13
4.3708e-13
1.42948e-12
4.14911e-12
1.07794e-11
2.65014e-11
6.31195e-11
1.44407e-10
3.14426e-10
6.53979e-10
1.26883e-09
2.23482e-09
3.60688e-09
7.34558e-09
2.4007e-08
8.51278e-08
1.07851e-07
4.68684e-08
1.21432e-14
6.28838e-14
3.03308e-13
1.0837e-12
3.31217e-12
8.99208e-12
2.30085e-11
5.80061e-11
1.37278e-10
3.12164e-10
6.77375e-10
1.35316e-09
2.43515e-09
4.18768e-09
7.22212e-09
2.49096e-08
8.31944e-08
1.01409e-07
4.01495e-08
7.76829e-15
5.09434e-14
2.4727e-13
8.76792e-13
2.70397e-12
7.7641e-12
2.06688e-11
5.42617e-11
1.33944e-10
3.17768e-10
7.09015e-10
1.43808e-09
2.6688e-09
4.48011e-09
9.04541e-09
2.26194e-08
6.34174e-08
7.06601e-08
2.14325e-08
6.92743e-15
4.70208e-14
2.14358e-13
7.5769e-13
2.3855e-12
7.02952e-12
1.98052e-11
5.2563e-11
1.3344e-10
3.23117e-10
7.23572e-10
1.48556e-09
2.81174e-09
4.84422e-09
8.23767e-09
2.02656e-08
2.97161e-08
2.50937e-08
1.35666e-08
6.25734e-15
4.04662e-14
1.78496e-13
6.49955e-13
2.14635e-12
6.46653e-12
1.8646e-11
5.03257e-11
1.28439e-10
3.17933e-10
7.17262e-10
1.45647e-09
2.76693e-09
4.69033e-09
7.69805e-09
1.41232e-08
1.62603e-08
1.18142e-08
5.94124e-09
5.74241e-15
3.49658e-14
1.50513e-13
5.66094e-13
1.87796e-12
5.85389e-12
1.67618e-11
4.53136e-11
1.18155e-10
2.89713e-10
6.55513e-10
1.33065e-09
2.52228e-09
4.14317e-09
5.95841e-09
9.93122e-09
6.5363e-09
4.78624e-09
3.06963e-09
5.33985e-15
2.95284e-14
1.25573e-13
4.65915e-13
1.56384e-12
4.79346e-12
1.41075e-11
3.78943e-11
9.79009e-11
2.40576e-10
5.44044e-10
1.09824e-09
2.04967e-09
3.27764e-09
4.40341e-09
5.61809e-09
3.82743e-09
2.01478e-09
1.48093e-09
4.55632e-15
2.30137e-14
9.59162e-14
3.42275e-13
1.14545e-12
3.52321e-12
1.01515e-11
2.75535e-11
7.13555e-11
1.75056e-10
3.96459e-10
7.99255e-10
1.46139e-09
2.32285e-09
2.85553e-09
3.22415e-09
1.84313e-09
8.7179e-10
6.06281e-10
3.52149e-15
1.54127e-14
5.91093e-14
2.04243e-13
6.53936e-13
1.99633e-12
5.88884e-12
1.63272e-11
4.2591e-11
1.06947e-10
2.46171e-10
5.01707e-10
8.99234e-10
1.42728e-09
1.77015e-09
1.78044e-09
9.06644e-10
3.52218e-10
3.23346e-10
1.9899e-15
7.69753e-15
2.71319e-14
8.94199e-14
2.87932e-13
8.9918e-13
2.69999e-12
7.79055e-12
2.10978e-11
5.42988e-11
1.28494e-10
2.69144e-10
4.90296e-10
7.88573e-10
9.80438e-10
9.1394e-10
4.0045e-10
1.83528e-10
1.65765e-10
6.14793e-16
2.05674e-15
6.68118e-15
2.07141e-14
7.30272e-14
2.57841e-13
8.52311e-13
2.65541e-12
7.82417e-12
2.14301e-11
5.33253e-11
1.17774e-10
2.20284e-10
3.6876e-10
4.81167e-10
4.32597e-10
2.02167e-10
9.69548e-11
8.13248e-11
)
;

boundaryField
{
    leftWall
    {
        type            alphaContactAngle;
        contactAngleProperties 
        {
            mercury         
            {
                theta0          90;
            }
            air             
            {
                theta0          90;
            }
            water           
            {
                theta0          90;
            }
        }
        value           nonuniform List<scalar> 
50
(
6.58146e-15
2.54329e-15
1.36901e-15
1.41774e-15
6.96378e-14
1.4394e-12
1.43339e-12
1.5699e-09
6.39305e-09
6.70099e-09
2.88989e-09
2.66589e-19
0.08793
0.614508
0.85192
0.61113
0.0595069
7.8998e-07
7.7999e-07
9.34611e-07
8.79238e-07
8.11897e-07
2.88161e-07
6.9921e-08
4.61501e-08
3.82213e-08
3.50619e-08
2.54132e-08
1.84312e-08
1.2342e-08
7.45346e-09
4.14347e-09
2.21115e-09
1.09176e-09
4.72172e-10
1.74808e-10
5.32055e-11
1.33645e-11
2.58721e-12
3.79084e-13
3.27372e-14
2.28793e-15
7.07742e-17
2.04008e-18
6.37042e-20
1.51984e-21
1.28636e-23
8.47759e-26
1.16616e-28
3.04748e-32
)
;
    }
    rightWall
    {
        type            alphaContactAngle;
        contactAngleProperties 
        {
            mercury         
            {
                theta0          90;
            }
            air             
            {
                theta0          90;
            }
            water           
            {
                theta0          90;
            }
        }
        value           nonuniform List<scalar> 
50
(
0.25621
0.415802
0.506785
0.506522
0.508488
0.508951
0.256554
0.0422655
0.382982
0.887889
0.98226
0.991124
0.994493
0.98234
0.969618
0.969624
0.985235
0.899609
0.139005
-5.34088e-08
2.39492e-06
3.33157e-06
1.36459e-06
5.20032e-07
4.6438e-07
6.53507e-07
9.09483e-07
8.43495e-07
4.66602e-07
1.65606e-08
1.74374e-08
1.33207e-08
1.50822e-08
2.02462e-08
3.92083e-08
4.39576e-08
5.80845e-08
5.60259e-08
5.61183e-08
4.68684e-08
4.01495e-08
2.14325e-08
1.35666e-08
5.94124e-09
3.06963e-09
1.48093e-09
6.06281e-10
3.23346e-10
1.65765e-10
8.13248e-11
)
;
    }
    lowerWall
    {
        type            alphaContactAngle;
        contactAngleProperties 
        {
            mercury         
            {
                theta0          90;
            }
            air             
            {
                theta0          90;
            }
            water           
            {
                theta0          90;
            }
        }
        value           nonuniform List<scalar> 
62
(
6.58146e-15
4.13875e-14
1.5907e-13
4.77027e-13
1.19236e-12
2.75931e-12
6.09191e-12
1.32984e-11
2.88411e-11
5.83595e-11
1.07025e-10
2.00645e-10
3.98303e-10
8.54365e-10
1.97836e-09
4.54656e-09
1.12655e-08
2.26947e-08
2.32629e-08
0.000128986
0.0005014
0.000567274
0.000567337
0.000567337
0.000145021
1.2315e-08
2.02389e-08
1.13455e-08
1.71718e-05
7.40389e-05
5.93958e-05
1.35541e-05
0.0209299
0.0557412
0.0632798
0.116483
0.40017
0.496889
0.0183573
0.00715616
0.0407238
0.0434294
0.0349928
0.116483
0.116235
0.091542
0.032368
0.0285109
0.0285125
0.274613
0.330664
0.361931
0.364384
0.354752
0.287999
0.063913
0.0825683
0.131788
0.232733
0.257598
0.256211
0.25621
)
;
    }
    atmosphere
    {
        type            inletOutlet;
        inletValue      uniform 0;
        value           nonuniform List<scalar> 
46
(
0
0
0
2.99513e-29
5.45457e-28
6.49362e-27
5.20142e-26
2.95891e-25
1.80016e-24
5.75249e-24
1.56151e-23
4.17105e-23
9.9952e-23
2.06113e-22
3.69527e-22
5.75962e-22
8.47624e-22
1.28264e-21
2.4167e-21
0
0
0
0
0
0
0
0
6.14793e-16
2.05674e-15
0
0
0
0
0
0
0
0
0
0
0
0
0
0
0
0
0
)
;
    }
    defaultFaces
    {
        type            empty;
    }
}


// ************************************************************************* //
