/*--------------------------------*- C++ -*----------------------------------*\
  =========                 |
  \\      /  F ield         | OpenFOAM: The Open Source CFD Toolbox
   \\    /   O peration     | Website:  https://openfoam.org
    \\  /    A nd           | Version:  13
     \\/     M anipulation  |
\*---------------------------------------------------------------------------*/
FoamFile
{
    format      ascii;
    class       volScalarField;
    location    "1.85";
    object      alpha.water;
}
// * * * * * * * * * * * * * * * * * * * * * * * * * * * * * * * * * * * * * //

dimensions      [];

internalField   nonuniform List<scalar> 
2268
(
4.42288e-11
8.20762e-11
1.04813e-10
1.05523e-10
1.08003e-10
1.13623e-10
1.20305e-10
1.26718e-10
1.32643e-10
1.37989e-10
1.43142e-10
1.52904e-10
1.73983e-10
2.10284e-10
2.68881e-10
3.57768e-10
4.83608e-10
6.93459e-10
1.1192e-09
2.08254e-09
2.65425e-09
2.77881e-09
2.77906e-09
1.16797e-10
3.16301e-10
2.87531e-10
2.67537e-10
2.68727e-10
2.93117e-10
3.30333e-10
3.71223e-10
4.14319e-10
4.45671e-10
4.64713e-10
4.70622e-10
4.66279e-10
4.80544e-10
5.13333e-10
5.82379e-10
7.14907e-10
9.59025e-10
1.29264e-09
1.92752e-09
2.62878e-09
2.70072e-09
2.36632e-09
3.30004e-10
6.23086e-10
4.06159e-10
3.30878e-10
3.24185e-10
3.62633e-10
4.35902e-10
5.39932e-10
6.65617e-10
7.91463e-10
9.32689e-10
1.01301e-09
1.06509e-09
1.02419e-09
8.87246e-10
8.29387e-10
8.49851e-10
9.99523e-10
1.27459e-09
1.70898e-09
1.99341e-09
1.90334e-09
1.02366e-09
3.1607e-10
4.35484e-10
3.28111e-10
2.86269e-10
2.85865e-10
3.09035e-10
3.63377e-10
4.27085e-10
5.29387e-10
7.2491e-10
9.39729e-10
1.1281e-09
1.24428e-09
1.2414e-09
1.12534e-09
8.15294e-10
6.94642e-10
7.2276e-10
6.54543e-10
6.96853e-10
5.90234e-10
4.12473e-10
1.55874e-09
2.94848e-10
3.23034e-10
3.1265e-10
2.96495e-10
2.82711e-10
2.83842e-10
2.66021e-10
2.69113e-10
3.05178e-10
2.94515e-10
3.19699e-10
2.56376e-10
2.32829e-10
2.33666e-10
1.96543e-10
1.46023e-10
1.4646e-10
8.09245e-09
3.30405e-09
-1.24846e-13
-1.08935e-11
-7.52124e-20
4.03352e-19
0.0310116
0.0530408
0.0572056
0.0438707
0.0231801
8.16915e-05
2.70028e-10
2.78659e-10
2.62852e-10
5.81386e-10
9.78222e-09
3.85973e-09
-2.34498e-12
-3.00166e-12
-3.0606e-12
-2.69808e-12
0.00152321
0.00687067
0.0155634
0.0303454
0.055674
0.10079
0.148994
0.7216
0.769232
0.775235
0.750671
0.708328
0.649659
0.563836
0.485313
0.419093
0.367369
0.327194
0.301698
0.300332
0.333762
0.383436
0.439996
0.503512
0.571952
0.63879
0.703878
0.774459
0.850051
0.906343
1
1
1
1
1
1
1
0.997002
0.991189
0.984083
0.982417
0.988384
1
1
1
1
0.999999
0.999987
0.999912
0.999691
0.999258
0.998742
0.997831
0.0115331
0.00849328
0.0265944
0.0663436
0.0561472
0.0379351
0.0163642
0.00158616
0.001127
0.00102447
0.00082346
0.0250508
0.11641
0.12165
0.122009
0.0264608
0.0179618
0.0184348
0.0188468
0.0314759
0.0514401
0.0223408
0.0767919
0.151709
0.1387
0.0886359
0.0475617
0.0162524
0.00209413
0.000823187
0.0144582
0.0515679
0.105592
0.112249
0.0395765
0.0167838
0.0176179
0.0185078
0.395042
0.406091
0.194966
0.0893518
0.235189
0.453583
0.412296
0.275892
0.140855
0.0209203
0.00339078
0.00103214
0.00262732
0.0117632
0.0112839
0.00898597
0.00908526
0.0225496
0.0186848
0.783215
0.7792
0.698363
0.275713
0.193815
0.464691
0.855857
0.885574
0.756784
0.190823
0.028789
0.00105886
0.00103214
0.00111465
0.00113144
0.0262387
0.180154
0.243195
0.135144
0.812717
0.789325
0.801698
0.612435
0.204571
0.362125
0.889302
0.97261
0.980782
0.555076
0.139525
0.00144156
0.00106186
0.00106451
0.225523
0.493117
0.629157
0.66105
0.336054
0.883477
0.832491
0.801452
0.795402
0.351104
0.226163
0.534495
0.954024
0.995724
0.84518
0.299968
0.119132
0.068657
0.134165
0.622606
0.828071
0.935167
0.923806
0.484125
0.883468
0.883029
0.849899
0.869968
0.453425
0.204107
0.245615
0.804479
0.995492
0.973829
0.805222
0.529885
0.394028
0.530135
0.864894
0.986597
0.986255
0.968179
0.740284
0.88337
0.856243
0.881366
0.881657
0.502385
0.104486
0.112695
0.761455
0.9962
0.999779
0.99799
0.974322
0.915469
0.933908
0.997014
0.999495
0.957518
0.961096
0.869477
1
1
1
1
1
1
1
1
1
1
1
1
1
1
1
1
0.999999
0.999992
0.999952
0.999948
0.999909
0.999845
0.998562
1
1
1
1
1
1
1
1
1
1
1
1
1
1
1
1
1
1
0.999998
0.994181
0.981531
0.955132
0.886179
1
1
1
1
1
1
1
1
1
1
1
1
1
1
0.998542
0.993973
0.983324
0.96206
0.905317
0.803728
0.649825
0.435945
0.209485
0.944427
0.981962
0.988152
0.99633
0.997939
0.999994
1
0.998965
0.99371
0.988428
0.981165
0.966598
0.933516
0.875324
0.796636
0.707539
0.566686
0.400972
0.264008
0.136024
0.0153563
1.25121e-21
7.89174e-28
0.704655
0.52804
0.471037
0.464365
0.502304
0.601924
0.665464
0.640194
0.59504
0.52905
0.451491
0.365336
0.272767
0.176167
0.0883534
0.0137793
-1.90948e-19
-1.30777e-25
4.1819e-27
5.26819e-28
-1.54607e-18
2.25123e-10
5.00587e-09
0.178078
0.0103837
0.00821381
0.0112968
0.00979807
0.016448
0.0339778
0.0285233
0.0143281
0.000763366
1.21463e-06
1.33953e-24
1.45364e-24
7.31352e-18
2.54268e-18
1.13391e-26
-9.49384e-30
1.36317e-09
1.21595e-08
2.72042e-08
1.34134e-08
1.20391e-09
4.93298e-09
0.0153207
0.00458096
0.000118139
2.11926e-05
3.0773e-06
3.41088e-21
-4.77533e-18
-1.79119e-25
4.20588e-26
1.16892e-08
1.96355e-10
6.0171e-25
1.43782e-09
2.16329e-08
1.35233e-08
3.65598e-09
2.20581e-26
5.50075e-09
7.54151e-08
7.89017e-08
6.29091e-08
2.03754e-09
1.63535e-09
0.000621872
0.00105371
0.000138449
8.30695e-08
2.24796e-08
1.30063e-26
1.81532e-07
4.45831e-07
4.49757e-07
4.49527e-07
1.92154e-07
1.4277e-07
4.8937e-07
5.79014e-07
1.794e-07
6.05882e-08
1.8255e-08
2.27119e-08
4.22063e-08
5.97765e-08
4.36344e-08
4.99864e-09
1.51351e-09
-2.49072e-09
7.12033e-07
1.47694e-05
1.63734e-05
8.38785e-06
8.03348e-09
7.92499e-08
1.2111e-07
1.21607e-07
8.94042e-08
2.21362e-07
7.27839e-07
1.07817e-06
8.95241e-07
3.15361e-07
6.56513e-08
2.31095e-08
1.59189e-08
1.65938e-08
1.69405e-08
1.03411e-08
4.92062e-09
7.37295e-09
-4.84872e-08
1.92967e-10
2.24995e-06
1.62067e-05
1.30385e-05
1.16134e-06
1.77485e-07
1.27823e-08
1.21784e-10
1.69136e-10
2.8029e-07
1.53e-06
2.42593e-06
8.73819e-07
3.09064e-07
2.56219e-07
3.52616e-07
2.76211e-07
1.12604e-07
1.87416e-08
8.80727e-09
4.69941e-09
4.28535e-09
-5.47923e-08
3.08565e-08
1.42476e-07
8.90964e-06
8.48113e-06
9.44796e-07
5.72294e-08
2.51823e-10
1.0421e-10
3.35743e-09
2.06536e-06
3.06844e-06
3.07269e-06
2.39903e-06
9.36989e-07
1.74166e-06
1.851e-06
8.2869e-07
2.70742e-07
5.17587e-08
9.63349e-09
3.75143e-09
2.63048e-09
-2.71723e-08
4.17369e-09
5.50788e-07
6.96265e-07
1.71324e-06
1.30268e-07
6.12895e-10
5.96503e-10
1.06434e-10
6.27362e-08
1.90421e-06
2.6937e-06
3.07455e-06
3.07084e-06
2.75269e-06
2.9366e-06
2.87926e-06
7.12915e-07
1.4123e-07
4.69616e-08
2.65098e-08
7.33512e-09
3.00287e-09
5.95521e-09
7.02274e-09
6.75451e-09
6.50114e-09
1.2495e-07
1.54565e-08
5.99644e-10
5.86473e-10
1.49292e-10
1.46261e-10
4.19441e-09
7.04554e-07
2.83622e-06
3.06595e-06
3.05898e-06
2.97231e-06
9.95371e-07
2.79355e-07
4.67133e-08
2.92488e-08
3.50868e-08
3.0748e-08
1.11047e-08
3.35671e-08
2.37814e-08
1.15617e-08
1.30933e-08
1.18382e-08
3.28914e-09
5.78276e-10
4.17124e-10
3.38368e-10
4.81406e-10
3.75949e-10
4.88971e-08
5.84556e-07
2.01567e-06
1.4454e-06
2.86227e-07
8.00428e-08
8.08368e-08
3.52395e-08
2.83599e-08
3.15264e-08
2.84442e-08
1.29936e-08
3.35e-08
1.34422e-08
1.32597e-08
1.16596e-08
8.35504e-09
1.96547e-09
9.22834e-10
4.02676e-10
2.88915e-10
2.6046e-10
3.85068e-10
1.38067e-10
6.09003e-11
4.05308e-09
2.28465e-08
8.62215e-09
1.14498e-08
2.31796e-08
2.40435e-08
2.08177e-08
2.36952e-08
1.92329e-08
1.08373e-08
1.86838e-08
8.12724e-09
7.36286e-09
6.58166e-09
4.39133e-09
2.77321e-09
1.53601e-09
8.19844e-10
5.40991e-10
8.50158e-10
2.34366e-09
4.44973e-09
4.04386e-09
2.01405e-09
2.0788e-09
6.38187e-09
1.41428e-08
1.51889e-08
1.41078e-08
1.38952e-08
1.32718e-08
1.08793e-08
8.74088e-09
1.92906e-08
6.85936e-09
3.61039e-09
3.972e-09
3.19468e-09
2.52324e-09
1.72361e-09
1.14374e-09
8.19621e-10
1.23053e-09
3.6596e-09
6.93751e-09
6.64774e-09
3.74579e-09
4.12136e-09
1.14404e-08
1.14547e-08
7.99593e-09
5.74609e-09
6.08455e-09
7.94692e-09
7.56447e-09
6.24157e-09
2.00414e-08
7.03501e-09
2.5606e-09
2.99168e-09
2.78555e-09
2.31017e-09
1.80709e-09
1.3088e-09
9.09574e-10
1.1166e-09
2.35533e-09
4.38555e-09
4.82105e-09
2.96397e-09
4.24085e-09
7.2057e-09
7.40872e-09
4.86326e-09
2.87607e-09
2.69554e-09
3.99081e-09
4.67876e-09
4.49201e-09
2.00513e-08
7.33128e-09
2.4764e-09
2.70861e-09
2.57992e-09
2.22097e-09
1.81503e-09
1.36987e-09
9.63687e-10
5.39888e-10
3.76415e-10
2.88797e-10
4.46194e-10
1.16626e-09
2.38656e-09
3.23806e-09
3.39479e-09
2.40626e-09
1.45228e-09
1.26542e-09
2.11994e-09
2.63451e-09
2.81912e-09
1.95776e-08
7.75066e-09
2.42259e-09
2.42738e-09
2.30568e-09
2.00061e-09
1.73302e-09
1.36098e-09
9.29244e-10
5.51682e-10
3.0104e-10
1.95636e-10
2.19808e-10
3.86351e-10
6.69196e-10
9.51011e-10
1.02237e-09
8.4498e-10
6.09352e-10
5.45121e-10
9.78512e-10
1.53389e-09
1.76318e-09
1.8042e-08
8.74423e-09
2.8977e-09
2.23536e-09
2.05057e-09
1.76281e-09
1.51029e-09
1.25009e-09
9.29412e-10
6.04733e-10
3.56196e-10
1.98278e-10
1.26203e-10
1.11155e-10
1.36496e-10
2.05061e-10
2.55161e-10
2.49401e-10
2.15419e-10
2.05331e-10
3.57374e-10
6.66874e-10
9.4033e-10
1.60548e-08
8.86605e-09
3.77897e-09
2.12374e-09
1.79792e-09
1.45005e-09
1.20343e-09
1.00754e-09
8.17786e-10
5.88951e-10
3.66359e-10
1.99574e-10
1.14159e-10
7.61071e-11
6.58703e-11
7.36986e-11
8.38655e-11
8.61938e-11
8.16234e-11
7.7953e-11
1.07541e-10
2.35756e-10
3.94561e-10
1.37172e-08
8.23666e-09
4.02122e-09
2.0905e-09
1.57231e-09
1.16126e-09
9.11399e-10
7.40233e-10
6.1688e-10
4.94222e-10
3.4392e-10
1.94448e-10
1.0548e-10
5.89635e-11
3.90812e-11
3.24102e-11
3.23026e-11
3.41159e-11
3.50645e-11
3.58541e-11
3.90056e-11
5.72439e-11
1.10816e-10
1.14996e-08
7.15561e-09
3.86064e-09
1.95342e-09
1.3288e-09
9.04456e-10
6.57041e-10
5.02047e-10
4.06128e-10
3.37505e-10
2.67534e-10
1.82834e-10
9.05678e-11
5.16739e-11
2.87622e-11
1.87567e-11
1.57914e-11
1.5924e-11
1.72328e-11
1.79978e-11
1.87187e-11
2.11042e-11
2.89253e-11
9.6303e-09
5.9234e-09
3.39068e-09
1.68325e-09
1.0455e-09
6.47448e-10
4.48245e-10
3.27543e-10
2.54387e-10
2.07692e-10
1.71366e-10
1.33376e-10
7.96952e-11
4.42259e-11
2.262e-11
1.25815e-11
8.54985e-12
7.80609e-12
8.23289e-12
8.9795e-12
9.28726e-12
9.54615e-12
1.04797e-11
7.84187e-09
4.66967e-09
2.69542e-09
1.34229e-09
7.66254e-10
4.4134e-10
2.65888e-10
1.94215e-10
1.43468e-10
1.14114e-10
9.24467e-11
7.53603e-11
5.78397e-11
3.22466e-11
1.70093e-11
8.5638e-12
4.777e-12
3.84998e-12
3.78176e-12
4.01999e-12
4.19121e-12
4.38793e-12
4.45824e-12
5.78446e-09
3.36306e-09
1.91497e-09
9.72865e-10
5.18391e-10
2.85671e-10
1.45046e-10
1.01341e-10
7.36238e-11
5.59337e-11
4.52103e-11
3.63565e-11
2.86552e-11
2.05377e-11
1.08672e-11
5.51799e-12
2.63057e-12
1.85281e-12
1.68611e-12
1.7366e-12
1.8235e-12
1.85567e-12
1.86168e-12
3.72629e-09
2.13835e-09
1.19224e-09
6.07517e-10
3.08742e-10
1.60387e-10
7.65581e-11
4.45211e-11
3.15939e-11
2.39383e-11
1.91147e-11
1.54019e-11
1.23212e-11
9.41154e-12
5.97196e-12
2.91763e-12
1.30175e-12
8.32489e-13
6.95354e-13
6.98052e-13
6.95945e-13
7.10573e-13
7.0696e-13
2.02041e-09
1.15668e-09
6.26929e-10
3.14157e-10
1.53171e-10
7.5195e-11
3.49184e-11
1.72837e-11
1.16412e-11
8.74746e-12
6.88406e-12
5.52899e-12
4.40621e-12
3.53139e-12
2.48152e-12
1.38067e-12
5.67361e-13
3.18619e-13
2.60073e-13
2.50401e-13
2.51914e-13
2.47959e-13
2.47112e-13
9.28061e-10
5.19492e-10
2.6884e-10
1.30611e-10
6.09897e-11
2.83363e-11
1.28262e-11
5.72466e-12
3.61379e-12
2.65233e-12
2.07873e-12
1.67263e-12
1.34671e-12
1.0631e-12
8.06318e-13
4.71767e-13
2.19127e-13
1.03138e-13
8.61707e-14
8.52036e-14
8.26881e-14
7.69274e-14
7.48278e-14
3.11854e-10
1.73041e-10
8.92111e-11
4.18852e-11
1.87432e-11
8.27994e-12
3.6684e-12
1.56332e-12
9.3768e-13
6.7401e-13
5.23887e-13
4.19492e-13
3.40876e-13
2.73956e-13
2.07947e-13
1.2609e-13
6.46738e-14
3.07523e-14
2.49603e-14
2.48873e-14
2.47696e-14
2.15361e-14
1.90066e-14
7.85668e-11
4.31537e-11
2.20863e-11
1.00526e-11
4.3355e-12
1.8494e-12
8.12778e-13
3.52131e-13
2.00448e-13
1.40308e-13
1.08413e-13
8.62999e-14
6.94787e-14
5.81086e-14
4.20318e-14
2.59427e-14
1.35416e-14
7.3584e-15
6.24215e-15
6.3346e-15
6.22502e-15
4.81751e-15
4.23649e-15
1.10075e-11
7.50463e-12
3.73614e-12
1.65901e-12
7.01606e-13
2.97986e-13
1.33656e-13
6.08834e-14
3.34854e-14
2.24568e-14
1.7171e-14
1.38963e-14
1.19239e-14
9.65491e-15
6.92561e-15
4.22382e-15
2.37909e-15
1.51893e-15
1.38362e-15
1.38651e-15
1.26919e-15
1.04193e-15
7.77742e-16
1.33803e-12
9.92621e-13
4.65854e-13
2.04949e-13
8.78076e-14
3.87944e-14
1.82699e-14
8.85925e-15
4.75369e-15
3.1422e-15
2.47933e-15
2.08362e-15
1.78379e-15
1.40752e-15
9.82026e-16
6.06164e-16
3.49435e-16
2.70494e-16
2.67697e-16
2.63453e-16
2.33959e-16
1.71707e-16
1.19605e-16
7.70035e-14
5.13035e-14
2.38576e-14
1.13427e-14
7.24208e-15
3.60666e-15
1.8362e-15
9.58031e-16
5.21082e-16
3.13432e-16
2.38385e-16
2.27177e-16
1.99634e-16
1.57487e-16
1.07409e-16
6.54702e-17
5.15472e-17
4.80979e-17
4.5201e-17
4.35e-17
3.5375e-17
2.48112e-17
1.56042e-17
5.65494e-15
3.73337e-15
1.93497e-15
1.02045e-15
5.66326e-16
3.06495e-16
1.65578e-16
9.21679e-17
5.37923e-17
3.79907e-17
3.01644e-17
2.7131e-17
2.33088e-17
1.80062e-17
1.22376e-17
8.68095e-18
7.51421e-18
7.20498e-18
6.89078e-18
5.89066e-18
4.44223e-18
2.86117e-18
1.84173e-18
3.5736e-16
2.18178e-16
1.25241e-16
7.47894e-17
4.53235e-17
2.63267e-17
1.49662e-17
8.74736e-18
5.3615e-18
3.65341e-18
3.02395e-18
2.66662e-18
2.25136e-18
1.71605e-18
1.25209e-18
1.07082e-18
1.03278e-18
9.78226e-19
8.66907e-19
6.72903e-19
4.45077e-19
2.82633e-19
1.33086e-19
1.99159e-17
1.03635e-17
6.61767e-18
4.51394e-18
2.97209e-18
1.86506e-18
1.12291e-18
6.83862e-19
4.30593e-19
2.95755e-19
2.5334e-19
2.23007e-19
1.88066e-19
1.5034e-19
1.27821e-19
1.25038e-19
1.24578e-19
1.14169e-19
9.25103e-20
6.48791e-20
4.28642e-20
1.8112e-20
4.4461e-21
7.03645e-19
4.52686e-19
3.1642e-19
2.45419e-19
1.77133e-19
1.18801e-19
7.50717e-20
4.68797e-20
2.98448e-20
2.07699e-20
1.83409e-20
1.64711e-20
1.44433e-20
1.29863e-20
1.29132e-20
1.35634e-20
1.34887e-20
1.18592e-20
8.62533e-21
5.77488e-21
2.61327e-21
5.66798e-22
7.42807e-23
3.54059e-20
2.09754e-20
1.51441e-20
1.29002e-20
1.00035e-20
7.01414e-21
4.5593e-21
2.86743e-21
1.8274e-21
1.29527e-21
1.19221e-21
1.13373e-21
1.10935e-21
1.17651e-21
1.31414e-21
1.41216e-21
1.35894e-21
1.13749e-21
7.31841e-22
3.42964e-22
9.09558e-23
1.32893e-23
1.23483e-24
1.62927e-21
9.89438e-22
7.08509e-22
6.62389e-22
5.43984e-22
3.88691e-22
2.53245e-22
1.57475e-22
9.957e-23
7.37229e-23
7.26015e-23
7.74317e-23
8.98106e-23
1.10486e-22
1.29819e-22
1.36091e-22
1.23623e-22
9.2869e-23
4.82883e-23
1.59337e-23
2.96671e-24
2.09421e-25
5.55739e-27
6.36515e-23
3.72376e-23
2.96955e-23
3.2915e-23
2.79795e-23
2.00051e-23
1.27786e-23
7.74826e-24
4.82342e-24
3.90973e-24
4.29053e-24
5.42402e-24
7.47226e-24
1.00252e-23
1.20643e-23
1.20196e-23
1.0081e-23
6.5052e-24
2.61408e-24
6.57482e-25
7.17009e-26
2.49494e-27
4.75707e-29
0.97248
0.930465
0.870142
0.854237
0.802703
0.660916
0.382377
0.319323
0.0652188
-1.22905e-15
-1.09796e-15
0
-7.80271e-14
-1.38074e-13
-9.76652e-14
1.46111e-32
4.74462e-09
4.50133e-09
9.88035e-09
3.08435e-08
2.27891e-08
7.02544e-08
1.76141e-07
2.05427e-07
3.01803e-08
2.79092e-07
3.21332e-07
2.65494e-07
1.86392e-08
2.79267e-07
3.15459e-07
6.51561e-08
4.27834e-08
1.17734e-07
1.02186e-07
2.54867e-10
1.78682e-08
1.18474e-08
8.67672e-09
3.60446e-09
4.06242e-09
5.81719e-09
4.5972e-09
2.9233e-09
1.79772e-09
1.61606e-09
1.67451e-09
1.5521e-09
6.09073e-09
2.8842e-09
2.22345e-09
1.79287e-09
1.09178e-08
7.96835e-09
5.45325e-09
3.35855e-09
9.54465e-09
8.11948e-09
5.56635e-09
3.28191e-09
7.95286e-09
7.14053e-09
4.83699e-09
2.76875e-09
5.61043e-09
5.21892e-09
4.29708e-09
2.84464e-09
4.15098e-09
3.69174e-09
3.49757e-09
3.069e-09
2.80857e-09
2.78125e-09
2.74398e-09
2.58712e-09
1.79346e-09
1.76819e-09
1.81297e-09
1.87875e-09
1.0547e-09
1.11175e-09
1.1644e-09
1.1566e-09
4.97614e-10
5.23895e-10
5.81613e-10
6.3476e-10
1.63246e-10
1.98351e-10
2.35071e-10
2.62861e-10
4.10876e-11
4.47374e-11
6.20939e-11
7.89705e-11
1.19024e-11
1.34894e-11
1.64743e-11
1.9502e-11
4.53688e-12
4.45673e-12
5.14686e-12
5.58063e-12
1.75857e-12
1.75374e-12
1.80374e-12
1.84448e-12
6.35962e-13
5.7891e-13
6.05569e-13
5.95977e-13
2.17648e-13
1.94201e-13
1.88094e-13
1.73539e-13
6.53668e-14
5.60619e-14
5.22366e-14
4.47374e-14
1.67613e-14
1.41688e-14
1.24392e-14
1.01922e-14
3.75974e-15
2.93095e-15
2.48782e-15
1.95299e-15
6.66506e-16
5.14319e-16
4.01616e-16
2.99415e-16
9.81704e-17
7.22323e-17
5.32821e-17
3.92608e-17
1.2236e-17
9.01929e-18
6.83126e-18
3.08224e-18
1.14637e-18
5.65048e-19
2.37247e-19
4.90169e-20
3.66221e-20
7.12523e-21
1.8924e-21
2.16941e-22
2.16471e-22
2.28768e-23
5.50765e-24
2.81255e-25
6.8373e-29
2.57955e-26
6.23443e-27
3.49639e-27
6.80651e-29
3.07588e-28
1.13035e-27
3.57396e-27
6.77019e-29
3.08218e-28
1.10862e-27
3.37578e-27
6.73806e-29
2.10755e-28
6.76351e-28
1.84231e-27
0.708172
0.461691
0.837219
0.880911
0.680555
0.0793792
0.0896196
0.795715
0.999821
0.999883
0.999861
0.999805
0.999893
0.999895
0.999894
0.999895
0.969219
0.781928
0.500776
0.0633502
0.035258
0.591301
0.806731
0.522877
1.03804e-05
0.0605849
0.712659
0.986241
0.999436
0.999753
0.997874
0.998858
0.996037
0.999517
0.974317
0.589894
0.088675
0.00848773
4.28092e-06
0.00370074
0.144503
0.27149
0.0784178
9.82677e-06
0.00602585
0.425762
0.837662
0.913478
0.924616
0.846573
0.718682
0.464417
0.257686
0.153929
0.0194545
0.000790367
0.00509446
1.3857e-26
-5.58418e-22
-1.84946e-26
1.01966e-24
3.04824e-21
9.79138e-06
9.76658e-06
0.0626373
0.307543
0.367118
0.216923
0.0347985
1.10407e-05
6.79055e-07
3.01779e-07
2.31393e-07
8.05943e-06
0.000875528
0.00868958
1.05111e-07
1.77092e-07
3.95371e-07
6.27775e-06
3.83337e-05
8.34465e-05
7.06111e-05
1.61614e-07
1.54163e-07
1.60131e-07
1.5837e-07
1.65559e-07
6.99334e-07
2.34817e-06
5.1181e-06
3.13326e-08
6.11977e-05
0.000734223
0.00547672
1.80827e-07
1.15955e-07
1.30345e-07
4.2504e-06
2.53531e-05
2.45992e-05
9.81161e-06
7.43889e-07
3.9927e-07
3.70013e-07
6.37441e-07
1.04637e-06
9.86017e-07
5.2889e-11
9.39322e-09
2.63787e-08
1.4533e-07
0.00047969
0.00275956
1.30519e-07
2.52105e-07
6.72631e-07
1.08991e-06
3.58193e-06
7.85048e-06
1.16434e-05
2.33405e-06
5.84631e-07
6.39234e-08
8.59799e-08
4.0068e-07
5.65855e-08
1.50674e-10
5.30871e-11
7.11464e-08
3.94202e-06
9.76795e-05
0.000148505
2.5468e-10
1.46546e-09
5.51606e-07
1.32519e-06
2.39701e-06
3.42119e-06
4.38729e-06
2.30286e-06
6.88491e-12
-5.42127e-14
-3.43886e-15
3.4462e-15
2.13998e-08
5.87248e-08
7.87144e-08
1.75292e-09
1.31983e-09
7.03729e-05
0.000198432
2.51899e-10
2.54679e-10
4.20385e-09
5.92547e-08
3.4024e-07
8.53252e-07
9.00043e-07
2.86641e-07
-6.51895e-11
4.89953e-10
9.93479e-09
2.86644e-08
2.01628e-07
6.6892e-07
1.09829e-06
2.26984e-07
1.12574e-06
0.000425735
0.00135157
2.5468e-10
2.96676e-10
1.83321e-10
6.58959e-12
6.63869e-12
6.57259e-12
6.62708e-12
6.57288e-12
6.64049e-12
7.37237e-11
3.27048e-11
2.28086e-08
8.38431e-08
1.01773e-06
4.98131e-06
8.11714e-05
0.00298988
0.0107797
0.0148312
3.92328e-10
3.6664e-10
2.96843e-10
1.91567e-10
1.02812e-10
4.20363e-11
2.558e-11
4.93741e-11
6.08577e-10
3.60892e-09
5.66056e-09
1.57037e-09
9.21185e-10
3.86994e-10
9.21373e-10
0.00117709
0.0128412
0.0180005
0.01741
5.64135e-10
5.06138e-10
3.31878e-10
2.36697e-10
1.67293e-10
1.10344e-10
1.08038e-10
5.17411e-10
3.05188e-09
8.09978e-09
9.42885e-09
3.5103e-09
1.70245e-05
3.72867e-05
1.14007e-05
0.00243049
0.00449574
0.00385139
0.000446123
1.12064e-09
7.51142e-10
3.57796e-10
2.15003e-10
1.56056e-10
1.22992e-10
9.13452e-11
7.69047e-11
2.2056e-10
1.75466e-09
5.12245e-09
4.41627e-07
4.14312e-05
0.000106898
0.000178502
8.47327e-06
1.50377e-09
3.44048e-09
1.13093e-10
1.81926e-09
7.37463e-10
3.02014e-10
1.28334e-10
9.48334e-11
8.46554e-11
6.98939e-11
5.80533e-11
3.94503e-11
2.92947e-11
5.18325e-10
1.02372e-07
5.95738e-07
1.62127e-17
1.76211e-09
2.05144e-25
2.61565e-08
1.82321e-08
3.39931e-09
1.67194e-09
5.8068e-10
1.75279e-10
7.72292e-11
6.49799e-11
5.86575e-11
5.62366e-11
5.98558e-11
7.02829e-11
2.52348e-10
2.84609e-11
1.32024e-10
8.35261e-07
2.54177e-08
8.307e-09
1.7971e-08
5.36949e-08
4.30104e-08
8.03252e-09
1.37639e-09
4.19003e-10
1.17189e-10
6.5904e-11
6.10301e-11
6.49018e-11
1.03794e-10
2.09887e-10
4.41534e-10
2.20099e-09
1.39078e-10
4.00011e-08
1.99874e-07
4.61687e-08
8.06137e-09
2.28836e-08
3.61235e-08
1.12263e-08
4.84016e-09
1.38094e-09
3.63998e-10
9.15241e-11
6.8001e-11
7.69275e-11
1.48085e-10
2.56872e-10
6.98227e-10
1.07945e-09
1.40558e-09
1.26984e-08
8.77164e-08
1.91236e-08
1.13458e-08
1.80583e-09
2.97641e-11
3.46687e-11
2.98607e-11
2.60926e-09
1.76884e-09
4.77705e-10
1.02237e-10
7.88107e-11
1.07214e-10
1.90264e-10
3.65708e-10
7.47928e-10
1.42423e-09
1.44283e-09
1.98053e-08
3.55515e-08
2.40137e-08
6.45289e-09
1.45472e-09
3.60209e-10
5.06565e-11
1.8327e-10
2.7764e-09
2.00585e-09
8.47527e-10
2.09824e-10
8.72703e-11
1.03788e-10
1.72926e-10
3.33337e-10
5.63277e-10
1.09071e-09
1.81462e-09
4.02432e-09
5.65135e-09
1.12582e-09
8.61335e-11
3.51412e-11
1.71958e-11
3.50386e-11
1.74308e-10
2.43232e-09
1.69267e-09
1.22954e-09
5.09022e-10
1.30933e-10
1.00155e-10
1.23566e-10
2.06389e-10
3.4881e-10
5.52824e-10
6.48055e-10
3.85439e-10
1.07351e-11
2.99137e-12
2.97908e-12
4.60277e-12
8.37707e-12
2.21501e-11
1.30607e-10
1.26229e-09
1.17259e-09
1.05607e-09
7.69883e-10
3.51413e-10
1.15367e-10
8.85047e-11
1.00835e-10
1.46841e-10
1.97648e-10
1.83987e-10
1.12209e-10
4.61211e-11
1.35192e-11
3.00254e-12
3.34898e-12
5.61399e-12
1.46528e-11
7.53079e-11
4.66331e-10
6.75451e-10
6.98172e-10
6.259e-10
4.71656e-10
2.51048e-10
9.82828e-11
5.63517e-11
5.61407e-11
5.80469e-11
4.95596e-11
3.09679e-11
1.51187e-11
3.11374e-12
1.38206e-12
1.58679e-12
2.49866e-12
5.62795e-12
3.05406e-11
1.18941e-10
3.06751e-10
3.48851e-10
3.69759e-10
3.42299e-10
2.6199e-10
1.49684e-10
6.53493e-11
3.11857e-11
2.06577e-11
1.44757e-11
8.81672e-12
3.81943e-12
1.19861e-12
6.53041e-13
6.39275e-13
8.38075e-13
1.67802e-12
6.39568e-12
3.40425e-11
1.02814e-10
1.35741e-10
1.65391e-10
1.74326e-10
1.63845e-10
1.28828e-10
7.54562e-11
3.36452e-11
1.44614e-11
6.8753e-12
3.33343e-12
1.43128e-12
5.95919e-13
3.13834e-13
2.19605e-13
2.1672e-13
3.00633e-13
1.0286e-12
4.19994e-12
2.6429e-11
3.85576e-11
5.23181e-11
6.44177e-11
7.16436e-11
6.95233e-11
5.49897e-11
3.03203e-11
1.30658e-11
5.22452e-12
1.98458e-12
7.3651e-13
2.94576e-13
1.41845e-13
7.40261e-14
5.35552e-14
4.8041e-14
6.51257e-14
2.59581e-13
6.73848e-12
9.26917e-12
1.32154e-11
1.81666e-11
2.2856e-11
2.55352e-11
2.48766e-11
1.84535e-11
9.15758e-12
3.68876e-12
1.2769e-12
3.83674e-13
1.26287e-13
5.06183e-14
2.16511e-14
7.4611e-15
3.72923e-15
3.64938e-15
1.87492e-14
1.97723e-12
2.32153e-12
3.01237e-12
4.01526e-12
5.20732e-12
6.85686e-12
7.75382e-12
6.93262e-12
4.26939e-12
1.8998e-12
6.46996e-13
1.69129e-13
4.25493e-14
1.40197e-14
3.65934e-15
1.34251e-15
1.70808e-15
1.64895e-15
9.62235e-16
5.97725e-13
5.92125e-13
6.51307e-13
7.83479e-13
1.00838e-12
1.39753e-12
1.68206e-12
1.7594e-12
1.30205e-12
6.52295e-13
2.24656e-13
5.24573e-14
1.10064e-14
3.01986e-15
4.75923e-16
5.39017e-16
8.21141e-16
8.52816e-16
4.97611e-16
1.6348e-13
1.43272e-13
1.28874e-13
1.34372e-13
1.61206e-13
2.15376e-13
2.76446e-13
3.11734e-13
2.56777e-13
1.41401e-13
4.76635e-14
9.85841e-15
1.82134e-15
5.39851e-16
1.41812e-16
2.09376e-16
3.65283e-16
4.41354e-16
2.46248e-16
3.79158e-14
3.17385e-14
2.43529e-14
1.85386e-14
1.70836e-14
2.20252e-14
3.05021e-14
3.71141e-14
3.24769e-14
1.87237e-14
5.76938e-15
7.75173e-16
1.00994e-16
6.16842e-17
4.47141e-17
7.72416e-17
1.57721e-16
2.72499e-16
1.2734e-16
7.80164e-15
5.72912e-15
3.71816e-15
1.78065e-15
9.31673e-16
1.0607e-15
2.00824e-15
2.76938e-15
2.55527e-15
1.48006e-15
2.87643e-16
7.85943e-18
7.06076e-19
2.55845e-18
9.28862e-18
2.74162e-17
6.79485e-17
1.38124e-16
8.87596e-17
1.26148e-15
8.47601e-16
3.60896e-16
8.46137e-17
1.91363e-17
2.63278e-17
6.82942e-17
1.06075e-16
1.02879e-16
5.75377e-17
6.38172e-18
9.13761e-20
1.39389e-19
6.81804e-19
3.1698e-18
9.78768e-18
2.909e-17
8.13705e-17
4.92932e-17
1.84237e-16
7.05021e-17
1.42054e-17
1.57662e-18
2.04074e-19
3.20652e-19
1.45846e-18
2.83348e-18
2.54274e-18
6.45669e-19
2.6674e-20
2.25628e-20
5.92026e-20
2.70611e-19
1.13729e-18
4.62986e-18
1.75679e-17
3.86581e-17
2.85981e-17
1.80452e-17
2.72569e-18
2.17903e-19
1.89086e-20
3.92158e-21
3.71495e-21
2.05744e-20
4.91156e-20
4.56919e-20
1.35205e-20
1.09262e-20
1.99157e-20
3.99697e-20
1.27979e-19
5.86158e-19
3.19713e-18
1.10254e-17
1.91805e-17
1.3344e-17
5.00208e-19
3.18118e-20
2.02997e-21
2.23951e-22
1.50396e-22
1.82639e-22
5.57144e-22
1.42754e-21
2.33798e-21
4.28877e-21
9.24857e-21
1.85144e-20
3.23963e-20
8.97381e-20
4.51966e-19
2.22426e-18
5.57619e-18
8.83084e-18
6.27304e-18
3.12137e-21
1.47099e-22
1.62281e-23
1.406e-23
3.15813e-23
8.55552e-23
2.39227e-22
6.38331e-22
1.59351e-21
3.83155e-21
8.55366e-21
1.7101e-20
2.97929e-20
7.95551e-20
3.5789e-19
1.33051e-18
3.004e-18
3.71872e-18
2.55939e-18
9.476e-24
7.67371e-25
1.81535e-24
6.6065e-24
2.18457e-23
6.78162e-23
1.93272e-22
5.19788e-22
1.339e-21
3.21428e-21
7.19772e-21
1.44628e-20
2.54301e-20
6.31148e-20
2.39156e-19
7.78191e-19
1.27467e-18
1.51939e-18
9.06921e-19
6.95708e-26
3.25326e-25
1.36755e-24
5.01772e-24
1.6668e-23
5.07127e-23
1.48279e-22
3.94978e-22
1.00842e-21
2.4327e-21
5.44501e-21
1.09498e-20
1.94033e-20
4.47876e-20
1.48519e-19
4.0831e-19
6.0693e-19
5.21255e-19
3.12862e-19
4.75857e-26
2.37719e-25
9.73913e-25
3.41071e-24
1.12402e-23
3.41393e-23
9.70909e-23
2.60235e-22
6.65276e-22
1.60412e-21
3.59284e-21
7.24807e-21
1.29481e-20
2.84732e-20
7.61205e-20
2.05209e-19
2.21976e-19
1.80729e-19
7.79186e-20
3.49959e-26
1.50008e-25
5.60218e-25
1.88516e-24
5.9094e-24
1.77348e-23
5.15311e-23
1.40653e-22
3.61007e-22
8.92364e-22
2.02779e-21
4.12934e-21
7.41183e-21
1.57151e-20
3.58767e-20
9.25785e-20
7.99058e-20
4.66573e-20
2.86742e-20
1.89469e-26
7.12783e-26
2.43537e-25
7.77825e-25
2.44007e-24
7.44531e-24
2.19326e-23
6.20164e-23
1.64782e-22
4.16361e-22
9.69958e-22
2.02104e-21
3.73129e-21
7.72133e-21
1.56974e-20
3.62207e-20
2.21142e-20
1.60955e-20
9.91881e-21
5.72536e-27
1.85664e-26
5.82241e-26
1.73964e-25
5.94774e-25
2.04049e-24
6.58516e-24
2.00064e-23
5.74688e-23
1.53719e-22
3.74493e-22
8.16854e-22
1.54902e-21
3.20525e-21
6.13097e-21
1.2478e-20
7.70003e-21
5.44211e-21
3.23407e-21
)
;

boundaryField
{
    leftWall
    {
        type            alphaContactAngle;
        contactAngleProperties 
        {
            mercury         
            {
                theta0          90;
            }
            air             
            {
                theta0          90;
            }
            oil             
            {
                theta0          90;
            }
        }
        value           nonuniform List<scalar> 
50
(
4.42288e-11
1.16797e-10
3.30004e-10
3.1607e-10
2.94848e-10
0.0310116
0.7216
1
1
1
1
0.944427
0.704655
0.178078
0.0153207
0.000621872
-2.49072e-09
-4.84872e-08
-5.47923e-08
-2.71723e-08
5.95521e-09
3.35671e-08
3.35e-08
1.86838e-08
1.92906e-08
2.00414e-08
2.00513e-08
1.95776e-08
1.8042e-08
1.60548e-08
1.37172e-08
1.14996e-08
9.6303e-09
7.84187e-09
5.78446e-09
3.72629e-09
2.02041e-09
9.28061e-10
3.11854e-10
7.85668e-11
1.10075e-11
1.33803e-12
7.70035e-14
5.65494e-15
3.5736e-16
1.99159e-17
7.03645e-19
3.54059e-20
1.62927e-21
6.36515e-23
)
;
    }
    rightWall
    {
        type            alphaContactAngle;
        contactAngleProperties 
        {
            mercury         
            {
                theta0          90;
            }
            air             
            {
                theta0          90;
            }
            oil             
            {
                theta0          90;
            }
        }
        value           nonuniform List<scalar> 
50
(
0.0188468
0.0185078
0.0186848
0.135144
0.336054
0.484125
0.740284
0.869477
0.500776
0.00848773
0.00509446
0.00868958
0.00547672
0.00275956
0.000148505
0.000198432
0.00135157
0.0148312
0.01741
0.000446123
1.13093e-10
3.39931e-09
8.03252e-09
4.84016e-09
2.60926e-09
2.7764e-09
2.43232e-09
1.26229e-09
4.66331e-10
1.18941e-10
3.40425e-11
4.19994e-12
2.59581e-13
1.87492e-14
9.62235e-16
4.97611e-16
2.46248e-16
1.2734e-16
8.87596e-17
4.92932e-17
2.85981e-17
1.3344e-17
6.27304e-18
2.55939e-18
9.06921e-19
3.12862e-19
7.79186e-20
2.86742e-20
9.91881e-21
3.23407e-21
)
;
    }
    lowerWall
    {
        type            alphaContactAngle;
        contactAngleProperties 
        {
            mercury         
            {
                theta0          90;
            }
            air             
            {
                theta0          90;
            }
            oil             
            {
                theta0          90;
            }
        }
        value           nonuniform List<scalar> 
62
(
4.42288e-11
8.20762e-11
1.04813e-10
1.05523e-10
1.08003e-10
1.13623e-10
1.20305e-10
1.26718e-10
1.32643e-10
1.37989e-10
1.43142e-10
1.52904e-10
1.73983e-10
2.10284e-10
2.68881e-10
3.57768e-10
4.83608e-10
6.93459e-10
1.1192e-09
2.08254e-09
2.65425e-09
2.77881e-09
2.77906e-09
2.77906e-09
2.36632e-09
1.02366e-09
1.55874e-09
4.03352e-19
0.148994
0.906343
0.997831
0.97248
0.930465
0.870142
0.854237
0.0115331
0.0314759
0.395042
0.783215
0.812717
0.883477
0.883468
0.88337
0.0115331
0.00849328
0.0265944
0.0663436
0.0561472
0.0379351
0.0163642
0.00158616
0.001127
0.00102447
0.00082346
0.0250508
0.11641
0.12165
0.122009
0.0264608
0.0179618
0.0184348
0.0188468
)
;
    }
    atmosphere
    {
        type            inletOutlet;
        inletValue      uniform 0;
        value           nonuniform List<scalar> 
46
(
0
0
0
3.29151e-23
2.79795e-23
2.00051e-23
1.27786e-23
7.74827e-24
4.82342e-24
3.90973e-24
4.29053e-24
5.42402e-24
7.47226e-24
1.00252e-23
1.20643e-23
1.20196e-23
1.0081e-23
6.5052e-24
2.61408e-24
0
0
0
0
0
0
0
0
5.72536e-27
1.85664e-26
0
0
0
0
0
0
0
0
0
0
0
0
0
0
0
0
0
)
;
    }
    defaultFaces
    {
        type            empty;
    }
}


// ************************************************************************* //
