/*--------------------------------*- C++ -*----------------------------------*\
  =========                 |
  \\      /  F ield         | OpenFOAM: The Open Source CFD Toolbox
   \\    /   O peration     | Website:  https://openfoam.org
    \\  /    A nd           | Version:  13
     \\/     M anipulation  |
\*---------------------------------------------------------------------------*/
FoamFile
{
    format      ascii;
    class       volScalarField;
    location    "1.85";
    object      alphas;
}
// * * * * * * * * * * * * * * * * * * * * * * * * * * * * * * * * * * * * * //

dimensions      [];

internalField   nonuniform List<scalar> 
2268
(
2
2
2
2
2
2
2
2
2
2
2
2
2
2
2
2
2
2
2
1.99987
1.9995
1.99943
1.99943
2
2
2
2
2
2
2
2
2
2
2
2
2
2
2
2
2
2
2
2
2
1.99989
1.99985
2
2
2
2
2
2
2
2
2
2
2
2
2
2
2
2
2
2
2
2
2
2
2
2
2
2
2
2
2
2
2
2
2
2
2
2
2
2
2
2
2
2
2
2
2
2
2
2
2
2
2
2
2
2
2
2
2
2
2
2
2
2
2
2
2
2
2
2
2
1.93798
1.89392
1.88559
1.91226
1.95364
1.99984
2
2
2
2
2
2
2
2
2
2
1.99695
1.98626
1.96887
1.93931
1.88865
1.79843
1.70201
0.556799
0.461536
0.449531
0.498659
0.583344
0.700682
0.872328
1.02937
1.16181
1.26526
1.34561
1.3966
1.39934
1.33248
1.23313
1.12001
0.992975
0.856095
0.722445
0.592383
0.45148
0.3007
0.188717
3.38581e-07
2.05738e-07
1.54868e-07
1.37836e-07
1.17536e-07
1.14536e-07
1.04974e-07
0.00599585
0.0176214
0.0318344
0.0351665
0.0232325
3.4122e-08
2.25142e-09
1.64501e-08
2.47375e-07
3.24853e-06
3.65697e-05
0.000258901
0.000918411
0.00219436
0.00369085
0.00638948
1.86078
1.86711
1.8601
1.85922
1.89757
1.96731
1.76632
1.73987
1.6769
1.67733
1.70448
1.76586
1.80888
1.73906
1.63927
1.72926
1.72139
1.72183
1.72101
1.54022
1.49946
1.63925
1.70799
1.66339
1.69183
1.7662
1.81864
1.89296
1.87007
1.80692
1.84265
1.98785
1.82728
1.69512
1.69204
1.74424
1.76501
1.56528
0.729851
0.721354
0.967307
1.15618
1.12185
1.00153
1.17543
1.44824
1.7992
2.15125
2.08383
1.87486
1.97632
2.2559
2.25973
2.0273
2.02876
1.91492
1.54215
0.430671
0.425808
0.430955
0.855671
0.979797
0.718894
0.27929
0.22875
0.557481
2.10271
2.43667
2.26847
2.22977
2.24168
2.20061
2.14778
1.90542
1.62187
1.36128
0.382869
0.435715
0.407126
0.534777
0.965141
0.769961
0.141718
0.0418874
0.0523809
1.30673
2.13085
2.35784
2.31067
2.27464
1.61904
0.89595
0.771177
0.643975
0.872464
0.250952
0.351184
0.408586
0.394021
0.809099
0.870414
0.551547
0.0716941
0.0082305
0.423736
1.68788
2.06604
2.16679
2.00037
0.596708
0.171932
0.0798293
0.0958981
0.522966
0.257848
0.276764
0.317445
0.265277
0.653364
0.916722
0.947448
0.29685
0.00901553
0.0614899
0.376245
0.927865
1.28934
0.881099
0.158098
0.013404
0.0139147
0.0318794
0.265927
0.261796
0.35791
0.278057
0.243057
0.563675
1.24702
1.264
0.352178
0.00760089
0.000442111
0.00211297
0.0257497
0.0886608
0.0661262
0.00303522
0.000659625
0.0425486
0.0424127
0.306371
4.24515e-08
1.47034e-08
1.16062e-08
1.21149e-08
1.30359e-08
1.3093e-08
1.55027e-08
5.31179e-08
8.01404e-08
7.4205e-08
4.33352e-09
4.18171e-09
5.63545e-09
1.05972e-08
6.77809e-08
4.44567e-07
3.34677e-06
2.46421e-05
0.000145256
0.0001537
0.000258099
0.000448816
0.0042997
1.51532e-08
1.26839e-08
1.08943e-08
1.08013e-08
1.18244e-08
1.49953e-08
1.95174e-08
2.20306e-08
2.2404e-08
2.34685e-08
2.62125e-08
2.84294e-08
3.1536e-08
4.79651e-08
1.91873e-07
3.53414e-07
3.84657e-07
3.49029e-07
5.37631e-06
0.0174577
0.0554083
0.129063
0.245233
5.79653e-09
5.33594e-09
5.56296e-09
5.64711e-09
6.59829e-09
7.82747e-09
8.56296e-09
6.74918e-09
5.33365e-09
6.69498e-08
8.9257e-08
9.42476e-08
9.43309e-08
4.91874e-07
0.00437521
0.0180804
0.0500267
0.10811
0.242822
0.437723
0.66048
0.85107
1.04495
0.166719
0.0541149
0.0355429
0.011009
0.0061829
1.7841e-05
1.02095e-07
0.00310405
0.0188713
0.0347172
0.0565056
0.0977853
0.180405
0.30651
0.445558
0.530571
0.653056
0.873624
1.07209
1.20116
1.30923
1.23243
1.0768
0.710174
0.61307
0.548241
0.543152
0.50818
0.521856
0.657114
0.724942
0.771658
0.840622
0.935845
1.04483
1.14389
1.23873
1.30368
1.2827
1.16603
1.10974
1.15392
1.15955
1.04813
1.00062
1.00004
1.23675
1.05424
1.01206
1.00225
1.00677
1.11176
1.24373
1.21531
1.12293
1.11037
1.1167
1.14053
1.12463
1.03365
1.03315
1.03595
1.05583
1.085
1.1061
1.10969
1.08607
1.03352
1
1.2502
1.07511
1.0357
1.03606
1.03652
1.04008
1.04692
1.05567
1.07656
1.11818
1.18997
1.28701
1.41402
1.57439
1.74332
1.95705
2.14423
2.26429
2.30315
2.27166
2.21201
2.1068
1.93361
1.77587
1.84646
1.9166
1.90644
1.93086
2.0168
2.13238
2.26721
2.42038
2.5686
2.6957
2.80235
2.89176
2.97418
3
3
2.99988
3
3
3
3
2.99964
2.99013
2.88099
2.84766
2.84025
2.89414
2.97611
3
3
3
3
3
3
3
3
3
3
3
3
3
3
3
3
3
3
3
3
2.99999
2.99379
2.99653
2.99993
3
3
3
3
2.99991
2.99984
2.99992
3
3
3
3
3
3
3
3
3
3
3
2.99998
3
2.9991
2.99981
3
3
3
3
2.99988
2.99965
2.99965
2.99979
2.99999
3
2.99999
2.99999
3
3
3
3
3
3
3
2.99997
2.99999
2.99998
2.99999
3
3
3
2.99997
2.99965
2.99965
2.99965
2.99985
2.99999
2.99999
2.99999
2.99999
3
3
3
3
3
3
3
3
3
3
3
3
3
3
2.99999
2.99977
2.99966
2.99977
2.99999
2.99999
2.99999
2.99999
3
3
3
3
3
3
3
3
3
3
3
3
3
3
3
3
3
2.99996
2.99999
3
2.99999
3
3
3
3
3
3
3
3
3
3
3
3
3
3
3
3
3
3
3
3
3
3
3
3
3
3
3
3
3
3
3
3
3
3
3
3
3
3
3
3
3
3
3
3
3
3
3
3
3
3
3
3
3
3
3
3
3
3
3
3
3
3
3
3
3
3
3
3
3
3
3
3
3
3
3
3
3
3
3
3
3
3
3
3
3
3
3
3
3
3
3
3
3
3
3
3
3
3
3
3
3
3
3
3
3
3
3
3
3
3
3
3
3
3
3
3
3
3
3
3
3
3
3
3
3
3
3
3
3
3
3
3
3
3
3
3
3
3
3
3
3
3
3
3
3
3
3
3
3
3
3
3
3
3
3
3
3
3
3
3
3
3
3
3
3
3
3
3
3
3
3
3
3
3
3
3
3
3
3
3
3
3
3
3
3
3
3
3
3
3
3
3
3
3
3
3
3
3
3
3
3
3
3
3
3
3
3
3
3
3
3
3
3
3
3
3
3
3
3
3
3
3
3
3
3
3
3
3
3
3
3
3
3
3
3
3
3
3
3
3
3
3
3
3
3
3
3
3
3
3
3
3
3
3
3
3
3
3
3
3
3
3
3
3
3
3
3
3
3
3
3
3
3
3
3
3
3
3
3
3
3
3
3
3
3
3
3
3
3
3
3
3
3
3
3
3
3
3
3
3
3
3
3
3
3
3
3
3
3
3
3
3
3
3
3
3
3
3
3
3
3
3
3
3
3
3
3
3
3
3
3
3
3
3
3
3
3
3
3
3
3
3
3
3
3
3
3
3
3
3
3
3
3
3
3
3
3
3
3
3
3
3
3
3
3
3
3
3
3
3
3
3
3
3
3
3
3
3
3
3
3
3
3
3
3
3
3
3
3
3
3
3
3
3
3
3
3
3
3
3
3
3
3
3
3
3
3
3
3
3
3
3
3
3
3
3
3
3
3
3
3
3
3
3
3
3
3
3
3
3
3
3
3
3
3
3
3
3
3
3
3
3
3
3
3
3
3
3
3
3
3
3
3
3
3
3
3
3
3
3
3
3
3
3
3
3
3
3
3
3
3
3
3
3
3
3
3
3
3
3
3
3
3
3
3
3
3
3
3
3
3
3
3
3
3
3
3
3
3
3
3
3
3
3
3
3
3
3
3
3
3
3
3
3
3
3
3
3
3
3
3
3
3
3
3
3
3
3
3
3
3
3
3
3
3
3
3
3
3
3
3
3
3
3
3
3
3
3
3
3
3
3
3
3
3
3
3
3
3
3
3
3
3
3
3
3
3
3
3
3
3
3
3
3
3
3
3
3
3
3
3
3
3
3
3
3
3
3
3
3
3
3
3
3
3
3
3
3
3
3
3
3
3
3
3
3
3
3
3
3
3
3
3
3
3
3
3
3
3
3
3
3
3
3
3
3
3
3
3
3
3
3
3
3
3
3
3
3
3
3
3
3
3
3
3
3
3
3
3
3
3
3
3
0.065448
0.131108
0.20666
0.237648
0.31358
0.367079
0.62376
0.827595
1.07053
1.00871
1.03119
1.22023
1.00041
1.00003
1.0319
1.07384
1
1.0001
1.00087
1
1
1
1
1
1.82109
1.60438
1.19128
1
2.97374
2.92777
2.81692
2.62173
3
3
3
3
3
3
3
3
3
3
3
3
3
3
3
3
3
3
3
3
3
3
3
3
3
3
3
3
3
3
3
3
3
3
3
3
3
3
3
3
3
3
3
3
3
3
3
3
3
3
3
3
3
3
3
3
3
3
3
3
3
3
3
3
3
3
3
3
3
3
3
3
3
3
3
3
3
3
3
3
3
3
3
3
3
3
3
3
3
3
3
3
3
3
3
3
3
3
3
3
3
3
3
3
3
3
3
3
3
3
3
3
3
3
3
3
3
3
3
3
3
3
3
3
3
3
3
3
3
3
3
3
3
3
3
3
0.497469
0.870326
0.376471
0.326116
0.636545
1.36589
1.33293
0.293624
0.000525108
0.000257956
0.000281398
0.000449357
0.000243517
0.000174478
0.000246309
0.000243302
0.0308077
0.252183
0.721838
1.25734
1.30619
0.78076
0.565781
0.856792
1.33674
1.1363
0.544816
0.0412661
0.00168075
0.000710044
0.00634553
0.00340451
0.00530053
0.00139802
0.0263239
0.41018
0.937634
1.18867
1.28736
1.10358
1.21063
1.10202
1.13967
1.01196
1.17197
0.902132
0.485757
0.255365
0.162541
0.179604
0.290662
0.535638
0.74253
0.847137
0.981215
1.00242
1.0131
1.01374
1.00251
1.04747
1.07671
1.0137
1.00015
1.03252
1.22267
1.03283
0.97224
0.924295
0.965247
1.00004
1.00008
1.00029
1.00099
1.00096
0.999284
0.991515
1
1
1
1
0.999974
0.999926
1.00003
1.08111
1.19931
1.08733
1.00019
1.00013
1.00007
1.00006
1.00025
1.00073
1.00064
0.999314
0.99457
1
1
1
0.999996
0.999975
1.00012
1.00027
1
1
1
1.00002
1.00014
1.0001
1.00006
1.00004
1
1
1.00643
1.02665
1
1
0.999999
0.999999
0.999996
0.999992
0.999988
0.999998
1
1
1.00001
1.00002
1.00001
1.00001
1
1
0.999997
1.02667
1.05975
2.0582
1.26348
0.999999
0.999999
0.999998
0.999997
0.999996
0.999998
1
1
1
1
1
1
1
1
1.00024
1.03477
1.05966
2.99965
2.89688
2.60876
2.03576
1.2999
1.05226
1.04137
1
1
1
1
1
1
1
0.999999
1
1.00006
1.01088
1.02492
3
3
3
2.99888
2.97673
2.88486
2.34222
1.64867
1.34703
1.16837
1.03121
1
1
1
0.999996
0.999938
0.997969
1.04479
1.15193
3
3
3
3
3
3
3
3
2.99829
2.5845
2.20365
1.88935
1.54132
1.40837
1.3908
1.4294
1.8212
2.39039
2.66524
3
3
3
3
3
3
3
3
3
3
3
3
2.97616
2.91531
2.91303
2.96855
2.98561
2.98784
2.99866
3
3
3
3
3
3
3
3
2.99998
2.99999
3
3
2.99986
2.99963
2.9994
2.99997
2.99997
2.99999
3
3
3
3
3
3
3
3
2.99983
2.99837
2.99877
2.99985
2.99999
2.99941
2.99773
2.99785
2.99894
2.99974
2.99999
2.99999
3
3
3
3
3
3
3
2.99884
2.99798
2.99798
2.99916
3
2.99924
2.99598
2.99595
2.99724
2.99963
2.99999
3
3
3
3
3
3
3
3
2.99984
2.99844
2.99849
2.99972
3
2.99991
2.9989
2.99883
2.99982
2.99998
3
3
3
3
3
3
3
3
2.99999
3
2.99996
3
3
3
2.99999
3
3
3
3
3
3
3
3
3
3
3
3
3
3
3
3
3
2.99999
3
3
3
3
3
3
3
3
3
3
3
3
3
3
3
3
3
3
3
3
3
3
3
3
3
3
3
3
3
3
3
3
3
3
3
3
3
3
3
3
3
3
3
3
3
3
3
3
3
3
3
3
3
3
3
3
3
3
3
3
3
3
3
3
3
3
3
3
3
3
3
3
3
3
3
3
3
3
3
3
3
3
3
3
3
3
3
3
3
3
3
3
3
3
3
3
3
3
3
3
3
3
3
3
3
3
3
3
3
3
3
3
3
3
3
3
3
3
3
3
3
3
3
3
3
3
3
3
3
3
3
3
3
3
3
3
3
3
3
3
3
3
3
3
3
3
3
3
3
3
3
3
3
3
3
3
3
3
3
3
3
3
3
3
3
3
3
3
3
3
3
3
3
3
3
3
3
3
3
3
3
3
3
3
3
3
3
3
3
3
3
3
3
3
3
3
3
3
3
3
3
3
3
3
3
3
3
3
3
3
3
3
3
3
3
3
3
3
3
3
3
3
3
3
3
3
3
3
3
3
3
3
3
3
3
3
3
3
3
3
3
3
3
3
3
3
3
3
3
3
3
3
3
3
3
3
3
3
3
3
3
3
3
3
3
3
3
3
3
3
3
3
3
3
3
3
3
3
3
3
3
3
3
3
3
3
3
3
3
3
3
3
3
3
3
3
3
3
3
3
3
3
3
3
3
3
3
3
3
3
3
3
3
3
3
3
3
3
3
3
3
3
3
3
3
3
3
3
3
3
3
3
3
3
3
3
3
3
3
3
3
3
3
3
3
3
3
3
3
3
3
3
3
3
3
3
3
3
3
3
3
3
3
3
3
3
3
3
3
3
3
3
3
3
3
3
3
3
3
3
3
3
3
3
3
3
3
3
3
3
3
3
3
3
3
3
3
3
3
3
3
3
3
3
3
3
3
3
3
3
3
3
3
3
3
3
3
3
3
3
3
3
3
3
3
3
3
3
3
3
3
3
3
3
3
3
3
3
3
3
3
3
3
3
3
3
3
3
3
3
3
3
3
3
3
3
3
3
3
3
3
3
3
)
;

boundaryField
{
    leftWall
    {
        type            calculated;
        value           nonuniform List<scalar> 
50
(
2
2
2
2
2
1.93798
0.556799
3.38581e-07
4.24515e-08
1.51532e-08
5.79653e-09
0.166719
0.710174
1.23675
1.2502
1.77587
2.88099
3
3
3
3
3
3
3
3
3
3
3
3
3
3
3
3
3
3
3
3
3
3
3
3
3
3
3
3
3
3
3
3
3
)
;
    }
    rightWall
    {
        type            calculated;
        value           nonuniform List<scalar> 
50
(
1.72101
1.56528
1.54215
1.36128
0.872464
0.522966
0.265927
0.306371
0.721838
1.18867
1.0131
0.991515
0.99457
1.02665
1.05975
1.05966
1.02492
1.15193
2.66524
2.99866
3
2.99999
3
3
3
3
3
3
3
3
3
3
3
3
3
3
3
3
3
3
3
3
3
3
3
3
3
3
3
3
)
;
    }
    lowerWall
    {
        type            calculated;
        value           nonuniform List<scalar> 
62
(
2
2
2
2
2
2
2
2
2
2
2
2
2
2
2
2
2
2
2
1.99987
1.9995
1.99943
1.99943
1.99943
1.99985
2
2
2
1.70201
0.188717
0.00638948
0.065448
0.131108
0.20666
0.237648
1.86078
1.54022
0.729851
0.430671
0.382869
0.250952
0.257848
0.261796
1.86078
1.86711
1.8601
1.85922
1.89757
1.96731
1.76632
1.73987
1.6769
1.67733
1.70448
1.76586
1.80888
1.73906
1.63927
1.72926
1.72139
1.72183
1.72101
)
;
    }
    atmosphere
    {
        type            calculated;
        value           nonuniform List<scalar> 
46
(
3
3
3
3
3
3
3
3
3
3
3
3
3
3
3
3
3
3
3
3
3
3
3
3
3
3
3
3
3
3
3
3
3
3
3
3
3
3
3
3
3
3
3
3
3
3
)
;
    }
    defaultFaces
    {
        type            empty;
    }
}


// ************************************************************************* //
