/*--------------------------------*- C++ -*----------------------------------*\
  =========                 |
  \\      /  F ield         | OpenFOAM: The Open Source CFD Toolbox
   \\    /   O peration     | Website:  https://openfoam.org
    \\  /    A nd           | Version:  13
     \\/     M anipulation  |
\*---------------------------------------------------------------------------*/
FoamFile
{
    format      ascii;
    class       volScalarField;
    location    "1.85";
    object      alpha.mercury;
}
// * * * * * * * * * * * * * * * * * * * * * * * * * * * * * * * * * * * * * //

dimensions      [];

internalField   nonuniform List<scalar> 
2268
(
1
1
1
1
1
1
1
1
1
1
1
1
1
1
1
1
1
1
1
0.999871
0.999499
0.999433
0.999433
1
1
1
1
1
1
1
1
1
1
1
1
1
1
1
1
1
1
1
1
0.999999
0.999895
0.999855
1
1
1
1
1
1
1
1
1
1
1
1
1
1
1
1
1
1
1
1
1
1
1
1
1
1
1
1
1
1
1
1
1
1
1
1
1
1
1
1
1
1
1
1
1
1
1
1
1
1
1
1
1
1
1
1
1
1
1
1
1
1
1
1
1
1
1
1
1
0.968988
0.946959
0.942794
0.956129
0.97682
0.999918
1
1
1
1
1
1
1
1
1
1
0.998477
0.993129
0.984435
0.969653
0.944325
0.899201
0.850977
0.2784
0.230768
0.224765
0.249329
0.291672
0.350341
0.436164
0.514687
0.580907
0.632631
0.672806
0.698302
0.699668
0.666238
0.616564
0.560004
0.496487
0.428044
0.361179
0.295976
0.225125
0.149076
0.0921065
1.66598e-07
1.01379e-07
7.64421e-08
6.81111e-08
5.79387e-08
5.6354e-08
5.16141e-08
0.00299792
0.00881069
0.0159172
0.0175832
0.0116162
1.6257e-08
-8.55128e-11
0
3.72931e-27
-5.18429e-11
7.60757e-21
9.12679e-24
1.32117e-22
-9.84304e-12
-4.59036e-10
-1.31513e-08
0.871654
0.874943
0.877029
0.877017
0.876971
0.86186
0.635362
0.594048
0.59586
0.590831
0.583548
0.582993
0.714067
0.73085
0.731122
0.725896
0.709529
0.710443
0.710032
0.565009
0.542578
0.659276
0.78411
0.814425
0.826905
0.83285
0.832876
0.832855
0.805328
0.748828
0.748319
0.747772
0.746896
0.746748
0.701789
0.687691
0.645113
0.547593
0.091244
0.091176
0.12537
0.226236
0.346654
0.451185
0.58768
0.724085
0.778235
0.785986
0.789735
0.699939
0.695727
0.5992
0.478419
0.406908
0.370787
0.366064
0.388228
0.182968
0.173064
0.0796686
0.0771246
0.133885
0.163866
0.134643
0.114274
0.172101
0.324801
0.350148
0.284881
0.264216
0.247772
0.268304
0.251247
0.174048
0.157751
0.220241
0.164668
0.18383
0.177493
0.0932097
0.115394
0.102951
0.0307857
0.0144506
0.00365588
0.00881718
0.133825
0.222735
0.182117
0.193675
0.176047
0.0964619
0.0910126
0.0943125
0.102396
0.0171683
0.107975
0.175906
0.139753
0.111164
0.0873512
0.0859104
0.0243
0.00395435
0.000115971
0.00180811
0.048287
0.0985012
0.0685424
0.0069754
3.0191e-06
0.0149964
0.019704
0.00675664
0.00488801
0.000775441
0.116694
0.114441
0.0862725
0.0919525
0.0950231
0.0701878
0.00450775
8.67822e-05
2.0847e-12
2.00123e-11
9.75892e-05
1.39441e-06
1.32048e-06
1.33042e-06
0.000169448
5.84413e-05
0.000113054
0.0181075
0.0015964
0.000232235
0.0972046
0.0452322
0.0605515
0.0950093
0.0774592
0.00379862
0.000221048
0.000103143
7.16396e-05
8.59356e-06
2.4499e-06
1.86599e-05
1.91006e-05
6.64206e-05
4.67081e-05
0.000667115
1.31842e-08
1.48554e-09
2.1769e-09
3.02455e-09
3.40571e-09
3.05074e-09
3.39091e-09
2.23515e-08
3.65305e-08
3.42758e-08
6.12214e-13
-1.40487e-28
-7.75482e-28
1.00865e-10
4.53598e-11
8.55294e-11
3.25119e-10
4.09051e-10
2.43778e-11
2.35615e-11
2.71751e-11
4.3337e-12
-2.46343e-08
1.24085e-09
1.23037e-09
1.5612e-09
1.80338e-09
1.95241e-09
2.23975e-09
1.93679e-09
1.62796e-09
1.50954e-09
1.16534e-09
9.43011e-10
4.97857e-10
3.67349e-10
2.70786e-09
1.83737e-09
3.11748e-09
1.60425e-08
7.36446e-09
6.35158e-10
6.37724e-10
6.74409e-10
1.15545e-10
2.96309e-09
3.37217e-10
5.42287e-10
8.50298e-10
1.10298e-09
1.39053e-09
1.61182e-09
1.63093e-09
1.49509e-09
1.26842e-09
1.00983e-09
6.98996e-10
4.66105e-10
3.26323e-10
2.59348e-10
2.68812e-10
3.75599e-10
7.25505e-10
9.21099e-10
1.33228e-09
1.90944e-09
1.86011e-09
3.25616e-10
2.12785e-09
2.81943e-10
3.40224e-10
4.58688e-10
5.52568e-10
6.41727e-10
7.62249e-10
7.76749e-10
7.6578e-10
7.10003e-10
6.63564e-10
6.59495e-10
6.86445e-10
7.6861e-10
9.11402e-10
1.17606e-09
1.53326e-09
1.821e-09
2.16058e-09
2.28268e-09
2.28361e-09
2.0883e-09
6.80731e-10
2.3642e-10
3.32663e-10
4.16568e-10
4.72971e-10
5.09548e-10
5.59332e-10
6.28866e-10
7.21482e-10
8.25324e-10
9.86221e-10
1.21089e-09
1.42772e-09
1.60945e-09
1.74337e-09
1.83536e-09
1.88664e-09
1.9614e-09
2.12102e-09
2.16887e-09
2.15797e-09
1.91591e-09
1.63336e-09
1.12557e-09
1.9224e-10
4.6558e-10
5.52961e-10
5.75107e-10
6.11084e-10
6.76991e-10
8.11745e-10
9.88105e-10
1.14934e-09
1.29216e-09
1.42186e-09
1.43198e-09
1.36965e-09
1.21106e-09
9.69974e-10
7.43744e-10
5.74746e-10
4.70822e-10
4.2335e-10
3.66269e-10
2.83043e-10
2.91486e-10
4.65954e-10
2.92636e-10
5.02106e-10
5.15866e-10
4.51527e-10
4.3258e-10
4.42897e-10
4.92338e-10
5.18533e-10
4.88322e-10
4.17197e-10
3.33548e-10
2.48406e-10
1.77416e-10
1.24004e-10
8.79307e-11
6.29727e-11
4.48948e-11
3.16564e-11
2.35272e-11
2.05222e-11
2.28539e-11
3.04366e-11
1.06859e-10
2.24307e-10
5.05387e-10
5.15547e-10
4.6673e-10
3.23293e-10
2.04731e-10
1.48981e-10
1.12752e-10
8.41159e-11
6.42163e-11
5.11547e-11
4.05052e-11
3.29466e-11
2.56455e-11
1.94084e-11
1.46096e-11
1.24674e-11
1.12629e-11
1.00503e-11
9.09752e-12
8.35929e-12
9.33327e-12
1.68903e-11
7.94988e-11
3.99244e-10
4.31106e-10
4.57125e-10
4.13335e-10
2.71815e-10
1.60112e-10
1.33458e-10
1.08869e-10
9.8406e-11
8.76498e-11
7.18844e-11
5.25735e-11
2.94916e-11
2.01577e-11
1.31363e-11
9.69734e-12
7.88667e-12
6.20451e-12
4.98727e-12
4.80706e-12
4.66563e-12
7.5333e-12
2.76627e-11
1.97575e-10
2.77943e-10
4.26567e-10
4.20021e-10
3.29935e-10
2.46034e-10
2.36899e-10
2.20666e-10
1.81971e-10
1.53181e-10
1.20036e-10
8.39275e-11
4.89464e-11
2.28301e-11
1.50087e-11
1.1192e-11
7.4032e-12
5.13954e-12
3.4298e-12
2.33513e-12
2.17952e-12
3.78782e-12
6.92575e-12
1.08758e-10
2.55734e-10
4.37996e-10
4.23461e-10
3.35162e-10
3.17639e-10
3.23834e-10
2.81548e-10
2.41417e-10
2.06065e-10
1.70117e-10
1.18932e-10
7.25734e-11
3.50929e-11
2.08631e-11
1.32901e-11
7.64521e-12
4.56913e-12
3.04339e-12
1.90868e-12
1.25871e-12
1.10886e-12
2.10213e-12
6.97595e-11
2.54253e-10
4.38536e-10
4.39758e-10
4.12831e-10
3.99043e-10
3.39099e-10
2.82069e-10
2.48183e-10
2.1119e-10
1.73787e-10
1.16415e-10
6.84835e-11
3.59565e-11
2.05247e-11
1.36097e-11
7.28374e-12
4.37722e-12
2.78618e-12
1.68265e-12
1.02055e-12
6.7574e-13
5.12226e-13
5.47589e-11
2.61516e-10
4.1698e-10
4.3769e-10
4.169e-10
3.73232e-10
2.89925e-10
2.54446e-10
2.33452e-10
1.93854e-10
1.56697e-10
1.04954e-10
5.84446e-11
3.19483e-11
2.03045e-11
1.18524e-11
6.20603e-12
3.89854e-12
2.4116e-12
1.36256e-12
8.60001e-13
5.44765e-13
3.72273e-13
5.50788e-11
2.29435e-10
3.60488e-10
3.83247e-10
3.44742e-10
2.81467e-10
2.35122e-10
2.16712e-10
1.87784e-10
1.5187e-10
1.18837e-10
8.33215e-11
4.93651e-11
2.68189e-11
1.58238e-11
9.19425e-12
5.36623e-12
3.02975e-12
1.95937e-12
1.12037e-12
6.57452e-13
4.19897e-13
2.76133e-13
5.2785e-11
1.8213e-10
2.87225e-10
2.96169e-10
2.67771e-10
2.18407e-10
1.87732e-10
1.551e-10
1.31087e-10
1.14364e-10
9.09553e-11
6.66675e-11
3.80472e-11
2.0296e-11
1.29529e-11
7.391e-12
4.1347e-12
2.11301e-12
1.39896e-12
8.6721e-13
5.41042e-13
3.26694e-13
2.08331e-13
3.63269e-11
1.28664e-10
2.00339e-10
2.07744e-10
1.87026e-10
1.59254e-10
1.30077e-10
1.06623e-10
8.98023e-11
7.502e-11
5.71546e-11
4.09725e-11
2.46682e-11
1.58411e-11
9.64086e-12
5.10898e-12
2.6518e-12
1.50253e-12
1.11929e-12
7.15008e-13
4.4961e-13
2.66019e-13
1.73051e-13
2.60453e-11
8.07422e-11
1.20974e-10
1.31563e-10
1.2037e-10
1.03682e-10
8.34245e-11
6.59383e-11
5.05344e-11
3.50499e-11
2.66286e-11
2.0486e-11
1.50319e-11
9.3518e-12
5.45833e-12
3.28218e-12
1.86756e-12
1.19929e-12
8.69356e-13
5.61672e-13
3.76355e-13
2.31014e-13
1.53345e-13
1.75712e-11
4.8824e-11
6.73423e-11
7.29825e-11
7.24641e-11
6.29524e-11
5.11511e-11
3.88951e-11
2.42502e-11
1.609e-11
1.22894e-11
1.01808e-11
8.13325e-12
5.51118e-12
3.13624e-12
1.94113e-12
1.49511e-12
1.05801e-12
7.00693e-13
4.40462e-13
3.0108e-13
2.01975e-13
1.40053e-13
1.23683e-11
3.1307e-11
4.14303e-11
4.55944e-11
4.58428e-11
4.06866e-11
3.21254e-11
2.35974e-11
1.68776e-11
1.01442e-11
7.0551e-12
5.74594e-12
4.41434e-12
2.90693e-12
2.04627e-12
1.46877e-12
1.14011e-12
8.47278e-13
5.60806e-13
3.51369e-13
2.52106e-13
1.71696e-13
1.24836e-13
7.64493e-12
1.89404e-11
2.55383e-11
2.8157e-11
2.82112e-11
2.52479e-11
2.20365e-11
1.66818e-11
1.12183e-11
7.19589e-12
4.73709e-12
3.16967e-12
2.33806e-12
1.78105e-12
1.37851e-12
1.05388e-12
8.54782e-13
6.30201e-13
4.3274e-13
2.76652e-13
2.05158e-13
1.48319e-13
1.08498e-13
4.74382e-12
1.16687e-11
1.57109e-11
1.69603e-11
1.73471e-11
1.65158e-11
1.44627e-11
1.14226e-11
7.9242e-12
4.97299e-12
3.02971e-12
1.90314e-12
1.40881e-12
1.06461e-12
8.46235e-13
6.54913e-13
5.59127e-13
4.34092e-13
3.14396e-13
2.08353e-13
1.59799e-13
1.20047e-13
9.08609e-14
2.76187e-12
6.63583e-12
8.77109e-12
9.59432e-12
9.8411e-12
9.64871e-12
8.88274e-12
7.5032e-12
5.7018e-12
3.70618e-12
2.1587e-12
1.22038e-12
7.99518e-13
5.98654e-13
4.82199e-13
3.94105e-13
3.30124e-13
2.74967e-13
2.10571e-13
1.4215e-13
1.12691e-13
9.0497e-14
7.06607e-14
1.47005e-12
3.46824e-12
4.50846e-12
4.82853e-12
5.006e-12
4.99909e-12
4.84636e-12
4.45758e-12
3.69748e-12
2.62334e-12
1.56123e-12
8.14759e-13
4.81646e-13
3.26619e-13
2.54431e-13
2.10221e-13
1.79876e-13
1.54199e-13
1.20807e-13
8.5279e-14
7.23733e-14
5.87024e-14
4.78815e-14
7.15983e-13
1.65173e-12
2.10739e-12
2.18269e-12
2.19235e-12
2.30143e-12
2.23482e-12
2.23497e-12
2.09661e-12
1.62364e-12
1.0463e-12
5.81586e-13
2.72329e-13
1.77225e-13
1.25072e-13
9.91723e-14
8.50265e-14
7.40939e-14
6.23302e-14
4.90233e-14
4.12301e-14
3.42626e-14
2.81929e-14
3.29796e-13
7.17269e-13
8.79633e-13
8.72142e-13
8.32416e-13
9.0746e-13
9.21956e-13
9.18715e-13
1.0364e-12
9.26565e-13
6.31413e-13
3.90222e-13
1.83406e-13
9.89182e-14
6.07531e-14
4.46088e-14
3.64363e-14
3.18344e-14
2.8178e-14
2.40521e-14
2.03843e-14
1.68083e-14
1.38336e-14
1.40368e-13
2.82498e-13
3.28467e-13
3.07248e-13
2.78755e-13
3.08879e-13
3.22424e-13
3.24883e-13
3.73694e-13
4.34513e-13
3.20213e-13
2.11526e-13
1.25583e-13
5.49213e-14
2.99866e-14
1.96464e-14
1.49601e-14
1.28147e-14
1.1442e-14
9.92031e-15
8.55783e-15
7.38574e-15
6.0111e-15
5.25169e-14
9.92061e-14
1.09037e-13
9.62446e-14
8.43619e-14
9.46067e-14
1.01538e-13
1.06651e-13
1.19341e-13
1.52302e-13
1.36687e-13
9.80372e-14
6.02649e-14
3.21389e-14
1.41815e-14
8.57628e-15
5.97109e-15
4.89284e-15
4.31085e-15
3.76445e-15
3.3035e-15
2.83621e-15
2.37055e-15
1.69419e-14
3.03e-14
3.1649e-14
2.66513e-14
2.28885e-14
2.59851e-14
2.90617e-14
3.11609e-14
3.44169e-14
4.51761e-14
4.54251e-14
3.64422e-14
2.50932e-14
1.47227e-14
6.53163e-15
3.28573e-15
2.17822e-15
1.74276e-15
1.4737e-15
1.29701e-15
1.08887e-15
9.35407e-16
8.00294e-16
4.54435e-15
7.84504e-15
7.85343e-15
6.38347e-15
5.41911e-15
6.20474e-15
7.35851e-15
8.04e-15
8.93544e-15
1.18129e-14
1.27013e-14
1.07644e-14
7.92064e-15
5.28292e-15
2.72474e-15
1.20548e-15
7.12446e-16
5.37107e-16
4.53634e-16
3.87925e-16
3.30305e-16
2.74722e-16
2.36161e-16
1.01447e-15
1.6931e-15
1.62463e-15
1.28498e-15
1.08428e-15
1.2482e-15
1.57825e-15
1.79046e-15
2.02709e-15
2.65255e-15
3.02582e-15
2.63967e-15
2.03611e-15
1.40001e-15
8.34566e-16
3.59934e-16
2.04814e-16
1.45992e-16
1.23471e-16
1.09094e-16
9.01678e-17
7.00623e-17
5.86014e-17
1.78063e-16
2.83279e-16
2.71895e-16
2.10651e-16
1.77268e-16
2.05849e-16
2.78951e-16
3.37737e-16
3.9994e-16
5.30853e-16
6.08693e-16
5.32824e-16
4.21949e-16
3.03557e-16
1.85592e-16
8.42009e-17
5.09564e-17
3.52561e-17
2.87367e-17
2.53831e-17
2.17247e-17
1.59145e-17
1.20052e-17
2.3963e-17
3.63874e-17
3.57698e-17
2.72427e-17
2.29823e-17
2.72692e-17
4.01403e-17
5.33119e-17
6.75857e-17
9.20268e-17
1.02848e-16
8.90349e-17
7.00874e-17
5.30648e-17
3.01945e-17
1.50361e-17
9.54166e-18
7.01251e-18
5.53502e-18
5.00103e-18
4.32296e-18
2.82871e-18
2.13664e-18
1.93516e-18
3.51523e-18
3.4105e-18
2.5481e-18
2.17186e-18
2.69869e-18
4.36165e-18
6.49728e-18
9.09753e-18
1.23682e-17
1.32824e-17
1.14924e-17
9.69151e-18
7.0283e-18
3.99517e-18
2.16828e-18
1.55875e-18
1.19213e-18
9.11971e-19
8.1502e-19
6.61694e-19
4.79836e-19
3.14767e-19
1.26088e-19
2.60359e-19
2.36588e-19
1.75239e-19
1.5507e-19
2.13345e-19
3.88925e-19
6.6251e-19
1.03702e-18
1.45617e-18
1.54555e-18
1.3624e-18
1.14863e-18
8.00921e-19
4.61791e-19
2.87589e-19
2.07656e-19
1.6177e-19
1.29855e-19
1.14624e-19
9.26123e-20
6.07571e-20
3.7752e-20
3.70942e-21
7.25663e-21
5.9581e-21
4.54796e-21
6.79121e-21
1.14744e-20
2.43404e-20
4.84052e-20
8.89856e-20
1.17085e-19
1.11856e-19
1.13807e-19
9.76411e-20
6.77696e-20
4.14258e-20
2.85431e-20
2.4866e-20
2.05456e-20
1.60199e-20
1.43272e-20
1.06909e-20
6.77579e-21
3.80224e-21
9.94164e-23
2.6227e-22
2.06665e-22
1.66051e-22
2.40271e-22
5.31072e-22
1.34672e-21
3.17538e-21
7.243e-21
1.18477e-20
1.14744e-20
1.08263e-20
8.92709e-21
6.16918e-21
4.17528e-21
3.25861e-21
2.67087e-21
2.17593e-21
1.86804e-21
1.46373e-21
1.01392e-21
5.94447e-22
3.46597e-22
2.98788e-24
7.11777e-24
5.53124e-24
4.84204e-24
9.26347e-24
2.63982e-23
7.88243e-23
2.16216e-22
5.85756e-22
9.29486e-22
9.28997e-22
8.40951e-22
6.73132e-22
4.84658e-22
3.6646e-22
3.08468e-22
2.64956e-22
2.14033e-22
1.7311e-22
1.24227e-22
7.61794e-23
4.43254e-23
1.84283e-23
6.84733e-26
1.06143e-25
8.38571e-26
9.0616e-26
2.45434e-25
9.74995e-25
3.60497e-24
1.17426e-23
3.69522e-23
6.02696e-23
6.14812e-23
5.49721e-23
4.44459e-23
3.49661e-23
2.91847e-23
2.56717e-23
2.22568e-23
1.7964e-23
1.34607e-23
8.82078e-24
5.44871e-24
2.07086e-24
4.27486e-25
5.6577e-28
7.39478e-28
6.82607e-28
1.18716e-27
5.246e-27
3.08147e-26
1.45302e-25
5.57649e-25
1.97721e-24
3.3416e-24
3.46325e-24
3.15033e-24
2.69637e-24
2.3441e-24
2.09929e-24
1.89447e-24
1.65073e-24
1.32058e-24
8.98435e-25
5.74092e-25
2.42667e-25
4.52042e-26
4.92184e-27
3.59775e-30
1.62817e-30
2.82281e-30
1.23329e-29
1.05394e-28
8.92361e-28
5.35507e-27
2.37262e-26
9.29696e-26
1.61589e-25
1.71894e-25
1.65255e-25
1.5543e-25
1.48382e-25
1.40166e-25
1.2936e-25
1.12908e-25
8.90667e-26
5.57975e-26
2.55157e-26
6.12902e-27
6.88164e-28
3.9556e-28
4.70706e-33
1.75734e-33
4.82912e-33
1.22246e-31
2.10021e-30
2.40963e-29
1.8199e-28
9.17153e-28
3.94035e-27
6.97628e-27
7.77281e-27
8.18736e-27
8.57107e-27
8.85183e-27
8.69775e-27
8.2018e-27
7.06642e-27
5.27663e-27
2.78115e-27
8.8859e-28
1.31601e-28
4.40108e-29
1.82702e-28
7.30157e-37
1.7307e-37
7.72919e-36
1.48243e-33
4.31846e-32
6.23537e-31
5.80897e-30
3.2798e-29
1.5288e-28
2.73555e-28
3.2602e-28
3.83849e-28
4.44183e-28
4.90373e-28
5.08721e-28
4.90026e-28
4.11986e-28
2.80689e-28
1.16132e-28
2.65625e-29
4.58343e-30
1.17355e-29
8.20247e-29
0.0170845
0.0356381
0.0714327
0.073083
4.20321e-10
-2.47643e-25
-2.47744e-26
-5.69882e-12
6.78638e-08
6.68902e-08
1.11644e-08
1.64147e-34
3.42277e-08
6.8994e-08
2.16257e-13
2.50786e-15
9.01388e-10
4.58758e-09
1.84116e-08
1.04622e-07
4.6885e-10
2.57722e-09
7.77143e-09
1.40612e-08
1.4873e-10
3.48733e-10
4.7142e-10
7.46811e-10
7.37961e-11
3.49988e-11
2.85903e-11
2.90392e-11
3.74134e-11
2.31115e-11
2.19852e-11
3.29647e-11
1.36409e-11
1.34744e-11
1.55532e-11
2.13553e-11
3.97405e-12
6.99504e-12
8.55784e-12
9.90034e-12
5.58007e-13
1.5128e-12
2.52402e-12
3.67263e-12
3.50466e-13
3.14089e-13
7.01014e-13
1.01304e-12
2.3645e-13
2.13826e-13
2.68858e-13
3.15033e-13
1.59789e-13
1.63003e-13
2.21796e-13
3.04128e-13
1.27404e-13
1.52787e-13
5.08795e-13
1.26483e-12
1.09828e-13
1.26648e-13
5.21739e-13
2.55846e-12
9.9399e-14
9.62305e-14
3.0596e-13
2.0541e-12
8.87692e-14
7.93328e-14
1.4917e-13
1.01741e-12
7.85611e-14
6.70823e-14
7.45098e-14
3.21781e-13
6.65058e-14
5.67574e-14
5.37453e-14
7.67267e-14
5.42375e-14
4.54293e-14
4.0646e-14
4.04899e-14
3.77689e-14
3.3593e-14
3.02263e-14
2.74485e-14
2.28818e-14
1.99636e-14
1.84749e-14
1.72546e-14
1.10239e-14
1.0129e-14
9.42488e-15
8.81389e-15
4.61914e-15
3.97032e-15
3.87677e-15
3.63427e-15
1.73759e-15
1.51337e-15
1.39599e-15
1.274e-15
5.75863e-16
4.54319e-16
4.28954e-16
3.77897e-16
1.74129e-16
1.35161e-16
1.18141e-16
9.69348e-17
4.44665e-17
3.34415e-17
2.81788e-17
2.11499e-17
9.41375e-18
7.03159e-18
5.51613e-18
3.96922e-18
1.73419e-18
1.19802e-18
9.11189e-19
6.29031e-19
2.50399e-19
1.73164e-19
1.21555e-19
7.92913e-20
2.89847e-20
1.94e-20
1.28428e-20
8.30751e-21
2.78934e-21
1.87e-21
1.29304e-21
4.6426e-22
1.9261e-22
8.03485e-23
3.01072e-23
5.20723e-24
3.72998e-24
6.24105e-25
1.92486e-25
3.43168e-26
1.29789e-26
3.57762e-27
5.46058e-27
1.36084e-26
1.15423e-27
1.90332e-27
4.99602e-27
1.53362e-26
6.03587e-28
1.61368e-27
5.50677e-27
1.70999e-26
4.14876e-28
1.46732e-27
5.28473e-27
1.61377e-26
2.96442e-28
1.0164e-27
3.26113e-27
8.85727e-27
0.0374401
0.00036938
0.000457287
0.0168336
0.00944634
0.075267
0.0919236
0.0480108
1.08735e-05
8.99448e-05
0.000134628
0.00013455
7.81825e-05
3.50357e-05
1.68231e-05
4.01173e-05
2.75092e-05
0.000191482
0.00987256
1.44486e-15
1.18359e-06
0.00024095
0.000610844
0.00784997
0.0206823
0.0339853
0.0254044
1.06978e-05
1.08829e-05
3.06558e-05
3.29973e-05
2.12922e-05
1.30886e-05
3.27827e-06
0.000130648
7.48331e-05
0.000928001
0.0100884
6.55676e-07
0.000197338
0.00171379
0.00170089
0.000780389
0.000446716
0.00483694
0.0075068
0.00125731
1.28194e-05
1.88461e-05
2.51104e-08
1.98886e-06
2.00021e-06
9.31454e-06
0.000256086
0.000333107
0.000844468
0.00709342
2.23782e-08
3.14596e-05
0.00043863
0.000649886
0.000127271
7.92681e-06
1.18081e-05
0.00085521
0.00165769
0.000433881
6.77082e-09
7.22566e-09
7.62598e-08
8.00606e-07
9.9407e-06
0.00017919
0.000233778
0.00012378
0.000168361
1.27304e-07
1.07629e-07
8.1796e-08
5.98575e-06
1.24279e-05
6.79267e-06
-1.40036e-08
6.12538e-05
0.000279797
0.000276796
3.08225e-06
7.47718e-08
2.18486e-07
3.76572e-07
1.13067e-06
3.32945e-05
7.39841e-05
1.4417e-05
1.43114e-05
1.86121e-08
4.73663e-09
3.17046e-10
2.04535e-10
4.79876e-08
1.24605e-07
1.3097e-08
3.92355e-08
2.7973e-07
5.50814e-07
1.09102e-05
2.28612e-07
9.82977e-08
2.03279e-07
1.08841e-07
3.5151e-10
2.24027e-08
8.58787e-05
0.000396024
5.70173e-10
4.79534e-10
9.8014e-10
1.53126e-09
5.45279e-09
9.39627e-09
1.05782e-08
6.31497e-09
8.68695e-08
6.7423e-07
1.06161e-06
1.06144e-06
1.6123e-08
2.5796e-11
2.87387e-11
7.17134e-11
4.07664e-10
0.000279963
0.000571349
9.33463e-11
2.85567e-10
1.79894e-09
4.25224e-09
7.66072e-09
8.93713e-09
4.51145e-09
2.6207e-08
3.77491e-07
6.91932e-07
6.49346e-07
1.77741e-07
1.37948e-08
3.92306e-08
6.81533e-08
2.36815e-08
5.22273e-10
0.000135182
0.000500451
6.1306e-11
1.07937e-10
2.87261e-10
1.46685e-09
2.82149e-09
2.58641e-09
2.93053e-09
9.98132e-08
2.81537e-07
1.26497e-07
1.40425e-10
9.83236e-09
1.15921e-07
4.01463e-07
5.56907e-07
4.04862e-07
6.53617e-07
0.000249981
0.000554343
3.45604e-11
4.04049e-11
3.41465e-11
5.86827e-11
7.53954e-11
1.37824e-09
1.30704e-08
1.4808e-08
2.10953e-12
2.02272e-11
2.1047e-12
9.04862e-09
1.19195e-07
5.28906e-07
8.72137e-07
1.96493e-05
0.000959175
0.00336263
0.00435723
9.90985e-12
1.0205e-11
9.29533e-12
1.96322e-11
8.26487e-11
4.16415e-10
8.50621e-10
4.4696e-10
4.52593e-10
8.10424e-10
1.02354e-09
3.20369e-10
4.64505e-10
5.27982e-10
5.12185e-10
0.000280938
0.0032043
0.00481884
0.00452077
3.42054e-12
3.24762e-12
2.45713e-12
4.20435e-12
8.50305e-12
3.20794e-11
1.15974e-10
3.12882e-10
8.20157e-10
1.48039e-09
1.3735e-09
9.71648e-10
5.49298e-06
1.70365e-05
3.23287e-05
0.000637973
0.000899939
0.000601332
2.06396e-06
8.8745e-13
8.1634e-13
6.25083e-13
1.05919e-12
1.41562e-12
2.95602e-12
5.69144e-12
2.13659e-11
4.23343e-11
1.02828e-10
1.83833e-09
1.88711e-07
1.75685e-05
4.59405e-05
5.99953e-05
1.54944e-06
1.83421e-08
1.34488e-07
7.96079e-08
3.12998e-13
3.15116e-13
3.18537e-13
4.00915e-13
5.6662e-13
7.07354e-13
1.08172e-12
3.41037e-12
4.07196e-12
5.90974e-12
8.11144e-13
1.28432e-08
1.10923e-06
3.91398e-06
4.19977e-08
6.54527e-17
1.21151e-07
3.83975e-07
1.67202e-07
4.48642e-13
7.13762e-13
1.26543e-12
1.90984e-12
2.53357e-12
3.52364e-12
1.40405e-12
2.35658e-13
5.95487e-13
2.67008e-13
6.93422e-13
8.1657e-13
8.69256e-07
1.82985e-06
2.38773e-07
1.30306e-17
2.52535e-07
4.29756e-07
2.43612e-07
2.2704e-12
4.63079e-12
9.57354e-12
1.85112e-11
2.73498e-11
5.94952e-11
1.47786e-10
4.53775e-10
8.65174e-10
1.13452e-09
2.64729e-10
9.26873e-13
6.6043e-07
1.98251e-07
2.79075e-07
3.36093e-09
1.06516e-08
1.77468e-07
5.9015e-09
9.2883e-12
2.18274e-11
4.84186e-11
1.03059e-10
1.95357e-10
4.66476e-10
7.00518e-10
1.638e-09
6.84304e-09
8.9662e-09
4.3035e-09
1.46724e-08
5.10436e-08
2.4419e-10
1.83991e-10
2.0116e-10
6.3865e-11
4.7743e-11
9.80193e-11
1.02198e-11
2.74599e-11
7.19795e-11
1.73321e-10
3.80551e-10
7.52949e-10
1.26777e-09
2.36647e-09
6.05508e-09
5.25853e-09
2.45645e-08
5.89752e-08
1.86413e-08
4.05304e-09
1.07207e-09
3.5806e-10
9.34356e-11
1.07022e-09
7.24824e-10
6.16907e-12
1.887e-11
5.61058e-11
1.37264e-10
3.37233e-10
6.81778e-10
1.28574e-09
2.06126e-09
3.73661e-09
4.52749e-09
1.05926e-08
2.1489e-08
9.93975e-09
1.6273e-09
1.00014e-10
3.1983e-11
5.89004e-11
5.53519e-10
3.10357e-10
2.19618e-12
7.47415e-12
2.77845e-11
7.40165e-11
1.82984e-10
4.32143e-10
8.12626e-10
1.34153e-09
1.91698e-09
2.44367e-09
1.99731e-09
1.18373e-10
4.26297e-12
4.49791e-12
6.87942e-12
1.37865e-11
2.96157e-11
4.91061e-11
9.42078e-11
4.91538e-13
2.2086e-12
8.07465e-12
2.45741e-11
6.95696e-11
1.55725e-10
3.2653e-10
5.45289e-10
7.33572e-10
7.76365e-10
5.47833e-10
2.00886e-10
4.57394e-11
4.71009e-12
5.24841e-12
9.08855e-12
1.7021e-11
3.35916e-11
3.27334e-11
8.87774e-14
4.26451e-13
1.74957e-12
6.40795e-12
1.76117e-11
4.12594e-11
8.10537e-11
1.55551e-10
1.92706e-10
1.85822e-10
1.16512e-10
4.79644e-11
5.04148e-12
1.68593e-12
2.29967e-12
3.77323e-12
5.77224e-12
8.34314e-12
7.04829e-12
2.87658e-14
5.71518e-14
2.91811e-13
9.39482e-13
3.71536e-12
8.98727e-12
1.80715e-11
2.92741e-11
3.67937e-11
3.40302e-11
2.23562e-11
7.37253e-12
9.26233e-13
5.72143e-13
7.72513e-13
1.18051e-12
1.63604e-12
1.57636e-12
1.57381e-12
1.57853e-14
1.48955e-14
3.77096e-14
1.34291e-13
4.79204e-13
1.29325e-12
2.65719e-12
4.2598e-12
5.05194e-12
4.96629e-12
3.71008e-12
1.33685e-12
1.88398e-13
1.38257e-13
1.91444e-13
2.63141e-13
2.8871e-13
2.47617e-13
1.68205e-13
8.15077e-15
6.60037e-15
6.93409e-15
1.51857e-14
5.22487e-14
1.51022e-13
3.09518e-13
4.98655e-13
6.27957e-13
6.58045e-13
5.4761e-13
2.25835e-13
3.34285e-14
2.66259e-14
3.55732e-14
4.78002e-14
3.86087e-14
1.72579e-14
9.3823e-15
3.41395e-15
2.78853e-15
2.2681e-15
2.40289e-15
4.9435e-15
1.21963e-14
2.56038e-14
4.02842e-14
5.83472e-14
7.35629e-14
6.77927e-14
2.9839e-14
4.61304e-15
3.93229e-15
5.05152e-15
3.36612e-15
8.47072e-16
4.55653e-16
7.66566e-16
1.18464e-15
9.64199e-16
7.51394e-16
6.13875e-16
6.00024e-16
9.07899e-16
1.60749e-15
2.54585e-15
4.22247e-15
6.08413e-15
6.28444e-15
3.28071e-15
5.63257e-16
4.74863e-16
4.37178e-16
1.59972e-16
1.68907e-16
1.80253e-16
1.14428e-16
3.40125e-16
2.54355e-16
1.9483e-16
1.51346e-16
1.22405e-16
1.15383e-16
1.137e-16
1.43056e-16
2.43952e-16
3.93559e-16
4.74113e-16
2.92227e-16
6.77467e-17
5.71719e-17
3.49224e-17
5.18679e-17
8.98348e-17
1.00297e-16
6.33576e-17
8.18874e-17
5.6657e-17
3.85363e-17
2.69676e-17
2.17244e-17
1.93332e-17
1.57529e-17
1.17166e-17
1.35503e-17
2.09306e-17
2.73126e-17
2.04841e-17
7.78857e-18
9.91053e-18
1.17664e-17
2.31611e-17
4.34236e-17
5.42862e-17
3.18515e-17
1.54629e-17
1.04149e-17
6.0151e-18
3.25392e-18
2.13675e-18
2.09985e-18
1.97203e-18
1.41852e-18
8.95561e-19
1.02865e-18
1.4084e-18
1.04235e-18
8.06426e-19
2.16096e-18
4.49407e-18
9.61104e-18
2.02441e-17
3.46344e-17
1.70776e-17
2.53606e-18
1.48339e-18
7.02504e-19
2.30328e-19
9.31666e-20
9.90984e-20
1.42787e-19
1.21646e-19
7.11373e-20
6.22799e-20
7.19157e-20
8.77528e-20
1.86496e-19
5.1365e-19
1.50225e-18
4.04571e-18
9.60954e-18
1.84304e-17
1.21857e-17
3.2356e-19
1.71361e-19
4.83496e-20
6.40477e-21
1.6109e-21
2.98116e-21
6.62957e-21
8.60308e-21
1.11859e-20
1.93706e-20
3.7199e-20
7.41508e-20
1.49947e-19
3.20135e-19
7.94768e-19
1.86943e-18
4.65831e-18
1.13889e-17
7.05796e-18
3.83738e-20
9.55703e-21
1.12264e-21
1.46987e-22
2.19815e-22
5.77683e-22
1.50842e-21
3.60379e-21
8.06543e-21
1.76389e-20
3.70302e-20
7.39637e-20
1.4221e-19
2.71635e-19
5.17562e-19
1.16235e-18
3.08619e-18
5.84906e-18
4.30136e-18
2.99836e-21
2.70252e-22
3.02604e-23
5.51615e-23
1.63816e-22
4.67984e-22
1.23735e-21
3.19569e-21
7.65163e-21
1.74906e-20
3.75115e-20
7.47728e-20
1.38953e-19
2.39713e-19
4.18709e-19
9.26059e-19
2.14241e-18
3.20613e-18
2.17411e-18
5.74316e-23
5.92784e-24
1.29149e-23
4.45974e-23
1.39793e-22
4.08869e-22
1.13744e-21
2.95261e-21
7.25017e-21
1.66585e-20
3.60059e-20
7.21442e-20
1.28881e-19
2.14607e-19
3.70151e-19
7.48676e-19
1.29504e-18
1.68163e-18
1.13465e-18
6.55292e-25
2.31809e-24
1.00773e-23
3.64333e-23
1.19227e-22
3.55162e-22
1.00809e-21
2.65833e-21
6.55758e-21
1.54218e-20
3.35417e-20
6.64907e-20
1.1737e-19
1.95757e-19
3.24741e-19
5.44459e-19
8.38739e-19
8.51947e-19
5.34271e-19
3.12057e-25
1.88384e-24
8.02653e-24
2.97961e-23
9.73886e-23
2.98611e-22
8.39109e-22
2.21547e-21
5.5775e-21
1.30553e-20
2.84847e-20
5.6382e-20
9.94144e-20
1.63648e-19
2.53082e-19
3.86363e-19
4.57282e-19
4.3287e-19
2.37135e-19
2.75687e-25
1.50719e-24
6.29487e-24
2.28806e-23
7.51583e-23
2.25629e-22
6.49329e-22
1.69799e-21
4.2403e-21
9.97933e-21
2.17804e-20
4.30102e-20
7.59063e-20
1.23115e-19
1.81835e-19
2.43661e-19
2.65496e-19
2.01594e-19
1.05914e-19
2.23633e-25
1.10912e-24
4.50766e-24
1.56507e-23
5.10303e-23
1.53021e-22
4.28726e-22
1.1291e-21
2.82661e-21
6.65573e-21
1.45515e-20
2.8791e-20
5.09636e-20
8.22836e-20
1.12021e-19
1.4313e-19
1.28488e-19
9.22967e-20
3.99301e-20
1.65323e-25
7.04184e-25
2.61192e-24
8.72132e-24
2.70704e-23
8.02394e-23
2.29679e-22
6.16212e-22
1.55083e-21
3.74663e-21
8.31885e-21
1.66111e-20
2.94053e-20
4.72633e-20
6.24729e-20
7.62272e-20
5.91697e-20
3.46646e-20
2.02102e-20
9.00747e-26
3.37116e-25
1.14524e-24
3.63212e-24
1.12839e-23
3.40125e-23
9.87218e-23
2.74434e-22
7.15406e-22
1.76867e-21
4.0292e-21
8.23297e-21
1.49362e-20
2.40905e-20
3.09034e-20
3.60884e-20
2.18156e-20
1.56418e-20
1.01389e-20
2.74308e-26
8.86158e-26
2.76569e-25
8.21079e-25
2.77666e-24
9.40279e-24
2.98917e-23
8.92894e-23
2.51775e-22
6.59626e-22
1.57292e-21
3.36513e-21
6.26376e-21
1.03901e-20
1.3535e-20
1.5229e-20
9.34011e-21
7.02221e-21
4.88808e-21
)
;

boundaryField
{
    leftWall
    {
        type            alphaContactAngle;
        contactAngleProperties 
        {
            air             
            {
                theta0          90;
            }
            water           
            {
                theta0          90;
            }
            oil             
            {
                theta0          90;
            }
        }
        value           nonuniform List<scalar> 
50
(
1
1
1
1
1
0.968988
0.2784
1.66598e-07
1.31842e-08
1.24085e-09
3.37217e-10
2.81943e-10
3.32663e-10
4.6558e-10
5.02106e-10
5.05387e-10
3.99244e-10
1.97575e-10
1.08758e-10
6.97595e-11
5.47589e-11
5.50788e-11
5.2785e-11
3.63269e-11
2.60453e-11
1.75712e-11
1.23683e-11
7.64493e-12
4.74382e-12
2.76187e-12
1.47005e-12
7.15983e-13
3.29796e-13
1.40368e-13
5.25169e-14
1.69419e-14
4.54435e-15
1.01447e-15
1.78063e-16
2.3963e-17
1.93516e-18
1.26088e-19
3.70942e-21
9.94164e-23
2.98788e-24
6.84733e-26
5.6577e-28
3.59775e-30
4.70706e-33
7.30157e-37
)
;
    }
    rightWall
    {
        type            alphaContactAngle;
        contactAngleProperties 
        {
            air             
            {
                theta0          90;
            }
            water           
            {
                theta0          90;
            }
            oil             
            {
                theta0          90;
            }
        }
        value           nonuniform List<scalar> 
50
(
0.710032
0.547593
0.388228
0.220241
0.102396
0.00675664
0.000113054
0.000667115
0.00987256
0.0100884
0.00709342
0.000168361
1.43114e-05
0.000396024
0.000571349
0.000500451
0.000554343
0.00435723
0.00452077
2.06396e-06
7.96079e-08
1.67202e-07
2.43612e-07
5.9015e-09
9.80193e-11
7.24824e-10
3.10357e-10
9.42078e-11
3.27334e-11
7.04829e-12
1.57381e-12
1.68205e-13
9.3823e-15
7.66566e-16
1.14428e-16
6.33576e-17
3.18515e-17
1.70776e-17
1.21857e-17
7.05796e-18
4.30136e-18
2.17411e-18
1.13465e-18
5.34271e-19
2.37135e-19
1.05914e-19
3.99301e-20
2.02102e-20
1.01389e-20
4.88808e-21
)
;
    }
    lowerWall
    {
        type            alphaContactAngle;
        contactAngleProperties 
        {
            air             
            {
                theta0          90;
            }
            water           
            {
                theta0          90;
            }
            oil             
            {
                theta0          90;
            }
        }
        value           nonuniform List<scalar> 
62
(
1
1
1
1
1
1
1
1
1
1
1
1
1
1
1
1
1
1
1
0.999871
0.999499
0.999433
0.999433
0.999433
0.999855
1
1
1
0.850977
0.0921065
-1.31513e-08
0.0170845
0.0356381
0.0714327
0.073083
0.871654
0.565009
0.091244
0.182968
0.164668
0.0171683
0.00488801
0.0181075
0.871654
0.874943
0.877029
0.877017
0.876971
0.86186
0.635362
0.594048
0.59586
0.590831
0.583548
0.582993
0.714067
0.73085
0.731122
0.725896
0.709529
0.710443
0.710032
)
;
    }
    atmosphere
    {
        type            inletOutlet;
        inletValue      uniform 0;
        value           nonuniform List<scalar> 
46
(
0
0
0
1.48243e-33
4.31846e-32
6.23537e-31
5.80897e-30
3.2798e-29
1.5288e-28
2.73555e-28
3.2602e-28
3.83849e-28
4.44183e-28
4.90373e-28
5.08721e-28
4.90026e-28
4.11986e-28
2.80689e-28
1.16133e-28
0
0
0
0
0
0
0
0
2.74308e-26
8.86158e-26
0
0
0
0
0
0
0
0
0
0
0
0
0
0
0
0
0
)
;
    }
    defaultFaces
    {
        type            empty;
    }
}


// ************************************************************************* //
