/*--------------------------------*- C++ -*----------------------------------*\
  =========                 |
  \\      /  F ield         | OpenFOAM: The Open Source CFD Toolbox
   \\    /   O peration     | Website:  https://openfoam.org
    \\  /    A nd           | Version:  13
     \\/     M anipulation  |
\*---------------------------------------------------------------------------*/
FoamFile
{
    format      ascii;
    class       volScalarField;
    location    "1.85";
    object      alpha.air;
}
// * * * * * * * * * * * * * * * * * * * * * * * * * * * * * * * * * * * * * //

dimensions      [];

internalField   nonuniform List<scalar> 
2268
(
1.75667e-13
2.74427e-13
3.1821e-13
2.35883e-13
1.75624e-13
1.12954e-13
6.20734e-14
3.13835e-14
1.62211e-14
9.09898e-15
5.03911e-15
2.64502e-15
1.89487e-15
2.31911e-15
5.5378e-15
1.14799e-14
1.10452e-14
1.11956e-14
3.3419e-14
3.8757e-14
1.28322e-13
3.05737e-13
3.69063e-13
7.2491e-13
1.50349e-12
1.50425e-12
1.31737e-12
1.04918e-12
7.33675e-13
4.48323e-13
2.37322e-13
1.23893e-13
7.03439e-14
4.20416e-14
2.68637e-14
2.53496e-14
5.88054e-14
2.05407e-13
3.26463e-13
1.62096e-13
1.51066e-13
1.71354e-12
1.07666e-13
1.38479e-12
2.08539e-11
2.40849e-11
2.16529e-12
3.98487e-12
3.2311e-12
2.98547e-12
2.5818e-12
1.80438e-12
1.09964e-12
6.03003e-13
3.48094e-13
2.17494e-13
1.56135e-13
1.55374e-13
3.25036e-13
1.34426e-12
5.3444e-12
1.60055e-11
1.89988e-11
3.66002e-11
7.98855e-11
1.92347e-10
4.19517e-10
1.71561e-09
1.10809e-09
7.3366e-12
1.28831e-11
1.32254e-11
1.087e-11
8.51354e-12
5.9516e-12
4.00891e-12
2.38456e-12
1.43347e-12
9.07872e-13
7.01295e-13
8.93828e-13
2.91118e-12
1.1873e-11
4.21641e-11
1.36742e-10
3.62838e-10
7.17376e-10
1.20335e-09
2.69571e-09
8.41189e-09
1.90937e-08
7.01059e-09
2.92268e-11
4.48447e-11
4.66237e-11
3.96854e-11
3.02191e-11
2.26327e-11
1.59093e-11
1.05845e-11
6.89027e-12
4.50554e-12
4.24008e-12
6.43912e-12
1.51628e-11
4.39406e-11
1.4762e-10
4.7423e-10
1.15256e-09
1.43139e-09
1.95643e-09
3.70948e-09
1.1019e-08
6.94445e-09
7.13806e-09
7.84928e-11
9.92761e-11
1.06621e-10
9.87022e-11
8.50902e-11
7.07558e-11
6.16435e-11
4.98805e-11
3.76525e-11
2.79133e-11
2.44086e-11
2.61467e-11
3.66911e-11
6.66676e-11
1.65942e-10
5.70855e-10
1.19824e-09
1.24101e-09
1.3174e-09
1.35696e-09
5.83274e-07
7.32657e-06
1.18924e-05
2.20121e-10
2.48619e-10
2.34535e-10
2.39354e-10
2.42354e-10
2.36034e-10
2.14678e-10
1.95263e-10
1.70451e-10
1.36187e-10
1.05552e-10
9.2539e-11
9.29934e-11
1.10964e-10
2.03597e-10
2.42514e-09
2.93522e-08
1.34107e-06
2.80885e-05
0.000142278
0.000406807
0.000837552
0.00147673
1.27138e-09
6.805e-10
4.79784e-10
4.09734e-10
4.64809e-10
5.64151e-10
5.50516e-10
5.0675e-10
4.38922e-10
3.55815e-10
3.14064e-10
3.23009e-10
4.05536e-10
6.37814e-10
5.22586e-09
7.99215e-08
1.03779e-06
1.18771e-05
8.56141e-05
0.000304879
0.00072596
0.00121644
0.00211004
0.000329789
0.000328962
0.00483501
0.0242715
0.038371
0.0716924
0.0736607
0.0737018
0.0410826
0.0437599
0.0608762
0.103957
0.10561
0.0649316
0.0150807
0.0149112
0.0149112
0.0149112
0.0149112
0.00334487
0.00416157
0.00115867
0.000338012
0.000335431
0.00181259
0.0109919
0.0166608
0.038181
0.0334164
0.029459
0.0543957
0.145822
0.092987
0.0303126
0.0149112
0.0366663
0.0687567
0.0180971
0.0168246
0.0181347
0.0184517
0.00964783
0.00519287
0.00196583
2.48093e-05
2.28472e-05
0.0809101
0.193093
0.148741
0.0879759
0.141612
0.334232
0.396299
0.314687
0.333531
0.285705
0.0863018
0.0154592
0.0159718
0.0248244
0.0271297
0.0198636
0.00985913
0.00025182
2.47612e-05
0.071082
0.484365
0.557654
0.492326
0.483295
0.497512
0.466717
0.461386
0.455764
0.353657
0.138093
0.0154591
0.0206047
0.015665
0.0270007
0.0271594
0.0145672
0.000117071
2.32298e-05
0.0147535
0.426494
0.568273
0.568274
0.564805
0.541017
0.334256
0.146303
0.154661
0.105356
0.0530612
0.0586303
0.0378496
0.017066
0.0248348
0.0245191
0.00461282
6.60083e-05
0.000708842
3.01465e-07
0.1344
0.493017
0.568442
0.568474
0.532996
0.106169
9.45186e-15
5.31558e-11
-5.18641e-17
0.000167359
0.0682142
0.0795089
0.0253249
0.0104023
0.0102585
0.0144379
0.0490201
0.0155708
9.22319e-09
0.017616
0.0907336
0.228875
0.341633
0.205616
0.0114953
5.944e-08
8.65164e-10
5.31558e-11
0.00304882
0.0635295
0.106278
0.0795957
0.013755
0.0104141
0.145479
0.140845
0.0180869
1.21433e-06
9.22335e-09
2.48325e-08
1.98291e-08
0.00206086
1.58236e-05
1.51755e-05
6.78898e-05
2.20986e-18
0.00173117
0.0875905
3.23003e-09
2.0759e-09
9.28628e-10
7.88339e-10
9.83612e-10
1.41031e-09
2.47906e-09
2.56985e-09
2.23062e-09
1.81417e-09
1.38943e-09
1.31824e-09
1.73445e-09
3.20567e-09
2.20061e-08
1.46119e-07
1.10914e-06
8.21377e-06
4.84185e-05
5.09967e-05
8.35558e-05
0.000146881
0.00143066
1.99018e-09
1.35457e-09
7.45764e-10
6.7705e-10
7.71881e-10
1.63642e-09
3.69356e-09
5.54618e-09
6.0664e-09
6.80304e-09
7.99257e-09
9.05228e-09
1.01041e-08
1.37285e-08
6.21298e-08
1.14918e-07
1.17524e-07
1.10496e-07
1.79168e-06
0.00581922
0.0184694
0.0420977
0.0657058
7.44068e-10
5.69086e-10
4.9141e-10
3.75607e-10
3.83569e-10
4.41867e-10
6.77219e-10
5.67493e-10
5.19556e-10
2.13927e-08
2.91492e-08
3.08002e-08
3.02257e-08
1.6379e-07
0.0014584
0.0060268
0.0166756
0.0350847
0.0740697
0.120726
0.155153
0.143508
0.127219
0.0555729
0.0180383
0.0118476
0.00366967
0.00206097
5.94648e-06
3.35135e-08
0.00103468
0.00629044
0.0115724
0.0188352
0.0321917
0.0569606
0.0909171
0.121097
0.119055
0.109871
0.137298
0.16805
0.168591
0.162291
0.116217
0.0383989
0.207415
0.070555
0.00963872
0.00375832
0.00524208
0.0618902
0.161289
0.182568
0.183349
0.184836
0.193668
0.205081
0.208327
0.207451
0.196017
0.148238
0.0830159
0.0548714
0.0769576
0.0797761
0.0240671
0.000308297
2.08348e-05
0.207415
0.0323123
0.0101367
0.00677476
0.0082817
0.0641063
0.138855
0.121918
0.0686304
0.0555661
0.0583501
0.0702636
0.0623157
0.016825
0.0165765
0.0179739
0.0279126
0.0425019
0.05305
0.0548444
0.0430349
0.0167589
7.6746e-07
0.13276
0.0398431
0.0179083
0.0180403
0.0182619
0.0200408
0.0234623
0.0278366
0.0382806
0.0590903
0.0949838
0.143505
0.20701
0.287196
0.371662
0.478527
0.572114
0.632147
0.651575
0.635828
0.606005
0.5534
0.466803
0.388248
0.423757
0.458368
0.453218
0.465432
0.508398
0.566192
0.633603
0.710188
0.784302
0.847852
0.901174
0.945881
0.98709
1
1
0.999939
1
1
1
1
0.999818
0.995063
0.940493
0.92383
0.920133
0.947079
0.988059
1
1
1
1
1
1
0.999999
0.999999
0.999999
1
1
1
1
1
1
1
1
1
0.999999
0.999999
0.999997
0.996904
0.998272
0.999968
1
1
1
1
0.999954
0.999922
0.999962
0.999998
1
1
1
1
1
1
1
1
1
0.999999
0.999992
0.999999
0.999553
0.999911
0.999999
1
1
0.999999
0.999942
0.999826
0.999825
0.999899
0.999998
0.999999
0.999998
0.999998
0.999999
0.999999
0.999999
0.999999
1
1
0.999999
0.999983
0.999997
0.999992
0.999998
1
1
1
0.999987
0.999828
0.999826
0.999825
0.999926
0.999997
0.999997
0.999997
0.999997
0.999999
0.999999
0.999999
1
1
1
0.999999
0.999999
1
1
1
1
1
1
0.999993
0.999887
0.999828
0.999884
0.999997
0.999997
0.999997
0.999997
0.999999
1
1
1
1
1
1
0.999999
0.999999
1
1
1
1
1
1
0.999999
1
0.999979
0.999997
0.999999
0.999998
0.999999
1
1
1
1
1
1
1
1
1
0.999999
1
1
1
1
1
1
0.999999
1
1
1
0.999999
0.999999
1
1
1
1
1
1
1
1
1
1
1
1
1
1
1
1
1
1
1
1
1
0.999999
0.999999
1
1
1
1
1
1
1
1
1
1
1
1
1
1
1
1
1
1
1
1
0.999999
0.999999
0.999999
1
1
1
1
1
1
1
1
1
1
1
1
1
1
1
1
1
1
1
1
1
1
1
1
1
1
1
1
1
1
1
1
1
1
1
1
1
1
1
1
1
1
1
1
1
1
1
1
1
1
1
1
1
1
1
1
1
1
1
1
1
1
1
1
1
1
1
1
1
1
1
1
1
1
1
1
1
1
1
1
1
1
1
1
1
1
1
1
1
1
1
1
1
1
1
1
1
1
1
1
1
1
1
1
1
1
1
1
1
1
1
1
1
1
1
1
1
1
1
1
1
1
1
1
1
1
1
1
1
1
1
1
1
1
1
1
1
1
1
1
1
1
1
1
1
1
1
1
1
1
1
1
1
1
1
1
1
1
1
1
1
1
1
1
1
1
1
1
1
1
1
1
1
1
1
1
1
1
1
1
1
1
1
1
1
1
1
1
1
1
1
1
1
1
1
1
1
1
1
1
1
1
1
1
1
1
1
1
1
1
1
1
1
1
1
1
1
1
1
1
1
1
1
1
1
1
1
1
1
1
1
1
1
1
1
1
1
1
1
1
1
1
1
1
1
1
1
1
1
1
1
1
1
1
1
1
1
1
1
1
1
1
1
1
1
1
1
1
1
1
1
1
1
1
1
1
1
1
1
1
1
1
1
1
1
1
1
1
1
1
1
1
1
1
1
1
1
1
1
1
1
1
1
1
1
1
1
1
1
1
1
1
1
1
1
1
1
1
1
1
1
1
1
1
1
1
1
1
1
1
1
1
1
1
1
1
1
1
1
1
1
1
1
1
1
1
1
1
1
1
1
1
1
1
1
1
1
1
1
1
1
1
1
1
1
1
1
1
1
1
1
1
1
1
1
1
1
1
1
1
1
1
1
1
1
1
1
1
1
1
1
1
1
1
1
1
1
1
1
1
1
1
1
1
1
1
1
1
1
1
1
1
1
1
1
1
1
1
1
1
1
1
1
1
1
1
1
1
1
1
1
1
1
1
1
1
1
1
1
1
1
1
1
1
1
1
1
1
1
1
1
1
1
1
1
1
1
1
1
1
1
1
1
1
1
1
1
1
1
1
1
1
1
1
1
1
1
1
1
1
1
1
1
1
1
1
1
1
1
1
1
1
1
1
1
1
1
1
1
1
1
1
1
1
1
1
1
1
1
1
1
1
1
1
1
1
1
1
1
1
1
1
1
1
1
1
1
1
1
1
1
1
1
1
1
1
1
1
1
1
1
1
1
1
1
1
1
1
1
1
1
1
1
1
1
1
1
1
1
1
1
1
1
1
1
1
1
1
1
1
1
1
1
1
1
1
1
1
1
1
1
1
1
1
0.0104218
0.0129673
0.00268452
0.00940064
0.0581416
0.0139977
0.00306873
0.0734593
0.0678758
0.00435403
0.0155947
0.110115
0.000207429
1.38288e-05
0.0159503
0.0369202
5.85905e-07
4.91881e-05
0.000436612
4.50323e-09
5.33691e-07
5.67161e-07
1.51218e-07
5.56166e-08
0.410546
0.302191
0.0956392
4.25912e-07
0.98687
0.963887
0.908462
0.810863
1
1
0.999999
1
1
1
1
1
1
1
1
1
1
1
1
1
1
1
1
1
1
1
1
1
1
1
1
1
1
1
1
1
1
1
1
1
1
1
1
1
1
1
1
1
1
1
1
1
1
1
1
1
1
1
1
1
1
1
1
1
1
1
1
1
1
1
1
1
1
1
1
1
1
1
1
1
1
1
1
1
1
1
1
1
1
1
1
1
1
1
1
1
1
1
1
1
1
1
1
1
1
1
1
1
1
1
1
1
1
1
1
1
1
1
1
1
1
1
1
1
1
1
1
1
1
1
1
1
1
1
1
1
1
1
1
1
0.0841
0.165824
0.106616
0.0950966
0.153827
0.185001
0.165313
0.0206641
0.000167787
2.5324e-05
4.04552e-06
6.00856e-05
2.90503e-05
1.72479e-05
6.18441e-05
4.91046e-05
-3.58948e-07
0.0169593
0.10637
0.160347
0.170721
0.18591
0.185951
0.18591
0.158035
0.081449
0.116035
0.0137482
0.000552996
0.000216244
0.00209318
0.00112064
0.000662348
0.000456007
0.000254996
-1.07659e-21
0.0126906
0.093535
0.143683
0.0535417
0.176711
0.185903
0.108653
0.00576287
0.0865773
0.160193
0.161081
0.0844149
0.0435695
0.0130885
0.00467105
2.6638e-05
0.000103369
0.000404709
0.000168096
0.00118402
0.00555202
0.00687085
0.00123959
0.0235133
0.0380325
0.0067867
7.51763e-05
0.0162602
0.142224
0.169356
0.169462
0.0706088
2.28889e-05
2.42228e-05
4.19842e-05
0.000142006
0.000405424
0.000365926
1.77313e-05
1.81541e-05
5.92839e-11
3.32083e-13
-1.17764e-20
3.32084e-13
5.15043e-16
1.41357e-06
4.96392e-05
0.0405221
0.099517
0.0435269
9.13442e-05
6.25502e-05
3.45319e-05
3.1857e-05
0.000127916
0.000347235
0.000315529
1.67592e-05
1.63762e-05
3.99958e-08
4.35886e-08
3.00148e-08
5.51978e-08
2.79866e-12
7.11722e-05
0.000138152
2.1156e-07
1.96986e-07
1.0911e-07
4.65907e-06
6.82365e-05
5.09053e-05
3.03232e-05
1.91486e-05
6.32859e-07
1.14375e-06
0.00340975
0.0145047
3.98044e-07
1.1772e-09
5.2223e-14
6.02015e-09
9.66961e-09
2.35421e-16
-8.83888e-14
2.05197e-23
6.96243e-09
1.74753e-07
3.89498e-06
7.60201e-06
4.33957e-06
3.74125e-06
3.74427e-07
2.18463e-07
2.4531e-07
0.0132444
0.0296621
0.5291
0.13174
6.49943e-16
1.35936e-18
2.73142e-20
5.03862e-20
-2.4747e-20
2.77931e-09
1.48074e-07
5.50654e-07
9.3229e-07
1.35122e-07
1.52006e-07
1.35853e-07
9.84655e-08
2.64452e-07
0.000119356
0.0173528
0.0296768
0.999825
0.948438
0.804379
0.51788
0.14995
0.0261289
0.0206838
5.55111e-19
1.42295e-07
1.88169e-07
2.98198e-07
1.98033e-07
2.28739e-07
1.00452e-07
-8.82326e-26
2.96724e-18
2.98648e-05
0.00552572
0.0128594
1
0.999999
0.999999
0.999442
0.988364
0.942431
0.671111
0.324333
0.173514
0.0841871
0.0156047
7.19022e-08
1.44393e-13
-8.5768e-19
-1.07538e-19
1.00971e-14
-6.04484e-15
0.0261035
0.0812024
1
1
1
0.999999
1
0.999999
1
0.999999
0.999144
0.792251
0.601826
0.444674
0.270661
0.204183
0.195401
0.21515
0.415419
0.701786
0.839064
1
1
1
1
1
1
1
1
0.999999
1
1
0.999999
0.988086
0.957667
0.956504
0.985171
0.994604
0.995547
0.999552
1
1
1
1
1
1
1
1
0.999991
0.999995
0.999999
0.999999
0.999941
0.999847
0.999762
0.99999
0.999983
0.999997
0.999998
1
1
1
1
1
1
1
0.999915
0.999183
0.999384
0.999927
0.999996
0.999705
0.998862
0.998924
0.999468
0.999872
0.999994
0.999996
1
1
1
1
1
1
1
0.999422
0.998992
0.998992
0.999581
0.999999
0.999619
0.997991
0.997973
0.998619
0.999813
0.999994
0.999998
1
1
1
1
1
1
1
0.99992
0.999222
0.999243
0.999858
0.999999
0.999957
0.999449
0.999416
0.999909
0.999992
0.999998
0.999999
1
1
1
1
1
1
0.999996
0.999999
0.99998
1
1
0.999999
0.999994
1
1
1
1
1
1
1
1
1
1
1
1
0.999998
0.999999
1
1
1
0.999995
0.999998
1
1
1
1
1
0.999999
1
1
1
1
1
1
1
1
1
1
1
0.999998
0.999998
0.999999
1
1
1
0.999999
0.999999
1
1
1
1
1
1
1
1
1
1
1
1
1
1
1
1
1
0.999999
0.999999
1
1
1
1
1
1
1
1
1
1
1
1
1
1
1
1
1
1
1
1
1
1
1
1
1
1
1
1
1
1
1
1
1
1
1
1
1
1
1
1
1
1
1
1
1
1
1
1
1
1
1
1
1
1
1
1
1
1
1
1
1
1
1
1
1
1
1
1
1
1
1
1
1
1
1
1
1
1
1
1
1
1
1
1
1
1
1
1
1
1
1
1
1
1
1
1
1
1
1
1
1
1
1
1
1
1
1
1
1
1
1
1
1
1
1
1
1
1
1
1
1
1
1
1
1
1
1
1
1
1
1
1
1
1
1
1
1
1
1
1
1
1
1
1
1
1
1
1
1
1
1
1
1
1
1
1
1
1
1
1
1
1
1
1
1
1
1
1
1
1
1
1
1
1
1
1
1
1
1
1
1
1
1
1
1
1
1
1
1
1
1
1
1
1
1
1
1
1
1
1
1
1
1
1
1
1
1
1
1
1
1
1
1
1
1
1
1
1
1
1
1
1
1
1
1
1
1
1
1
1
1
1
1
1
1
1
1
1
1
1
1
1
1
1
1
1
1
1
1
1
1
1
1
1
1
1
1
1
1
1
1
1
1
1
1
1
1
1
1
1
1
1
1
1
1
1
1
1
1
1
1
1
1
1
1
1
1
1
1
1
1
1
1
1
1
1
1
1
1
1
1
1
1
1
1
1
1
1
1
1
1
1
1
1
1
1
1
1
1
1
1
1
1
1
1
1
1
1
1
1
1
1
1
1
1
1
1
1
1
1
1
1
1
1
1
1
1
1
1
1
1
1
1
1
1
1
1
1
1
1
1
1
1
1
1
1
1
1
1
1
1
1
1
1
1
1
1
1
1
1
1
1
1
1
1
1
1
1
1
1
1
1
1
1
1
1
1
1
1
1
1
1
1
1
1
1
1
1
1
1
1
1
1
1
1
1
1
1
)
;

boundaryField
{
    leftWall
    {
        type            alphaContactAngle;
        contactAngleProperties 
        {
            mercury         
            {
                theta0          90;
            }
            water           
            {
                theta0          90;
            }
            oil             
            {
                theta0          90;
            }
        }
        value           nonuniform List<scalar> 
50
(
1.75667e-13
7.2491e-13
2.16529e-12
7.3366e-12
2.92268e-11
7.84928e-11
2.20121e-10
1.27138e-09
3.23003e-09
1.99018e-09
7.44068e-10
0.0555729
0.207415
0.207415
0.13276
0.388248
0.940493
0.999999
0.999999
0.999999
0.999999
0.999999
1
1
1
1
1
1
1
1
1
1
1
1
1
1
1
1
1
1
1
1
1
1
1
1
1
1
1
1
)
;
    }
    rightWall
    {
        type            alphaContactAngle;
        contactAngleProperties 
        {
            mercury         
            {
                theta0          90;
            }
            water           
            {
                theta0          90;
            }
            oil             
            {
                theta0          90;
            }
        }
        value           nonuniform List<scalar> 
50
(
0.0149112
0.0180971
0.0863018
0.138093
0.0530612
0.000167359
0.00304882
0.0875905
0.10637
0.093535
0.00555202
1.81541e-05
1.63762e-05
0.0145047
0.0296621
0.0296768
0.0128594
0.0812024
0.839064
0.999552
0.999998
0.999996
0.999998
0.999999
1
0.999999
0.999999
0.999999
1
1
1
1
1
1
1
1
1
1
1
1
1
1
1
1
1
1
1
1
1
1
)
;
    }
    lowerWall
    {
        type            alphaContactAngle;
        contactAngleProperties 
        {
            mercury         
            {
                theta0          90;
            }
            water           
            {
                theta0          90;
            }
            oil             
            {
                theta0          90;
            }
        }
        value           nonuniform List<scalar> 
62
(
1.75667e-13
2.74427e-13
3.1821e-13
2.35883e-13
1.75624e-13
1.12954e-13
6.20734e-14
3.13835e-14
1.62211e-14
9.09898e-15
5.03911e-15
2.64502e-15
1.89487e-15
2.31911e-15
5.5378e-15
1.14799e-14
1.10452e-14
1.11956e-14
3.3419e-14
3.8757e-14
1.28322e-13
3.05737e-13
3.69063e-13
3.69063e-13
2.40849e-11
1.10809e-09
7.01059e-09
7.13806e-09
1.18924e-05
0.00147673
0.00211004
0.0104218
0.0129673
0.00268452
0.00940064
0.000329789
0.00334487
0.0168246
0.0154592
0.0154591
0.0586303
0.0682142
0.0635295
0.000329789
0.000328962
0.00483501
0.0242715
0.038371
0.0716924
0.0736607
0.0737018
0.0410826
0.0437599
0.0608762
0.103957
0.10561
0.0649316
0.0150807
0.0149112
0.0149112
0.0149112
0.0149112
)
;
    }
    atmosphere
    {
        type            inletOutlet;
        inletValue      uniform 1;
        value           nonuniform List<scalar> 
46
(
1
1
1
1
1
1
1
1
1
1
1
1
1
1
1
1
1
1
1
1
1
1
1
1
1
1
1
1
1
1
1
1
1
1
1
1
1
1
1
1
1
1
1
1
1
1
)
;
    }
    defaultFaces
    {
        type            empty;
    }
}


// ************************************************************************* //
