/*--------------------------------*- C++ -*----------------------------------*\
  =========                 |
  \\      /  F ield         | OpenFOAM: The Open Source CFD Toolbox
   \\    /   O peration     | Website:  https://openfoam.org
    \\  /    A nd           | Version:  13
     \\/     M anipulation  |
\*---------------------------------------------------------------------------*/
FoamFile
{
    format      ascii;
    class       volScalarField;
    location    "1.85";
    object      epsilon;
}
// * * * * * * * * * * * * * * * * * * * * * * * * * * * * * * * * * * * * * //

dimensions      [0 2 -3 0 0 0 0];

internalField   nonuniform List<scalar> 
2268
(
0.00586666
0.0251118
0.0467906
0.0688075
0.0899298
0.10958
0.127699
0.144576
0.160609
0.176213
0.191944
0.209025
0.226755
0.243966
0.259985
0.273827
0.282903
0.283184
0.270014
0.237704
0.179999
0.0963383
0.0185751
0.00953341
0.0187643
0.0300127
0.0407105
0.0503207
0.0587278
0.0660309
0.0724628
0.0782679
0.0836562
0.0888671
0.094345
0.100032
0.105662
0.110943
0.115464
0.118436
0.118676
0.114792
0.105128
0.087823
0.0621963
0.0375856
0.0160734
0.0196358
0.0283121
0.0366099
0.0439432
0.0502627
0.0556807
0.060386
0.0645608
0.0683636
0.0719749
0.0756209
0.0793297
0.0830105
0.0865231
0.089657
0.0920207
0.0930596
0.092188
0.0888034
0.082241
0.0721345
0.0691615
0.0227541
0.0216104
0.0289487
0.03623
0.0426876
0.0482584
0.0530457
0.0572092
0.0608961
0.0642402
0.0673993
0.0705198
0.073643
0.0767382
0.0797504
0.0825842
0.0850447
0.086898
0.0880317
0.0885755
0.089012
0.0904985
0.108563
0.0295686
0.0239169
0.0303748
0.0371294
0.0432037
0.0484944
0.0530802
0.0570907
0.0606474
0.0638702
0.0669068
0.0698668
0.0727959
0.0756955
0.0785656
0.0813904
0.084109
0.0867128
0.0894568
0.0931569
0.0997791
0.113877
0.160502
0.0365529
0.026436
0.0322945
0.038774
0.0447103
0.0499535
0.0545472
0.0585872
0.0621723
0.0654143
0.0684541
0.0713889
0.0742707
0.077122
0.0799773
0.08288
0.0858743
0.0891193
0.0931566
0.0994405
0.111778
0.141253
0.237093
0.0425496
0.02912
0.0346208
0.0409799
0.0469273
0.0522675
0.056997
0.0611747
0.0648734
0.0682012
0.0712983
0.0742663
0.0771658
0.0800257
0.0828976
0.0858777
0.0890971
0.0928281
0.0978036
0.105965
0.122951
0.170225
0.370077
0.0450725
0.031533
0.0369068
0.0432835
0.0494026
0.0550078
0.0600356
0.0644767
0.0683703
0.0718314
0.0750181
0.0780578
0.0810157
0.0838975
0.0867618
0.0897642
0.0931096
0.0971264
0.102629
0.111748
0.130986
0.191562
0.649161
0.0294001
0.0812996
0.116874
0.137634
0.161594
0.191754
0.209441
0.235116
0.252442
0.25621
0.244772
0.220516
0.200656
0.186877
0.177924
0.169334
0.14929
0.10054
0.0141909
0.0505766
0.0741347
0.0860986
0.091176
0.0958034
0.101798
0.107224
0.112848
0.116243
0.116786
0.114176
0.109595
0.106578
0.106894
0.106815
0.103417
0.0910404
0.0661179
0.030644
0.09806
0.108135
0.105714
0.100083
0.0965175
0.0955648
0.0962205
0.0969531
0.0971188
0.0968705
0.0958131
0.0941685
0.0932007
0.0937473
0.0935028
0.0907625
0.0826236
0.0680498
0.0629598
0.164212
0.147731
0.132058
0.114394
0.105612
0.100807
0.0984268
0.0961972
0.0942759
0.0933073
0.0922587
0.0911344
0.0903253
0.0901892
0.0892753
0.0866504
0.0811698
0.0744441
0.107106
0.247629
0.186945
0.153963
0.127639
0.115859
0.110104
0.105413
0.100697
0.0967001
0.0950793
0.0933085
0.0917205
0.0906139
0.0898444
0.0884187
0.0858546
0.0822101
0.0817278
0.14577
0.357758
0.228923
0.169183
0.137648
0.124981
0.119724
0.113174
0.106785
0.101522
0.0992082
0.0965853
0.0940624
0.0924124
0.0911716
0.0893751
0.0869024
0.0847938
0.0895598
0.171477
0.51548
0.273077
0.179736
0.143304
0.131281
0.127103
0.119599
0.111736
0.106482
0.103803
0.100598
0.0973367
0.0951196
0.093498
0.0914557
0.0890311
0.0880849
0.09734
0.189413
0.751166
0.299669
0.185612
0.14622
0.134913
0.132007
0.124495
0.115691
0.110641
0.107967
0.104448
0.10093
0.0983708
0.0964264
0.0941273
0.0916625
0.0915552
0.103975
0.203228
0.0479666
0.0354511
0.0399222
0.0458746
0.0519367
0.057778
0.0632304
0.0681636
0.0725437
0.0764198
0.0799012
0.0831478
0.0862295
0.0891585
0.0920238
0.0950275
0.0984596
0.102683
0.108498
0.117799
0.13529
0.174475
0.286053
0.0613312
0.043615
0.0458848
0.0503145
0.0551139
0.0598888
0.0645199
0.0689579
0.0731726
0.0771618
0.0809449
0.0845404
0.0879601
0.0912163
0.0943972
0.0977212
0.101469
0.106012
0.112022
0.120799
0.134826
0.159091
0.203921
0.0825542
0.054929
0.0548417
0.0577197
0.0612026
0.0647881
0.0683726
0.0719603
0.0755462
0.0791212
0.0826649
0.0861615
0.0895991
0.0929837
0.096392
0.100022
0.104181
0.109282
0.11594
0.125117
0.138242
0.157397
0.184851
0.105642
0.0680306
0.0654155
0.0669061
0.0692746
0.0718554
0.0745552
0.077413
0.0804144
0.0835114
0.0866395
0.0898019
0.0930082
0.0962977
0.0997772
0.10368
0.108379
0.114369
0.122283
0.132836
0.146722
0.164285
0.183672
0.127294
0.0812663
0.0764508
0.0767204
0.0781349
0.0799168
0.081967
0.0843081
0.0868881
0.0895572
0.0922895
0.095095
0.0980145
0.101138
0.104631
0.108796
0.114085
0.121009
0.130125
0.141936
0.156688
0.173642
0.18949
0.141413
0.0923868
0.0864826
0.0859235
0.0866983
0.0880185
0.0897325
0.0917781
0.0940229
0.0963889
0.09883
0.101345
0.104007
0.10697
0.110443
0.114755
0.120478
0.128199
0.138384
0.151424
0.16746
0.184364
0.197755
0.140915
0.100242
0.0943935
0.0937937
0.0944465
0.0957123
0.0974255
0.0994032
0.101531
0.103736
0.105954
0.108198
0.110624
0.113524
0.11714
0.121615
0.127716
0.136249
0.147715
0.162503
0.180295
0.197488
0.209161
0.139781
0.106099
0.101672
0.101285
0.10173
0.103075
0.105122
0.107395
0.109643
0.111768
0.113706
0.115564
0.117738
0.120875
0.125319
0.130274
0.1368
0.146515
0.16021
0.178384
0.199811
0.219096
0.226563
0.15816
0.115737
0.110323
0.108954
0.108549
0.110379
0.113476
0.116455
0.118949
0.120938
0.122342
0.123486
0.125194
0.128232
0.131879
0.134666
0.138641
0.145973
0.158122
0.175514
0.196102
0.212415
0.218359
0.175436
0.122721
0.115509
0.113776
0.113834
0.1172
0.120583
0.122755
0.124707
0.126184
0.12671
0.126717
0.127585
0.129268
0.130968
0.13274
0.135621
0.141292
0.15083
0.164495
0.180584
0.194379
0.201251
0.192638
0.120925
0.113667
0.11254
0.113727
0.117239
0.120386
0.121834
0.12273
0.123258
0.123327
0.123262
0.123769
0.125139
0.126948
0.1292
0.132452
0.137709
0.145757
0.156672
0.169062
0.179609
0.186136
0.200761
0.121362
0.112182
0.110542
0.111082
0.113401
0.115574
0.116825
0.117533
0.117898
0.118092
0.118436
0.119299
0.120815
0.122858
0.125462
0.129024
0.134136
0.141216
0.150146
0.159816
0.168039
0.173216
0.21383
0.121129
0.109637
0.10725
0.107195
0.108531
0.110089
0.111252
0.112056
0.112632
0.113166
0.113942
0.115165
0.116906
0.119134
0.12193
0.125596
0.130492
0.136816
0.144363
0.15226
0.159024
0.163285
0.223967
0.119931
0.106206
0.103116
0.102752
0.103598
0.104824
0.105966
0.106938
0.107807
0.108703
0.109828
0.111323
0.113246
0.115598
0.118473
0.122084
0.126659
0.132294
0.138787
0.145499
0.151427
0.155345
0.22372
0.116637
0.101961
0.0985247
0.0980547
0.0987412
0.0998579
0.101042
0.102182
0.103306
0.1045
0.105891
0.107577
0.109613
0.112022
0.114882
0.118336
0.122532
0.12752
0.133148
0.138977
0.144362
0.14826
0.216374
0.111899
0.0972207
0.0937485
0.0933056
0.0939929
0.095123
0.0963888
0.0976826
0.099007
0.100418
0.101994
0.103802
0.105891
0.108291
0.111062
0.114299
0.118097
0.122488
0.127372
0.132473
0.137396
0.141292
0.20668
0.106569
0.0923323
0.0889766
0.0886146
0.0893601
0.0905512
0.0919105
0.0933356
0.0948146
0.0963793
0.0980776
0.0999548
0.10205
0.104394
0.107029
0.110018
0.113423
0.117268
0.121497
0.125946
0.130391
0.134162
0.196439
0.101197
0.0875194
0.0843033
0.0840127
0.084824
0.0860859
0.0875323
0.0890653
0.0906629
0.0923384
0.0941187
0.0960319
0.0981078
0.10037
0.102848
0.105585
0.10862
0.111973
0.115618
0.119465
0.123394
0.126895
0.185626
0.0958062
0.0827995
0.0797448
0.0795117
0.0803595
0.0816763
0.0832003
0.0848221
0.086513
0.0882723
0.0901112
0.0920449
0.094092
0.0962682
0.0985934
0.101094
0.103797
0.106719
0.10985
0.113145
0.116544
0.119672
0.174276
0.0903234
0.0780865
0.0752246
0.0750555
0.0759377
0.0772916
0.0788738
0.0805727
0.0823421
0.0841694
0.0860545
0.0880054
0.0900273
0.0921284
0.0943198
0.0966173
0.0990381
0.101595
0.104286
0.107092
0.109984
0.112696
0.162294
0.0846562
0.0732984
0.0706748
0.0705903
0.0715157
0.0729085
0.0745388
0.0762993
0.0781355
0.0800239
0.0819547
0.0839233
0.0859293
0.0879732
0.090059
0.0921941
0.0943883
0.09665
0.0989807
0.101374
0.103817
0.106121
0.149575
0.0787267
0.0683749
0.066049
0.0660808
0.0670669
0.068507
0.0701866
0.0720021
0.0738979
0.0758418
0.0778147
0.0798054
0.0818068
0.0838135
0.0858236
0.0878382
0.0898612
0.091897
0.093947
0.0960102
0.0980825
0.100024
0.136079
0.0725075
0.0632969
0.0613332
0.061518
0.0625864
0.0640856
0.0658189
0.0676881
0.0696375
0.0716312
0.0736448
0.0756611
0.0776675
0.0796543
0.0816154
0.0835473
0.085449
0.0873215
0.0891645
0.090978
0.0927626
0.0944141
0.121947
0.0660539
0.0580999
0.0565539
0.0569238
0.0580941
0.0596634
0.0614546
0.0633769
0.0653759
0.0674144
0.0694651
0.071507
0.0735239
0.0755035
0.0774362
0.0793152
0.0811364
0.0828974
0.0845962
0.0862323
0.0878074
0.0892438
0.107629
0.0595391
0.0528817
0.0517785
0.0523521
0.0536368
0.0552828
0.0571336
0.0591063
0.0611493
0.0632261
0.0653079
0.0673722
0.0694008
0.0713795
0.0732966
0.0751434
0.0769134
0.0786022
0.0802061
0.081723
0.083154
0.0844428
0.0942696
0.0532759
0.0477917
0.0471103
0.0478874
0.049289
0.0510122
0.0529195
0.0549365
0.0570153
0.0591207
0.0612246
0.063304
0.0653402
0.0673177
0.0692242
0.0710498
0.0727868
0.0744293
0.0759724
0.0774126
0.0787496
0.0799415
0.0823785
0.0474422
0.0429766
0.0426759
0.0436419
0.0451525
0.0469452
0.048901
0.0509519
0.0530542
0.0551748
0.0572876
0.0593705
0.0614047
0.0633749
0.0652683
0.067075
0.0687865
0.0703963
0.0718984
0.0732884
0.0745646
0.075694
0.0719422
0.0421286
0.038567
0.0386111
0.039749
0.0413565
0.0432064
0.0451941
0.0472611
0.0493683
0.0514861
0.0535906
0.0556611
0.057679
0.0596298
0.0615013
0.0632834
0.064968
0.0665483
0.0680171
0.0693686
0.0706005
0.0716885
0.0633949
0.037569
0.0347474
0.0350777
0.0363569
0.0380395
0.0399271
0.0419281
0.0439912
0.0460822
0.0481752
0.0502486
0.0522843
0.054266
0.0561802
0.0580152
0.0597612
0.0614097
0.0629536
0.064386
0.0657008
0.0668948
0.0679488
0.057148
0.0340147
0.0317142
0.0322468
0.0336218
0.0353473
0.0372451
0.0392336
0.0412675
0.0433172
0.0453603
0.0473786
0.0493563
0.0512796
0.0531361
0.0549154
0.0566081
0.058206
0.0597018
0.0610887
0.0623604
0.0635133
0.0645308
0.0534493
0.031669
0.0296398
0.0302761
0.0316905
0.0334179
0.0352911
0.0372349
0.0392093
0.0411888
0.0431547
0.045092
0.0469873
0.0488288
0.050606
0.0523092
0.0539299
0.0554602
0.0568929
0.0582213
0.0594389
0.0605412
0.0615139
0.0523916
0.0306661
0.0286609
0.029299
0.0306907
0.0323717
0.0341781
0.0360392
0.0379192
0.0397968
0.0416567
0.0434865
0.0452751
0.0470126
0.0486896
0.0502975
0.0518282
0.0532742
0.0546284
0.0558841
0.0570346
0.0580745
0.0589912
0.053982
0.0311045
0.0288942
0.0294334
0.0307331
0.0323097
0.0339981
0.0357312
0.0374774
0.0392188
0.040943
0.0426395
0.0442991
0.0459127
0.0474717
0.048968
0.0503938
0.0517416
0.0530042
0.0541746
0.0552461
0.0562125
0.0570618
0.0582757
0.0331071
0.0304738
0.0308021
0.0319222
0.0333181
0.0348225
0.0363719
0.0379384
0.0395066
0.0410653
0.0426048
0.0441161
0.0455901
0.0470184
0.0483923
0.0497037
0.0509446
0.0521073
0.0531843
0.0541686
0.0550532
0.0558266
0.0655315
0.0368992
0.0335923
0.033554
0.0343638
0.0354684
0.0366987
0.0379939
0.0393271
0.040682
0.0420461
0.0434078
0.0447564
0.0460816
0.0473735
0.0486223
0.0498184
0.0509526
0.0520156
0.0529987
0.053894
0.0546943
0.0553883
0.0764082
0.0428811
0.0385305
0.0378656
0.0381539
0.0388015
0.0396341
0.0405865
0.0416248
0.0427252
0.0438681
0.0450364
0.0462153
0.0473913
0.0485519
0.049685
0.0507787
0.0518207
0.0527985
0.0536998
0.0545152
0.0552375
0.0558565
0.0921429
0.0517113
0.0456622
0.0439094
0.0433348
0.0432851
0.043559
0.0440648
0.0447436
0.0455514
0.0464533
0.0474218
0.0484346
0.0494738
0.0505233
0.0515682
0.0525938
0.0535834
0.0545163
0.0553706
0.056133
0.0567973
0.0573572
0.114838
0.0643916
0.0554111
0.0517666
0.0498098
0.0487444
0.0482725
0.0482261
0.0484894
0.0489785
0.0496328
0.0504081
0.0512729
0.0522037
0.0531818
0.0541914
0.0552175
0.0562388
0.0572177
0.0581034
0.0588706
0.0595175
0.0600483
0.147743
0.0822958
0.068089
0.0612591
0.0572207
0.0547805
0.0533874
0.0527096
0.052528
0.0526956
0.0531147
0.0537203
0.0544701
0.0553368
0.0563031
0.0573599
0.0585036
0.0597183
0.0609349
0.0620203
0.0629092
0.063612
0.064156
0.197439
0.107016
0.0834474
0.0716635
0.0648078
0.060711
0.0583066
0.0569853
0.0563773
0.0562537
0.0564725
0.0569463
0.0576239
0.0584781
0.0595009
0.0607072
0.0621374
0.0638231
0.0656632
0.0673144
0.0685662
0.0694667
0.0700685
0.300676
0.140511
0.0996211
0.0813132
0.071325
0.0655927
0.0622724
0.0604051
0.0594536
0.059106
0.0591793
0.059567
0.0602121
0.0610925
0.0622191
0.0636538
0.0655393
0.0680657
0.0712047
0.0742383
0.076343
0.0778567
0.0785465
1.28437
0.180817
0.111354
0.0875114
0.0752094
0.0684034
0.0645216
0.0623342
0.0611877
0.0607167
0.0607129
0.0610587
0.061695
0.0626056
0.0638203
0.0654533
0.0677811
0.0712786
0.0763248
0.0822715
0.0858835
0.0902495
0.0909964
0.821402
0.749319
0.766731
0.84604
0.266497
0.288739
0.303196
0.306532
0.208188
0.219061
0.224318
0.222941
0.195522
0.200302
0.20153
0.199245
0.196754
0.198837
0.198203
0.195212
0.202031
0.202557
0.201023
0.197718
0.211111
0.209735
0.206641
0.202634
0.223788
0.22054
0.21648
0.211771
0.217464
0.218369
0.220988
0.225007
0.205548
0.210461
0.21711
0.220964
0.191136
0.195538
0.200413
0.203941
0.176853
0.179725
0.182765
0.185297
0.165643
0.167319
0.169045
0.170671
0.157218
0.15838
0.159438
0.160417
0.150148
0.151229
0.152077
0.152756
0.143341
0.144505
0.145384
0.146029
0.136313
0.137564
0.138542
0.139281
0.129029
0.130304
0.131353
0.132199
0.121675
0.122901
0.123957
0.124859
0.114493
0.115614
0.116611
0.1175
0.107682
0.108664
0.109559
0.110379
0.101355
0.102193
0.102967
0.103686
0.0955433
0.0962518
0.0969087
0.0975194
0.0902148
0.0908179
0.0913748
0.0918888
0.0852997
0.0858251
0.0863066
0.0867444
0.0807229
0.0811959
0.0816251
0.0820096
0.0764276
0.0768673
0.077264
0.0776145
0.0723903
0.0728091
0.0731855
0.0735159
0.0686257
0.069029
0.0693915
0.0697086
0.0651825
0.0655707
0.0659199
0.0662254
0.0621351
0.0625053
0.0628384
0.0631299
0.059574
0.059921
0.060233
0.0605059
0.0575983
0.0579168
0.0582021
0.0584508
0.05631
0.0565955
0.0568494
0.0570692
0.0558156
0.0560657
0.056286
0.0564743
0.0562304
0.0564465
0.0566341
0.056792
0.0576874
0.0578756
0.0580362
0.0581688
0.0603523
0.0605225
0.0606651
0.0607811
0.0644511
0.0646109
0.0647406
0.0648438
0.070349
0.0704825
0.0705709
0.0706272
0.0787442
0.0787662
0.0786679
0.0784742
0.091006
0.0907833
0.0900981
0.0882896
0.426698
0.26473
0.184528
0.148621
0.138186
0.136726
0.130015
0.120876
0.116203
0.11405
0.110484
0.106767
0.103921
0.101476
0.0986899
0.0961241
0.0968914
0.111931
0.21634
0.27036
0.212888
0.17395
0.149306
0.14149
0.140813
0.135232
0.127105
0.123197
0.121596
0.118526
0.114804
0.111384
0.108219
0.104823
0.101738
0.102112
0.114745
0.204137
0.211087
0.186177
0.16574
0.150064
0.144365
0.143836
0.139766
0.133417
0.129973
0.128186
0.12522
0.121471
0.117712
0.114095
0.110294
0.106756
0.106924
0.118174
0.193649
0.191737
0.176652
0.162968
0.15184
0.14704
0.14617
0.14366
0.139416
0.136161
0.133633
0.130307
0.126326
0.122257
0.118376
0.114777
0.11229
0.114097
0.125579
0.187958
0.18833
0.175738
0.163915
0.154638
0.150052
0.1486
0.146672
0.143597
0.140393
0.137021
0.133146
0.129153
0.125519
0.122539
0.120524
0.120268
0.123916
0.134857
0.18524
0.190907
0.178661
0.167141
0.158435
0.153565
0.151269
0.149133
0.14617
0.142751
0.139059
0.135282
0.131947
0.129495
0.12816
0.128195
0.130083
0.134455
0.14366
0.183896
0.195457
0.182919
0.171436
0.163006
0.157758
0.15464
0.152045
0.148937
0.145387
0.141779
0.138474
0.135989
0.134712
0.13477
0.136216
0.13914
0.143562
0.150302
0.181237
0.203871
0.190205
0.178055
0.169286
0.163422
0.159574
0.156518
0.153232
0.149626
0.146161
0.143222
0.141272
0.140662
0.14139
0.143236
0.14592
0.149062
0.152853
0.17432
0.224357
0.203838
0.189426
0.179986
0.173034
0.167949
0.164035
0.160389
0.156545
0.152889
0.149781
0.147603
0.14678
0.147269
0.14857
0.150075
0.151029
0.151054
0.167765
0.221488
0.215883
0.207468
0.198984
0.189687
0.181908
0.176589
0.172439
0.167676
0.163044
0.159015
0.155424
0.152922
0.151897
0.151642
0.151169
0.149785
0.147703
0.168422
0.205855
0.208178
0.212377
0.213468
0.210045
0.202966
0.196299
0.191815
0.184726
0.178057
0.172761
0.166686
0.160939
0.157702
0.155829
0.153706
0.151417
0.150601
0.182033
0.187568
0.190061
0.195561
0.20163
0.207352
0.210021
0.211359
0.211634
0.205897
0.197946
0.193244
0.184131
0.172189
0.166083
0.163592
0.160548
0.158516
0.161824
0.215052
0.172703
0.174551
0.178251
0.182817
0.187397
0.191497
0.196406
0.200483
0.200064
0.201037
0.200752
0.198183
0.182635
0.172735
0.170434
0.166526
0.163142
0.171972
0.266058
0.161645
0.162428
0.164107
0.166547
0.169397
0.172497
0.175538
0.177402
0.177845
0.180291
0.184663
0.184027
0.171814
0.162334
0.159426
0.155736
0.151688
0.158891
0.307232
0.153441
0.153444
0.15375
0.154533
0.155691
0.15711
0.158352
0.158849
0.159152
0.160607
0.162348
0.159848
0.152907
0.146101
0.142487
0.138108
0.134826
0.149793
0.33167
0.14658
0.146375
0.14611
0.145991
0.146048
0.146234
0.146318
0.146077
0.145812
0.145916
0.145684
0.142955
0.138445
0.134314
0.130065
0.12518
0.123283
0.141361
0.321153
0.139978
0.140005
0.139792
0.139472
0.139134
0.13877
0.138286
0.137554
0.136655
0.135662
0.13429
0.132106
0.129598
0.126998
0.122829
0.117474
0.115558
0.132041
0.296245
0.133131
0.133587
0.133748
0.133659
0.133412
0.133004
0.132371
0.131405
0.130097
0.128561
0.126902
0.125234
0.123556
0.121196
0.11692
0.111423
0.10881
0.121677
0.267432
0.125972
0.126835
0.127417
0.127694
0.127729
0.127502
0.126947
0.125978
0.124595
0.122971
0.12136
0.119862
0.11816
0.115453
0.11091
0.105251
0.101555
0.110141
0.233862
0.11868
0.119796
0.120676
0.121246
0.121537
0.121509
0.121101
0.120253
0.118984
0.117463
0.115886
0.114245
0.112157
0.108928
0.104086
0.0981786
0.0933842
0.097889
0.197814
0.111512
0.112697
0.113687
0.114389
0.114805
0.114888
0.11458
0.113843
0.112696
0.111257
0.10962
0.107698
0.105148
0.101485
0.0964392
0.09039
0.0848698
0.0863238
0.164897
0.1047
0.105802
0.106737
0.107407
0.107803
0.107874
0.10757
0.10686
0.105748
0.104304
0.102536
0.100331
0.0974277
0.0935199
0.0884739
0.0825734
0.0769704
0.0768846
0.139851
0.0983832
0.0993188
0.100092
0.100619
0.100887
0.100847
0.100457
0.0996853
0.0985246
0.0970058
0.0950943
0.092686
0.089607
0.085688
0.0808941
0.0754854
0.0704429
0.0702916
0.124272
0.0926092
0.0933554
0.0939297
0.0942676
0.094357
0.0941575
0.0936311
0.0927456
0.0915006
0.0898923
0.087879
0.085385
0.0823124
0.0785921
0.0742657
0.0696132
0.0655772
0.0663879
0.116712
0.0873482
0.0879266
0.0883151
0.0884709
0.0883856
0.0880271
0.0873643
0.0863693
0.0850456
0.0833781
0.0813348
0.078873
0.075954
0.0725781
0.0688436
0.0650649
0.0622039
0.0644346
0.114486
0.0825319
0.0829846
0.0832291
0.0832419
0.083019
0.082536
0.0817694
0.0807001
0.0793367
0.0776636
0.0756648
0.073327
0.0706533
0.0676891
0.0645705
0.0616421
0.059904
0.06359
0.114992
0.0780862
0.0784589
0.0786088
0.0785282
0.0782169
0.0776575
0.0768319
0.0757396
0.0743828
0.0727563
0.0708592
0.0687004
0.0663095
0.0637588
0.0612069
0.0590214
0.0582398
0.063204
0.11651
0.0739599
0.0742893
0.0743879
0.074259
0.0739051
0.0733145
0.0724774
0.0714024
0.0700921
0.0685505
0.0667886
0.0648298
0.0627196
0.0605448
0.058477
0.0568993
0.0568837
0.0628796
0.117912
0.0701369
0.0704471
0.0705247
0.0703799
0.0700165
0.0694271
0.0686132
0.0675839
0.0663454
0.0649089
0.0632937
0.0615321
0.0596783
0.0578266
0.0561558
0.0550605
0.0556376
0.0624173
0.118725
0.0666412
0.0669423
0.0670148
0.0668714
0.0665168
0.0659483
0.0651739
0.0642026
0.0630448
0.0617166
0.0602429
0.058661
0.0570296
0.0554468
0.0540955
0.0533769
0.0544034
0.061742
0.118677
0.0635292
0.0638203
0.0638906
0.0637524
0.0634103
0.062868
0.0621342
0.0612187
0.0601355
0.0589047
0.0575545
0.0561254
0.0546784
0.0533134
0.0522153
0.0517879
0.0531462
0.0608492
0.117825
0.0608811
0.0611536
0.0612152
0.0610762
0.0607411
0.0602165
0.0595111
0.0586366
0.05761
0.0564539
0.0551992
0.0538884
0.0525842
0.0513874
0.0504832
0.0502741
0.0518676
0.0597729
0.1162
0.058792
0.0590338
0.0590751
0.0589225
0.0585817
0.058058
0.0573608
0.0565038
0.055506
0.0543925
0.0531962
0.0519614
0.0507521
0.0496705
0.0489015
0.0488443
0.0505892
0.0585612
0.113989
0.057368
0.057567
0.0575755
0.0573964
0.0570329
0.0564901
0.0557774
0.05491
0.0539083
0.0527989
0.0516162
0.0504061
0.0492344
0.0482055
0.0475053
0.047529
0.0493466
0.0572729
0.111291
0.0567257
0.0568739
0.0568407
0.0566244
0.0562248
0.0556461
0.0548974
0.0539941
0.0529569
0.0518126
0.0505953
0.0493513
0.0481484
0.047094
0.0463778
0.0463945
0.048195
0.0559742
0.108355
0.0569973
0.0570944
0.0570186
0.0567627
0.0563232
0.0557022
0.0549079
0.0539547
0.0528617
0.0516529
0.0503594
0.0490247
0.047716
0.0465429
0.0456994
0.0455844
0.0472414
0.0547615
0.105398
0.0583364
0.0583935
0.0582873
0.0580049
0.0575381
0.0568864
0.056057
0.0550622
0.0539172
0.0526402
0.0512545
0.0497957
0.0483236
0.0469432
0.0458459
0.0454305
0.0467447
0.0538259
0.10288
0.0609251
0.0609666
0.0608619
0.0605899
0.060132
0.0594862
0.0586601
0.0576643
0.0565093
0.0552049
0.0537627
0.0522045
0.0505751
0.0489622
0.0475345
0.0466666
0.0473973
0.053751
0.101826
0.0649731
0.0650341
0.0649956
0.0648085
0.0644269
0.0638511
0.0630968
0.0621772
0.0610997
0.0598659
0.058476
0.0569367
0.0552749
0.053553
0.0519031
0.0506666
0.050909
0.05663
0.106172
0.0707046
0.0708203
0.0709843
0.0710185
0.070812
0.0703894
0.0697954
0.0690555
0.0681782
0.0671618
0.066
0.0646914
0.0632515
0.0617252
0.0602319
0.0592203
0.0604067
0.0690731
0.132535
0.0783754
0.0785731
0.0792661
0.0797123
0.0797675
0.0795638
0.0792079
0.0787454
0.0781899
0.0775413
0.0767951
0.075951
0.0750223
0.0740478
0.0731735
0.0732541
0.0786519
0.105271
0.27041
0.0888941
0.0892156
0.0909501
0.091709
0.0919122
0.0918933
0.0917908
0.0916468
0.0914724
0.0912697
0.0910394
0.0907845
0.090515
0.0902538
0.090115
0.0910794
0.100565
0.170612
1.33441
)
;

boundaryField
{
    leftWall
    {
        type            epsilonWallFunction;
        value           nonuniform List<scalar> 
50
(
0.00586666
0.00953341
0.0160734
0.0227541
0.0295686
0.0365529
0.0425496
0.0450725
0.0479666
0.0613312
0.0825542
0.105642
0.127294
0.141413
0.140915
0.139781
0.15816
0.175436
0.192638
0.200761
0.21383
0.223967
0.22372
0.216374
0.20668
0.196439
0.185626
0.174276
0.162294
0.149575
0.136079
0.121947
0.107629
0.0942696
0.0823785
0.0719422
0.0633949
0.057148
0.0534493
0.0523916
0.053982
0.0582757
0.0655315
0.0764082
0.0921429
0.114838
0.147743
0.197439
0.300676
1.28437
)
;
    }
    rightWall
    {
        type            epsilonWallFunction;
        value           nonuniform List<scalar> 
50
(
0.0141909
0.030644
0.0629598
0.107106
0.14577
0.171477
0.189413
0.203228
0.21634
0.204137
0.193649
0.187958
0.18524
0.183896
0.181237
0.17432
0.167765
0.168422
0.182033
0.215052
0.266058
0.307232
0.33167
0.321153
0.296245
0.267432
0.233862
0.197814
0.164897
0.139851
0.124272
0.116712
0.114486
0.114992
0.11651
0.117912
0.118725
0.118677
0.117825
0.1162
0.113989
0.111291
0.108355
0.105398
0.10288
0.101826
0.106172
0.132535
0.27041
1.33441
)
;
    }
    lowerWall
    {
        type            epsilonWallFunction;
        value           nonuniform List<scalar> 
62
(
0.00586666
0.0251118
0.0467906
0.0688075
0.0899298
0.10958
0.127699
0.144576
0.160609
0.176213
0.191944
0.209025
0.226755
0.243966
0.259985
0.273827
0.282903
0.283184
0.270014
0.237704
0.179999
0.0963383
0.0185751
0.0185751
0.0375856
0.0691615
0.108563
0.160502
0.237093
0.370077
0.649161
0.821402
0.749319
0.766731
0.84604
0.0294001
0.0505766
0.09806
0.164212
0.247629
0.357758
0.51548
0.751166
0.0294001
0.0812996
0.116874
0.137634
0.161594
0.191754
0.209441
0.235116
0.252442
0.25621
0.244772
0.220516
0.200656
0.186877
0.177924
0.169334
0.14929
0.10054
0.0141909
)
;
    }
    atmosphere
    {
        type            inletOutlet;
        inletValue      uniform 0.1;
        value           nonuniform List<scalar> 
46
(
0.1
0.1
0.111354
0.0875114
0.0752094
0.0684034
0.0645216
0.0623342
0.0611877
0.0607167
0.0607129
0.0610587
0.061695
0.0626056
0.0638203
0.0654533
0.0677811
0.0712786
0.0763248
0.0822715
0.0858835
0.1
0.1
0.1
0.1
0.1
0.0882896
0.1
0.1
0.1
0.1
0.1
0.1
0.1
0.1
0.1
0.1
0.1
0.1
0.1
0.1
0.1
0.1
0.1
0.1
0.1
)
;
    }
    defaultFaces
    {
        type            empty;
    }
}


// ************************************************************************* //
