/*--------------------------------*- C++ -*----------------------------------*\
  =========                 |
  \\      /  F ield         | OpenFOAM: The Open Source CFD Toolbox
   \\    /   O peration     | Website:  https://openfoam.org
    \\  /    A nd           | Version:  13
     \\/     M anipulation  |
\*---------------------------------------------------------------------------*/
FoamFile
{
    format      ascii;
    class       volScalarField;
    location    "1.85";
    object      k;
}
// * * * * * * * * * * * * * * * * * * * * * * * * * * * * * * * * * * * * * //

dimensions      [0 2 -2 0 0 0 0];

internalField   nonuniform List<scalar> 
2268
(
0.00124776
0.0032912
0.00497605
0.00642802
0.00767958
0.00876046
0.00970514
0.0105501
0.0113268
0.0120627
0.0127915
0.0135624
0.0143255
0.01504
0.0156854
0.0162264
0.0165678
0.0165628
0.0160321
0.014718
0.0122251
0.00805445
0.00264265
0.00285549
0.00762621
0.0111698
0.0141857
0.0167721
0.019009
0.0209737
0.0227405
0.0243711
0.0259197
0.0274423
0.0289504
0.0304136
0.0317899
0.0330355
0.0340725
0.0347327
0.0347569
0.0338049
0.0313834
0.0267541
0.0189729
0.00703233
0.00405654
0.0104745
0.0149594
0.0187558
0.0220052
0.0248135
0.0272807
0.0294975
0.0315371
0.0334631
0.0353383
0.0371702
0.0389352
0.0405872
0.0420756
0.0433106
0.0441078
0.044186
0.0431696
0.0405012
0.0352986
0.0261906
0.0105605
0.00512169
0.0127516
0.0178893
0.0222313
0.0259586
0.0291903
0.0320369
0.0345951
0.0369423
0.0391465
0.0412739
0.0433313
0.045298
0.0471293
0.0487765
0.0501502
0.0510694
0.051262
0.050361
0.047804
0.0426194
0.0329565
0.0142372
0.00609794
0.0146778
0.0203633
0.0251656
0.0293097
0.0329221
0.0361149
0.0389839
0.0416068
0.0440549
0.0463968
0.0486417
0.050772
0.0527474
0.0545245
0.0560211
0.0570707
0.0574262
0.0567513
0.0545137
0.0496997
0.0399615
0.0184336
0.00701392
0.0163565
0.0225607
0.0277927
0.0323321
0.0363126
0.0398424
0.0430118
0.0458968
0.0485726
0.0511074
0.0535193
0.0557938
0.0578965
0.0597896
0.0614022
0.0625912
0.0631417
0.0627595
0.060972
0.0568033
0.047542
0.0238614
0.00775742
0.0178188
0.0245589
0.0302196
0.0351529
0.0395033
0.0433716
0.0468406
0.0499815
0.0528735
0.0555904
0.0581585
0.0605684
0.0627884
0.0647845
0.0665036
0.0678327
0.0685911
0.0685303
0.0672637
0.0639683
0.0560026
0.0320724
0.00808202
0.0189044
0.0262313
0.0323503
0.0377093
0.0424636
0.0467055
0.0504978
0.0539042
0.0570113
0.0599087
0.0626334
0.0651797
0.0675078
0.0695883
0.0713954
0.0728519
0.0738074
0.074059
0.0733202
0.0710166
0.0652905
0.0467014
0.0036017
0.00707844
0.00902599
0.0100685
0.0112432
0.0126905
0.0134733
0.0145473
0.0152518
0.0154487
0.0150532
0.0140351
0.0131255
0.012428
0.0119498
0.0115236
0.0106188
0.00821732
0.00226343
0.00915291
0.0169443
0.020864
0.023056
0.025445
0.0281628
0.0302369
0.0316199
0.0322362
0.0323656
0.0318533
0.0304458
0.0288419
0.0273409
0.0263223
0.0254651
0.0237219
0.0190515
0.00663698
0.014119
0.024706
0.0291929
0.0313022
0.034094
0.0373539
0.0398658
0.0411346
0.0414517
0.0414142
0.0408533
0.0394664
0.0377304
0.0360336
0.0346762
0.0333189
0.0309243
0.0253281
0.0106687
0.0197709
0.0320996
0.0377829
0.0388683
0.0417137
0.0452995
0.0479722
0.0489049
0.0487493
0.0484605
0.0477342
0.0463257
0.04449
0.0426115
0.0409307
0.0390463
0.0361098
0.0301566
0.0151353
0.0259018
0.0395732
0.046513
0.0468956
0.0493394
0.0532673
0.0558395
0.0562529
0.0554338
0.0548706
0.0538188
0.0522141
0.0502559
0.0481963
0.0461939
0.0438061
0.0403914
0.034245
0.0186073
0.033094
0.0475686
0.0548978
0.0550681
0.0570139
0.0610979
0.0632633
0.0631878
0.0618698
0.0610066
0.0595735
0.0576136
0.05546
0.0532088
0.0508678
0.0480217
0.0442085
0.0379462
0.020757
0.0423605
0.0564586
0.0630059
0.0626705
0.0642007
0.0682117
0.0698899
0.0692125
0.0677744
0.0666972
0.0649663
0.0626803
0.0602805
0.0578073
0.0551292
0.051834
0.0475903
0.0412179
0.0221838
0.0547572
0.0664614
0.070963
0.0696566
0.0706823
0.0744542
0.0757351
0.0745049
0.0729959
0.0718203
0.069867
0.06739
0.0647767
0.0620516
0.0589971
0.0552198
0.0505011
0.0438202
0.0232444
0.00832055
0.0201832
0.0282375
0.0348632
0.0407059
0.0459691
0.0507335
0.0550279
0.0588955
0.0623966
0.065604
0.0685784
0.071321
0.0738001
0.0760061
0.077944
0.0795934
0.0808501
0.0815783
0.08163
0.0807578
0.0783226
0.0723794
0.00970489
0.022898
0.0313079
0.0380252
0.0438467
0.0490655
0.0538317
0.0582312
0.0623147
0.0661196
0.069667
0.0729685
0.076018
0.0787993
0.0813182
0.0836136
0.0857015
0.0875536
0.089129
0.0903921
0.0912929
0.0917845
0.091918
0.0117708
0.0267874
0.0354742
0.0422011
0.0479112
0.0529647
0.0575641
0.0618415
0.0658679
0.0696816
0.0732842
0.076682
0.0798725
0.0828528
0.0856422
0.0882967
0.0908843
0.0934537
0.0960459
0.098699
0.101432
0.104296
0.107434
0.0138453
0.0306852
0.0398781
0.0467604
0.0524811
0.0574699
0.0619831
0.0661896
0.0701654
0.0739342
0.0774874
0.0808518
0.0840495
0.087109
0.0900823
0.0930658
0.0961877
0.099575
0.10333
0.10748
0.111936
0.116449
0.120421
0.0156598
0.0341601
0.0438827
0.0510595
0.0569417
0.0620283
0.0666175
0.0708882
0.0749099
0.0786621
0.082175
0.0854897
0.0886578
0.0917483
0.0948569
0.0981335
0.101767
0.105914
0.110668
0.116
0.121672
0.127165
0.131412
0.0168035
0.0366064
0.0469212
0.0545947
0.0608528
0.0662591
0.0711224
0.0755983
0.0797284
0.0835425
0.0870722
0.0903677
0.0935119
0.0966192
0.0998201
0.103292
0.107305
0.112066
0.117614
0.123856
0.130547
0.136669
0.140734
0.0167777
0.036789
0.0486701
0.0572832
0.0641754
0.0701097
0.0754219
0.0802249
0.0845772
0.088522
0.0920962
0.0953737
0.098493
0.101647
0.104989
0.108617
0.112918
0.118195
0.124482
0.131671
0.139317
0.145844
0.149541
0.0167275
0.0376444
0.0506641
0.059961
0.0673269
0.0738066
0.0796964
0.0849746
0.0896411
0.0937345
0.0973076
0.100496
0.103565
0.106883
0.11065
0.114523
0.119042
0.12489
0.132201
0.140841
0.149958
0.157269
0.159269
0.0182201
0.0417686
0.0542607
0.0633545
0.0706925
0.0777357
0.0844095
0.0902776
0.0952706
0.099452
0.102875
0.10579
0.108666
0.111916
0.115244
0.118025
0.12128
0.125979
0.132599
0.140998
0.14995
0.156283
0.15801
0.0195481
0.0436986
0.0574096
0.0668072
0.0743557
0.0820139
0.0889328
0.0946132
0.0994735
0.103474
0.1065
0.108858
0.111275
0.113791
0.116092
0.11828
0.120904
0.124734
0.130139
0.136996
0.144298
0.149991
0.152517
0.0209072
0.046276
0.0594959
0.0687693
0.0765119
0.0839653
0.0905527
0.0957719
0.100072
0.103566
0.106299
0.108525
0.110668
0.112938
0.1152
0.117533
0.120248
0.123814
0.128512
0.134203
0.140076
0.144649
0.147276
0.0215222
0.0477126
0.060925
0.0700715
0.0773774
0.0840891
0.0899817
0.0948464
0.0988571
0.102136
0.104826
0.10716
0.109398
0.111676
0.114004
0.116461
0.119278
0.122737
0.126972
0.131805
0.136595
0.140341
0.142507
0.0224491
0.0485292
0.0614779
0.0703319
0.0772537
0.0833413
0.0887047
0.0932751
0.0971286
0.100367
0.103126
0.105608
0.10798
0.110342
0.112742
0.115276
0.118124
0.121462
0.125339
0.129569
0.133653
0.136883
0.13873
0.0231379
0.0487642
0.061267
0.069796
0.0764482
0.0821395
0.0871363
0.0914818
0.0952367
0.0984871
0.101341
0.103948
0.106433
0.10888
0.111345
0.11392
0.116739
0.119918
0.123473
0.127243
0.130859
0.133822
0.1356
0.0231203
0.0482787
0.0604129
0.0686833
0.0751433
0.0805986
0.0853639
0.0895519
0.0932368
0.0964983
0.0994262
0.102127
0.104696
0.107205
0.109712
0.112293
0.115044
0.118045
0.1213
0.124693
0.127964
0.130776
0.132636
0.0226157
0.0472545
0.0590787
0.0671519
0.0734724
0.0787804
0.0834009
0.0874828
0.0911167
0.0943811
0.0973537
0.100114
0.102737
0.105281
0.1078
0.110355
0.113014
0.115832
0.118814
0.121883
0.124869
0.127552
0.129503
0.0219363
0.0458845
0.0574187
0.0653212
0.0715253
0.0767278
0.0812507
0.0852592
0.0888552
0.0921169
0.0951131
0.0979075
0.100557
0.103114
0.105622
0.108127
0.110681
0.113321
0.116054
0.118835
0.12156
0.124091
0.126068
0.0212108
0.0443402
0.0555536
0.0632724
0.0693556
0.0744676
0.0789166
0.0828706
0.0864374
0.0896943
0.092703
0.0955161
0.0981789
0.100734
0.103216
0.105661
0.108106
0.110578
0.113087
0.115609
0.118083
0.120427
0.122349
0.0204294
0.0426763
0.0535413
0.0610585
0.0670075
0.0720216
0.0764024
0.0803141
0.0838588
0.0871121
0.0901298
0.0929556
0.095626
0.098174
0.100627
0.103012
0.105356
0.107678
0.109989
0.112278
0.114513
0.116645
0.118449
0.0195914
0.0409021
0.0513913
0.05869
0.0644951
0.0694092
0.0737212
0.0775929
0.0811229
0.0843772
0.0874051
0.0902434
0.0929231
0.0954674
0.0978969
0.100231
0.102488
0.104684
0.106827
0.108913
0.110929
0.112845
0.114492
0.0186865
0.0390123
0.0491029
0.0561712
0.0618273
0.0666421
0.0708899
0.0747252
0.0782425
0.0815015
0.0845443
0.087401
0.090094
0.0926413
0.0950571
0.0973544
0.0995456
0.101642
0.10365
0.10557
0.107396
0.109112
0.110592
0.0177026
0.0369991
0.0466761
0.0535096
0.0590175
0.0637374
0.0679276
0.0717332
0.0752425
0.0785104
0.0815719
0.0844504
0.0871626
0.0897209
0.0921343
0.0944108
0.0965581
0.098583
0.10049
0.102282
0.103955
0.105502
0.106826
0.0166292
0.0348618
0.0441201
0.0507223
0.0560887
0.0607219
0.0648629
0.0686465
0.0721537
0.0754337
0.0785165
0.0814201
0.0841562
0.0867321
0.0891532
0.0914235
0.0935469
0.0955268
0.0973662
0.0990657
0.100625
0.10204
0.103238
0.0154678
0.0326159
0.0414607
0.0478425
0.0530789
0.0576363
0.0617377
0.0655067
0.069017
0.0723121
0.0754174
0.0783469
0.0811084
0.0837058
0.0861414
0.0884163
0.0905315
0.0924881
0.0942869
0.0959276
0.0974101
0.0987326
0.0998392
0.0142432
0.0302979
0.0387456
0.0449236
0.0500448
0.0545387
0.0586097
0.0623706
0.0658872
0.0691981
0.0723246
0.0752779
0.0780629
0.0806814
0.0831335
0.0854186
0.0875356
0.0894839
0.0912627
0.0928708
0.0943075
0.0955713
0.0966211
0.0130425
0.0279665
0.0360468
0.0420429
0.0470653
0.0515074
0.0555557
0.0593124
0.0628358
0.0661597
0.0693025
0.0722733
0.0750757
0.0777101
0.0801754
0.08247
0.084592
0.0865396
0.0883109
0.089904
0.0913172
0.0925492
0.0935684
0.0119309
0.0257389
0.0334749
0.0393071
0.0442435
0.0486421
0.0526716
0.056425
0.0599514
0.0632812
0.0664304
0.0694078
0.0722163
0.0748559
0.0773254
0.0796227
0.0817459
0.0836925
0.0854604
0.0870468
0.0884495
0.0896664
0.0906725
0.0109101
0.0237308
0.0311615
0.0368516
0.0417147
0.0460747
0.0500835
0.053823
0.0573395
0.0606602
0.0638003
0.0667679
0.0695665
0.0721954
0.0746543
0.0769415
0.0790555
0.0809939
0.0827545
0.0843338
0.0857283
0.0869364
0.0879391
0.0100346
0.0220614
0.0292376
0.0348097
0.03961
0.0439327
0.0479146
0.0516293
0.0551198
0.0584116
0.0615202
0.0644543
0.0672185
0.0698144
0.0722422
0.0745011
0.0765897
0.078506
0.0802474
0.0818108
0.0831928
0.0843911
0.0853905
0.00936715
0.0208406
0.0278281
0.0333094
0.0380563
0.0423391
0.0462828
0.0499557
0.0533985
0.0566371
0.0596881
0.0625621
0.0652657
0.0678025
0.0701743
0.0723816
0.0744236
0.0762987
0.0780047
0.0795386
0.0808969
0.082077
0.0830659
0.00895777
0.0201498
0.0270314
0.0324559
0.0371598
0.0413979
0.0452886
0.0488981
0.0522676
0.0554249
0.0583893
0.0611742
0.0637887
0.0662389
0.0685285
0.0706593
0.0726315
0.0744442
0.0760956
0.0775827
0.0789022
0.0800508
0.081017
0.00883552
0.0200364
0.0269115
0.0323219
0.0369962
0.0411845
0.0450051
0.0485268
0.0517945
0.0548405
0.0576879
0.060354
0.062851
0.0651876
0.0673693
0.0693994
0.0712791
0.0730083
0.0745854
0.0760075
0.0772713
0.078373
0.0793022
0.0090077
0.0205188
0.027503
0.0329513
0.0376123
0.0417449
0.0454759
0.0488825
0.0520179
0.0549213
0.0576215
0.0601402
0.062493
0.0646913
0.0667422
0.0686505
0.0704181
0.0720451
0.0735303
0.0748709
0.0760633
0.0771033
0.0779811
0.00947217
0.02161
0.0288327
0.0343751
0.0390368
0.043102
0.0467175
0.049977
0.0529466
0.0556751
0.0581985
0.0605434
0.0627289
0.0647684
0.0666708
0.0684412
0.0700821
0.0715936
0.0729742
0.0742208
0.0753296
0.0762959
0.0771105
0.0102344
0.0233428
0.0309411
0.0366267
0.0412883
0.0452591
0.0487206
0.0517921
0.0545577
0.0570778
0.0593963
0.0615444
0.0635443
0.0654108
0.0671535
0.0687777
0.0702856
0.0716764
0.0729474
0.0740946
0.0751135
0.0759994
0.0767436
0.0113265
0.0257919
0.0338942
0.0397425
0.0443702
0.0481911
0.0514404
0.0542715
0.0567896
0.0590674
0.0611556
0.0630892
0.0648919
0.0665793
0.0681609
0.0696413
0.0710213
0.0722985
0.0734671
0.0745205
0.0754526
0.0762587
0.0769315
0.0128156
0.0290727
0.0377694
0.043739
0.0482428
0.0518192
0.0547749
0.0573027
0.0595276
0.0615321
0.0633709
0.0650803
0.066684
0.068197
0.0696283
0.0709815
0.072256
0.0734457
0.074539
0.0755213
0.0763832
0.0771204
0.0777289
0.0148125
0.0333325
0.0426313
0.0485721
0.0527815
0.0559735
0.0585359
0.0606948
0.0625871
0.0642974
0.0658791
0.0673664
0.0687814
0.0701379
0.0714445
0.0727055
0.0739204
0.0750793
0.0761577
0.0771218
0.0779517
0.0786446
0.079204
0.0174722
0.0387829
0.0485372
0.0541021
0.0577333
0.0603596
0.062426
0.0641645
0.0657036
0.0671176
0.0684518
0.0697346
0.070985
0.072216
0.0734383
0.0746618
0.0758935
0.0771245
0.0783084
0.0793625
0.0802355
0.0809286
0.0814593
0.0211512
0.0461321
0.055734
0.0601026
0.0626926
0.0645447
0.0660386
0.0673422
0.0685415
0.0696852
0.0708032
0.0719155
0.0730372
0.0741826
0.0753693
0.0766229
0.0779761
0.0794424
0.0809531
0.0823173
0.0833785
0.0841568
0.0846781
0.0285553
0.0590113
0.0652613
0.0662695
0.0670771
0.0679719
0.0688914
0.0698106
0.0707317
0.0716647
0.0726206
0.0736104
0.0746463
0.0757457
0.0769379
0.0782771
0.0798509
0.0817491
0.0839354
0.0860584
0.0875747
0.0886821
0.0892064
0.0799535
0.0874347
0.0778959
0.0716675
0.0700013
0.0699961
0.0705001
0.0711787
0.071938
0.0727533
0.0736212
0.0745465
0.0755399
0.0766219
0.0778331
0.0792568
0.0810479
0.0834286
0.0865543
0.0901766
0.0924495
0.0951108
0.0956103
0.0548561
0.0515343
0.0524061
0.0559622
0.0919441
0.0928164
0.0943968
0.0961803
0.109683
0.110757
0.111223
0.110919
0.122211
0.122667
0.122316
0.121226
0.132693
0.132688
0.131873
0.130405
0.141391
0.14103
0.139982
0.138367
0.14951
0.148531
0.146968
0.145124
0.157535
0.155953
0.154163
0.152179
0.15735
0.157592
0.158567
0.160085
0.1542
0.156169
0.158799
0.160234
0.149348
0.151146
0.153085
0.154416
0.144012
0.14518
0.146379
0.147323
0.139673
0.140325
0.14097
0.141543
0.136344
0.136777
0.137136
0.137431
0.133425
0.133842
0.134121
0.13429
0.130418
0.130902
0.131218
0.131388
0.127088
0.127647
0.128038
0.128276
0.123415
0.12402
0.124477
0.124795
0.1195
0.120114
0.120605
0.12098
0.115484
0.116073
0.116563
0.11696
0.111498
0.11204
0.112503
0.112889
0.107641
0.108128
0.108547
0.108901
0.10397
0.104404
0.104777
0.105092
0.100507
0.100897
0.101231
0.101508
0.0972458
0.0976054
0.0979101
0.0981588
0.0941698
0.094512
0.0947997
0.0950312
0.0912651
0.0916001
0.0918813
0.092106
0.0885304
0.0888645
0.0891455
0.0893705
0.0859819
0.086317
0.0866003
0.0868287
0.0836536
0.0839878
0.084272
0.0845031
0.0815933
0.0819221
0.0822032
0.0824335
0.0798572
0.0801745
0.0804468
0.0806711
0.0785049
0.0788046
0.079062
0.0792744
0.0775947
0.0778713
0.0781084
0.0783038
0.0771828
0.0774328
0.0776461
0.0778211
0.0773247
0.0775471
0.0777359
0.0778897
0.0780798
0.0782767
0.0784427
0.078577
0.0795196
0.0796947
0.0798409
0.0799587
0.081744
0.0818979
0.0820231
0.0821226
0.0849208
0.0850386
0.0851214
0.0851785
0.0893634
0.0893956
0.0893557
0.0892628
0.0956316
0.0955164
0.0951597
0.0942462
0.0728608
0.0811777
0.0819958
0.0794474
0.0798377
0.0829588
0.0835764
0.0817442
0.0802308
0.0790796
0.0768972
0.0741527
0.0712664
0.0681129
0.0643866
0.0598309
0.054303
0.0467331
0.0242403
0.0981998
0.0958365
0.0939885
0.0907528
0.0904687
0.0925545
0.0923738
0.0901582
0.0885864
0.0873287
0.0849885
0.0818847
0.078384
0.0744444
0.0697202
0.0639187
0.0569021
0.0471624
0.0232613
0.109362
0.105994
0.103371
0.100269
0.0995235
0.100543
0.0998709
0.0975918
0.0957446
0.0940061
0.0912799
0.0877103
0.0835725
0.0788386
0.0731416
0.0660733
0.0576035
0.0461045
0.0223715
0.118792
0.114964
0.111582
0.108332
0.106964
0.106975
0.106064
0.103946
0.101667
0.0991663
0.0958172
0.0916401
0.0868018
0.0812864
0.0748485
0.067201
0.0582058
0.0458309
0.0218604
0.127549
0.123055
0.118836
0.115214
0.113175
0.112262
0.110913
0.108689
0.105933
0.102611
0.0985487
0.093845
0.0886054
0.0827879
0.0762035
0.0685561
0.0593067
0.0461016
0.0215886
0.13531
0.130221
0.125305
0.121243
0.118524
0.116715
0.114741
0.112067
0.108764
0.104856
0.10036
0.0954181
0.0900963
0.0843004
0.0777986
0.0701858
0.0605485
0.0465234
0.0214357
0.141901
0.136366
0.131029
0.126659
0.123372
0.12079
0.118191
0.115036
0.111267
0.106978
0.102241
0.0971764
0.0918075
0.0859787
0.0793774
0.0714836
0.0612909
0.0465343
0.0211916
0.148791
0.142649
0.13684
0.132096
0.128278
0.12507
0.121933
0.118356
0.114215
0.10963
0.104672
0.0994203
0.093867
0.0877954
0.0808008
0.0722768
0.061214
0.0456203
0.0206213
0.159607
0.150648
0.143933
0.138841
0.134422
0.130487
0.126738
0.122745
0.118235
0.1133
0.107994
0.102351
0.0963758
0.089833
0.0822309
0.0728957
0.0608338
0.0442879
0.0201349
0.160206
0.157361
0.153186
0.148502
0.143098
0.137963
0.133483
0.12911
0.124051
0.118552
0.112715
0.106353
0.0995481
0.0922391
0.0838793
0.0736787
0.0607192
0.0434681
0.0202858
0.154966
0.155494
0.156511
0.155748
0.152805
0.148014
0.142964
0.138387
0.132327
0.125962
0.119586
0.112248
0.104177
0.0959905
0.0869926
0.0760669
0.0623159
0.0442096
0.0215263
0.148031
0.148671
0.150377
0.151903
0.152903
0.152137
0.150322
0.147647
0.142226
0.135438
0.129356
0.120971
0.110683
0.101492
0.0923259
0.0809465
0.0663516
0.0467867
0.0242491
0.142159
0.142515
0.143516
0.144599
0.145401
0.1456
0.145652
0.144807
0.141688
0.138558
0.134361
0.128618
0.117374
0.107069
0.0982867
0.0868274
0.0713907
0.050933
0.0278926
0.137688
0.137531
0.137646
0.137894
0.13811
0.138147
0.137791
0.136498
0.134167
0.132154
0.130304
0.125842
0.116418
0.107153
0.0991072
0.0889295
0.0750389
0.0568284
0.0306107
0.134302
0.133755
0.133229
0.132759
0.132285
0.131714
0.130793
0.129225
0.127193
0.125217
0.122851
0.118224
0.111304
0.103713
0.0962555
0.0867345
0.0741925
0.0582448
0.0320829
0.131353
0.130698
0.129892
0.129007
0.128048
0.12697
0.125634
0.1239
0.121835
0.119548
0.116681
0.112294
0.106686
0.100598
0.0934052
0.0842133
0.0727098
0.0581215
0.0313689
0.128339
0.127806
0.127028
0.12605
0.124911
0.123596
0.122038
0.120141
0.117885
0.115238
0.112038
0.108079
0.103534
0.0983217
0.0914191
0.0823336
0.0712425
0.0569628
0.0298146
0.125011
0.12472
0.124143
0.123289
0.122202
0.120871
0.119249
0.117254
0.11483
0.11198
0.108724
0.105092
0.101015
0.0960132
0.089204
0.080276
0.0693544
0.0550055
0.0279437
0.12133
0.121288
0.120955
0.120304
0.119368
0.11813
0.116542
0.114534
0.112068
0.109183
0.105974
0.102454
0.0984005
0.0932799
0.086421
0.0775904
0.0666865
0.0522156
0.0256426
0.11739
0.11753
0.117391
0.116921
0.116133
0.115003
0.113486
0.111525
0.1091
0.106259
0.103069
0.0994861
0.0952516
0.089891
0.0829246
0.0741133
0.0631876
0.0487004
0.0230224
0.113338
0.11357
0.113535
0.113171
0.112476
0.111418
0.109956
0.108049
0.105677
0.102873
0.0996527
0.0959311
0.0914645
0.0858836
0.0788276
0.0700449
0.059178
0.0448949
0.0204659
0.109326
0.109567
0.10955
0.10921
0.108538
0.107499
0.106054
0.104169
0.101822
0.0990217
0.095742
0.091881
0.087232
0.0815157
0.0744554
0.0658032
0.0551754
0.0413588
0.0183799
0.105469
0.105667
0.105608
0.105232
0.104527
0.103459
0.101993
0.100096
0.0977428
0.0949231
0.0915865
0.087632
0.0828943
0.0771649
0.070228
0.0618544
0.0516671
0.0385427
0.0169921
0.101835
0.101969
0.101841
0.101401
0.100635
0.0995148
0.0980071
0.0960792
0.0937107
0.0908728
0.0875097
0.0835318
0.0788113
0.0731932
0.0665075
0.0585486
0.0489544
0.0366395
0.0162711
0.0984454
0.0985236
0.098328
0.0978228
0.0969973
0.0958257
0.0942793
0.0923283
0.089954
0.0871218
0.0837792
0.0798521
0.0752436
0.069837
0.0634953
0.0560311
0.0470858
0.0355592
0.0160277
0.0952949
0.0953362
0.0950932
0.0945428
0.0936768
0.0924738
0.0909093
0.0889582
0.0866045
0.0838134
0.0805402
0.0767261
0.0722972
0.0671622
0.0612043
0.0542437
0.0459108
0.0350537
0.0160407
0.0923628
0.092391
0.0921271
0.0915589
0.0906803
0.0894738
0.0879182
0.0859984
0.0836951
0.0809793
0.0778143
0.074154
0.0699395
0.0650947
0.059512
0.0530099
0.0451973
0.0348601
0.0161534
0.0896325
0.0896676
0.0894072
0.0888469
0.0879824
0.0867994
0.0852811
0.0834171
0.0811891
0.0785732
0.0755398
0.072051
0.0680572
0.0634896
0.0582429
0.0521283
0.044732
0.0347838
0.0162615
0.0871013
0.0871556
0.0869158
0.0863821
0.0855512
0.0844106
0.0829498
0.0811584
0.0790206
0.0765167
0.0736218
0.0703035
0.066517
0.0621961
0.0572338
0.0514336
0.0443617
0.0347053
0.0163207
0.084786
0.0848632
0.0846518
0.0841541
0.0833667
0.0822793
0.0808845
0.0791719
0.0771278
0.0747354
0.0719729
0.0688109
0.0652066
0.0610944
0.0563649
0.0508143
0.0439947
0.0345652
0.0163055
0.082721
0.0828173
0.0826338
0.0821726
0.0814294
0.0803968
0.0790669
0.0774295
0.0754726
0.0731811
0.0705349
0.0675061
0.0640529
0.0601095
0.0555644
0.0502092
0.0435867
0.0343403
0.0162196
0.0809549
0.0810611
0.080899
0.0804685
0.0797644
0.0787799
0.0775061
0.0759332
0.0740495
0.0718408
0.0692878
0.0663633
0.0630259
0.05921
0.0548035
0.0495958
0.0431257
0.0340318
0.0160644
0.0795447
0.0796496
0.079499
0.0790898
0.0784161
0.0774691
0.0762392
0.074716
0.0728878
0.0707398
0.0682528
0.0653995
0.0621391
0.0584066
0.054091
0.0489831
0.0426226
0.0336527
0.0158557
0.0785523
0.0786452
0.0784967
0.0781003
0.0774473
0.0765274
0.0753297
0.0738425
0.0720526
0.0699438
0.0674954
0.064679
0.0614536
0.0577553
0.0534761
0.0484117
0.0421099
0.0332284
0.0156011
0.0780421
0.078116
0.0779635
0.0775742
0.0769367
0.0760386
0.0748671
0.0734084
0.0716467
0.0695627
0.067132
0.0643229
0.0610921
0.0573753
0.0530672
0.0479717
0.0416527
0.032798
0.015324
0.0780819
0.0781354
0.0779788
0.077598
0.0769785
0.076106
0.0749656
0.0735409
0.071812
0.0697547
0.0673386
0.064525
0.0612633
0.057483
0.0530755
0.0478491
0.0413902
0.0324406
0.0150463
0.0787434
0.0787822
0.0786302
0.0782694
0.0776821
0.0768522
0.0757633
0.0743965
0.072728
0.0707274
0.0683559
0.065564
0.0622876
0.0584388
0.053888
0.0484254
0.0416415
0.0323428
0.0148204
0.0801043
0.0801409
0.0800137
0.0796986
0.079172
0.0784168
0.0774178
0.0761555
0.0746038
0.0727271
0.0704788
0.0677979
0.0646026
0.0607762
0.0561425
0.0504245
0.0431378
0.0330335
0.0147727
0.0822467
0.0822973
0.0822325
0.0820085
0.0815869
0.080953
0.0800983
0.0790081
0.0776578
0.0760113
0.0740191
0.0716145
0.0687033
0.0651411
0.0606931
0.0549772
0.0473291
0.0359749
0.0153717
0.0852528
0.0853311
0.0854024
0.0853413
0.0850808
0.0846208
0.0839722
0.0831325
0.0820847
0.0807988
0.0792321
0.0773248
0.0749872
0.0720691
0.0683053
0.0632629
0.0562147
0.0442405
0.0183448
0.0892263
0.0893437
0.0897093
0.0898923
0.0898308
0.0895809
0.0891884
0.0886678
0.0880137
0.0872086
0.0862255
0.0850255
0.0835457
0.0816666
0.0791607
0.0757125
0.0711012
0.0615999
0.0305308
0.0946123
0.0947926
0.0956383
0.0959784
0.0960439
0.095984
0.0958602
0.0956905
0.0954766
0.0952143
0.0948964
0.094512
0.094041
0.0934381
0.0926077
0.0914963
0.0908517
0.0901951
0.0844548
)
;

boundaryField
{
    leftWall
    {
        type            kqRWallFunction;
        value           nonuniform List<scalar> 
50
(
0.00124776
0.00285549
0.00405654
0.00512169
0.00609794
0.00701392
0.00775742
0.00808202
0.00832055
0.00970489
0.0117708
0.0138453
0.0156598
0.0168035
0.0167777
0.0167275
0.0182201
0.0195481
0.0209072
0.0215222
0.0224491
0.0231379
0.0231203
0.0226157
0.0219363
0.0212108
0.0204294
0.0195914
0.0186865
0.0177026
0.0166292
0.0154678
0.0142432
0.0130425
0.0119309
0.0109101
0.0100346
0.00936715
0.00895777
0.00883552
0.0090077
0.00947217
0.0102344
0.0113265
0.0128156
0.0148125
0.0174722
0.0211512
0.0285553
0.0799535
)
;
    }
    rightWall
    {
        type            kqRWallFunction;
        value           nonuniform List<scalar> 
50
(
0.00226343
0.00663698
0.0106687
0.0151353
0.0186073
0.020757
0.0221838
0.0232444
0.0242403
0.0232613
0.0223715
0.0218604
0.0215886
0.0214357
0.0211916
0.0206213
0.0201349
0.0202858
0.0215263
0.0242491
0.0278926
0.0306107
0.0320829
0.0313689
0.0298146
0.0279437
0.0256426
0.0230224
0.0204659
0.0183799
0.0169921
0.0162711
0.0160277
0.0160407
0.0161534
0.0162615
0.0163207
0.0163055
0.0162196
0.0160644
0.0158557
0.0156011
0.015324
0.0150463
0.0148204
0.0147727
0.0153717
0.0183448
0.0305308
0.0844548
)
;
    }
    lowerWall
    {
        type            kqRWallFunction;
        value           nonuniform List<scalar> 
62
(
0.00124776
0.0032912
0.00497605
0.00642802
0.00767958
0.00876046
0.00970514
0.0105501
0.0113268
0.0120627
0.0127915
0.0135624
0.0143255
0.01504
0.0156854
0.0162264
0.0165678
0.0165628
0.0160321
0.014718
0.0122251
0.00805445
0.00264265
0.00264265
0.00703233
0.0105605
0.0142372
0.0184336
0.0238614
0.0320724
0.0467014
0.0548561
0.0515343
0.0524061
0.0559622
0.0036017
0.00915291
0.014119
0.0197709
0.0259018
0.033094
0.0423605
0.0547572
0.0036017
0.00707844
0.00902599
0.0100685
0.0112432
0.0126905
0.0134733
0.0145473
0.0152518
0.0154487
0.0150532
0.0140351
0.0131255
0.012428
0.0119498
0.0115236
0.0106188
0.00821732
0.00226343
)
;
    }
    atmosphere
    {
        type            inletOutlet;
        inletValue      uniform 0.1;
        value           nonuniform List<scalar> 
46
(
0.1
0.1
0.0778959
0.0716675
0.0700013
0.0699961
0.0705001
0.0711787
0.071938
0.0727533
0.0736212
0.0745465
0.0755399
0.0766219
0.0778331
0.0792568
0.0810479
0.0834286
0.0865543
0.0901766
0.0924495
0.1
0.1
0.1
0.1
0.1
0.0942462
0.1
0.1
0.1
0.1
0.1
0.1
0.1
0.1
0.1
0.1
0.1
0.1
0.1
0.1
0.1
0.1
0.1
0.1
0.1
)
;
    }
    defaultFaces
    {
        type            empty;
    }
}


// ************************************************************************* //
