/*--------------------------------*- C++ -*----------------------------------*\
  =========                 |
  \\      /  F ield         | OpenFOAM: The Open Source CFD Toolbox
   \\    /   O peration     | Website:  https://openfoam.org
    \\  /    A nd           | Version:  13
     \\/     M anipulation  |
\*---------------------------------------------------------------------------*/
FoamFile
{
    format      ascii;
    class       volScalarField;
    location    "1.85";
    object      nut;
}
// * * * * * * * * * * * * * * * * * * * * * * * * * * * * * * * * * * * * * //

dimensions      [0 2 -1 0 0 0 0];

internalField   nonuniform List<scalar> 
2268
(
2.38844e-05
3.88215e-05
4.76271e-05
5.40457e-05
5.9022e-05
6.30325e-05
6.63835e-05
6.92877e-05
7.18928e-05
7.43176e-05
7.67209e-05
7.9199e-05
8.14523e-05
8.34463e-05
8.51693e-05
8.6539e-05
8.73242e-05
8.71852e-05
8.56719e-05
8.20165e-05
7.47274e-05
6.0606e-05
3.38369e-05
7.69762e-05
0.00027895
0.000374133
0.000444874
0.000503121
0.000553753
0.000599579
0.000642282
0.00068298
0.000722775
0.000762682
0.000799529
0.000832221
0.000860796
0.000885328
0.000904907
0.000916719
0.000916138
0.000895962
0.000843188
0.000733524
0.000520892
0.000118418
9.21396e-05
0.000502879
0.000711378
0.000864797
0.000991745
0.00110248
0.00120296
0.00129681
0.00138649
0.00147418
0.00156154
0.00164434
0.00171985
0.00178603
0.0018415
0.00188299
0.00190278
0.00188821
0.00181938
0.00166245
0.00136354
0.000855837
0.000145127
0.000103755
0.000677183
0.000994944
0.00122773
0.00142071
0.00158909
0.00174138
0.00188281
0.00201698
0.00214695
0.00227477
0.00239626
0.00250766
0.00260503
0.00268492
0.00274089
0.00276005
0.0027216
0.00259293
0.00232198
0.00183657
0.00108015
0.00016804
0.000113182
0.000810695
0.00122864
0.00153511
0.00178955
0.00201153
0.00221148
0.00239578
0.00256896
0.00273484
0.00289567
0.00304783
0.00318701
0.00330807
0.0034056
0.00347035
0.0034852
0.00342278
0.00324026
0.00287104
0.00222798
0.00126209
0.000190539
0.000121128
0.000910812
0.00141847
0.00179293
0.00210427
0.0023757
0.00261915
0.00284194
0.00304937
0.00324603
0.00343408
0.00361104
0.00377222
0.00391173
0.00402279
0.00409413
0.00410587
0.00402628
0.00380529
0.00336465
0.00259797
0.00144013
0.00021613
0.000127286
0.000981312
0.00156792
0.00200562
0.00236994
0.00268706
0.00297031
0.00322786
0.00346572
0.00368915
0.00390088
0.00409899
0.00427868
0.00443375
0.00455662
0.00463503
0.00464791
0.0045614
0.00432168
0.00384275
0.00299529
0.0016582
0.000250157
0.000130428
0.00102001
0.00167794
0.0021761
0.00259054
0.0029502
0.00327017
0.00355947
0.0038249
0.00407239
0.00430582
0.00452312
0.00471952
0.00488879
0.00502327
0.0051107
0.00513015
0.00504782
0.0048098
0.00432962
0.00346529
0.00200278
0.000302377
3.97108e-05
5.54663e-05
6.27357e-05
6.62897e-05
7.0404e-05
7.55883e-05
7.80065e-05
8.10072e-05
8.29318e-05
8.38354e-05
8.3318e-05
8.03955e-05
7.72725e-05
7.43854e-05
7.22317e-05
7.05789e-05
6.79772e-05
6.04457e-05
3.24914e-05
0.000149077
0.000348554
0.000455031
0.000524725
0.000608226
0.000701219
0.000767409
0.000797391
0.00080457
0.000807266
0.00079979
0.000761212
0.000702462
0.000629382
0.000583794
0.00056434
0.000556296
0.000494061
0.000129371
0.000182961
0.000508019
0.000725541
0.000881118
0.00108391
0.00131406
0.00148653
0.00157071
0.0015923
0.00159349
0.00156773
0.00148865
0.00137469
0.00124652
0.00115739
0.00110083
0.00104169
0.000848442
0.000162706
0.000214235
0.000627728
0.000972898
0.00118859
0.00148282
0.00183206
0.0021043
0.00223761
0.00226871
0.00226518
0.00222277
0.00211936
0.00197223
0.00181193
0.00168893
0.00158355
0.00144577
0.00109945
0.000192491
0.000243837
0.000753929
0.00126466
0.00155068
0.00189104
0.00231932
0.00266215
0.00282825
0.00285999
0.00284994
0.00279377
0.00267517
0.00250854
0.00232691
0.00217204
0.00201163
0.00178605
0.00129142
0.000213767
0.000275519
0.0008896
0.00160323
0.00198278
0.00234078
0.00280618
0.00318272
0.00336511
0.00339344
0.00337635
0.00330702
0.00317597
0.00299552
0.0027948
0.00260563
0.00238828
0.00207439
0.00144699
0.000226134
0.000313295
0.00105055
0.00198779
0.00246668
0.00282567
0.00329462
0.00367574
0.00385849
0.00388238
0.00385698
0.00377598
0.00363269
0.00343816
0.00321666
0.00299086
0.002716
0.00231408
0.00157081
0.000233832
0.000359244
0.0013266
0.00244175
0.00298649
0.00333279
0.0037794
0.00414653
0.0043183
0.00433433
0.00429979
0.00420618
0.00404963
0.00383896
0.00359378
0.00332804
0.00299392
0.00250704
0.00166213
0.000239274
0.0001299
0.00103417
0.00179755
0.00238455
0.00287133
0.00329164
0.00366358
0.00399811
0.00430336
0.0045852
0.00484786
0.00509057
0.00530911
0.00549786
0.00564988
0.00575385
0.00579079
0.00572936
0.00552038
0.00509096
0.00433855
0.00316435
0.00164826
0.000138211
0.00108194
0.00192257
0.00258637
0.00313946
0.00361785
0.00404226
0.00442558
0.00477612
0.00509919
0.00539644
0.00566825
0.00591276
0.00612654
0.00630462
0.00643884
0.00651458
0.00650784
0.00638229
0.00608751
0.00556344
0.0047658
0.0037289
0.000151048
0.00117571
0.00206518
0.00277694
0.00337557
0.00389691
0.00436178
0.00478309
0.00516865
0.00552313
0.00584713
0.00614209
0.00640816
0.00664431
0.00684821
0.00701517
0.0071356
0.00719262
0.00716088
0.0070073
0.00669815
0.00621992
0.00561959
0.000163311
0.00124565
0.00218791
0.00294126
0.00357828
0.0041368
0.00463779
0.0050934
0.00551004
0.00589097
0.00623718
0.00655144
0.00683583
0.00709174
0.00731965
0.00751843
0.00768313
0.0078025
0.00785832
0.00782671
0.00768571
0.00742881
0.00710563
0.000173384
0.00129232
0.00226698
0.00305833
0.00373472
0.00433296
0.00487281
0.00536441
0.00581246
0.00621831
0.00658521
0.00691692
0.00721748
0.00749073
0.00773967
0.00796642
0.00817013
0.00834325
0.00847077
0.00853231
0.00850339
0.00838158
0.00820208
0.000179701
0.00130541
0.00229114
0.00312199
0.00384409
0.0044891
0.00507347
0.00560438
0.00608465
0.00651675
0.00690419
0.00725212
0.00756679
0.00785433
0.00811974
0.00836771
0.00860156
0.00881662
0.00899655
0.00911758
0.00915928
0.00911819
0.00901384
0.000179784
0.00121515
0.00225852
0.00314864
0.00392459
0.00462202
0.0052549
0.0058272
0.00634092
0.00679855
0.00720456
0.00756622
0.00789231
0.00819114
0.00846883
0.00873081
0.00898509
0.0092279
0.00944134
0.00960199
0.00968869
0.00969341
0.00962243
0.000180159
0.00120207
0.00227217
0.00319473
0.00401024
0.00475641
0.00543786
0.00605113
0.00659593
0.00707499
0.00749465
0.0078653
0.00819889
0.0085059
0.00879277
0.00906093
0.00932292
0.00958106
0.00981797
0.0100079
0.0101289
0.01016
0.0100767
0.000188907
0.00135666
0.00240185
0.00331554
0.00414347
0.00492716
0.00565096
0.00629858
0.00686748
0.00736051
0.0077855
0.00815669
0.00848873
0.00879079
0.00906361
0.00930959
0.00954829
0.00978516
0.0100077
0.0101943
0.0103194
0.0103486
0.0102906
0.000196035
0.00140042
0.00256801
0.00353053
0.00437118
0.00516521
0.00590313
0.00656307
0.00714111
0.00763656
0.0080562
0.00841649
0.00873448
0.00901506
0.00926151
0.00948553
0.00970063
0.00991044
0.0101057
0.0102684
0.0103772
0.0104165
0.0104026
0.000204218
0.00159382
0.00280273
0.00378204
0.00463272
0.00541216
0.00613014
0.00677564
0.00734378
0.00783183
0.00824599
0.00859957
0.00890587
0.00917335
0.0094085
0.00962273
0.00982511
0.0100189
0.0101976
0.0103461
0.0104453
0.0104844
0.0104877
0.000207652
0.00168821
0.0029779
0.00399759
0.00485094
0.00561185
0.00630506
0.00693022
0.0074834
0.00796337
0.00837452
0.00872624
0.00902874
0.00929058
0.0095209
0.00972951
0.00992417
0.0101076
0.0102749
0.0104134
0.0105074
0.0105488
0.0105518
0.000212115
0.00174985
0.00310258
0.00415098
0.00501079
0.00575982
0.00643267
0.00703825
0.00757705
0.00804935
0.00845797
0.00880952
0.00911188
0.00937311
0.00960239
0.00980866
0.00999876
0.0101751
0.0103342
0.0104662
0.0105588
0.0106042
0.0106081
0.000215133
0.00178449
0.00318088
0.00425185
0.00511904
0.00586134
0.00651899
0.00710796
0.00763342
0.00809757
0.00850296
0.00885438
0.00915818
0.00942145
0.00965235
0.00985875
0.0100466
0.0102183
0.0103715
0.0104993
0.0105924
0.0106438
0.0106529
0.000215042
0.00179854
0.00322158
0.00430923
0.00518268
0.00592106
0.00656763
0.00714316
0.00765668
0.00811253
0.00851387
0.0088647
0.00917028
0.00943657
0.00967045
0.00987853
0.0100659
0.0102349
0.0103845
0.0105097
0.0106042
0.0106622
0.0106793
0.000212744
0.00179598
0.00323106
0.00432907
0.00520694
0.0059427
0.00658111
0.00714596
0.0076493
0.00809743
0.00849444
0.00884425
0.00915135
0.00942075
0.00965805
0.00986867
0.0100569
0.0102249
0.0103725
0.0104967
0.0105932
0.0106572
0.0106827
0.000209543
0.00177804
0.00321363
0.00431594
0.00519585
0.00592932
0.00656149
0.00711803
0.00761309
0.00805464
0.00844771
0.0087964
0.00910474
0.00937701
0.00961776
0.00983134
0.0100213
0.0101897
0.0103368
0.0104609
0.0105594
0.0106286
0.0106616
0.000206125
0.00174852
0.00317367
0.00427392
0.00515301
0.00588381
0.006511
0.00706115
0.00754983
0.00798624
0.00837621
0.00872409
0.00903366
0.00930866
0.00955279
0.00976955
0.00996182
0.0101315
0.0102791
0.010404
0.0105045
0.0105778
0.010617
0.000202356
0.00171089
0.00311597
0.00420759
0.00508228
0.00580939
0.00643222
0.00697753
0.00746157
0.00789439
0.00828238
0.00863009
0.00894118
0.00921897
0.00946652
0.00968665
0.00988171
0.0100534
0.0102023
0.0103284
0.0104307
0.0105072
0.0105514
0.000198213
0.00166699
0.00304401
0.00412107
0.00498785
0.00570977
0.00632842
0.00686996
0.00735091
0.00778164
0.00816887
0.00851725
0.0088304
0.00911125
0.00936239
0.00958613
0.0097844
0.00995859
0.0101095
0.0102372
0.0103413
0.0104203
0.0104685
0.000193642
0.00161803
0.00296049
0.00401796
0.0048737
0.00558905
0.00620345
0.00674209
0.00722117
0.00765113
0.0080388
0.00838883
0.00870467
0.00898899
0.00924402
0.00947166
0.0096735
0.00985073
0.0100041
0.0101338
0.0102398
0.0103209
0.0103725
0.000188564
0.00156496
0.0028677
0.00390157
0.00474383
0.00545158
0.00606177
0.00659825
0.00707659
0.00750697
0.00789615
0.00824868
0.00856784
0.00885606
0.0091153
0.00934716
0.00955293
0.00973361
0.00988987
0.010022
0.0101302
0.0102134
0.0102681
0.000182892
0.00150855
0.00276779
0.00377524
0.00460247
0.00530217
0.00590847
0.00644361
0.00692224
0.00735411
0.00774572
0.00810147
0.00842445
0.00871693
0.00898064
0.00921693
0.0094269
0.00961139
0.00977097
0.00990597
0.0100166
0.0101021
0.0101598
0.000176574
0.00144945
0.00266282
0.00364256
0.00445443
0.0051464
0.00574957
0.00628435
0.00676431
0.00719858
0.00759333
0.00795279
0.00827991
0.0085768
0.00884502
0.00908579
0.00930006
0.00948853
0.00965171
0.0097899
0.00990331
0.00999154
0.0100523
0.00016964
0.0013876
0.00255495
0.00350786
0.00430553
0.00499101
0.00559231
0.00612788
0.00661015
0.00704756
0.00744592
0.00780929
0.0081405
0.0084416
0.00871408
0.00895908
0.00917744
0.00936981
0.00953663
0.00967818
0.00979468
0.00988586
0.00995001
0.000162403
0.00132126
0.00244695
0.00337686
0.00416316
0.0048443
0.00544535
0.00598298
0.00646839
0.00690937
0.00731141
0.00767844
0.00801327
0.00831796
0.008594
0.00884253
0.00906438
0.00926018
0.00943033
0.00957513
0.00969475
0.00978902
0.00985663
0.000155516
0.00125678
0.00234665
0.00325837
0.0040368
0.00471612
0.00531869
0.00585959
0.00634864
0.00679316
0.0071984
0.00756829
0.00790572
0.00821283
0.0084912
0.00874207
0.00896631
0.00916458
0.00933733
0.00948482
0.00960722
0.00970441
0.00977536
0.000148907
0.00120307
0.00226601
0.00316551
0.00393997
0.00461981
0.00522498
0.00576894
0.00626105
0.00670815
0.00711537
0.00748669
0.00782512
0.00813287
0.00841179
0.00866324
0.00888825
0.00908756
0.00926166
0.00941082
0.00953517
0.00963469
0.00970861
0.000142952
0.00116595
0.00221414
0.00310894
0.00388388
0.00456651
0.00517499
0.00572176
0.00621572
0.00666358
0.00707058
0.00744084
0.00777766
0.00808358
0.00836067
0.00861046
0.00883414
0.00903256
0.00920627
0.00935561
0.00948076
0.00958171
0.00965783
0.000138184
0.00114921
0.00219764
0.00309662
0.00387682
0.00456425
0.00517621
0.00572471
0.0062186
0.00666477
0.00706875
0.00743503
0.00776728
0.00806843
0.00834083
0.00858627
0.00880613
0.00900138
0.0091727
0.00932047
0.0094449
0.009546
0.00962323
0.000135114
0.00115385
0.00221873
0.00313134
0.00392157
0.00461551
0.00523065
0.0057793
0.00627074
0.00671234
0.00711019
0.00746929
0.00779381
0.0080871
0.00835186
0.00859019
0.00880364
0.00899338
0.00916016
0.00930445
0.00942649
0.00952627
0.00960333
0.000134105
0.00117822
0.00227419
0.00320911
0.00401373
0.00471568
0.00533358
0.00588071
0.00636723
0.00680137
0.00718998
0.00753878
0.0078525
0.00813501
0.00838939
0.00861802
0.0088227
0.00900473
0.00916497
0.00930396
0.00942196
0.00951897
0.00959458
0.000135276
0.00121822
0.00235609
0.00332007
0.00414282
0.00485419
0.00547457
0.00601867
0.00649799
0.00692196
0.00729847
0.00763412
0.00793434
0.00820354
0.00844519
0.00866198
0.00885591
0.00902842
0.00918047
0.00931264
0.00942521
0.00951821
0.00959125
0.000138565
0.00126949
0.00245519
0.00345262
0.00429633
0.00501831
0.00564082
0.00618039
0.00665026
0.00706146
0.00742321
0.00774315
0.00802752
0.0082813
0.00850836
0.00871167
0.0088934
0.0090551
0.00919777
0.00932202
0.00942814
0.00951617
0.00958579
0.000143852
0.00132902
0.00256493
0.00359827
0.00446474
0.00519771
0.00582126
0.00635413
0.00681181
0.00720733
0.00755154
0.0078533
0.00811971
0.00835629
0.0085673
0.00875594
0.00892452
0.00907461
0.00920721
0.00932288
0.0094219
0.00950431
0.00956992
0.000151111
0.00139619
0.00268342
0.00375412
0.00464392
0.00538676
0.00600872
0.00653138
0.00697312
0.00734942
0.00767301
0.00795405
0.00820044
0.00841826
0.00861204
0.00878517
0.00894003
0.00907815
0.00920042
0.00930725
0.00939881
0.00947516
0.00953623
0.000160421
0.00147105
0.00281168
0.00392124
0.00483361
0.00558323
0.00619909
0.00670657
0.00712767
0.00748074
0.00778047
0.00803829
0.00826284
0.00846054
0.00863618
0.00879327
0.00893419
0.00906036
0.0091724
0.00927048
0.00935449
0.0094244
0.00948026
0.000171955
0.00155292
0.00295191
0.00410172
0.00503374
0.00578473
0.00638831
0.00687485
0.00727052
0.00759667
0.0078699
0.00810269
0.00830417
0.008481
0.00863807
0.00877903
0.00890624
0.00902084
0.00912305
0.00921288
0.00928956
0.00935268
0.00940235
0.000185965
0.00164492
0.00311397
0.00430032
0.00524255
0.00598562
0.00656952
0.00702979
0.00739656
0.00769379
0.00793957
0.00814707
0.00832564
0.00848193
0.00862094
0.00874644
0.00886073
0.00896436
0.00905717
0.00913987
0.00921004
0.00926632
0.00930865
0.00020393
0.00178979
0.0033502
0.00453661
0.00545818
0.00617584
0.00673163
0.00716232
0.00749972
0.00776913
0.00798934
0.00817375
0.0083316
0.00846943
0.00859226
0.00870402
0.00880668
0.00889957
0.0089823
0.00905976
0.00912517
0.0091758
0.00921006
0.000244071
0.00223051
0.00384771
0.00486081
0.00567741
0.00633936
0.00685926
0.00726125
0.00757343
0.00782027
0.00802034
0.00818681
0.00832867
0.00845221
0.00856247
0.00866339
0.00875589
0.00883651
0.00890479
0.00897844
0.0090413
0.00909114
0.00911816
0.000447949
0.00380514
0.00490418
0.00528229
0.00586385
0.00644632
0.00693292
0.00731503
0.00761194
0.00784586
0.00803467
0.00819123
0.00832426
0.00843986
0.00854304
0.00863742
0.00872203
0.00878848
0.00883394
0.00889572
0.00895658
0.00902105
0.00904122
0.000329714
0.000318983
0.000322376
0.000333151
0.00285495
0.00268526
0.00264504
0.00271606
0.00520078
0.00503985
0.00496322
0.00496666
0.00687493
0.00676103
0.00668146
0.00663817
0.00805406
0.00796907
0.00789673
0.00784011
0.00890567
0.00883721
0.0087729
0.00871496
0.00952955
0.00946681
0.00940738
0.0093542
0.00998065
0.00992533
0.00988057
0.00984207
0.0102468
0.0102358
0.01024
0.0102506
0.0104112
0.0104295
0.0104534
0.0104576
0.0105026
0.0105149
0.010524
0.0105226
0.0105542
0.0105548
0.0105513
0.0105418
0.0105997
0.0105917
0.0105802
0.0105648
0.0106417
0.0106309
0.0106158
0.0105965
0.0106708
0.0106609
0.0106457
0.010625
0.0106793
0.0106722
0.010659
0.0106393
0.0106637
0.0106599
0.0106497
0.0106326
0.0106241
0.0106236
0.0106166
0.0106025
0.0105628
0.0105651
0.010561
0.0105499
0.0104834
0.010488
0.0104864
0.0104779
0.0103904
0.0103969
0.0103973
0.010391
0.0102885
0.0102966
0.0102986
0.0102941
0.0101827
0.0101922
0.0101957
0.0101928
0.0100776
0.0100885
0.0100935
0.0100921
0.00997785
0.00999024
0.00999663
0.00999677
0.00988711
0.00990108
0.00990906
0.00991085
0.00980848
0.00982411
0.00983376
0.00983728
0.00974421
0.00976143
0.00977273
0.00977799
0.0096955
0.00971412
0.00972691
0.0097338
0.00966231
0.00968199
0.009696
0.00970428
0.00964304
0.00966334
0.00967821
0.00968758
0.00963416
0.00965465
0.00966999
0.00968013
0.00963001
0.00965031
0.00966582
0.00967648
0.00962324
0.00964309
0.00965854
0.00966955
0.00960568
0.00962486
0.0096401
0.00965132
0.00956992
0.0095882
0.009603
0.00961426
0.00951126
0.00952824
0.00954219
0.00955309
0.00942967
0.00944463
0.00945702
0.00946685
0.00933092
0.0093429
0.00935273
0.00936052
0.00922597
0.00923407
0.00924048
0.0092455
0.00912732
0.00913134
0.00913459
0.00913811
0.00904431
0.00904467
0.0090455
0.00905442
0.00111972
0.00224033
0.00327916
0.00382226
0.00415139
0.00453018
0.00483524
0.00497525
0.00498549
0.00493486
0.00481685
0.00463511
0.00439854
0.00411469
0.0037806
0.00335167
0.00273909
0.00175606
0.000244444
0.00321012
0.00388288
0.00457054
0.00496462
0.00520611
0.00547512
0.00567885
0.00575558
0.00573292
0.00564463
0.00548464
0.00525644
0.00496448
0.00460896
0.00417351
0.00361422
0.00285379
0.00174462
0.000238556
0.00509933
0.00543099
0.00580246
0.00602981
0.00617492
0.00632521
0.00642272
0.00642476
0.00634773
0.00620461
0.00598849
0.00569995
0.00534008
0.00490291
0.00436535
0.00368047
0.00279296
0.00161886
0.000232605
0.0066239
0.00673363
0.00687595
0.0069562
0.00700303
0.00704606
0.00704761
0.00697502
0.00683205
0.00662306
0.00634104
0.00598304
0.00554658
0.00502362
0.00439293
0.00361953
0.0026724
0.00150536
0.000228822
0.00777453
0.00775494
0.00775386
0.00772565
0.00768246
0.00763283
0.00754847
0.00740398
0.00719378
0.00691583
0.00656471
0.00613707
0.00562927
0.00503387
0.00433629
0.0035171
0.0025546
0.00141841
0.000226442
0.00863139
0.0085423
0.00845472
0.00835039
0.008233
0.0081048
0.00794525
0.00773288
0.00745824
0.00711587
0.00670074
0.00621017
0.0056416
0.00499054
0.00424928
0.00340817
0.00245399
0.00135596
0.000224877
0.00927172
0.00914939
0.00901311
0.00885747
0.00868332
0.00849148
0.00826872
0.00799658
0.00766396
0.00726474
0.00679401
0.0062497
0.00563108
0.00493662
0.00416301
0.00330525
0.00235502
0.00129665
0.00022301
0.00977329
0.00962851
0.00946487
0.00927688
0.00906231
0.0088224
0.00854917
0.00822759
0.0078466
0.0074006
0.00688477
0.00629703
0.00563756
0.00490647
0.00410225
0.00322201
0.00226244
0.00122542
0.000219547
0.010219
0.0100204
0.00984294
0.00963909
0.00939837
0.00912421
0.00881293
0.00845421
0.00803708
0.00755662
0.00700781
0.00638748
0.00569522
0.00493179
0.00409621
0.00318668
0.00220531
0.00116864
0.00021749
0.0104292
0.0103234
0.0101796
0.00997443
0.0097156
0.00941705
0.00908092
0.00870012
0.00825986
0.00775814
0.00719058
0.00654969
0.00583228
0.00504107
0.00417574
0.00323195
0.00221527
0.00115131
0.000219903
0.0104991
0.0104528
0.0103806
0.0102272
0.0100047
0.00971466
0.00937087
0.00898563
0.00853124
0.00801979
0.00745
0.00680304
0.00606912
0.0052585
0.00437078
0.00338799
0.00230817
0.00116801
0.000229103
0.0105145
0.0104666
0.010407
0.0102996
0.0101477
0.00991851
0.00962203
0.00927065
0.00884194
0.00834026
0.00779314
0.00715283
0.00640325
0.00558186
0.00468952
0.0036731
0.00249961
0.00121743
0.000246088
0.0105315
0.0104723
0.0103995
0.0102933
0.0101535
0.00996328
0.00972117
0.00941341
0.00903115
0.00859469
0.00809341
0.00751243
0.00678891
0.00597294
0.00510125
0.00407449
0.00281164
0.00135763
0.000263175
0.0105554
0.0104806
0.0103907
0.0102754
0.0101342
0.00995731
0.00973443
0.00945225
0.00910949
0.00871829
0.00827518
0.00774478
0.00709938
0.00636568
0.00554491
0.0045703
0.00334091
0.00182925
0.000274487
0.0105796
0.0104934
0.0103903
0.0102648
0.0101159
0.00993799
0.00972264
0.00946125
0.00914861
0.0087863
0.00836664
0.00786952
0.00729178
0.00662601
0.00585221
0.00490237
0.00367442
0.00203829
0.000279308
0.0105937
0.0105029
0.0103927
0.0102599
0.0101039
0.00992194
0.00970864
0.0094581
0.00916198
0.00881499
0.0084107
0.0079389
0.00739907
0.00678114
0.00603702
0.00509879
0.00385945
0.00215074
0.000275758
0.01059
0.0105004
0.0103887
0.0102528
0.0100929
0.00990738
0.00969287
0.009444
0.00915244
0.00880999
0.00841251
0.00795804
0.00744411
0.00685087
0.00612373
0.00519345
0.00395297
0.00221165
0.000270053
0.0105647
0.0104798
0.0103706
0.0102352
0.010074
0.00988606
0.00966854
0.00941633
0.00912197
0.00877846
0.00838353
0.00793705
0.00743278
0.00684569
0.00612521
0.00520524
0.00397852
0.00223793
0.000262782
0.0105174
0.0104386
0.0103338
0.0102008
0.0100398
0.00985021
0.00962908
0.00937174
0.009072
0.00872476
0.00832852
0.00788173
0.00737505
0.00678288
0.00606054
0.00514792
0.00394112
0.0022279
0.000253051
0.0104503
0.0103777
0.0102776
0.0101474
0.00998724
0.00979612
0.00957138
0.00930881
0.00900338
0.00865117
0.00825021
0.00779702
0.0072805
0.00667628
0.00594586
0.00503521
0.00384798
0.00218059
0.000241149
0.0103675
0.0103004
0.0102045
0.0100769
0.00991739
0.00972484
0.00949675
0.00922941
0.00891865
0.00856091
0.00815327
0.00769048
0.00716059
0.00654127
0.00579889
0.00488512
0.00371373
0.00210139
0.000228609
0.0102742
0.0102119
0.0101194
0.00999402
0.00983501
0.00964125
0.00941036
0.00913907
0.00882372
0.00846063
0.00804587
0.00757285
0.00702929
0.00639471
0.00563923
0.00471951
0.00355968
0.00200235
0.000217403
0.0101759
0.0101178
0.0100285
0.00990504
0.00974679
0.00955244
0.00931974
0.00904575
0.00872706
0.00835965
0.00793873
0.00745682
0.00690159
0.00625406
0.00548715
0.00456163
0.00341062
0.00190206
0.000209106
0.0100781
0.0100241
0.00993772
0.00981661
0.00965978
0.00946592
0.00923288
0.00895793
0.00863767
0.00826776
0.00784278
0.0073547
0.00679132
0.00613486
0.00536039
0.00443184
0.00328907
0.00181992
0.000204157
0.00998572
0.0099358
0.00985285
0.00973469
0.00958032
0.00938836
0.00915676
0.00888285
0.00856312
0.00819302
0.00776673
0.0072759
0.00670859
0.00604794
0.00527062
0.00434264
0.00320779
0.00176615
0.000201945
0.00990285
0.00985735
0.00977837
0.00966401
0.00951327
0.00932474
0.00909636
0.00882552
0.00850843
0.00814052
0.00771568
0.00722546
0.00665813
0.00599754
0.00522123
0.004296
0.00316677
0.00173909
0.000201382
0.00983246
0.00979173
0.00971733
0.00960765
0.00946167
0.00927793
0.00905438
0.00878821
0.00847559
0.00811184
0.00769069
0.00720365
0.00663913
0.00598127
0.00520775
0.00428497
0.0031568
0.00173043
0.00020156
0.00977637
0.00974062
0.00967131
0.00956703
0.00942671
0.0092488
0.00903119
0.00877081
0.00846386
0.00810552
0.00768938
0.00720688
0.00664641
0.00599199
0.00522087
0.00429817
0.00316586
0.00173176
0.000201839
0.00973522
0.00970444
0.00964048
0.00954205
0.00940794
0.0092365
0.00902538
0.00877136
0.00847057
0.00811803
0.00770718
0.00722928
0.00667253
0.00602061
0.00524992
0.00432411
0.00318339
0.00173671
0.00020192
0.00970841
0.00968234
0.00962375
0.00953131
0.00940365
0.00923891
0.00903441
0.00878682
0.0084921
0.00814503
0.00773883
0.00726453
0.00671004
0.00605855
0.00528564
0.00435372
0.00320197
0.00174157
0.000201624
0.00969395
0.0096722
0.00961881
0.00953236
0.00941122
0.00925317
0.00905527
0.00881398
0.00852492
0.00818257
0.00777985
0.0073075
0.00675311
0.00609946
0.00532154
0.00438108
0.0032172
0.00174419
0.00020095
0.00968828
0.00967042
0.00962209
0.00954162
0.00942711
0.00927593
0.00908482
0.00884986
0.00856622
0.00822794
0.00782751
0.00735533
0.0067987
0.00614012
0.00535442
0.0044034
0.00322715
0.00174385
0.000199879
0.00968605
0.00967184
0.00962856
0.00955437
0.00944694
0.0093033
0.00911977
0.00889186
0.00861414
0.00828002
0.0078814
0.00740817
0.00684728
0.00618113
0.0053848
0.00442101
0.00323195
0.00174049
0.000198495
0.00968033
0.00966971
0.00963181
0.00956451
0.00946519
0.00933049
0.00915623
0.00893726
0.00866735
0.00833904
0.00794337
0.00746941
0.00690347
0.00622773
0.00541776
0.00443798
0.0032341
0.00173505
0.00019683
0.00966318
0.00965628
0.00962423
0.00956477
0.00947504
0.00935138
0.00918909
0.00898232
0.00872394
0.00840543
0.00801663
0.00754529
0.0069764
0.00629111
0.00546494
0.00446423
0.00323986
0.00172962
0.000195047
0.00962694
0.00962375
0.00959797
0.00954729
0.00946877
0.00935854
0.00921153
0.00902133
0.00878002
0.00847804
0.00810383
0.00764333
0.00707911
0.00638953
0.0055478
0.00452038
0.00326373
0.0017296
0.000193317
0.00956602
0.00956608
0.00954657
0.00950521
0.00943908
0.0093443
0.00921574
0.00904679
0.00882915
0.00855264
0.00820468
0.0077693
0.00722581
0.00654745
0.00570068
0.00464559
0.00333858
0.00174907
0.000192146
0.00947891
0.00948111
0.00946729
0.00943505
0.00938167
0.00930348
0.00919563
0.00905187
0.0088643
0.00862299
0.00831531
0.00792442
0.00742687
0.00678967
0.00596784
0.00490365
0.00353351
0.00182711
0.000192887
0.00937013
0.00937286
0.00936365
0.0093396
0.00929856
0.00923718
0.00915127
0.00903555
0.0088833
0.00868599
0.00843243
0.00810685
0.00768546
0.0071313
0.00638746
0.0053689
0.00396008
0.00205682
0.000200298
0.00925151
0.00925337
0.00924741
0.00922976
0.00920023
0.00915566
0.00909257
0.00900713
0.0088945
0.00874844
0.00856054
0.00831828
0.00800104
0.00757317
0.00697148
0.00608233
0.00470823
0.0025502
0.000228526
0.00914217
0.00914317
0.00913757
0.00912352
0.00910472
0.00907732
0.00903838
0.00898565
0.00891647
0.0088273
0.00871324
0.00856658
0.00837337
0.00810624
0.0077074
0.00704281
0.00578478
0.0032441
0.00031024
0.00906285
0.00906464
0.00905114
0.00904019
0.00903252
0.00902311
0.0090099
0.00899213
0.00896904
0.00893965
0.00890253
0.00885532
0.00879339
0.00870612
0.00856525
0.00827237
0.00738692
0.00429141
0.000481064
)
;

boundaryField
{
    leftWall
    {
        type            nutkWallFunction;
        Cmu             0.09;
        kappa           0.41;
        E               9.8;
        value           nonuniform List<scalar> 
50
(
2.67784e-06
7.74718e-06
9.08875e-06
1.01057e-05
1.09405e-05
1.16792e-05
1.31408e-05
1.49649e-05
1.51694e-05
1.62973e-05
1.78258e-05
1.9219e-05
2.03493e-05
2.10257e-05
2.10081e-05
2.10003e-05
2.23883e-05
1.97197e-05
2.06927e-05
2.1122e-05
2.1755e-05
2.22157e-05
2.22019e-05
2.1864e-05
2.14035e-05
2.09027e-05
2.03524e-05
1.97486e-05
1.908e-05
1.83317e-05
1.74879e-05
1.65392e-05
1.54939e-05
1.4418e-05
1.33703e-05
1.2358e-05
1.14458e-05
1.07193e-05
1.0259e-05
1.01192e-05
1.03157e-05
1.08355e-05
1.16578e-05
1.27772e-05
1.42084e-05
1.59859e-05
1.81529e-05
2.08608e-05
2.55923e-05
4.74179e-05
)
;
    }
    rightWall
    {
        type            nutkWallFunction;
        Cmu             0.09;
        kappa           0.41;
        E               9.8;
        value           nonuniform List<scalar> 
50
(
3.55236e-06
1.27531e-05
1.59982e-05
1.93058e-05
2.23103e-05
2.53044e-05
2.63075e-05
2.68638e-05
2.70531e-05
2.63793e-05
2.6073e-05
2.61254e-05
2.59836e-05
2.58802e-05
2.57361e-05
2.54194e-05
2.51391e-05
2.50394e-05
2.52203e-05
2.8523e-05
2.88849e-05
3.0626e-05
3.15271e-05
3.10674e-05
3.01025e-05
2.89041e-05
2.73661e-05
2.55149e-05
2.35886e-05
2.19123e-05
2.07376e-05
2.01057e-05
1.98888e-05
1.99004e-05
2.00011e-05
2.00973e-05
2.01499e-05
2.01364e-05
2.00602e-05
1.99218e-05
1.97345e-05
1.95041e-05
1.9251e-05
1.89947e-05
1.87842e-05
1.87395e-05
1.92947e-05
2.18831e-05
3.05486e-05
5.48195e-05
)
;
    }
    lowerWall
    {
        type            nutkWallFunction;
        Cmu             0.09;
        kappa           0.41;
        E               9.8;
        value           nonuniform List<scalar> 
62
(
2.67784e-06
4.17545e-06
5.04179e-06
5.66548e-06
6.14345e-06
6.52292e-06
6.8341e-06
7.09867e-06
7.33185e-06
7.54485e-06
7.74893e-06
7.95799e-06
8.15863e-06
8.34128e-06
8.50224e-06
8.63442e-06
8.71658e-06
8.71539e-06
8.58723e-06
8.25959e-06
7.59101e-06
6.27828e-06
3.77722e-06
3.77722e-06
1.16738e-05
1.40471e-05
1.60942e-05
1.81044e-05
2.05381e-05
2.65645e-05
3.35969e-05
3.57432e-05
3.42178e-05
3.369e-05
3.46648e-05
4.36808e-06
1.47591e-05
1.98477e-05
2.26418e-05
2.57576e-05
3.10639e-05
3.51897e-05
3.90456e-05
4.36808e-06
5.94256e-06
6.63998e-06
6.98274e-06
7.33743e-06
7.74565e-06
8.02817e-06
8.32759e-06
8.51739e-06
8.56892e-06
8.4669e-06
8.19638e-06
7.92126e-06
7.7318e-06
7.60611e-06
7.46125e-06
7.192e-06
6.39957e-06
3.55236e-06
)
;
    }
    atmosphere
    {
        type            calculated;
        value           nonuniform List<scalar> 
46
(
0.009
0.009
0.00490418
0.00528229
0.00586385
0.00644632
0.00693292
0.00731503
0.00761194
0.00784586
0.00803467
0.00819123
0.00832426
0.00843986
0.00854304
0.00863742
0.00872203
0.00878848
0.00883394
0.00889572
0.00895658
0.009
0.009
0.009
0.009
0.009
0.00905442
0.009
0.009
0.009
0.009
0.009
0.009
0.009
0.009
0.009
0.009
0.009
0.009
0.009
0.009
0.009
0.009
0.009
0.009
0.009
)
;
    }
    defaultFaces
    {
        type            empty;
    }
}


// ************************************************************************* //
