/*--------------------------------*- C++ -*----------------------------------*\
  =========                 |
  \\      /  F ield         | OpenFOAM: The Open Source CFD Toolbox
   \\    /   O peration     | Website:  https://openfoam.org
    \\  /    A nd           | Version:  13
     \\/     M anipulation  |
\*---------------------------------------------------------------------------*/
FoamFile
{
    format      ascii;
    class       volScalarField;
    location    "1.85";
    object      p;
}
// * * * * * * * * * * * * * * * * * * * * * * * * * * * * * * * * * * * * * //

dimensions      [1 -1 -2 0 0 0 0];

internalField   nonuniform List<scalar> 
2268
(
5542.8
5514.71
5499.26
5495.3
5502.1
5517.34
5537.35
5558.59
5578.19
5593.75
5603.08
5605.43
5598.61
5583.26
5561.2
5533.86
5501.5
5463.25
5417.53
5362.86
5301.21
5243.14
5187.33
4751.47
4726.49
4713.89
4712.28
4719.89
4734.8
4753.45
4772.53
4789.45
4801.88
4808
4805.25
4793.68
4773.37
4746.12
4713.29
4675.72
4633.55
4586.14
4533.18
4477.56
4428.14
4378.9
3955.18
3933.2
3923.68
3925.83
3935.69
3951.45
3969.41
3986.76
4001.14
4010.3
4012.27
4004.89
3987.82
3961.6
3928.39
3889.74
3847.11
3801.68
3753.94
3704.5
3655.76
3613.05
3568.04
3151.96
3130.76
3123.94
3131.1
3145.11
3163.69
3182.77
3199.61
3212.46
3219.21
3217.98
3206.7
3184.63
3152.26
3113.22
3069.32
3022.74
2975.09
2927.85
2881.73
2837
2795.52
2750.4
2339.52
2315.27
2311.39
2325.17
2346.05
2370.91
2393.73
2411.97
2424.55
2429.93
2426.64
2412.45
2385.84
2347.59
2302.73
2254.44
2205.08
2156.04
2109.53
2065.58
2021.14
1976.32
1926.65
1524.2
1496.59
1495.18
1510.63
1533.5
1561.62
1593.52
1619.45
1637.13
1645.55
1644.49
1631.38
1603.69
1563.02
1515.53
1466.34
1417.49
1369.81
1326.03
1285.78
1243.86
1203.2
1157.62
976.329
962.043
959.824
962.444
967.425
975.035
988.229
997.381
1002.27
1002.55
996.54
982.505
959.526
932.836
905.641
879.302
854.704
831.378
810.545
791.969
773.84
760.935
744.504
804.962
802.403
799.173
791.961
782
769.891
755.624
740.927
727.076
714.235
700.84
686.764
673.262
664.433
658
652.78
648.917
645.996
643.673
642.174
642.906
648.522
649.587
2192.33
2240.01
2333.29
2455.72
2567.19
2660.22
2690.58
2725.38
2758.05
2774.01
2758.58
2720.21
2698.89
2643.22
2566.29
2470.41
2393.08
2347.74
2326.52
1598.49
1648.43
1702.69
1785.71
1886.01
1984.16
2079.91
2134.3
2164.04
2192.15
2202.61
2172.09
2126.23
2065.16
1990.08
1906.44
1836.37
1803.98
1810.02
1312.21
1366.3
1369.67
1372.85
1411.7
1465.69
1501.07
1504.03
1511.25
1553.17
1587.43
1584
1561.35
1533.59
1500.65
1450.1
1395.8
1381.66
1415.47
1148.16
1212.82
1242.21
1220.62
1200.15
1199.94
1186.54
1145.33
1108.77
1113.38
1151.99
1192.06
1185.01
1191.18
1192.65
1166.62
1147.48
1137.32
1147.28
940.092
1010.57
1082.48
1102.11
1071.07
1066.92
1074.38
1040.95
987.105
958.165
959.787
995.327
1006.16
1007.12
1000.89
993.286
997.496
989.328
983.846
801.613
830.37
894.761
956.56
944.629
961.418
984.317
968.757
924.224
909.498
887.622
882.431
890.088
892.719
895.251
902.061
899.705
889.894
894.708
727.13
723.225
738.352
810.867
821.624
856.953
883.674
883.987
859.552
856.351
848.593
837.739
831.999
836.84
841.294
841.857
832.736
823.818
836.839
657.107
656.28
644.704
689.497
718.439
763.862
788.745
792.717
794.355
797.457
794.29
790.128
787.742
786.825
783.517
780.589
771.256
763.52
779.464
704.312
701.069
696.032
688.738
679.536
668.911
657.473
646.082
634.874
623.791
613.04
603.66
596.695
591.079
585.687
580.323
574.842
569.319
563.635
558.234
554.516
553.993
554.309
572.288
571.425
568.192
562.77
555.415
546.419
536.234
525.429
514.472
503.602
493.181
483.506
475.062
467.582
460.69
454.267
448.216
442.193
435.983
430.033
425.456
423.528
422.572
441.133
441.262
439.606
435.91
430.27
422.894
413.973
404.191
393.997
383.748
373.676
363.942
354.681
346.008
337.991
331.218
325.237
319.538
315.003
312.867
314.248
320.915
331.008
314.889
313.777
312.563
309.809
305.578
299.647
291.782
283.153
274.298
265.17
255.889
246.837
238.442
230.944
224.631
220.259
218.412
218.362
220.576
226.501
236.603
249.456
263.738
207.069
205.662
205.209
203.083
199.175
193.345
186.419
179.711
173.431
166.775
160.129
153.985
149.054
145.759
143.607
142.726
144.169
148.247
154.356
163.522
175.567
187.844
200.052
129.124
130.149
130.143
128.096
124.365
119.225
113.819
108.881
104.377
99.6372
95.0609
90.8821
87.6654
85.9024
84.0152
81.8592
80.7778
82.3492
86.1406
93.0074
101.94
112.719
126.347
72.1427
72.163
70.697
68.2859
65.2522
61.5897
57.4563
52.9013
48.1448
43.7661
39.7849
36.2359
32.8443
29.5779
27.5169
25.631
24.0406
23.1487
23.9013
26.0379
29.1542
33.5979
40.5631
27.0133
26.5849
25.4171
23.7917
21.4594
19.2661
17.1384
15.0027
12.8842
10.927
9.27387
7.90069
6.71149
5.5733
5.13474
5.13343
5.1876
5.23613
5.26263
5.25765
5.27927
5.37618
5.89685
6.76897
7.07874
7.12917
6.47397
5.40774
4.96056
4.90847
4.90379
4.91525
4.92787
4.93448
4.94092
4.95278
4.95263
4.90969
4.86444
4.82384
4.78331
4.73544
4.67959
4.62518
4.58121
4.55356
4.80996
4.79927
4.81271
4.90214
4.91984
4.89339
4.87623
4.86828
4.86258
4.85561
4.8422
4.82177
4.8001
4.78308
4.76361
4.73375
4.69852
4.65981
4.61368
4.55925
4.49568
4.42106
4.30899
4.70474
4.7122
4.71992
4.72409
4.73451
4.74116
4.73616
4.72908
4.72223
4.71359
4.69883
4.68017
4.65999
4.63965
4.61835
4.58764
4.55285
4.51225
4.46381
4.40632
4.33899
4.26016
4.16105
4.58736
4.58892
4.59024
4.59143
4.59937
4.60477
4.60198
4.5955
4.58645
4.57434
4.55716
4.53763
4.51701
4.4958
4.46834
4.43464
4.39515
4.34865
4.29377
4.23012
4.15801
4.07967
3.98131
4.46734
4.46659
4.46685
4.46785
4.47221
4.47428
4.47152
4.4646
4.45338
4.43755
4.41926
4.39834
4.37683
4.35238
4.32169
4.28436
4.24027
4.18838
4.12767
4.05815
3.98033
3.89701
3.79768
4.3437
4.3419
4.34156
4.34232
4.34388
4.34375
4.34007
4.33247
4.32041
4.30343
4.28373
4.2625
4.23933
4.21145
4.1775
4.13695
4.08928
4.0334
3.96845
3.89458
3.81242
3.72486
3.62281
4.21619
4.21373
4.21302
4.21312
4.21311
4.21136
4.20666
4.19843
4.18621
4.1698
4.1499
4.12735
4.10144
4.07082
4.03429
3.99124
3.94086
3.88212
3.81427
3.73759
3.65295
3.5636
3.46093
4.08485
4.08219
4.08112
4.08065
4.07956
4.07667
4.07112
4.06233
4.04987
4.03352
4.01345
3.98981
3.9622
3.92967
3.89137
3.84653
3.79433
3.73377
3.66422
3.58614
3.50066
3.41137
3.30996
3.95001
3.94738
3.94603
3.94505
3.9432
3.93952
3.93331
3.92405
3.91133
3.89485
3.87451
3.85019
3.82152
3.78786
3.74846
3.70257
3.64936
3.5879
3.51771
3.43942
3.35436
3.26642
3.16713
3.8119
3.8094
3.8079
3.80653
3.80415
3.79991
3.79323
3.78363
3.7707
3.75409
3.73356
3.70887
3.67968
3.64546
3.60553
3.5592
3.50568
3.44412
3.37415
3.29655
3.21284
3.12703
3.03039
3.67069
3.66843
3.66692
3.66531
3.66258
3.65798
3.651
3.64119
3.62814
3.61149
3.59093
3.56616
3.53684
3.50249
3.46252
3.41628
3.36304
3.30203
3.23298
3.15679
3.0751
2.99201
2.8981
3.5268
3.52481
3.52338
3.52166
3.51873
3.51393
3.5068
3.49691
3.48387
3.4673
3.44686
3.42224
3.3931
3.35899
3.31938
3.27368
3.22122
3.16131
3.09374
3.0195
2.94037
2.86061
2.76905
3.38062
3.37893
3.37765
3.3759
3.37289
3.36802
3.36085
3.351
3.33808
3.32171
3.30155
3.27729
3.24857
3.215
3.17609
3.13131
3.08004
3.02165
2.95604
2.88417
2.80787
2.73141
2.64296
3.2325
3.23115
3.23005
3.22836
3.22535
3.2205
3.2134
3.20368
3.19097
3.17491
3.15517
3.13142
3.10334
3.07054
3.0326
2.98905
2.93931
2.88282
2.8195
2.75035
2.67712
2.60388
2.51934
3.0828
3.0818
3.08092
3.07933
3.0764
3.07164
3.06467
3.05516
3.04274
3.02708
3.00785
2.98475
2.95745
2.92563
2.8889
2.84683
2.79888
2.74457
2.68386
2.61769
2.54773
2.47773
2.39767
2.9318
2.93119
2.93056
2.92911
2.92628
2.92166
2.91489
2.90562
2.89355
2.87835
2.85972
2.83736
2.81098
2.78029
2.74494
2.70455
2.65862
2.60673
2.54884
2.48591
2.41949
2.35316
2.27716
2.77979
2.77957
2.7792
2.77791
2.77523
2.77078
2.76422
2.75524
2.74355
2.72885
2.71086
2.68931
2.66395
2.63451
2.60068
2.56211
2.51838
2.46908
2.41422
2.35468
2.29197
2.22948
2.15745
2.62698
2.62715
2.62703
2.62593
2.62341
2.61914
2.61281
2.60414
2.59284
2.57866
2.56135
2.54067
2.51639
2.48827
2.45606
2.41944
2.37802
2.33144
2.27972
2.2237
2.16475
2.106
2.03851
2.47346
2.47399
2.47414
2.47323
2.47089
2.46682
2.46073
2.45236
2.44147
2.42783
2.41122
2.39142
2.36827
2.34155
2.31103
2.27643
2.23741
2.19365
2.14515
2.0927
2.0375
1.98215
1.92029
2.31927
2.32013
2.32052
2.3198
2.31765
2.31378
2.30794
2.29989
2.28941
2.27631
2.26041
2.24155
2.21956
2.19428
2.16551
2.133
2.09644
2.05555
2.01033
1.9615
1.91009
1.85846
1.80177
2.16444
2.16556
2.16616
2.16563
2.16366
2.15997
2.15436
2.14662
2.13656
2.12402
2.10887
2.09096
2.07018
2.04638
2.0194
1.98903
1.95498
1.917
1.8751
1.82991
1.78237
1.73468
1.68261
2.00892
2.01024
2.01102
2.01067
2.00884
2.00533
1.99993
1.99248
1.98284
1.97087
1.95648
1.93956
1.92002
1.89774
1.87261
1.84442
1.81294
1.77792
1.73936
1.69785
1.65423
1.61049
1.56293
1.85269
1.85414
1.85506
1.85483
1.85313
1.84975
1.84455
1.83739
1.82816
1.81678
1.80318
1.78728
1.76902
1.74833
1.72508
1.69913
1.67026
1.63824
1.60307
1.56529
1.52562
1.48588
1.44273
1.69572
1.69723
1.69824
1.69808
1.69645
1.69318
1.68815
1.68128
1.67248
1.66171
1.64892
1.63409
1.61717
1.5981
1.57681
1.55315
1.52693
1.49795
1.46621
1.43218
1.39651
1.3608
1.32212
1.53803
1.53953
1.54055
1.5404
1.53879
1.53559
1.53072
1.52412
1.51577
1.50564
1.49372
1.48
1.46447
1.44709
1.4278
1.40648
1.38296
1.35706
1.32877
1.2985
1.26682
1.23514
1.20082
1.37967
1.38111
1.38206
1.38184
1.38018
1.37701
1.37227
1.36596
1.35807
1.34862
1.33762
1.32508
1.311
1.29538
1.27814
1.2592
1.23841
1.2156
1.19075
1.16422
1.13648
1.10876
1.07875
1.22074
1.22207
1.22287
1.22249
1.22071
1.21751
1.2129
1.20688
1.19949
1.19077
1.18075
1.16945
1.15689
1.14306
1.12793
1.1114
1.09334
1.07361
1.05218
1.02933
1.00546
0.981597
0.955733
1.06138
1.06256
1.06311
1.06247
1.06048
1.05721
1.0527
1.04699
1.04015
1.03223
1.02326
1.01327
1.00229
0.990314
0.977307
0.963199
0.94787
0.931182
0.9131
0.893841
0.873727
0.853602
0.831792
0.901771
0.90274
0.902942
0.901879
0.899579
0.896176
0.891765
0.88642
0.880201
0.873156
0.865322
0.856725
0.847383
0.837294
0.826433
0.814737
0.802102
0.788401
0.77359
0.757811
0.741287
0.724726
0.706723
0.742142
0.742845
0.742489
0.740764
0.737988
0.734407
0.730137
0.725238
0.719749
0.713695
0.707097
0.69997
0.692323
0.684153
0.67544
0.666132
0.656141
0.645362
0.633731
0.621308
0.608208
0.594993
0.58059
0.582809
0.583176
0.581804
0.579012
0.575558
0.571791
0.567767
0.563466
0.558862
0.55394
0.548694
0.543122
0.537223
0.530993
0.524416
0.517457
0.510052
0.502132
0.493637
0.484481
0.474612
0.464569
0.453552
0.423364
0.423156
0.420649
0.416117
0.41186
0.408063
0.404525
0.401056
0.39754
0.393913
0.39014
0.386205
0.3821
0.37782
0.373358
0.368696
0.363823
0.358753
0.353488
0.347748
0.340905
0.333835
0.326085
0.265664
0.26428
0.259725
0.250858
0.246229
0.243069
0.240486
0.238177
0.235979
0.233809
0.231623
0.229399
0.227126
0.224802
0.222427
0.220012
0.21761
0.215392
0.213877
0.211826
0.207519
0.203074
0.198277
0.0996464
0.0930213
0.0882314
0.0824441
0.0812606
0.0803425
0.0794553
0.0786459
0.077896
0.0771856
0.0765001
0.0758303
0.0751717
0.074524
0.0738903
0.0732853
0.0727612
0.0725118
0.0733466
0.0739643
0.0713805
0.0692299
0.0672327
564.77
567.99
572.648
572.252
419.029
416.576
415.729
418.21
338.72
344.435
350.163
356.891
273.997
280.577
287.558
294.623
209.126
215.011
221.193
227.457
141.547
150.605
157.792
163.574
49.9239
61.3685
76.6243
88.0158
6.99797
8.54809
11.8287
17.8335
4.51625
4.52686
4.66984
4.80305
4.17115
4.03891
3.88265
3.73263
4.0244
3.88992
3.72118
3.55154
3.83581
3.68659
3.51102
3.35657
3.63942
3.47926
3.2986
3.14986
3.46046
3.29654
3.11332
2.96545
3.29888
3.13505
2.95225
2.80518
3.1507
2.98919
2.80877
2.66353
3.01205
2.85425
2.67755
2.53535
2.88026
2.72709
2.55537
2.41704
2.75368
2.60588
2.43977
2.30601
2.63092
2.48908
2.3294
2.20058
2.51116
2.37558
2.22257
2.09915
2.3936
2.26442
2.1187
2.00092
2.27813
2.15552
2.01705
1.90507
2.16417
2.04833
1.91741
1.81116
2.05126
1.94222
1.81865
1.71825
1.93885
1.8365
1.72055
1.62603
1.82694
1.73122
1.62266
1.53407
1.71498
1.62602
1.52505
1.44229
1.6026
1.52044
1.42687
1.35009
1.48953
1.41413
1.32823
1.25746
1.37602
1.30736
1.22891
1.16422
1.26208
1.20016
1.12927
1.0705
1.14748
1.09225
1.02867
0.975841
1.03186
0.983196
0.927068
0.88013
0.915232
0.873028
0.824077
0.78301
0.797474
0.761586
0.719821
0.684463
0.678377
0.648617
0.613722
0.584046
0.557824
0.533913
0.505862
0.481783
0.436125
0.417825
0.396246
0.377667
0.313712
0.300763
0.285485
0.272174
0.190956
0.183109
0.173667
0.16526
0.0646077
0.0617929
0.0582038
0.0546094
548.692
566.238
563.456
575.832
605.227
630.331
652.816
674.709
695.438
702.419
702.464
699.458
696.781
694.249
690.625
686.468
677.655
672.481
683.685
430.505
458.435
459.233
468.264
485.145
493.407
508.082
537.017
566.557
577.141
579.939
578.906
576.406
572.872
569.894
568.722
567.286
571.741
582.702
368.929
383.507
382.208
389.209
403.288
412.567
417.598
431.139
452.983
463.291
467.483
469.408
471.604
473.684
475.995
479.668
487.1
496.326
501.318
304.913
315.972
320.048
327.971
341.063
349.425
353.826
358.464
368.292
377.6
384.548
390.709
397.31
404.586
411.227
417.556
424.859
429.952
430.318
237.901
250.243
258.601
268.202
279.476
288.722
295.817
302.202
308.775
316.997
325.525
333.595
340.658
347.307
353.487
359.403
364.896
367.803
366.958
173.184
186.461
196.68
207.165
218.339
228.218
237.101
245.507
253.456
260.883
268.597
276.234
283.305
289.904
295.94
301.387
305.686
307.03
305.121
101.994
121.603
134.866
146.654
158.035
168.05
177.821
187.099
195.538
203.688
211.697
219.341
226.402
232.766
238.388
243.177
246.554
246.904
244.339
30.7384
48.7217
64.4324
82.0125
97.5404
108.123
118.899
129.144
137.863
146.5
154.822
162.578
169.612
175.648
180.665
184.598
186.973
186.717
183.349
4.51984
6.99537
13.4003
23.9327
35.5459
43.8903
58.019
72.0319
80.7907
89.1984
97.4547
104.972
111.709
117.274
121.467
124.127
125.332
124.169
119.272
3.59809
3.53994
3.41474
3.21518
3.57802
5.70209
14.1785
23.5384
28.1325
36.3628
43.9097
50.1309
55.6127
59.7829
62.4835
63.8094
63.3737
59.202
52.6889
3.3273
3.11837
2.98515
2.88939
2.84176
2.78407
2.57365
2.4579
2.64494
7.62406
11.6071
14.5382
17.3776
19.0663
19.9115
20.7515
19.5389
15.7197
11.4739
3.16995
2.99418
2.86058
2.73936
2.6227
2.52004
2.43502
2.41225
2.45138
2.40313
2.1367
2.03378
2.00863
2.48292
2.6446
2.59778
2.90109
3.02314
2.52192
2.99392
2.86043
2.74302
2.6249
2.5106
2.41753
2.33996
2.29767
2.28795
2.25286
2.21155
2.18246
2.14662
2.09287
2.12928
2.16739
2.2056
2.28572
2.33427
2.81919
2.71298
2.61031
2.50442
2.40415
2.31768
2.24503
2.19454
2.16106
2.11935
2.09852
2.08399
2.07575
2.08563
2.10667
2.14123
2.14952
2.16424
2.18163
2.66216
2.56867
2.47641
2.3817
2.29228
2.2136
2.14541
2.08975
2.0457
2.00221
1.96709
1.95448
1.92138
1.92156
1.93672
1.95597
1.99701
2.02777
2.0551
2.52342
2.43788
2.35291
2.26583
2.18353
2.10955
2.04361
1.98192
1.93056
1.88629
1.85069
1.82611
1.79926
1.76827
1.77892
1.82002
1.8726
1.91656
1.94656
2.39878
2.31885
2.23967
2.15858
2.08185
2.01189
1.94842
1.88954
1.83519
1.79401
1.76492
1.74048
1.71658
1.699
1.71007
1.74587
1.78756
1.82392
1.84964
2.28449
2.20898
2.1346
2.05859
1.98666
1.92073
1.861
1.80671
1.75924
1.72146
1.69334
1.67239
1.65686
1.64947
1.65865
1.68232
1.71134
1.73876
1.75954
2.17799
2.10614
2.03589
1.96429
1.89662
1.8345
1.77857
1.72871
1.68579
1.65131
1.62536
1.60697
1.59568
1.59192
1.59896
1.61514
1.6358
1.65695
1.67372
2.07722
2.00868
1.94209
1.8744
1.81054
1.75196
1.69945
1.65325
1.61388
1.58213
1.55805
1.54129
1.53151
1.52879
1.53384
1.54542
1.56089
1.57759
1.59076
1.98087
1.91532
1.85204
1.78788
1.72744
1.67211
1.62268
1.57948
1.54288
1.51325
1.49068
1.47495
1.46577
1.46291
1.46629
1.47479
1.48666
1.49984
1.50979
1.88774
1.82508
1.76484
1.7039
1.64658
1.59418
1.54748
1.50681
1.47237
1.44439
1.42292
1.40781
1.39876
1.39541
1.3973
1.40348
1.41262
1.42293
1.43032
1.79721
1.73719
1.67978
1.62181
1.56734
1.51759
1.47328
1.43473
1.40203
1.37534
1.35465
1.33985
1.33063
1.32659
1.32717
1.33149
1.33849
1.34652
1.35207
1.70838
1.65102
1.59629
1.54111
1.48927
1.44191
1.39972
1.36297
1.3317
1.30601
1.28588
1.27118
1.26164
1.25684
1.25623
1.25904
1.2643
1.27057
1.27494
1.62082
1.56603
1.51391
1.46139
1.41202
1.36687
1.32658
1.29138
1.26132
1.23643
1.2167
1.20199
1.19206
1.18652
1.18487
1.18639
1.19028
1.19525
1.1989
1.53389
1.48183
1.43227
1.38234
1.33534
1.29227
1.25373
1.21992
1.19091
1.1667
1.14728
1.13251
1.12219
1.11597
1.1134
1.11389
1.11669
1.12072
1.12396
1.44744
1.39808
1.35109
1.30371
1.25902
1.21796
1.18109
1.14859
1.12054
1.09696
1.0778
1.06297
1.0523
1.04549
1.04216
1.04178
1.04375
1.04712
1.05011
1.36101
1.3145
1.27012
1.22529
1.18291
1.14384
1.1086
1.07738
1.05027
1.02728
1.0084
0.993555
0.982601
0.975309
0.971344
0.970276
0.971569
0.974424
0.977263
1.27448
1.23085
1.18913
1.14691
1.10686
1.06979
1.03619
1.00627
0.980107
0.957742
0.939177
0.924369
0.913216
0.905537
0.901061
0.899407
0.900151
0.902591
0.905265
1.1875
1.14692
1.10794
1.06837
1.0307
0.995675
0.963766
0.935183
0.910017
0.888325
0.870134
0.855435
0.844163
0.836188
0.831284
0.829153
0.829405
0.831441
0.833948
1.10009
1.06253
1.02634
0.989494
0.954265
0.921347
0.891203
0.864021
0.839914
0.818958
0.801209
0.786687
0.77537
0.767171
0.76192
0.759347
0.759153
0.760806
0.763084
1.01195
0.977486
0.944132
0.910072
0.877365
0.846641
0.818335
0.792635
0.769664
0.749518
0.732277
0.717996
0.706693
0.698326
0.692769
0.689821
0.6892
0.690445
0.692478
0.922999
0.891568
0.861095
0.829888
0.799782
0.771347
0.744974
0.72085
0.699103
0.679846
0.663181
0.649196
0.637949
0.62945
0.62363
0.620318
0.619307
0.620175
0.621913
0.832852
0.804535
0.77699
0.748704
0.721287
0.695244
0.670916
0.64848
0.628064
0.609787
0.593769
0.580127
0.568966
0.560349
0.55427
0.550645
0.549278
0.549778
0.551238
0.741406
0.716151
0.691574
0.66628
0.64165
0.618112
0.595959
0.575346
0.55639
0.539206
0.523923
0.510681
0.499625
0.490884
0.484545
0.480589
0.478917
0.47913
0.480313
0.648304
0.626184
0.604621
0.582388
0.560645
0.539738
0.519909
0.501282
0.483949
0.468011
0.453589
0.440833
0.429918
0.421041
0.414389
0.410102
0.408139
0.408112
0.409107
0.553466
0.534469
0.515961
0.496843
0.478075
0.45993
0.442591
0.42614
0.410636
0.39615
0.382778
0.370659
0.359978
0.350986
0.343983
0.33926
0.336977
0.336784
0.337657
0.456687
0.440936
0.425502
0.409522
0.393805
0.378553
0.363881
0.349822
0.336394
0.323627
0.31158
0.300355
0.29012
0.281135
0.273776
0.268547
0.265787
0.265334
0.266166
0.35816
0.345697
0.333297
0.320438
0.307834
0.295609
0.28379
0.27236
0.261292
0.250575
0.240223
0.230286
0.220878
0.21222
0.204699
0.19891
0.195437
0.194416
0.195013
0.258101
0.249241
0.239538
0.229742
0.220325
0.211282
0.202528
0.193985
0.185596
0.177319
0.169126
0.161014
0.153024
0.145281
0.138089
0.132094
0.127695
0.125159
0.124964
0.156698
0.152237
0.144546
0.137286
0.131074
0.125344
0.119822
0.11439
0.108977
0.103527
0.0979964
0.0923488
0.0865585
0.0806401
0.074772
0.0695204
0.0642644
0.0590709
0.0565474
0.0522698
0.0523346
0.0494463
0.0454762
0.0429352
0.0408386
0.0388619
0.0369154
0.0349556
0.0329521
0.0308795
0.0287167
0.0264434
0.0240497
0.0215271
0.0193257
0.0162194
0.0101734
0.010309
)
;

boundaryField
{
    leftWall
    {
        type            calculated;
        value           nonuniform List<scalar> 
50
(
5542.8
4751.47
3955.18
3151.96
2339.52
1524.2
976.329
804.962
704.312
572.288
441.133
314.889
207.069
129.124
72.1427
27.0133
6.76897
4.80996
4.70474
4.58736
4.46734
4.3437
4.21619
4.08485
3.95001
3.8119
3.67069
3.5268
3.38062
3.2325
3.0828
2.9318
2.77979
2.62698
2.47346
2.31927
2.16444
2.00892
1.85269
1.69572
1.53803
1.37967
1.22074
1.06138
0.901771
0.742142
0.582809
0.423364
0.265664
0.0996464
)
;
    }
    rightWall
    {
        type            calculated;
        value           nonuniform List<scalar> 
50
(
2326.52
1810.02
1415.47
1147.28
983.846
894.708
836.839
779.464
683.685
582.702
501.318
430.318
366.958
305.121
244.339
183.349
119.272
52.6889
11.4739
2.52192
2.33427
2.18163
2.0551
1.94656
1.84964
1.75954
1.67372
1.59076
1.50979
1.43032
1.35207
1.27494
1.1989
1.12396
1.05011
0.977263
0.905265
0.833948
0.763084
0.692478
0.621913
0.551238
0.480313
0.409107
0.337657
0.266166
0.195013
0.124964
0.0565474
0.010309
)
;
    }
    lowerWall
    {
        type            calculated;
        value           nonuniform List<scalar> 
62
(
5940.95
5912.86
5897.41
5893.45
5900.25
5915.49
5935.5
5956.74
5976.34
5991.9
6001.23
6003.58
5996.76
5981.41
5959.35
5932.01
5899.65
5861.4
5815.68
5760.96
5699.17
5641.08
5585.26
5187.33
4378.9
3568.04
2750.4
1926.65
1157.62
744.504
649.587
640.114
657.072
689.356
689.598
2192.33
1598.49
1312.21
1148.16
940.092
801.613
727.13
657.107
2541.44
2590.32
2684.61
2807.33
2918.43
3004.91
2948.08
2966.81
3000.65
3014.64
2996.16
2957.31
2987.56
2939.01
2862.92
2763.62
2679.9
2634.91
2613.54
)
;
    }
    atmosphere
    {
        type            calculated;
        value           nonuniform List<scalar> 
46
(
-0.000126572
-0.00012561
-3.14998e-05
0
0
0
0
0
0
0
0
0
0
0
0
0
0
0
0
0
0
0
0
-2.58005e-07
0
0
0
0
0
0
0
0
0
0
-6.0216e-07
-1.57071e-06
-2.02866e-06
-1.49011e-06
0
0
0
0
0
0
-1.84069e-05
-0.000204872
)
;
    }
    defaultFaces
    {
        type            empty;
    }
}


// ************************************************************************* //
