/*--------------------------------*- C++ -*----------------------------------*\
  =========                 |
  \\      /  F ield         | OpenFOAM: The Open Source CFD Toolbox
   \\    /   O peration     | Website:  https://openfoam.org
    \\  /    A nd           | Version:  13
     \\/     M anipulation  |
\*---------------------------------------------------------------------------*/
FoamFile
{
    format      ascii;
    class       volScalarField;
    location    "1.85";
    object      p_rgh;
}
// * * * * * * * * * * * * * * * * * * * * * * * * * * * * * * * * * * * * * //

dimensions      [1 -1 -2 0 0 0 0];

internalField   nonuniform List<scalar> 
2268
(
5940.95
5912.86
5897.41
5893.45
5900.25
5915.49
5935.5
5956.74
5976.34
5991.9
6001.23
6003.58
5996.76
5981.41
5959.35
5932.01
5899.65
5861.4
5815.68
5760.96
5699.17
5641.08
5585.26
5945.92
5920.94
5908.34
5906.73
5914.34
5929.25
5947.9
5966.98
5983.9
5996.33
6002.45
5999.7
5988.13
5967.82
5940.57
5907.74
5870.17
5828
5780.59
5727.63
5672.01
5622.47
5573.18
5945.93
5923.95
5914.43
5916.58
5926.44
5942.2
5960.16
5977.51
5991.89
6001.05
6003.02
5995.64
5978.57
5952.35
5919.14
5880.49
5837.86
5792.43
5744.69
5695.25
5646.51
5603.8
5558.79
5939
5917.81
5910.99
5918.15
5932.16
5950.74
5969.82
5986.66
5999.51
6006.26
6005.03
5993.74
5971.67
5939.31
5900.27
5856.37
5809.79
5762.14
5714.9
5668.78
5624.05
5582.57
5537.45
5922.86
5898.62
5894.74
5908.52
5929.4
5954.26
5977.08
5995.32
6007.9
6013.28
6009.99
5995.8
5969.18
5930.94
5886.08
5837.79
5788.42
5739.39
5692.88
5648.93
5604.49
5559.67
5509.99
5778.07
5661.11
5642.8
5712.35
5819.13
5940.93
5973.17
5999.1
6016.78
6025.19
6024.14
6011.03
5983.34
5942.67
5895.17
5845.99
5790.96
5721.59
5642.55
5542.34
5397.7
5174.01
4932.83
2693.38
2450.78
2419.79
2540.15
2748.1
3036.93
3461.5
3847.05
4169.35
4417.56
4604.13
4712.3
4695.87
4508.94
4243.64
3946.19
3617.13
3265.73
2924.38
2593.22
2235.37
1857.76
1568.01
1246.4
1243.84
1240.61
1233.4
1223.44
1211.33
1197.07
1198.95
1217.25
1243.71
1239.53
1192.45
1114.7
1105.87
1099.44
1094.22
1090.36
1087.43
1085.08
1083.48
1084.02
1089.42
1090.08
2541.44
2590.32
2684.61
2807.33
2918.43
3004.91
2948.08
2966.81
3000.65
3014.64
2996.16
2957.31
2987.56
2939.01
2862.92
2763.62
2679.9
2634.91
2613.54
2293.81
2318.79
2506.13
2735.2
2873.68
2985.54
3085.52
3137.87
3165.25
3161.28
3106.88
3075.28
3026.4
2969.03
2896.83
2758.95
2670.69
2587.95
2484.09
1588.54
1643.22
1696.58
1886.02
2166.79
2437.5
2731.66
2986.1
3081.26
3120.98
3164.4
2993.1
2958.55
2732.26
2463.16
2281.34
2156.42
2137.72
2228.39
1821.34
1858.95
1628.43
1556.24
1680.42
1789.62
1739.06
1646.26
1744.34
2058.03
2140.45
2009.19
1947.6
1908.19
1967.93
1899.25
1689.34
1652.43
1841.14
1746.37
1879.19
1931.53
1633.74
1625.22
1600.66
1430.8
1352.05
1260.09
1138.17
1497.41
1821.48
1692.55
1736.54
1726.54
1504.57
1506.88
1520.84
1507.13
1169.42
1576.28
1925.52
1832.6
1628.23
1527.57
1595.03
1387.42
1263.93
1186.94
1026.02
1175.41
1386.69
1279.3
1170.16
1197.97
1276.19
1284.39
1163.4
1098.76
1072.12
1669.07
1737.04
1527.73
1542.88
1586.25
1576.06
1263.74
1231
1176.59
1086.7
1033.93
1090.29
1195.84
1221.88
1213.53
1200.6
1169.72
1162.96
1051.76
1043.76
1660.86
1307.91
1323.86
1549.76
1623.03
1256.8
1240.12
1235.88
1226.31
1210.12
1213.69
1224.4
1222.01
1203.7
1196.26
1176.64
1237.78
1234.54
1229.5
1222.21
1213
1202.38
1190.94
1179.55
1168.34
1157.26
1146.51
1137.13
1130.16
1124.55
1119.15
1113.79
1108.31
1102.78
1097.08
1091.67
1087.94
1087.38
1087.01
1230.95
1230.09
1226.85
1221.43
1214.08
1205.08
1194.9
1184.09
1173.13
1162.26
1151.84
1142.17
1133.72
1126.24
1119.35
1112.93
1106.88
1100.85
1094.64
1084.87
1071.96
1053.58
1022.15
1224.99
1225.12
1223.46
1219.77
1214.13
1206.75
1197.83
1188.05
1177.85
1167.6
1157.53
1147.8
1138.54
1129.86
1120.71
1110.36
1096.03
1074.8
1032.78
972.578
900.174
827.57
755.279
1173.47
1206.45
1210.85
1215.53
1212.76
1208.69
1200.83
1191.26
1177.64
1163.71
1147.83
1126.1
1091.44
1042.08
986.316
942.373
880.671
792.858
718.87
666.377
624.491
651.263
700.845
981.541
959.434
960.941
958.4
973.345
989.796
964.429
933.671
903.638
862.09
810.778
754.191
699.716
646.919
605.257
590.47
618.448
637.051
631.762
639.473
680.268
704.807
717.164
692.077
697.194
708.76
710.446
704.973
671.391
632.901
634.6
652.696
647.651
641.022
629.95
631.332
655.888
654.145
651.18
644.349
637.479
635.168
640.997
656.761
682.743
706.066
639.197
691.882
701.61
699.052
695.865
691.06
684.733
677.374
665.923
648.204
621.214
586.562
542.461
487.793
431.587
361.197
299.614
260.239
248.538
260.769
283.002
321.168
383.645
459.232
434.127
407.965
409.865
398.94
366.52
323.735
274.175
218.178
164.082
117.721
78.8351
46.1946
16.0655
6.54482
6.54334
6.6405
6.64599
6.67252
6.66757
6.68916
6.91403
10.7796
53.8849
66.9588
69.8521
48.5575
16.0958
6.49576
6.44362
6.439
6.45046
6.46303
6.46984
6.47706
6.48945
6.48903
6.4452
6.39956
6.3589
6.31835
6.27048
6.21467
6.16026
6.11627
6.08866
6.47075
6.46014
6.47732
9.141
8.02263
6.58149
6.53675
6.52857
6.52294
6.51583
6.54072
6.54822
6.49343
6.44528
6.4244
6.3944
6.35932
6.32055
6.2743
6.21973
6.156
6.08134
5.96927
6.49075
6.50521
6.50657
6.91592
6.60718
6.52828
6.5217
6.51465
6.50853
6.55043
6.64155
6.62421
6.53833
6.42936
6.40546
6.37616
6.34157
6.29954
6.25021
6.19231
6.12491
6.04579
5.94657
6.4988
6.51594
6.50455
6.50997
6.51327
6.51565
6.5127
6.50649
6.5096
6.64945
6.63578
6.61776
6.50145
6.41229
6.38423
6.35088
6.31129
6.261
6.2052
6.14132
6.06905
5.99066
5.89208
6.50404
6.50333
6.50309
6.50381
6.50842
6.51022
6.5075
6.50086
6.49654
6.58853
6.63022
6.55242
6.41843
6.39445
6.36383
6.32624
6.27813
6.22485
6.16378
6.09416
6.01644
5.93308
5.83363
6.50565
6.50395
6.50308
6.5035
6.50505
6.50489
6.50127
6.4939
6.48218
6.46458
6.46727
6.42709
6.40194
6.37724
6.34167
6.29857
6.25046
6.19459
6.12957
6.05569
5.97355
5.88601
5.7839
6.50279
6.50051
6.49948
6.49946
6.49943
6.49768
6.49307
6.48515
6.4731
6.45601
6.4361
6.41361
6.38838
6.35848
6.32054
6.27745
6.22708
6.16837
6.10053
6.02383
5.93921
5.84985
5.74717
6.49637
6.49376
6.49265
6.49215
6.49105
6.48814
6.48256
6.47375
6.46128
6.44493
6.4249
6.40166
6.37501
6.34258
6.30286
6.25794
6.20576
6.1452
6.07564
5.99757
5.91209
5.82279
5.72137
6.4867
6.4841
6.48274
6.48174
6.47987
6.47615
6.46992
6.46066
6.44793
6.43146
6.41123
6.38746
6.35946
6.32519
6.28507
6.23919
6.18598
6.12452
6.05432
5.97602
5.89096
5.80302
5.70373
6.47377
6.4713
6.4698
6.46841
6.466
6.46173
6.45504
6.44543
6.4325
6.4159
6.39545
6.37088
6.34164
6.30725
6.26734
6.22102
6.16749
6.10592
6.03594
5.95834
5.87463
5.78882
5.69218
6.45777
6.45553
6.45402
6.45239
6.44962
6.44499
6.438
6.42819
6.41514
6.39849
6.37793
6.35314
6.32381
6.28948
6.24952
6.20328
6.15003
6.08902
6.01997
5.94377
5.86208
5.77899
5.68508
6.43906
6.43708
6.43566
6.43393
6.43097
6.42614
6.41899
6.4091
6.39605
6.37948
6.35904
6.33441
6.30527
6.27117
6.23156
6.18587
6.1334
6.07348
6.00592
5.93168
5.85254
5.77278
5.68122
6.41806
6.41639
6.4151
6.41335
6.41032
6.40542
6.39824
6.38838
6.37545
6.35908
6.33892
6.31465
6.28594
6.25236
6.21345
6.16867
6.1174
6.05902
5.9934
5.92153
5.84523
5.76877
5.68032
6.39513
6.39378
6.39267
6.39098
6.38796
6.3831
6.37598
6.36625
6.35353
6.33747
6.31773
6.29398
6.26589
6.23309
6.19516
6.15161
6.10186
6.04537
5.98206
5.9129
5.83967
5.76644
5.68189
6.3706
6.3696
6.36872
6.36713
6.36419
6.35942
6.35244
6.34292
6.33049
6.31483
6.2956
6.2725
6.2452
6.21338
6.17665
6.13458
6.08663
6.03232
5.97161
5.90544
5.83548
5.76548
5.68542
6.34479
6.34417
6.34353
6.34208
6.33925
6.33463
6.32784
6.31857
6.3065
6.2913
6.27266
6.2503
6.22392
6.19323
6.15789
6.11749
6.07156
6.01967
5.96179
5.89885
5.83243
5.7661
5.6901
6.31797
6.31774
6.31736
6.31606
6.31338
6.30892
6.30236
6.29339
6.28169
6.26699
6.249
6.22745
6.20209
6.17265
6.13882
6.10025
6.05652
6.00721
5.95235
5.89282
5.8301
5.76761
5.69558
6.29034
6.2905
6.29038
6.28927
6.28675
6.28248
6.27615
6.26747
6.25617
6.242
6.22468
6.204
6.17972
6.1516
6.11939
6.08277
6.04135
5.99477
5.94305
5.88703
5.82808
5.76934
5.70184
6.26201
6.26253
6.26267
6.26176
6.25942
6.25534
6.24925
6.24089
6.23
6.21636
6.19974
6.17995
6.15679
6.13007
6.09955
6.06496
6.02594
5.98217
5.93368
5.88122
5.82602
5.77068
5.70881
6.23301
6.23386
6.23424
6.23353
6.23137
6.2275
6.22166
6.21361
6.20313
6.19003
6.17413
6.15527
6.13328
6.108
6.07923
6.04672
6.01016
5.96927
5.92405
5.87522
5.82381
5.77218
5.71549
6.20336
6.20448
6.20508
6.20455
6.20257
6.19889
6.19328
6.18553
6.17547
6.16294
6.14778
6.12988
6.10909
6.08529
6.05831
6.02794
5.9939
5.95592
5.91402
5.86882
5.82129
5.77359
5.72152
6.17303
6.17435
6.17513
6.17477
6.17295
6.16943
6.16404
6.15659
6.14694
6.13498
6.12059
6.10367
6.08412
6.06185
6.03672
6.00853
5.97705
5.94203
5.90347
5.86196
5.81834
5.7746
5.72704
6.14199
6.14344
6.14436
6.14414
6.14243
6.13905
6.13385
6.12669
6.11746
6.10609
6.09248
6.07658
6.05832
6.03763
6.01439
5.98844
5.95956
5.92754
5.89238
5.85459
5.81493
5.77518
5.73203
6.11022
6.11173
6.11273
6.11258
6.11095
6.10768
6.10265
6.09577
6.08698
6.0762
6.06342
6.04859
6.03166
6.0126
5.99131
5.96765
5.94143
5.91245
5.88071
5.84668
5.81101
5.7753
5.73661
6.07772
6.07923
6.08024
6.08009
6.07848
6.07528
6.07041
6.06381
6.05546
6.04533
6.03341
6.01969
6.00416
5.98679
5.9675
5.94618
5.92265
5.89675
5.86847
5.83819
5.80651
5.77483
5.74051
6.04456
6.046
6.04694
6.04672
6.04507
6.04189
6.03716
6.03085
6.02296
6.01351
6.00251
5.98997
5.97589
5.96026
5.94303
5.92409
5.9033
5.88048
5.85564
5.82911
5.80137
5.77364
5.74363
6.01082
6.01215
6.01295
6.01257
6.01079
6.0076
6.00298
5.99696
5.98957
5.98085
5.97083
5.95953
5.94697
5.93315
5.91801
5.90148
5.88343
5.86369
5.84226
5.81941
5.79554
5.77168
5.74581
5.97665
5.97783
5.97839
5.97774
5.97576
5.97249
5.96797
5.96227
5.95543
5.9475
5.93853
5.92855
5.91757
5.90559
5.89258
5.87847
5.86315
5.84646
5.82838
5.80912
5.789
5.76888
5.74707
5.94224
5.94321
5.94341
5.94235
5.94005
5.93665
5.93223
5.92689
5.92067
5.91363
5.90579
5.89719
5.88785
5.87776
5.8669
5.85521
5.84257
5.82887
5.81406
5.79828
5.78176
5.7652
5.74719
5.90781
5.90851
5.90815
5.90643
5.90365
5.90007
5.8958
5.8909
5.88541
5.87936
5.87276
5.86563
5.85799
5.84982
5.8411
5.8318
5.82181
5.81103
5.7994
5.78697
5.77387
5.76066
5.74625
5.87367
5.87404
5.87266
5.86987
5.86642
5.86265
5.85863
5.85432
5.84972
5.8448
5.83955
5.83398
5.82808
5.82185
5.81528
5.80832
5.80091
5.79299
5.7845
5.77534
5.76547
5.75543
5.74441
5.83942
5.83921
5.8367
5.83217
5.82791
5.82412
5.82058
5.81711
5.81359
5.80997
5.80619
5.80226
5.79815
5.79387
5.78941
5.78475
5.77988
5.77481
5.76954
5.7638
5.75696
5.74989
5.74214
5.80691
5.80553
5.80097
5.79211
5.78748
5.78432
5.78173
5.77943
5.77723
5.77506
5.77287
5.77065
5.76837
5.76605
5.76368
5.76126
5.75886
5.75664
5.75513
5.75307
5.74877
5.74432
5.73953
5.76609
5.75946
5.75467
5.74889
5.7477
5.74679
5.7459
5.74509
5.74434
5.74363
5.74294
5.74227
5.74161
5.74097
5.74033
5.73973
5.7392
5.73895
5.73979
5.74041
5.73782
5.73567
5.73368
1206.87
1327.16
1567.26
1572.3
993.605
958.966
869.98
828.56
729.66
734.661
735.992
705.749
728.429
735.097
734.848
732.4
726.248
732.109
738.091
744.581
721.267
730.325
737.512
743.294
429.067
509.972
657.634
730.333
17.6451
35.3637
77.636
152.302
6.05139
6.06212
6.20576
6.33845
5.83145
5.69921
5.54295
5.39297
5.8099
5.67541
5.50667
5.33705
5.74654
5.59732
5.42171
5.26726
5.67535
5.51516
5.33449
5.18575
5.62155
5.45762
5.2744
5.12652
5.58512
5.42128
5.23849
5.09142
5.56211
5.4006
5.22018
5.07494
5.54865
5.39085
5.21415
5.07195
5.54205
5.38888
5.21716
5.07883
5.54066
5.39286
5.22675
5.09298
5.54309
5.40125
5.24157
5.11275
5.54853
5.41294
5.25993
5.13651
5.55616
5.42698
5.28126
5.16347
5.56587
5.44327
5.30479
5.19282
5.57712
5.46127
5.33035
5.2241
5.5894
5.48036
5.35678
5.25639
5.60218
5.49983
5.38388
5.28936
5.61546
5.51975
5.41118
5.3226
5.6287
5.53974
5.43877
5.35601
5.64151
5.55936
5.46579
5.389
5.65364
5.57824
5.49233
5.42157
5.66532
5.59667
5.51821
5.45353
5.67658
5.61466
5.54377
5.485
5.68717
5.63194
5.56836
5.51553
5.69675
5.64808
5.59195
5.54502
5.70531
5.66311
5.61416
5.57309
5.71275
5.67686
5.6351
5.59974
5.71885
5.68909
5.65419
5.62452
5.72349
5.69958
5.67153
5.64745
5.72698
5.70868
5.6871
5.66853
5.72977
5.71682
5.70154
5.68823
5.7322
5.72436
5.71492
5.70651
5.73105
5.72824
5.72465
5.72105
1242.16
914.545
1028.3
1169.22
1078.2
1392.14
1538.37
1481.89
1228.89
1236.47
1236.83
1233.79
1230.75
1227.93
1224.16
1220.17
1203.1
1144.6
1124.3
727.998
743.277
924.262
1007.4
992.938
948.289
1122.25
1280.92
1216.26
1235.53
1238.71
1236.46
1234.51
1230.12
1228.27
1219.96
1091.53
934.068
970.661
704.665
757.958
779.154
832.197
791.421
806.807
827.422
1003.94
1123.05
1180.35
1204.94
1188.01
1143.4
1047.64
968.972
934.383
889.989
896.725
965.515
756.322
770.308
769.102
772.941
794.017
804.014
801.12
787.073
905.414
927.258
905.641
861.041
851.831
859.102
865.806
874.02
881.991
886.334
890.779
755.025
767.368
775.725
785.409
796.785
805.979
812.95
799.237
778.308
815.386
842.642
850.687
857.766
864.419
870.562
876.795
882.884
885.491
887.097
752.904
766.181
776.4
786.887
798.075
807.913
816.746
825.228
833.18
840.612
848.48
855.919
862.998
869.609
875.651
881.106
885.405
886.353
884.031
744.311
763.921
777.184
788.972
800.354
810.372
820.146
829.417
837.857
846.017
854.029
861.671
868.717
875.081
880.705
885.494
888.873
885.48
877.3
363.428
660.956
769.347
786.928
802.457
813.04
823.816
834.06
842.784
851.427
859.748
867.496
874.527
880.563
885.58
889.513
891.803
881.957
876.719
6.1886
48.0258
164.777
394.761
688.2
791.388
809.688
839.546
848.308
856.712
864.966
872.484
879.223
884.795
888.991
891.647
892.834
892.774
889.058
5.25861
5.20058
5.07562
5.33739
14.8785
55.0555
288.307
584.954
714.494
796.727
861.091
880.24
885.724
889.904
892.615
894.411
916.712
949.371
922.089
5.11283
4.9039
4.77082
4.67571
4.62743
4.56996
4.35936
4.24383
5.1931
194.498
368.134
511.075
668.946
729.862
738.531
729.362
628.142
411.355
277.345
5.08064
4.90489
4.77129
4.65024
4.53356
4.43089
4.34592
4.3233
4.36251
4.31423
4.04766
3.94558
15.4311
45.2132
46.8394
36.8489
36.6531
27.8273
5.33734
5.02979
4.89631
4.77891
4.6609
4.54673
4.4536
4.37586
4.33374
4.33325
4.29411
4.24876
4.22488
4.75052
5.61129
6.18041
4.26338
4.25926
4.3282
4.3747
4.98026
4.87404
4.77141
4.66569
4.56553
4.47898
4.40614
4.44683
5.20258
4.94477
4.33797
4.24928
4.58697
5.5843
5.42909
4.87604
4.45247
4.34294
4.35111
4.9484
4.85492
4.76271
4.6682
4.57889
4.50009
4.43171
5.03495
5.48193
5.43787
4.73126
4.24237
4.6695
6.55386
6.54191
5.81798
4.50409
4.33362
4.3504
4.93483
4.84931
4.76439
4.67748
4.59531
4.52117
4.45513
4.48997
5.27866
5.20822
4.43276
4.2389
4.28378
4.84886
4.9022
4.34152
4.29457
4.33594
4.35877
4.93538
4.85546
4.77631
4.69529
4.61861
4.54874
4.4902
4.42699
4.39725
4.33097
4.30201
4.27924
4.2622
4.23574
4.24676
4.28256
4.32425
4.36082
4.38682
4.94628
4.87077
4.79641
4.72043
4.64855
4.58264
4.52591
4.46961
4.42149
4.3835
4.35636
4.34281
4.32178
4.31161
4.32055
4.34421
4.37327
4.40098
4.42222
4.96497
4.89311
4.82288
4.7513
4.68367
4.62161
4.56575
4.51594
4.47302
4.43853
4.41282
4.39787
4.38612
4.37972
4.38602
4.40222
4.42303
4.44471
4.46197
4.98939
4.92085
4.85426
4.78658
4.72273
4.6642
4.61171
4.56556
4.52622
4.49453
4.47057
4.45349
4.4437
4.44099
4.44608
4.45772
4.47333
4.49057
4.50415
5.01823
4.95268
4.8894
4.82524
4.76482
4.7095
4.66009
4.61691
4.58033
4.55073
4.52814
4.51236
4.50316
4.50032
4.50372
4.51227
4.52424
4.53742
4.54786
5.0503
4.98764
4.9274
4.86646
4.80914
4.75675
4.71005
4.66939
4.63495
4.60699
4.58551
4.57039
4.56134
4.558
4.55991
4.56611
4.57525
4.58556
4.5929
5.08495
5.02494
4.96753
4.90956
4.85509
4.80534
4.76104
4.72249
4.68979
4.6631
4.64241
4.62761
4.61839
4.61436
4.61495
4.61928
4.62627
4.63429
4.63985
5.12132
5.06396
5.00923
4.95405
4.90221
4.85486
4.81267
4.77591
4.74464
4.71895
4.69883
4.68413
4.67459
4.6698
4.66919
4.67201
4.67727
4.68353
4.68791
5.15895
5.10417
5.05204
4.99952
4.95016
4.90501
4.86472
4.82952
4.79945
4.77457
4.75484
4.74013
4.7302
4.72467
4.72302
4.72455
4.72844
4.73341
4.73706
5.19722
5.14516
5.0956
5.04567
4.99867
4.9556
4.91707
4.88325
4.85424
4.83004
4.81061
4.79585
4.78552
4.77931
4.77675
4.77724
4.78006
4.7841
4.78733
5.23597
5.1866
5.13962
5.09223
5.04755
5.00649
4.96962
4.93711
4.90907
4.88548
4.86632
4.8515
4.84083
4.83403
4.8307
4.83033
4.83233
4.83572
4.83871
5.27473
5.22822
5.18384
5.13901
5.09663
5.05756
5.02232
4.9911
4.96399
4.941
4.92212
4.90728
4.89632
4.88904
4.88508
4.88403
4.88536
4.88833
4.89107
5.31339
5.26976
5.22805
5.18582
5.14577
5.1087
5.0751
5.04518
5.01902
4.99666
4.97809
4.96329
4.95213
4.94446
4.93999
4.93836
4.93916
4.94172
4.9443
5.35161
5.31103
5.27205
5.23248
5.19481
5.15978
5.12787
5.09929
5.07413
5.05243
5.03424
5.01955
5.00828
5.0003
4.99541
4.9933
4.99363
4.99577
4.99817
5.38939
5.35183
5.31564
5.2788
5.24357
5.21065
5.18051
5.15332
5.12922
5.10826
5.09051
5.07599
5.06468
5.05648
5.05124
5.0487
5.04861
5.05034
5.05251
5.42645
5.39198
5.35863
5.32457
5.29186
5.26114
5.23283
5.20713
5.18416
5.16402
5.14678
5.1325
5.1212
5.11283
5.10728
5.10437
5.10388
5.10518
5.10708
5.46269
5.43126
5.40079
5.36958
5.33947
5.31104
5.28467
5.26054
5.2388
5.21954
5.20287
5.18889
5.17765
5.16915
5.16334
5.16007
5.15919
5.1601
5.1617
5.49774
5.46942
5.44188
5.41359
5.38617
5.36013
5.3358
5.31337
5.29295
5.27467
5.25866
5.24502
5.23386
5.22525
5.21918
5.21558
5.21431
5.21483
5.21617
5.53149
5.50623
5.48165
5.45636
5.43173
5.40819
5.38604
5.36543
5.34647
5.32929
5.31401
5.30077
5.28971
5.28098
5.27465
5.27072
5.26907
5.26927
5.27043
5.56358
5.54146
5.5199
5.49766
5.47592
5.45501
5.43519
5.41656
5.39923
5.38329
5.36887
5.35611
5.3452
5.33633
5.32968
5.32541
5.32345
5.32342
5.3244
5.59394
5.57494
5.55643
5.53731
5.51854
5.5004
5.48306
5.46661
5.45111
5.43662
5.42325
5.41113
5.40045
5.39147
5.38447
5.37975
5.37746
5.37727
5.37813
5.62235
5.6066
5.59117
5.57519
5.55947
5.54422
5.52955
5.51549
5.50206
5.48929
5.47725
5.46602
5.45579
5.44681
5.43945
5.43423
5.43146
5.431
5.43183
5.64902
5.63656
5.62416
5.6113
5.59869
5.58647
5.57465
5.56322
5.55215
5.54143
5.53108
5.52115
5.51174
5.50308
5.49557
5.48978
5.4863
5.48528
5.48587
5.67415
5.66529
5.65559
5.6458
5.63638
5.62734
5.61858
5.61004
5.60165
5.59337
5.58518
5.57707
5.56908
5.56134
5.55415
5.54815
5.54375
5.54121
5.54102
5.69795
5.69348
5.68579
5.67853
5.67232
5.66659
5.66107
5.65564
5.65022
5.64478
5.63924
5.6336
5.62781
5.62189
5.61602
5.61077
5.60551
5.60032
5.5978
5.71871
5.71878
5.71589
5.71192
5.70938
5.70728
5.7053
5.70336
5.7014
5.69939
5.69732
5.69516
5.69289
5.69049
5.68797
5.68577
5.68266
5.67662
5.67675
)
;

boundaryField
{
    leftWall
    {
        type            fixedFluxPressure;
        gradient        uniform 0;
        value           nonuniform List<scalar> 
50
(
5940.95
5945.92
5945.93
5939
5922.86
5778.07
2693.38
1246.4
1237.78
1230.95
1224.99
1173.47
981.541
692.077
639.197
459.232
53.8849
6.47075
6.49075
6.4988
6.50404
6.50565
6.50279
6.49637
6.4867
6.47377
6.45777
6.43906
6.41806
6.39513
6.3706
6.34479
6.31797
6.29034
6.26201
6.23301
6.20336
6.17303
6.14199
6.11022
6.07772
6.04456
6.01082
5.97665
5.94224
5.90781
5.87367
5.83942
5.80691
5.76609
)
;
    }
    rightWall
    {
        type            fixedFluxPressure;
        gradient        uniform 0;
        value           nonuniform List<scalar> 
50
(
2613.54
2484.09
2228.39
1841.14
1507.13
1163.4
1169.72
1176.64
1124.3
970.661
965.515
890.779
887.097
884.031
877.3
876.719
889.058
922.089
277.345
5.33734
4.3747
4.35111
4.3504
4.35877
4.38682
4.42222
4.46197
4.50415
4.54786
4.5929
4.63985
4.68791
4.73706
4.78733
4.83871
4.89107
4.9443
4.99817
5.05251
5.10708
5.1617
5.21617
5.27043
5.3244
5.37813
5.43183
5.48587
5.54102
5.5978
5.67675
)
;
    }
    lowerWall
    {
        type            fixedFluxPressure;
        gradient        uniform 0;
        value           nonuniform List<scalar> 
62
(
5940.95
5912.86
5897.41
5893.45
5900.25
5915.49
5935.5
5956.74
5976.34
5991.9
6001.23
6003.58
5996.76
5981.41
5959.35
5932.01
5899.65
5861.4
5815.68
5760.96
5699.17
5641.08
5585.26
5585.26
5573.18
5558.79
5537.45
5509.99
4932.83
1568.01
1090.08
1206.87
1327.16
1567.26
1572.3
2541.44
2293.81
1588.54
1821.34
1746.37
1169.42
1098.76
1162.96
2541.44
2590.32
2684.61
2807.33
2918.43
3004.91
2948.08
2966.81
3000.65
3014.64
2996.16
2957.31
2987.56
2939.01
2862.92
2763.62
2679.9
2634.91
2613.54
)
;
    }
    atmosphere
    {
        type            prghTotalPressure;
        rho             rho;
        psi             none;
        gamma           1;
        p0              uniform 0;
        value           nonuniform List<scalar> 
46
(
5.72891
5.72891
5.72901
5.72904
5.72904
5.72904
5.72904
5.72904
5.72904
5.72904
5.72904
5.72904
5.72904
5.72904
5.72904
5.72904
5.72904
5.72904
5.72904
5.72904
5.72904
5.72904
5.72904
5.72904
5.72904
5.72904
5.72904
5.72904
5.72904
5.72904
5.72904
5.72904
5.72904
5.72904
5.72904
5.72904
5.72904
5.72904
5.72904
5.72904
5.72904
5.72904
5.72904
5.72904
5.72902
5.72884
)
;
        rho             rho;
    }
    defaultFaces
    {
        type            empty;
    }
}


// ************************************************************************* //
