/*--------------------------------*- C++ -*----------------------------------*\
  =========                 |
  \\      /  F ield         | OpenFOAM: The Open Source CFD Toolbox
   \\    /   O peration     | Website:  https://openfoam.org
    \\  /    A nd           | Version:  13
     \\/     M anipulation  |
\*---------------------------------------------------------------------------*/
FoamFile
{
    format      ascii;
    class       volScalarField;
    location    "1.85";
    object      rho;
}
// * * * * * * * * * * * * * * * * * * * * * * * * * * * * * * * * * * * * * //

dimensions      [1 -3 0 0 0 0 0];

internalField   nonuniform List<scalar> 
2268
(
13529
13529
13529
13529
13529
13529
13529
13529
13529
13529
13529
13529
13529
13529
13529
13529
13529
13529
13529
13527.3
13522.5
13521.6
13521.6
13529
13529
13529
13529
13529
13529
13529
13529
13529
13529
13529
13529
13529
13529
13529
13529
13529
13529
13529
13529
13529
13527.6
13527.1
13529
13529
13529
13529
13529
13529
13529
13529
13529
13529
13529
13529
13529
13529
13529
13529
13529
13529
13529
13529
13529
13529
13529
13529
13529
13529
13529
13529
13529
13529
13529
13529
13529
13529
13529
13529
13529
13529
13529
13529
13529
13529
13529
13529
13529
13529
13529
13529
13529
13529
13529
13529
13529
13529
13529
13529
13529
13529
13529
13529
13529
13529
13529
13529
13529
13529
13529
13529
13529
13140.5
12864.5
12812.3
12979.3
13238.6
13528
13529
13529
13529
13529
13529
13529
13529
13529
13529
13529
13509.9
13442.9
13334
13148.8
12831.5
12266.1
11661.9
4488.07
3891.29
3816.08
4123.85
4654.36
5389.42
6464.7
7448.52
8278.19
8926.23
9429.58
9749.03
9766.14
9347.3
8724.93
8016.29
7220.49
6362.96
5525.18
4708.14
3820.18
2866.92
2152.49
1000
1000
1000
1000
1000
1000
1000
1037.56
1110.39
1199.43
1220.3
1145.54
1000
1000
1000
1000
999.999
999.988
999.913
999.694
999.267
998.764
997.862
11862.4
11903.7
11937.7
11947.7
11935
11712.4
8749.56
8203.87
8243.52
8176.62
8073.09
8056.47
9809.08
10050.7
10079.3
9963.48
9746
9758.14
9753
7875.58
7592.89
9100.3
10754.4
11186.8
11342.2
11390
11367
11340.3
10977
10242.2
10229.9
10195.7
10237.7
10270.4
9655.96
9450.02
8879.67
7634.81
1877.94
1881.93
2221.72
3487.49
5131.55
6604.3
8363.01
10072
10669.7
10654.7
10716.9
9576.12
9495.28
8146.08
6541.22
5649.07
5169.1
5138.16
5524.5
3267.79
3136.48
1874.8
1629.17
2331.38
2862.44
2682.07
2431.65
3085.23
4585.55
4798.2
3966.57
3701.82
3480.52
3763.41
3556.38
2630.32
2500.46
3368.18
3044.1
3279.5
3205.59
2007.17
2092.2
2015.14
1345.7
1174.57
1030.66
679.596
2029.8
3119.17
2591.5
2753.95
2739.69
1930.36
1923.21
2006.75
1975.67
1136.17
2304.17
3184.09
2706.15
2111.68
1748.88
1886.54
1293.26
1049.38
857.035
427.526
905.045
1534.03
1194.16
849.207
914.075
1162.97
1218.63
830.011
971.381
911.943
2432.72
2420.84
1845.64
1792.9
1836.4
1808.95
1056.48
979.255
857.335
650.734
527.81
662.483
926.728
993.316
995.335
984.851
870.094
1145.91
895.888
903.991
2200.44
1335.33
1268.57
1723.94
1880.92
1047.59
1002.77
1000.34
988.094
956.818
966.978
998.742
999.963
979.624
980.293
899.723
1000
1000
1000
1000
1000
1000
1000
1000
1000
1000
1000
1000
1000
1000
1000
1000
999.999
999.992
999.952
999.949
999.913
999.849
998.567
1000
1000
1000
1000
1000
1000
1000
1000
1000
1000
1000
1000
1000
1000
1000
1000
1000
1000
999.998
994.187
981.549
956.559
910.302
1000
1000
1000
1000
1000
1000
1000
1000
1000
1000
1000
1000
1000
1000
998.543
993.979
983.341
963.523
915.698
841.622
747.491
646.362
541.26
944.483
981.98
988.164
996.334
997.941
999.994
1000
998.966
993.716
988.439
981.184
967.235
938.335
892.294
837.891
794.361
728.518
631.974
548.147
483.885
426.695
442.008
480.839
748.828
728.813
730.709
730.307
748.536
770.079
752.249
728.996
706.029
672.292
629.105
580.332
532.428
484.566
446.364
432.919
458.575
472.619
461.598
460.192
487.991
499.846
499.99
485.539
489.068
499.049
502.268
500.766
476.235
447.7
453.425
472.917
472.654
470.884
464.938
468.904
491.604
491.728
491.031
486.072
478.792
473.528
472.633
478.526
491.637
500
441.413
482.409
491.123
491.008
490.889
490
488.292
486.11
480.898
470.514
452.603
428.391
396.702
356.689
314.541
261.215
214.515
184.559
174.864
182.722
197.604
223.853
267.065
306.575
289.072
271.343
273.844
267.75
246.309
217.47
183.832
145.616
108.634
76.9222
50.3142
28.0056
7.44218
1.00018
1.00006
1.03055
1.00002
1.00004
1.00006
1.00005
1.0908
3.46339
30.6939
39.0092
40.8612
27.4156
6.96278
1.00012
1.00008
1.00012
1.00012
1.00009
1.00022
1.00073
1.00108
1.00089
1.00032
1.00007
1.00002
1.00002
1.00002
1.00004
1.00003
1.00003
1.00004
1.00035
1.00039
1.00265
2.5532
1.86891
1.01679
1.00018
1.00004
1.00009
1
1.02307
1.03989
1.01995
1.00119
1.00035
1.00026
1.00035
1.00032
1.00025
1.00016
1.00006
1.00004
1.00004
1.00034
1.00426
1.0007
1.22763
1.04888
1.00096
1.00007
1.00009
1.00049
1.0288
1.0881
1.08885
1.05205
1.00241
1.00095
1.00174
1.00185
1.00105
1.00056
1.00032
1.00029
1.00012
1.00006
1.00044
1.00859
1.00194
1.00416
1.00173
1.00015
1.00006
1.0002
1.00657
1.0861
1.08794
1.08873
1.03864
1.00308
1.00276
1.00295
1.00289
1.00091
1.00043
1.00031
1.00023
1.0002
1.00008
1.00045
1.00046
1.00021
1.00008
1.0002
1.00007
1.00009
1.00022
1.00362
1.05658
1.08604
1.0581
1.00285
1.00308
1.00312
1.00299
1.00101
1.00033
1.00015
1.0001
1.00015
1.00013
1.00007
1.00044
1.00049
1.00024
1.00009
1.00008
1.00007
1.0001
1.0002
1.00036
1.00007
1.01044
1.00166
1.00075
1.00222
1.00147
1.00029
1.00008
1.00009
1.00006
1.00005
1.00006
1.00007
1.00004
1.00018
1.00026
1.00012
1.00007
1.00006
1.00006
1.0001
1.00023
1.0003
1.00001
1.00001
1.00003
1.00032
1.00065
1.00003
1.00001
1.00001
1.00003
1.00003
1.00002
1.00003
1.00003
1.00002
1.00005
1.00008
1.00006
1.00005
1.00004
1.00004
1.00002
1.00001
1.00001
1.00001
1.00003
1.00019
1.00059
1.00063
1.00004
1.00001
1.00002
1.00002
1.00002
1.00002
1.00001
1.00001
1.00001
1.00004
1.00005
1.00005
1.00004
1.00003
1.00002
1.00001
1.00001
1.00001
1.00001
1.00005
1.00027
1.00054
1.0003
1.00001
1.00002
1.00002
1.00001
1.00001
1.00001
1.00001
1.00001
1.00001
1.00004
1.00005
1.00005
1.00004
1.00003
1.00002
1.00001
1.00001
1.00001
1.00002
1.00004
1.00009
1.00007
1.00001
1.00001
1.00001
1.00001
1.00001
1.00001
1.00001
1.00001
1.00001
1.00001
1.00004
1.00005
1.00005
1.00004
1.00003
1.00002
1.00001
1.00001
1.00001
1.00001
1.00001
1.00001
1
1.00001
1.00001
1.00001
1.00001
1.00001
1.00001
1
1
1
1
1.00003
1.00004
1.00004
1.00004
1.00003
1.00002
1.00001
1.00001
1.00001
1.00001
1
1
1
1
1.00001
1.00001
1
1
1
1
1
1
1
1.00003
1.00003
1.00003
1.00003
1.00002
1.00002
1.00001
1.00001
1
1
1
1
1
1
1
1
1
1
1
1
1
1
1
1.00002
1.00002
1.00002
1.00002
1.00002
1.00001
1.00001
1
1
1
1
1
1
1
1
1
1
1
1
1
1
1
1
1.00002
1.00002
1.00002
1.00001
1.00001
1.00001
1.00001
1
1
1
1
1
1
1
1
1
1
1
1
1
1
1
1
1.00001
1.00001
1.00001
1.00001
1.00001
1.00001
1
1
1
1
1
1
1
1
1
1
1
1
1
1
1
1
1
1.00001
1.00001
1.00001
1
1
1
1
1
1
1
1
1
1
1
1
1
1
1
1
1
1
1
1
1.00001
1.00001
1
1
1
1
1
1
1
1
1
1
1
1
1
1
1
1
1
1
1
1
1
1.00001
1
1
1
1
1
1
1
1
1
1
1
1
1
1
1
1
1
1
1
1
1
1
1
1
1
1
1
1
1
1
1
1
1
1
1
1
1
1
1
1
1
1
1
1
1
1
1
1
1
1
1
1
1
1
1
1
1
1
1
1
1
1
1
1
1
1
1
1
1
1
1
1
1
1
1
1
1
1
1
1
1
1
1
1
1
1
1
1
1
1
1
1
1
1
1
1
1
1
1
1
1
1
1
1
1
1
1
1
1
1
1
1
1
1
1
1
1
1
1
1
1
1
1
1
1
1
1
1
1
1
1
1
1
1
1
1
1
1
1
1
1
1
1
1
1
1
1
1
1
1
1
1
1
1
1
1
1
1
1
1
1
1
1
1
1
1
1
1
1
1
1
1
1
1
1
1
1
1
1
1
1
1
1
1
1
1
1
1
1
1
1
1
1
1
1
1
1
1
1
1
1
1
1
1
1
1
1
1
1
1
1
1
1
1
1
1
1
1
1
1
1
1
1
1
1
1
1
1
1
1
1
1
1
1
1
1
1
1
1
1
1
1
1
1
1
1
1
1
1
1
1
1
1
1
1
1
1
1
1
1
1
1
1
1
1
1
1
1
1
1
1
1
1
1
1
1
1
1
1
1
1
1
1
1
1
1
1
1
1
1
1
1
1
1
1
1
1
1
1
1
1
1
1
1
1
1
1
1
1
1
1
1
1
1
1
1
1
1
1
1
1
1
1
1
1
1
1
1
1
1
1
1
1
1
1
1
1
1
1
1
1
1
1
1
1
1
1
1
1
1
1
1
1
1
1
1
1
1
1
1
1
1
1
1
1
1
1
1203.63
1423.09
1864.43
1874.63
872.339
823.473
689.657
623.005
498.74
497.828
492.218
445.053
499.897
499.994
492.041
481.577
500
499.976
499.782
500.001
500
500
500
500
295.137
349.207
452.276
500
7.55209
19.0204
46.6775
95.3792
1.00008
1.00015
1.00059
1.00024
1.00005
1.00005
1.00006
1.00008
1.00005
1.00005
1.00004
1.00005
1.00007
1.00006
1.00004
1.00004
1.00006
1.00005
1.00005
1.00004
1.00004
1.00004
1.00004
1.00003
1.00002
1.00002
1.00002
1.00002
1.00001
1.00001
1.00001
1.00001
1.00001
1.00001
1.00001
1.00001
1
1
1
1
1
1
1
1
1
1
1
1
1
1
1
1
1
1
1
1
1
1
1
1
1
1
1
1
1
1
1
1
1
1
1
1
1
1
1
1
1
1
1
1
1
1
1
1
1
1
1
1
1
1
1
1
1
1
1
1
1
1
1
1
1
1
1
1
1
1
1
1
1
1
1
1
1
1
1
1
1
1
1
1
1
1
1
1
1
1
1
1
1
1
1
1
1
1
1
1
1299.93
652.912
871.366
1112.33
886.594
1428.03
1659.99
1513.08
999.969
1001.1
1001.68
1001.63
1000.95
1000.4
1000.14
1000.45
984.968
884.996
825.939
451.662
432.455
706.021
818.535
770.947
690.615
932.444
1129.42
986.4
999.584
1000.17
998.322
999.147
997.859
999.574
988.733
795.922
550.096
589.011
428.313
477.704
506.401
565.141
495.159
502.949
522.831
730.75
854.833
914.783
940.813
916.756
857.036
732.221
628.913
580.099
513.983
510.807
592.197
496.572
499.791
493.982
489.489
498.272
500.071
492.045
471.491
590.861
604.65
573.228
517.388
499.994
499.99
500.059
502.132
502.867
502.042
506.529
500.002
500.001
500.001
500.081
500.181
500.13
500.01
480.578
453.987
481.887
499.995
499.97
499.986
499.99
499.953
500.261
500.837
500.547
502.917
500
500
500
500.002
500.013
499.978
499.936
500.001
500.004
500.007
500.14
499.969
499.976
499.988
499.992
500
500
499.657
499.302
500
500
500
500.001
500.002
500.004
500.006
500.001
500.001
500.009
500.012
500.01
499.998
499.998
500
500
500.002
497.088
492.717
235.979
434.262
500
500.001
500.001
500.002
500.002
500.001
500.005
500.009
500.008
500.002
500
500
500.001
500
499.94
493.137
491.811
1.08713
26.7295
98.6149
241.578
425.175
486.962
489.679
500.001
500.004
500.002
500
500
500.001
500.006
500.008
500.005
499.994
500.713
501.481
1.00018
1.00026
1.0004
1.27827
6.80661
29.7271
165.116
338.158
413.416
457.991
492.213
500
500.002
500.007
500.014
500.297
513.992
536.176
523.666
1.00007
1.00007
1.00014
1.00051
1.00014
1.00027
1.00017
1.00029
1.42721
104.667
199.689
278.108
364.94
398.113
402.495
396.889
340.875
221.593
148.913
1.00004
1.00005
1.00006
1.00014
1.00013
1.00013
1.00016
1.00023
1.00027
1.00026
1.00019
1.00063
7.02522
22.3648
23.1313
17.9268
17.6656
12.9824
1.47357
1.00004
1.00004
1.00004
1.0001
1.00016
1.00013
1.00005
1.00013
1.00466
1.00268
1.00069
1.00325
1.27906
1.72828
1.98994
1.02957
1.00877
1.00328
1.00227
1.00003
1.00003
1.00005
1.00013
1.00018
1.00014
1.00006
1.04225
1.40746
1.30746
1.03631
1.00199
1.16206
1.61901
1.53745
1.26553
1.06569
1.00819
1.00393
1.00002
1.00003
1.00005
1.00013
1.00018
1.00013
1.00005
1.28826
1.50304
1.50279
1.20908
1.00074
1.20205
2.02621
2.01435
1.68928
1.09662
1.0086
1.00398
1.00001
1.00002
1.00004
1.00011
1.00016
1.0001
1.00005
1.04009
1.38845
1.37761
1.07078
1.00058
1.03033
1.27752
1.29522
1.04567
1.00439
1.00332
1.00034
1.00001
1.00001
1.00002
1.00005
1.00007
1.00011
1.00205
1.00034
1.01005
1.00015
1.0002
1.00086
1.00356
1.00007
1.00004
1.00005
1.00004
1.00013
1.00024
1
1.00001
1.00001
1.00003
1.00004
1.00005
1.00118
1.00043
1.00018
1.0001
1.00047
1.00325
1.00118
1.00014
1.00005
1.00004
1.00006
1.00017
1.00034
1
1
1.00001
1.00001
1.00003
1.00005
1.00007
1.00009
1.00009
1.00009
1.00017
1.00141
1.00124
1.0003
1.00003
1.00004
1.00009
1.00028
1.00046
1
1
1
1.00001
1.00001
1.00003
1.00003
1.00005
1.00006
1.00008
1.00012
1.00001
1.00001
1.00001
1.00003
1.00004
1.00009
1.00028
1.00042
1
1
1
1
1.00001
1.00001
1.00002
1.00003
1.00003
1.00004
1.00003
1.00002
1.00001
1.00002
1.00003
1.00004
1.00007
1.00008
1.00023
1
1
1
1
1
1
1.00001
1.00001
1.00001
1.00001
1.00001
1.00001
1.00001
1.00001
1.00002
1.00002
1.00003
1.00002
1.00001
1
1
1
1
1
1
1
1
1
1
1
1
1
1.00001
1.00001
1.00001
1.00001
1.00001
1.00001
1
1
1
1
1
1
1
1
1
1
1
1
1
1
1.00001
1.00001
1.00001
1.00001
1.00001
1
1
1
1
1
1
1
1
1
1
1
1
1
1
1
1.00001
1.00001
1.00001
1.00001
1
1
1
1
1
1
1
1
1
1
1
1
1
1
1
1.00001
1.00001
1.00001
1.00001
1
1
1
1
1
1
1
1
1
1
1
1
1
1
1
1.00001
1.00002
1.00002
1.00002
1
1
1
1
1
1
1
1
1
1
1
1
1
1
1
1.00001
1.00002
1.00005
1.00002
1
1
1
1
1
1
1
1
1
1
1
1
1
1
1
1.00001
1.00002
1.00005
1.00003
1
1
1
1
1
1
1
1
1
1
1
1
1
1
1
1.00001
1.00003
1.00005
1.00003
1
1
1
1
1
1
1
1
1
1
1
1
1
1
1
1.00001
1.00004
1.00005
1.00003
1
1
1
1
1
1
1
1
1
1
1
1
1
1
1
1.00001
1.00004
1.00005
1.00002
1
1
1
1
1
1
1
1
1
1
1
1
1
1
1
1.00001
1.00004
1.00005
1.00002
1
1
1
1
1
1
1
1
1
1
1
1
1
1
1
1.00001
1.00003
1.00004
1.00001
1
1
1
1
1
1
1
1
1
1
1
1
1
1
1
1.00001
1.00001
1.00001
1.00001
1
1
1
1
1
1
1
1
1
1
1
1
1
1
1
1.00001
1.00001
1.00001
1
1
1
1
1
1
1
1
1
1
1
1
1
1
1
1
1
1
1
1
1
1
1
1
1
1
1
1
1
1
1
1
1
1
1
1
1
1
1
1
1
1
1
1
1
1
1
1
1
1
1
1
1
1
1
1
1
1
1
1
1
1
1
1
1
1
1
1
1
1
1
1
1
1
1
1
1
1
1
1
1
1
1
1
1
1
1
1
1
1
1
1
1
1
1
1
1
1
1
1
1
1
1
1
1
1
1
1
1
1
1
1
1
1
1
)
;

boundaryField
{
    leftWall
    {
        type            calculated;
        value           nonuniform List<scalar> 
50
(
13529
13529
13529
13529
13529
13140.5
4488.07
1000
1000
1000
1000
944.483
748.828
485.539
441.413
306.575
30.6939
1.00035
1.00034
1.00044
1.00045
1.00044
1.00018
1.00005
1.00004
1.00004
1.00004
1.00003
1.00003
1.00002
1.00002
1.00001
1.00001
1.00001
1.00001
1
1
1
1
1
1
1
1
1
1
1
1
1
1
1
)
;
    }
    rightWall
    {
        type            calculated;
        value           nonuniform List<scalar> 
50
(
9753
7634.81
5524.5
3368.18
1975.67
830.011
870.094
899.723
825.939
589.011
592.197
506.529
502.917
499.302
492.717
491.811
501.481
523.666
148.913
1.47357
1.00227
1.00393
1.00398
1.00034
1.00024
1.00034
1.00046
1.00042
1.00023
1.00001
1.00001
1.00001
1.00001
1.00001
1.00002
1.00002
1.00003
1.00003
1.00003
1.00002
1.00002
1.00001
1.00001
1
1
1
1
1
1
1
)
;
    }
    lowerWall
    {
        type            calculated;
        value           nonuniform List<scalar> 
62
(
13529
13529
13529
13529
13529
13529
13529
13529
13529
13529
13529
13529
13529
13529
13529
13529
13529
13529
13529
13527.3
13522.5
13521.6
13521.6
13521.6
13527.1
13529
13529
13529
11661.9
2152.49
997.862
1203.63
1423.09
1864.43
1874.63
11862.4
7875.58
1877.94
3267.79
3044.1
1136.17
971.381
1145.91
11862.4
11903.7
11937.7
11947.7
11935
11712.4
8749.56
8203.87
8243.52
8176.62
8073.09
8056.47
9809.08
10050.7
10079.3
9963.48
9746
9758.14
9753
)
;
    }
    atmosphere
    {
        type            calculated;
        value           nonuniform List<scalar> 
46
(
1
1
1
1
1
1
1
1
1
1
1
1
1
1
1
1
1
1
1
1
1
1
1
1
1
1
1
1
1
1
1
1
1
1
1
1
1
1
1
1
1
1
1
1
1
1
)
;
    }
    defaultFaces
    {
        type            empty;
    }
}


// ************************************************************************* //
