/*--------------------------------*- C++ -*----------------------------------*\
  =========                 |
  \\      /  F ield         | OpenFOAM: The Open Source CFD Toolbox
   \\    /   O peration     | Website:  https://openfoam.org
    \\  /    A nd           | Version:  13
     \\/     M anipulation  |
\*---------------------------------------------------------------------------*/
FoamFile
{
    format      ascii;
    class       volVectorField;
    location    "1.85";
    object      U;
}
// * * * * * * * * * * * * * * * * * * * * * * * * * * * * * * * * * * * * * //

dimensions      [0 1 -1 0 0 0 0];

internalField   nonuniform List<vector> 
2268
(
(-0.0149598 0.00684467 0)
(-0.0334024 0.00744189 0)
(-0.059844 0.00793871 0)
(-0.08482 0.00738903 0)
(-0.106601 0.00651796 0)
(-0.124806 0.00548216 0)
(-0.139195 0.00438936 0)
(-0.149862 0.00331581 0)
(-0.157087 0.00229031 0)
(-0.161135 0.00128683 0)
(-0.162118 0.000231587 0)
(-0.159948 -0.000800736 0)
(-0.154733 -0.00184672 0)
(-0.146905 -0.0028248 0)
(-0.136681 -0.00385625 0)
(-0.123791 -0.00507915 0)
(-0.10795 -0.00639567 0)
(-0.0893777 -0.00759305 0)
(-0.0686787 -0.00857353 0)
(-0.0467983 -0.00913782 0)
(-0.0255004 -0.00859526 0)
(-0.0065053 -0.00530944 0)
(-0.00276383 -0.00231583 0)
(-0.0150713 0.0160912 0)
(-0.0375025 0.0185418 0)
(-0.0638729 0.0188188 0)
(-0.088424 0.0170043 0)
(-0.109478 0.0145346 0)
(-0.126729 0.0117698 0)
(-0.139926 0.00896156 0)
(-0.149203 0.0063087 0)
(-0.154921 0.00387691 0)
(-0.157398 0.00158088 0)
(-0.156731 -0.000722646 0)
(-0.152953 -0.00297259 0)
(-0.146361 -0.00502778 0)
(-0.137486 -0.00679438 0)
(-0.126678 -0.00854063 0)
(-0.113841 -0.0104936 0)
(-0.0989069 -0.0124613 0)
(-0.08223 -0.0141055 0)
(-0.0644213 -0.0152447 0)
(-0.0462615 -0.0155101 0)
(-0.0289709 -0.013948 0)
(-0.0135261 -0.00901983 0)
(-0.00631251 -0.00198499 0)
(-0.0163378 0.0283325 0)
(-0.0416945 0.0307613 0)
(-0.067148 0.030215 0)
(-0.0905335 0.0270568 0)
(-0.110334 0.0229078 0)
(-0.126293 0.0182922 0)
(-0.138169 0.0136102 0)
(-0.146139 0.00927289 0)
(-0.150608 0.00533178 0)
(-0.151907 0.00162946 0)
(-0.150142 -0.00203199 0)
(-0.145409 -0.00559298 0)
(-0.138095 -0.00869987 0)
(-0.128822 -0.0112784 0)
(-0.117976 -0.0137747 0)
(-0.105536 -0.0164781 0)
(-0.0915606 -0.0190967 0)
(-0.0764834 -0.0211812 0)
(-0.0608739 -0.0224964 0)
(-0.0453298 -0.0225848 0)
(-0.0306906 -0.0204072 0)
(-0.017377 -0.0148818 0)
(-0.00899367 -0.00767692 0)
(-0.0176239 0.0423419 0)
(-0.0451055 0.0437907 0)
(-0.0695866 0.0418166 0)
(-0.0916427 0.0371506 0)
(-0.110085 0.0312424 0)
(-0.124726 0.0246699 0)
(-0.135318 0.0181066 0)
(-0.142098 0.0119938 0)
(-0.145521 0.00646252 0)
(-0.145894 0.00128566 0)
(-0.143325 -0.00378527 0)
(-0.137956 -0.00862534 0)
(-0.130242 -0.0127453 0)
(-0.120868 -0.0161086 0)
(-0.110216 -0.0192842 0)
(-0.0982809 -0.022652 0)
(-0.0852207 -0.0258092 0)
(-0.0715074 -0.0281933 0)
(-0.057638 -0.0295722 0)
(-0.0440197 -0.0294686 0)
(-0.0311755 -0.0268619 0)
(-0.0190753 -0.0211683 0)
(-0.00966307 -0.0140547 0)
(-0.0195244 0.0555961 0)
(-0.0472398 0.0562609 0)
(-0.0706377 0.0526032 0)
(-0.0912689 0.0465241 0)
(-0.108358 0.0390247 0)
(-0.12172 0.0306573 0)
(-0.131223 0.0221852 0)
(-0.137088 0.0143432 0)
(-0.13969 0.007225 0)
(-0.139374 0.000574142 0)
(-0.136255 -0.00590802 0)
(-0.130534 -0.0119819 0)
(-0.122721 -0.0170615 0)
(-0.113493 -0.0210657 0)
(-0.10318 -0.0248498 0)
(-0.0917965 -0.028759 0)
(-0.0795791 -0.0322632 0)
(-0.0670208 -0.0347646 0)
(-0.0545378 -0.0360693 0)
(-0.0423738 -0.0357316 0)
(-0.0308314 -0.0328291 0)
(-0.0194931 -0.0272861 0)
(-0.0102067 -0.0212839 0)
(-0.0236836 0.0668764 0)
(-0.0476758 0.0657109 0)
(-0.0696 0.0604878 0)
(-0.0886634 0.0532694 0)
(-0.104413 0.0445762 0)
(-0.116811 0.0348724 0)
(-0.125549 0.0250212 0)
(-0.130742 0.015902 0)
(-0.132874 0.00757777 0)
(-0.132174 -0.000273442 0)
(-0.128799 -0.00790464 0)
(-0.123062 -0.0149788 0)
(-0.115459 -0.0207495 0)
(-0.106653 -0.0252312 0)
(-0.0968486 -0.0294025 0)
(-0.0860098 -0.0336083 0)
(-0.0746 -0.0372079 0)
(-0.0630704 -0.0396203 0)
(-0.0517434 -0.0407372 0)
(-0.0408405 -0.0401827 0)
(-0.0305771 -0.037186 0)
(-0.0199071 -0.032162 0)
(-0.0129529 -0.0294413 0)
(-0.0272169 0.0846184 0)
(-0.0447894 0.0757846 0)
(-0.0648786 0.0685059 0)
(-0.0820618 0.059951 0)
(-0.0964213 0.0499771 0)
(-0.107912 0.0389803 0)
(-0.116372 0.0278761 0)
(-0.121568 0.0174526 0)
(-0.1237 0.00798149 0)
(-0.123009 -0.000906823 0)
(-0.119817 -0.00943016 0)
(-0.114621 -0.017258 0)
(-0.107969 -0.0236342 0)
(-0.0999487 -0.0286661 0)
(-0.0905545 -0.0332899 0)
(-0.0802286 -0.0378485 0)
(-0.0694608 -0.0416269 0)
(-0.0586264 -0.0440229 0)
(-0.0480965 -0.0449783 0)
(-0.038192 -0.0441926 0)
(-0.0291594 -0.0408925 0)
(-0.019036 -0.0351601 0)
(-0.016417 -0.0320319 0)
(-0.0201723 0.113618 0)
(-0.0320491 0.0916562 0)
(-0.0477019 0.0814289 0)
(-0.0614061 0.0702065 0)
(-0.0741085 0.0576244 0)
(-0.0855434 0.0442314 0)
(-0.0952992 0.030453 0)
(-0.102355 0.018414 0)
(-0.1062 0.00768381 0)
(-0.106662 -0.00221867 0)
(-0.104495 -0.0115626 0)
(-0.10063 -0.0199311 0)
(-0.0952614 -0.0265826 0)
(-0.0879219 -0.0318022 0)
(-0.0789974 -0.0368751 0)
(-0.0688775 -0.0417851 0)
(-0.058457 -0.0458272 0)
(-0.0479883 -0.0484649 0)
(-0.0379126 -0.0495769 0)
(-0.0289033 -0.0488701 0)
(-0.021473 -0.04581 0)
(-0.0133858 -0.0400547 0)
(-0.0119272 -0.0402313 0)
(0.0110206 -0.00792921 0)
(0.024948 -0.00891945 0)
(0.0433334 -0.00823339 0)
(0.0538503 -0.00401999 0)
(0.059757 -0.0031116 0)
(0.0702147 -0.00543813 0)
(0.0777214 0.000546713 0)
(0.0864753 -0.0052155 0)
(0.10388 -0.00975205 0)
(0.127678 -0.0104691 0)
(0.153228 -0.00717702 0)
(0.167916 -0.00040437 0)
(0.169073 0.00238418 0)
(0.156544 0.00975746 0)
(0.125573 0.0143751 0)
(0.0843857 0.0150899 0)
(0.0452333 0.0100654 0)
(0.0202183 0.00307743 0)
(0.00838864 0.00377184 0)
(0.0221591 -0.0101985 0)
(0.040863 -0.00927865 0)
(0.0665605 -0.00771483 0)
(0.0723191 -0.00369978 0)
(0.0702542 -0.00370555 0)
(0.0729653 -0.00763981 0)
(0.0833739 -0.00427602 0)
(0.0967662 -0.00895713 0)
(0.107894 -0.0125548 0)
(0.119895 -0.0153795 0)
(0.137805 -0.0146088 0)
(0.154616 -0.0046334 0)
(0.16053 0.000957294 0)
(0.152572 0.0138589 0)
(0.130693 0.0216385 0)
(0.0999537 0.0256399 0)
(0.0633289 0.0221913 0)
(0.0288778 0.0150732 0)
(-0.0016617 0.00827293 0)
(0.0236807 -0.0183807 0)
(0.042117 -0.0243577 0)
(0.088727 -0.0118162 0)
(0.0935879 -0.00129399 0)
(0.0844609 -0.00325001 0)
(0.0830923 -0.00986551 0)
(0.0938194 -0.00878902 0)
(0.106192 -0.0119649 0)
(0.111569 -0.0145783 0)
(0.115331 -0.0185133 0)
(0.125532 -0.0195411 0)
(0.139018 -0.00825351 0)
(0.145952 0.00142315 0)
(0.141772 0.0182582 0)
(0.129228 0.0289143 0)
(0.109446 0.0369809 0)
(0.0783903 0.036236 0)
(0.0408867 0.0291037 0)
(0.00611952 0.012246 0)
(0.0416703 -0.0406961 0)
(0.0394695 -0.0507401 0)
(0.0935253 -0.0339038 0)
(0.121164 0.00147208 0)
(0.104714 0.000900589 0)
(0.0911772 -0.0120623 0)
(0.0995398 -0.0140573 0)
(0.114802 -0.0148571 0)
(0.117638 -0.0150838 0)
(0.113367 -0.0200145 0)
(0.113218 -0.0229252 0)
(0.121698 -0.0125834 0)
(0.129882 0.000198183 0)
(0.127669 0.020739 0)
(0.122289 0.0337392 0)
(0.112151 0.0462759 0)
(0.0908706 0.0504742 0)
(0.0618306 0.0454867 0)
(0.040373 0.027489 0)
(0.0517056 -0.0554915 0)
(0.0293028 -0.0604387 0)
(0.0692047 -0.053538 0)
(0.107518 -0.00628015 0)
(0.104929 0.0103685 0)
(0.081403 -0.00905943 0)
(0.0850299 -0.0225623 0)
(0.11255 -0.0222677 0)
(0.123 -0.0136982 0)
(0.112262 -0.0179812 0)
(0.103784 -0.0247911 0)
(0.105124 -0.0164301 0)
(0.111584 -0.000593834 0)
(0.115413 0.0221786 0)
(0.115397 0.03597 0)
(0.110045 0.0521956 0)
(0.0996878 0.0584675 0)
(0.0827672 0.0548436 0)
(0.0728825 0.0536105 0)
(0.0698357 -0.0608078 0)
(0.0245525 -0.0612975 0)
(0.0441389 -0.0655748 0)
(0.0742571 -0.0174487 0)
(0.0790424 0.0183706 0)
(0.054515 -0.00342804 0)
(0.0565388 -0.0299096 0)
(0.0821918 -0.0335175 0)
(0.101191 -0.0130639 0)
(0.0945065 -0.0132171 0)
(0.0941676 -0.0207194 0)
(0.0924001 -0.0187666 0)
(0.0961094 -0.00242933 0)
(0.102004 0.0208237 0)
(0.106046 0.0353798 0)
(0.110149 0.0550512 0)
(0.109238 0.0621163 0)
(0.092244 0.0621206 0)
(0.074689 0.0916046 0)
(0.100804 -0.0946438 0)
(0.0295814 -0.0456711 0)
(0.022692 -0.0703955 0)
(0.0377116 -0.0267875 0)
(0.0433506 0.0236376 0)
(0.0259332 0.000962357 0)
(0.0288749 -0.0355492 0)
(0.0476388 -0.0429827 0)
(0.0653429 -0.0133916 0)
(0.0642855 -0.0147629 0)
(0.0665651 -0.0207927 0)
(0.0729413 -0.0190797 0)
(0.0790933 -0.00556848 0)
(0.088012 0.0164726 0)
(0.0998328 0.0326601 0)
(0.111561 0.0513311 0)
(0.115707 0.0642266 0)
(0.0943598 0.0753821 0)
(0.0594734 0.124161 0)
(0.104985 -0.120736 0)
(0.0319309 -0.0271746 0)
(-5.7071e-05 -0.0661025 0)
(0.00284817 -0.0319006 0)
(0.00424706 0.0281813 0)
(-0.00400133 0.00183048 0)
(0.00137185 -0.0404582 0)
(0.0145551 -0.0494113 0)
(0.0271791 -0.0166051 0)
(0.0345523 -0.0176469 0)
(0.0421466 -0.0233865 0)
(0.0514625 -0.0232049 0)
(0.0627182 -0.00973117 0)
(0.0770455 0.0107988 0)
(0.0925567 0.0261713 0)
(0.107547 0.0459384 0)
(0.113566 0.0669605 0)
(0.0903956 0.0926473 0)
(0.0489381 0.148321 0)
(0.00573683 0.11326 0)
(-0.000449543 0.102248 0)
(-0.00592662 0.0935897 0)
(-0.0104638 0.0831587 0)
(-0.0147684 0.0710961 0)
(-0.0190591 0.0575199 0)
(-0.0236599 0.0430053 0)
(-0.0282677 0.0275354 0)
(-0.0320373 0.0122457 0)
(-0.0344669 -0.00227151 0)
(-0.0349736 -0.0153124 0)
(-0.0333662 -0.0267835 0)
(-0.0298208 -0.0363585 0)
(-0.0253944 -0.0448368 0)
(-0.0199314 -0.0517138 0)
(-0.0136923 -0.0574764 0)
(-0.00693225 -0.0615877 0)
(-0.000362043 -0.0634037 0)
(0.00524938 -0.0627928 0)
(0.0091043 -0.0595451 0)
(0.0108363 -0.0535727 0)
(0.0115767 -0.0451515 0)
(0.00126995 -0.0424552 0)
(0.00946941 0.100742 0)
(0.0116197 0.0963025 0)
(0.0158151 0.0873118 0)
(0.0201756 0.0765485 0)
(0.024424 0.0647726 0)
(0.0280123 0.0523189 0)
(0.0305762 0.0393256 0)
(0.0321931 0.0261314 0)
(0.033326 0.0127639 0)
(0.0343612 -0.000452949 0)
(0.0353888 -0.0130968 0)
(0.0365046 -0.0244387 0)
(0.0379634 -0.0340678 0)
(0.0397392 -0.0418529 0)
(0.0417055 -0.0487591 0)
(0.0437497 -0.0546273 0)
(0.0455057 -0.0586134 0)
(0.0462812 -0.0599347 0)
(0.0451818 -0.0582251 0)
(0.0416082 -0.0536396 0)
(0.0357287 -0.0466275 0)
(0.0293345 -0.0386479 0)
(0.0233437 -0.0344059 0)
(0.00170384 0.0912163 0)
(0.0116249 0.0869835 0)
(0.0223998 0.0779167 0)
(0.0332136 0.0673296 0)
(0.0435996 0.056247 0)
(0.0529925 0.0449715 0)
(0.0607983 0.0336792 0)
(0.0670394 0.0217302 0)
(0.0721968 0.00924517 0)
(0.0765336 -0.00325982 0)
(0.0799567 -0.0151668 0)
(0.0824597 -0.0258919 0)
(0.0840762 -0.0349413 0)
(0.0848087 -0.0424254 0)
(0.0844548 -0.0485823 0)
(0.0828925 -0.0537344 0)
(0.0798423 -0.0567931 0)
(0.074331 -0.0563156 0)
(0.0652785 -0.0522343 0)
(0.0519597 -0.0449633 0)
(0.0339016 -0.0351217 0)
(0.0118125 -0.0247098 0)
(-0.0145834 -0.0163032 0)
(0.00112081 0.084469 0)
(0.0136106 0.0755714 0)
(0.0265622 0.065343 0)
(0.0407844 0.0550524 0)
(0.0548104 0.0446096 0)
(0.0677178 0.0345926 0)
(0.0786892 0.0252469 0)
(0.0877534 0.014775 0)
(0.0956028 0.00335051 0)
(0.102384 -0.00796167 0)
(0.107649 -0.0185816 0)
(0.111257 -0.0280318 0)
(0.113197 -0.0359873 0)
(0.113404 -0.0422174 0)
(0.111478 -0.046816 0)
(0.106696 -0.0501835 0)
(0.0987228 -0.0509049 0)
(0.0866385 -0.04635 0)
(0.0686504 -0.0365249 0)
(0.0440464 -0.0227394 0)
(0.012748 -0.00617904 0)
(-0.02293 0.00825122 0)
(-0.0600292 0.0194572 0)
(-0.00116142 0.0782151 0)
(0.0180592 0.0636949 0)
(0.0336775 0.050834 0)
(0.0509635 0.0404954 0)
(0.0671731 0.0307117 0)
(0.0812872 0.0224849 0)
(0.093063 0.0153477 0)
(0.10315 0.00598133 0)
(0.112381 -0.00485504 0)
(0.120447 -0.0149683 0)
(0.126773 -0.0239597 0)
(0.131009 -0.0315402 0)
(0.132985 -0.0374335 0)
(0.132922 -0.0414088 0)
(0.130182 -0.0423098 0)
(0.122914 -0.0405976 0)
(0.109843 -0.0357888 0)
(0.0911584 -0.0247701 0)
(0.0661813 -0.00711635 0)
(0.0344682 0.014146 0)
(-0.0018772 0.0352444 0)
(-0.0424768 0.0525225 0)
(-0.086553 0.0644029 0)
(-0.0037266 0.0710779 0)
(0.0244349 0.0422381 0)
(0.0447046 0.0297391 0)
(0.0633863 0.0210706 0)
(0.0796214 0.0133273 0)
(0.0933812 0.00761091 0)
(0.105729 0.00261972 0)
(0.116791 -0.00560994 0)
(0.12617 -0.0153095 0)
(0.134212 -0.0236664 0)
(0.140714 -0.030545 0)
(0.145397 -0.0354965 0)
(0.147852 -0.0384908 0)
(0.147859 -0.0395716 0)
(0.144777 -0.0366704 0)
(0.136233 -0.0292876 0)
(0.120246 -0.0184359 0)
(0.0966088 -0.00193828 0)
(0.0658749 0.0203473 0)
(0.0289051 0.0456664 0)
(-0.0137045 0.0707671 0)
(-0.0621725 0.0933315 0)
(-0.114651 0.111328 0)
(0.0213227 0.0522441 0)
(0.0439658 0.0208662 0)
(0.0596138 0.0117523 0)
(0.074559 0.00477962 0)
(0.0879867 -0.00075117 0)
(0.100431 -0.00480226 0)
(0.112604 -0.00888871 0)
(0.124161 -0.0153689 0)
(0.134302 -0.0228395 0)
(0.142695 -0.0293303 0)
(0.149561 -0.0345651 0)
(0.154783 -0.037906 0)
(0.157923 -0.0392758 0)
(0.157165 -0.0384611 0)
(0.151311 -0.0334686 0)
(0.139998 -0.0215205 0)
(0.121022 -0.00418291 0)
(0.0924639 0.0185067 0)
(0.0555735 0.0452139 0)
(0.0137117 0.0741257 0)
(-0.0331169 0.102806 0)
(-0.0861549 0.127773 0)
(-0.141678 0.145218 0)
(0.0382772 0.0174359 0)
(0.0567511 0.00375097 0)
(0.0717218 -0.000121896 0)
(0.0859383 -0.00566041 0)
(0.0972429 -0.00896288 0)
(0.106718 -0.0124449 0)
(0.11786 -0.0167144 0)
(0.130066 -0.0224784 0)
(0.141323 -0.0288675 0)
(0.150681 -0.0343911 0)
(0.157802 -0.0383269 0)
(0.162481 -0.040218 0)
(0.16442 -0.0391262 0)
(0.161762 -0.0357026 0)
(0.147284 -0.0307507 0)
(0.124907 -0.0153247 0)
(0.100343 0.00772127 0)
(0.0681632 0.0336382 0)
(0.0295426 0.0635804 0)
(-0.0126431 0.0926985 0)
(-0.0586085 0.122182 0)
(-0.110477 0.146815 0)
(-0.168379 0.169353 0)
(0.00397062 -0.0384745 0)
(0.0463525 -0.0156557 0)
(0.0753456 -0.0139126 0)
(0.0974891 -0.0161588 0)
(0.111024 -0.0145064 0)
(0.114885 -0.0174579 0)
(0.122461 -0.0213605 0)
(0.13465 -0.0271007 0)
(0.145008 -0.0333963 0)
(0.152645 -0.0382352 0)
(0.157236 -0.041833 0)
(0.157247 -0.0429814 0)
(0.147948 -0.0403341 0)
(0.123717 -0.0138104 0)
(0.0900436 0.0212698 0)
(0.0624434 0.0525888 0)
(0.0384977 0.0917587 0)
(0.0152775 0.141474 0)
(-0.0108175 0.193118 0)
(-0.0437755 0.243264 0)
(-0.0855775 0.293457 0)
(-0.136416 0.337234 0)
(-0.171255 0.323917 0)
(0.0276044 -0.0526177 0)
(0.037678 -0.0490997 0)
(0.0591189 -0.0393803 0)
(0.0702151 -0.0480089 0)
(0.0794622 -0.0285718 0)
(0.0752546 -0.0320306 0)
(0.0662596 -0.0542904 0)
(0.0589466 -0.0639163 0)
(0.0567229 -0.0657743 0)
(0.0571659 -0.0640328 0)
(0.0585916 -0.0576203 0)
(0.0576556 -0.0411396 0)
(0.0498595 -0.0121641 0)
(0.0352219 0.0141881 0)
(0.017296 0.0393536 0)
(0.00219708 0.0517909 0)
(-0.0131914 0.0787776 0)
(-0.0285339 0.116916 0)
(-0.0432442 0.162337 0)
(-0.058934 0.211221 0)
(-0.0761024 0.260193 0)
(-0.0896818 0.293697 0)
(-0.104123 0.292707 0)
(-0.00717536 -0.0841705 0)
(-0.000638965 -0.0926924 0)
(0.0100248 -0.0762287 0)
(0.0162127 -0.0660631 0)
(0.0152496 -0.0292646 0)
(0.0157338 -0.0123926 0)
(0.0115814 -0.0245217 0)
(0.00513301 -0.0362775 0)
(-0.000887198 -0.0443678 0)
(-0.00478734 -0.0494273 0)
(-0.00713094 -0.0472547 0)
(-0.0107333 -0.0331022 0)
(-0.0156097 -0.00720333 0)
(-0.0219081 0.0233761 0)
(-0.0275243 0.0428778 0)
(-0.033891 0.062403 0)
(-0.0427795 0.0883632 0)
(-0.0499659 0.123439 0)
(-0.0541269 0.16539 0)
(-0.0546238 0.211184 0)
(-0.0507212 0.255447 0)
(-0.0408713 0.286524 0)
(-0.0299517 0.283394 0)
(-0.000146414 -0.0662133 0)
(-0.0103223 -0.0625231 0)
(-0.0160579 -0.0559497 0)
(-0.0230028 -0.0515421 0)
(-0.0274972 -0.0245389 0)
(-0.026336 -0.0148808 0)
(-0.0261275 -0.0200876 0)
(-0.0299032 -0.0293983 0)
(-0.0354066 -0.0377729 0)
(-0.0406536 -0.0442035 0)
(-0.0456857 -0.0416346 0)
(-0.0511428 -0.0276887 0)
(-0.0555287 -0.00309473 0)
(-0.0568919 0.0236239 0)
(-0.0567347 0.0469138 0)
(-0.058046 0.0683149 0)
(-0.0601616 0.0943329 0)
(-0.0604367 0.126842 0)
(-0.0569071 0.164841 0)
(-0.0484215 0.205511 0)
(-0.0343156 0.243702 0)
(-0.0137579 0.270969 0)
(0.00839689 0.278615 0)
(-0.00525524 -0.0609214 0)
(-0.0179431 -0.0545848 0)
(-0.030277 -0.0462308 0)
(-0.0420116 -0.0380613 0)
(-0.0484646 -0.0241344 0)
(-0.0488917 -0.0169867 0)
(-0.048953 -0.0194981 0)
(-0.0512556 -0.0261709 0)
(-0.0555376 -0.0332252 0)
(-0.061256 -0.0387448 0)
(-0.0681885 -0.0358261 0)
(-0.0745172 -0.0223786 0)
(-0.0784122 -0.000277884 0)
(-0.0782954 0.0234443 0)
(-0.0757106 0.0454524 0)
(-0.0731304 0.0675676 0)
(-0.070271 0.0928145 0)
(-0.0653484 0.122568 0)
(-0.0566598 0.156246 0)
(-0.0429777 0.19165 0)
(-0.0240849 0.224902 0)
(7.93515e-05 0.250344 0)
(0.0280985 0.263498 0)
(-0.0129367 -0.0454572 0)
(-0.0255211 -0.0400938 0)
(-0.0388987 -0.034534 0)
(-0.050351 -0.0282382 0)
(-0.0574653 -0.0201842 0)
(-0.0600513 -0.0164352 0)
(-0.0613488 -0.0183118 0)
(-0.0636688 -0.02333 0)
(-0.0676134 -0.028694 0)
(-0.0735218 -0.0321576 0)
(-0.0807413 -0.0291093 0)
(-0.0871337 -0.017296 0)
(-0.0902583 0.000874997 0)
(-0.0894118 0.02114 0)
(-0.0860695 0.0417112 0)
(-0.0814904 0.0631262 0)
(-0.0756485 0.0868179 0)
(-0.0674764 0.113571 0)
(-0.0557237 0.14299 0)
(-0.0394163 0.173487 0)
(-0.0185496 0.202288 0)
(0.00695049 0.22597 0)
(0.0374331 0.242233 0)
(-0.0161795 -0.0259875 0)
(-0.028828 -0.0247096 0)
(-0.0421369 -0.021992 0)
(-0.0530036 -0.018626 0)
(-0.0603106 -0.0150375 0)
(-0.064305 -0.0138709 0)
(-0.0669876 -0.0159685 0)
(-0.0700446 -0.019984 0)
(-0.0742744 -0.0239274 0)
(-0.0799387 -0.0256345 0)
(-0.0864346 -0.0223867 0)
(-0.0918642 -0.0128329 0)
(-0.0944084 0.00173755 0)
(-0.093676 0.0188249 0)
(-0.0902886 0.0373061 0)
(-0.0849631 0.0570546 0)
(-0.07771 0.0786375 0)
(-0.0679127 0.102371 0)
(-0.0547456 0.127898 0)
(-0.0375198 0.154057 0)
(-0.0163169 0.178975 0)
(0.00910679 0.200482 0)
(0.0404353 0.217205 0)
(-0.0161818 -0.00510023 0)
(-0.0288034 -0.0092747 0)
(-0.0416819 -0.00997467 0)
(-0.0520534 -0.0095879 0)
(-0.0595 -0.00912833 0)
(-0.0644618 -0.00999829 0)
(-0.0682486 -0.0125864 0)
(-0.0720503 -0.0160684 0)
(-0.0765273 -0.0190339 0)
(-0.0818388 -0.0198376 0)
(-0.0873938 -0.0168157 0)
(-0.091895 -0.0091193 0)
(-0.0940821 0.00250237 0)
(-0.093529 0.0168046 0)
(-0.0904323 0.032899 0)
(-0.0850798 0.0504736 0)
(-0.0774582 0.0696303 0)
(-0.0672059 0.0903833 0)
(-0.0537977 0.112361 0)
(-0.0367631 0.134708 0)
(-0.0162724 0.156128 0)
(0.00824859 0.175218 0)
(0.0391688 0.190958 0)
(-0.0147617 0.0144003 0)
(-0.0268608 0.00564895 0)
(-0.0391052 0.00160031 0)
(-0.0490376 -0.000768415 0)
(-0.0565512 -0.0027508 0)
(-0.0621222 -0.00523533 0)
(-0.0666579 -0.00840963 0)
(-0.0709834 -0.0117227 0)
(-0.0755777 -0.0141963 0)
(-0.0805024 -0.0146855 0)
(-0.0853058 -0.0121216 0)
(-0.0891004 -0.00602552 0)
(-0.0910191 0.00329387 0)
(-0.0906649 0.0151056 0)
(-0.08796 0.0287986 0)
(-0.0829558 0.0440195 0)
(-0.0755953 0.0606457 0)
(-0.0656455 0.0785173 0)
(-0.0527701 0.0972612 0)
(-0.0366587 0.116213 0)
(-0.0174673 0.134448 0)
(0.00551183 0.150996 0)
(0.0351046 0.165064 0)
(-0.0130963 0.0319996 0)
(-0.0242313 0.019507 0)
(-0.0355991 0.0125466 0)
(-0.044978 0.00780455 0)
(-0.0523799 0.00387187 0)
(-0.0582315 6.16236e-05 0)
(-0.0631813 -0.0037362 0)
(-0.0677827 -0.0071456 0)
(-0.0723665 -0.00950337 0)
(-0.0769459 -0.0100428 0)
(-0.0811829 -0.00809091 0)
(-0.0844777 -0.00333231 0)
(-0.08622 0.00407867 0)
(-0.0860461 0.0137162 0)
(-0.0837636 0.0251486 0)
(-0.0792977 0.0380506 0)
(-0.0725509 0.0522028 0)
(-0.0633566 0.0673643 0)
(-0.0514899 0.083173 0)
(-0.0367221 0.0990925 0)
(-0.0192403 0.114422 0)
(0.00186963 0.128427 0)
(0.0295017 0.140637 0)
(-0.0114742 0.0478724 0)
(-0.0214405 0.0321295 0)
(-0.0317756 0.022678 0)
(-0.0404469 0.0159452 0)
(-0.0475174 0.0104458 0)
(-0.0533403 0.0055576 0)
(-0.0584031 0.00115276 0)
(-0.0630689 -0.00251623 0)
(-0.0675406 -0.00500327 0)
(-0.0718092 -0.00581049 0)
(-0.075626 -0.00451728 0)
(-0.0785732 -0.000926724 0)
(-0.080204 0.00488042 0)
(-0.0802065 0.0126319 0)
(-0.0783525 0.0220169 0)
(-0.074508 0.032752 0)
(-0.0685513 0.0445898 0)
(-0.0603505 0.0572636 0)
(-0.0497446 0.0704355 0)
(-0.0365716 0.0836588 0)
(-0.020983 0.0963653 0)
(-0.00190828 0.107971 0)
(0.0233079 0.118293 0)
(-0.00993873 0.0617899 0)
(-0.0186284 0.0433624 0)
(-0.0278139 0.0318518 0)
(-0.0356344 0.023493 0)
(-0.0421842 0.0167329 0)
(-0.0477451 0.0109592 0)
(-0.0526671 0.00601561 0)
(-0.0572184 0.00202214 0)
(-0.061502 -0.000727045 0)
(-0.0654831 -0.00191127 0)
(-0.0689752 -0.00127667 0)
(-0.0716754 0.00128948 0)
(-0.0732479 0.00572967 0)
(-0.0734303 0.0118532 0)
(-0.0719966 0.0194245 0)
(-0.0687934 0.0281998 0)
(-0.0636911 0.0379374 0)
(-0.0565797 0.0483754 0)
(-0.0473372 0.0592063 0)
(-0.0358368 0.0700551 0)
(-0.0222398 0.0804493 0)
(-0.00521286 0.0898979 0)
(0.0174189 0.098315 0)
(-0.00843864 0.0737598 0)
(-0.015779 0.0531109 0)
(-0.0237239 0.0399318 0)
(-0.0305714 0.0302838 0)
(-0.0364439 0.0225396 0)
(-0.0415617 0.016064 0)
(-0.0461776 0.0106574 0)
(-0.0504653 0.00635085 0)
(-0.0544955 0.00329903 0)
(-0.0582027 0.00170343 0)
(-0.061431 0.00171374 0)
(-0.0639503 0.00338182 0)
(-0.0655042 0.00665087 0)
(-0.0658659 0.0113743 0)
(-0.0648341 0.0173617 0)
(-0.0622551 0.0244032 0)
(-0.0580027 0.0322764 0)
(-0.0519827 0.0407383 0)
(-0.0440951 0.0495158 0)
(-0.0342504 0.0582897 0)
(-0.0225748 0.0666772 0)
(-0.00766549 0.0742508 0)
(0.0123372 0.0808103 0)
(-0.00689991 0.0837594 0)
(-0.0128383 0.0613014 0)
(-0.0194524 0.0468157 0)
(-0.0252291 0.0361914 0)
(-0.0303077 0.0277179 0)
(-0.0348545 0.0207215 0)
(-0.0390441 0.0149547 0)
(-0.0429838 0.0103748 0)
(-0.0466998 0.00704391 0)
(-0.0501306 0.00506108 0)
(-0.0531325 0.00450606 0)
(-0.0555138 0.00539306 0)
(-0.0570724 0.00765955 0)
(-0.0576098 0.0111825 0)
(-0.0569531 0.0158005 0)
(-0.0549584 0.0213312 0)
(-0.0515094 0.027575 0)
(-0.0465257 0.0343135 0)
(-0.0399261 0.0413071 0)
(-0.0316234 0.0482843 0)
(-0.0217637 0.0549329 0)
(-0.00895341 0.0608785 0)
(0.00856835 0.0658189 0)
(-0.00523588 0.0916979 0)
(-0.00972594 0.0678585 0)
(-0.0149473 0.0524255 0)
(-0.0195878 0.0411266 0)
(-0.0237966 0.0321677 0)
(-0.0276899 0.0248307 0)
(-0.0313769 0.0188226 0)
(-0.0349115 0.0140417 0)
(-0.0382872 0.0104802 0)
(-0.0414335 0.00816754 0)
(-0.0442221 0.00712774 0)
(-0.0464893 0.00734693 0)
(-0.0480589 0.00876039 0)
(-0.0487612 0.0112585 0)
(-0.0484452 0.0147014 0)
(-0.0469813 0.0189289 0)
(-0.0442656 0.0237643 0)
(-0.0402296 0.0290148 0)
(-0.0348038 0.0344718 0)
(-0.0279169 0.039905 0)
(-0.0196914 0.045045 0)
(-0.00887576 0.0495737 0)
(0.00632196 0.0532398 0)
(-0.00341956 0.0974275 0)
(-0.00644256 0.0727154 0)
(-0.010219 0.0567124 0)
(-0.0136868 0.0450371 0)
(-0.0169849 0.0358295 0)
(-0.0201786 0.0283314 0)
(-0.0233192 0.0222104 0)
(-0.0264162 0.0173191 0)
(-0.0294349 0.013598 0)
(-0.0322952 0.0110263 0)
(-0.0348771 0.00958889 0)
(-0.0370338 0.00925118 0)
(-0.03861 0.00994611 0)
(-0.0394567 0.0115751 0)
(-0.0394401 0.0140156 0)
(-0.0384441 0.017127 0)
(-0.0363776 0.0207543 0)
(-0.0331836 0.0247294 0)
(-0.0288054 0.0288729 0)
(-0.0231741 0.0329881 0)
(-0.0164268 0.0368391 0)
(-0.00734067 0.0401526 0)
(0.00577452 0.0428135 0)
(-0.00146056 0.100816 0)
(-0.00303407 0.0758368 0)
(-0.00535902 0.0596599 0)
(-0.00764972 0.0479027 0)
(-0.0100247 0.0386759 0)
(-0.0124984 0.0311932 0)
(-0.0150706 0.0250918 0)
(-0.0177127 0.0201895 0)
(-0.0203653 0.0163902 0)
(-0.0229376 0.0136381 0)
(-0.0253119 0.0118914 0)
(-0.0273535 0.0111009 0)
(-0.0289222 0.011199 0)
(-0.0298842 0.0120969 0)
(-0.0301185 0.0136872 0)
(-0.0295216 0.0158478 0)
(-0.0280142 0.0184445 0)
(-0.0255482 0.0213326 0)
(-0.0220757 0.0243598 0)
(-0.0175487 0.0273597 0)
(-0.0120781 0.0301383 0)
(-0.00449714 0.0324624 0)
(0.00671777 0.0341845 0)
(0.000475108 0.101701 0)
(0.000302485 0.0772235 0)
(-0.000565411 0.0612802 0)
(-0.00169188 0.0497279 0)
(-0.00314702 0.0407032 0)
(-0.00489548 0.033407 0)
(-0.00688998 0.0274559 0)
(-0.00906829 0.0226446 0)
(-0.0113485 0.0188523 0)
(-0.0136276 0.0159997 0)
(-0.0157876 0.0140291 0)
(-0.0177017 0.0128821 0)
(-0.0192402 0.0124927 0)
(-0.0202804 0.0127811 0)
(-0.0207121 0.0136547 0)
(-0.0204425 0.015009 0)
(-0.0194012 0.0167299 0)
(-0.0175481 0.018695 0)
(-0.0148448 0.0207768 0)
(-0.0112383 0.0228388 0)
(-0.00685392 0.0247335 0)
(-0.000642319 0.0262669 0)
(0.00895775 0.027093 0)
(0.0022826 0.100214 0)
(0.00338885 0.0769177 0)
(0.00392351 0.0615885 0)
(0.00391671 0.0505143 0)
(0.00335838 0.041902 0)
(0.00232686 0.0349586 0)
(0.000911272 0.0292895 0)
(-0.0007947 0.0246748 0)
(-0.00269116 0.0209776 0)
(-0.00466614 0.0181057 0)
(-0.00659879 0.0159911 0)
(-0.00836574 0.0145749 0)
(-0.00984431 0.0137947 0)
(-0.0109205 0.0135805 0)
(-0.0114932 0.0138538 0)
(-0.0114776 0.0145276 0)
(-0.0108109 0.0155068 0)
(-0.0094582 0.0166891 0)
(-0.00738397 0.0179696 0)
(-0.00454032 0.0192373 0)
(-0.00103403 0.0203797 0)
(0.00388699 0.0212236 0)
(0.01209 0.0214302 0)
(0.00375696 0.0966726 0)
(0.00598762 0.0750503 0)
(0.00784921 0.0606614 0)
(0.00890644 0.0503133 0)
(0.00921367 0.0423063 0)
(0.00888233 0.0358655 0)
(0.00803713 0.0305948 0)
(0.00679754 0.0262685 0)
(0.00528429 0.0227456 0)
(0.00362163 0.0199303 0)
(0.00193341 0.0177494 0)
(0.000340641 0.0161455 0)
(-0.00103948 0.0150634 0)
(-0.00210201 0.0144433 0)
(-0.00275592 0.0142199 0)
(-0.0029218 0.014323 0)
(-0.0025412 0.014676 0)
(-0.00158563 0.0151964 0)
(-2.79228e-05 0.0157995 0)
(0.00219084 0.0163968 0)
(0.00494999 0.0168876 0)
(0.00888694 0.0171183 0)
(0.0159309 0.0169556 0)
(0.00479881 0.0914938 0)
(0.0079757 0.0718035 0)
(0.0110032 0.0585872 0)
(0.0130312 0.0491688 0)
(0.0141506 0.0419387 0)
(0.0144914 0.0361404 0)
(0.0142051 0.0313817 0)
(0.0134326 0.0274368 0)
(0.01231 0.0241647 0)
(0.0109699 0.0214714 0)
(0.00953954 0.0192888 0)
(0.00813945 0.0175654 0)
(0.00688208 0.0162548 0)
(0.00586849 0.0153101 0)
(0.00518602 0.0146802 0)
(0.00490657 0.0143097 0)
(0.00508233 0.0141388 0)
(0.00574084 0.0141032 0)
(0.00691215 0.0141367 0)
(0.00864075 0.0141676 0)
(0.0108209 0.0141117 0)
(0.0140001 0.0138577 0)
(0.0200193 0.013338 0)
(0.00534476 0.0852183 0)
(0.00928092 0.0674307 0)
(0.0132787 0.055508 0)
(0.016146 0.0471669 0)
(0.0179911 0.0408497 0)
(0.0189496 0.0358089 0)
(0.0191905 0.0316564 0)
(0.0188708 0.0281713 0)
(0.0181378 0.0252185 0)
(0.0171303 0.022711 0)
(0.0159776 0.0205896 0)
(0.0147989 0.0188115 0)
(0.0137027 0.0173412 0)
(0.0127854 0.0161443 0)
(0.0121291 0.0151843 0)
(0.0118012 0.0144214 0)
(0.0118505 0.0138117 0)
(0.0123034 0.0133076 0)
(0.013186 0.0128591 0)
(0.0145478 0.0124117 0)
(0.0162743 0.0119033 0)
(0.0188595 0.0112513 0)
(0.0240586 0.0104253 0)
(0.00549452 0.0783584 0)
(0.0100048 0.0622162 0)
(0.0147097 0.0516121 0)
(0.0182381 0.0444375 0)
(0.0206817 0.0391285 0)
(0.022169 0.0349297 0)
(0.0228774 0.0314545 0)
(0.0229731 0.0284893 0)
(0.0226101 0.025909 0)
(0.0219302 0.0236376 0)
(0.0210626 0.0216279 0)
(0.0201239 0.0198488 0)
(0.0192181 0.018277 0)
(0.018436 0.0168914 0)
(0.0178549 0.0156696 0)
(0.0175375 0.0145862 0)
(0.0175296 0.0136124 0)
(0.0178562 0.0127163 0)
(0.0185436 0.0118636 0)
(0.0196295 0.0110172 0)
(0.0210197 0.0101326 0)
(0.0231518 0.00916068 0)
(0.0276134 0.00807587 0)
(0.00536045 0.0713024 0)
(0.0102593 0.0564504 0)
(0.0154209 0.0471277 0)
(0.019405 0.041155 0)
(0.0222854 0.036904 0)
(0.0241791 0.0335951 0)
(0.0252647 0.0308399 0)
(0.0257121 0.0284324 0)
(0.0256766 0.0262597 0)
(0.0252993 0.0242597 0)
(0.0247067 0.0223991 0)
(0.0240106 0.0206608 0)
(0.023309 0.0190347 0)
(0.022687 0.017513 0)
(0.0222162 0.0160869 0)
(0.0219549 0.0147446 0)
(0.0219457 0.0134714 0)
(0.0222122 0.0122495 0)
(0.0227768 0.0110603 0)
(0.0236797 0.00988249 0)
(0.0248249 0.00869109 0)
(0.0266014 0.00745911 0)
(0.0304702 0.00617319 0)
(0.00512675 0.0643277 0)
(0.0102313 0.0504063 0)
(0.0155902 0.0422974 0)
(0.0198132 0.0375202 0)
(0.0229475 0.0343361 0)
(0.0250995 0.031929 0)
(0.0264462 0.0299055 0)
(0.0271568 0.0280677 0)
(0.027384 0.0263166 0)
(0.0272643 0.0246056 0)
(0.0269176 0.0229171 0)
(0.0264487 0.0212486 0)
(0.0259483 0.0196037 0)
(0.0254941 0.0179878 0)
(0.025152 0.0164044 0)
(0.0249754 0.0148544 0)
(0.0250039 0.0133357 0)
(0.0252592 0.0118443 0)
(0.0257638 0.0103761 0)
(0.0265445 0.00892481 0)
(0.027521 0.00748435 0)
(0.0290366 0.00605315 0)
(0.0323594 0.00461477 0)
(0.00488713 0.0575568 0)
(0.0100241 0.0443027 0)
(0.0153897 0.0373454 0)
(0.0196522 0.0337368 0)
(0.022854 0.0315996 0)
(0.0251028 0.0300757 0)
(0.0265774 0.0287664 0)
(0.0274452 0.0274842 0)
(0.027853 0.026146 0)
(0.0279289 0.0247229 0)
(0.027783 0.0232137 0)
(0.0275099 0.0216308 0)
(0.0271909 0.0199912 0)
(0.0268955 0.0183119 0)
(0.0266827 0.0166077 0)
(0.0266016 0.0148906 0)
(0.0266886 0.0131701 0)
(0.0269651 0.0114547 0)
(0.0274481 0.00975508 0)
(0.0281653 0.00808082 0)
(0.0290345 0.00644536 0)
(0.0303409 0.00486463 0)
(0.033239 0.00332753 0)
(0.00472326 0.0509891 0)
(0.00978464 0.0382952 0)
(0.0149904 0.0324609 0)
(0.0191138 0.0299953 0)
(0.0222014 0.028871 0)
(0.0243818 0.0281883 0)
(0.0258441 0.0275494 0)
(0.0267547 0.0267833 0)
(0.0272523 0.0258274 0)
(0.0274522 0.0246727 0)
(0.027451 0.023335 0)
(0.02733 0.0218411 0)
(0.0271589 0.0202198 0)
(0.0269976 0.0184982 0)
(0.0268984 0.0167003 0)
(0.0269055 0.0148468 0)
(0.0270541 0.0129571 0)
(0.0273652 0.0110523 0)
(0.0278569 0.00915824 0)
(0.0285425 0.00730371 0)
(0.0293459 0.00551749 0)
(0.0305076 0.00384116 0)
(0.0329985 0.00224516 0)
(0.00461938 0.044556 0)
(0.00959222 0.0324762 0)
(0.0145527 0.0277932 0)
(0.0183858 0.0264712 0)
(0.0211848 0.0263237 0)
(0.0231332 0.0264217 0)
(0.0244442 0.0263844 0)
(0.0252846 0.0260704 0)
(0.0257812 0.0254453 0)
(0.0260318 0.0245227 0)
(0.0261149 0.0233358 0)
(0.0260953 0.021924 0)
(0.0260287 0.0203257 0)
(0.0259645 0.0185752 0)
(0.0259474 0.0167025 0)
(0.0260185 0.0147343 0)
(0.026213 0.0126976 0)
(0.026556 0.0106252 0)
(0.027065 0.00856138 0)
(0.0277489 0.00655734 0)
(0.0285241 0.00466252 0)
(0.0295632 0.00293043 0)
(0.0317238 0.00132241 0)
(0.00462876 0.0381759 0)
(0.00962301 0.0268673 0)
(0.0142668 0.023457 0)
(0.0176653 0.0233318 0)
(0.0199963 0.02413 0)
(0.0215517 0.0249274 0)
(0.0225811 0.0253957 0)
(0.0232494 0.0254453 0)
(0.0236638 0.0250803 0)
(0.0238981 0.0243399 0)
(0.0240074 0.0232735 0)
(0.0240367 0.0219303 0)
(0.0240256 0.0203546 0)
(0.0240117 0.0185842 0)
(0.0240322 0.0166511 0)
(0.0241254 0.0145833 0)
(0.0243303 0.0124117 0)
(0.0246822 0.0101788 0)
(0.0252081 0.00795257 0)
(0.0259014 0.00581854 0)