/*--------------------------------*- C++ -*----------------------------------*\
  =========                 |
  \\      /  F ield         | OpenFOAM: The Open Source CFD Toolbox
   \\    /   O peration     | Website:  https://openfoam.org
    \\  /    A nd           | Version:  13
     \\/     M anipulation  |
\*---------------------------------------------------------------------------*/
FoamFile
{
    format      ascii;
    class       volScalarField;
    location    "1.25";
    object      alpha.oil;
}
// * * * * * * * * * * * * * * * * * * * * * * * * * * * * * * * * * * * * * //

dimensions      [];

internalField   nonuniform List<scalar> 
2268
(
1.32385e-16
2.66668e-15
3.76166e-14
1.91105e-13
5.40406e-13
1.38e-12
3.02119e-12
6.96287e-12
1.39576e-11
2.90973e-11
6.18613e-11
1.33848e-10
2.62547e-10
5.0422e-10
9.60787e-10
1.75707e-09
3.00667e-09
5.64605e-09
7.98328e-09
8.2763e-09
3.15755e-05
0.000513775
0.000568187
4.13535e-16
5.457e-15
3.47847e-14
1.40041e-13
4.30936e-13
1.18715e-12
2.87267e-12
7.58567e-12
1.83166e-11
4.36114e-11
1.07008e-10
2.36826e-10
5.33446e-10
1.04338e-09
2.26212e-09
4.76603e-09
1.10204e-08
2.30953e-08
6.16122e-08
7.39151e-08
7.50655e-08
0.000100017
0.000568427
7.1563e-16
5.73271e-15
2.90556e-14
1.28545e-13
4.79528e-13
1.36938e-12
3.92116e-12
1.0726e-11
2.67769e-11
7.97098e-11
1.89265e-10
4.31331e-10
9.23998e-10
2.03449e-09
4.00448e-09
6.3922e-09
1.5694e-08
5.53952e-08
8.41354e-08
7.9082e-08
5.40559e-08
6.56578e-08
0.000224163
8.44851e-16
4.86273e-15
2.27086e-14
1.02314e-13
5.36012e-13
1.79738e-12
5.04165e-12
1.35761e-11
4.62064e-11
1.12782e-10
2.62328e-10
6.16954e-10
1.21682e-09
3.95245e-09
8.13726e-09
6.2983e-09
8.70429e-09
1.50519e-08
2.47314e-08
3.84101e-08
4.74786e-08
1.69051e-06
2.93247e-05
3.89333e-16
1.42539e-15
6.55821e-15
3.62463e-14
2.32732e-13
1.14121e-12
3.92757e-12
1.15891e-11
3.28141e-11
8.35137e-11
2.01723e-10
4.89116e-10
9.01311e-10
1.91361e-09
3.34656e-09
1.67283e-07
1.02103e-06
3.28698e-06
3.6999e-06
2.75707e-06
4.99638e-06
1.98356e-06
4.74198e-06
3.02559e-17
2.14785e-16
1.04217e-15
5.70769e-15
3.91829e-14
2.46238e-13
9.89168e-13
4.64047e-12
1.55473e-11
4.45415e-11
1.06989e-10
2.25127e-10
5.55925e-10
6.39088e-10
6.19187e-10
8.20235e-07
6.68131e-06
7.94652e-06
7.94335e-06
7.94627e-06
7.12028e-06
2.73863e-06
0.00216265
4.45209e-18
1.46602e-16
4.66164e-16
5.49177e-16
4.13133e-15
2.15816e-14
1.24341e-13
9.0329e-13
4.66171e-12
1.69053e-11
3.96216e-11
2.57803e-10
2.22318e-09
1.12496e-09
6.31479e-10
8.2111e-07
4.47078e-06
7.80205e-06
7.74312e-06
3.8732e-06
1.56835e-06
1.55639e-06
1.0081e-05
4.45261e-18
4.44804e-18
2.13637e-13
9.8971e-19
9.95194e-19
9.8971e-19
2.63118e-14
6.72393e-13
5.61235e-12
2.6479e-11
7.80838e-11
5.85582e-10
9.67831e-10
9.67157e-10
9.65261e-08
3.97287e-07
3.91684e-07
1.09401e-06
9.24648e-07
4.76544e-08
0.000815886
0.12142
0.00187138
0.909072
0.525478
0.125101
0.114678
0.0657228
0.120936
0.393147
0.404936
0.414699
0.413146
0.384633
0.312901
0.0824108
0.0578109
0.114188
0.178498
0.242755
0.279064
0.277368
0.909067
0.899458
0.601492
0.14749
0.00752012
0.000770356
0.0218088
0.043665
0.0508826
0.0727841
0.142497
0.212833
0.0804235
0.0574999
0.061591
0.186822
0.228938
0.232692
0.274377
0.909063
0.909062
0.904271
0.300293
5.8473e-37
-1.04752e-24
-3.80404e-24
1.26734e-09
0.00013763
0.00418227
0.071227
0.294926
0.302702
0.22979
0.195286
0.193208
0.255906
0.213339
0.380763
0.909057
0.715276
0.476186
0.0788569
7.85845e-13
6.91641e-07
1.08888e-06
-1.75213e-19
0.0567598
0.193988
0.214504
0.230246
0.305478
0.305227
0.294276
0.269461
0.255893
0.212669
0.520696
0.882278
0.425964
0.0870913
1.51373e-07
1.73414e-06
4.62125e-06
3.82886e-06
0.000370685
0.119573
0.2363
0.23828
0.17149
0.13577
0.132658
0.149809
0.14682
0.11735
0.374298
0.52018
0.709465
0.0169558
4.48819e-08
3.05268e-07
3.27707e-06
3.07774e-06
1.24362e-06
5.91662e-05
0.0428748
0.153248
0.239378
0.239226
0.176639
0.0978422
0.101151
0.119441
0.11732
0.433283
0.520696
0.653648
0.000103629
5.09296e-08
4.5635e-06
1.49149e-05
1.958e-05
2.15193e-05
3.77652e-05
3.53078e-05
0.000197193
0.0581786
0.168973
0.146364
0.17494
0.222906
0.237159
0.238234
0.416184
0.464907
0.498055
0.00122156
5.95536e-07
7.9939e-06
2.28469e-05
5.44693e-05
3.4372e-05
9.1126e-05
3.11431e-05
5.90414e-05
7.46773e-05
0.000250638
0.145529
0.388922
0.624933
0.707483
0.532453
0.622831
0.551372
1.20139e-12
9.72729e-12
4.29285e-12
2.56646e-12
1.13936e-12
3.46186e-13
6.9044e-13
2.91954e-12
1.35511e-11
6.09624e-11
2.67308e-10
1.06699e-09
9.67922e-10
8.90627e-09
6.26404e-08
3.88304e-08
5.29244e-09
1.85799e-08
4.45322e-08
4.97159e-09
0.149907
0.650925
0.59973
4.95903e-11
4.75325e-10
6.81166e-10
2.22282e-10
6.04275e-11
1.9729e-11
2.17852e-11
4.09198e-11
6.83115e-11
1.03728e-10
1.83313e-10
8.19417e-10
2.18754e-09
8.07682e-09
8.20145e-09
7.36192e-09
2.86543e-09
3.06443e-10
8.16293e-16
0.115206
0.733997
0.914682
0.932977
2.99536e-10
2.35075e-09
4.03392e-09
2.82734e-09
5.44068e-10
1.68556e-10
1.58559e-10
2.95593e-10
4.90428e-10
6.86494e-10
1.66701e-09
5.68036e-09
9.88786e-09
9.60471e-09
6.11974e-09
1.13117e-09
2.12916e-18
-8.45891e-13
0.254433
0.764405
0.977455
0.999977
0.999998
4.34472e-09
1.01044e-08
1.52973e-08
5.48404e-09
1.12087e-09
2.69215e-10
3.11345e-10
9.77132e-10
6.31122e-10
1.50685e-08
2.75027e-08
2.75135e-08
1.57408e-08
-8.46285e-11
-2.50671e-11
2.25105e-27
0.158175
0.588488
0.895419
0.988186
0.999996
1
0.999998
1.20141e-08
3.52317e-08
2.92338e-08
4.78541e-08
3.73052e-09
1.04846e-10
1.5182e-10
1.46842e-09
-1.63558e-12
8.2448e-22
-4.96089e-21
-1.07604e-24
-9.78092e-11
0
0.186318
0.561946
0.85049
0.96618
0.999634
0.999999
1
1
0.999998
2.33516e-08
7.88126e-08
4.50937e-08
1.39923e-09
6.96796e-11
6.57903e-11
2.71034e-05
6.57902e-11
0.0139501
0.010149
0.0395535
0.143769
0.386076
0.651236
0.852756
0.97127
0.999168
0.999997
0.999996
0.999999
1
1
0.999999
3.16356e-08
1.8786e-07
2.26271e-07
0.00730041
0.172324
0.307859
0.386827
0.367466
0.497153
0.575812
0.741976
0.837471
0.927979
0.986579
0.999785
0.999994
0.999997
0.999997
0.999996
1
1
1
1
2.23116e-08
9.708e-06
0.0422195
0.494631
0.88976
0.901182
0.878277
0.880082
0.977792
0.965374
0.998236
0.999964
1
1
0.999998
0.999994
0.999995
0.999999
1
1
1
1
1
2.17888e-08
0.0027479
0.240714
0.90271
0.9995
0.999996
0.999995
0.999998
0.999999
1
1
1
1
1
0.999999
0.999998
1
1
1
1
1
1
1
8.86694e-05
0.0171714
0.319939
0.898458
0.97105
0.987962
0.997928
0.999996
0.999998
0.999999
1
1
1
1
1
1
1
1
0.97802
0.926893
0.819746
0.663346
0.559323
0.000826742
0.0120344
0.143678
0.20724
0.29204
0.390855
0.49491
0.586495
0.679134
0.736871
0.771424
0.784874
0.778508
0.750839
0.706242
0.644173
0.550648
0.413401
0.289149
0.194574
0.0881996
0.0227408
0.00571534
0.000319684
0.00274631
2.01149e-14
4.72766e-18
8.83703e-18
6.37204e-18
-9.79886e-25
9.41404e-20
0.00244872
0.0274741
0.044147
0.05409
0.0560423
0.0480511
0.0342795
0.0193912
0.00600671
4.5766e-07
3.38548e-07
4.82298e-07
7.43806e-07
8.95551e-07
6.86204e-07
1.21952e-06
5.67868e-07
5.16397e-07
1.91764e-08
8.75563e-09
8.11296e-09
8.03876e-09
1.73094e-08
-2.38507e-09
-4.12502e-10
-3.7164e-19
1.57267e-14
8.17126e-14
1.23791e-07
2.7464e-07
3.82503e-07
4.17355e-07
1.33096e-07
1.23296e-07
2.26439e-07
5.60722e-07
9.23135e-07
1.3059e-06
1.2124e-06
6.74155e-06
5.59492e-06
2.08996e-08
5.49093e-08
6.23495e-08
8.44476e-08
1.96624e-07
3.97403e-07
1.59527e-06
2.82315e-06
6.50355e-14
7.32217e-14
6.27634e-09
6.83909e-09
7.66877e-09
4.24544e-08
5.75752e-08
2.18093e-07
7.63677e-07
1.13139e-06
1.48591e-06
1.54226e-06
2.70549e-07
1.10607e-06
4.20808e-07
4.60177e-08
4.47846e-08
5.74315e-08
8.02142e-08
1.0168e-07
2.3281e-07
4.77386e-07
2.75738e-05
6.11602e-05
1.96795e-05
2.94264e-09
3.11617e-09
4.8839e-09
2.03175e-08
4.79471e-08
1.93588e-07
6.0465e-07
1.07035e-06
1.25365e-06
8.49577e-07
1.87113e-08
1.46136e-07
1.97965e-07
8.05587e-08
5.20346e-08
5.52985e-08
6.60915e-08
7.44867e-08
6.27651e-08
2.18895e-07
1.81364e-05
0.00017368
0.00018192
5.73604e-05
9.41801e-11
1.29681e-10
1.04299e-09
3.76441e-08
2.1202e-07
4.1455e-07
4.51123e-07
2.7255e-07
1.68598e-07
1.68496e-08
6.27367e-08
1.16815e-07
1.2091e-07
8.79877e-08
6.59279e-08
5.35962e-08
5.98035e-08
6.42154e-08
6.14506e-08
2.90727e-07
9.70873e-05
0.000183559
0.000182972
0.000134149
1.0444e-10
1.56e-09
8.86413e-09
5.83671e-08
9.72067e-08
6.52446e-08
4.85632e-08
1.49976e-08
8.3232e-09
3.40197e-08
8.16131e-08
1.17043e-07
1.03018e-07
7.93918e-08
4.96568e-08
4.84975e-08
6.87158e-08
8.43033e-08
9.50531e-08
1.4881e-07
1.81715e-05
0.0001467
0.000176118
0.000138699
6.71369e-10
6.25428e-10
1.00205e-09
2.52162e-08
6.49444e-08
6.24995e-08
2.12179e-08
4.65395e-09
2.08283e-08
4.9639e-08
8.60013e-08
1.03677e-07
9.01873e-08
4.99204e-08
3.13547e-08
4.00136e-08
5.75851e-08
7.10225e-08
8.33379e-08
1.11191e-07
2.92902e-06
2.88074e-05
4.8128e-05
4.009e-05
1.7231e-06
1.09492e-09
8.52085e-09
4.38205e-08
6.31424e-08
4.20927e-08
1.6682e-09
9.37579e-09
2.78153e-08
5.10257e-08
7.5805e-08
8.96026e-08
4.99186e-08
2.43772e-08
2.21268e-08
2.87877e-08
3.92027e-08
4.4985e-08
4.54232e-08
5.47513e-08
1e-07
9.65389e-08
3.71199e-06
5.29646e-06
1.73366e-06
6.96364e-09
2.14121e-08
2.30359e-08
2.29271e-08
6.03731e-10
4.07108e-09
1.316e-08
2.79331e-08
4.56732e-08
6.65371e-08
4.77933e-08
2.24176e-08
1.52409e-08
1.46057e-08
1.88335e-08
2.49056e-08
2.9161e-08
2.90927e-08
2.31427e-08
1.65788e-08
6.88629e-08
1.85641e-07
4.44959e-07
2.29589e-07
4.85606e-08
1.1351e-08
9.78087e-09
1.31962e-10
1.2906e-09
5.2078e-09
1.24798e-08
2.20733e-08
4.22982e-08
3.80331e-08
1.91866e-08
1.21465e-08
8.92796e-09
9.00687e-09
1.16728e-08
1.54004e-08
1.79799e-08
1.78778e-08
1.55749e-08
1.06238e-08
8.89176e-09
2.15628e-08
3.54044e-08
1.97465e-08
8.63068e-09
6.62729e-09
3.35119e-11
3.67903e-10
1.70272e-09
4.75561e-09
8.49609e-09
2.16954e-08
2.44826e-08
1.37709e-08
9.12211e-09
6.11143e-09
4.89836e-09
5.21842e-09
6.90407e-09
8.84168e-09
1.02337e-08
1.07699e-08
8.59317e-09
5.97319e-09
4.08048e-09
3.99379e-09
4.11849e-09
3.99114e-09
4.11326e-09
5.46875e-12
8.70654e-11
4.72729e-10
1.57805e-09
2.80658e-09
9.03098e-09
1.2619e-08
8.19034e-09
5.78377e-09
3.94971e-09
2.79916e-09
2.47581e-09
2.92504e-09
3.73674e-09
4.57679e-09
5.38558e-09
4.75743e-09
3.77748e-09
2.79142e-09
2.33107e-09
2.117e-09
2.00231e-09
2.22884e-09
1.16556e-12
1.81816e-11
1.12972e-10
4.51629e-10
8.99764e-10
3.18308e-09
5.20295e-09
3.97162e-09
3.00106e-09
2.1753e-09
1.50632e-09
1.2156e-09
1.26496e-09
1.52097e-09
1.84576e-09
2.27386e-09
2.21619e-09
1.90542e-09
1.50388e-09
1.27154e-09
1.10598e-09
1.07251e-09
1.11528e-09
1.27911e-13
2.52416e-12
2.29262e-11
1.07643e-10
2.64895e-10
9.85142e-10
1.79731e-09
1.55452e-09
1.25808e-09
9.74687e-10
7.04767e-10
5.5781e-10
5.36823e-10
6.08187e-10
7.23004e-10
8.62499e-10
9.04723e-10
8.12838e-10
6.95051e-10
5.93355e-10
5.45308e-10
5.07272e-10
5.08394e-10
1.80328e-14
4.13413e-13
4.03351e-12
2.17054e-11
6.93392e-11
2.70237e-10
5.37559e-10
5.00604e-10
4.34537e-10
3.56312e-10
2.67848e-10
2.18552e-10
2.0627e-10
2.27362e-10
2.68268e-10
3.08178e-10
3.30434e-10
3.15243e-10
2.79863e-10
2.52633e-10
2.32308e-10
2.2083e-10
2.09042e-10
1.18014e-15
3.15846e-14
4.36672e-13
3.09516e-12
1.38412e-11
5.79533e-11
1.28497e-10
1.36155e-10
1.24058e-10
1.07522e-10
8.47712e-11
7.00193e-11
6.90478e-11
7.69799e-11
8.99417e-11
1.03431e-10
1.13618e-10
1.09067e-10
1.01685e-10
9.55539e-11
9.12997e-11
8.29613e-11
7.4614e-11
1.10593e-16
3.24168e-15
5.42422e-14
4.53415e-13
2.63104e-12
1.24178e-11
2.64596e-11
2.86724e-11
2.98013e-11
2.69726e-11
2.26024e-11
1.99924e-11
2.03509e-11
2.35651e-11
2.80742e-11
3.24674e-11
3.52057e-11
3.46758e-11
3.35838e-11
3.25262e-11
3.06025e-11
2.70063e-11
2.22516e-11
3.31867e-18
2.13609e-16
4.76928e-15
5.03974e-14
3.61018e-13
2.01828e-12
4.94738e-12
5.63495e-12
5.54255e-12
5.68165e-12
5.09233e-12
4.74799e-12
5.26313e-12
6.36861e-12
7.9321e-12
9.27101e-12
1.01117e-11
1.01988e-11
1.01016e-11
9.73984e-12
9.09068e-12
7.4564e-12
5.48863e-12
2.15939e-19
1.22411e-17
4.06422e-16
4.74326e-15
4.08706e-14
2.70337e-13
7.21094e-13
8.72468e-13
9.75699e-13
1.01798e-12
9.95529e-13
1.01193e-12
1.21984e-12
1.57023e-12
2.03986e-12
2.39482e-12
2.60433e-12
2.62861e-12
2.64166e-12
2.53118e-12
2.21995e-12
1.65333e-12
1.08277e-12
5.32016e-21
4.94608e-19
2.45383e-17
3.81214e-16
3.95133e-15
2.66034e-14
8.78856e-14
1.13719e-13
1.32349e-13
1.58225e-13
1.56814e-13
1.88096e-13
2.499e-13
3.4149e-13
4.30269e-13
5.27858e-13
5.73929e-13
5.94649e-13
5.93413e-13
5.49464e-13
4.6335e-13
3.08111e-13
1.76702e-13
2.22913e-22
1.94514e-20
1.54905e-18
3.21852e-17
3.75142e-16
2.50468e-15
7.42333e-15
1.08515e-14
1.616e-14
1.79179e-14
2.19299e-14
3.06364e-14
4.36985e-14
6.15359e-14
8.43056e-14
1.01912e-13
1.12645e-13
1.16937e-13
1.15029e-13
1.01235e-13
7.53108e-14
4.23761e-14
2.23619e-14
6.14364e-24
5.92394e-22
8.72593e-20
2.16571e-18
2.61995e-17
1.81598e-16
6.17672e-16
8.74515e-16
1.44734e-15
2.25946e-15
3.04154e-15
4.22512e-15
6.60663e-15
1.01582e-14
1.39835e-14
1.76548e-14
2.01713e-14
2.07819e-14
1.9267e-14
1.51181e-14
1.00243e-14
4.96168e-15
2.67843e-15
1.45628e-25
2.4342e-23
3.90632e-21
1.15354e-19
1.46401e-18
9.17421e-18
3.75121e-17
7.78226e-17
1.46184e-16
2.37079e-16
3.43737e-16
5.7284e-16
9.58423e-16
1.50572e-15
2.12703e-15
2.7709e-15
3.16664e-15
3.16859e-15
2.65356e-15
1.88582e-15
1.09272e-15
5.52543e-16
5.03867e-16
3.54839e-27
7.47609e-25
1.47498e-22
5.17151e-21
6.07908e-20
5.2392e-19
2.36172e-18
5.83059e-18
1.2609e-17
2.32004e-17
3.80096e-17
6.95983e-17
1.23807e-16
2.03088e-16
2.96087e-16
3.8567e-16
4.30106e-16
3.91208e-16
3.02681e-16
1.9473e-16
1.1493e-16
9.42815e-17
1.82665e-16
1.65501e-28
2.18015e-26
4.79278e-24
2.00439e-22
2.87211e-21
2.36989e-20
1.18892e-19
3.79839e-19
9.64191e-19
1.99847e-18
3.76343e-18
7.58932e-18
1.43253e-17
2.44265e-17
3.66599e-17
4.72858e-17
4.96342e-17
4.30528e-17
3.08839e-17
2.06654e-17
1.69818e-17
2.74174e-17
8.68031e-17
2.39017e-29
7.85428e-28
1.37003e-25
6.83941e-24
1.07152e-22
9.25635e-22
5.42163e-21
2.18014e-20
6.72146e-20
1.54107e-19
3.31728e-19
7.32131e-19
1.46855e-18
2.61781e-18
4.03655e-18
5.03736e-18
5.13266e-18
4.39191e-18
3.29606e-18
2.98629e-18
4.26096e-18
1.09168e-17
4.0732e-17
4.79701e-30
7.37117e-29
3.86717e-27
2.13072e-25
3.60246e-24
3.41324e-23
2.36729e-22
1.1504e-21
4.24106e-21
1.08028e-20
2.61541e-20
6.3094e-20
1.36054e-19
2.55449e-19
3.96671e-19
5.01005e-19
5.28283e-19
4.86945e-19
4.68012e-19
6.44401e-19
1.27126e-18
4.02069e-18
2.17091e-17
9.37727e-31
1.2712e-29
1.88773e-28
6.77024e-27
1.24158e-25
1.27514e-24
1.00118e-23
5.65252e-23
2.4988e-22
7.04605e-22
1.9249e-21
5.13743e-21
1.20619e-20
2.40898e-20
3.87989e-20
5.30837e-20
6.21112e-20
6.9401e-20
9.08751e-20
1.75888e-19
4.52487e-19
2.249e-18
1.32563e-17
1.67443e-31
2.26782e-30
2.37772e-29
3.39206e-28
5.30416e-27
5.41721e-26
4.4275e-25
2.84382e-24
1.48677e-23
4.83484e-23
1.51567e-22
4.49955e-22
1.15213e-21
2.47829e-21
4.36071e-21
6.5267e-21
9.08912e-21
1.23871e-20
2.08714e-20
5.27072e-20
2.19355e-19
1.16866e-18
7.80137e-18
2.61959e-32
3.88308e-31
4.15859e-30
4.19719e-29
4.42478e-28
3.88014e-27
2.9795e-26
2.0707e-25
1.18617e-24
4.53833e-24
1.59812e-23
5.0594e-23
1.36787e-22
3.1364e-22
5.97833e-22
9.79261e-22
1.58136e-21
2.54764e-21
5.33152e-21
1.87682e-20
9.56824e-20
5.29522e-19
3.65265e-18
0.720373
0.984777
0.88603
0.731555
0.964838
0.995498
0.808317
0.649681
0.999947
0.999978
0.865162
0.695938
0.999998
0.999984
0.980711
0.889617
0.999975
0.999973
0.99998
0.999999
0.99999
0.999997
1
1
1
1
1
1
1
1
1
1
1
0.978433
0.930969
0.906741
0.448094
0.283234
0.184482
0.151282
0.000294446
1.40479e-06
1.31817e-06
8.66069e-07
7.69587e-07
8.96612e-07
1.32239e-06
9.8223e-07
1.56156e-06
1.58116e-06
1.47602e-06
1.32468e-06
1.53866e-06
1.27512e-06
5.94128e-07
4.13773e-07
3.03512e-07
1.55812e-07
1.63888e-07
9.52524e-08
4.29666e-08
4.56358e-08
2.94946e-08
1.70688e-08
1.07694e-08
5.73237e-09
6.09219e-09
2.36777e-09
5.39127e-09
5.60181e-09
6.34968e-09
5.34333e-09
9.37881e-09
9.6826e-09
1.21076e-08
1.37095e-08
1.76618e-08
1.49068e-08
1.5918e-08
1.5809e-08
1.21773e-08
1.27681e-08
1.2947e-08
1.31588e-08
6.82991e-09
7.04689e-09
7.77e-09
7.67277e-09
4.08766e-09
4.09687e-09
4.10295e-09
4.20338e-09
2.22088e-09
2.11712e-09
2.15726e-09
2.10874e-09
1.09789e-09
1.08268e-09
1.04701e-09
1.01353e-09
4.97863e-10
4.7059e-10
4.5021e-10
4.16951e-10
1.99738e-10
1.89344e-10
1.71745e-10
1.57267e-10
7.01471e-11
6.23183e-11
5.58774e-11
4.84298e-11
1.9846e-11
1.7299e-11
1.4626e-11
1.23665e-11
4.7869e-12
3.84373e-12
3.11005e-12
2.45364e-12
8.52685e-13
6.51069e-13
5.03156e-13
3.80171e-13
1.32425e-13
9.09559e-14
6.47201e-14
4.65775e-14
1.54978e-14
1.07885e-14
8.15577e-15
6.89412e-15
2.10371e-15
1.89597e-15
2.05257e-15
2.60646e-15
5.66859e-16
7.21175e-16
1.02789e-15
1.5683e-15
2.53509e-16
3.49622e-16
5.86007e-16
1.13052e-15
1.27283e-16
1.97088e-16
3.93553e-16
9.7278e-16
6.62862e-17
1.21124e-16
3.731e-16
1.10623e-15
4.06532e-17
1.03075e-16
3.53953e-16
1.11674e-15
3.03778e-17
9.93249e-17
3.50382e-16
1.1183e-15
1.88332e-17
7.90574e-17
2.82197e-16
8.49681e-16
1.49101e-17
4.98781e-17
1.52073e-16
3.88436e-16
0.17045
0.00419057
4.32628e-06
-2.69832e-08
0.00386014
0.00907563
0.00602145
0.0113626
0.0214638
0.0696158
0.194356
0.410007
0.651134
0.866528
0.965889
0.998064
0.977838
0.879775
0.682243
0.601321
0.0152178
0.00430321
0.254317
0.516102
0.566643
0.551177
0.595377
0.65033
0.770798
0.915149
0.999378
0.999325
0.999275
0.999033
0.998982
0.999448
0.985882
0.650462
0.569713
0.324784
0.559
0.917535
0.992675
0.998544
0.999021
0.999587
0.999932
0.999988
0.999925
0.99983
0.999751
0.999666
0.999571
0.999543
0.999523
0.824986
0.535352
0.801829
0.865402
0.965283
0.999264
0.999997
1
1
1
1
1
1
0.993192
0.970866
0.952989
0.945035
0.974071
0.990547
0.711424
0.535227
0.997273
0.999547
1
1
1
1
1
1
1
0.917901
0.730568
0.513868
0.397621
0.401672
0.450304
0.538829
0.62433
0.647769
0.600939
1
1
1
1
1
1
1
0.912087
0.618269
0.243309
0.0325149
0.000323049
9.68294e-07
0.000163714
0.0296393
0.0807784
0.0536597
0.0406828
0.0382302
1
1
1
1
1
0.934019
0.648888
0.188957
3.87453e-08
4.13635e-08
3.87425e-08
2.00991e-14
1.61054e-11
9.29453e-08
-3.46102e-07
0.00256722
1.19195e-06
1.10733e-06
1.19195e-06
1
1
1
0.919593
0.58512
0.118944
8.94466e-08
4.08153e-08
3.25806e-08
3.87425e-08
1.19387e-07
7.87047e-08
2.78592e-05
0.00342387
0.00618096
0.00612546
0.000254143
1.05321e-06
1.28585e-06
0.853008
0.670136
0.351023
0.0708024
2.46163e-07
3.94472e-08
4.07029e-08
3.25834e-08
6.00539e-05
0.000861967
0.000970215
2.63797e-05
0.000113352
0.00353732
0.00443634
0.000204055
4.46734e-07
1.02194e-06
1.13307e-06
0.0974459
0.0207358
4.92034e-07
1.37391e-07
1.63586e-07
6.91463e-07
6.85442e-07
6.24638e-06
0.000741342
0.00116645
0.00116421
0.000239469
3.00406e-05
0.000533431
3.26649e-06
2.03167e-07
4.37244e-07
1.10595e-07
2.79164e-07
9.47451e-07
2.74677e-07
1.19509e-07
1.06601e-07
8.69856e-07
2.05388e-06
7.08647e-07
4.89826e-05
0.000221085
0.00033023
0.000284319
9.33518e-05
2.0492e-07
2.55964e-07
2.67449e-07
3.17273e-07
1.05897e-07
1.12623e-07
1.2155e-06
7.30867e-07
3.35608e-07
9.02991e-08
1.76829e-07
2.21652e-06
2.52058e-06
2.7633e-06
5.36141e-06
6.61932e-09
1.48853e-08
3.10432e-08
5.6214e-08
2.08239e-07
3.03666e-07
3.19399e-07
2.37665e-07
1.74898e-08
1.92237e-07
1.72906e-06
6.77447e-07
9.84064e-08
5.99759e-08
1.07437e-07
3.76463e-07
5.89211e-07
2.78137e-07
5.54656e-08
6.29183e-09
1.19648e-08
2.83572e-08
5.65954e-08
1.05783e-07
1.2428e-07
9.14324e-08
2.46093e-08
1.19628e-08
2.45602e-07
1.73088e-06
1.51083e-07
9.64012e-09
2.19564e-08
2.31143e-08
1.45298e-08
1.71463e-08
8.43609e-09
3.81496e-09
6.31792e-09
8.89891e-09
1.16414e-08
1.32093e-08
1.42509e-08
5.20992e-09
3.86804e-09
3.91003e-09
1.11155e-08
2.616e-07
1.61257e-06
3.42015e-08
1.50575e-09
4.77213e-09
5.4839e-09
3.62395e-09
3.24323e-09
3.29938e-09
3.73553e-09
4.48778e-09
5.13124e-09
5.49566e-09
5.32204e-09
4.47178e-09
3.85947e-09
4.00546e-09
4.07291e-09
1.15601e-08
2.72865e-07
6.97913e-07
7.2852e-09
1.26746e-09
1.28037e-09
1.59151e-09
2.20146e-09
2.31894e-09
2.39283e-09
2.65967e-09
2.93451e-09
3.12758e-09
3.23466e-09
3.2693e-09
3.25125e-09
3.49428e-09
3.93884e-09
4.25657e-09
8.09413e-09
2.20022e-07
1.96056e-07
1.75006e-09
1.52089e-09
1.34057e-09
1.07339e-09
9.21172e-10
8.45683e-10
9.64931e-10
1.35956e-09
1.56901e-09
1.73383e-09
1.84213e-09
1.92806e-09
2.05505e-09
2.46945e-09
3.21388e-09
3.94345e-09
4.53239e-09
8.54627e-08
9.21287e-08
4.71781e-09
2.53977e-09
1.79206e-09
1.23826e-09
9.22059e-10
7.4205e-10
6.58034e-10
7.21426e-10
8.28308e-10
8.8534e-10
1.00499e-09
1.15164e-09
1.37815e-09
1.82625e-09
2.73544e-09
3.78002e-09
4.22476e-09
9.36732e-09
5.46174e-08
1.04382e-08
5.44367e-09
3.16259e-09
2.20404e-09
1.19581e-09
7.48498e-10
5.35313e-10
4.43052e-10
4.23789e-10
4.67741e-10
5.76928e-10
7.40602e-10
9.75702e-10
1.49107e-09
2.42581e-09
3.76347e-09
5.28143e-09
8.45322e-09
7.11508e-09
1.50908e-08
1.07819e-08
6.39375e-09
3.58891e-09
1.71453e-09
9.20206e-10
5.16069e-10
3.29764e-10
2.58183e-10
2.5326e-10
3.25774e-10
5.13433e-10
7.94352e-10
1.32733e-09
2.32732e-09
3.89507e-09
6.50226e-09
6.84122e-09
7.6842e-09
1.24714e-08
1.01218e-08
6.8625e-09
4.06943e-09
2.03526e-09
1.04957e-09
5.35966e-10
2.89348e-10
1.85419e-10
1.62002e-10
2.10243e-10
3.96924e-10
7.11245e-10
1.29459e-09
2.34162e-09
4.15479e-09
7.64778e-09
1.02005e-08
1.00201e-08
7.58736e-09
6.41265e-09
4.70789e-09
3.13459e-09
1.7613e-09
9.42523e-10
4.79995e-10
2.4476e-10
1.43424e-10
1.22639e-10
1.76074e-10
3.59662e-10
7.0547e-10
1.34551e-09
2.47298e-09
4.53749e-09
9.53258e-09
1.29304e-08
1.23512e-08
4.04719e-09
3.49738e-09
2.65035e-09
1.84092e-09
1.11644e-09
6.25223e-10
3.29083e-10
1.7106e-10
1.03879e-10
1.00823e-10
1.74655e-10
3.78461e-10
7.59847e-10
1.47345e-09
2.69555e-09
5.41576e-09
1.12381e-08
1.80961e-08
1.32816e-08
1.97122e-09
1.68708e-09
1.29888e-09
9.07098e-10
5.6258e-10
3.2144e-10
1.74027e-10
9.65778e-11
7.08174e-11
9.4009e-11
1.98325e-10
4.27176e-10
8.74148e-10
1.66059e-09
3.07506e-09
6.40215e-09
1.59884e-08
2.32218e-08
1.75083e-08
8.86763e-10
7.30514e-10
5.43511e-10
3.70175e-10
2.3002e-10
1.32618e-10
7.4648e-11
4.89231e-11
5.34543e-11
1.03827e-10
2.31258e-10
5.06875e-10
1.03367e-09
1.91555e-09
3.57439e-09
8.39619e-09
1.99355e-08
3.85771e-08
2.22145e-08
3.49674e-10
2.79459e-10
2.01114e-10
1.32418e-10
7.98716e-11
4.58331e-11
2.9217e-11
2.95036e-11
5.43412e-11
1.22646e-10
2.82756e-10
6.2139e-10
1.24318e-09
2.22899e-09
4.24973e-09
1.08793e-08
3.22695e-08
4.76417e-08
3.23051e-08
1.23427e-10
9.05286e-11
6.08583e-11
3.75227e-11
2.19642e-11
1.41397e-11
1.47275e-11
2.78564e-11
6.50678e-11
1.53553e-10
3.55255e-10
7.72053e-10
1.50172e-09
2.59046e-09
5.13851e-09
1.55995e-08
4.2359e-08
8.9054e-08
3.69909e-08
3.48661e-11
2.39352e-11
1.5278e-11
9.21329e-12
6.15908e-12
6.82365e-12
1.40029e-11
3.41219e-11
8.3156e-11
1.96189e-10
4.49538e-10
9.59812e-10
1.80637e-09
2.98197e-09
6.27157e-09
2.18766e-08
6.36485e-08
1.04831e-07
4.14774e-08
8.17607e-12
5.04794e-12
2.99954e-12
2.13925e-12
2.90639e-12
6.6978e-12
1.75055e-11
4.4038e-11
1.06681e-10
2.499e-10
5.65832e-10
1.18355e-09
2.15158e-09
3.38755e-09
7.70454e-09
3.05587e-08
8.28147e-08
1.10278e-07
4.09219e-08
1.42282e-12
8.22326e-13
6.45562e-13
1.16279e-12
3.17406e-12
8.56059e-12
2.24603e-11
5.58883e-11
1.34258e-10
3.13428e-10
7.0232e-10
1.43945e-09
2.53463e-09
3.84728e-09
9.64689e-09
4.12618e-08
9.40752e-08
1.10758e-07
3.84442e-08
2.10517e-13
1.6681e-13
3.98738e-13
1.32421e-12
3.96681e-12
1.07834e-11
2.76421e-11
6.82242e-11
1.64205e-10
3.83409e-10
8.53517e-10
1.72047e-09
2.96185e-09
4.57982e-09
1.21956e-08
4.71351e-08
9.86207e-08
1.09968e-07
2.87606e-08
3.36699e-14
9.9014e-14
4.5681e-13
1.53297e-12
4.70288e-12
1.25319e-11
3.20249e-11
7.94481e-11
1.94039e-10
4.53567e-10
1.00898e-09
2.00902e-09
3.4466e-09
5.90175e-09
1.50213e-08
4.72317e-08
9.86699e-08
7.05795e-08
1.75856e-08
1.68333e-14
1.05348e-13
5.16289e-13
1.72331e-12
4.9675e-12
1.3474e-11
3.53183e-11
8.88811e-11
2.20278e-10
5.15698e-10
1.14637e-09
2.25472e-09
3.97268e-09
7.15135e-09
1.51451e-08
3.92586e-08
6.59828e-08
3.63076e-08
8.77061e-09
1.83237e-14
1.21477e-13
5.38485e-13
1.73905e-12
4.96031e-12
1.39315e-11
3.66551e-11
9.45576e-11
2.38684e-10
5.67824e-10
1.23259e-09
2.39289e-09
4.34229e-09
7.35911e-09
1.34549e-08
2.57335e-08
2.36522e-08
1.08067e-08
3.65875e-09
1.99066e-14
1.27509e-13
4.9783e-13
1.59726e-12
4.7199e-12
1.36674e-11
3.67408e-11
9.70586e-11
2.4061e-10
5.78831e-10
1.24486e-09
2.38426e-09
4.35564e-09
6.65776e-09
9.69224e-09
1.37924e-08
4.92379e-09
3.10838e-09
1.46763e-09
1.90318e-14
1.10281e-13
4.16581e-13
1.38879e-12
4.36329e-12
1.2699e-11
3.48106e-11
9.10454e-11
2.27746e-10
5.35338e-10
1.13825e-09
2.13989e-09
3.83413e-09
5.41687e-09
5.48704e-09
5.48202e-09
3.25216e-09
6.36472e-10
5.0016e-10
1.70376e-14
8.91821e-14
3.39108e-13
1.19643e-12
3.74591e-12
1.09754e-11
3.00021e-11
7.76516e-11
1.90783e-10
4.44003e-10
9.24621e-10
1.67354e-09
2.82318e-09
3.71585e-09
3.13749e-09
1.53194e-09
4.52643e-10
2.08531e-10
1.7271e-10
1.47383e-14
6.97079e-14
2.71455e-13
9.38337e-13
2.92338e-12
8.49846e-12
2.29236e-11
5.78525e-11
1.37912e-10
3.11578e-10
6.29195e-10
1.09091e-09
1.6461e-09
2.05464e-09
1.93138e-09
1.01007e-09
4.09809e-10
1.58048e-10
7.20765e-11
1.14075e-14
4.92904e-14
1.89826e-13
6.24045e-13
1.95302e-12
5.50292e-12
1.45396e-11
3.57244e-11
8.23544e-11
1.79262e-10
3.50505e-10
5.84757e-10
7.89293e-10
9.9531e-10
9.54531e-10
5.33306e-10
2.1554e-10
8.12903e-11
3.66246e-11
7.48752e-15
2.96502e-14
1.05302e-13
3.31638e-13
9.4694e-13
2.54839e-12
6.54013e-12
1.5813e-11
3.53088e-11
7.32241e-11
1.3711e-10
2.25244e-10
2.905e-10
3.50674e-10
3.05847e-10
1.75351e-10
5.97292e-11
2.21771e-11
1.84591e-11
3.75266e-15
1.32146e-14
4.30455e-14
1.27804e-13
3.54353e-13
9.31085e-13
2.26827e-12
5.41339e-12
1.18121e-11
2.35803e-11
4.15576e-11
6.4952e-11
8.44725e-11
9.07789e-11
7.14968e-11
3.26591e-11
9.05571e-12
6.91388e-12
5.59023e-12
1.02378e-15
3.15625e-15
9.45907e-15
2.61193e-14
6.78069e-14
1.74816e-13
3.99766e-13
8.5711e-13
1.88737e-12
3.65179e-12
6.26209e-12
9.29839e-12
1.14496e-11
1.00167e-11
7.51273e-12
3.1225e-12
1.86774e-12
7.75321e-13
6.44851e-13
)
;

boundaryField
{
    leftWall
    {
        type            alphaContactAngle;
        contactAngleProperties 
        {
            mercury         
            {
                theta0          90;
            }
            air             
            {
                theta0          90;
            }
            water           
            {
                theta0          90;
            }
        }
        value           nonuniform List<scalar> 
50
(
1.32385e-16
4.13535e-16
7.1563e-16
8.44851e-16
3.89333e-16
3.02559e-17
4.45209e-18
4.45261e-18
1.20139e-12
4.95903e-11
2.99536e-10
4.34472e-09
1.20141e-08
2.33516e-08
3.16356e-08
2.23116e-08
2.17888e-08
8.86694e-05
0.000826742
0.000319684
1.21952e-06
1.2124e-06
2.70549e-07
1.87113e-08
1.68496e-08
8.3232e-09
4.65395e-09
1.6682e-09
6.03731e-10
1.31962e-10
3.35119e-11
5.46875e-12
1.16556e-12
1.27911e-13
1.80328e-14
1.18014e-15
1.10593e-16
3.31867e-18
2.15939e-19
5.32016e-21
2.22913e-22
6.14364e-24
1.45628e-25
3.54839e-27
1.65501e-28
2.39017e-29
4.79701e-30
9.37727e-31
1.67443e-31
2.61959e-32
)
;
    }
    rightWall
    {
        type            alphaContactAngle;
        contactAngleProperties 
        {
            mercury         
            {
                theta0          90;
            }
            air             
            {
                theta0          90;
            }
            water           
            {
                theta0          90;
            }
        }
        value           nonuniform List<scalar> 
50
(
0.277368
0.274377
0.380763
0.520696
0.52018
0.520696
0.464907
0.551372
0.682243
0.650462
0.535352
0.535227
0.600939
0.0382302
1.19195e-06
1.28585e-06
1.13307e-06
2.79164e-07
1.2155e-06
1.72906e-06
1.73088e-06
1.61257e-06
6.97913e-07
1.96056e-07
9.21287e-08
5.46174e-08
7.11508e-09
7.6842e-09
1.00201e-08
1.23512e-08
1.32816e-08
1.75083e-08
2.22145e-08
3.23051e-08
3.69909e-08
4.14774e-08
4.09219e-08
3.84442e-08
2.87606e-08
1.75856e-08
8.77061e-09
3.65875e-09
1.46763e-09
5.0016e-10
1.7271e-10
7.20765e-11
3.66246e-11
1.84591e-11
5.59023e-12
6.44851e-13
)
;
    }
    lowerWall
    {
        type            alphaContactAngle;
        contactAngleProperties 
        {
            mercury         
            {
                theta0          90;
            }
            air             
            {
                theta0          90;
            }
            water           
            {
                theta0          90;
            }
        }
        value           nonuniform List<scalar> 
62
(
1.32385e-16
2.66668e-15
3.76166e-14
1.91105e-13
5.40406e-13
1.38e-12
3.02119e-12
6.96287e-12
1.39576e-11
2.90973e-11
6.18613e-11
1.33848e-10
2.62547e-10
5.0422e-10
9.60787e-10
1.75707e-09
3.00667e-09
5.64605e-09
7.98328e-09
8.2763e-09
3.15755e-05
0.000513775
0.000568187
0.000568187
0.000568427
0.000224163
2.93247e-05
4.74198e-06
0.00216265
1.0081e-05
0.00187138
0.720373
0.984777
0.88603
0.731555
0.909072
0.909067
0.909063
0.909057
0.882278
0.709465
0.653648
0.498055
0.909072
0.525478
0.125101
0.114678
0.0657228
0.120936
0.393147
0.404936
0.414699
0.413146
0.384633
0.312901
0.0824108
0.0578109
0.114188
0.178498
0.242755
0.279064
0.277368
)
;
    }
    atmosphere
    {
        type            inletOutlet;
        inletValue      uniform 0;
        value           nonuniform List<scalar> 
46
(
0
0
0
0
0
0
0
0
0
0
1.59812e-23
5.0594e-23
1.36787e-22
3.1364e-22
5.97833e-22
9.79261e-22
1.58136e-21
2.54764e-21
5.33152e-21
1.87682e-20
9.56824e-20
5.29522e-19
3.65265e-18
0
4.98781e-17
0
0
0
0
0
0
0
0
0
0
0
0
0
0
1.14496e-11
1.00167e-11
7.51273e-12
3.1225e-12
1.86774e-12
7.75321e-13
6.44851e-13
)
;
    }
    defaultFaces
    {
        type            empty;
    }
}


// ************************************************************************* //
