/*--------------------------------*- C++ -*----------------------------------*\
  =========                 |
  \\      /  F ield         | OpenFOAM: The Open Source CFD Toolbox
   \\    /   O peration     | Website:  https://openfoam.org
    \\  /    A nd           | Version:  13
     \\/     M anipulation  |
\*---------------------------------------------------------------------------*/
FoamFile
{
    format      ascii;
    class       volScalarField;
    location    "1.25";
    object      alpha.mercury;
}
// * * * * * * * * * * * * * * * * * * * * * * * * * * * * * * * * * * * * * //

dimensions      [];

internalField   nonuniform List<scalar> 
2268
(
1
1
1
1
1
1
1
1
1
1
1
1
1
1
1
1
1
1
1
1
0.999968
0.999486
0.999432
1
1
1
1
1
1
1
1
1
1
1
1
1
1
1
1
1
1
1
1
1
0.9999
0.999432
1
1
1
1
1
1
1
1
1
1
1
1
1
1
1
1
1
1
1
1
1
1
0.999776
1
1
1
1
1
1
1
1
1
1
1
1
1
1
1
1
1
1
1
1
1
0.999998
0.999971
1
1
1
1
1
1
1
1
1
1
1
1
1
1
1
1
0.999999
0.999997
0.999996
0.999997
0.997546
0.999998
0.99997
0.998417
1
1
1
1
1
1
1
1
1
1
1
1
1
0.932349
0.81466
0.688732
0.573513
0.483585
0.415753
0.413916
0.46555
0.541159
0.488895
0.620107
0.777319
0.89506
0.951997
0.983671
0.998198
0.99997
0.999304
1
0.985574
0.875356
0.661035
0.398005
0.208863
0.0960548
0.0354029
0.00958605
0.00150091
1.25054e-07
0.000835229
0.0132409
0.0284568
6.98026e-10
0.00303831
0.0808452
0.22229
0.373642
0.483753
0.599207
0.661038
0.621938
0.45803
0.260766
0.108968
0.0202533
6.65343e-08
3.0608e-09
-3.53709e-20
-7.42641e-13
1.59815e-14
1.65655e-10
2.71199e-08
0.0097721
0.0211577
0.0182262
0.0884569
0.474522
0.874332
0.874355
0.874332
0.798266
0.506941
0.497321
0.506625
0.521144
0.501968
0.506809
0.690222
0.690267
0.690257
0.690308
0.690269
0.690346
0.690261
0.0870254
0.100542
0.398438
0.822026
0.874355
0.874277
0.874184
0.87309
0.87418
0.874195
0.824512
0.674705
0.60173
0.651442
0.64357
0.616393
0.648375
0.68993
0.69027
0.0793368
0.0908021
0.0932295
0.592624
0.752444
0.633507
0.635294
0.66587
0.673368
0.609598
0.547797
0.420554
0.258745
0.259979
0.285408
0.294819
0.352802
0.526441
0.541995
0.084073
0.284733
0.495849
0.470875
0.0903063
0.000158917
0.00397524
0.0357021
0.0775647
0.155217
0.21797
0.244877
0.261864
0.249187
0.223717
0.223834
0.228467
0.268453
0.315768
0.0769528
0.494028
0.489906
0.100298
-1.08422e-06
1.48575e-06
2.07807e-05
-2.41343e-20
4.33054e-20
2.49331e-10
0.00957776
0.0996879
0.276053
0.350795
0.345614
0.346105
0.33869
0.255886
0.272327
0.1672
0.408106
0.0861411
8.27928e-05
8.53828e-05
0.000118802
0.00223468
0.00306335
0.00232759
2.22177e-07
1.14616e-08
7.67477e-10
2.39899e-05
0.0398392
0.0755838
0.0902255
0.128629
0.108628
0.0914333
0.229727
0.0319192
0.000161486
9.35291e-05
8.30574e-05
0.000117888
0.000909637
0.00144275
0.000137312
1.38089e-05
5.83131e-05
1.00712e-08
1.98437e-05
0.000124277
1.58997e-11
1.55401e-11
1.83175e-10
0.00514796
0.0192476
0.233072
0.00010986
9.26884e-05
6.9561e-05
2.44047e-05
3.24254e-05
3.3072e-17
1.27595e-17
1.46843e-19
6.45397e-05
0.000226841
4.05676e-05
8.55429e-05
0.000771591
0.000852643
9.82976e-05
4.03259e-09
8.51275e-13
0.0188128
1.73553e-09
1.54366e-09
6.80025e-10
2.70365e-08
0.00847748
0.0213182
0.0153148
0.00170881
0.00112548
0.000818101
4.00799e-08
4.03609e-08
3.19856e-08
7.742e-09
-2.95434e-26
-3.36508e-18
1.48987e-09
1.08753e-08
-8.89438e-11
0.00666448
0.0364733
0.0369005
0.0272604
2.66492e-09
3.14274e-09
2.87234e-09
4.51875e-09
2.97905e-09
1.16898e-09
3.34699e-10
6.17602e-11
1.18822e-11
3.66474e-09
8.52845e-10
4.19693e-11
2.42577e-11
2.21982e-11
2.18715e-11
1.4708e-11
3.71039e-10
2.11562e-09
1.02988e-14
0.0028388
0.0100844
0.00991851
0.00504217
3.43276e-09
4.45206e-09
3.81063e-09
8.45492e-09
7.60488e-09
3.64298e-09
1.36389e-09
4.03176e-10
5.82816e-11
6.46679e-11
7.12744e-11
4.72811e-11
3.92249e-11
3.17147e-11
2.67941e-11
1.80987e-11
1.65816e-11
4.30985e-08
2.54906e-05
3.38791e-05
9.01267e-10
9.01162e-10
2.32922e-08
2.17888e-09
3.60439e-09
2.18577e-09
1.48619e-09
2.42064e-10
1.79828e-10
1.22876e-10
5.48369e-11
1.05867e-11
8.71759e-12
1.22963e-11
1.33913e-11
2.4377e-11
1.2319e-10
1.29215e-09
3.78513e-10
1.93226e-11
1.92421e-07
9.87471e-06
1.59495e-06
1.6642e-09
9.01397e-10
9.75631e-10
1.001e-09
8.57423e-10
6.13471e-10
2.37483e-10
1.23413e-10
9.18974e-11
3.94972e-11
2.35871e-11
2.13456e-11
2.94405e-11
7.59627e-11
3.67933e-10
1.15969e-09
3.77777e-09
5.20587e-09
3.02896e-09
1.25281e-08
1.80557e-07
9.16493e-10
3.4104e-08
6.13112e-09
9.01097e-10
1.95717e-08
6.20198e-10
4.09584e-10
2.69296e-10
2.256e-10
1.52867e-10
2.02358e-10
3.16052e-10
5.29614e-10
7.86037e-10
1.33755e-09
2.45255e-09
3.50682e-09
4.43673e-09
5.28294e-09
5.30582e-09
3.86597e-09
5.0565e-09
1.64261e-09
8.54886e-10
8.29183e-10
1.4121e-09
3.05888e-09
1.96643e-08
4.43312e-10
2.90424e-10
2.2865e-10
2.42143e-10
4.25377e-10
7.15148e-10
1.15429e-09
1.70745e-09
2.59799e-09
3.2228e-09
3.4044e-09
3.35441e-09
3.30103e-09
3.09273e-09
2.38817e-09
1.07832e-09
3.18714e-10
4.31911e-10
9.61352e-10
8.10515e-10
1.29631e-09
3.15685e-09
3.13594e-09
2.96271e-10
1.78459e-10
2.61418e-10
4.9355e-10
7.22791e-10
9.81963e-10
1.4631e-09
1.82255e-09
1.97764e-09
1.97989e-09
1.69256e-09
1.03626e-09
7.81212e-10
5.81009e-10
3.50293e-10
2.52102e-10
2.75977e-10
4.60889e-10
6.45012e-10
7.04591e-10
9.92957e-10
1.66383e-09
2.28082e-09
1.32515e-10
1.44873e-10
4.91929e-10
7.21029e-10
7.15349e-10
6.53104e-10
6.38144e-10
6.53283e-10
5.79596e-10
5.12624e-10
3.73656e-10
3.63541e-10
2.58834e-10
1.51519e-10
1.37832e-10
1.85661e-10
2.35392e-10
3.01922e-10
3.39868e-10
4.00017e-10
5.33318e-10
4.77874e-10
6.36275e-10
4.70255e-11
1.93041e-10
6.45744e-10
7.54802e-10
5.43939e-10
2.97448e-10
2.13156e-10
1.80756e-10
1.45253e-10
1.04632e-10
9.95228e-11
1.01562e-10
9.77228e-11
8.42252e-11
1.02773e-10
1.24691e-10
1.31773e-10
1.1993e-10
1.15984e-10
1.28811e-10
1.09818e-10
6.64678e-11
5.15801e-11
3.83217e-11
2.86883e-10
7.15019e-10
7.55438e-10
5.0553e-10
2.35855e-10
1.31301e-10
8.73361e-11
6.23815e-11
4.94422e-11
4.44384e-11
3.99664e-11
3.70041e-11
3.64538e-11
4.16303e-11
3.93757e-11
3.00892e-11
2.03642e-11
1.57686e-11
1.68827e-11
1.38836e-11
1.22628e-11
9.51389e-12
2.85123e-11
2.85454e-10
6.85031e-10
7.16195e-10
4.76886e-10
3.01643e-10
1.67169e-10
9.91052e-11
4.93127e-11
2.33119e-11
1.44232e-11
1.13694e-11
1.02887e-11
9.71911e-12
8.75158e-12
7.01909e-12
5.27748e-12
4.05477e-12
3.85103e-12
4.01131e-12
5.17474e-12
5.56328e-12
3.35012e-12
2.45702e-11
2.2531e-10
5.28758e-10
5.91178e-10
5.13593e-10
3.91467e-10
2.97385e-10
2.13908e-10
1.12841e-10
3.84522e-11
1.43678e-11
8.52615e-12
6.40238e-12
5.14118e-12
4.38374e-12
3.79959e-12
3.14475e-12
2.65977e-12
2.21543e-12
2.26129e-12
2.36428e-12
1.94488e-12
9.86807e-13
2.48873e-11
1.51457e-10
3.90924e-10
5.14429e-10
5.00162e-10
4.31925e-10
3.64596e-10
3.06331e-10
2.33609e-10
1.14732e-10
3.37845e-11
9.19948e-12
5.63492e-12
4.64924e-12
3.97521e-12
3.29154e-12
2.5843e-12
2.01385e-12
1.675e-12
1.41149e-12
1.15048e-12
8.8956e-13
6.77452e-13
9.22478e-12
7.10449e-11
2.40178e-10
3.87704e-10
3.88647e-10
3.76312e-10
3.33547e-10
3.33035e-10
3.24368e-10
2.60374e-10
1.43376e-10
4.69091e-11
1.38449e-11
6.31689e-12
4.64497e-12
3.75286e-12
2.93109e-12
2.27801e-12
1.86133e-12
1.53589e-12
1.20841e-12
8.97858e-13
6.59233e-13
2.73735e-12
2.95774e-11
1.20014e-10
2.55925e-10
3.12252e-10
2.98281e-10
2.85567e-10
2.90313e-10
3.06811e-10
3.1736e-10
3.08445e-10
2.02348e-10
8.92888e-11
3.40918e-11
1.4629e-11
8.58005e-12
6.43483e-12
5.21202e-12
4.16053e-12
3.1577e-12
2.41069e-12
1.79291e-12
1.26847e-12
2.00486e-12
1.26667e-11
4.17792e-11
1.0982e-10
1.69383e-10
1.96882e-10
2.0405e-10
2.12289e-10
2.34111e-10
2.6705e-10
2.8886e-10
2.9072e-10
2.66184e-10
1.76456e-10
9.6829e-11
4.81456e-11
2.71134e-11
1.8364e-11
1.46918e-11
1.09568e-11
7.94648e-12
5.5472e-12
3.84412e-12
8.13979e-13
5.69505e-12
2.12678e-11
4.42855e-11
7.35257e-11
1.07518e-10
1.26544e-10
1.37022e-10
1.45845e-10
1.5958e-10
1.92287e-10
2.21964e-10
2.36287e-10
2.33082e-10
1.96176e-10
1.35908e-10
8.68454e-11
5.4468e-11
3.5009e-11
2.28999e-11
1.50379e-11
9.66941e-12
5.66e-12
3.40924e-13
2.49328e-12
9.52947e-12
2.33885e-11
3.77705e-11
4.86483e-11
6.11354e-11
8.0532e-11
8.52038e-11
8.95442e-11
9.52657e-11
1.05406e-10
1.23335e-10
1.42567e-10
1.49828e-10
1.36194e-10
9.93249e-11
6.60566e-11
4.15228e-11
2.7463e-11
1.55907e-11
9.6548e-12
5.0819e-12
9.22228e-14
8.08234e-13
3.8054e-12
1.07474e-11
2.06352e-11
2.73758e-11
3.20897e-11
4.50206e-11
4.94676e-11
4.88438e-11
4.76109e-11
4.56216e-11
4.47627e-11
5.02413e-11
5.76167e-11
6.12481e-11
6.02411e-11
4.68615e-11
3.05246e-11
1.91837e-11
1.21429e-11
6.51552e-12
3.3288e-12
2.50932e-14
2.52448e-13
1.2778e-12
4.36392e-12
9.98194e-12
1.52691e-11
1.83207e-11
2.48602e-11
2.99249e-11
2.91275e-11
2.5058e-11
2.25687e-11
1.97276e-11
1.72096e-11
1.6616e-11
1.69061e-11
1.72471e-11
1.59068e-11
1.21847e-11
8.18012e-12
5.76992e-12
3.7579e-12
2.20943e-12
4.17409e-15
5.87336e-14
3.57785e-13
1.44114e-12
4.08421e-12
7.8382e-12
9.82708e-12
1.25518e-11
1.73304e-11
1.72839e-11
1.46833e-11
1.14409e-11
9.82654e-12
7.63499e-12
5.91356e-12
5.37432e-12
4.962e-12
4.31993e-12
3.93712e-12
3.17114e-12
2.29573e-12
1.70181e-12
1.26129e-12
9.04178e-16
1.28666e-14
8.4845e-14
3.92898e-13
1.37388e-12
3.43314e-12
4.77647e-12
5.69002e-12
8.9319e-12
9.89331e-12
8.39739e-12
6.11242e-12
4.73163e-12
3.71544e-12
2.61837e-12
2.02372e-12
1.78006e-12
1.41228e-12
1.24955e-12
1.09664e-12
8.64534e-13
7.29674e-13
5.99535e-13
1.29986e-16
2.58665e-15
1.86115e-14
9.69858e-14
3.98366e-13
1.25747e-12
2.04719e-12
2.40683e-12
3.90114e-12
5.0099e-12
4.34007e-12
3.22207e-12
2.23706e-12
1.67739e-12
1.17584e-12
8.07468e-13
6.23762e-13
5.01279e-13
4.39236e-13
4.08316e-13
3.51805e-13
2.74904e-13
2.47496e-13
2.75323e-17
4.84608e-16
3.87281e-15
2.34869e-14
1.12762e-13
4.05189e-13
7.49443e-13
9.39354e-13
1.48435e-12
2.17085e-12
1.95579e-12
1.51586e-12
1.04357e-12
7.04019e-13
4.81472e-13
3.27306e-13
2.22982e-13
1.76467e-13
1.47711e-13
1.35784e-13
1.16515e-13
1.02551e-13
9.06486e-14
3.15389e-18
6.34174e-17
7.47447e-16
5.27888e-15
3.03209e-14
1.17779e-13
2.42082e-13
3.24012e-13
5.11805e-13
7.9881e-13
7.54056e-13
6.12492e-13
4.32515e-13
2.80978e-13
1.77084e-13
1.18748e-13
7.66159e-14
5.966e-14
4.95842e-14
4.3151e-14
3.9929e-14
3.42495e-14
2.99078e-14
4.93189e-19
1.05305e-17
1.35247e-16
1.09336e-15
7.55266e-15
3.10185e-14
7.03433e-14
9.83175e-14
1.59495e-13
2.53562e-13
2.44681e-13
2.07815e-13
1.49909e-13
9.68515e-14
5.71269e-14
3.70911e-14
2.3746e-14
1.92487e-14
1.57029e-14
1.3815e-14
1.23381e-14
1.10203e-14
9.40098e-15
4.04253e-20
8.52541e-19
1.62521e-17
1.73762e-16
1.48359e-15
6.51779e-15
1.68301e-14
2.69068e-14
4.45202e-14
6.90212e-14
6.73959e-14
5.66043e-14
4.36419e-14
2.69288e-14
1.52543e-14
9.97713e-15
6.75927e-15
5.4827e-15
4.57997e-15
4.07844e-15
3.75181e-15
3.15559e-15
2.60467e-15
4.99407e-21
9.58901e-20
2.33588e-18
2.89947e-17
2.85046e-16
1.39853e-15
3.5287e-15
6.19066e-15
1.09182e-14
1.58824e-14
1.5835e-14
1.36941e-14
1.05148e-14
6.1597e-15
3.54059e-15
2.40163e-15
1.71135e-15
1.39934e-15
1.19915e-15
1.0928e-15
9.8178e-16
8.10489e-16
6.18404e-16
2.69235e-22
7.26224e-21
2.5562e-19
3.8435e-18
4.00834e-17
2.31704e-16
6.82963e-16
1.3259e-15
2.11238e-15
3.11591e-15
3.15821e-15
2.67028e-15
2.02494e-15
1.16575e-15
7.13069e-16
5.17373e-16
4.00881e-16
3.19318e-16
2.83733e-16
2.57526e-16
2.33092e-16
1.80027e-16
1.22349e-16
2.91764e-23
5.10214e-22
2.76407e-20
4.29554e-19
4.72062e-18
3.21853e-17
1.05187e-16
2.24105e-16
3.78722e-16
5.25256e-16
5.35021e-16
4.50961e-16
3.19667e-16
1.89476e-16
1.29436e-16
1.00478e-16
8.10533e-17
6.51128e-17
5.87871e-17
5.35113e-17
4.5911e-17
3.23502e-17
1.95973e-17
1.54963e-24
2.5634e-23
2.09081e-21
4.03156e-20
4.79198e-19
3.33523e-18
1.36855e-17
3.15456e-17
5.18771e-17
7.50815e-17
6.98034e-17
6.10975e-17
4.32512e-17
2.72658e-17
1.91828e-17
1.65061e-17
1.36961e-17
1.15258e-17
1.05434e-17
9.40594e-18
7.82186e-18
4.92905e-18
2.60132e-18
1.16427e-25
1.34532e-24
1.65453e-22
3.76823e-21
4.76667e-20
3.31893e-19
1.23753e-18
3.23551e-18
6.20218e-18
7.43025e-18
7.50809e-18
6.92316e-18
4.763e-18
3.21328e-18
2.74468e-18
2.38789e-18
2.01584e-18
1.75238e-18
1.62438e-18
1.42654e-18
1.04259e-18
5.51807e-19
2.62112e-19
6.73523e-27
5.65918e-26
1.09953e-23
2.71941e-22
3.49566e-21
2.56545e-20
1.09802e-19
2.68959e-19
5.20357e-19
7.92602e-19
7.95033e-19
6.02511e-19
4.30621e-19
3.68671e-19
3.33818e-19
3.04206e-19
2.72897e-19
2.46492e-19
2.21117e-19
1.75772e-19
1.13936e-19
5.09393e-20
2.08156e-20
3.36301e-28
2.87777e-27
5.62578e-25
1.52415e-23
2.0652e-22
1.40926e-21
7.12917e-21
2.35687e-20
4.73742e-20
6.66441e-20
6.25433e-20
5.02068e-20
4.12614e-20
3.84047e-20
3.65274e-20
3.50222e-20
3.28347e-20
3.01305e-20
2.52261e-20
1.79989e-20
9.76611e-21
3.7343e-21
1.63362e-21
1.36751e-29
1.06094e-28
2.31081e-26
6.95553e-25
8.96683e-24
8.50405e-23
4.66018e-22
1.64913e-21
3.50836e-21
4.99479e-21
4.5747e-21
3.86118e-21
3.6507e-21
3.69491e-21
3.6656e-21
3.61264e-21
3.45954e-21
3.02246e-21
2.35891e-21
1.44015e-21
6.77255e-22
2.40196e-22
6.73976e-23
4.37998e-31
3.18308e-30
7.63377e-28
2.62137e-26
4.21926e-25
3.90541e-24
2.33689e-23
9.42058e-23
2.1732e-22
3.13098e-22
2.93455e-22
2.79794e-22
2.98495e-22
3.21334e-22
3.29901e-22
3.32727e-22
3.14618e-22
2.67605e-22
1.83952e-22
9.69411e-23
3.8931e-23
1.04336e-23
9.37535e-25
1.12588e-32
7.5408e-32
2.03562e-29
8.20207e-28
1.45902e-26
1.43468e-25
9.84219e-25
4.44726e-24
1.15e-23
1.66652e-23
1.68961e-23
1.87226e-23
2.19642e-23
2.47797e-23
2.64906e-23
2.68855e-23
2.5028e-23
2.02423e-23
1.23044e-23
5.71893e-24
1.58232e-24
1.3462e-25
7.49365e-27
2.27216e-34
1.40376e-33
4.35691e-31
2.1608e-29
4.00149e-28
4.37861e-27
3.59601e-26
1.79301e-25
5.18732e-25
7.68962e-25
8.79979e-25
1.12619e-24
1.42753e-24
1.69653e-24
1.87298e-24
1.93252e-24
1.79169e-24
1.35997e-24
7.4659e-25
2.68498e-25
3.64802e-26
1.96725e-27
1.4827e-27
1.73379e-36
1.84963e-35
7.46447e-33
4.88811e-31
9.26484e-30
1.14631e-28
1.14023e-27
6.15927e-27
2.02123e-26
3.11727e-26
4.13142e-26
6.02497e-26
8.21553e-26
1.03999e-25
1.18574e-25
1.27834e-25
1.1781e-25
8.49045e-26
3.96454e-26
1.01618e-26
9.09965e-28
1.96667e-28
6.91405e-28
-1.89611e-37
-1.49601e-38
1.03473e-34
9.66014e-33
1.92405e-31
2.66445e-30
3.1085e-29
1.80649e-28
6.77844e-28
1.13321e-27
1.74321e-27
2.87122e-27
4.22299e-27
5.75092e-27
6.93716e-27
7.63164e-27
7.04607e-27
4.77153e-27
1.96435e-27
4.0413e-28
4.26986e-29
6.39771e-29
3.88088e-28
-1.49834e-38
-1.57184e-38
1.37107e-36
1.73904e-34
3.82792e-33
5.58787e-32
7.19972e-31
4.55418e-30
1.96902e-29
3.70543e-29
6.58617e-29
1.22273e-28
1.94908e-28
2.88438e-28
3.77164e-28
4.138e-28
3.9451e-28
2.65818e-28
1.04335e-28
1.90456e-29
6.75422e-30
2.64106e-29
1.78015e-28
0.00443766
2.10366e-05
0.00202744
0.0328001
0.000568399
1.93549e-05
0.00357427
0.0223717
5.14112e-05
1.81804e-05
0.00104237
0.0150872
4.954e-07
1.44989e-05
7.50576e-05
0.00139612
8.31558e-07
3.4057e-06
6.44433e-09
1.03186e-08
6.6953e-08
3.93779e-08
7.3705e-09
1.87488e-08
3.38307e-09
4.69882e-09
9.98776e-09
2.05204e-08
2.91598e-09
3.87075e-09
4.5347e-09
4.73195e-09
1.00491e-09
1.20558e-09
8.70645e-10
5.60628e-10
8.1418e-11
7.33424e-11
3.65677e-11
1.05583e-11
5.92039e-12
3.91208e-12
3.0297e-12
2.46916e-12
1.4984e-12
1.17375e-12
1.0569e-12
9.12466e-13
7.1772e-13
6.72093e-13
6.37069e-13
5.86308e-13
5.85581e-13
5.34922e-13
4.65144e-13
4.0969e-13
5.51352e-13
4.84033e-13
4.3422e-13
3.75225e-13
8.91435e-13
8.00171e-13
7.11698e-13
6.25623e-13
2.58208e-12
1.932e-12
1.67661e-12
1.32507e-12
3.93773e-12
3.3303e-12
2.41551e-12
2.00468e-12
3.49704e-12
2.96611e-12
2.23065e-12
1.69648e-12
2.10293e-12
1.66917e-12
1.41632e-12
1.10633e-12
1.41345e-12
1.11097e-12
9.05419e-13
7.29166e-13
9.46466e-13
7.48669e-13
6.41665e-13
4.99873e-13
4.93054e-13
4.27623e-13
3.6171e-13
3.00003e-13
2.12889e-13
1.80283e-13
1.62684e-13
1.33289e-13
7.93301e-14
7.03133e-14
6.03164e-14
5.27746e-14
2.75987e-14
2.38211e-14
2.10502e-14
1.76597e-14
8.46556e-15
7.54479e-15
6.27939e-15
5.37593e-15
2.35244e-15
1.95946e-15
1.66291e-15
1.35001e-15
5.26614e-16
4.35586e-16
3.47757e-16
2.78084e-16
1.03007e-16
7.82919e-17
6.01252e-17
4.47634e-17
1.46596e-17
1.05376e-17
7.68793e-18
5.44481e-18
1.84882e-18
1.17379e-18
7.6378e-19
4.91406e-19
1.64603e-19
9.79985e-20
5.87346e-20
3.45637e-20
1.21762e-20
6.80293e-21
3.78119e-21
7.19909e-22
6.42455e-22
7.22531e-23
3.57246e-24
1.23149e-25
8.8223e-25
1.23526e-26
2.7404e-26
6.18046e-26
5.35244e-27
1.0387e-26
2.25993e-26
5.45301e-26
5.3144e-27
7.38718e-27
2.0172e-26
5.88357e-26
2.23289e-27
5.38312e-27
1.82271e-26
5.69111e-26
1.54446e-27
4.98164e-27
1.73298e-26
5.4383e-26
9.27561e-28
3.82684e-27
1.3415e-26
3.96485e-26
7.1591e-28
2.35853e-27
7.08496e-27
1.7768e-26
0.161609
0.00113064
4.81772e-07
5.20752e-07
1.47438e-13
5.31496e-15
1.3217e-16
1.46866e-19
1.3217e-16
6.09551e-05
0.000225406
0.000186086
4.11425e-05
0.000809524
0.00102632
0.00023847
9.03507e-07
8.19756e-15
0.017928
0.0276311
0.00499999
5.75655e-08
2.57778e-07
3.50079e-07
1.41516e-07
3.63631e-08
1.02568e-08
1.06301e-13
3.77153e-06
0.000178446
0.000193749
4.50888e-05
1.12703e-05
2.91822e-05
1.08887e-05
6.89893e-07
8.51275e-13
0.00701894
0.0203218
0.00594086
7.84791e-08
1.9871e-07
4.49521e-07
4.41518e-07
1.90264e-07
6.13342e-08
1.44151e-10
1.98817e-06
-1.05365e-09
4.50681e-05
2.65124e-05
1.13132e-05
2.4512e-05
7.10759e-06
6.43084e-07
0.00203947
0.00695756
0.00539532
0.0022637
3.32412e-06
1.11947e-07
4.48466e-07
3.50681e-07
2.093e-07
1.0377e-07
5.28682e-08
2.38754e-09
2.57763e-09
2.38924e-09
1.93793e-06
3.95272e-05
4.7971e-05
2.22382e-05
5.10396e-05
0.00321308
0.00634863
5.26875e-09
4.49955e-09
7.23027e-08
1.31797e-07
1.33252e-07
6.58274e-08
3.77185e-08
2.90291e-08
2.00561e-08
2.68483e-09
8.23904e-08
2.45311e-09
3.93463e-06
4.50259e-05
4.50775e-05
7.17182e-05
0.000481659
0.000969829
0.00139242
1.75678e-08
1.8517e-08
3.95501e-08
3.86733e-08
3.5352e-08
2.48545e-08
1.42918e-08
2.83399e-09
1.47145e-12
1.92447e-12
8.27826e-08
4.24722e-07
5.37382e-07
1.12474e-05
9.19917e-05
0.000509722
0.000501865
0.000146127
4.60914e-07
1.82918e-08
1.86547e-08
1.14582e-08
5.80434e-09
6.81528e-09
9.38351e-09
7.63512e-09
3.20176e-09
3.19011e-10
9.80678e-10
1.85595e-10
7.52688e-08
6.92023e-08
4.5374e-07
6.06238e-05
0.000194333
0.000115287
-5.91266e-27
5.78077e-18
4.44119e-09
5.63785e-09
2.16002e-09
7.19709e-10
3.84614e-10
4.3281e-15
1.46528e-19
3.46764e-15
1.94194e-12
1.62177e-12
7.46808e-11
2.33331e-09
1.07284e-07
1.55361e-05
2.93717e-05
1.06056e-05
0
-4.48074e-22
4.22586e-15
1.53744e-10
3.94876e-10
9.26149e-11
2.27054e-11
2.04702e-12
5.6329e-13
3.38232e-13
8.88123e-13
9.89588e-12
1.5637e-11
9.5885e-12
2.93267e-11
9.44471e-07
7.38385e-06
2.51548e-06
1.85634e-10
8.87535e-10
-7.66573e-33
1.29285e-14
6.13793e-12
4.24669e-12
2.35363e-12
1.69539e-12
1.1836e-12
6.55743e-13
3.64039e-13
2.37464e-13
1.3215e-12
2.55304e-12
2.12297e-12
4.47697e-08
3.75903e-07
7.55932e-16
2.07753e-12
2.89611e-10
1.17837e-09
3.4058e-14
1.39464e-14
1.90365e-12
1.27964e-12
8.46197e-13
5.76409e-13
3.65036e-13
2.77692e-13
2.19289e-13
1.64817e-13
1.52621e-13
1.4959e-13
6.31659e-10
1.29913e-08
1.33658e-08
0
3.97413e-14
4.35877e-14
5.15883e-14
4.41212e-14
1.33007e-14
7.4706e-13
5.658e-13
4.64448e-13
3.2491e-13
2.12468e-13
1.70727e-13
1.37579e-13
1.15619e-13
1.06158e-13
7.3467e-13
5.20234e-11
1.74949e-10
7.8522e-10
7.39797e-16
5.98828e-14
5.59954e-14
5.24043e-14
4.236e-14
1.21986e-14
5.20182e-13
3.97347e-13
3.07888e-13
2.15138e-13
1.4915e-13
1.14072e-13
9.27281e-14
7.54529e-14
6.3492e-14
1.16637e-13
1.29115e-12
9.8003e-12
4.43521e-11
4.50067e-14
4.83831e-14
4.59525e-14
4.52937e-14
3.5508e-14
1.12027e-14
3.29288e-13
2.37336e-13
1.86837e-13
1.3456e-13
9.75174e-14
7.21408e-14
5.34636e-14
3.97076e-14
3.08474e-14
3.06344e-14
5.39026e-14
2.22697e-13
1.96714e-12
2.94761e-14
2.94373e-14
3.27687e-14
3.64015e-14
2.62847e-14
1.00023e-14
2.94193e-13
1.75958e-13
1.23135e-13
8.38385e-14
5.72505e-14
4.05945e-14
2.98683e-14
2.14904e-14
1.79272e-14
1.6708e-14
1.62869e-14
1.89934e-14
1.91148e-14
1.7056e-14
1.90481e-14
2.29549e-14
2.8884e-14
1.99098e-14
8.83726e-15
5.18347e-13
2.55105e-13
1.46041e-13
8.51328e-14
4.92247e-14
3.04982e-14
1.97323e-14
1.42045e-14
1.21672e-14
1.10407e-14
9.55799e-15
8.71548e-15
8.50483e-15
9.41396e-15
1.17204e-14
1.47074e-14
2.2191e-14
1.66928e-14
7.67533e-15
1.04187e-12
5.25845e-13
2.48811e-13
1.27028e-13
6.71826e-14
3.77118e-14
2.05325e-14
1.19222e-14
8.55459e-15
7.13334e-15
5.75362e-15
4.76715e-15
4.48549e-15
5.01044e-15
7.00932e-15
1.09342e-14
1.59489e-14
1.41609e-14
6.59824e-15
1.71854e-12
8.90309e-13
4.11797e-13
2.04634e-13
1.05013e-13
5.38103e-14
2.64263e-14
1.262e-14
7.05754e-15
4.58295e-15
3.2642e-15
2.57606e-15
2.37546e-15
2.63431e-15
4.17536e-15
7.07185e-15
1.15892e-14
1.10625e-14
5.66179e-15
1.3694e-12
7.85721e-13
4.1267e-13
2.50983e-13
1.25032e-13
6.24763e-14
3.01203e-14
1.40773e-14
6.76234e-15
3.44853e-15
2.01529e-15
1.33834e-15
1.18079e-15
1.43826e-15
2.40086e-15
4.38046e-15
5.53999e-15
8.7328e-15
4.59288e-15
9.03177e-13
5.86769e-13
3.81114e-13
2.26378e-13
1.17787e-13
6.07675e-14
2.98733e-14
1.37363e-14
6.19374e-15
2.87685e-15
1.41134e-15
7.01583e-16
6.0101e-16
7.45475e-16
1.49426e-15
1.91348e-15
3.29498e-15
6.11898e-15
3.86304e-15
5.97948e-13
4.40801e-13
2.95994e-13
1.80475e-13
9.61057e-14
5.03099e-14
2.45814e-14
1.13276e-14
4.98458e-15
2.18762e-15
1.01564e-15
3.73169e-16
2.79497e-16
3.77851e-16
6.2324e-16
1.26064e-15
2.20471e-15
3.77777e-15
2.47645e-15
3.75238e-13
2.67274e-13
1.79093e-13
1.14637e-13
6.46902e-14
3.45912e-14
1.71656e-14
7.92875e-15
3.46165e-15
1.51953e-15
6.59363e-16
1.89366e-16
1.14969e-16
1.11931e-16
3.14013e-16
8.31026e-16
1.52576e-15
2.16156e-15
1.63876e-15
2.02541e-13
1.41608e-13
9.44748e-14
6.10098e-14
3.55581e-14
1.93271e-14
9.75339e-15
4.56207e-15
2.00416e-15
8.85579e-16
3.30208e-16
4.4354e-17
1.84535e-17
5.57446e-17
2.07264e-16
5.56901e-16
1.00633e-15
1.29035e-15
1.01387e-15
9.28903e-14
6.5321e-14
4.37871e-14
2.78201e-14
1.61341e-14
8.72942e-15
4.41513e-15
2.08558e-15
9.43846e-16
4.35093e-16
6.51009e-17
4.68051e-18
6.99377e-18
3.30909e-17
1.28476e-16
3.41759e-16
6.45177e-16
7.63835e-16
5.87269e-16
3.76734e-14
2.62029e-14
1.69857e-14
1.03982e-14
5.93131e-15
3.15917e-15
1.57579e-15
7.49071e-16
3.7868e-16
7.02559e-17
4.12885e-18
8.18295e-19
3.44314e-18
1.91386e-17
7.49786e-17
2.04218e-16
3.83611e-16
4.4206e-16
2.95168e-16
1.23991e-14
8.56981e-15
5.46361e-15
3.25596e-15
1.79205e-15
9.14997e-16
4.43605e-16
2.34334e-16
5.17017e-17
4.03714e-18
1.69344e-19
2.54555e-19
1.85808e-18
1.04893e-17
4.1738e-17
1.13258e-16
2.16075e-16
2.4851e-16
1.36591e-16
3.7079e-15
2.41228e-15
1.45391e-15
8.0586e-16
4.12737e-16
1.99881e-16
1.06986e-16
2.78632e-17
2.34534e-18
7.28536e-20
4.49582e-20
1.32045e-19
9.89833e-19
5.49318e-18
2.20585e-17
6.05372e-17
1.13489e-16
1.30208e-16
6.69908e-17
8.58792e-16
5.24477e-16
2.99246e-16
1.57107e-16
7.69123e-17
4.13947e-17
1.04378e-17
8.18021e-19
2.33398e-20
1.82998e-20
3.20629e-20
9.3419e-20
5.31436e-19
2.77687e-18
1.10665e-17
3.02128e-17
5.73977e-17
6.2147e-17
3.08931e-17
1.65184e-16
9.14141e-17
4.68845e-17
2.27776e-17
1.17632e-17
2.35149e-18
1.20155e-19
5.82287e-21
8.04227e-21
1.55475e-20
3.31925e-20
8.51828e-20
3.17689e-19
1.39851e-18
5.31186e-18
1.40613e-17
2.78529e-17
3.08027e-17
1.34979e-17
2.304e-17
1.12605e-17
5.565e-18
2.6631e-18
3.99529e-19
1.3097e-20
2.22585e-21
3.69513e-21
7.97989e-21
1.79046e-20
3.92264e-20
8.87599e-20
2.36258e-19
7.60823e-19
2.53929e-18
6.35362e-18
1.35243e-17
1.60106e-17
7.11428e-18
2.57166e-18
1.22618e-18
5.24239e-19
6.16131e-20
1.76009e-21
9.39548e-22
1.76425e-21
4.10111e-21
9.6355e-21
2.18635e-20
4.72136e-20
9.85678e-20
2.14204e-19
5.03636e-19
1.31717e-18
2.90867e-18
6.96638e-18
7.041e-18
2.97113e-18
2.09865e-19
8.35825e-20
8.02939e-21
2.8472e-22
3.43137e-22
7.83457e-22
1.94971e-21
4.77745e-21
1.13824e-20
2.57206e-20
5.5049e-20
1.10149e-19
2.11863e-19
4.07211e-19
8.12065e-19
1.83018e-18
3.97549e-18
3.47497e-18
1.2692e-18
1.24836e-20
7.43253e-22
5.61249e-23
1.11616e-22
3.03705e-22
8.2237e-22
2.14412e-21
5.31335e-21
1.27287e-20
2.86478e-20
6.08408e-20
1.18461e-19
2.11618e-19
3.53772e-19
6.0756e-19
1.32223e-18
1.66493e-18
1.29311e-18
4.41306e-19
4.02731e-23
9.77629e-24
3.28523e-23
1.05653e-22
3.01136e-22
8.40239e-22
2.18366e-21
5.526e-21
1.33554e-20
3.02896e-20
6.25185e-20
1.18249e-19
1.9438e-19
3.06996e-19
5.29214e-19
8.36487e-19
8.99074e-19
5.27718e-19
1.53333e-19
1.15757e-24
7.54527e-24
2.96616e-23
9.47824e-23
2.77632e-22
7.93101e-22
2.09055e-21
5.32712e-21
1.26186e-20
2.79051e-20
5.84396e-20
1.07914e-19
1.70144e-19
2.71518e-19
4.09146e-19
5.14778e-19
4.30695e-19
2.20804e-19
6.17931e-20
1.09434e-24
6.34934e-24
2.38334e-23
7.84589e-23
2.42695e-22
6.91905e-22
1.84713e-21
4.6609e-21
1.10774e-20
2.45215e-20
4.98164e-20
8.99927e-20
1.42328e-19
2.11298e-19
2.64125e-19
2.76708e-19
1.98936e-19
8.27668e-20
2.55266e-20
9.41087e-25
4.88374e-24
1.82924e-23
6.33134e-23
1.93654e-22
5.51542e-22
1.45893e-21
3.62632e-21
8.45088e-21
1.84548e-20
3.65744e-20
6.3631e-20
9.82578e-20
1.37233e-19
1.40701e-19
1.13202e-19
6.0849e-20
2.86217e-20
1.07515e-20
7.75089e-25
3.6065e-24
1.37125e-23
4.6139e-23
1.39318e-22
3.91206e-22
1.01392e-21
2.44064e-21
5.50091e-21
1.16394e-20
2.21537e-20
3.70134e-20
5.40553e-20
6.76547e-20
6.03257e-20
3.87216e-20
1.94555e-20
9.80569e-21
4.60653e-21
5.67746e-25
2.39562e-24
8.9538e-24
2.84701e-23
8.58814e-23
2.31964e-22
5.83836e-22
1.3575e-21
2.94428e-21
5.99e-21
1.09357e-20
1.73364e-20
2.33033e-20
2.66586e-20
2.04933e-20
1.16999e-20
5.38746e-21
3.31279e-21
2.0591e-21
3.54e-25
1.35808e-24
4.64758e-24
1.40773e-23
3.84399e-23
9.83603e-23
2.38781e-22
5.43577e-22
1.13701e-21
2.19785e-21
3.81823e-21
5.81903e-21
7.07842e-21
7.42257e-21
5.05337e-21
3.2783e-21
1.57618e-21
9.56695e-22
1.00015e-21
1.69742e-25
5.77355e-25
1.81094e-24
5.15677e-24
1.3635e-23
3.39252e-23
7.78434e-23
1.73844e-22
3.53258e-22
6.50779e-22
1.04985e-21
1.48303e-21
1.70867e-21
1.58426e-21
1.0035e-21
6.82936e-22
2.80448e-22
3.03996e-22
2.99757e-22
4.56074e-26
1.35749e-25
3.90797e-25
1.03162e-24
2.5407e-24
6.17047e-24
1.32163e-23
2.63761e-23
5.37593e-23
9.52446e-23
1.48429e-22
1.9662e-22
2.10377e-22
1.59085e-22
1.01967e-22
8.02696e-23
6.063e-23
3.3907e-23
3.50943e-23
)
;

boundaryField
{
    leftWall
    {
        type            alphaContactAngle;
        contactAngleProperties 
        {
            air             
            {
                theta0          90;
            }
            water           
            {
                theta0          90;
            }
            oil             
            {
                theta0          90;
            }
        }
        value           nonuniform List<scalar> 
50
(
1
1
1
1
1
0.998417
0.488895
6.98026e-10
1.73553e-09
2.66492e-09
3.43276e-09
2.17888e-09
1.001e-09
6.20198e-10
4.43312e-10
2.96271e-10
1.32515e-10
4.70255e-11
3.83217e-11
2.85123e-11
2.45702e-11
2.48873e-11
9.22478e-12
2.73735e-12
2.00486e-12
8.13979e-13
3.40924e-13
9.22228e-14
2.50932e-14
4.17409e-15
9.04178e-16
1.29986e-16
2.75323e-17
3.15389e-18
4.93189e-19
4.04253e-20
4.99407e-21
2.69235e-22
2.91764e-23
1.54963e-24
1.16427e-25
6.73523e-27
3.36301e-28
1.36751e-29
4.37998e-31
1.12588e-32
2.27216e-34
1.73379e-36
-1.89611e-37
-1.49834e-38
)
;
    }
    rightWall
    {
        type            alphaContactAngle;
        contactAngleProperties 
        {
            air             
            {
                theta0          90;
            }
            water           
            {
                theta0          90;
            }
            oil             
            {
                theta0          90;
            }
        }
        value           nonuniform List<scalar> 
50
(
0.690261
0.69027
0.541995
0.315768
0.272327
0.0914333
0.0192476
0.0188128
0.017928
0.00701894
0.00695756
0.00634863
0.00139242
4.60914e-07
5.78077e-18
4.22586e-15
1.29285e-14
1.39464e-14
1.33007e-14
1.21986e-14
1.12027e-14
1.00023e-14
8.83726e-15
7.67533e-15
6.59824e-15
5.66179e-15
4.59288e-15
3.86304e-15
2.47645e-15
1.63876e-15
1.01387e-15
5.87269e-16
2.95168e-16
1.36591e-16
6.69908e-17
3.08931e-17
1.34979e-17
7.11428e-18
2.97113e-18
1.2692e-18
4.41306e-19
1.53333e-19
6.17931e-20
2.55266e-20
1.07515e-20
4.60653e-21
2.0591e-21
1.00015e-21
2.99757e-22
3.50943e-23
)
;
    }
    lowerWall
    {
        type            alphaContactAngle;
        contactAngleProperties 
        {
            air             
            {
                theta0          90;
            }
            water           
            {
                theta0          90;
            }
            oil             
            {
                theta0          90;
            }
        }
        value           nonuniform List<scalar> 
62
(
1
1
1
1
1
1
1
1
1
1
1
1
1
1
1
1
1
1
1
1
0.999968
0.999486
0.999432
0.999432
0.999432
0.999776
0.999971
0.99997
0.541159
0.0284568
0.0182262
0.00443766
2.10366e-05
0.00202744
0.0328001
0.0884569
0.0870254
0.0793368
0.084073
0.0769528
0.1672
0.229727
0.233072
0.0884569
0.474522
0.874332
0.874355
0.874332
0.798266
0.506941
0.497321
0.506625
0.521144
0.501968
0.506809
0.690222
0.690267
0.690257
0.690308
0.690269
0.690346
0.690261
)
;
    }
    atmosphere
    {
        type            inletOutlet;
        inletValue      uniform 0;
        value           nonuniform List<scalar> 
46
(
0
0
0
0
0
0
0
0
0
0
6.58617e-29
1.22273e-28
1.94908e-28
2.88438e-28
3.77164e-28
4.138e-28
3.9451e-28
2.65818e-28
1.04335e-28
1.90456e-29
6.75422e-30
2.64106e-29
1.78015e-28
0
2.35853e-27
0
0
0
0
0
0
0
0
0
0
0
0
0
0
2.10377e-22
1.59085e-22
1.01967e-22
8.02696e-23
6.063e-23
3.3907e-23
3.50943e-23
)
;
    }
    defaultFaces
    {
        type            empty;
    }
}


// ************************************************************************* //
