/*--------------------------------*- C++ -*----------------------------------*\
  =========                 |
  \\      /  F ield         | OpenFOAM: The Open Source CFD Toolbox
   \\    /   O peration     | Website:  https://openfoam.org
    \\  /    A nd           | Version:  13
     \\/     M anipulation  |
\*---------------------------------------------------------------------------*/
FoamFile
{
    format      ascii;
    class       volScalarField;
    location    "1.25";
    object      alphas;
}
// * * * * * * * * * * * * * * * * * * * * * * * * * * * * * * * * * * * * * //

dimensions      [];

internalField   nonuniform List<scalar> 
2268
(
2
2
2
2
2
2
2
2
2
2
2
2
2
2
2
2
2
2
2
2
1.99997
1.99949
1.99943
2
2
2
2
2
2
2
2
2
2
2
2
2
2
2
2
2
2
2
2
2
1.9999
1.99943
2
2
2
2
2
2
2
2
2
2
2
2
2
2
2
2
2
2
2
2
2
2
1.99978
2
2
2
2
2
2
2
2
2
2
2
2
2
2
2
2
2
2
2
2
2
2
1.99997
2
2
2
2
2
2
2
2
2
2
2
2
2
2
2
2
2
2
2
2
1.9951
2
1.99995
1.99683
2
2
2
2
2
2
2
2
2
2
2
2
2
1.8647
1.62932
1.37747
1.14704
0.967178
0.832201
0.828741
0.931103
1.08448
0.97779
1.24021
1.55464
1.79012
1.90399
1.96734
1.9964
1.99994
1.99861
2
1.97115
1.75071
1.32207
0.79601
0.417726
0.19211
0.0708105
0.0191802
0.00322128
0.000340787
0.00200746
0.103884
0.313169
2.50735e-09
0.00607663
0.16169
0.444579
0.747284
0.967507
1.19841
1.32208
1.24388
0.91606
0.521533
0.217936
0.0405067
1.36184e-07
1.07242e-07
3.97766e-07
3.91906e-07
2.24199e-06
2.07086e-05
1.93916e-05
0.158896
0.797425
0.735067
1.09318
1.47452
1.87376
1.87746
1.96106
1.92735
1.70103
1.69163
1.66268
1.64628
1.72326
1.86348
1.99398
1.82448
1.71173
1.58306
1.64719
1.69533
1.69886
1.09458
1.10054
1.39858
1.79167
1.75623
1.74932
1.77018
1.79058
1.82312
1.90492
1.88385
1.89576
2.20607
2.14064
1.93854
1.64032
1.54938
1.70696
1.70056
1.10247
1.09071
1.09073
1.48554
1.50489
1.26701
1.27059
1.35746
1.83112
2.29768
2.30585
1.98565
2.1302
2.24356
2.26008
2.21662
2.01555
1.75158
1.56726
1.09778
1.2847
1.46789
1.02066
0.180848
0.000550599
0.0079502
0.300819
1.79208
2.17966
2.3259
2.2907
2.11852
2.09825
2.16456
2.21235
2.20862
1.84646
1.34254
1.15386
1.55629
1.0669
0.200707
0.000425509
0.000629381
0.00068233
0.152096
1.06232
1.72945
1.85406
1.99625
2.0846
1.67568
1.31573
1.30707
1.3406
1.13276
1.23494
1.35277
1.05448
0.172282
0.000281731
0.00021537
0.000253826
0.00463967
0.00618588
0.0475646
0.168864
0.458292
0.861879
1.00174
0.601373
0.401049
0.35032
0.382387
0.650539
0.875198
1.42336
0.127903
0.000322845
0.000204215
0.000194262
0.000269118
0.00189934
0.00294261
0.000371426
0.000228897
0.0582953
0.168973
0.146404
0.194268
0.233803
0.276169
0.267468
0.426442
0.859055
1.27377
0.00153538
0.000212767
0.00022125
0.000236957
0.000166355
0.000280712
0.000267399
0.000428327
0.000517901
0.000529098
0.000331942
0.1457
0.390466
0.626638
0.707679
0.532453
0.622831
0.994795
4.84016e-09
4.38512e-09
2.53546e-09
5.5173e-08
0.016955
0.0426364
0.0306295
0.00341761
0.00225096
0.0016362
8.13275e-08
8.31022e-08
6.71653e-08
2.71454e-08
6.54015e-08
4.80236e-08
1.17475e-07
1.57148e-07
1.66854e-07
0.0901917
0.865326
1.42347
1.3536
6.91547e-09
8.26993e-09
7.99959e-09
1.11259e-08
8.11703e-09
4.43184e-09
2.70189e-09
2.01374e-09
1.86399e-09
9.13899e-09
3.6343e-09
3.57322e-09
7.85783e-09
1.57107e-08
1.56369e-08
1.44669e-08
9.94782e-09
1.03767e-08
0.348119
0.645806
1.27234
1.16072
1.129
8.80464e-09
1.27967e-08
1.3471e-08
2.50988e-08
2.97956e-08
1.93271e-08
1.03402e-08
5.43995e-09
6.28182e-09
3.94844e-09
4.60123e-09
8.75944e-09
1.31251e-08
1.34342e-08
1.25914e-08
2.82206e-08
0.232397
0.601945
0.877262
1.31479
1.04509
1.00005
0.999999
1.40483e-08
1.90855e-08
2.21747e-08
1.68872e-08
4.26839e-08
4.28983e-08
3.0528e-08
1.86223e-08
5.12619e-08
1.51392e-08
2.75273e-08
2.75852e-08
2.98212e-08
3.08243e-05
0.274917
0.69872
0.876517
1.29632
1.19071
1.02363
1.00001
1
0.999998
2.97896e-08
3.94734e-08
3.38612e-08
6.6678e-08
4.48773e-08
1.00167e-07
1.02724e-07
9.70064e-08
3.76423e-07
0.0104153
0.000354817
0.122075
0.536041
0.85336
1.04721
1.3127
1.25296
1.06764
1.00073
1
1
1
1
6.16954e-08
8.24748e-08
4.85731e-08
1.10218e-07
0.0112506
0.0721195
0.20193
0.265534
0.39151
0.747354
1.00662
1.11071
1.35314
1.38329
1.26766
1.05746
1.00166
1
0.999997
1
1
1
1
8.31655e-08
1.91385e-07
4.62985e-07
0.0271241
0.280533
0.679813
1.11623
1.27277
1.39654
1.48092
1.38836
1.29299
1.14404
1.02684
1.00043
1.00001
1
1
0.999999
1
1
1
1
8.54771e-08
1.18041e-05
0.131438
0.774839
1.01483
1.19764
1.24345
1.23984
1.04442
1.06925
1.00353
1.00007
1
1
1
1.00001
1.00001
1
1
1
1
1
1
0.210034
0.705584
1.78191
1.19458
1.001
1
0.999996
0.999998
0.999999
1
1
1
1
1
1
1
1
1
1
1
1
1
1
2.45813
2.76101
2.36012
1.20308
1.05783
1.02397
1.00408
0.999996
0.999998
0.999999
1
1
1
1
1
1
1
1
1.04396
1.14621
1.36051
1.67331
1.88135
2.99835
2.97593
2.71264
2.58548
2.41576
2.21813
2.0101
1.82701
1.64173
1.52626
1.45715
1.43025
1.44298
1.49832
1.58752
1.71165
1.8987
2.1732
2.4217
2.61085
2.8236
2.95452
2.98857
2.99936
2.99451
2.99999
2.99998
2.99995
2.99997
3
3
2.9951
2.94505
2.91171
2.89182
2.88792
2.9039
2.93144
2.96122
2.98799
3
3
3
3
3
3
3
3
3
3
3
3
3
3
3
3
3
3
3
3
3
3
3
3
3
3
3
3
3
3
2.99999
2.99999
3
3
3
3
3
3
3
2.99999
3
3
3
3
3
3
3
3
3
3
3
3
3
3
3
3
3
3
3
3
3
3
2.99994
2.99987
2.99995
2.99999
3
3
3
3
3
3
3
3
3
3
3
3
3
3
3
3
3
3
3
2.99996
2.99965
2.99963
2.99988
2.99999
3
3
3
2.99999
2.99999
3
3
3
3
3
3
3
3
3
3
3
3
3
3
2.99981
2.99963
2.99963
2.99972
2.99999
2.99999
2.99999
2.99999
2.99999
2.99999
3
3
3
3
3
3
3
3
3
3
3
3
3
3
2.99996
2.99971
2.99965
2.99972
2.99999
2.99999
2.99999
2.99999
2.99999
2.99999
3
3
3
3
3
3
3
3
3
3
3
3
3
3
2.99999
2.99994
2.9999
2.99992
2.99999
3
3
3
3
3
3
3
3
3
3
3
3
3
3
3
3
3
3
3
3
3
2.99999
2.99999
3
3
3
3
3
3
3
3
3
3
3
3
3
3
3
3
3
3
3
3
3
3
3
3
3
3
3
3
3
3
3
3
3
3
3
3
3
3
3
3
3
3
3
3
3
3
3
3
3
3
3
3
3
3
3
3
3
3
3
3
3
3
3
3
3
3
3
3
3
3
3
3
3
3
3
3
3
3
3
3
3
3
3
3
3
3
3
3
3
3
3
3
3
3
3
3
3
3
3
3
3
3
3
3
3
3
3
3
3
3
3
3
3
3
3
3
3
3
3
3
3
3
3
3
3
3
3
3
3
3
3
3
3
3
3
3
3
3
3
3
3
3
3
3
3
3
3
3
3
3
3
3
3
3
3
3
3
3
3
3
3
3
3
3
3
3
3
3
3
3
3
3
3
3
3
3
3
3
3
3
3
3
3
3
3
3
3
3
3
3
3
3
3
3
3
3
3
3
3
3
3
3
3
3
3
3
3
3
3
3
3
3
3
3
3
3
3
3
3
3
3
3
3
3
3
3
3
3
3
3
3
3
3
3
3
3
3
3
3
3
3
3
3
3
3
3
3
3
3
3
3
3
3
3
3
3
3
3
3
3
3
3
3
3
3
3
3
3
3
3
3
3
3
3
3
3
3
3
3
3
3
3
3
3
3
3
3
3
3
3
3
3
3
3
3
3
3
3
3
3
3
3
3
3
3
3
3
3
3
3
3
3
3
3
3
3
3
3
3
3
3
3
3
3
3
3
3
3
3
3
3
3
3
3
3
3
3
3
3
3
3
3
3
3
3
3
3
3
3
3
3
3
3
3
3
3
3
3
3
3
3
3
3
3
3
3
3
3
3
3
3
3
3
3
3
3
3
3
3
3
3
3
3
3
3
3
3
3
3
3
3
3
3
3
3
3
3
3
3
3
3
3
3
3
3
3
3
3
3
3
3
3
3
3
3
3
3
3
3
3
3
3
3
3
3
3
3
3
3
3
3
3
3
3
3
3
3
3
3
3
3
3
3
3
3
3
3
3
3
3
3
3
3
3
3
3
3
3
3
3
3
3
3
3
3
3
3
3
3
3
3
3
3
3
3
3
3
3
3
3
3
3
3
3
3
3
3
3
3
3
3
3
3
3
3
3
3
3
3
3
3
3
3
3
3
3
3
3
3
3
3
1.34597
1.02837
1.21007
1.1094
1.05134
1.00796
1.34857
1.27098
1.00005
1.00002
1.2675
1.31872
0.999999
1.00001
1.0385
1.16642
1.00004
1.00004
0.99998
1
1.00002
1
1
1
1
1
1
1
1
1
1
1
1
1.04313
1.13806
1.18652
2.10381
2.43353
2.63104
2.69744
2.99941
3
3
3
3
3
3
3
3
3
3
3
3
3
3
3
3
3
3
3
3
3
3
3
3
3
3
3
3
3
3
3
3
3
3
3
3
3
3
3
3
3
3
3
3
3
3
3
3
3
3
3
3
3
3
3
3
3
3
3
3
3
3
3
3
3
3
3
3
3
3
3
3
3
3
3
3
3
3
3
3
3
3
3
3
3
3
3
3
3
3
3
3
3
3
3
3
3
3
3
3
3
3
3
3
3
3
3
3
3
3
3
3
3
3
3
3
3
3
3
3
3
3
3
3
3
3
3
0.674151
0.00675949
0.000321336
0.0184869
0.0168415
0.0159044
0.00785088
0.0116091
0.0220808
0.0703566
0.195109
0.410772
0.651675
0.868954
0.969638
1.00155
0.982389
0.879775
1.10329
0.783731
0.370325
0.393543
0.374956
0.556803
0.592047
0.556467
0.596032
0.650597
0.771287
0.916155
1.00105
1.0013
1.00144
1.00191
1.00203
1.0011
1.0065
1.58903
1.16916
0.935037
1.04968
0.996896
1.0033
1.00291
1.00196
1.00083
1.00014
1.00002
1.00015
1.00029
1.00047
1.00066
1.00083
1.0009
1.00085
1.33438
1.83557
1.21338
1.23865
1.06943
1.00147
1.00001
1
1
1
1
1
1
1.01362
1.05827
1.09398
1.10987
1.05183
1.01642
1.50637
1.83532
1.00545
1.00091
1
1
1
1
1
1
1
1.1642
1.53886
1.97226
2.20475
2.19661
2.09932
1.92225
1.75038
1.68846
1.74782
1
1
1
1
1
1
1
1.17583
1.76346
2.51338
2.93497
2.99935
3
2.99965
2.94059
2.8379
2.89218
2.91849
2.92354
1
1
1
1
1
1.13196
1.70222
2.62209
3
3
3
3
3
2.99998
2.9999
2.99467
2.99988
3
3
1
1
1
1.16081
1.82976
2.76211
3
3
3
3
3
3
2.99994
2.99313
2.98761
2.98774
2.99949
3
3
1.29398
1.65973
2.29795
2.8584
3
3
3
3
2.99988
2.99828
2.99806
2.99995
2.99977
2.99292
2.99112
2.99959
3
3
3
2.80511
2.95853
3
3
3
3
3
2.99999
2.99852
2.99767
2.99767
2.99952
2.99994
2.99893
2.99999
3
3
3
3
3
3
3
3
3
3
3
2.9999
2.99956
2.99934
2.99943
2.99981
3
3
3
3
3
3
3
3
3
3
3
3
2.99999
2.99999
2.99999
3
3
3
3
3
3
3
3
3
3
3
3
3
3
3
3
3
3
3
3
3
3
3
3
3
3
3
3
3
3
3
3
3
3
3
3
3
3
3
3
3
3
3
3
3
3
3
3
3
3
3
3
3
3
3
3
3
3
3
3
3
3
3
3
3
3
3
3
3
3
3
3
3
3
3
3
3
3
3
3
3
3
3
3
3
3
3
3
3
3
3
3
3
3
3
3
3
3
3
3
3
3
3
3
3
3
3
3
3
3
3
3
3
3
3
3
3
3
3
3
3
3
3
3
3
3
3
3
3
3
3
3
3
3
3
3
3
3
3
3
3
3
3
3
3
3
3
3
3
3
3
3
3
3
3
3
3
3
3
3
3
3
3
3
3
3
3
3
3
3
3
3
3
3
3
3
3
3
3
3
3
3
3
3
3
3
3
3
3
3
3
3
3
3
3
3
3
3
3
3
3
3
3
3
3
3
3
3
3
3
3
3
3
3
3
3
3
3
3
3
3
3
3
3
3
3
3
3
3
3
3
3
3
3
3
3
3
3
3
3
3
3
3
3
3
3
3
3
3
3
3
3
3
3
3
3
3
3
3
3
3
3
3
3
3
3
3
3
3
3
3
3
3
3
3
3
3
3
3
3
3
3
3
3
3
3
3
3
3
3
3
3
3
3
3
3
3
3
3
3
3
3
3
3
3
3
3
3
3
3
3
3
3
3
3
3
3
3
3
3
3
3
3
3
3
3
3
3
3
3
3
3
3
3
3
3
3
3
3
3
3
3
3
3
3
3
3
3
3
3
3
3
3
3
3
3
3
3
3
3
3
3
3
3
3
3
3
3
3
3
3
3
3
3
3
3
3
3
3
3
3
3
3
3
3
3
3
3
3
3
3
3
3
3
3
3
3
3
3
3
3
3
3
3
3
3
3
3
3
3
3
3
3
3
3
3
3
3
3
3
3
3
3
3
3
3
3
3
3
3
3
3
3
3
3
3
3
3
3
3
3
3
3
3
3
3
3
3
3
3
3
3
3
3
3
3
3
3
3
3
3
3
3
3
3
3
3
3
3
3
3
3
3
3
3
3
3
3
3
3
3
3
3
3
3
3
3
3
3
3
3
3
3
3
3
3
3
3
3
3
3
3
3
3
3
3
3
3
3
3
3
3
3
3
3
3
3
3
3
3
3
3
3
3
3
3
3
3
3
3
3
3
3
3
3
3
3
3
3
3
3
3
3
3
3
3
3
3
3
3
3
3
3
3
3
3
3
3
3
3
3
3
3
3
3
3
3
3
3
3
3
3
3
3
3
3
3
3
3
3
3
)
;

boundaryField
{
    leftWall
    {
        type            calculated;
        value           nonuniform List<scalar> 
50
(
2
2
2
2
2
1.99683
0.97779
2.50735e-09
4.84016e-09
6.91547e-09
8.80464e-09
1.40483e-08
2.97896e-08
6.16954e-08
8.31655e-08
8.54771e-08
0.210034
2.45813
2.99835
2.99936
3
3
3
3
3
3
3
3
3
3
3
3
3
3
3
3
3
3
3
3
3
3
3
3
3
3
3
3
3
3
)
;
    }
    rightWall
    {
        type            calculated;
        value           nonuniform List<scalar> 
50
(
1.69886
1.70056
1.56726
1.34254
1.23494
0.875198
0.859055
0.994795
1.10329
1.58903
1.83557
1.83532
1.74782
2.92354
3
3
3
3
3
3
3
3
3
3
3
3
3
3
3
3
3
3
3
3
3
3
3
3
3
3
3
3
3
3
3
3
3
3
3
3
)
;
    }
    lowerWall
    {
        type            calculated;
        value           nonuniform List<scalar> 
62
(
2
2
2
2
2
2
2
2
2
2
2
2
2
2
2
2
2
2
2
2
1.99997
1.99949
1.99943
1.99943
1.99943
1.99978
1.99997
1.99995
1.08448
0.313169
0.735067
1.34597
1.02837
1.21007
1.1094
1.09318
1.09458
1.10247
1.09778
1.15386
1.35277
1.42336
1.27377
1.09318
1.47452
1.87376
1.87746
1.96106
1.92735
1.70103
1.69163
1.66268
1.64628
1.72326
1.86348
1.99398
1.82448
1.71173
1.58306
1.64719
1.69533
1.69886
)
;
    }
    atmosphere
    {
        type            calculated;
        value           nonuniform List<scalar> 
46
(
3
3
3
3
3
3
3
3
3
3
3
3
3
3
3
3
3
3
3
3
3
3
3
3
3
3
3
3
3
3
3
3
3
3
3
3
3
3
3
3
3
3
3
3
3
3
)
;
    }
    defaultFaces
    {
        type            empty;
    }
}


// ************************************************************************* //
