/*--------------------------------*- C++ -*----------------------------------*\
  =========                 |
  \\      /  F ield         | OpenFOAM: The Open Source CFD Toolbox
   \\    /   O peration     | Website:  https://openfoam.org
    \\  /    A nd           | Version:  13
     \\/     M anipulation  |
\*---------------------------------------------------------------------------*/
FoamFile
{
    format      ascii;
    class       volScalarField;
    location    "1.25";
    object      alpha.water;
}
// * * * * * * * * * * * * * * * * * * * * * * * * * * * * * * * * * * * * * //

dimensions      [];

internalField   nonuniform List<scalar> 
2268
(
2.28547e-11
3.11718e-11
3.87106e-11
4.29692e-11
4.38079e-11
4.33181e-11
4.31659e-11
4.76842e-11
5.80587e-11
7.51398e-11
9.7704e-11
1.25075e-10
1.55432e-10
1.96134e-10
2.53976e-10
3.36223e-10
4.52828e-10
6.78517e-10
1.057e-09
1.58126e-09
2.15838e-09
2.54215e-09
2.58254e-09
4.97791e-11
8.95402e-11
1.07961e-10
1.26819e-10
1.44483e-10
1.58209e-10
1.63635e-10
1.76411e-10
2.01123e-10
2.43002e-10
3.0693e-10
3.64336e-10
4.21731e-10
4.51037e-10
4.84847e-10
5.65339e-10
7.65674e-10
1.16408e-09
1.83831e-09
2.58688e-09
3.36127e-09
3.37287e-09
2.78486e-09
2.44735e-10
4.52682e-10
3.88958e-10
3.07484e-10
3.127e-10
3.87421e-10
4.732e-10
5.50079e-10
6.24735e-10
7.89731e-10
9.84482e-10
1.21704e-09
1.2234e-09
9.48184e-10
5.85021e-10
6.49717e-10
8.76257e-10
1.15792e-09
1.34077e-09
1.76424e-09
2.74047e-09
2.84154e-09
2.73409e-09
1.15783e-09
1.73263e-09
1.30191e-09
7.31027e-10
4.88835e-10
6.10108e-10
7.89228e-10
1.04522e-09
1.62518e-09
1.93493e-09
2.20343e-09
2.29817e-09
2.0567e-09
9.0618e-10
6.04075e-10
5.24942e-10
5.87475e-10
6.11622e-10
6.12168e-10
6.65177e-10
7.08168e-10
5.55731e-10
5.30962e-10
1.42769e-09
2.10178e-09
1.44314e-09
6.78512e-10
4.66432e-10
8.95463e-10
1.10081e-09
1.35756e-09
1.59523e-09
1.57959e-09
1.57106e-09
1.25481e-09
5.09259e-10
5.12293e-10
4.43117e-10
4.43728e-10
4.35981e-10
4.34956e-10
4.37263e-10
3.87404e-10
0.00244936
-5.77921e-08
2.48682e-05
0.00158314
6.53323e-10
4.83226e-10
4.61107e-10
4.70039e-10
4.61439e-10
4.83869e-10
8.2598e-10
8.91547e-09
2.18734e-09
1.19243e-09
1.48107e-09
1.14979e-08
5.01539e-10
0.067651
0.185339
0.311262
0.426479
0.516407
0.58401
0.585776
0.534447
0.456678
0.511105
0.379893
0.222681
0.10494
0.0480031
0.016329
0.00180187
3.00532e-05
0.000695844
4.21286e-08
0.0144259
0.124644
0.338965
0.601995
0.791137
0.903944
0.964593
0.990406
0.998421
0.999884
0.999051
0.960957
0.886118
1
0.996962
0.919155
0.77771
0.626358
0.516247
0.400793
0.338962
0.378062
0.54197
0.739234
0.891032
0.979747
1
1
1
1
0.999999
0.999992
0.999993
0.943233
0.646192
0.747655
7.34682e-05
-1.9721e-07
0.000567571
0.00627529
0.0110538
0.010838
0.00191019
0.000393399
0.000433573
0.00209638
0.00183639
0.00130401
0.0503268
0.12321
0.123214
0.12321
0.0590088
0.0187319
0.0187134
8.56621e-05
-1.5165e-23
-1.44053e-08
0.0304425
0.118125
0.124953
0.104007
0.0829994
0.0669782
0.0251063
0.0022144
0.00128796
0.0104498
0.0309738
0.0982359
0.123214
0.114792
0.0459077
0.0201392
2.38507e-05
0.000121176
0.00249874
0.107083
0.247556
0.366493
0.364706
0.325555
0.165078
0.0281182
0.00130125
0.00131366
0.00188371
0.0122945
0.0213139
0.0340485
0.0399441
0.0984338
0.0430727
1.0062e-05
4.53501e-06
0.0279643
0.450251
0.909615
0.999763
0.996024
0.887826
0.338944
0.0923823
0.00904206
0.00131136
0.00288601
0.0140377
0.00772447
0.00829758
0.0170438
0.15325
0.100099
0.00154432
0.0325843
0.423002
0.899665
0.999857
0.999787
0.999763
0.949054
0.566178
0.265984
0.219934
0.187028
0.122604
0.236071
0.346347
0.351061
0.362004
0.287587
0.15079
0.0203662
0.501169
0.913859
0.999878
0.999898
0.999874
0.997708
0.996877
0.954786
0.841546
0.68765
0.553223
0.548319
0.721034
0.773688
0.773524
0.751448
0.458089
0.330659
0.0132047
0.946657
0.999839
0.999898
0.999898
0.999858
0.999049
0.998513
0.999807
0.999788
0.941763
0.831027
0.853616
0.818576
0.773462
0.749837
0.752021
0.57868
0.397294
0.165682
0.998637
0.999898
0.999898
0.999898
0.999897
0.999884
0.99985
0.999836
0.999766
0.999698
0.999709
0.854385
0.610306
0.374215
0.292419
0.467547
0.377169
0.29455
1
1
1
1
0.991523
0.978682
0.984685
0.998291
0.998875
0.999182
1
1
1
1
1
1
1
1
1
0.967715
0.599462
0.0792604
0.139892
1
1
1
1
1
1
1
1
1
1
1
1
1
1
1
1
1
1
0.88396
0.706981
0.0831944
2.62824e-07
2.62797e-07
1
1
1
1
1
1
1
1
1
1
1
1
1
1
1
1
0.922534
0.799352
0.537949
0.0521212
2.21942e-07
2.44089e-07
1.42831e-06
1
1
1
1
1
1
1
1
1
1
1
1
1
0.99999
0.908361
0.767093
0.602378
0.175569
0.00614552
2.22e-07
2.09963e-07
3.02932e-07
1.69531e-06
1
1
1
1
1
1
1
1
1
0.996528
0.999882
0.959308
0.82132
0.715547
0.526718
0.187803
0.0153549
4.62802e-07
5.61041e-07
5.24756e-07
3.3063e-08
5.96581e-08
6.66909e-07
1
1
1
1
0.99625
0.97596
0.932672
0.911489
0.860197
0.744116
0.63809
0.533918
0.291568
0.104745
0.00894425
3.05716e-07
6.20536e-07
2.05056e-06
3.90506e-06
9.68364e-07
8.75167e-09
8.46834e-09
6.94274e-08
1
1
1
0.986092
0.791606
0.568156
0.370039
0.330766
0.203051
0.122485
0.0425635
0.0106888
-7.2086e-19
-5.85744e-19
-3.69373e-11
5.13089e-07
9.06679e-07
1.29737e-06
2.95748e-06
3.53433e-07
1.72859e-08
1.60851e-09
2.36624e-10
1
0.99999
0.928041
0.411966
0.068549
1.17762e-12
2.13992e-13
7.48773e-14
2.67587e-14
2.68038e-15
-3.74129e-19
-2.54385e-12
-2.6632e-13
7.62242e-09
4.57566e-07
8.34031e-07
4.6529e-07
1.39044e-08
4.48735e-08
2.05525e-08
1.94286e-09
2.01708e-10
2.40802e-10
0.929989
0.762973
0.245553
1.95582e-07
2.44812e-07
1.50959e-06
4.65992e-06
2.37537e-06
6.72783e-07
1.8542e-07
1.61756e-07
1.88036e-08
2.64762e-08
3.12705e-08
1.68991e-07
3.22154e-07
6.59007e-08
2.04904e-09
2.62516e-09
7.90604e-10
1.89192e-10
7.40762e-11
1.10593e-10
0.180563
0.0682144
2.56153e-09
2.37335e-06
2.41155e-05
3.60857e-05
1.98806e-05
4.30614e-06
1.92876e-06
6.7304e-07
2.41085e-07
1.05672e-07
2.97062e-08
1.65886e-08
3.86484e-08
5.64167e-08
8.63522e-09
1.0079e-09
6.95691e-10
1.52786e-10
7.7963e-11
6.473e-11
6.5071e-11
-3.42702e-07
3.53831e-25
3.67478e-09
1.47423e-05
5.32959e-05
5.37768e-05
2.59758e-05
6.06279e-08
2.33193e-07
7.94196e-07
4.71532e-08
4.75505e-09
4.63756e-09
1.84268e-09
1.56165e-09
1.52314e-09
9.95396e-10
1.02004e-09
1.98035e-10
1.52078e-10
1.157e-10
1.05885e-10
1.1765e-10
-6.92184e-07
9.95868e-08
1.67704e-06
7.96772e-06
1.5034e-05
1.15474e-05
4.37755e-08
5.98538e-08
1.00044e-07
2.9975e-07
2.76692e-07
2.46483e-08
2.20398e-09
5.05187e-10
6.19905e-10
8.79084e-10
1.10106e-09
1.02278e-09
4.30697e-10
3.71831e-10
4.15049e-10
4.74445e-10
4.84733e-10
1.90517e-08
2.28044e-08
3.69911e-08
3.03808e-08
3.04345e-08
3.1698e-08
4.40589e-08
6.81042e-08
1.93045e-08
6.08709e-08
1.6829e-07
3.04521e-07
1.7725e-07
1.34411e-09
4.89441e-10
6.92098e-10
8.7553e-10
7.69461e-10
5.52297e-10
5.56348e-10
6.1741e-10
6.24896e-10
5.9447e-10
8.50864e-08
6.2139e-08
1.27803e-08
3.35742e-08
3.69542e-08
3.4091e-08
2.17097e-08
1.37567e-08
1.15342e-08
4.4638e-08
2.18161e-07
1.09751e-06
1.07903e-06
7.4239e-08
4.90951e-10
4.78084e-10
4.80646e-10
4.74464e-10
4.61105e-10
4.63606e-10
4.57616e-10
5.00467e-10
4.58756e-10
5.65583e-08
1.40374e-08
1.09191e-08
2.88795e-08
2.31682e-08
1.21511e-08
1.73595e-09
1.70743e-09
1.28619e-09
1.1234e-09
7.46151e-08
2.00757e-06
2.50783e-06
2.15216e-06
6.94182e-10
4.71129e-10
4.78079e-10
4.55463e-10
4.65209e-10
4.55463e-10
4.65209e-10
4.18083e-10
3.07922e-09
2.25021e-08
1.2947e-08
9.90803e-09
1.55758e-08
1.90257e-08
1.10641e-08
3.27056e-09
1.76245e-09
7.84823e-10
5.03298e-10
4.39662e-10
4.85018e-07
2.28393e-06
2.99546e-06
3.00842e-06
1.54654e-06
6.03416e-08
5.51337e-07
2.32062e-06
2.29449e-06
7.07273e-08
4.54224e-10
3.86693e-08
2.4352e-08
1.86246e-08
8.17474e-09
5.95688e-09
5.15481e-09
5.0364e-09
4.80773e-09
2.86007e-09
1.10303e-09
6.92295e-10
4.07954e-10
3.30871e-10
3.85121e-07
1.20475e-06
2.91341e-06
3.02782e-06
2.69799e-06
3.2353e-06
3.34358e-06
3.35383e-06
3.34358e-06
1.09538e-06
3.99654e-08
1.8256e-08
1.86357e-08
1.00019e-08
4.01711e-09
3.99987e-09
3.75637e-09
3.48672e-09
3.34918e-09
1.63932e-09
7.42651e-10
5.10216e-10
3.13422e-10
2.87752e-10
1.29987e-07
5.44867e-07
1.35576e-06
2.15978e-06
1.94389e-06
1.74139e-06
2.01364e-06
2.65884e-06
1.7375e-06
3.54787e-08
1.53827e-08
1.57088e-08
1.09125e-08
4.1451e-09
3.66844e-09
3.2745e-09
2.81993e-09
3.06106e-09
2.68879e-09
1.28842e-09
5.47296e-10
3.57588e-10
2.84635e-10
5.01366e-10
1.09529e-08
2.67112e-08
3.31322e-07
6.63746e-07
5.06687e-07
2.71086e-07
2.22585e-07
3.61716e-07
1.86987e-07
1.15557e-08
1.13781e-08
9.90748e-09
4.34675e-09
3.62624e-09
2.77806e-09
2.4422e-09
2.60415e-09
2.80262e-09
2.22982e-09
1.02841e-09
4.89087e-10
3.1432e-10
2.61452e-10
2.39161e-10
2.13983e-10
2.66643e-10
2.64287e-08
9.25184e-08
5.67577e-08
3.76449e-08
3.62203e-08
3.69351e-08
1.02862e-08
8.32726e-09
7.66535e-09
3.90482e-09
3.2177e-09
2.47462e-09
2.10153e-09
2.04913e-09
2.3033e-09
2.30113e-09
1.71801e-09
9.55021e-10
4.77723e-10
2.76666e-10
2.26071e-10
2.12455e-10
2.17129e-10
1.55135e-10
3.13121e-10
2.80343e-09
4.95321e-09
3.26478e-09
4.95603e-09
7.70036e-09
5.55995e-09
5.26524e-09
3.03067e-09
2.54197e-09
2.03136e-09
1.69579e-09
1.56255e-09
1.68696e-09
1.75653e-09
1.67252e-09
1.18085e-09
7.52169e-10
3.99979e-10
2.05167e-10
1.56152e-10
1.49857e-10
1.56362e-10
1.64659e-10
2.61252e-10
4.81214e-10
4.68472e-10
7.41468e-10
6.13843e-09
3.74825e-09
3.25895e-09
2.04998e-09
1.75773e-09
1.45345e-09
1.24823e-09
1.12063e-09
1.12454e-09
1.20659e-09
1.22051e-09
1.03074e-09
7.45394e-10
4.78897e-10
2.51574e-10
1.23383e-10
9.36401e-11
8.61704e-11
8.62793e-11
9.00006e-11
1.04856e-10
1.11065e-10
1.44255e-10
3.75514e-09
2.29053e-09
1.8356e-09
1.22424e-09
1.05816e-09
8.97092e-10
8.06107e-10
7.20222e-10
6.94456e-10
7.2546e-10
7.51709e-10
6.91741e-10
5.6273e-10
4.05665e-10
2.48201e-10
1.17761e-10
6.24482e-11
4.68242e-11
4.28293e-11
4.49193e-11
4.93632e-11
4.8902e-11
5.36026e-11
2.41555e-09
1.35779e-09
9.46245e-10
6.49605e-10
5.52609e-10
4.79243e-10
4.44637e-10
4.03989e-10
3.84533e-10
3.8962e-10
4.03041e-10
3.83304e-10
3.37285e-10
2.62466e-10
1.78012e-10
9.73229e-11
4.09868e-11
2.70852e-11
2.15237e-11
2.11473e-11
2.20295e-11
2.35934e-11
2.49279e-11
1.09273e-09
6.45732e-10
4.43297e-10
3.04404e-10
2.49723e-10
2.1981e-10
2.09458e-10
1.92692e-10
1.84688e-10
1.8489e-10
1.90301e-10
1.82388e-10
1.64999e-10
1.36085e-10
9.72318e-11
5.84694e-11
2.31118e-11
1.43897e-11
1.06553e-11
9.67147e-12
1.0096e-11
1.06019e-11
1.12225e-11
5.29085e-10
3.15901e-10
1.958e-10
1.27497e-10
9.97157e-11
8.71781e-11
8.47054e-11
7.8334e-11
7.6061e-11
7.61417e-11
7.68434e-11
7.45017e-11
6.77628e-11
5.7282e-11
4.18674e-11
2.5921e-11
1.03784e-11
6.46591e-12
4.6754e-12
4.24983e-12
4.31079e-12
4.57548e-12
4.76245e-12
1.66886e-10
1.0595e-10
6.50067e-11
4.27896e-11
3.27966e-11
2.79135e-11
2.78972e-11
2.73905e-11
2.67253e-11
2.68589e-11
2.67767e-11
2.52747e-11
2.36335e-11
1.9867e-11
1.43439e-11
8.90252e-12
3.71534e-12
2.35804e-12
1.80004e-12
1.69364e-12
1.77355e-12
1.81349e-12
1.79477e-12
5.74792e-11
3.86581e-11
2.25973e-11
1.36425e-11
1.00791e-11
8.29898e-12
7.88048e-12
7.6926e-12
8.00389e-12
8.01918e-12
8.02456e-12
7.67466e-12
7.04729e-12
5.78545e-12
4.13898e-12
2.52373e-12
1.1007e-12
7.22611e-13
6.09233e-13
6.10789e-13
6.41646e-13
6.2961e-13
5.79751e-13
1.17582e-11
1.02933e-11
6.40719e-12
3.79254e-12
2.56239e-12
2.01486e-12
1.99409e-12
1.96966e-12
1.89789e-12
2.02305e-12
2.04405e-12
1.91036e-12
1.74984e-12
1.40589e-12
9.93241e-13
5.92563e-13
2.91561e-13
1.96398e-13
1.90784e-13
1.96722e-13
2.06748e-13
1.90024e-13
1.60051e-13
3.174e-12
2.78879e-12
1.71594e-12
9.2288e-13
5.81122e-13
4.42958e-13
4.14295e-13
4.08689e-13
4.12127e-13
4.32265e-13
4.4644e-13
4.17058e-13
3.70617e-13
2.92112e-13
2.03444e-13
1.18444e-13
6.51887e-14
5.21203e-14
5.38826e-14
5.67115e-14
5.52476e-14
4.69504e-14
3.48966e-14
5.29113e-13
5.15617e-13
3.4741e-13
1.97849e-13
1.1809e-13
8.21322e-14
7.51083e-14
7.17365e-14
6.93096e-14
7.89104e-14
7.66192e-14
7.4873e-14
6.66369e-14
5.11114e-14
3.23953e-14
1.9734e-14
1.3232e-14
1.26382e-14
1.33281e-14
1.37294e-14
1.28828e-14
9.76935e-15
6.39741e-15
1.02327e-13
1.07785e-13
7.17514e-14
4.00049e-14
2.28858e-14
1.47545e-14
1.0613e-14
9.38605e-15
1.04363e-14
1.04129e-14
1.1231e-14
1.13586e-14
9.61553e-15
6.94171e-15
4.72906e-15
3.08961e-15
2.62956e-15
2.70061e-15
2.89443e-15
2.83858e-15
2.34585e-15
1.49547e-15
8.5848e-16
1.74457e-14
1.74626e-14
1.22171e-14
6.68721e-15
3.55516e-15
2.13731e-15
1.53048e-15
1.068e-15
1.14825e-15
1.45196e-15
1.55088e-15
1.36621e-15
1.12797e-15
8.67116e-16
6.02405e-16
4.89078e-16
4.9949e-16
5.32426e-16
5.42311e-16
4.73577e-16
3.46393e-16
1.86576e-16
9.52834e-17
2.62787e-15
2.67768e-15
1.74708e-15
9.40691e-16
4.9573e-16
2.59352e-16
1.75698e-16
1.30276e-16
1.36674e-16
1.62827e-16
1.66108e-16
1.5455e-16
1.28476e-16
9.71282e-17
7.71948e-17
7.78463e-17
8.56715e-17
9.07915e-17
8.33881e-17
6.49451e-17
4.03362e-17
1.9114e-17
1.02255e-17
3.41657e-16
3.38952e-16
2.13771e-16
1.13115e-16
5.58958e-17
3.20346e-17
2.00003e-17
1.35187e-17
1.36143e-17
1.63333e-17
1.66345e-17
1.53626e-17
1.28939e-17
1.06159e-17
1.0344e-17
1.16308e-17
1.29735e-17
1.24977e-17
1.04033e-17
7.00206e-18
3.8429e-18
1.69287e-18
6.165e-19
4.05163e-17
3.76584e-17
2.2888e-17
1.19791e-17
6.15207e-18
3.29146e-18
1.93674e-18
1.24166e-18
1.16286e-18
1.38657e-18
1.44463e-18
1.36405e-18
1.21438e-18
1.17659e-18
1.33658e-18
1.58152e-18
1.66419e-18
1.49398e-18
1.09024e-18
6.39843e-19
3.03766e-19
1.00741e-19
1.44952e-20
4.25754e-18
3.72154e-18
2.19129e-18
1.13459e-18
5.7254e-19
3.00124e-19
1.68488e-19
1.0213e-19
8.70127e-20
1.01784e-19
1.10285e-19
1.10381e-19
1.1142e-19
1.28132e-19
1.61666e-19
1.86844e-19
1.85448e-19
1.53419e-19
9.8121e-20
5.14054e-20
1.74425e-20
2.45182e-21
1.40937e-22
3.95577e-19
3.27388e-19
1.8776e-19
9.61789e-20
4.7714e-20
2.45553e-20
1.31464e-20
7.44089e-21
5.80636e-21
6.60305e-21
7.56812e-21
8.44108e-21
1.01609e-20
1.35435e-20
1.74735e-20
1.96876e-20
1.85897e-20
1.41006e-20
8.11091e-21
3.29323e-21
6.2891e-22
5.42548e-23
5.07573e-24
3.28739e-20
2.54093e-20
1.41444e-20
7.16863e-21
3.54539e-21
1.78011e-21
9.10614e-22
4.80448e-22
3.45022e-22
3.87805e-22
4.87426e-22
6.4377e-22
9.3219e-22
1.36016e-21
1.73901e-21
1.91687e-21
1.72708e-21
1.20155e-21
5.75165e-22
1.73211e-22
2.20408e-23
2.2057e-24
6.02944e-26
2.31954e-21
1.70188e-21
9.28151e-22
4.66452e-22
2.30464e-22
1.1394e-22
5.56598e-23
2.75439e-23
1.83982e-23
2.1477e-23
3.1484e-23
5.08132e-23
8.43183e-23
1.27863e-22
1.62193e-22
1.6789e-22
1.4605e-22
9.19094e-23
3.80461e-23
9.22838e-24
1.04504e-24
2.24151e-26
3.56612e-28
1.2915e-22
9.93013e-23
5.41316e-23
2.67283e-23
1.30624e-23
6.32718e-24
2.97515e-24
1.40396e-24
8.98841e-25
1.19613e-24
2.15146e-24
4.09735e-24
7.29618e-24
1.11816e-23
1.40066e-23
1.36473e-23
1.1576e-23
6.95161e-24
2.67151e-24
5.74542e-25
4.47909e-26
9.15075e-28
4.97274e-29
0.0696168
0.000686024
0.00527979
0.131563
0.00613905
0.000340579
0.010406
0.135764
1.56551e-06
1.78406e-06
0.00037619
0.0914403
1.47352e-06
1.56889e-06
1.73909e-06
0.0176496
1.39783e-06
2.53395e-06
2.0011e-05
9.89475e-08
2.74622e-07
9.00028e-07
1.2467e-07
8.19238e-09
2.82923e-09
6.6217e-08
1.51993e-09
4.44007e-10
3.99122e-10
1.97356e-09
2.44837e-10
2.79617e-10
8.70017e-11
7.55518e-11
9.92346e-11
1.05549e-10
6.8843e-11
7.31313e-11
7.51827e-11
7.18713e-11
1.34949e-10
1.45556e-10
1.5678e-10
1.60288e-10
4.1979e-10
3.73903e-10
3.46186e-10
3.14945e-10
4.31175e-10
4.31219e-10
4.6788e-10
4.50642e-10
4.34715e-10
4.32696e-10
4.40696e-10
8.18727e-10
2.28953e-08
8.24146e-09
1.03704e-09
3.03712e-09
4.04387e-08
3.41812e-08
3.14556e-08
2.85838e-08
4.15415e-08
8.84364e-08
1.07116e-07
9.74088e-08
1.49969e-08
4.9567e-08
6.46398e-08
5.79213e-08
1.52487e-08
1.71941e-08
1.36994e-08
1.33624e-08
1.00056e-08
2.93968e-09
1.9711e-09
1.79106e-09
2.04232e-09
7.21775e-10
4.3168e-10
3.79211e-10
3.31087e-10
1.87144e-10
1.74064e-10
1.50334e-10
1.06026e-10
9.24298e-11
8.74242e-11
8.34496e-11
5.08518e-11
4.74885e-11
4.67982e-11
4.44528e-11
2.44992e-11
2.40807e-11
2.32265e-11
2.24014e-11
1.10993e-11
1.0696e-11
1.03746e-11
9.82207e-12
4.66826e-12
4.53308e-12
4.2737e-12
4.04207e-12
1.73952e-12
1.62125e-12
1.51453e-12
1.38576e-12
5.44033e-13
5.01357e-13
4.51048e-13
4.04852e-13
1.46302e-13
1.25921e-13
1.08554e-13
9.17349e-14
2.95364e-14
2.43709e-14
2.01592e-14
1.63091e-14
5.10739e-15
3.7697e-15
2.83787e-15
2.11591e-15
6.20519e-16
4.35897e-16
3.10197e-16
2.21252e-16
6.53593e-17
4.35954e-17
2.91404e-17
1.0212e-17
5.27464e-18
1.37557e-18
2.06731e-19
1.94788e-20
3.44923e-20
2.53829e-22
4.44196e-24
9.70263e-24
2.39562e-28
4.30338e-27
2.1384e-26
5.4026e-26
2.38561e-28
7.82678e-28
3.8246e-27
1.2343e-26
2.37505e-28
9.62731e-28
3.79792e-27
1.20527e-26
2.36426e-28
9.91017e-28
3.63129e-27
1.14504e-26
2.35276e-28
8.05493e-28
2.80113e-27
8.30713e-27
1.50041e-28
4.87961e-28
1.47e-27
3.69736e-27
0.60778
0.994576
0.99989
0.993838
0.991813
0.988648
0.993369
0.988555
0.978331
0.930117
0.805318
0.589676
0.348672
0.132394
0.0325195
0.000696034
0.0206445
0.120225
0.171433
0.328665
0.864746
0.86595
0.70547
0.470331
0.424889
0.44706
0.404404
0.349581
0.229038
0.0844562
1.29226e-16
1.15001e-16
1.38377e-28
1.33813e-15
1.77616e-15
3.3604e-08
0.00724485
0.0343414
0.223697
0.469818
0.277441
0.0560115
0.00378252
6.77939e-08
7.81598e-20
-3.35881e-09
-2.08606e-08
-3.97411e-09
8.41013e-17
1.32504e-11
4.0654e-11
-6.61851e-14
6.4207e-08
1.45821e-06
3.45828e-05
0.00453745
0.0289212
0.0591892
0.00942717
8.47251e-13
-2.15875e-13
8.6553e-13
5.78129e-10
1.38518e-09
1.01901e-09
5.91565e-10
1.14474e-26
2.219e-08
7.84746e-08
5.23801e-08
-2.41826e-18
3.51695e-06
2.81286e-06
0.000811293
0.0225232
0.0292909
1.70854e-09
4.16128e-10
8.78562e-09
1.19906e-08
6.95865e-09
7.90924e-09
8.12214e-09
6.08119e-09
3.46312e-09
1.41063e-18
1.00907e-07
1.77215e-07
1.72955e-07
1.80601e-07
7.76914e-06
5.92347e-06
0.000161042
0.00501026
0.016302
1.41878e-09
7.88802e-09
1.40964e-08
1.22643e-08
5.76433e-09
3.76057e-09
2.9476e-09
2.70416e-09
2.43097e-09
-1.51692e-20
2.68365e-08
1.56465e-07
2.57993e-07
2.81241e-06
1.316e-05
1.02577e-05
-4.37869e-14
0
7.40478e-30
1.70425e-09
3.96667e-09
4.01744e-09
2.03422e-09
1.01026e-09
5.12226e-10
9.77621e-11
2.12502e-12
2.13651e-12
2.15456e-12
2.12636e-12
5.39833e-08
5.07872e-07
7.28033e-06
1.24465e-05
1.53739e-06
2.15009e-20
1.28504e-11
1.17642e-12
5.37148e-10
5.22309e-10
2.80864e-10
1.79768e-10
1.58798e-10
1.14041e-10
7.68195e-11
5.97113e-11
3.83074e-11
2.1894e-12
3.89836e-09
8.2191e-08
9.42837e-07
3.03046e-06
9.9335e-07
5.57208e-13
1.0607e-12
1.47208e-11
5.9058e-13
7.15449e-11
7.60598e-11
5.34712e-11
4.43812e-11
3.54228e-11
2.7369e-11
2.0756e-11
1.57837e-11
7.81791e-12
3.60751e-12
3.87074e-12
6.49575e-08
3.25584e-07
9.30764e-10
3.18413e-09
1.21656e-12
7.17993e-12
1.38433e-12
1.36667e-13
6.71045e-11
6.90174e-11
7.0325e-11
7.46429e-11
6.94422e-11
4.8106e-11
3.90918e-11
2.36927e-11
1.13015e-11
1.0279e-11
4.31141e-10
4.91384e-09
1.51951e-09
1.69461e-12
1.69281e-12
2.05171e-12
1.90419e-12
5.58428e-13
1.30683e-13
1.65964e-10
1.58094e-10
1.36212e-10
1.2355e-10
1.02806e-10
8.1931e-11
5.45997e-11
3.30958e-11
1.92635e-11
1.34364e-11
4.34871e-11
1.16299e-11
1.90918e-10
1.85116e-12
1.69192e-12
1.64746e-12
1.30792e-12
6.78271e-13
1.35181e-13
2.58978e-10
2.13501e-10
2.04878e-10
1.95104e-10
1.62047e-10
1.30366e-10
8.73982e-11
5.6107e-11
3.34057e-11
1.79737e-11
1.16135e-11
1.24208e-11
3.38148e-11
3.04388e-12
2.80892e-12
2.13902e-12
1.46784e-12
7.22851e-13
1.41572e-13
3.99394e-10
3.67956e-10
3.62153e-10
3.66598e-10
2.87559e-10
2.08488e-10
1.5608e-10
1.07456e-10
5.80805e-11
2.6583e-11
1.59686e-11
1.09591e-11
8.82968e-12
5.16065e-12
3.61532e-12
2.31437e-12
1.3992e-12
7.4017e-13
1.42429e-13
1.55534e-09
1.86348e-09
1.63425e-09
1.18867e-09
7.49061e-10
4.71247e-10
3.22057e-10
1.85141e-10
6.87976e-11
4.14221e-11
2.77219e-11
1.74601e-11
1.30635e-11
8.20226e-12
4.2634e-12
2.32521e-12
1.33639e-12
6.81304e-13
1.38479e-13
6.45074e-09
9.40058e-09
8.25237e-09
5.13119e-09
2.84258e-09
1.64193e-09
8.88886e-10
3.3071e-10
1.01504e-10
6.03203e-11
3.62042e-11
2.44487e-11
1.6375e-11
9.44309e-12
4.38876e-12
2.21563e-12
1.21868e-12
5.26667e-13
1.26247e-13
2.48791e-08
1.59213e-08
1.44867e-08
1.00637e-08
5.76069e-09
3.69639e-09
2.06346e-09
9.20416e-10
3.16398e-10
1.1154e-10
4.91811e-11
2.64502e-11
1.56221e-11
8.7966e-12
4.41834e-12
2.1622e-12
1.06948e-12
4.1927e-13
1.05081e-13
8.37693e-08
3.27497e-08
1.36441e-08
1.16666e-08
7.748e-09
5.50227e-09
3.27605e-09
1.64784e-09
7.46837e-10
3.00562e-10
8.69356e-11
2.77837e-11
1.46621e-11
8.47702e-12
4.34575e-12
2.03529e-12
8.74164e-13
3.45749e-13
8.58995e-14
5.23414e-08
3.47533e-08
2.39755e-08
1.41469e-08
8.22062e-09
5.80243e-09
3.58952e-09
1.89745e-09
1.01618e-09
4.86675e-10
1.69145e-10
3.54734e-11
1.23108e-11
6.96161e-12
3.77324e-12
1.71861e-12
6.66269e-13
2.51257e-13
7.31025e-14
1.28073e-08
1.39487e-08
1.29361e-08
8.41845e-09
6.07986e-09
4.43205e-09
2.91963e-09
1.77771e-09
1.01295e-09
5.14576e-10
2.17564e-10
5.13492e-11
1.01524e-11
5.02545e-12
2.71096e-12
1.17952e-12
2.59955e-13
1.77423e-13
6.0612e-14
1.36046e-09
2.42931e-09
3.27911e-09
3.38588e-09
3.27135e-09
2.58445e-09
1.91916e-09
1.26055e-09
7.58899e-10
4.32761e-10
2.18581e-10
5.96946e-11
9.1951e-12
3.07903e-12
1.72523e-12
3.52197e-13
9.56803e-14
1.03219e-13
5.10517e-14
3.15174e-10
4.22654e-10
6.21875e-10
1.20558e-09
1.54762e-09
1.32087e-09
9.92841e-10
6.85017e-10
4.36933e-10
2.66486e-10
1.58481e-10
5.28964e-11
8.21697e-12
1.66781e-12
4.40306e-13
1.02601e-13
4.53648e-14
5.21721e-14
2.94968e-14
1.40209e-10
1.39728e-10
1.68246e-10
2.83215e-10
4.72298e-10
4.66865e-10
3.87814e-10
2.88913e-10
1.98812e-10
1.34126e-10
8.70589e-11
3.34879e-11
5.73697e-12
3.4373e-13
4.81209e-14
2.65028e-14
2.54495e-14
2.58439e-14
1.73569e-14
7.62548e-11
7.16789e-11
7.55892e-11
9.74868e-11
1.43096e-10
1.45276e-10
1.26675e-10
1.00485e-10
7.46189e-11
5.49791e-11
3.71284e-11
9.89083e-12
1.09759e-12
6.30194e-14
1.26286e-14
1.24259e-14
1.42425e-14
1.40325e-14
9.80242e-15
4.07471e-11
3.76735e-11
3.72402e-11
4.22075e-11
4.94632e-11
4.70177e-11
4.08718e-11
3.32457e-11
2.62129e-11
2.1285e-11
8.29383e-12
1.55285e-12
1.42313e-13
9.51256e-15
4.73073e-15
5.94777e-15
7.78336e-15
7.74059e-15
5.31748e-15
2.01867e-11
1.83983e-11
1.74635e-11
1.75115e-11
1.67649e-11
1.48921e-11
1.24489e-11
1.01054e-11
8.64944e-12
4.13544e-12
1.12206e-12
1.73135e-13
1.53814e-14
1.77267e-15
1.8907e-15
2.82711e-15
4.12165e-15
4.18976e-15
2.52857e-15
8.85131e-12
8.06648e-12
7.29702e-12
6.45985e-12
5.47482e-12
4.45099e-12
3.55093e-12
2.9909e-12
1.55974e-12
5.06878e-13
1.10305e-13
1.66337e-14
1.55378e-15
4.92991e-16
7.19572e-16
1.32327e-15
2.12179e-15
2.22438e-15
1.11745e-15
3.50529e-12
2.97416e-12
2.45132e-12
1.95752e-12
1.51936e-12
1.16772e-12
9.62476e-13
5.49032e-13
1.68697e-13
3.72061e-14
7.80518e-15
1.38605e-15
1.66753e-16
1.45442e-16
2.88448e-16
6.19553e-16
1.03566e-15
1.1048e-15
5.2998e-16
1.14165e-12
9.21971e-13
7.12435e-13
5.24918e-13
3.77839e-13
2.95521e-13
1.53367e-13
4.50817e-14
1.03323e-14
2.74241e-15
7.41335e-16
1.16394e-16
2.43768e-17
4.2278e-17
1.17195e-16
2.75665e-16
4.84704e-16
5.01895e-16
2.35428e-16
3.05694e-13
2.19231e-13
1.49962e-13
1.01841e-13
7.4259e-14
3.16934e-14
7.65854e-15
1.60249e-15
4.98638e-16
1.84776e-16
4.93577e-17
5.68777e-18
4.58717e-18
1.38164e-17
4.62821e-17
1.14417e-16
2.1801e-16
2.3606e-16
9.83926e-17
6.13624e-14
3.97644e-14
2.65194e-14
1.74602e-14
5.73105e-15
1.0125e-15
1.67073e-16
3.65843e-17
6.81145e-18
5.70188e-19
8.14068e-20
1.79682e-19
9.71075e-19
4.62722e-18
1.74378e-17
4.48993e-17
9.74061e-17
1.15974e-16
4.93407e-17
9.90197e-15
6.19555e-15
3.63628e-15
1.00115e-15
1.5141e-16
1.55547e-17
9.5649e-19
2.32808e-20
4.24982e-21
7.54531e-21
1.85928e-20
5.71636e-20
3.19043e-19
1.58969e-18
6.37476e-18
1.67419e-17
4.56792e-17
4.64656e-17
1.85623e-17
1.20694e-15
6.5994e-16
1.52538e-16
2.01464e-17
2.74646e-18
2.8014e-19
1.11255e-20
2.00002e-21
3.26685e-21
7.04933e-21
1.57236e-20
3.50056e-20
1.27075e-19
6.12792e-19
2.43212e-18
8.56483e-18
2.34743e-17
2.05759e-17
6.89682e-18
1.11421e-16
1.80041e-17
2.11116e-18
3.7572e-19
5.57326e-20
3.8079e-21
9.05129e-22
1.46528e-21
3.24546e-21
7.38064e-21
1.6057e-20
3.14566e-20
6.89185e-20
2.74117e-19
1.18388e-18
5.17153e-18
7.45099e-18
5.92408e-18
1.73228e-18
1.7964e-18
1.95375e-19
3.52422e-20
7.15914e-21
8.41939e-22
3.26799e-22
5.60014e-22
1.3371e-21
3.30688e-21
7.70367e-21
1.62191e-20
2.99222e-20
4.9966e-20
1.66293e-19
8.72547e-19
2.40614e-18
3.08062e-18
1.62765e-18
3.19831e-19
8.15125e-21
2.57829e-21
4.21461e-22
6.48667e-23
8.30702e-23
1.91113e-22
4.93362e-22
1.27622e-21
3.09711e-21
7.00446e-21
1.50911e-20
2.80286e-20
4.34645e-20
1.36801e-19
5.40403e-19
1.12886e-18
9.83689e-19
4.19787e-19
5.82373e-20
1.95111e-23
1.66501e-23
1.1349e-23
1.96715e-23
5.54036e-23
1.58487e-22
4.29924e-22
1.1072e-21
2.69573e-21
6.1239e-21
1.27657e-20
2.33498e-20
3.67341e-20
9.40293e-20
2.49428e-19
4.39171e-19
3.09184e-19
8.36849e-20
1.07607e-20
2.7279e-25
1.1117e-24
4.03167e-24
1.40236e-23
4.33737e-23
1.25237e-22
3.36682e-22
8.5325e-22
2.03378e-21
4.55082e-21
9.23017e-21
1.63149e-20
2.51905e-20
5.02514e-20
1.01715e-19
1.01048e-19
4.63118e-20
1.17972e-20
2.47975e-21
1.66292e-25
7.79282e-25
2.98782e-24
1.01501e-23
3.09846e-23
8.81559e-23
2.31944e-22
5.68099e-22
1.30624e-21
2.82516e-21
5.48539e-21
9.29532e-21
1.36983e-20
2.50161e-20
2.70725e-20
1.81587e-20
6.81666e-21
2.25348e-21
9.44848e-22
1.21158e-25
5.14816e-25
1.93971e-24
6.21998e-24
1.8956e-23
5.18116e-23
1.32176e-22
3.1202e-22
6.88326e-22
1.42691e-21
2.64894e-21
4.24983e-21
5.81813e-21
8.25991e-21
6.54995e-21
3.32391e-21
1.24519e-21
7.05479e-22
4.27907e-22
7.51077e-26
2.89937e-25
9.989e-25
3.04805e-24
8.39391e-24
2.16969e-23
5.33098e-23
1.23039e-22
2.61144e-22
5.12545e-22
9.03085e-22
1.39217e-21
1.71149e-21
1.94231e-21
1.23138e-21
7.30422e-22
3.33656e-22
2.02004e-22
2.06948e-22
3.57593e-26
1.22244e-25
3.85586e-25
1.10518e-24
2.94516e-24
7.39552e-24
1.71494e-23
3.87815e-23
7.98514e-23
1.49003e-22
2.4322e-22
3.46852e-22
4.02205e-22
3.76909e-22
2.15739e-22
1.42515e-22
5.90444e-23
6.41797e-23
6.19345e-23
9.52081e-27
2.84448e-26
8.2289e-26
2.18525e-25
5.42087e-25
1.32796e-24
2.87057e-24
5.78928e-24
1.19423e-23
2.14076e-23
3.37156e-23
4.49726e-23
4.8178e-23
3.59737e-23
2.09031e-23
1.66701e-23
1.28016e-23
7.13986e-24
7.25363e-24
)
;

boundaryField
{
    leftWall
    {
        type            alphaContactAngle;
        contactAngleProperties 
        {
            mercury         
            {
                theta0          90;
            }
            air             
            {
                theta0          90;
            }
            oil             
            {
                theta0          90;
            }
        }
        value           nonuniform List<scalar> 
50
(
2.28547e-11
4.97791e-11
2.44735e-10
1.15783e-09
1.42769e-09
0.00158314
0.511105
1
1
1
1
1
1
1
1
1
0.929989
0.180563
-3.42702e-07
-6.92184e-07
1.90517e-08
8.50864e-08
5.65583e-08
2.25021e-08
2.4352e-08
1.8256e-08
1.53827e-08
1.15557e-08
1.02862e-08
7.70036e-09
6.13843e-09
3.75514e-09
2.41555e-09
1.09273e-09
5.29085e-10
1.66886e-10
5.74792e-11
1.17582e-11
3.174e-12
5.29113e-13
1.02327e-13
1.74457e-14
2.62787e-15
3.41657e-16
4.05163e-17
4.25754e-18
3.95577e-19
3.28739e-20
2.31954e-21
1.2915e-22
)
;
    }
    rightWall
    {
        type            alphaContactAngle;
        contactAngleProperties 
        {
            mercury         
            {
                theta0          90;
            }
            air             
            {
                theta0          90;
            }
            oil             
            {
                theta0          90;
            }
        }
        value           nonuniform List<scalar> 
50
(
0.0187134
0.0201392
0.0430727
0.100099
0.15079
0.330659
0.397294
0.29455
0.171433
0.0343414
0.0289212
0.0292909
0.016302
7.40478e-30
1.17642e-12
5.9058e-13
1.36667e-13
1.30683e-13
1.35181e-13
1.41572e-13
1.42429e-13
1.38479e-13
1.26247e-13
1.05081e-13
8.58995e-14
7.31025e-14
6.0612e-14
5.10517e-14
2.94968e-14
1.73569e-14
9.80242e-15
5.31748e-15
2.52857e-15
1.11745e-15
5.2998e-16
2.35428e-16
9.83926e-17
4.93407e-17
1.85623e-17
6.89682e-18
1.73228e-18
3.19831e-19
5.82373e-20
1.07607e-20
2.47975e-21
9.44848e-22
4.27907e-22
2.06948e-22
6.19345e-23
7.25363e-24
)
;
    }
    lowerWall
    {
        type            alphaContactAngle;
        contactAngleProperties 
        {
            mercury         
            {
                theta0          90;
            }
            air             
            {
                theta0          90;
            }
            oil             
            {
                theta0          90;
            }
        }
        value           nonuniform List<scalar> 
62
(
2.28547e-11
3.11718e-11
3.87106e-11
4.29692e-11
4.38079e-11
4.33181e-11
4.31659e-11
4.76842e-11
5.80587e-11
7.51398e-11
9.7704e-11
1.25075e-10
1.55432e-10
1.96134e-10
2.53976e-10
3.36223e-10
4.52828e-10
6.78517e-10
1.057e-09
1.58126e-09
2.15838e-09
2.54215e-09
2.58254e-09
2.58254e-09
2.78486e-09
2.73409e-09
5.30962e-10
2.48682e-05
0.456678
0.886118
0.747655
0.0696168
0.000686024
0.00527979
0.131563
7.34682e-05
8.56621e-05
2.38507e-05
1.0062e-05
0.00154432
0.0203662
0.0132047
0.165682
7.34682e-05
-1.9721e-07
0.000567571
0.00627529
0.0110538
0.010838
0.00191019
0.000393399
0.000433573
0.00209638
0.00183639
0.00130401
0.0503268
0.12321
0.123214
0.12321
0.0590088
0.0187319
0.0187134
)
;
    }
    atmosphere
    {
        type            inletOutlet;
        inletValue      uniform 0;
        value           nonuniform List<scalar> 
46
(
0
0
0
0
0
0
0
0
0
0
2.15146e-24
4.09735e-24
7.29618e-24
1.11816e-23
1.40066e-23
1.36473e-23
1.1576e-23
6.95161e-24
2.67151e-24
5.74542e-25
4.47909e-26
9.15075e-28
4.97274e-29
0
4.87961e-28
0
0
0
0
0
0
0
0
0
0
0
0
0
0
4.8178e-23
3.59737e-23
2.09031e-23
1.66701e-23
1.28016e-23
7.13986e-24
7.25363e-24
)
;
    }
    defaultFaces
    {
        type            empty;
    }
}


// ************************************************************************* //
