/*--------------------------------*- C++ -*----------------------------------*\
  =========                 |
  \\      /  F ield         | OpenFOAM: The Open Source CFD Toolbox
   \\    /   O peration     | Website:  https://openfoam.org
    \\  /    A nd           | Version:  13
     \\/     M anipulation  |
\*---------------------------------------------------------------------------*/
FoamFile
{
    format      ascii;
    class       volScalarField;
    location    "1.25";
    object      alpha.air;
}
// * * * * * * * * * * * * * * * * * * * * * * * * * * * * * * * * * * * * * //

dimensions      [];

internalField   nonuniform List<scalar> 
2268
(
1.06249e-13
5.99644e-14
2.15722e-14
7.7164e-15
2.66663e-15
1.02506e-15
5.44354e-16
4.61979e-16
5.16006e-16
7.15928e-16
8.20762e-16
7.30556e-16
6.09034e-16
5.99438e-16
6.50278e-16
7.62969e-16
9.98449e-16
2.76486e-15
9.23734e-15
3.52445e-14
4.73489e-14
1.07779e-14
1.82088e-15
6.59071e-13
4.11739e-13
1.70021e-13
8.03771e-14
3.04877e-14
1.31394e-14
6.68553e-15
6.0885e-15
7.0645e-15
8.74904e-15
9.6047e-15
8.98112e-15
8.82452e-15
9.39206e-15
1.03649e-14
1.1669e-14
1.36158e-14
4.17155e-14
1.66494e-13
3.86717e-13
7.49235e-13
5.17921e-13
4.17884e-14
2.81047e-12
2.05874e-12
1.21789e-12
7.86282e-13
4.23081e-13
1.83818e-13
8.10635e-14
5.75909e-14
5.54845e-14
6.41679e-14
6.6134e-14
6.32564e-14
6.23727e-14
6.71615e-14
7.10422e-14
8.91165e-14
7.95145e-14
2.42085e-13
8.78486e-13
2.08447e-12
3.32523e-12
4.32783e-12
1.19759e-12
8.01346e-12
6.99318e-12
4.84861e-12
3.49042e-12
2.57673e-12
1.34622e-12
6.08717e-13
3.81165e-13
3.37918e-13
3.05005e-13
2.40093e-13
2.27757e-13
3.02993e-13
3.68373e-13
4.03346e-13
3.57584e-13
1.8684e-13
3.60521e-13
1.17501e-12
1.56448e-12
3.69458e-12
6.96772e-12
9.13031e-12
2.06348e-11
1.8611e-11
1.45645e-11
1.05937e-11
8.16458e-12
5.46879e-12
3.30773e-12
2.07739e-12
1.44354e-12
1.02499e-12
9.44602e-13
1.28399e-12
3.34611e-12
6.1973e-12
3.76239e-12
4.0979e-13
8.20468e-14
9.94902e-14
6.65043e-14
3.20669e-14
2.43681e-13
1.74333e-13
4.78077e-13
6.30266e-11
4.78056e-11
3.20247e-11
2.39827e-11
1.68511e-11
1.42338e-11
1.16238e-11
8.60568e-12
6.42842e-12
6.44182e-12
7.84411e-12
1.29843e-11
2.52155e-11
6.23656e-11
2.79687e-10
5.06887e-14
4.79228e-09
3.61472e-07
4.0029e-14
0.000229001
0.000300459
2.44271e-10
3.38389e-13
2.41854e-10
1.89724e-10
1.31013e-10
8.68296e-11
4.89898e-11
2.90204e-11
2.43865e-11
2.24749e-11
2.1225e-11
2.16384e-11
2.77386e-11
4.7416e-11
1.15576e-10
3.53101e-10
4.16732e-10
5.34387e-14
7.21176e-08
8.3138e-08
7.05694e-05
0.000112221
0.000111813
0.0258002
0.0854151
3.70433e-10
3.30367e-10
2.89338e-10
2.14747e-10
1.45183e-10
8.24842e-11
5.63195e-11
5.47042e-11
5.97537e-11
7.33126e-11
1.01088e-10
1.67129e-10
2.78939e-10
7.16126e-10
1.53155e-09
1.59613e-10
7.46544e-11
3.82662e-07
6.59454e-06
6.42991e-06
0.0461786
0.21123
0.232248
0.00239788
6.91966e-10
6.57164e-09
0.00469248
0.0488916
0.0699604
0.0980014
0.09735
0.0782428
0.0636141
0.111563
0.178986
0.17704
0.128712
0.0723415
0.00798353
0.00796691
0.0118578
0.0136578
0.00382194
-4.83507e-08
7.05313e-05
4.19736e-05
5.82371e-21
-2.1251e-23
1.57485e-18
0.000245622
0.00795927
0.0279144
0.030776
0.111174
0.307396
0.260084
0.196603
0.07357
0.0078961
0.0314709
0.0152136
0.0115767
1.44662e-05
6.20036e-07
6.89362e-09
9.95153e-09
3.476e-22
-1.60194e-18
0.00857446
0.161417
0.358101
0.379675
0.283206
0.436669
0.497937
0.497992
0.477925
0.351348
0.161787
0.0341696
0.00686013
-1.31777e-05
6.2386e-07
1.72661e-05
7.85799e-05
7.73579e-05
-4.54819e-07
0.0764716
0.526731
0.558413
0.558484
0.523566
0.429772
0.431549
0.474282
0.498407
0.498596
0.365629
0.0634367
0.0392248
0.047424
1.60894e-10
3.66969e-05
0.000141981
0.000207263
0.000212313
0.050575
0.314249
0.497716
0.532209
0.541794
0.465573
0.280476
0.158231
0.156013
0.181956
0.0822303
0.0567035
0.10297
0.073769
-1.31237e-16
3.86134e-05
1.37759e-05
4.38169e-06
5.63557e-05
7.1295e-10
1.15103e-05
0.00520512
0.0729713
0.207551
0.275019
0.141284
0.0495768
0.0168093
0.00260263
2.79559e-07
0.0572117
0.10342
0.0213205
-5.91268e-08
4.19771e-06
4.41076e-06
4.58759e-06
1.95169e-05
6.44787e-06
2.04983e-05
1.36194e-06
4.74134e-19
1.07096e-21
2.72806e-21
0.00635991
0.00363245
0.0130034
0.00974483
-1.26488e-05
0.118551
0.103191
3.13681e-05
8.93149e-06
2.47114e-05
5.51001e-05
1.56783e-05
8.21134e-05
5.87577e-05
0.000132395
0.000109927
2.46321e-07
5.62459e-08
1.9916e-22
3.02462e-10
1.59871e-09
-1.62564e-22
-5.7017e-21
-1.35242e-14
0.135266
4.55967e-10
4.29353e-10
3.90373e-10
3.65795e-10
3.22932e-10
2.65287e-10
2.17029e-10
2.04482e-10
2.11848e-10
2.39415e-10
3.00112e-10
4.37784e-10
7.42082e-10
9.18382e-10
9.20395e-10
3.06438e-09
3.64008e-08
3.89391e-08
4.08332e-08
0.0256209
0.214157
0.232914
0.233118
5.12015e-10
5.03041e-10
5.24583e-10
6.22035e-10
6.99502e-10
6.91386e-10
6.70237e-10
6.16434e-10
5.90637e-10
5.68593e-10
5.81767e-10
8.89956e-10
1.87393e-09
2.52982e-09
2.46389e-09
2.35851e-09
2.11343e-09
1.94634e-09
0.11604
0.174974
0.172724
0.0753993
0.0619805
5.46525e-10
5.13962e-10
6.05275e-10
1.78719e-09
4.68058e-09
3.95754e-09
2.48461e-09
1.446e-09
1.89161e-09
1.0442e-09
9.3056e-10
9.94839e-10
1.05292e-09
1.25535e-09
2.13935e-09
9.01773e-09
0.0774658
0.200648
0.207592
0.18344
0.0225452
2.28012e-05
3.06375e-07
1.78192e-09
5.90777e-10
8.35302e-10
2.81025e-09
1.3693e-08
1.40898e-08
9.9903e-09
5.84516e-09
1.68699e-08
1.77473e-11
2.80481e-20
1.49581e-11
4.67723e-09
1.02747e-05
0.091639
0.232907
0.239447
0.235942
0.0984252
0.0118122
4.12777e-06
-3.39121e-12
1.75234e-08
5.25784e-09
8.42265e-10
1.13346e-09
6.11633e-09
1.36333e-08
3.32929e-08
3.41642e-08
3.18303e-08
1.25461e-07
0.00347176
0.000118272
0.0406918
0.17868
0.284453
0.286965
0.250251
0.134155
0.0338195
0.000365229
8.94052e-08
4.85055e-08
-5.78926e-10
9.55039e-07
1.23678e-08
9.47702e-10
9.80281e-10
3.61225e-08
0.00375021
0.0240398
0.0673008
0.0885113
0.125853
0.245735
0.322356
0.322312
0.322356
0.244019
0.1383
0.0287296
0.000831044
1.14795e-06
2.88997e-07
2.50895e-07
2.02951e-08
-1.94112e-24
9.18512e-07
1.68811e-08
9.81439e-10
7.87523e-08
0.00660791
0.0360695
0.123985
0.243134
0.301768
0.299796
0.301703
0.21546
0.15184
0.072021
0.0134212
0.000214996
5.05258e-06
2.21514e-06
1.94465e-06
1.10489e-06
1.09086e-07
1.77609e-08
1.47244e-08
1.60682e-07
2.08577e-08
6.98585e-07
0.0297394
0.0934027
0.041691
0.098818
0.121723
0.119918
0.0222082
0.0346256
0.00176371
3.55449e-05
2.675e-08
3.72122e-08
1.10693e-06
5.51357e-06
4.44467e-06
6.35201e-07
1.13421e-07
1.54274e-08
1.01816e-08
1.06452e-08
2.75579e-08
0.0700112
0.234279
0.513734
0.0972902
0.00049943
2.5974e-06
9.0777e-08
9.04481e-29
-1.82199e-33
0
1.80919e-17
1.38153e-08
1.51814e-08
7.39457e-08
6.18883e-07
1.24685e-06
2.78806e-07
1.08992e-08
1.0411e-08
1.20757e-08
3.00418e-08
8.51748e-08
8.38611e-08
0.819349
0.914614
0.680061
0.101539
0.0289254
0.0120022
0.00205212
-6.24447e-19
-3.01328e-21
-6.66299e-20
1.49505e-19
-3.16944e-20
1.95662e-12
2.54909e-09
3.91657e-09
2.35604e-09
1.45074e-08
2.2354e-08
0.0219803
0.0731072
0.180254
0.336654
0.440677
0.999174
0.987966
0.856322
0.792745
0.707907
0.609091
0.505064
0.413505
0.320866
0.263129
0.228576
0.215126
0.221492
0.249161
0.293758
0.355827
0.449352
0.586599
0.710851
0.805426
0.9118
0.977259
0.994285
0.999681
0.997254
0.999998
0.999992
0.999985
0.999988
1
1
0.997551
0.972526
0.955853
0.94591
0.943958
0.951949
0.965721
0.980609
0.993993
1
1
1
0.999999
0.999999
0.999999
0.999999
0.999999
0.999999
1
1
1
1
1
1
1
1
1
1
1
1
1
1
1
1
1
0.999999
0.999999
0.999999
0.999999
0.999993
0.999994
1
1
1
1
1
1
0.999998
0.999997
0.999999
0.999999
1
1
1
1
1
1
0.999999
0.999999
0.999999
0.999998
1
0.999999
1
1
1
1
1
1
1
1
0.999972
0.999937
0.999978
0.999998
1
1
1
1
1
0.999999
0.999999
0.999999
0.999999
1
1
1
1
1
1
1
1
1
1
0.999982
0.999826
0.999816
0.99994
0.999997
0.999998
1
0.999999
0.999997
0.999997
0.999999
1
1
1
1
1
1
1
1
1
1
1
1
1
0.999903
0.999816
0.999816
0.999863
0.999997
0.999997
0.999997
0.999997
0.999997
0.999997
0.999999
1
1
1
1
1
1
1
1
1
1
1
1
1
0.999982
0.999853
0.999823
0.99986
0.999998
0.999998
0.999998
0.999998
0.999997
0.999998
1
1
1
1
1
1
1
1
1
1
1
1
1
1
0.999997
0.999971
0.999952
0.99996
0.999998
0.999999
1
1
1
1
1
1
1
1
1
1
1
1
1
1
1
1
1
1
1
1
0.999996
0.999995
0.999998
1
1
1
1
1
1
1
1
1
1
1
1
1
1
1
1
1
1
1
1
1
1
1
1
1
1
1
1
1
1
1
1
1
1
1
1
1
1
1
1
1
1
1
1
1
1
1
1
1
1
1
1
1
1
1
1
1
1
1
1
1
1
1
1
1
1
1
1
1
1
1
1
1
1
1
1
1
1
1
1
1
1
1
1
1
1
1
1
1
1
1
1
1
1
1
1
1
1
1
1
1
1
1
1
1
1
1
1
1
1
1
1
1
1
1
1
1
1
1
1
1
1
1
1
1
1
1
1
1
1
1
1
1
1
1
1
1
1
1
1
1
1
1
1
1
1
1
1
1
1
1
1
1
1
1
1
1
1
1
1
1
1
1
1
1
1
1
1
1
1
1
1
1
1
1
1
1
1
1
1
1
1
1
1
1
1
1
1
1
1
1
1
1
1
1
1
1
1
1
1
1
1
1
1
1
1
1
1
1
1
1
1
1
1
1
1
1
1
1
1
1
1
1
1
1
1
1
1
1
1
1
1
1
1
1
1
1
1
1
1
1
1
1
1
1
1
1
1
1
1
1
1
1
1
1
1
1
1
1
1
1
1
1
1
1
1
1
1
1
1
1
1
1
1
1
1
1
1
1
1
1
1
1
1
1
1
1
1
1
1
1
1
1
1
1
1
1
1
1
1
1
1
1
1
1
1
1
1
1
1
1
1
1
1
1
1
1
1
1
1
1
1
1
1
1
1
1
1
1
1
1
1
1
1
1
1
1
1
1
1
1
1
1
1
1
1
1
1
1
1
1
1
1
1
1
1
1
1
1
1
1
1
1
1
1
1
1
1
1
1
1
1
1
1
1
1
1
1
1
1
1
1
1
1
1
1
1
1
1
1
1
1
1
1
1
1
1
1
1
1
1
1
1
1
1
1
1
1
1
1
1
1
1
1
1
1
1
1
1
1
1
1
1
1
1
1
1
1
1
1
1
1
1
1
1
1
1
1
1
1
1
1
1
1
1
1
1
1
1
1
1
1
1
1
1
1
1
1
1
1
1
1
1
1
1
1
1
1
1
1
1
1
1
1
1
1
1
1
1
1
1
1
1
1
1
1
1
1
1
1
1
1
1
1
1
1
1
1
1
1
1
1
1
1
1
1
1
1
1
1
0.205573
0.0145164
0.106663
0.104082
0.0284547
0.00414187
0.177703
0.192184
2.53134e-07
2.15459e-06
0.133419
0.197535
1.34693e-07
1.48691e-07
0.0192125
0.0913369
2.27577e-05
2.09729e-05
7.79152e-08
5.72747e-07
9.30183e-06
1.85953e-06
2.30694e-08
8.37755e-08
9.96387e-08
2.36572e-08
1.14221e-08
5.20322e-08
1.71789e-08
1.06935e-08
9.43215e-09
8.84289e-09
1.34794e-07
0.0215675
0.0690314
0.0932587
0.551906
0.716766
0.815518
0.848718
0.999706
0.999999
0.999999
0.999999
0.999999
0.999999
0.999999
0.999999
0.999998
0.999998
0.999999
0.999999
0.999998
0.999999
0.999999
1
1
1
1
1
1
1
1
1
1
1
1
1
1
1
1
1
1
1
1
1
1
1
1
1
1
1
1
1
1
1
1
1
1
1
1
1
1
1
1
1
1
1
1
1
1
1
1
1
1
1
1
1
1
1
1
1
1
1
1
1
1
1
1
1
1
1
1
1
1
1
1
1
1
1
1
1
1
1
1
1
1
1
1
1
1
1
1
1
1
1
1
1
1
1
1
1
1
1
1
1
1
1
1
1
1
1
1
1
1
1
1
1
0.0601614
0.000102548
0.000105349
0.00616197
0.00432712
0.00227627
0.000609809
8.21766e-05
0.000205691
0.000206317
0.000100808
0.00013076
0.000152701
0.00026901
0.000565363
0.00100143
0.00151633
-6.05629e-21
0.128397
0.0423826
0.115036
0.129747
0.0402128
0.0135669
0.00846798
0.00176325
0.000218226
8.89327e-05
0.000160532
0.000216616
0.000428629
0.0006295
0.000713928
0.000938223
0.00100751
0.000551113
0.00687328
0.308178
0.186268
0.199457
0.163559
0.0264536
0.00354162
0.00145539
0.000978843
0.000412503
6.76699e-05
1.00455e-05
7.52659e-05
0.00012477
0.000222655
0.000322241
0.000404508
0.000448137
0.000441428
0.168437
0.428769
0.133587
0.122907
0.0347134
0.000735451
2.79885e-06
-4.08753e-22
8.46628e-22
3.79794e-20
4.68749e-10
1.75562e-08
2.22681e-08
0.00680839
0.0291323
0.0469711
0.0549134
0.0259037
0.00859049
0.26284
0.429133
0.00272657
0.000452952
9.58631e-08
1.92357e-08
-3.59099e-11
-3.26505e-17
5.05065e-10
1.04679e-08
1.85375e-08
0.0820992
0.269432
0.486131
0.602375
0.598283
0.549644
0.461093
0.375028
0.346251
0.381366
9.16175e-08
3.05565e-07
3.39437e-07
1.72651e-07
3.69487e-08
3.42828e-08
4.2154e-08
0.0879133
0.381731
0.756691
0.967485
0.999676
0.999998
0.999822
0.970256
0.918702
0.945838
0.959171
0.961769
1.14012e-07
1.22766e-07
7.30752e-08
7.44381e-08
1.02864e-07
0.0659814
0.351112
0.811043
1
1
1
1
0.999999
0.999992
0.999927
0.997237
0.999884
0.999999
0.999999
9.49048e-09
3.92652e-08
9.83003e-08
0.0804068
0.41488
0.881056
1
1
1
1
1
1
0.999971
0.996558
0.993789
0.993864
0.999746
0.999999
0.999999
0.146992
0.329864
0.648977
0.929198
1
1
1
1
0.99994
0.999138
0.99903
0.999974
0.999885
0.996455
0.995561
0.999796
1
0.999999
0.999999
0.902554
0.979264
1
1
1
0.999999
0.999999
0.999994
0.999259
0.998834
0.998836
0.99976
0.99997
0.999467
0.999997
1
1
1
1
0.999999
1
1
1
0.999999
0.999998
0.999999
0.999951
0.999779
0.99967
0.999716
0.999907
1
1
1
1
1
1
0.999999
0.999999
1
1
1
0.999998
0.999997
0.999997
0.999995
1
1
1
1
1
1
1
1
1
1
0.999998
0.999999
1
1
1
1
0.999999
1
1
1
1
1
1
1
1
1
1
1
1
0.999998
1
1
1
1
1
1
1
1
1
1
1
1
1
1
1
1
1
1
0.999998
1
1
1
1
1
1
1
1
1
1
1
1
1
1
1
1
1
1
0.999999
1
1
1
1
1
1
1
1
1
1
1
1
1
1
1
1
1
1
1
1
1
1
1
1
1
1
1
1
1
1
1
1
1
1
1
1
1
1
1
1
1
1
1
1
1
1
1
1
1
1
1
1
1
1
1
1
1
1
1
1
1
1
1
1
1
1
1
1
1
1
1
1
1
1
1
1
1
1
1
1
1
1
1
1
1
1
1
1
1
1
1
1
1
1
1
1
1
1
1
1
1
1
1
1
1
1
1
1
1
1
1
1
1
1
1
1
1
1
1
1
1
1
1
1
1
1
1
1
1
1
1
1
1
1
1
1
1
1
1
1
1
1
1
1
1
1
1
1
1
1
1
1
1
1
1
1
1
1
1
1
1
1
1
1
1
1
1
1
1
1
1
1
1
1
1
1
1
1
1
1
1
1
1
1
1
1
1
1
1
1
1
1
1
1
1
1
1
1
1
1
1
1
1
1
1
1
1
1
1
1
1
1
1
1
1
1
1
1
1
1
1
1
1
1
1
1
1
1
1
1
1
1
1
1
1
1
1
1
1
1
1
1
1
1
1
1
1
1
1
1
1
1
1
1
1
1
1
1
1
1
1
1
1
1
1
1
1
1
1
1
1
1
1
1
1
1
1
1
1
1
1
1
1
1
1
1
1
1
1
1
1
1
1
1
1
1
1
1
1
1
1
1
1
1
1
1
1
1
1
1
1
1
1
1
1
1
1
1
1
1
1
1
1
1
1
1
1
1
1
1
1
1
1
1
1
1
1
1
1
1
1
1
1
1
1
1
1
1
1
1
1
1
1
1
1
1
1
1
1
1
1
1
1
1
1
1
1
1
1
1
1
1
1
1
1
1
1
1
1
1
1
1
1
1
1
1
1
1
1
1
1
1
1
1
1
1
1
1
1
1
1
1
1
1
1
1
1
1
1
1
1
1
1
1
1
1
1
1
1
1
1
1
1
1
1
1
1
1
1
1
1
1
1
1
1
1
1
1
1
1
1
1
1
1
1
1
1
1
1
1
1
1
1
1
1
1
1
1
1
1
1
1
1
1
1
1
1
1
1
1
1
1
1
1
1
1
1
1
1
1
1
1
1
1
1
1
1
1
1
1
1
1
1
1
1
1
1
1
1
1
1
1
1
1
1
1
1
1
1
1
1
1
1
)
;

boundaryField
{
    leftWall
    {
        type            alphaContactAngle;
        contactAngleProperties 
        {
            mercury         
            {
                theta0          90;
            }
            water           
            {
                theta0          90;
            }
            oil             
            {
                theta0          90;
            }
        }
        value           nonuniform List<scalar> 
50
(
1.06249e-13
6.59071e-13
2.81047e-12
8.01346e-12
2.06348e-11
6.30266e-11
2.41854e-10
3.70433e-10
4.55967e-10
5.12015e-10
5.46525e-10
1.78192e-09
5.25784e-09
1.23678e-08
1.68811e-08
2.08577e-08
0.0700112
0.819349
0.999174
0.999681
0.999999
0.999999
1
1
1
1
1
1
1
1
1
1
1
1
1
1
1
1
1
1
1
1
1
1
1
1
1
1
1
1
)
;
    }
    rightWall
    {
        type            alphaContactAngle;
        contactAngleProperties 
        {
            mercury         
            {
                theta0          90;
            }
            water           
            {
                theta0          90;
            }
            oil             
            {
                theta0          90;
            }
        }
        value           nonuniform List<scalar> 
50
(
0.0136578
0.0152136
0.0341696
0.0634367
0.0567035
0.0572117
0.118551
0.135266
0.128397
0.308178
0.428769
0.429133
0.381366
0.961769
0.999999
0.999999
0.999999
1
0.999999
0.999998
0.999998
0.999998
0.999999
1
1
1
1
1
1
1
1
1
1
1
1
1
1
1
1
1
1
1
1
1
1
1
1
1
1
1
)
;
    }
    lowerWall
    {
        type            alphaContactAngle;
        contactAngleProperties 
        {
            mercury         
            {
                theta0          90;
            }
            water           
            {
                theta0          90;
            }
            oil             
            {
                theta0          90;
            }
        }
        value           nonuniform List<scalar> 
62
(
1.06249e-13
5.99644e-14
2.15722e-14
7.7164e-15
2.66663e-15
1.02506e-15
5.44354e-16
4.61979e-16
5.16006e-16
7.15928e-16
8.20762e-16
7.30556e-16
6.09034e-16
5.99438e-16
6.50278e-16
7.62969e-16
9.98449e-16
2.76486e-15
9.23734e-15
3.52445e-14
4.73489e-14
1.07779e-14
1.82088e-15
1.82088e-15
4.17884e-14
1.19759e-12
9.13031e-12
4.78077e-13
3.38389e-13
0.0854151
0.232248
0.205573
0.0145164
0.106663
0.104082
0.00239788
0.00382194
0.0115767
0.00686013
0.0392248
0.10297
0.10342
0.103191
0.00239788
6.91966e-10
6.57164e-09
0.00469248
0.0488916
0.0699604
0.0980014
0.09735
0.0782428
0.0636141
0.111563
0.178986
0.17704
0.128712
0.0723415
0.00798353
0.00796691
0.0118578
0.0136578
)
;
    }
    atmosphere
    {
        type            inletOutlet;
        inletValue      uniform 1;
        value           nonuniform List<scalar> 
46
(
1
1
1
1
1
1
1
1
1
1
1
1
1
1
1
1
1
1
1
1
1
1
1
1
1
1
1
1
1
1
1
1
1
1
1
1
1
1
1
1
1
1
1
1
1
1
)
;
    }
    defaultFaces
    {
        type            empty;
    }
}


// ************************************************************************* //
