/*--------------------------------*- C++ -*----------------------------------*\
  =========                 |
  \\      /  F ield         | OpenFOAM: The Open Source CFD Toolbox
   \\    /   O peration     | Website:  https://openfoam.org
    \\  /    A nd           | Version:  13
     \\/     M anipulation  |
\*---------------------------------------------------------------------------*/
FoamFile
{
    format      ascii;
    class       volScalarField;
    location    "1.25";
    object      epsilon;
}
// * * * * * * * * * * * * * * * * * * * * * * * * * * * * * * * * * * * * * //

dimensions      [0 2 -3 0 0 0 0];

internalField   nonuniform List<scalar> 
2268
(
0.0109475
0.0359637
0.0681864
0.0990807
0.126039
0.150706
0.175792
0.203703
0.237294
0.279527
0.327039
0.376818
0.425338
0.46874
0.503189
0.524882
0.529984
0.514484
0.474376
0.406542
0.308477
0.178955
0.0337318
0.0169162
0.0257458
0.0368472
0.047775
0.0583467
0.0695518
0.0827126
0.0990493
0.119651
0.144958
0.173212
0.202246
0.229691
0.253263
0.271046
0.281551
0.283623
0.276164
0.257884
0.227181
0.182306
0.123772
0.063293
0.0266617
0.0307224
0.0381509
0.0456386
0.0532762
0.0619539
0.0727984
0.0867876
0.104571
0.126123
0.150137
0.174754
0.197928
0.217762
0.232779
0.241954
0.244587
0.240038
0.227514
0.206025
0.174701
0.13487
0.110275
0.0360937
0.0373517
0.0436019
0.0500085
0.0566987
0.0645056
0.0744749
0.0874676
0.103955
0.123806
0.145918
0.168621
0.190085
0.208639
0.22301
0.232345
0.236082
0.233729
0.224726
0.208592
0.185423
0.157989
0.165118
0.0461461
0.0447743
0.0506778
0.0568565
0.0633392
0.0708649
0.0804313
0.0928437
0.108493
0.127234
0.148122
0.16964
0.190151
0.208177
0.222597
0.232645
0.237786
0.237564
0.231561
0.219801
0.203702
0.18885
0.235622
0.0584805
0.0533881
0.059043
0.0653618
0.0720532
0.0796268
0.0890116
0.101008
0.115988
0.133815
0.153707
0.174286
0.194114
0.211917
0.2267
0.237754
0.244524
0.246537
0.243439
0.235773
0.226828
0.227791
0.340043
0.0747921
0.0640688
0.068997
0.0755065
0.0826261
0.0904347
0.0997328
0.111358
0.125715
0.142683
0.161649
0.181368
0.200578
0.218217
0.233443
0.245601
0.254105
0.25839
0.258079
0.254116
0.252212
0.273609
0.508773
0.0965529
0.0779653
0.0810493
0.0874517
0.0950339
0.103182
0.112436
0.123675
0.137387
0.153467
0.171508
0.190369
0.20891
0.226138
0.241345
0.253954
0.263414
0.269203
0.27091
0.269609
0.272466
0.31221
0.798388
0.248679
0.430875
0.5866
0.736486
0.802913
0.790001
0.778236
0.810945
0.866999
0.897063
0.870013
0.714534
0.542201
0.475188
0.42142
0.322925
0.230593
0.16008
0.0832491
0.194327
0.312629
0.321797
0.333483
0.342406
0.342616
0.344434
0.353637
0.365797
0.370856
0.361227
0.326815
0.279273
0.243688
0.218151
0.187961
0.151268
0.113708
0.0953588
0.261808
0.25582
0.256934
0.263994
0.270646
0.273801
0.27702
0.281949
0.286243
0.286294
0.279301
0.26175
0.235953
0.211313
0.191063
0.170822
0.146586
0.12241
0.137908
0.323994
0.242222
0.235409
0.242905
0.25281
0.259097
0.262797
0.265545
0.266892
0.264799
0.258994
0.246446
0.226477
0.205199
0.186725
0.169632
0.149612
0.133077
0.177144
0.367604
0.242001
0.232781
0.239109
0.249785
0.257133
0.260417
0.261709
0.262228
0.260955
0.257749
0.247379
0.227475
0.206013
0.187758
0.171632
0.153976
0.143848
0.214563
0.39036
0.247135
0.238543
0.241879
0.250395
0.256161
0.257988
0.258202
0.258035
0.257775
0.257062
0.250231
0.231905
0.209529
0.190839
0.174822
0.158844
0.153279
0.242844
0.395816
0.25572
0.247225
0.245882
0.251912
0.255914
0.256676
0.256212
0.255659
0.254948
0.253797
0.248388
0.232769
0.211858
0.193615
0.177732
0.163227
0.160978
0.266555
0.405826
0.269089
0.253592
0.249616
0.25377
0.256295
0.256422
0.255809
0.255338
0.254596
0.25269
0.246269
0.231299
0.212354
0.194838
0.179246
0.166162
0.167007
0.290945
0.127278
0.0995442
0.0995667
0.105877
0.114505
0.123744
0.133532
0.144706
0.157852
0.172851
0.189365
0.20656
0.223473
0.239374
0.253686
0.265816
0.275298
0.281836
0.285312
0.286851
0.291792
0.31757
0.445667
0.188181
0.137288
0.132795
0.137994
0.14658
0.156417
0.166665
0.177437
0.189216
0.20219
0.21623
0.23098
0.245712
0.259807
0.272707
0.28393
0.293105
0.300065
0.305046
0.309336
0.315043
0.328026
0.368764
0.258064
0.177667
0.170167
0.174882
0.183082
0.192428
0.202085
0.211994
0.222454
0.233741
0.245871
0.258717
0.271704
0.284294
0.295923
0.306148
0.314612
0.321189
0.325921
0.329734
0.333
0.338143
0.352644
0.335428
0.221359
0.209819
0.213791
0.221469
0.230052
0.23885
0.24788
0.257268
0.26722
0.277784
0.288821
0.299968
0.310741
0.320517
0.328864
0.335273
0.339538
0.341381
0.34153
0.340873
0.340765
0.344511
0.423166
0.268792
0.250938
0.252727
0.259097
0.266567
0.274437
0.282703
0.291218
0.300035
0.309155
0.318216
0.327069
0.335255
0.34209
0.347186
0.350067
0.350709
0.349465
0.346871
0.343605
0.340643
0.340129
0.521107
0.319391
0.293313
0.291418
0.295421
0.301223
0.307903
0.315189
0.322593
0.329997
0.337208
0.343714
0.349537
0.354301
0.357493
0.359012
0.358811
0.357009
0.353865
0.349749
0.345213
0.341221
0.339402
0.626027
0.372993
0.337492
0.33023
0.330552
0.333824
0.338679
0.344295
0.349867
0.355161
0.359837
0.36344
0.366179
0.367864
0.368249
0.367338
0.365157
0.361849
0.357636
0.352855
0.348064
0.344178
0.342491
0.734846
0.432284
0.384802
0.369451
0.364002
0.36341
0.365522
0.368765
0.372142
0.375254
0.377658
0.37902
0.379505
0.379024
0.377489
0.374945
0.371494
0.36731
0.362638
0.357837
0.353477
0.350446
0.349828
0.851508
0.502669
0.43571
0.407053
0.394026
0.389051
0.388156
0.389094
0.390596
0.392006
0.392764
0.3926
0.391503
0.389552
0.386762
0.383233
0.379106
0.374592
0.369995
0.365716
0.362354
0.360856
0.362276
1.00778
0.596027
0.48296
0.439028
0.419685
0.410854
0.407243
0.406181
0.406158
0.406286
0.405932
0.404805
0.402825
0.400094
0.396748
0.392901
0.388726
0.384479
0.38053
0.377339
0.375629
0.376539
0.381079
1.28111
0.704032
0.518327
0.464821
0.441138
0.429088
0.423242
0.420618
0.419465
0.418803
0.417867
0.41631
0.414059
0.41118
0.407898
0.404428
0.400974
0.397769
0.395176
0.393736
0.394485
0.399283
0.409065
1.34811
0.693147
0.535962
0.485185
0.459011
0.444172
0.4367
0.433064
0.43091
0.429881
0.428878
0.427453
0.425463
0.423096
0.420559
0.418214
0.416481
0.415439
0.415138
0.415853
0.418694
0.426704
0.440433
1.25378
0.65249
0.533191
0.493436
0.467099
0.451174
0.442833
0.438796
0.437215
0.436969
0.437233
0.436773
0.435501
0.433855
0.432147
0.430567
0.429257
0.428345
0.428138
0.428241
0.429657
0.433244
0.438715
1.20883
0.596882
0.509346
0.481499
0.465147
0.454786
0.447337
0.443076
0.440858
0.439799
0.439318
0.438247
0.436823
0.435119
0.433117
0.430708
0.427822
0.424614
0.421573
0.418765
0.416803
0.416231
0.416032
1.12496
0.545244
0.473902
0.457639
0.451175
0.447204
0.443653
0.440805
0.439388
0.438118
0.436587
0.434387
0.431677
0.42864
0.425297
0.421694
0.417798
0.413692
0.409414
0.405066
0.400975
0.397093
0.392505
1.01791
0.49674
0.437204
0.429628
0.431182
0.433636
0.435044
0.435411
0.435049
0.434217
0.432462
0.429784
0.426505
0.422862
0.418935
0.414746
0.410236
0.405409
0.400279
0.394901
0.389293
0.383265
0.3763
0.88835
0.445731
0.399782
0.399218
0.407225
0.41553
0.421895
0.426011
0.428226
0.428832
0.42805
0.426083
0.423247
0.419807
0.415927
0.41162
0.406799
0.401469
0.39568
0.389448
0.382726
0.375381
0.367194
0.761353
0.392745
0.35986
0.36593
0.379362
0.392733
0.403729
0.411832
0.417235
0.420358
0.42158
0.421284
0.419748
0.417224
0.41393
0.409917
0.405142
0.399603
0.393384
0.386525
0.379014
0.370827
0.361923
0.639493
0.339829
0.317917
0.328887
0.346803
0.364447
0.379583
0.391567
0.400453
0.406582
0.410379
0.412276
0.412589
0.411565
0.409398
0.406138
0.401779
0.396374
0.390037
0.382853
0.374889
0.36622
0.35691
0.521285
0.287532
0.275263
0.28967
0.309999
0.330626
0.349094
0.364444
0.376593
0.385758
0.392294
0.396591
0.39899
0.399766
0.399079
0.396969
0.393448
0.388591
0.38254
0.375445
0.367442
0.358689
0.349311
0.412992
0.238286
0.233605
0.249972
0.271322
0.293069
0.313243
0.330917
0.34565
0.357434
0.366485
0.37311
0.377622
0.380263
0.381176
0.380432
0.378069
0.374166
0.368863
0.362343
0.3548
0.346438
0.337429
0.320601
0.194583
0.194996
0.211693
0.232624
0.254181
0.274692
0.293248
0.309376
0.322905
0.333875
0.342441
0.348803
0.35315
0.355626
0.356321
0.355296
0.352633
0.348472
0.342994
0.33641
0.328949
0.320798
0.249862
0.158407
0.161112
0.176685
0.195947
0.216093
0.23572
0.253987
0.270383
0.284639
0.296664
0.306487
0.31421
0.319951
0.323823
0.32591
0.326283
0.325029
0.322277
0.318196
0.312988
0.306872
0.30003
0.198613
0.129731
0.1328
0.14625
0.163016
0.180906
0.198703
0.215682
0.231351
0.245392
0.25763
0.268003
0.276523
0.283243
0.28823
0.291549
0.293264
0.293456
0.292236
0.289752
0.286179
0.281707
0.276494
0.161038
0.107226
0.109948
0.121088
0.135072
0.150211
0.165598
0.180627
0.194868
0.207976
0.219729
0.230014
0.238784
0.246037
0.251797
0.256097
0.258986
0.260525
0.260803
0.259937
0.258065
0.255339
0.251889
0.134134
0.089973
0.0919598
0.100912
0.112301
0.124788
0.137685
0.150517
0.162923
0.174621
0.1854
0.195119
0.203693
0.211078
0.217261
0.222247
0.226058
0.228733
0.230332
0.230938
0.23065
0.229579
0.227821
0.115528
0.0771316
0.0781592
0.0851618
0.0942892
0.104439
0.11507
0.125814
0.136386
0.146558
0.156152
0.165034
0.173108
0.180312
0.186608
0.191979
0.196421
0.19995
0.202594
0.204401
0.205433
0.205759
0.20544
0.103143
0.0678483
0.0678163
0.0731348
0.0803695
0.0885656
0.0972756
0.106208
0.115139
0.123888
0.132308
0.140283
0.147724
0.154562
0.160748
0.16625
0.171046
0.175127
0.178499
0.181179
0.183194
0.184582
0.185374
0.0952062
0.0612781
0.0601913
0.0640896
0.0697765
0.0763845
0.0835266
0.090962
0.0985111
0.106029
0.113394
0.12051
0.127295
0.133683
0.139621
0.145067
0.149987
0.154358
0.158164
0.161402
0.164074
0.166192
0.167767
0.0902737
0.0566549
0.0545976
0.0573265
0.0617683
0.0671051
0.0729879
0.0792105
0.085624
0.0921089
0.0985656
0.10491
0.111069
0.116982
0.122595
0.12786
0.132738
0.137193
0.1412
0.144738
0.147795
0.150365
0.152442
0.0872512
0.0533562
0.0504598
0.0522478
0.0557013
0.0600285
0.0649049
0.0701482
0.0756313
0.0812542
0.0869328
0.092594
0.0981734
0.103613
0.10886
0.113867
0.118588
0.122986
0.127023
0.130673
0.133912
0.136725
0.139101
0.0853695
0.0509314
0.0473425
0.0483878
0.0510635
0.0545915
0.0586626
0.0631113
0.0678271
0.0727247
0.0777323
0.0827865
0.0878296
0.0928083
0.0976722
0.102374
0.106868
0.111112
0.115068
0.118702
0.121985
0.124894
0.127428
0.0841322
0.049087
0.0449451
0.0454103
0.0474755
0.050369
0.0537918
0.0575907
0.0616673
0.0659481
0.0703714
0.0748824
0.0794299
0.0839655
0.0884425
0.0928155
0.0970407
0.101076
0.104882
0.108421
0.111663
0.114584
0.117176
0.0832445
0.0476501
0.0430748
0.0430865
0.0446694
0.0470548
0.0499508
0.0532126
0.0567517
0.0605034
0.0644148
0.0684383
0.0725295
0.0766453
0.0807436
0.084783
0.0887223
0.0925218
0.0961425
0.0995477
0.102703
0.105589
0.108185
0.0825428
0.046526
0.0416135
0.0412661
0.0424621
0.0444349
0.0468972
0.0497107
0.0527939
0.0560896
0.0595517
0.0631396
0.0668147
0.0705398
0.0742783
0.0779936
0.0816493
0.0852092
0.088637
0.0918962
0.0949563
0.097791
0.10037
0.0819392
0.0456636
0.0404884
0.0398506
0.0407296
0.0423612
0.0444619
0.046898
0.0495932
0.0524958
0.0555656
0.0587675
0.0620691
0.0654387
0.0688456
0.072259
0.0756485
0.0789831
0.0822312
0.0853592
0.0883383
0.0911334
0.0937063
0.0813776
0.0450319
0.0396511
0.0387726
0.0393861
0.0407315
0.0425283
0.044646
0.0470117
0.0495778
0.0523086
0.0551743
0.0581473
0.061202
0.0643133
0.0674571
0.0706096
0.073747
0.076844
0.0798748
0.0828084
0.0856046
0.0882135
0.0808094
0.044606
0.0390664
0.037987
0.0383754
0.0394783
0.0410206
0.0428731
0.0449639
0.0472467
0.049688
0.0522658
0.0549564
0.0577404
0.0605982
0.0635116
0.0664647
0.0694422
0.0724288
0.0754077
0.0783519
0.0812198
0.0839469
0.0801764
0.0443783
0.0387413
0.0375175
0.0377117
0.0385973
0.039931
0.0415755
0.0434498
0.0454981
0.0476788
0.0500048
0.0524471
0.0550027
0.0576517
0.0603787
0.0631743
0.0660334
0.068954
0.0719333
0.0749602
0.0780042
0.0809926
0.0797094
0.0447536
0.039173
0.0379594
0.0378813
0.0384275
0.039583
0.0411036
0.0428409
0.0446752
0.0464824
0.0485152
0.0506337
0.0529705
0.0554505
0.0580355
0.0607164
0.0634975
0.0663923
0.0694211
0.0726076
0.0759676
0.0794642
0.104673
0.054236
0.0457221
0.0440848
0.0425781
0.0415777
0.0424171
0.0439243
0.045606
0.0470562
0.0475413
0.0488815
0.049722
0.0516671
0.0539897
0.0564737
0.0590802
0.0618172
0.0647133
0.0678193
0.0712176
0.0750416
0.0794529
1.28204
0.138521
0.0805127
0.0736476
0.0685376
0.0627275
0.0624002
0.0633897
0.0644906
0.064638
0.0598301
0.0591952
0.0504319
0.0511511
0.0532736
0.0556931
0.0582618
0.060979
0.0638826
0.067047
0.0706188
0.0749158
0.0806214
1.03328
0.689139
0.499015
0.47682
0.452562
0.446588
0.422838
0.418043
0.374938
0.383371
0.383781
0.380589
0.352033
0.356876
0.359991
0.360545
0.342952
0.345547
0.348268
0.350488
0.340709
0.342391
0.344693
0.347346
0.343597
0.345109
0.347367
0.350273
0.351598
0.3535
0.356161
0.35956
0.365801
0.368836
0.372545
0.37692
0.387219
0.392161
0.397979
0.404464
0.41887
0.426632
0.435143
0.44321
0.450906
0.455101
0.457493
0.459686
0.441543
0.441872
0.440551
0.437863
0.41335
0.410244
0.406083
0.401283
0.38695
0.382786
0.378166
0.373213
0.369644
0.365153
0.360477
0.355688
0.360039
0.355393
0.350692
0.345991
0.354461
0.349683
0.344899
0.340161
0.349273
0.344398
0.33953
0.334713
0.341713
0.336856
0.331999
0.32718
0.330184
0.325535
0.320872
0.316225
0.314262
0.310045
0.305792
0.301536
0.294523
0.290939
0.287301
0.283635
0.272229
0.269416
0.266527
0.263588
0.248942
0.246943
0.24485
0.242682
0.226116
0.224895
0.223567
0.222145
0.204794
0.204254
0.203598
0.202844
0.185555
0.18556
0.185456
0.185251
0.168547
0.168962
0.169268
0.169469
0.153633
0.154326
0.154914
0.155398
0.140544
0.141411
0.14218
0.14285
0.129012
0.129979
0.130856
0.131641
0.118829
0.119848
0.120784
0.121634
0.109865
0.110906
0.11187
0.112755
0.102059
0.103108
0.104085
0.104988
0.0954075
0.0964646
0.0974528
0.0983683
0.0899534
0.0910333
0.0920435
0.0929787
0.0857844
0.0869212
0.0879804
0.0889543
0.0830439
0.084304
0.0854638
0.0865102
0.0819722
0.0834867
0.0848411
0.0860083
0.0829838
0.0850098
0.086763
0.0881005
0.0863691
0.0892253
0.0924902
0.0939849
0.340838
0.28552
0.261001
0.255969
0.257721
0.258532
0.258261
0.257862
0.257754
0.257248
0.254659
0.247042
0.232442
0.214593
0.196938
0.180752
0.168368
0.172318
0.318658
0.347299
0.299866
0.276391
0.269444
0.268197
0.267765
0.267511
0.267768
0.268535
0.268925
0.266644
0.258708
0.244192
0.226239
0.206926
0.187104
0.169462
0.167874
0.303596
0.355549
0.32055
0.298266
0.288254
0.283764
0.281795
0.281381
0.282203
0.284054
0.285954
0.285462
0.2794
0.26635
0.248085
0.225631
0.198774
0.169937
0.15376
0.228454
0.354945
0.336677
0.32027
0.309974
0.303795
0.300488
0.29944
0.300329
0.303048
0.306799
0.309852
0.308639
0.298728
0.279201
0.24934
0.210029
0.167648
0.140011
0.168777
0.352227
0.346531
0.338097
0.331034
0.32598
0.323057
0.322207
0.323507
0.327262
0.332942
0.341718
0.350077
0.343367
0.315325
0.270058
0.21532
0.162452
0.128253
0.132256
0.351699
0.353658
0.352454
0.35035
0.34871
0.34839
0.34984
0.353179
0.359718
0.367388
0.384729
0.417694
0.407441
0.354404
0.284459
0.220531
0.169781
0.141612
0.164153
0.355813
0.362255
0.366673
0.370007
0.373592
0.378143
0.384731
0.392173
0.405749
0.416754
0.420945
0.432502
0.405645
0.345515
0.293754
0.233889
0.190465
0.173068
0.23594
0.366183
0.375867
0.385176
0.394681
0.405578
0.417499
0.432447
0.442758
0.445154
0.429482
0.39935
0.381685
0.359644
0.328782
0.29051
0.242057
0.209012
0.209789
0.310025
0.385256
0.399072
0.414411
0.431808
0.450914
0.466973
0.481523
0.470914
0.428752
0.390483
0.361451
0.345908
0.331009
0.307889
0.275679
0.242307
0.223205
0.231759
0.348028
0.416336
0.436995
0.4586
0.477737
0.490195
0.488722
0.467982
0.430278
0.387754
0.354509
0.332867
0.32383
0.316939
0.298357
0.269557
0.24382
0.232008
0.243165
0.369346
0.455909
0.473942
0.481902
0.486822
0.475183
0.448563
0.415889
0.38125
0.349378
0.325347
0.311313
0.3074
0.303987
0.287969
0.264108
0.244282
0.236586
0.249387
0.387688
0.464117
0.468265
0.458807
0.443305
0.421214
0.394424
0.36702
0.341426
0.319498
0.303393
0.294697
0.292167
0.288038
0.274815
0.256952
0.242793
0.237931
0.2532
0.403444
0.432789
0.423718
0.409701
0.392163
0.371999
0.351186
0.331388
0.313566
0.298635
0.287739
0.281481
0.278111
0.272748
0.261994
0.248969
0.238962
0.236807
0.255537
0.418185
0.393656
0.382173
0.368617
0.353676
0.338149
0.322935
0.30872
0.295937
0.285093
0.276736
0.270851
0.266005
0.259599
0.250425
0.240598
0.23373
0.234373
0.257147
0.433026
0.365461
0.354162
0.342307
0.330149
0.318046
0.306368
0.295368
0.285238
0.276239
0.268577
0.262055
0.25578
0.248591
0.240333
0.232678
0.22823
0.23157
0.258464
0.448105
0.348361
0.33791
0.327437
0.317021
0.306793
0.296868
0.287314
0.278207
0.269668
0.261765
0.254341
0.246977
0.239322
0.231767
0.225628
0.223112
0.228896
0.259676
0.463099
0.33889
0.328929
0.319113
0.309437
0.299924
0.290582
0.281408
0.272428
0.263706
0.255283
0.247112
0.2391
0.231361
0.224441
0.21947
0.218551
0.226492
0.26088
0.477958
0.333001
0.323055
0.31331
0.303715
0.294254
0.284895
0.275617
0.266433
0.257392
0.248555
0.239978
0.231793
0.224264
0.217972
0.214008
0.214445
0.224264
0.262126
0.492629
0.327363
0.317198
0.307256
0.297481
0.287844
0.278309
0.268856
0.259501
0.250297
0.241341
0.23277
0.224759
0.217646
0.212034
0.208988
0.210587
0.221945
0.262422
0.50423
0.31972
0.30941
0.299336
0.289452
0.279736
0.270161
0.260715
0.251424
0.242367
0.233639
0.225373
0.217791
0.211255
0.206362
0.204166
0.206708
0.219169
0.261488
0.51171
0.308901
0.29877
0.288869
0.279173
0.269673
0.260352
0.251227
0.242335
0.233719
0.225474
0.217748
0.210772
0.204923
0.20077
0.199309
0.20256
0.215747
0.259147
0.51458
0.29469
0.285193
0.275888
0.266774
0.257855
0.249164
0.240692
0.232453
0.224497
0.216935
0.209921
0.203674
0.19854
0.195065
0.19421
0.197965
0.211537
0.255299
0.512614
0.277608
0.269196
0.260903
0.252753
0.244801
0.237023
0.229427
0.222039
0.214918
0.208166
0.20193
0.196426
0.191978
0.189103
0.18873
0.192798
0.206446
0.249897
0.505789
0.258637
0.25165
0.244699
0.237844
0.231073
0.224386
0.2178
0.211359
0.205132
0.19922
0.193769
0.188981
0.18516
0.182796
0.182777
0.186982
0.200425
0.242949
0.494241
0.238946
0.233594
0.228175
0.222695
0.217167
0.211612
0.206067
0.200587
0.195251
0.19016
0.185452
0.181321
0.178049
0.176097
0.176307
0.180483
0.19347
0.234512
0.478256
0.219623
0.215901
0.211947
0.207787
0.203455
0.198989
0.19444
0.189874
0.185373
0.181039
0.177005
0.173448
0.170634
0.168991
0.169313
0.173313
0.185623
0.224694
0.45824
0.201433
0.199124
0.196457
0.193471
0.19021
0.186725
0.183074
0.179329
0.175573
0.171907
0.168455
0.165383
0.162932
0.1615
0.161826
0.165521
0.176965
0.213652
0.434734
0.184737
0.183567
0.181958
0.179952
0.177596
0.174946
0.172065
0.169024
0.165906
0.162806
0.15984
0.157158
0.154982
0.153672
0.15391
0.157195
0.167624
0.201596
0.40837
0.169628
0.169325
0.168538
0.167308
0.165681
0.163713
0.161465
0.159006
0.156414
0.153778
0.151203
0.148827
0.146845
0.145584
0.145664
0.148462
0.157768
0.188784
0.379914
0.156032
0.156356
0.15618
0.155541
0.154481
0.153049
0.151304
0.14931
0.147139
0.144873
0.142606
0.14046
0.138609
0.137342
0.137216
0.139482
0.147606
0.175527
0.350204
0.143803
0.144562
0.144825
0.144621
0.143987
0.142966
0.14161
0.139978
0.138136
0.136158
0.134128
0.132153
0.130385
0.129079
0.128728
0.130453
0.13739
0.16219
0.320219
0.132795
0.133847
0.134416
0.134524
0.134201
0.133485
0.132422
0.131066
0.129475
0.127717
0.125868
0.124022
0.122311
0.120957
0.120391
0.121608
0.127414
0.149193
0.290995
0.122909
0.12415
0.124925
0.12525
0.125148
0.124652
0.123804
0.122652
0.12125
0.119661
0.117953
0.11621
0.11455
0.113164
0.112428
0.113215
0.118018
0.13702
0.263718
0.114097
0.115456
0.116365
0.116833
0.11688
0.116537
0.115841
0.114838
0.11358
0.112124
0.110534
0.108888
0.107292
0.105918
0.105093
0.105582
0.109589
0.126211
0.239692
0.106367
0.107797
0.108786
0.109341
0.109482
0.109238
0.108647
0.107753
0.106607
0.105263
0.103784
0.102246
0.100751
0.099459
0.0986664
0.0990498
0.102562
0.117385
0.220299
0.0997721
0.101243
0.102273
0.102872
0.103062
0.102877
0.102357
0.101547
0.100496
0.0992594
0.0979006
0.096498
0.0951582
0.0940445
0.0934457
0.0939849
0.0974349
0.111284
0.206813
0.0944108
0.0959058
0.0969454
0.097551
0.0977564
0.097602
0.0971323
0.0963942
0.0954376
0.0943179
0.093101
0.0918723
0.0907531
0.0899309
0.0897245
0.090776
0.0947731
0.108732
0.200836
0.0904328
0.0919397
0.0929584
0.0935375
0.0937302
0.0935886
0.0931621
0.0924992
0.0916493
0.0906676
0.0896227
0.0886093
0.0877724
0.08735
0.0877566
0.0897645
0.0951652
0.110879
0.204732
0.0880632
0.0895595
0.090517
0.0910346
0.0911933
0.0910575
0.0906803
0.0901087
0.0893894
0.0885746
0.0877325
0.0869637
0.0864357
0.086468
0.0876598
0.091127
0.0992151
0.1196
0.223355
0.0876511
0.0890712
0.0899015
0.0903167
0.0904263
0.0903011
0.0899915
0.0895386
0.0889817
0.0883655
0.0877488
0.0872175
0.08692
0.0872986
0.0892761
0.0946658
0.107317
0.138186
0.268822
0.0897493
0.0909156
0.0915099
0.0917767
0.0918309
0.0917326
0.0915195
0.0912202
0.0908614
0.0904734
0.090089
0.0897149
0.0892361
0.0895113
0.0919556
0.0994563
0.11899
0.171984
0.379756
0.0951761
0.0957125
0.095927
0.0960084
0.0960147
0.0959701
0.095888
0.0957789
0.0956527
0.0955191
0.0953701
0.0950105
0.0925896
0.0919384
0.0942916
0.103422
0.130675
0.221828
0.660277
)
;

boundaryField
{
    leftWall
    {
        type            epsilonWallFunction;
        value           nonuniform List<scalar> 
50
(
0.0109475
0.0169162
0.0266617
0.0360937
0.0461461
0.0584805
0.0747921
0.0965529
0.127278
0.188181
0.258064
0.335428
0.423166
0.521107
0.626027
0.734846
0.851508
1.00778
1.28111
1.34811
1.25378
1.20883
1.12496
1.01791
0.88835
0.761353
0.639493
0.521285
0.412992
0.320601
0.249862
0.198613
0.161038
0.134134
0.115528
0.103143
0.0952062
0.0902737
0.0872512
0.0853695
0.0841322
0.0832445
0.0825428
0.0819392
0.0813776
0.0808094
0.0801764
0.0797094
0.104673
1.28204
)
;
    }
    rightWall
    {
        type            epsilonWallFunction;
        value           nonuniform List<scalar> 
50
(
0.0832491
0.0953588
0.137908
0.177144
0.214563
0.242844
0.266555
0.290945
0.318658
0.303596
0.228454
0.168777
0.132256
0.164153
0.23594
0.310025
0.348028
0.369346
0.387688
0.403444
0.418185
0.433026
0.448105
0.463099
0.477958
0.492629
0.50423
0.51171
0.51458
0.512614
0.505789
0.494241
0.478256
0.45824
0.434734
0.40837
0.379914
0.350204
0.320219
0.290995
0.263718
0.239692
0.220299
0.206813
0.200836
0.204732
0.223355
0.268822
0.379756
0.660277
)
;
    }
    lowerWall
    {
        type            epsilonWallFunction;
        value           nonuniform List<scalar> 
62
(
0.0109475
0.0359637
0.0681864
0.0990807
0.126039
0.150706
0.175792
0.203703
0.237294
0.279527
0.327039
0.376818
0.425338
0.46874
0.503189
0.524882
0.529984
0.514484
0.474376
0.406542
0.308477
0.178955
0.0337318
0.0337318
0.063293
0.110275
0.165118
0.235622
0.340043
0.508773
0.798388
1.03328
0.689139
0.499015
0.47682
0.248679
0.194327
0.261808
0.323994
0.367604
0.39036
0.395816
0.405826
0.248679
0.430875
0.5866
0.736486
0.802913
0.790001
0.778236
0.810945
0.866999
0.897063
0.870013
0.714534
0.542201
0.475188
0.42142
0.322925
0.230593
0.16008
0.0832491
)
;
    }
    atmosphere
    {
        type            inletOutlet;
        inletValue      uniform 0.1;
        value           nonuniform List<scalar> 
46
(
0.1
0.1
0.1
0.1
0.1
0.1
0.1
0.1
0.1
0.1
0.1
0.1
0.0504319
0.0511511
0.0532736
0.0556931
0.0582618
0.060979
0.0638826
0.067047
0.0706188
0.0749158
0.0806214
0.0863691
0.0892253
0.1
0.1
0.1
0.1
0.1
0.1
0.1
0.1
0.1
0.1
0.1
0.1
0.1
0.1
0.0925896
0.0919384
0.0942916
0.103422
0.130675
0.221828
0.660277
)
;
    }
    defaultFaces
    {
        type            empty;
    }
}


// ************************************************************************* //
