/*--------------------------------*- C++ -*----------------------------------*\
  =========                 |
  \\      /  F ield         | OpenFOAM: The Open Source CFD Toolbox
   \\    /   O peration     | Website:  https://openfoam.org
    \\  /    A nd           | Version:  13
     \\/     M anipulation  |
\*---------------------------------------------------------------------------*/
FoamFile
{
    format      ascii;
    class       volScalarField;
    location    "1.25";
    object      k;
}
// * * * * * * * * * * * * * * * * * * * * * * * * * * * * * * * * * * * * * //

dimensions      [0 2 -2 0 0 0 0];

internalField   nonuniform List<scalar> 
2268
(
0.00186971
0.00417579
0.00642114
0.00824664
0.00967663
0.0108802
0.0120211
0.0132142
0.0145607
0.0161788
0.0179281
0.0196843
0.0213345
0.0227697
0.0238892
0.0245947
0.0247807
0.0243221
0.023066
0.0208339
0.0173559
0.0120944
0.00396584
0.00413236
0.0097778
0.0142404
0.0178268
0.0207138
0.0232523
0.0257989
0.0285996
0.0317789
0.0353574
0.0392056
0.043098
0.0467842
0.0500183
0.0525753
0.0542415
0.0547919
0.053966
0.0514494
0.0468656
0.0396548
0.0287069
0.00998525
0.00560062
0.0132158
0.0189586
0.0235276
0.0272289
0.0305032
0.0337952
0.0374158
0.0415169
0.0461051
0.0510139
0.0559521
0.0606059
0.0646732
0.067882
0.0699805
0.0707082
0.0697655
0.0667851
0.0613007
0.0525878
0.0391272
0.014488
0.00686345
0.0161464
0.023055
0.0284395
0.0327819
0.0366091
0.0404278
0.044591
0.0492691
0.0544712
0.0600239
0.0656028
0.0708623
0.0754731
0.0791385
0.0815848
0.0825295
0.0816486
0.0785441
0.0727079
0.0633199
0.0484025
0.0189818
0.00810202
0.0189833
0.0270607
0.0332333
0.0381746
0.0424843
0.046721
0.0512739
0.0563326
0.0619166
0.0678692
0.0738542
0.0795155
0.0845173
0.0885537
0.0913379
0.0925666
0.0918922
0.0888923
0.0830456
0.0734973
0.0577769
0.0240578
0.00950838
0.0219445
0.0311574
0.0381079
0.0436515
0.0484226
0.0530158
0.0578597
0.0631689
0.068976
0.0751586
0.0813838
0.0873038
0.0925944
0.0969514
0.10008
0.101659
0.101316
0.098605
0.093014
0.0837521
0.0679618
0.0306737
0.0112224
0.0251856
0.0354734
0.0431916
0.0493493
0.054573
0.0594765
0.0645362
0.0700009
0.0759152
0.0822044
0.0885475
0.0946124
0.100099
0.104722
0.108185
0.110152
0.110223
0.107921
0.102753
0.0941481
0.0793024
0.0400309
0.0133258
0.028925
0.0401477
0.048576
0.055339
0.0610113
0.0661922
0.0714069
0.0769509
0.0828785
0.0891824
0.0955509
0.101662
0.107215
0.111944
0.115568
0.117757
0.118122
0.116176
0.111444
0.103569
0.0905354
0.0540703
0.015236
0.021977
0.0270706
0.0313203
0.0329268
0.0325145
0.0323007
0.0333298
0.0347778
0.0354597
0.0346129
0.0302416
0.0252588
0.0231596
0.0212732
0.0177416
0.0141607
0.0111256
0.00725905
0.0225914
0.0406143
0.0525351
0.0594438
0.0630645
0.0642664
0.0655989
0.0676476
0.0694901
0.0700647
0.0685774
0.063683
0.0564388
0.0516899
0.0469675
0.040073
0.032701
0.0252322
0.0139901
0.0273103
0.0485453
0.0623859
0.0720394
0.0777636
0.080728
0.0831059
0.0853788
0.0868857
0.0868956
0.0848539
0.07988
0.0729799
0.0667576
0.0603995
0.0525855
0.0437462
0.0338519
0.0178489
0.0314371
0.0559873
0.0698606
0.0808513
0.0884557
0.0930593
0.0961768
0.0984467
0.0996449
0.0991799
0.0968708
0.0918863
0.084753
0.0774565
0.0700271
0.0616394
0.0517852
0.0405289
0.0210552
0.0342083
0.0618599
0.0766969
0.0883418
0.0970846
0.102751
0.106269
0.10848
0.109589
0.109194
0.107158
0.102169
0.0942677
0.0858568
0.0774966
0.0685094
0.0578723
0.0455776
0.023928
0.0356233
0.0663531
0.0828892
0.0948248
0.103955
0.109958
0.113531
0.11566
0.116633
0.116386
0.114724
0.110245
0.102183
0.0928152
0.083601
0.0739238
0.0626752
0.0495002
0.0259988
0.0359513
0.0701954
0.0883262
0.100223
0.10955
0.11571
0.119348
0.121429
0.122308
0.121868
0.119947
0.115601
0.107795
0.0981836
0.0884503
0.0781485
0.0664529
0.0525865
0.0276698
0.0364966
0.0743505
0.0925591
0.10475
0.114297
0.120571
0.124309
0.126438
0.127321
0.126793
0.12455
0.11976
0.111778
0.102152
0.0920474
0.0812525
0.0692289
0.0549929
0.0293733
0.0160426
0.0345549
0.0469568
0.0564468
0.0642158
0.0707335
0.0765089
0.082106
0.0878777
0.0938785
0.100093
0.106318
0.112263
0.117677
0.122316
0.125887
0.128086
0.128592
0.127011
0.122959
0.116083
0.105097
0.0836097
0.020821
0.0442213
0.0583877
0.0688639
0.0773642
0.0846031
0.0909775
0.0968734
0.102633
0.108416
0.114233
0.120029
0.125578
0.130655
0.135016
0.138398
0.140532
0.141154
0.139999
0.136883
0.131218
0.121855
0.107191
0.0256982
0.0544489
0.0708131
0.0824306
0.0915245
0.0990885
0.105659
0.111626
0.117294
0.122854
0.128356
0.133798
0.138997
0.143752
0.147818
0.150959
0.152924
0.153496
0.152419
0.14956
0.144352
0.136163
0.124711
0.0305991
0.0644578
0.0831655
0.0960909
0.105886
0.113775
0.120483
0.126493
0.13209
0.137461
0.142676
0.147722
0.152485
0.156786
0.160372
0.163032
0.164502
0.164587
0.163042
0.159819
0.154833
0.147873
0.139208
0.0356845
0.0745818
0.0953398
0.109357
0.119752
0.127939
0.134799
0.140885
0.146443
0.151643
0.156565
0.161131
0.165303
0.168923
0.171736
0.173568
0.174207
0.173547
0.171602
0.168395
0.163979
0.158457
0.152417
0.0409208
0.0850333
0.107522
0.12231
0.133063
0.141418
0.148358
0.154448
0.159886
0.16482
0.1693
0.17322
0.176596
0.179314
0.181184
0.182136
0.18211
0.181093
0.179121
0.176266
0.172674
0.168647
0.164849
0.0461668
0.0959228
0.119947
0.135104
0.145868
0.154139
0.160957
0.166836
0.171942
0.176417
0.180286
0.183465
0.186041
0.187963
0.189143
0.189561
0.189205
0.188105
0.18633
0.184002
0.181335
0.178705
0.176707
0.0513676
0.107487
0.132827
0.147718
0.157918
0.165703
0.172118
0.177576
0.182242
0.186241
0.189582
0.19222
0.194242
0.195648
0.19641
0.196538
0.196064
0.195054
0.19361
0.191893
0.190153
0.188778
0.188263
0.0568779
0.12043
0.145807
0.159319
0.168502
0.175654
0.181594
0.186651
0.190973
0.194639
0.197637
0.199961
0.201644
0.202757
0.203315
0.203355
0.202937
0.202154
0.201144
0.200092
0.199265
0.199061
0.199919
0.0642203
0.136434
0.157085
0.168792
0.177264
0.183936
0.189489
0.194237
0.198316
0.201775
0.204597
0.206783
0.208354
0.209383
0.209947
0.2101
0.209919
0.209515
0.209052
0.208735
0.208861
0.209866
0.212135
0.0757764
0.152394
0.164569
0.175938
0.184235
0.19061
0.195908
0.200465
0.204408
0.207801
0.210604
0.212814
0.214462
0.215608
0.216361
0.216822
0.217085
0.217257
0.217492
0.218016
0.219202
0.221673
0.225754
0.076128
0.146882
0.16747
0.181083
0.18964
0.195813
0.201004
0.20551
0.20935
0.21279
0.215721
0.218116
0.219992
0.221449
0.222586
0.223558
0.224524
0.225551
0.22669
0.228078
0.230085
0.233654
0.238935
0.0715966
0.139852
0.166874
0.183118
0.192036
0.198267
0.203485
0.208084
0.212245
0.216048
0.219475
0.222281
0.224499
0.226306
0.227838
0.229188
0.230432
0.231634
0.232921
0.234213
0.235836
0.238078
0.240834
0.0700188
0.133833
0.163858
0.181402
0.192119
0.199555
0.205037
0.209705
0.21385
0.217578
0.220931
0.223675
0.225946
0.227826
0.229353
0.230526
0.231355
0.2319
0.23234
0.232717
0.233243
0.234113
0.235011
0.0671339
0.129084
0.158646
0.176867
0.188948
0.197504
0.203812
0.208832
0.213275
0.217066
0.220246
0.222776
0.224763
0.226315
0.22748
0.228303
0.228812
0.229059
0.22908
0.228924
0.228716
0.228458
0.227856
0.0631364
0.123443
0.151905
0.170377
0.183442
0.193114
0.20049
0.206322
0.211093
0.21509
0.218297
0.220775
0.222669
0.224096
0.225122
0.225792
0.226124
0.226146
0.225887
0.225384
0.224661
0.223668
0.222229
0.0579163
0.115978
0.143615
0.162168
0.175999
0.186719
0.195181
0.201948
0.207431
0.211872
0.215416
0.21817
0.220267
0.221826
0.222931
0.223626
0.223915
0.223823
0.22339
0.22264
0.221575
0.22016
0.218315
0.0523668
0.10679
0.133568
0.152241
0.166704
0.178342
0.187824
0.195574
0.201905
0.207062
0.211216
0.214514
0.217067
0.218982
0.220352
0.221226
0.221613
0.221534
0.221037
0.220153
0.218895
0.21726
0.215231
0.0467248
0.096583
0.122088
0.140534
0.155469
0.167867
0.178256
0.186952
0.194195
0.200186
0.205095
0.209074
0.212237
0.214678
0.216482
0.217682
0.218294
0.218352
0.217913
0.217018
0.215704
0.214001
0.211931
0.040858
0.085749
0.109724
0.127617
0.142524
0.155383
0.166486
0.175993
0.184081
0.190901
0.196597
0.201302
0.205128
0.208175
0.210505
0.212143
0.213105
0.213431
0.21318
0.212414
0.211189
0.209563
0.20758
0.035041
0.0748568
0.0970446
0.1141
0.128661
0.141498
0.152882
0.162926
0.171674
0.179204
0.185613
0.191009
0.195495
0.199151
0.202026
0.204151
0.205548
0.206255
0.206329
0.20584
0.204861
0.203465
0.201712
0.0296224
0.064496
0.0847146
0.100649
0.114536
0.127025
0.13833
0.148511
0.157584
0.165574
0.172522
0.17849
0.183543
0.187741
0.191133
0.193751
0.195624
0.196787
0.197295
0.197218
0.196632
0.195619
0.194245
0.0250646
0.055122
0.0733549
0.087963
0.100892
0.112716
0.123607
0.133597
0.142675
0.150827
0.158057
0.164386
0.169848
0.174484
0.178328
0.181413
0.183767
0.185426
0.186439
0.186873
0.1868
0.186299
0.185436
0.0214895
0.047279
0.0634759
0.0766405
0.0884352
0.0993673
0.109565
0.119065
0.127847
0.135877
0.14313
0.149599
0.155293
0.16023
0.164433
0.167926
0.170734
0.17289
0.174438
0.175436
0.175948
0.176044
0.175783
0.0186657
0.0410405
0.0554416
0.0672163
0.0777994
0.087668
0.0969802
0.105772
0.114031
0.121706
0.128755
0.135156
0.140901
0.145992
0.150437
0.15425
0.157451
0.160066
0.162131
0.163692
0.164803
0.165519
0.16589
0.0165045
0.0362959
0.0492012
0.0597544
0.0692289
0.0780722
0.0864583
0.0944413
0.102018
0.10916
0.115828
0.121992
0.127631
0.132733
0.137297
0.141325
0.144829
0.147826
0.150342
0.152411
0.154071
0.155366
0.156331
0.0149232
0.0328559
0.0445724
0.0541157
0.0626469
0.0705895
0.0781249
0.0853257
0.0922085
0.0987612
0.104959
0.110776
0.11619
0.121183
0.125746
0.129876
0.133573
0.136847
0.139713
0.14219
0.144304
0.146081
0.147543
0.0138234
0.0304819
0.0412851
0.0500258
0.057794
0.0649946
0.0718117
0.0783308
0.0845851
0.0905793
0.0963027
0.101738
0.106868
0.111677
0.116151
0.120282
0.124066
0.127504
0.130599
0.13336
0.135799
0.13793
0.139762
0.0130961
0.02892
0.0390338
0.047149
0.0543164
0.060928
0.0671681
0.0731296
0.078857
0.0843676
0.0896625
0.0947342
0.0995714
0.104161
0.108492
0.112552
0.116334
0.119832
0.123043
0.125965
0.128601
0.130954
0.133024
0.0126352
0.0279325
0.0375263
0.0451553
0.0518526
0.0580024
0.0637881
0.0693063
0.0746086
0.0797202
0.0846509
0.0894006
0.0939635
0.0983307
0.102492
0.106436
0.110153
0.113632
0.116865
0.119846
0.122569
0.125029
0.12722
0.0123502
0.0273214
0.0365175
0.0437646
0.0500908
0.055876
0.0613025
0.0664687
0.0714299
0.0762166
0.0808437
0.0853164
0.0896332
0.0937882
0.0977727
0.101576
0.105188
0.108594
0.111785
0.114749
0.117475
0.119955
0.12218
0.0121725
0.0269385
0.035823
0.0427644
0.0487922
0.0542841
0.0594211
0.0643024
0.0689855
0.0735039
0.077876
0.0821099
0.0862073
0.0901645
0.0939742
0.0976267
0.10111
0.104411
0.107516
0.110412
0.113085
0.115524
0.117722
0.0120561
0.0266839
0.0353165
0.0420074
0.0477898
0.0530396
0.0579371
0.0625815
0.0670316
0.0713226
0.0754751
0.0794995
0.0833991
0.087172
0.0908123
0.0943105
0.097655
0.100832
0.103827
0.106625
0.10921
0.111572
0.113701
0.0119726
0.0264961
0.0349189
0.0413994
0.046975
0.05202
0.0567139
0.0611558
0.0654051
0.0694983
0.0734572
0.0772937
0.0810126
0.0846131
0.0880904
0.0914356
0.0946376
0.0976825
0.100555
0.103239
0.105719
0.107985
0.110023
0.0119063
0.0263407
0.0345844
0.0408848
0.0462824
0.0511505
0.0556676
0.0599328
0.0640057
0.0679234
0.0717088
0.0753748
0.0789272
0.0823664
0.0856883
0.0888852
0.0919464
0.0948583
0.0976057
0.100172
0.102542
0.104703
0.106642
0.0118485
0.0261995
0.0342886
0.0404332
0.0456759
0.0503895
0.0547518
0.0588614
0.062778
0.0665392
0.0701683
0.0736793
0.0770788
0.0803682
0.0835444
0.0866007
0.089527
0.0923109
0.0949374
0.0973899
0.0996538
0.101713
0.103554
0.0117936
0.0260625
0.0340197
0.0400313
0.0451404
0.0497196
0.0539468
0.0579204
0.0616997
0.0653222
0.0688115
0.0721829
0.0754437
0.0785964
0.0816388
0.0845653
0.0873669
0.0900323
0.0925474
0.0948973
0.097066
0.0990361
0.100791
0.0117369
0.0259239
0.0337791
0.0396882
0.0446859
0.0491486
0.0532604
0.0571189
0.0607811
0.0642822
0.0676454
0.0708907
0.0740264
0.0770567
0.0799799
0.0827906
0.0854812
0.0880415
0.0904597
0.0927225
0.0948139
0.0967159
0.0984085
0.0116736
0.0258014
0.0336465
0.0395274
0.0444267
0.0487658
0.0527759
0.0565437
0.0601116
0.0635015
0.0667292
0.0698466
0.0728563
0.0757741
0.0785934
0.0813053
0.0839017
0.086374
0.0887128
0.0909079
0.0929466
0.0948129
0.0964842
0.0116497
0.0260878
0.0344247
0.0404792
0.0451047
0.0490935
0.0529547
0.0566503
0.0601381
0.0633754
0.0663208
0.0692249
0.0720074
0.0747899
0.0775149
0.0801461
0.0826679
0.0850715
0.0873507
0.0895001
0.0915159
0.0933929
0.0951151
0.0146627
0.0324359
0.042433
0.0481011
0.050832
0.0529521
0.0562428
0.0597324
0.0630073
0.0657812
0.0676259
0.0698999
0.071693
0.0741665
0.0767824
0.0793498
0.0818185
0.0841749
0.0864145
0.0885397
0.0905613
0.0925046
0.0944008
0.0785168
0.076502
0.0771463
0.0777086
0.0756389
0.0724892
0.0735781
0.0756114
0.077552
0.0786477
0.0765711
0.0770321
0.0724183
0.073967
0.0764246
0.0789453
0.0813849
0.0837162
0.0859351
0.088049
0.090086
0.0921197
0.0943096
0.0647012
0.0494698
0.0395459
0.0378175
0.0937734
0.0828258
0.0715484
0.0641048
0.114879
0.107644
0.100402
0.0953849
0.132671
0.128473
0.124914
0.122763
0.148603
0.146525
0.145175
0.144798
0.163002
0.162258
0.162129
0.162704
0.17623
0.176334
0.17693
0.17805
0.188829
0.189551
0.190664
0.192181
0.201504
0.202839
0.204465
0.206382
0.214776
0.216808
0.219131
0.221676
0.229588
0.232471
0.235549
0.238472
0.242895
0.244661
0.24586
0.246948
0.242441
0.242986
0.242978
0.242475
0.234827
0.234226
0.233229
0.23195
0.226657
0.225641
0.224413
0.223007
0.220611
0.219446
0.218163
0.216782
0.21653
0.215316
0.214032
0.212698
0.213391
0.212167
0.210896
0.209597
0.210107
0.208903
0.207662
0.206399
0.205853
0.204713
0.203536
0.202338
0.200178
0.199159
0.198103
0.197022
0.193008
0.192176
0.191303
0.190401
0.184589
0.184002
0.18337
0.182702
0.175385
0.175082
0.174728
0.174334
0.165958
0.165949
0.165886
0.165775
0.156834
0.157104
0.157317
0.157476
0.148411
0.148921
0.149369
0.14976
0.140904
0.141594
0.142225
0.142796
0.134345
0.135158
0.13591
0.1366
0.12864
0.129519
0.130337
0.131092
0.12363
0.124531
0.125371
0.126149
0.119156
0.120047
0.120877
0.121647
0.11509
0.115949
0.11675
0.117491
0.111348
0.112165
0.112925
0.113626
0.107896
0.108666
0.109379
0.110035
0.104739
0.105461
0.106128
0.106739
0.101913
0.102593
0.103218
0.103786
0.0994848
0.100132
0.100723
0.101256
0.0975464
0.0981795
0.0987506
0.0992574
0.0962291
0.0968826
0.0974581
0.0979503
0.0957188
0.0964603
0.0970931
0.097579
0.0961262
0.0970522
0.0980583
0.098528
0.0421241
0.0813666
0.0980469
0.111135
0.120923
0.127292
0.131187
0.133414
0.134315
0.13372
0.131138
0.125823
0.117512
0.107465
0.096518
0.0847473
0.071996
0.05734
0.0312985
0.0634995
0.0908209
0.107557
0.120558
0.130089
0.136535
0.140615
0.143002
0.143998
0.143433
0.14064
0.134815
0.125869
0.114825
0.102217
0.0881254
0.0727207
0.056219
0.0304209
0.0935664
0.109169
0.122319
0.133101
0.141189
0.146902
0.150724
0.153052
0.154097
0.153647
0.150955
0.145087
0.135736
0.123466
0.108518
0.0908481
0.0708785
0.0505099
0.0251867
0.122464
0.131424
0.140617
0.148541
0.15464
0.159041
0.16204
0.163877
0.16471
0.164316
0.162075
0.156801
0.147261
0.133248
0.114553
0.0917668
0.0663207
0.041658
0.0204796
0.146006
0.152282
0.159034
0.164913
0.169458
0.172713
0.174836
0.17603
0.176477
0.175943
0.174539
0.170803
0.160725
0.143039
0.119044
0.0913064
0.0618387
0.0351542
0.0173578
0.164832
0.170236
0.175889
0.180761
0.184536
0.187216
0.188937
0.189789
0.19015
0.189215
0.189059
0.190104
0.177476
0.152766
0.122796
0.0930339
0.0638489
0.0368752
0.0200804
0.180742
0.185948
0.191252
0.195905
0.199717
0.202533
0.204623
0.205601
0.206889
0.205553
0.200276
0.194521
0.177088
0.151169
0.126599
0.0990989
0.0730998
0.0482109
0.0255716
0.195316
0.200661
0.20613
0.211248
0.215908
0.219665
0.222984
0.223551
0.220301
0.210502
0.195174
0.181641
0.166177
0.148347
0.128017
0.104304
0.0819133
0.061901
0.0306879
0.210032
0.216026
0.222338
0.228656
0.234508
0.238263
0.240159
0.233704
0.217299
0.200613
0.185355
0.172955
0.160308
0.145245
0.127053
0.107115
0.0882692
0.0692383
0.0330698
0.226254
0.233703
0.241011
0.246774
0.249668
0.247459
0.238693
0.223971
0.206749
0.191217
0.178236
0.168329
0.158676
0.145344
0.128272
0.110335
0.0930478
0.0733661
0.0344078
0.243061
0.249192
0.251823
0.252695
0.248015
0.237986
0.225159
0.210832
0.196489
0.183748
0.173388
0.165592
0.157519
0.145253
0.129692
0.113343
0.0966808
0.0758771
0.0355531
0.248847
0.250468
0.247459
0.241886
0.233581
0.223018
0.21147
0.19978
0.188574
0.178571
0.170338
0.163541
0.155747
0.144551
0.130759
0.11585
0.0993743
0.0776957
0.036521
0.241258
0.238489
0.233683
0.227163
0.219176
0.210331
0.201196
0.192129
0.183446
0.175533
0.168602
0.162072
0.154306
0.14402
0.131622
0.117651
0.101303
0.0791611
0.0374135
0.229734
0.225965
0.221096
0.215287
0.208772
0.201844
0.194746
0.18764
0.180692
0.174076
0.167759
0.161204
0.153419
0.143725
0.132213
0.118879
0.102748
0.0804905
0.0382971
0.220639
0.216839
0.212497
0.20766
0.202425
0.19691
0.191198
0.185348
0.179429
0.173478
0.167369
0.160695
0.152883
0.14355
0.132605
0.119763
0.103937
0.08178
0.0391804
0.21453
0.211044
0.207259
0.203169
0.198798
0.194167
0.189282
0.184144
0.178759
0.173096
0.167019
0.160249
0.152453
0.143388
0.132864
0.120446
0.10497
0.0830171
0.0400444
0.210565
0.207358
0.203961
0.200338
0.196471
0.192336
0.187901
0.183137
0.178014
0.172478
0.166412
0.159633
0.151938
0.143138
0.132983
0.120961
0.105846
0.0841296
0.0408825
0.207534
0.204495
0.201319
0.197954
0.194362
0.190497
0.18631
0.181759
0.176799
0.17137
0.165381
0.158711
0.151213
0.142708
0.132916
0.121276
0.106515
0.0850282
0.0417071
0.204386
0.201455
0.198414
0.195207
0.191788
0.188104
0.184102
0.17973
0.174939
0.169677
0.163871
0.15742
0.150198
0.142026
0.132606
0.121334
0.106943
0.0857749
0.0423653
0.200409
0.197607
0.194709
0.191661
0.188417
0.184925
0.181128
0.176976
0.172426
0.16742
0.161886
0.155737
0.148852
0.14104
0.132006
0.12114
0.107117
0.0862367
0.0427923
0.195252
0.192673
0.189997
0.187179
0.184177
0.18094
0.177421
0.173573
0.169338
0.164658
0.159465
0.153669
0.147164
0.139757
0.13112
0.120629
0.106947
0.0863457
0.0429636
0.188892
0.186663
0.184324
0.181839
0.17917
0.176285
0.173129
0.169646
0.165777
0.161472
0.156666
0.151271
0.145166
0.13815
0.129887
0.119742
0.106376
0.0860629
0.0428673
0.181552
0.179799
0.177908
0.175855
0.173622
0.171158
0.168412
0.165335
0.161872
0.157971
0.153564
0.148564
0.142841
0.136191
0.128269
0.118441
0.105374
0.0853654
0.0425008
0.173612
0.172423
0.171063
0.169525
0.167773
0.165763
0.16345
0.160787
0.157728
0.154219
0.150193
0.145561
0.140188
0.133866
0.126249
0.116706
0.103922
0.0842432
0.0418675
0.165511
0.164924
0.164135
0.163118
0.161843
0.160275
0.158376
0.156106
0.153422
0.150271
0.146588
0.142279
0.137211
0.131173
0.123819
0.114531
0.102018
0.0826977
0.0409771
0.157652
0.157645
0.157379
0.156837
0.155995
0.154825
0.153295
0.15137
0.149011
0.146168
0.142775
0.138738
0.133923
0.12812
0.120989
0.111925
0.0996713
0.0807423
0.039844
0.150322
0.150797
0.150969
0.150823
0.150341
0.1495
0.148273
0.146631
0.144535
0.14194
0.138778
0.134957
0.130343
0.124728
0.117779
0.10891
0.0969088
0.0784023
0.0384887
0.143651
0.144488
0.144989
0.145143
0.144933
0.144341
0.143344
0.141914
0.140017
0.137607
0.134618
0.130959
0.126496
0.121026
0.114225
0.105527
0.0937709
0.0757163
0.0369363
0.137649
0.138727
0.139449
0.139804
0.139779
0.139356
0.138515
0.137231
0.135471
0.133188
0.130321
0.126776
0.122422
0.11706
0.110377
0.101831
0.0903157
0.0727375
0.0352204
0.132248
0.133459
0.134305
0.134775
0.134856
0.134531
0.133783
0.132586
0.130909
0.128707
0.125917
0.122449
0.118171
0.112891
0.106305
0.0978981
0.0866198
0.0695355
0.0333801
0.127342
0.128601
0.129495
0.13001
0.130133
0.12985
0.129143
0.127987
0.126353
0.124195
0.121452
0.118035
0.113813
0.108599
0.1021
0.0938245
0.0827815
0.0661989
0.0314673
0.122828
0.124075
0.124959
0.125467
0.125587
0.125304
0.124601
0.123455
0.121836
0.119701
0.116988
0.113609
0.109436
0.104285
0.0978734
0.0897311
0.0789229
0.0628386
0.0295427
0.118627
0.119822
0.120659
0.121127
0.121212
0.120903
0.120181
0.119026
0.11741
0.11529
0.112605
0.109267
0.105152
0.100076
0.0937643
0.0857658
0.0751942
0.0595911
0.0276853
0.114698
0.115816
0.116584
0.116991
0.117025
0.116675
0.115925
0.114758
0.113145
0.111046
0.108402
0.105126
0.101093
0.096121
0.0899389
0.0821069
0.0717768
0.0566212
0.0259955
0.111034
0.112064
0.112752
0.113089
0.113065
0.112671
0.111897
0.110725
0.109131
0.107076
0.104502
0.101324
0.0974159
0.0925966
0.0865928
0.0789665
0.0688878
0.054129
0.0245923
0.107663
0.108601
0.109206
0.109471
0.109391
0.108962
0.108175
0.107019
0.105472
0.103497
0.101038
0.0980129
0.0942952
0.0897005
0.0839493
0.0765919
0.0667925
0.0523687
0.0235891
0.104641
0.105489
0.106012
0.106209
0.106081
0.105631
0.104856
0.103747
0.102287
0.100442
0.0981596
0.0953592
0.0919164
0.0876438
0.0822523
0.0752692
0.0658099
0.0516348
0.023135
0.102048
0.102811
0.103254
0.103389
0.103229
0.102781
0.102048
0.101028
0.0997046
0.0980506
0.0960177
0.0935283
0.090461
0.0866296
0.0817406
0.0752902
0.0662975
0.0523175
0.0234264
0.099997
0.100672
0.101035
0.101117
0.100942
0.100526
0.0998758
0.0989921
0.0978644
0.0964695
0.0947646
0.0926756
0.090081
0.0868038
0.082566
0.07686
0.0686014
0.0549422
0.0248027
0.0986383
0.0992093
0.0994849
0.0995222
0.0993561
0.0990068
0.0984843
0.0977907
0.0969193
0.0958521
0.0945505
0.092934
0.0908486
0.088148
0.084629
0.0798693
0.0727843
0.0600481
0.027981
0.0981827
0.0985995
0.0987705
0.0987737
0.0986455
0.0984034
0.0980559
0.0976052
0.0970477
0.0963703
0.0955342
0.0944139
0.0926399
0.0902911
0.0873307
0.0835291
0.0780407
0.0674923
0.0348667
0.0989096
0.0990748
0.0991229
0.0991106
0.0990546
0.0989612
0.0988333
0.098672
0.098476
0.0982388
0.0979252
0.0973075
0.0947805
0.092229
0.0894229
0.0862297
0.0821815
0.0748641
0.0490203
)
;

boundaryField
{
    leftWall
    {
        type            kqRWallFunction;
        value           nonuniform List<scalar> 
50
(
0.00186971
0.00413236
0.00560062
0.00686345
0.00810202
0.00950838
0.0112224
0.0133258
0.0160426
0.020821
0.0256982
0.0305991
0.0356845
0.0409208
0.0461668
0.0513676
0.0568779
0.0642203
0.0757764
0.076128
0.0715966
0.0700188
0.0671339
0.0631364
0.0579163
0.0523668
0.0467248
0.040858
0.035041
0.0296224
0.0250646
0.0214895
0.0186657
0.0165045
0.0149232
0.0138234
0.0130961
0.0126352
0.0123502
0.0121725
0.0120561
0.0119726
0.0119063
0.0118485
0.0117936
0.0117369
0.0116736
0.0116497
0.0146627
0.0785168
)
;
    }
    rightWall
    {
        type            kqRWallFunction;
        value           nonuniform List<scalar> 
50
(
0.00725905
0.0139901
0.0178489
0.0210552
0.023928
0.0259988
0.0276698
0.0293733
0.0312985
0.0304209
0.0251867
0.0204796
0.0173578
0.0200804
0.0255716
0.0306879
0.0330698
0.0344078
0.0355531
0.036521
0.0374135
0.0382971
0.0391804
0.0400444
0.0408825
0.0417071
0.0423653
0.0427923
0.0429636
0.0428673
0.0425008
0.0418675
0.0409771
0.039844
0.0384887
0.0369363
0.0352204
0.0333801
0.0314673
0.0295427
0.0276853
0.0259955
0.0245923
0.0235891
0.023135
0.0234264
0.0248027
0.027981
0.0348667
0.0490203
)
;
    }
    lowerWall
    {
        type            kqRWallFunction;
        value           nonuniform List<scalar> 
62
(
0.00186971
0.00417579
0.00642114
0.00824664
0.00967663
0.0108802
0.0120211
0.0132142
0.0145607
0.0161788
0.0179281
0.0196843
0.0213345
0.0227697
0.0238892
0.0245947
0.0247807
0.0243221
0.023066
0.0208339
0.0173559
0.0120944
0.00396584
0.00396584
0.00998525
0.014488
0.0189818
0.0240578
0.0306737
0.0400309
0.0540703
0.0647012
0.0494698
0.0395459
0.0378175
0.015236
0.0225914
0.0273103
0.0314371
0.0342083
0.0356233
0.0359513
0.0364966
0.015236
0.021977
0.0270706
0.0313203
0.0329268
0.0325145
0.0323007
0.0333298
0.0347778
0.0354597
0.0346129
0.0302416
0.0252588
0.0231596
0.0212732
0.0177416
0.0141607
0.0111256
0.00725905
)
;
    }
    atmosphere
    {
        type            inletOutlet;
        inletValue      uniform 0.1;
        value           nonuniform List<scalar> 
46
(
0.1
0.1
0.1
0.1
0.1
0.1
0.1
0.1
0.1
0.1
0.1
0.1
0.0724183
0.073967
0.0764246
0.0789453
0.0813849
0.0837162
0.0859351
0.088049
0.090086
0.0921197
0.0943096
0.0961262
0.0970522
0.1
0.1
0.1
0.1
0.1
0.1
0.1
0.1
0.1
0.1
0.1
0.1
0.1
0.1
0.0947805
0.092229
0.0894229
0.0862297
0.0821815
0.0748641
0.0490203
)
;
    }
    defaultFaces
    {
        type            empty;
    }
}


// ************************************************************************* //
