/*--------------------------------*- C++ -*----------------------------------*\
  =========                 |
  \\      /  F ield         | OpenFOAM: The Open Source CFD Toolbox
   \\    /   O peration     | Website:  https://openfoam.org
    \\  /    A nd           | Version:  13
     \\/     M anipulation  |
\*---------------------------------------------------------------------------*/
FoamFile
{
    format      ascii;
    class       volScalarField;
    location    "1.25";
    object      p;
}
// * * * * * * * * * * * * * * * * * * * * * * * * * * * * * * * * * * * * * //

dimensions      [1 -1 -2 0 0 0 0];

internalField   nonuniform List<scalar> 
2268
(
6200.94
6280.16
6377.55
6475.48
6546.87
6578.44
6569.08
6522.12
6442.22
6334.17
6205.47
6060.03
5900.99
5732.69
5561.7
5397.39
5249.32
5124.68
5028.04
4961.76
4926.36
4918.81
4935.65
5384.37
5457.71
5549.3
5643.87
5717.28
5755.82
5756.27
5719.75
5650.01
5551.45
5430.29
5290.85
5135.41
4967.72
4794.36
4626
4473.61
4345.36
4246.26
4177.85
4139.25
4129.07
4144.66
4561.45
4630.23
4718.09
4811.9
4888.38
4934.41
4945.42
4919.88
4859.86
4769.5
4656.13
4523.58
4372.61
4205.89
4030.2
3857.52
3700.58
3568.25
3465.56
3393.24
3351.2
3340.5
3349.41
3729.56
3798.74
3887.51
3986.21
4068.33
4122.1
4142.97
4126.81
4074.38
3989.49
3881.7
3754.49
3606.47
3439.61
3260.59
3083.09
2921.12
2783.81
2675.52
2596.48
2551.56
2543.3
2547.49
2887.26
2958.96
3051.37
3159.17
3250.53
3313.58
3345.37
3339.04
3294.12
3213.24
3108.72
2983.41
2833.7
2662.35
2474.19
2285.74
2113.89
1967.85
1851.04
1763.46
1720.29
1718.15
1732.61
2038.12
2116.97
2217.34
2334.94
2435.32
2507.93
2551.92
2557.34
2521.6
2444.05
2339.08
2205.16
2035.79
1842.93
1659.1
1497.28
1362.6
1255.21
1171.09
1108.16
1074.51
1059.94
1071.85
1394.85
1437.91
1501.27
1590.82
1676.28
1741.13
1788.18
1800.36
1768.16
1682.82
1569.26
1447.56
1318.56
1194.35
1096.22
1023.21
967.192
922.64
884.032
853.106
825.725
791.117
786.909
1150.77
1154.95
1155.94
1169.91
1190.06
1205.48
1209.22
1197.17
1169.61
1116.01
1051.83
1000.64
966.772
944.877
921.986
896.124
868.05
838.247
806.899
778.489
749.528
712.229
707.418
2302.98
2214.5
2291.67
2549.97
2595.65
2437.34
2306.65
2289.94
2287.71
2257.14
2152.15
2007.32
1977.27
2024.33
2050.36
2073.55
2139.75
2246.09
2318.56
2155.03
1906.29
1762.61
1848.85
1835.69
1709.57
1674.9
1654.64
1625.62
1582.44
1524.04
1471.61
1450.07
1484.97
1508.02
1539.89
1591.78
1665.58
1730.1
1991.37
1787.23
1575.42
1391.96
1193.07
1057.27
1016.5
998.057
965.876
955.793
955.442
1000.81
1076.46
1111.88
1128.68
1155.26
1171
1166.48
1220.75
1808.09
1605.62
1338.55
1015.03
816.799
761.896
740.668
721.44
696.324
684.587
680.083
730.588
838.467
889.657
908.146
923.814
920.915
840.507
868.952
1572.05
1265.66
959.401
745.491
704.488
698.62
689.326
670.086
650.753
626.191
603.875
604.394
618.383
635.146
653.322
659.741
667.976
613.014
621.061
1292.11
883.598
703.832
643.288
638.868
635.947
625.929
609.11
596.907
586.678
572.335
546.849
502.55
470.856
461.536
452.727
454.794
440.84
451.739
1030.78
653.015
615.052
586.965
581.565
575.117
562.611
545.925
532.464
522.231
510.603
492.516
459.039
416.492
388.733
371.802
362.285
357.411
374.412
821.154
577.759
563.668
536.143
526.406
515.647
502.137
486.094
472.425
459.839
445.946
427.665
395.327
362.907
341.509
327.438
317.375
311.654
326.131
1054.38
1059.15
1049.43
1028.67
1002.8
975.17
942.849
911.826
889.495
874.707
863.271
852.504
841.519
828.312
811.221
790.258
765.971
738.362
707.183
674.826
639.794
610.503
587.325
917.391
919.9
913.675
897.959
874.733
847.824
822.768
800.894
780.8
763.264
747.852
733.603
719.559
703.984
685.384
663.606
638.271
610.112
581.191
552.426
530.719
517.801
510.435
781.492
782.565
776.786
762.034
741.418
718.267
695.878
675.764
657.747
641.556
626.815
612.326
597.101
580.474
560.752
538.897
517.25
495.424
480.349
468.47
459.099
449.036
442.759
649.288
649.561
643.526
629.252
609.626
588.198
567.751
549.676
533.463
518.615
504.997
490.726
474.745
459.429
444.237
429.495
419.637
413.039
408.055
402.912
393.301
383.3
374.339
521.53
520.609
513.387
498.556
479.076
458.258
439.161
423.558
409.593
396.317
385.34
375.468
365.331
358.111
354.346
352.42
350.491
349.082
344.154
336.948
327.903
317.867
307.365
398.169
395.493
386.198
370.354
350.537
331.09
315.392
305.411
297.864
292.074
288.852
287.706
288.312
289.483
290.616
291.63
289.794
285.849
280.187
272.836
263.658
253.164
241.782
279.516
276.266
264.487
247.734
233.735
224.969
221.219
220.183
221.354
223.475
225.911
228.231
231.205
232.715
232.536
231.107
228.586
224.543
218.523
210.562
200.755
189.643
177.567
169.186
168.231
152.216
148.452
150.046
153.152
157.677
161.614
165.891
169.46
171.639
173.067
173.976
174.119
173.65
172.311
169.602
165.15
158.669
150.177
139.813
128.203
115.782
73.5973
73.3097
67.5094
80.4878
88.6735
94.8438
100.266
104.752
108.293
111.931
114.338
116.022
116.98
117.19
116.567
114.95
111.974
107.293
100.68
92.1456
81.4634
69.807
59.3557
14.9962
13.9663
21.5113
31.1539
37.5864
41.7927
46.1438
50.4979
54.5041
58.0315
60.7092
62.328
62.8353
62.8757
61.9936
60.0575
56.7065
51.6224
45.7855
39.0275
30.7246
23.1946
18.9446
3.9426
4.71479
6.50591
8.7763
11.0969
12.7829
14.7815
16.7884
18.7564
20.4806
21.7146
22.4571
22.6566
21.6853
21.0964
19.7798
17.5719
14.5438
11.6136
9.09149
6.31833
4.56344
4.08798
3.85405
3.79172
3.49606
3.58599
3.56085
3.46188
3.41761
3.41135
3.38403
3.83998
4.18209
4.41706
4.52989
4.45742
4.23726
4.02519
3.80716
3.69537
3.71952
3.77801
3.88134
3.94743
3.94548
3.70406
3.65733
3.59871
3.57752
3.57314
3.5664
3.55474
3.53084
3.50597
3.46401
3.45392
3.46544
3.49087
3.53336
3.59585
3.66503
3.70951
3.70799
3.6936
3.70194
3.72467
3.73926
3.71406
3.56635
3.53975
3.51116
3.49976
3.4948
3.48673
3.47805
3.46466
3.46284
3.4709
3.4844
3.49659
3.5068
3.51684
3.52863
3.54535
3.55571
3.55486
3.55235
3.55826
3.567
3.57022
3.55221
3.44513
3.4213
3.40701
3.40249
3.39925
3.39297
3.38533
3.38251
3.37525
3.37985
3.38278
3.38956
3.3972
3.40506
3.41361
3.42394
3.43166
3.43427
3.43773
3.44266
3.44687
3.44447
3.4242
3.32872
3.30754
3.29761
3.2962
3.29619
3.2938
3.28918
3.28495
3.28339
3.28124
3.28211
3.28832
3.29699
3.30628
3.31638
3.32443
3.33065
3.33471
3.33675
3.33825
3.33728
3.32925
3.30411
3.21229
3.19455
3.18688
3.18695
3.18885
3.18938
3.18813
3.18631
3.18484
3.18441
3.18585
3.18943
3.19642
3.20664
3.21628
3.22462
3.22976
3.23279
3.23374
3.23248
3.22745
3.21542
3.18766
3.09485
3.08083
3.07459
3.07491
3.07746
3.0796
3.08077
3.08147
3.08223
3.0834
3.08572
3.08893
3.0938
3.10085
3.10951
3.11774
3.12386
3.12722
3.12771
3.12505
3.11763
3.10321
3.07407
2.97627
2.96577
2.96103
2.9614
2.96395
2.96674
2.96921
2.97147
2.97374
2.97623
2.97945
2.98366
2.98894
2.99413
3.00018
3.0072
3.01406
3.01789
3.01829
3.0147
3.00593
2.99017
2.96045
2.85621
2.84914
2.84606
2.84661
2.84904
2.85206
2.85512
2.8582
2.86142
2.86492
2.86893
2.87367
2.87921
2.88519
2.89103
2.89686
2.90203
2.90536
2.90517
2.90091
2.89138
2.87499
2.84546
2.73528
2.73119
2.72966
2.73048
2.73283
2.73587
2.73923
2.74281
2.74661
2.75072
2.75531
2.76046
2.76611
2.772
2.77786
2.78328
2.78761
2.78975
2.7888
2.78391
2.77392
2.75739
2.72857
2.61393
2.61219
2.61195
2.61308
2.61539
2.61843
2.62192
2.62573
2.62985
2.63433
2.63921
2.64451
2.65009
2.65575
2.66124
2.66615
2.66976
2.67121
2.66962
2.66425
2.65406
2.6377
2.60994
2.49235
2.49234
2.49307
2.49452
2.49684
2.49985
2.50336
2.50726
2.5115
2.5161
2.52103
2.52626
2.53166
2.53702
2.54208
2.5464
2.54939
2.55026
2.54821
2.54258
2.53238
2.5164
2.48984
2.37051
2.37165
2.37313
2.37492
2.37731
2.38028
2.38374
2.38762
2.39185
2.39641
2.40124
2.40627
2.41138
2.41637
2.42096
2.42475
2.42718
2.42756
2.42519
2.41942
2.4094
2.39397
2.36874
2.24821
2.2501
2.25214
2.25427
2.25678
2.25975
2.26316
2.26697
2.27111
2.27552
2.28015
2.28491
2.28967
2.29424
2.29835
2.30163
2.30358
2.30357
2.30097
2.2952
2.28545
2.27071
2.24687
2.12529
2.12762
2.13006
2.13249
2.13515
2.13817
2.14155
2.14526
2.14926
2.15349
2.15787
2.16232
2.16671
2.17085
2.1745
2.17732
2.17885
2.17853
2.17578
2.17006
2.16064
2.14658
2.12422
2.00163
2.00419
2.00689
2.00955
2.01235
2.01542
2.01876
2.02238
2.02622
2.03024
2.03436
2.03849
2.0425
2.04623
2.04945
2.05184
2.05301
2.05243
2.04959
2.04399
2.03496
2.02165
2.00069
1.87713
1.87978
1.88262
1.88545
1.88835
1.89144
1.89475
1.89826
1.90194
1.90573
1.90957
1.91338
1.91703
1.92037
1.92319
1.92522
1.92607
1.92531
1.92244
1.91702
1.90844
1.89591
1.87636
1.75179
1.7544
1.75729
1.7602
1.76316
1.76624
1.76948
1.77287
1.77637
1.77993
1.7835
1.78699
1.7903
1.79328
1.79576
1.79747
1.79808
1.79718
1.79434
1.78916
1.78107
1.76935
1.75119
1.6256
1.62811
1.63097
1.63388
1.63682
1.63985
1.64299
1.64623
1.64954
1.65287
1.65616
1.65935
1.66234
1.665
1.66717
1.66862
1.66905
1.66808
1.66533
1.66043
1.65288
1.642
1.6252
1.49863
1.50097
1.50372
1.50656
1.50941
1.51234
1.51534
1.51841
1.5215
1.52458
1.5276
1.5305
1.5332
1.53557
1.53748
1.53872
1.53901
1.53804
1.53543
1.53087
1.52389
1.51388
1.49845
1.37095
1.37308
1.37566
1.37835
1.38106
1.38382
1.38663
1.38948
1.39232
1.39514
1.39789
1.40051
1.40293
1.40505
1.40674
1.40781
1.40803
1.40709
1.40468
1.40051
1.39415
1.38505
1.37102
1.24266
1.24455
1.24691
1.24939
1.25189
1.25442
1.25698
1.25956
1.26212
1.26466
1.26712
1.26946
1.27163
1.27352
1.27503
1.27598
1.27616
1.27531
1.27314
1.2694
1.26369
1.25551
1.2429
1.11383
1.11548
1.11758
1.1198
1.12203
1.12427
1.12653
1.12878
1.13101
1.13322
1.13538
1.13745
1.13937
1.14106
1.14242
1.14329
1.14348
1.14275
1.14086
1.13757
1.13254
1.12531
1.11414
0.984588
0.985992
0.987815
0.989732
0.991634
0.993525
0.995405
0.997268
0.999118
1.00096
1.00278
1.00457
1.00626
1.00778
1.00901
1.00983
1.01006
1.0095
1.00791
1.00511
1.00077
0.99451
0.984783
0.855016
0.856203
0.857744
0.85933
0.860857
0.862335
0.86377
0.865171
0.866558
0.867967
0.869429
0.870933
0.872413
0.873777
0.874921
0.875719
0.876018
0.875634
0.874382
0.872078
0.868461
0.863186
0.854926
0.725229
0.726232
0.727505
0.728744
0.729853
0.730856
0.731772
0.732621
0.733451
0.734343
0.735399
0.736631
0.737931
0.73918
0.740264
0.741068
0.741457
0.741275
0.740366
0.738586
0.735698
0.731417
0.724617
0.595319
0.596194
0.597242
0.598127
0.598772
0.599238
0.599556
0.599758
0.599909
0.600155
0.600754
0.60176
0.602943
0.604125
0.605183
0.606014
0.606506
0.606536
0.605984
0.60473
0.602598
0.599327
0.593983
0.46538
0.466213
0.467103
0.467624
0.467746
0.467608
0.46727
0.466738
0.466057
0.465435
0.465507
0.466424
0.46761
0.468785
0.469843
0.470708
0.471303
0.471545
0.471349
0.470648
0.469291
0.467068
0.463245
0.335456
0.336338
0.337091
0.337158
0.336712
0.335963
0.334982
0.333669
0.331937
0.329877
0.329239
0.330607
0.332066
0.333325
0.334404
0.335305
0.336005
0.336464
0.336634
0.336491
0.33601
0.335068
0.333064
0.205899
0.20629
0.206261
0.205583
0.204847
0.203794
0.202471
0.200566
0.197594
0.192492
0.190571
0.19418
0.19645
0.197883
0.198998
0.199953
0.200805
0.201562
0.20219
0.202607
0.203317
0.204275
0.205119
0.0723275
0.0702173
0.069951
0.0684799
0.0663437
0.0656151
0.0659457
0.0655561
0.0631839
0.056088
0.0561997
0.0613329
0.0635478
0.0646447
0.0654582
0.0661923
0.0669325
0.0677384
0.0686916
0.0698944
0.0711698
0.0733359
0.0771439
563.922
563.241
562.731
550.22
510.249
512.087
515.522
516.543
439.682
438.012
436.512
430.971
367.478
362.482
356.59
347.837
299.005
292.91
286.071
278.283
232.622
226.243
219.395
212.069
167.81
161.359
154.782
147.909
105.064
98.0863
91.4139
84.9911
50.7698
44.1614
37.5727
32.1193
15.158
10.5786
7.41347
6.0716
3.8422
3.64105
3.45699
3.3673
3.8572
3.74749
3.62667
3.5327
3.60704
3.50262
3.40086
3.32691
3.46926
3.37918
3.28236
3.20736
3.34241
3.25236
3.15653
3.08445
3.22112
3.13221
3.03765
2.96652
3.10653
3.01971
2.92647
2.85583
2.99508
2.91071
2.81967
2.74985
2.88419
2.803
2.71479
2.64647
2.77257
2.69523
2.61083
2.54453
2.65964
2.58671
2.50654
2.44283
2.54516
2.47685
2.40146
2.34074
2.42934
2.36573
2.29509
2.23763
2.31239
2.25333
2.18748
2.13333
2.19454
2.13972
2.07821
2.0272
2.07553
2.02458
1.96733
1.91949
1.95547
1.90818
1.85491
1.81023
1.83443
1.79061
1.74118
1.69954
1.71242
1.67188
1.62607
1.58744
1.58944
1.55204
1.50981
1.47417
1.46565
1.43133
1.39256
1.35989
1.34117
1.30991
1.27463
1.24489
1.21603
1.18785
1.15599
1.1292
1.09023
1.06513
1.0368
1.01296
0.96388
0.9419
0.917051
0.896175
0.837036
0.818191
0.796891
0.77895
0.709716
0.694003
0.676188
0.661179
0.581987
0.569343
0.555037
0.542913
0.454061
0.444412
0.433458
0.424114
0.326238
0.31936
0.311668
0.30486
0.199141
0.194449
0.189912
0.185043
0.0753152
0.0728535
0.0717011
0.0669259
600.122
495.478
483.189
458.997
441.51
425.96
410.997
395.526
380.98
366.022
349.177
330.948
313.045
296.123
283.882
273.948
263.496
255.691
259.751
486.459
416.409
389.173
362.817
342.509
324.891
308.2
292.472
278.08
264.795
252.733
242.26
232.818
224.029
216.368
208.856
199.029
187.227
184.619
411.841
350.553
317.414
292.564
272.82
254.482
236.752
220.811
206.823
194.915
184.662
175.19
165.923
157.849
151.913
146.975
139.637
128.779
127.773
330.275
291.207
263.39
238.727
216.992
197.233
178.797
161.858
146.737
132.103
117.159
103.343
93.0557
86.7358
85.2378
85.4631
83.0555
77.2942
75.8881
263.581
235.104
208.405
183.534
161.04
140.196
121.069
102.685
84.4936
64.5803
45.0723
32.7089
25.8052
24.9697
28.0813
32.1983
31.8337
30.1511
28.0594
199.016
174.897
150.523
126.726
104.257
83.1207
63.976
44.5551
28.0029
15.5695
7.32669
5.25543
5.16313
5.49082
6.76355
8.23363
7.23169
6.18347
5.75525
135.565
114.225
92.0047
69.764
48.798
31.2782
20.512
10.4166
4.75071
4.74502
4.71689
4.63236
4.66415
4.78916
4.88689
4.85745
4.59453
4.51069
4.46338
73.989
55.4172
36.9983
22.4366
13.9328
6.67607
4.07932
4.36764
4.38512
4.35919
4.38481
4.44159
4.48602
4.54841
4.5412
4.39882
4.32547
4.32707
4.31897
24.6514
15.4202
8.55718
4.74363
3.6267
4.06439
4.11446
4.11203
4.18192
4.20703
4.23141
4.25237
4.24594
4.22246
4.17523
4.13282
4.1597
4.16796
4.16325
4.67145
3.53716
3.42333
3.84876
3.89705
3.88356
3.9129
3.93704
3.98351
4.00708
4.02801
4.04041
4.02074
3.97139
3.96455
3.99028
4.00714
4.01279
4.01111
3.41889
3.63591
3.67908
3.67314
3.68445
3.70487
3.73833
3.76546
3.78695
3.80491
3.82901
3.85366
3.85234
3.83393
3.8354
3.84655
3.85716
3.86116
3.86091
3.45402
3.46481
3.47346
3.48851
3.51555
3.54859
3.58111
3.60654
3.62695
3.64741
3.67138
3.69366
3.70102
3.69651
3.69731
3.70409
3.71064
3.71327
3.71336
3.27893
3.28947
3.30692
3.33764
3.36988
3.40145
3.43102
3.45664
3.47942
3.50124
3.52332
3.54225
3.55195
3.55392
3.55691
3.56209
3.56654
3.56836
3.56856
3.14824
3.15544
3.17572
3.2019
3.23006
3.25856
3.28616
3.31144
3.33453
3.35617
3.37664
3.39393
3.40507
3.41091
3.41577
3.42067
3.4244
3.426
3.42643
3.02849
3.03298
3.04891
3.07038
3.09506
3.12096
3.14655
3.17066
3.19301
3.21381
3.23289
3.24908
3.26092
3.2689
3.27515
3.28042
3.28418
3.28601
3.28691
2.91111
2.91308
2.92592
2.94401
2.96558
2.9887
3.01191
3.0342
3.05516
3.07466
3.0924
3.10764
3.11968
3.1288
3.13609
3.14191
3.14606
3.14842
3.15004
2.79951
2.79846
2.8081
2.82287
2.84117
2.86125
2.88179
2.90188
2.92102
2.93894
2.95529
2.96964
2.9816
2.9913
2.99922
3.00556
3.01024
3.01325
3.01584
2.69263
2.68849
2.69477
2.70612
2.72106
2.73799
2.75574
2.77345
2.79056
2.80675
2.82174
2.83516
2.8468
2.85665
2.8649
2.87164
2.87687
2.88067
2.88424
2.58902
2.58183
2.58486
2.59286
2.60451
2.61836
2.63332
2.64858
2.66363
2.67811
2.69169
2.70413
2.71523
2.72493
2.73326
2.74024
2.74598
2.75067
2.75516
2.48723
2.4774
2.47741
2.4823
2.49087
2.50177
2.51404
2.52697
2.54001
2.55276
2.56494
2.57632
2.58671
2.59604
2.60428
2.61142
2.61762
2.62313
2.62848
2.38642
2.37429
2.37163
2.37371
2.37946
2.38768
2.3975
2.4082
2.41928
2.43035
2.44114
2.45143
2.46106
2.4699
2.47794
2.48514
2.49168
2.49788
2.504
2.28564
2.27171
2.26678
2.26642
2.26972
2.27557
2.28313
2.29177
2.30103
2.31053
2.32
2.32922
2.33805
2.34635
2.35407
2.3612
2.36797
2.3747
2.38143
2.1844
2.16902
2.16226
2.1599
2.16111
2.16488
2.17047
2.17729
2.18491
2.19299
2.20123
2.20943
2.21743
2.22512
2.23244
2.23938
2.24623
2.25334
2.26051
2.08215
2.06569
2.05765
2.05372
2.0532
2.05524
2.05917
2.06444
2.07062
2.07739
2.08449
2.0917
2.09887
2.10591
2.11274
2.11941
2.12621
2.1335
2.14093
1.97834
1.9617
1.95266
1.94754
1.9457
1.94635
1.9489
1.95283
1.95776
1.96336
1.96939
1.97566
1.98203
1.98839
1.99469
2.00099
2.00761
2.01493
2.02243
1.87316
1.85664
1.84705
1.84113
1.83831
1.83788
1.83929
1.84211
1.84594
1.85051
1.85559
1.86098
1.86657
1.87225
1.87799
1.88386
1.8902
1.89737
1.90475
1.76661
1.75044
1.74065
1.73426
1.73077
1.72953
1.73006
1.73195
1.73487
1.73854
1.74275
1.74734
1.75219
1.75721
1.76238
1.76776
1.77372
1.78059
1.78768
1.65864
1.64309
1.63339
1.62681
1.62291
1.62111
1.62097
1.62212
1.62427
1.62717
1.63061
1.63447
1.63862
1.643
1.64759
1.65247
1.65798
1.66441
1.67105
1.54941
1.53466
1.52528
1.51874
1.51464
1.51247
1.51184
1.51242
1.51393
1.51616
1.51893
1.52212
1.52562
1.5294
1.53343
1.53778
1.54278
1.54869
1.55474
1.43903
1.42527
1.41637
1.41003
1.40591
1.40354
1.40256
1.40269
1.40368
1.40533
1.4075
1.41009
1.413
1.4162
1.41968
1.42352
1.42799
1.43328
1.43867
1.32773
1.31502
1.30673
1.30073
1.29671
1.29425
1.29304
1.29282
1.29338
1.29454
1.29618
1.29821
1.30058
1.30325
1.30622
1.30955
1.31348
1.31813
1.32276
1.21562
1.20405
1.19643
1.19084
1.18702
1.18457
1.18322
1.18273
1.18293
1.18366
1.18483
1.18637
1.18823
1.1904
1.19289
1.19574
1.19915
1.20313
1.20699
1.10287
1.09244
1.08553
1.08042
1.07684
1.07446
1.07303
1.07235
1.07225
1.07261
1.07336
1.07444
1.07584
1.07756
1.0796
1.08201
1.08492
1.08827
1.09136
0.989529
0.980253
0.974072
0.969452
0.966166
0.963904
0.962448
0.961617
0.961272
0.961318
0.961693
0.96237
0.963346
0.964639
0.966271
0.96828
0.970736
0.973509
0.975926
0.875677
0.867514
0.862056
0.857942
0.854968
0.852858
0.851417
0.850486
0.849948
0.849727
0.84978
0.850096
0.850692
0.851603
0.852863
0.854502
0.856555
0.858839
0.860677
0.761276
0.754212
0.749462
0.745857
0.743213
0.741283
0.739896
0.738913
0.738235
0.737803
0.73759
0.737599
0.737864
0.738435
0.739358
0.740666
0.742369
0.744237
0.745613
0.64634
0.640312
0.636248
0.63315
0.630849
0.629129
0.627838
0.626854
0.626095
0.625517
0.625104
0.624872
0.624869
0.625156
0.625784
0.626795
0.628187
0.629698
0.630713
0.53078
0.52575
0.522346
0.519751
0.51781
0.516333
0.515183
0.514255
0.513481
0.512828
0.512295
0.511912
0.511736
0.511825
0.512218
0.512963
0.514047
0.515212
0.515978
0.414568
0.410435
0.407668
0.405584
0.404028
0.402833
0.401876
0.401068
0.400351
0.399705
0.399145
0.398721
0.398522
0.398541
0.398782
0.399274
0.400019
0.400817
0.401387
0.297546
0.294258
0.292151
0.290627
0.289515
0.288666
0.287974
0.287365
0.286792
0.286243
0.285748
0.285375
0.285324
0.285437
0.285625
0.285884
0.286236
0.286557
0.28694
0.179599
0.177047
0.175661
0.174773
0.174173
0.173734
0.173378
0.173047
0.172707
0.172344
0.171965
0.171569
0.172166
0.172664
0.172899
0.172963
0.172877
0.172568
0.172558
0.0615529
0.0594937
0.058767
0.0584311
0.0582592
0.0581607
0.0580908
0.0580219
0.0579335
0.0578047
0.0575457
0.0568573
0.0574251
0.0580606
0.0583157
0.0583521
0.058199
0.0578373
0.0577605
)
;

boundaryField
{
    leftWall
    {
        type            calculated;
        value           nonuniform List<scalar> 
50
(
6200.94
5384.37
4561.45
3729.56
2887.26
2038.12
1394.85
1150.77
1054.38
917.391
781.492
649.288
521.53
398.169
279.516
169.186
73.5973
14.9962
3.9426
3.85405
3.70406
3.56635
3.44513
3.32872
3.21229
3.09485
2.97627
2.85621
2.73528
2.61393
2.49235
2.37051
2.24821
2.12529
2.00163
1.87713
1.75179
1.6256
1.49863
1.37095
1.24266
1.11383
0.984588
0.855016
0.725229
0.595319
0.46538
0.335456
0.205899
0.0723275
)
;
    }
    rightWall
    {
        type            calculated;
        value           nonuniform List<scalar> 
50
(
2318.56
1730.1
1220.75
868.952
621.061
451.739
374.412
326.131
259.751
184.619
127.773
75.8881
28.0594
5.75525
4.46338
4.31897
4.16325
4.01111
3.86091
3.71336
3.56856
3.42643
3.28691
3.15004
3.01584
2.88424
2.75516
2.62848
2.504
2.38143
2.26051
2.14093
2.02243
1.90475
1.78768
1.67105
1.55474
1.43867
1.32276
1.20699
1.09136
0.975926
0.860677
0.745613
0.630713
0.515978
0.401387
0.28694
0.172558
0.0577605
)
;
    }
    lowerWall
    {
        type            calculated;
        value           nonuniform List<scalar> 
62
(
6599.09
6678.31
6775.7
6873.63
6945.02
6976.59
6967.23
6920.27
6840.37
6732.32
6603.62
6458.18
6299.14
6130.84
5959.85
5795.53
5647.47
5522.83
5426.19
5359.91
5324.49
5316.77
5333.58
4935.65
4144.66
3349.41
2547.49
1732.61
1071.85
786.909
707.418
594.598
594.125
592.517
609.136
2302.98
2155.03
1991.37
1808.09
1572.05
1292.11
1030.78
821.154
2351.58
2411.16
2641.64
2899.97
2945.05
2757.27
2514.33
2493.92
2495.54
2470.78
2357.72
2213.75
2254.78
2303.64
2330.49
2354.65
2419.89
2525.61
2598.02
)
;
    }
    atmosphere
    {
        type            calculated;
        value           nonuniform List<scalar> 
46
(
-0.000121916
-8.03859e-05
-5.29006e-05
-3.83952e-05
-2.6441e-05
-2.71731e-05
-2.26319e-05
-1.63611e-05
-1.18748e-05
-4.04642e-06
-3.8394e-06
-6.26592e-06
-3.91319e-06
-2.21633e-06
-1.20244e-06
-5.91716e-07
-2.335e-07
-5.13111e-08
0
0
0
0
-3.20545e-06
0
0
-7.7716e-07
0
-1.16533e-06
-5.78464e-06
-1.26769e-05
-1.92997e-05
-2.3823e-05
-2.51219e-05
-2.27484e-05
-1.70783e-05
-9.5199e-06
-2.64104e-06
0
0
0
0
0
0
0
0
0
)
;
    }
    defaultFaces
    {
        type            empty;
    }
}


// ************************************************************************* //
