/*--------------------------------*- C++ -*----------------------------------*\
  =========                 |
  \\      /  F ield         | OpenFOAM: The Open Source CFD Toolbox
   \\    /   O peration     | Website:  https://openfoam.org
    \\  /    A nd           | Version:  13
     \\/     M anipulation  |
\*---------------------------------------------------------------------------*/
FoamFile
{
    format      ascii;
    class       volScalarField;
    location    "1.25";
    object      p_rgh;
}
// * * * * * * * * * * * * * * * * * * * * * * * * * * * * * * * * * * * * * //

dimensions      [1 -1 -2 0 0 0 0];

internalField   nonuniform List<scalar> 
2268
(
6599.09
6678.31
6775.7
6873.63
6945.02
6976.59
6967.23
6920.27
6840.37
6732.32
6603.62
6458.18
6299.14
6130.84
5959.85
5795.53
5647.47
5522.83
5426.19
5359.91
5324.49
5316.77
5333.58
6578.81
6652.16
6743.75
6838.31
6911.73
6950.27
6950.71
6914.2
6844.46
6745.9
6624.74
6485.3
6329.86
6162.17
5988.81
5820.45
5668.06
5539.81
5440.71
5372.3
5333.7
5323.4
5338.45
6552.2
6620.98
6708.83
6802.65
6879.13
6925.16
6936.17
6910.63
6850.61
6760.25
6646.88
6514.33
6363.36
6196.64
6020.95
5848.26
5691.33
5559
5456.31
5383.98
5341.95
5331.25
5339.73
6516.61
6585.79
6674.56
6773.25
6855.38
6909.14
6930.02
6913.86
6861.43
6776.54
6668.75
6541.54
6393.52
6226.66
6047.64
5870.14
5708.17
5570.86
5462.57
5383.53
5338.61
5330.34
5334.47
6470.6
6542.31
6634.72
6742.52
6833.88
6896.92
6928.72
6922.39
6877.46
6796.58
6692.07
6566.76
6417.05
6245.7
6057.54
5869.09
5697.24
5551.18
5434.38
5346.8
5295.49
5301.5
5315.86
6411.34
6496.62
6596.98
6714.59
6814.97
6887.58
6931.56
6936.99
6901.25
6823.7
6718.73
6584.8
6415.44
6222.58
5764.37
5125.2
4479.77
3905.06
3456.2
3118.07
3076.94
3271.9
3590.12
4120.89
4792.89
5609.83
6263.75
6622.13
6838.81
6955.49
6976.17
6940.78
6858.76
6676.06
6026.04
4869.72
3484.72
2479.96
1866.22
1519.47
1351.17
1273.78
1235.64
1212.27
1227.31
1273.25
1592.21
1613.2
2044.52
2840.79
3698.04
4322.47
4964.77
5294.69
5050.87
4090.73
2935.52
2044.76
1520.23
1386.32
1363.43
1337.56
1309.49
1279.69
1248.34
1219.93
1224.47
1150.74
1146.83
2351.58
2411.16
2641.64
2899.97
2945.05
2757.27
2514.33
2493.92
2495.54
2470.78
2357.72
2213.75
2254.78
2303.64
2330.49
2354.65
2419.89
2525.61
2598.02
2299.12
2066.09
2265.07
2839.92
2890.82
2764.92
2729.22
2706.75
2677.94
2632.05
2515.36
2287.03
2173.3
2268.38
2288.14
2295.27
2386.48
2504
2568.49
2216.2
2034.89
1827.91
2609.58
2727.43
2372.36
2334.87
2371.54
2330.71
2173.85
2051.46
1859.96
1614.17
1648.22
1714.43
1761.47
1898.1
2244.69
2334.08
2136.04
2472.86
2775.31
2428.26
1255.87
968.296
956.933
1003.86
988.28
1156.31
1311.65
1437.17
1600.44
1618.57
1563.66
1577.22
1587.64
1642.25
1823.28
1965.06
3100.99
2838.48
1343.18
969.311
963.434
954.203
921.519
816.632
728.066
728.145
1034
1658.15
1972.34
2003.39
2012.42
1993.09
1655.7
1705.74
2145.85
2835.97
1376.94
967.334
962.932
960.15
958.698
945.248
923.127
883.913
833.713
764.729
708.839
894.636
1059.42
1117.63
1280.4
1135.02
1043.53
2349.96
1180.43
998.408
969.992
964.54
958.258
949.542
935.412
915.689
904.841
882.335
842.775
813.718
763.774
727.287
704.048
695.571
685.062
715.012
2396.23
1019.52
1005.62
977.956
967.952
957.248
943.533
927.488
913.8
901.575
888.625
869.275
805.12
722.772
649.73
613.266
641.292
615.623
690.27
1587.85
1592.61
1582.9
1562.13
1592.93
1651.12
1578.68
1456.71
1430.48
1413.64
1396.74
1385.97
1374.99
1361.78
1344.69
1323.73
1299.44
1271.83
1240.65
1239.18
1262.93
1092.85
1018.79
1576.05
1578.56
1572.34
1556.62
1533.4
1506.49
1481.43
1459.56
1439.46
1421.93
1406.51
1392.27
1378.22
1362.65
1344.05
1322.27
1296.93
1268.77
1163.5
1081.44
917.22
907.468
862.665
1565.35
1566.42
1560.64
1545.89
1525.27
1502.12
1479.73
1459.62
1441.6
1425.41
1410.67
1396.18
1380.96
1364.33
1344.61
1322.75
1240.45
1122.16
1002.18
809.42
842.208
840.955
834.688
1558.34
1558.61
1552.58
1538.3
1518.68
1497.25
1476.8
1458.73
1442.51
1427.67
1414.05
1399.78
1383.8
1368.47
1270.07
1127.03
1039.34
840.34
820.844
852.098
847.825
837.825
828.865
1555.78
1554.85
1547.63
1532.8
1513.32
1492.5
1473.41
1457.8
1443.84
1426.98
1419.46
1367.67
1214.96
1098.46
995.747
837.508
806.318
848.754
861.089
854.071
845.025
834.99
824.488
1557.61
1554.93
1545.64
1529.79
1505.63
1462.68
1396.86
1362.33
1303.44
1161
1051.98
990.471
850.557
788.746
795.506
854.728
869.033
865.57
859.909
852.556
843.378
832.884
821.501
1564.15
1560.9
1549.12
1519.2
1361.39
1152.74
945.362
881.514
801.916
751.066
757.45
780.079
827.354
866.429
874.715
873.422
870.902
866.859
860.841
852.88
843.072
831.961
819.884
1579.01
1578.05
1490.4
1078.06
873.952
788.548
776.959
782.166
855.182
850.015
875.313
877.957
878.89
879.033
878.564
877.222
874.514
870.064
863.583
855.092
844.727
833.118
820.696
1501.26
1246.96
629.978
773.478
855.803
862.355
867.781
872.265
875.805
879.443
881.85
883.534
884.492
884.702
884.078
882.461
879.486
874.805
868.192
859.657
848.975
837.319
826.867
316.203
142.99
288.224
777.145
843.752
861.988
874.569
880.61
884.615
888.141
890.818
892.437
892.944
892.985
892.103
890.166
886.815
881.731
857.685
808.571
711.503
574.403
483.975
6.46396
17.2219
136.297
195.222
273.162
362.885
457.539
541.094
625.597
678.761
710.778
723.503
718.031
692.409
652.088
595.473
509.941
384.637
271.008
184.227
86.6826
26.6091
10.9653
6.06812
8.32084
5.40989
5.51182
5.50017
5.39453
5.3283
5.32208
7.62942
31.9448
48.1827
57.8968
59.8709
52.1796
38.8297
24.4232
11.4445
5.60642
5.63045
5.68907
5.79265
5.85889
5.85675
5.74114
5.69376
5.63513
5.61342
5.60902
5.60228
5.59065
5.56681
5.54181
5.49994
5.49007
5.50186
5.52703
5.56929
5.63193
5.70123
5.74573
5.74393
5.72952
5.73797
5.76104
5.776
5.75119
5.72884
5.70816
5.67822
5.66087
5.65594
5.64788
5.6392
5.62591
5.62429
5.63371
5.64891
5.65996
5.67012
5.678
5.68963
5.70636
5.71676
5.71592
5.71358
5.72009
5.72922
5.73282
5.71487
5.73176
5.70879
5.69372
5.68881
5.68556
5.67927
5.67162
5.66884
5.66171
5.6666
5.7006
5.75011
5.71157
5.69617
5.6998
5.71014
5.71788
5.72052
5.72415
5.72954
5.73429
5.73209
5.71137
5.74018
5.71913
5.70926
5.70773
5.7077
5.70529
5.70067
5.69644
5.69486
5.6929
5.71533
5.90987
5.93278
5.7939
5.73502
5.73955
5.74219
5.74747
5.75398
5.75566
5.74938
5.74097
5.7158
5.74896
5.73126
5.72363
5.7237
5.72556
5.72606
5.7248
5.72298
5.72151
5.72108
5.72281
5.84891
5.96633
5.97788
5.93005
5.76887
5.77318
5.77758
5.77886
5.77768
5.77258
5.75484
5.72436
5.75668
5.7427
5.7365
5.73686
5.73939
5.7415
5.74263
5.74333
5.7441
5.7453
5.74763
5.75091
5.77972
5.95783
6.00666
5.96735
5.79138
5.79416
5.79412
5.79221
5.78656
5.76969
5.73597
5.76328
5.75282
5.7481
5.7485
5.75108
5.75385
5.75626
5.75849
5.76077
5.76329
5.76653
5.77075
5.77607
5.78518
5.82724
5.86118
5.85771
5.8091
5.80667
5.80243
5.79358
5.77823
5.74799
5.76841
5.76135
5.75829
5.75886
5.76132
5.76436
5.76737
5.77041
5.77363
5.77713
5.78115
5.7859
5.79144
5.79743
5.80335
5.80917
5.81959
5.8253
5.82012
5.81325
5.80368
5.78729
5.75777
5.77267
5.76858
5.76706
5.7679
5.77027
5.77334
5.77667
5.78021
5.784
5.78811
5.79271
5.79786
5.80352
5.8094
5.81525
5.82066
5.82507
5.82739
5.82683
5.82163
5.81136
5.79478
5.76596
5.7765
5.77476
5.77453
5.77566
5.77799
5.78106
5.78454
5.78832
5.79243
5.7969
5.80178
5.80708
5.81267
5.81833
5.82382
5.82872
5.83233
5.83378
5.83221
5.82686
5.81664
5.80026
5.7725
5.78012
5.7801
5.78083
5.78228
5.78461
5.78764
5.79115
5.79503
5.79927
5.80386
5.80879
5.81402
5.81942
5.82479
5.82984
5.83417
5.83716
5.83802
5.83596
5.83034
5.82014
5.80415
5.7776
5.78347
5.7846
5.78608
5.78787
5.79026
5.79324
5.79671
5.80058
5.80481
5.80936
5.81419
5.81922
5.82433
5.82932
5.83391
5.8377
5.84013
5.84051
5.83813
5.83237
5.82234
5.80692
5.78168
5.78636
5.78824
5.79028
5.79241
5.79492
5.79789
5.80131
5.80511
5.80925
5.81366
5.81829
5.82305
5.82781
5.83238
5.83649
5.83977
5.84172
5.84171
5.83911
5.83334
5.82359
5.80885
5.78501
5.78863
5.79096
5.79339
5.79582
5.79848
5.8015
5.80488
5.8086
5.8126
5.81682
5.82121
5.82566
5.83004
5.83419
5.83783
5.84065
5.84218
5.84186
5.83911
5.83339
5.82397
5.80992
5.78755
5.79016
5.79272
5.79541
5.79808
5.80088
5.80394
5.80729
5.81091
5.81475
5.81877
5.82289
5.82702
5.83103
5.83476
5.83797
5.84037
5.84153
5.84096
5.83811
5.83252
5.82349
5.81017
5.78922
5.79085
5.7935
5.79634
5.79917
5.80207
5.80516
5.80847
5.81198
5.81566
5.81945
5.82329
5.8271
5.83075
5.83409
5.83691
5.83894
5.83979
5.83903
5.83616
5.83074
5.82216
5.80963
5.79008
5.7907
5.79332
5.79621
5.79912
5.80207
5.80516
5.8084
5.81178
5.81528
5.81885
5.82242
5.82591
5.82922
5.8322
5.83467
5.83638
5.83699
5.8361
5.83326
5.82808
5.81998
5.80827
5.7901
5.78971
5.79222
5.79508
5.79799
5.80092
5.80396
5.8071
5.81034
5.81365
5.81698
5.82027
5.82346
5.82645
5.82911
5.83128
5.83273
5.83315
5.83219
5.82944
5.82454
5.81699
5.80611
5.78931
5.78794
5.79027
5.79303
5.79586
5.79872
5.80164
5.80465
5.80771
5.8108
5.81388
5.81691
5.81981
5.8225
5.82488
5.82678
5.82802
5.82832
5.82734
5.82473
5.82018
5.81319
5.80318
5.78776
5.78545
5.78758
5.79016
5.79285
5.79556
5.79832
5.80113
5.80397
5.80682
5.80964
5.81239
5.81501
5.81743
5.81955
5.82124
5.82231
5.82253
5.82159
5.81918
5.81501
5.80865
5.79954
5.78552
5.78235
5.78424
5.7866
5.78908
5.79158
5.79411
5.79668
5.79925
5.80182
5.80435
5.80681
5.80915
5.81132
5.81321
5.81472
5.81567
5.81585
5.815
5.81283
5.80909
5.80338
5.7952
5.78259
5.77872
5.78036
5.78247
5.78469
5.78692
5.78916
5.79141
5.79366
5.7959
5.79811
5.80026
5.80233
5.80426
5.80595
5.8073
5.80817
5.80836
5.80764
5.80575
5.80246
5.79743
5.7902
5.77902
5.77467
5.77607
5.7779
5.77981
5.78171
5.78361
5.78549
5.78735
5.7892
5.79104
5.79286
5.79465
5.79634
5.79786
5.79909
5.79991
5.80014
5.79958
5.79799
5.79519
5.79085
5.78459
5.77486
5.77029
5.77148
5.77302
5.77461
5.77613
5.77761
5.77905
5.78045
5.78183
5.78324
5.7847
5.78621
5.78769
5.78905
5.7902
5.79099
5.79129
5.79091
5.78966
5.78735
5.78374
5.77846
5.7702
5.7657
5.7667
5.76798
5.76921
5.77032
5.77133
5.77224
5.77309
5.77392
5.77481
5.77587
5.7771
5.7784
5.77965
5.78073
5.78154
5.78193
5.78175
5.78084
5.77906
5.77617
5.77189
5.76509
5.76098
5.76186
5.76291
5.76379
5.76444
5.7649
5.76522
5.76542
5.76557
5.76582
5.76642
5.76742
5.76861
5.76979
5.77085
5.77168
5.77217
5.7722
5.77165
5.7704
5.76826
5.76499
5.75965
5.75624
5.75707
5.75796
5.75848
5.75861
5.75847
5.75813
5.7576
5.75692
5.75629
5.75637
5.75728
5.75847
5.75964
5.7607
5.76157
5.76216
5.7624
5.76221
5.76151
5.76015
5.75793
5.7541
5.75151
5.75239
5.75314
5.75321
5.75277
5.75202
5.75104
5.74972
5.74799
5.74593
5.74529
5.74666
5.74812
5.74938
5.75046
5.75136
5.75206
5.75252
5.75269
5.75254
5.75206
5.75112
5.74912
5.74715
5.74754
5.74751
5.74683
5.7461
5.74504
5.74372
5.74181
5.73884
5.73374
5.73182
5.73543
5.7377
5.73913
5.74025
5.7412
5.74205
5.74281
5.74344
5.74386
5.74456
5.74552
5.74637
5.73877
5.73666
5.73639
5.73492
5.73279
5.73206
5.73239
5.732
5.72963
5.72253
5.72264
5.72778
5.72999
5.73109
5.7319
5.73264
5.73338
5.73418
5.73513
5.73634
5.73761
5.73978
5.74359
825.345
826.44
816.571
1052.32
837.127
840.335
820.547
1019.41
832.135
830.126
787.047
935.556
822.01
817.18
803.29
785.488
816.128
810.069
803.204
795.405
812.338
805.963
799.115
791.789
810.127
803.676
797.099
790.226
809.978
803.001
796.328
789.906
818.281
795.153
752.208
728.197
388.041
246.884
161.908
133.061
5.88994
5.42771
5.24358
5.15348
5.76854
5.65895
5.53854
5.44425
5.64443
5.54003
5.43816
5.36406
5.63192
5.54155
5.444
5.3688
5.629
5.53875
5.44291
5.37076
5.63266
5.54373
5.44915
5.37799
5.64323
5.55652
5.46333
5.39266
5.65691
5.57262
5.48162
5.41179
5.67121
5.59003
5.50182
5.4335
5.68479
5.60743
5.52303
5.45673
5.69702
5.62409
5.54392
5.48021
5.70772
5.63942
5.56402
5.5033
5.71709
5.65349
5.58284
5.52538
5.72533
5.66628
5.60042
5.54628
5.73268
5.67786
5.61635
5.56534
5.73886
5.68791
5.63066
5.58283
5.74399
5.69671
5.64344
5.59875
5.74815
5.70433
5.6549
5.61326
5.75134
5.7108
5.66498
5.62635
5.75355
5.71615
5.67392
5.63828
5.75495
5.72063
5.68186
5.6492
5.75567
5.72441
5.68912
5.65939
5.75572
5.72754
5.69568
5.66889
5.75512
5.73002
5.70168
5.67784
5.75396
5.73198
5.70713
5.68626
5.75231
5.73347
5.71217
5.69423
5.75019
5.73447
5.71666
5.70165
5.74765
5.73501
5.7207
5.70858
5.74492
5.73527
5.72432
5.71497
5.74229
5.73541
5.72772
5.72091
5.74039
5.7357
5.73116
5.72629
5.74176
5.7393
5.73814
5.73337
2136.22
1035.33
1016.6
989.184
971.642
955.793
942.533
925.919
908.613
881.217
832.256
756.227
673.027
603.725
566.272
542.258
535.339
554.493
662.642
1147.22
1035.63
961.044
911.266
822.278
791.369
784.182
754.914
722.509
669.535
611.338
573.113
562.328
553.222
545.641
537.949
528.185
516.685
484.205
1026.13
909.273
754.105
696.1
664.85
645.845
628.299
612.579
598.725
586.86
576.56
567.53
558.035
549.766
543.933
538.801
531.412
477.431
434.382
815.009
721.076
702.208
692.92
671.521
651.762
633.325
616.385
601.263
586.628
571.684
554.78
534.389
520.422
515.423
528.503
534.657
460.884
424.258
779.297
751.993
725.529
700.658
678.165
657.319
638.192
619.808
601.616
539.332
423.145
298.945
232.102
233.932
262.151
312.325
361.983
384.237
375.556
778.736
754.617
730.243
706.446
683.977
662.841
643.696
573.412
386.868
157.498
27.2993
6.60862
6.33186
6.92465
26.5292
64.1351
47.3082
33.1723
29.0404
777.882
756.543
734.322
712.081
691.115
631.299
437.755
132.829
6.03538
6.0297
6.00155
5.91837
5.95064
6.09108
7.24082
11.167
7.88344
5.79604
5.74878
778.904
760.332
741.913
670.784
426.977
91.7639
5.48922
5.7775
5.79497
5.76905
5.79473
5.85163
5.91882
8.66752
10.8609
10.3202
5.91409
5.73764
5.7297
679.57
530.263
278.968
60.5116
5.16191
5.59945
5.64952
5.64708
5.76294
6.4023
6.50959
5.8077
5.8879
8.62032
9.16063
5.82415
5.69508
5.70376
5.69914
87.0606
22.3759
5.08396
5.5091
5.55741
5.54435
5.57368
5.60243
6.25789
6.63364
6.65272
5.90003
5.71429
6.07353
5.62747
5.65067
5.66775
5.6731
5.67156
5.20514
5.42157
5.4646
5.45864
5.47064
5.49211
5.52437
5.59452
5.76933
5.88453
5.86775
5.72255
5.63826
5.61957
5.62105
5.63224
5.64267
5.64667
5.64741
5.36532
5.37574
5.38416
5.39928
5.42827
5.4616
5.49435
5.52226
5.53756
5.55803
5.58201
5.60433
5.61184
5.6074
5.60822
5.61492
5.62126
5.62406
5.62562
5.31542
5.32537
5.34278
5.37356
5.40606
5.43785
5.4671
5.4925
5.51523
5.53705
5.55915
5.5781
5.58786
5.58984
5.59281
5.59792
5.60235
5.60441
5.60612
5.3094
5.31645
5.33674
5.36292
5.39107
5.41957
5.44717
5.47244
5.49553
5.51718
5.53765
5.55494
5.56608
5.57191
5.57677
5.58167
5.58541
5.58727
5.58916
5.31473
5.31919
5.33513
5.35659
5.38126
5.40715
5.43275
5.45685
5.47921
5.5
5.51909
5.53527
5.54711
5.55509
5.56134
5.56662
5.57038
5.57252
5.57389
5.32257
5.32451
5.33734
5.35542
5.37698
5.4001
5.4233
5.44559
5.46655
5.48604
5.50379
5.51903
5.53107
5.54019
5.54748
5.5533
5.55745
5.56007
5.56166
5.3363
5.33513
5.34472
5.35948
5.37777
5.39784
5.41838
5.43846
5.45761
5.47552
5.49187
5.50622
5.51818
5.52788
5.53581
5.54214
5.54682
5.54994
5.55253
5.35455
5.35036
5.35662
5.36793
5.38285
5.39978
5.41753
5.43523
5.45234
5.46853
5.48351
5.49694
5.50857
5.51843
5.52668
5.53342
5.53865
5.54246
5.54608
5.37604
5.36885
5.37186
5.37985
5.3915
5.40534
5.4203
5.43555
5.4506
5.46508
5.47866
5.4911
5.5022
5.5119
5.52023
5.52721
5.53296
5.53765
5.54214
5.39942
5.38959
5.38959
5.39448
5.40304
5.41394
5.42621
5.43914
5.45218
5.46492
5.4771
5.48848
5.49888
5.5082
5.51645
5.52359
5.52979
5.5353
5.54066
5.4238
5.41166
5.409
5.41108
5.41682
5.42504
5.43486
5.44556
5.45664
5.46771
5.47849
5.48879
5.49841
5.50726
5.5153
5.5225
5.52905
5.53525
5.54137
5.4482
5.43427
5.42934
5.42898
5.43228
5.43812
5.44568
5.45432
5.46358
5.47309
5.48255
5.49177
5.5006
5.5089
5.51663
5.52376
5.53054
5.53728
5.544
5.47215
5.45677
5.45001
5.44765
5.44886
5.45263
5.45822
5.46504
5.47266
5.48073
5.48898
5.49718
5.50518
5.51287
5.52019
5.52714
5.534
5.54111
5.54828
5.49509
5.47864
5.47059
5.46666
5.46614
5.46818
5.47211
5.47738
5.48357
5.49034
5.49743
5.50464
5.51182
5.51885
5.52569
5.53236
5.53917
5.54648
5.5539
5.51647
5.49984
5.4908
5.48568
5.48384
5.48449
5.48703
5.49097
5.49589
5.50149
5.50753
5.5138
5.52017
5.52653
5.53283
5.53914
5.54578
5.55314
5.5606
5.53649
5.51997
5.51038
5.50446
5.50164
5.50121
5.50263
5.50544
5.50927
5.51385
5.51892
5.52431
5.5299
5.53558
5.54133
5.54721
5.55359
5.56078
5.56814
5.55514
5.53896
5.52917
5.52278
5.51929
5.51805
5.51859
5.52048
5.5234
5.52707
5.53128
5.53587
5.54072
5.54574
5.55091
5.55632
5.56233
5.56929
5.57627
5.57236
5.55681
5.54711
5.54053
5.53663
5.53482
5.53469
5.53584
5.53799
5.54089
5.54433
5.54819
5.55234
5.55673
5.56132
5.56624
5.57182
5.57834
5.58485
5.58833
5.57358
5.56419
5.55765
5.55356
5.55139
5.55076
5.55133
5.55284
5.55507
5.55784
5.56103
5.56454
5.56832
5.57235
5.57676
5.58186
5.58782
5.59374
5.60314
5.58937
5.58048
5.57414
5.57002
5.56765
5.56667
5.5668
5.56779
5.56944
5.57161
5.5742
5.57711
5.58032
5.58381
5.58772
5.5923
5.59762
5.60285
5.61703
5.60433
5.59603
5.59003
5.58601
5.58355
5.58235
5.58213
5.58268
5.58384
5.58549
5.58752
5.58989
5.59256
5.59554
5.59895
5.60299
5.60766
5.61212
5.63011
5.61855
5.61093
5.60534
5.60152
5.59906
5.59771
5.59723
5.59743
5.59816
5.59933
5.60087
5.60273
5.60491
5.60742
5.61034
5.61386
5.61779
5.62152
5.64256
5.63213
5.62522
5.62011
5.61653
5.61415
5.61273
5.61204
5.61194
5.61231
5.61306
5.61414
5.61554
5.61726
5.61932
5.62179
5.62476
5.62805
5.63107
5.65442
5.64514
5.63896
5.63434
5.63105
5.62879
5.62733
5.6265
5.62616
5.62621
5.62658
5.62726
5.62824
5.62954
5.63119
5.63323
5.63568
5.63842
5.64082
5.66576
5.65759
5.65214
5.64802
5.64505
5.64294
5.6415
5.64057
5.64003
5.63981
5.63986
5.64018
5.64078
5.6417
5.64297
5.64462
5.64665
5.64893
5.65076
5.67655
5.66949
5.66474
5.66113
5.65849
5.65656
5.65517
5.65419
5.65351
5.65308
5.65287
5.65288
5.65315
5.65372
5.65465
5.65595
5.65765
5.65951
5.66089
5.68681
5.68078
5.67672
5.67362
5.67132
5.6696
5.66831
5.66732
5.66657
5.66599
5.66558
5.66535
5.66535
5.66564
5.66626
5.66727
5.66866
5.67017
5.67118
5.69644
5.69141
5.68801
5.68542
5.68347
5.682
5.68085
5.67992
5.67915
5.67849
5.67796
5.67758
5.67741
5.67749
5.67789
5.67863
5.67971
5.68088
5.68164
5.70543
5.70129
5.69853
5.69644
5.69489
5.69369
5.69274
5.69193
5.69121
5.69056
5.69
5.68958
5.68938
5.6894
5.68964
5.69013
5.69088
5.69168
5.69225
5.7136
5.71031
5.7082
5.70668
5.70557
5.70472
5.70403
5.70342
5.70285
5.7023
5.7018
5.70143
5.70138
5.70149
5.70168
5.70194
5.70229
5.70261
5.70299
5.72085
5.7183
5.71691
5.71602
5.71542
5.71498
5.71463
5.7143
5.71396
5.71359
5.71321
5.71282
5.71341
5.71391
5.71415
5.71421
5.71413
5.71382
5.71381
5.728
5.72594
5.72521
5.72487
5.7247
5.7246
5.72453
5.72446
5.72438
5.72425
5.72399
5.7233
5.72387
5.7245
5.72476
5.72479
5.72464
5.72428
5.7242
)
;

boundaryField
{
    leftWall
    {
        type            fixedFluxPressure;
        gradient        uniform 0;
        value           nonuniform List<scalar> 
50
(
6599.09
6578.81
6552.2
6516.61
6470.6
6411.34
4120.89
1592.21
1587.85
1576.05
1565.35
1558.34
1555.78
1557.61
1564.15
1579.01
1501.26
316.203
6.46396
6.06812
5.74114
5.72884
5.73176
5.74018
5.74896
5.75668
5.76328
5.76841
5.77267
5.7765
5.78012
5.78347
5.78636
5.78863
5.79016
5.79085
5.7907
5.78971
5.78794
5.78545
5.78235
5.77872
5.77467
5.77029
5.7657
5.76098
5.75624
5.75151
5.74715
5.73877
)
;
    }
    rightWall
    {
        type            fixedFluxPressure;
        gradient        uniform 0;
        value           nonuniform List<scalar> 
50
(
2598.02
2568.49
2334.08
1823.28
1705.74
1043.53
715.012
690.27
662.642
484.205
434.382
424.258
375.556
29.0404
5.74878
5.7297
5.69914
5.67156
5.64741
5.62562
5.60612
5.58916
5.57389
5.56166
5.55253
5.54608
5.54214
5.54066
5.54137
5.544
5.54828
5.5539
5.5606
5.56814
5.57627
5.58485
5.59374
5.60285
5.61212
5.62152
5.63107
5.64082
5.65076
5.66089
5.67118
5.68164
5.69225
5.70299
5.71381
5.7242
)
;
    }
    lowerWall
    {
        type            fixedFluxPressure;
        gradient        uniform 0;
        value           nonuniform List<scalar> 
62
(
6599.09
6678.31
6775.7
6873.63
6945.02
6976.59
6967.23
6920.27
6840.37
6732.32
6603.62
6458.18
6299.14
6130.84
5959.85
5795.53
5647.47
5522.83
5426.19
5359.91
5324.49
5316.77
5333.58
5333.58
5338.45
5339.73
5334.47
5315.86
3590.12
1273.25
1146.83
825.345
826.44
816.571
1052.32
2351.58
2299.12
2216.2
2136.04
1965.06
2145.85
2349.96
2396.23
2351.58
2411.16
2641.64
2899.97
2945.05
2757.27
2514.33
2493.92
2495.54
2470.78
2357.72
2213.75
2254.78
2303.64
2330.49
2354.65
2419.89
2525.61
2598.02
)
;
    }
    atmosphere
    {
        type            prghTotalPressure;
        rho             rho;
        psi             none;
        gamma           1;
        p0              uniform 0;
        value           nonuniform List<scalar> 
46
(
5.72892
5.72896
5.72899
5.729
5.72901
5.72901
5.72902
5.72902
5.72903
5.72904
5.72904
5.72903
5.72904
5.72904
5.72904
5.72904
5.72904
5.72904
5.72904
5.72904
5.72904
5.72904
5.72904
5.72904
5.72904
5.72904
5.72904
5.72904
5.72903
5.72903
5.72902
5.72902
5.72901
5.72902
5.72902
5.72903
5.72904
5.72904
5.72904
5.72904
5.72904
5.72904
5.72904
5.72904
5.72904
5.72904
)
;
        rho             rho;
    }
    defaultFaces
    {
        type            empty;
    }
}


// ************************************************************************* //
