/*--------------------------------*- C++ -*----------------------------------*\
  =========                 |
  \\      /  F ield         | OpenFOAM: The Open Source CFD Toolbox
   \\    /   O peration     | Website:  https://openfoam.org
    \\  /    A nd           | Version:  13
     \\/     M anipulation  |
\*---------------------------------------------------------------------------*/
FoamFile
{
    format      ascii;
    class       volScalarField;
    location    "1.25";
    object      rho;
}
// * * * * * * * * * * * * * * * * * * * * * * * * * * * * * * * * * * * * * //

dimensions      [1 -3 0 0 0 0 0];

internalField   nonuniform List<scalar> 
2268
(
13529
13529
13529
13529
13529
13529
13529
13529
13529
13529
13529
13529
13529
13529
13529
13529
13529
13529
13529
13529
13528.6
13522.3
13521.6
13529
13529
13529
13529
13529
13529
13529
13529
13529
13529
13529
13529
13529
13529
13529
13529
13529
13529
13529
13529
13529
13527.7
13521.6
13529
13529
13529
13529
13529
13529
13529
13529
13529
13529
13529
13529
13529
13529
13529
13529
13529
13529
13529
13529
13529
13529
13526.1
13529
13529
13529
13529
13529
13529
13529
13529
13529
13529
13529
13529
13529
13529
13529
13529
13529
13529
13529
13529
13529
13529
13528.6
13529
13529
13529
13529
13529
13529
13529
13529
13529
13529
13529
13529
13529
13529
13529
13529
13529
13529
13529
13529
13498.2
13529
13528.6
13509.2
13529
13529
13529
13529
13529
13529
13529
13529
13529
13529
13529
13529
13529
12681.4
11206.9
9629.11
8185.54
7058.84
6208.74
6185.65
6832.87
7779.1
7125.37
8769.32
10739
12214.2
12927.6
13324.4
13506.4
13528.6
13520.3
13529
13348.3
11967.3
9282.1
5986.61
3616.84
2203.47
1443.56
1120.1
1018.73
999.888
1010.35
1140.12
1271.2
1000
1038.07
2012.91
3785.07
5681.36
7060.94
8507.47
9282.15
8792.26
6738.66
4267.14
2365.26
1253.75
1000
1000
1000
1000
999.999
999.993
999.994
1075.89
993.356
995.405
1651.34
6682.55
11892
11892.8
11872.8
10871.1
7056.99
6931.21
7061.99
7259.29
6985.38
7014.55
9429.72
9490.87
9518.86
9551.64
9519.04
9497.97
9495.95
1631.99
1809.96
5691.21
11225.4
11951
11953.4
11941.7
11916.9
11919.2
11888.5
11228.3
9235.91
8191.78
8873.34
8836.08
8555.89
9001.13
9496.34
9496
1527.91
1683.11
1715.94
8274.84
10427.4
8937.21
8959.6
9334.12
9275.3
8277.82
7448.44
5838.73
3654.23
3644.94
3980.74
4119.73
4941.31
7327.48
7566.13
1591.97
4209.79
6974.4
6860.15
2131.37
1001.91
1049.81
1370.92
1417.22
2289.86
3065.76
3429.9
3698.81
3538.33
3182.01
3171.77
3236.42
3891.85
4632.54
1483.82
6929.32
7094.49
2256.6
999.844
999.809
1000.05
949.29
626.279
384.632
469.184
1621.99
3925.68
5048.59
5097.22
5107.09
5002.99
3936.69
4095.24
2637.25
6030.99
2079.26
1001
1001.05
1001.48
1027.94
1038.35
1007.71
918.179
807.413
673.044
637.238
1309.08
1846.89
2053.92
2550.34
2144.35
1828.06
3448.11
1378.56
1002.02
1001.17
1001.03
1001.46
1011.37
1018.05
1001.68
1000.07
971.641
915.514
927.066
907.734
884.918
868.43
871.148
856.419
890.268
3568.04
1000.73
1001.15
1000.84
1000.24
1000.36
999.901
999.896
999.852
1000.67
1002.8
1000.38
928.307
815.206
698.216
647.49
733.773
688.584
824.888
1000
1000
1000
1000
1106.21
1267.1
1191.88
1021.41
1014.1
1010.25
1000
1000
1000
1000
1000
1000
1000
1000
1000
1057.9
1168.08
904.183
808.796
1000
1000
1000
1000
1000
1000
1000
1000
1000
1000
1000
1000
1000
1000
1000
1000
1000
1000
884.076
803.165
586.798
591.604
534.766
1000
1000
1000
1000
1000
1000
1000
1000
1000
1000
1000
1000
1000
1000
1000
1000
922.612
799.553
665.718
434.966
488.75
499.989
500.001
1000
1000
1000
1000
1000
1000
1000
1000
1000
1000
1000
1000
1000
999.99
908.453
767.326
681.705
470.052
454.087
494.127
499.998
500
500.001
1000
1000
1000
1000
1000
1000
1000
1000
1000
996.532
999.882
959.349
821.498
715.831
620.163
469.026
440.734
483.127
499.818
500.001
500
500
500
1000
1000
1000
1000
996.254
975.984
932.753
911.577
867.298
749.436
658.189
606.125
484.928
430.607
435.461
485.664
499.586
500
500.002
500
500
500
500
1000
1000
1000
989.748
877.804
722.21
563.696
514.8
451.928
410.693
413.767
429.576
464.062
493.303
499.893
499.998
499.999
500
500.001
500
500
500
500
1000
999.994
949.181
659.375
513.471
450.69
439.26
440.161
488.918
482.722
499.12
499.982
500
500
500
499.998
499.998
500
500
500
500
500
500
930.059
764.582
366.423
451.452
499.751
499.999
500.002
500.001
500
500
500
500
500
500
500
500
500
500
500
500
500
500
500
181.426
77.7148
160.649
449.333
485.578
494.029
498.986
500.002
500.001
500
500
500
500
500
500
500
500
500
489.032
463.52
410.053
332.01
280.102
1.4122
7.00518
72.6955
104.427
146.781
196.091
247.986
293.661
339.888
368.699
385.941
392.652
389.475
375.669
353.415
322.442
275.773
207.287
145.285
98.0926
45.0116
12.3476
3.85196
1.15883
2.37051
1.00168
1.00797
1.01503
1.01154
1.00005
1.00006
2.22201
14.7099
23.0296
27.9909
28.9651
24.9775
18.1054
10.6762
3.99735
1.00023
1.00017
1.00024
1.00037
1.00045
1.00034
1.00063
1.00031
1.0003
1.00005
1.00004
1.00004
1.00005
1.00008
1.00002
1.00006
1.00017
1.0003
1.00018
1.00006
1.00014
1.00019
1.00021
1.00007
1.00006
1.00011
1.00028
1.00046
1.00065
1.00069
1.00343
1.00281
1.00005
1.00007
1.00007
1.00007
1.00012
1.00021
1.00084
1.00163
1.0011
1.00108
1.00008
1
1
1.00002
1.00003
1.00011
1.00038
1.00057
1.00074
1.00077
1.00019
1.00057
1.00022
1.00006
1.00005
1.00005
1.00005
1.00006
1.00012
1.00024
1.01384
1.03253
1.01233
1.00215
1
1
1.00001
1.00002
1.0001
1.0003
1.00053
1.00063
1.00043
1.00003
1.00009
1.00011
1.00006
1.00005
1.00004
1.00004
1.00004
1.00004
1.00011
1.00905
1.08715
1.09306
1.03162
1.00301
1.00155
1.00006
1.00057
1.00242
1.0025
1.0003
1.00014
1.00012
1.00003
1.00005
1.00007
1.00007
1.00005
1.00004
1.00003
1.00004
1.00004
1.00003
1.00015
1.04845
1.09198
1.09251
1.06985
1.00303
1.0027
1.00324
1.00337
1.0034
1.00337
1.00112
1.00005
1.00002
1.00004
1.00005
1.00006
1.00006
1.00004
1.00003
1.00003
1.00004
1.00004
1.00005
1.00008
1.00907
1.07334
1.08843
1.07057
1.00216
1.00194
1.00174
1.00202
1.00269
1.00177
1.00005
1.00002
1.00003
1.00004
1.00005
1.00006
1.00005
1.00003
1.00002
1.00002
1.00003
1.00004
1.00004
1.00006
1.00146
1.01439
1.02404
1.02034
1.00152
1.00051
1.00028
1.00024
1.00039
1.00021
1.00001
1.00002
1.00002
1.00003
1.00004
1.00005
1.00003
1.00002
1.00001
1.00002
1.00002
1.00002
1.00002
1.00003
1.00005
1.00005
1.00185
1.00267
1.00096
1.00006
1.00005
1.00005
1.00005
1.00001
1.00001
1.00001
1.00002
1.00003
1.00004
1.00003
1.00001
1.00001
1.00001
1.00001
1.00001
1.00002
1.00002
1.00001
1.00001
1.00003
1.00009
1.00022
1.00012
1.00003
1.00001
1.00001
1.00001
1.00001
1.00001
1.00001
1.00001
1.00002
1.00002
1.00001
1.00001
1.00001
1.00001
1.00001
1.00001
1.00001
1.00001
1.00001
1.00001
1
1.00001
1.00002
1.00001
1
1
1.00001
1
1
1
1.00001
1.00001
1.00001
1.00001
1.00001
1
1
1
1
1
1.00001
1.00001
1
1
1
1
1
1
1
1
1
1
1
1
1.00001
1.00001
1
1
1
1
1
1
1
1
1
1
1
1
1
1
1
1
1
1
1
1
1
1
1
1
1
1
1
1
1
1
1
1
1
1
1
1
1
1
1
1
1
1
1
1
1
1
1
1
1
1
1
1
1
1
1
1
1
1
1
1
1
1
1
1
1
1
1
1
1
1
1
1
1
1
1
1
1
1
1
1
1
1
1
1
1
1
1
1
1
1
1
1
1
1
1
1
1
1
1
1
1
1
1
1
1
1
1
1
1
1
1
1
1
1
1
1
1
1
1
1
1
1
1
1
1
1
1
1
1
1
1
1
1
1
1
1
1
1
1
1
1
1
1
1
1
1
1
1
1
1
1
1
1
1
1
1
1
1
1
1
1
1
1
1
1
1
1
1
1
1
1
1
1
1
1
1
1
1
1
1
1
1
1
1
1
1
1
1
1
1
1
1
1
1
1
1
1
1
1
1
1
1
1
1
1
1
1
1
1
1
1
1
1
1
1
1
1
1
1
1
1
1
1
1
1
1
1
1
1
1
1
1
1
1
1
1
1
1
1
1
1
1
1
1
1
1
1
1
1
1
1
1
1
1
1
1
1
1
1
1
1
1
1
1
1
1
1
1
1
1
1
1
1
1
1
1
1
1
1
1
1
1
1
1
1
1
1
1
1
1
1
1
1
1
1
1
1
1
1
1
1
1
1
1
1
1
1
1
1
1
1
1
1
1
1
1
1
1
1
1
1
1
1
1
1
1
1
1
1
1
1
1
1
1
1
1
1
1
1
1
1
1
1
1
1
1
1
1
1
1
1
1
1
1
1
1
1
1
1
1
1
1
1
1
1
1
1
1
1
1
1
1
1
1
1
1
1
1
1
1
1
1
1
1
1
1
1
1
1
1
1
1
1
1
1
1
1
1
1
1
1
1
1
1
1
1
1
1
1
1
1
1
1
1
1
1
1
1
1
1
1
1
1
1
1
1
1
1
1
1
490.046
493.373
475.831
941.198
496.276
498.356
463.098
763.463
500.67
500.237
447.193
643.721
500.007
500.19
491.392
481.438
500
500.035
500.01
500
499.996
500
500
500
500
500
500
500
500
500
500
500
500
489.238
465.553
453.464
224.599
142.334
93.0566
76.4899
1.14693
1.0007
1.00066
1.00043
1.00038
1.00045
1.00066
1.00049
1.00078
1.00079
1.00074
1.00066
1.00077
1.00064
1.0003
1.00021
1.00017
1.00009
1.00008
1.00005
1.00006
1.00006
1.00005
1.00004
1.00005
1.00009
1.00011
1.0001
1.00002
1.00005
1.00007
1.00006
1.00002
1.00002
1.00002
1.00002
1.00002
1.00001
1.00001
1.00001
1.00001
1.00001
1.00001
1.00001
1
1
1
1
1
1
1
1
1
1
1
1
1
1
1
1
1
1
1
1
1
1
1
1
1
1
1
1
1
1
1
1
1
1
1
1
1
1
1
1
1
1
1
1
1
1
1
1
1
1
1
1
1
1
1
1
1
1
1
1
1
1
1
1
1
1
1
1
1
1
1
1
1
1
1
1
1
1
1
1
1
1
1
1
2879.47
1011.97
999.899
993.851
993.747
993.188
996.38
994.237
989.063
965.75
905.545
797.197
674.796
576.61
529.35
502.955
509.577
560.112
755.23
1003.19
940.115
868.232
832.672
728.4
708.221
722.65
702.093
674.746
614.488
544.445
502.31
500.273
499.791
499.912
499.639
499.734
500.193
454.84
783.673
712.783
557.106
514.808
500.13
499.28
499.514
499.795
499.966
500.021
499.962
500.525
500.234
499.987
500.118
499.87
499.805
444.791
391.155
533.23
472.877
482.721
499.634
500.004
500.005
500.003
500.001
500.001
500
500
496.603
485.488
477.076
473.225
487.365
496.784
421.968
383.224
498.64
499.774
500.001
500.002
500.002
500.001
500
500
500
459.033
365.555
257.421
199.466
202.043
226.319
270.852
319.217
342.362
335.991
500
500
500
500
500
500
500
456.131
309.516
122.411
17.2261
1.1671
1.00801
1.23666
17.0476
48.2142
34.5654
23.2775
20.0831
500
500
500
500
500
467.075
324.795
95.2897
1.00002
1.00003
1.00002
1.00107
1.00144
1.01346
1.83238
4.91152
2.56019
1.00055
1.00059
500
500
500
459.877
292.975
60.3533
1.00004
1.00002
1.00002
1.00002
1.00006
1.00015
1.01629
2.92171
4.48263
4.20008
1.12682
1.00053
1.00064
426.651
335.398
176.161
36.3304
1.00012
1.00002
1.00002
1.00002
1.02997
1.43012
1.48414
1.01323
1.06966
2.86501
3.24777
1.10183
1.00023
1.00051
1.00057
49.6255
11.3472
1.00025
1.00007
1.00008
1.00035
1.00034
1.00312
1.36993
1.58206
1.58094
1.12011
1.02008
1.26618
1.00163
1.00011
1.00023
1.00006
1.00014
1.00047
1.00014
1.00006
1.00005
1.00043
1.00102
1.00035
1.02444
1.11032
1.16478
1.14188
1.04676
1.00028
1.00013
1.00013
1.00016
1.00005
1.00006
1.00061
1.00036
1.00017
1.00005
1.00009
1.00111
1.00126
1.00138
1.00268
1
1.00001
1.00002
1.00003
1.00011
1.00015
1.00016
1.00012
1.00001
1.0001
1.00086
1.00034
1.00005
1.00003
1.00005
1.00019
1.00029
1.00014
1.00003
1
1.00001
1.00001
1.00003
1.00005
1.00006
1.00005
1.00001
1.00001
1.00012
1.00086
1.00008
1.00001
1.00001
1.00001
1.00001
1.00001
1
1
1
1
1.00001
1.00001
1.00001
1
1
1
1.00001
1.00013
1.0008
1.00002
1.00001
1.00001
1.00001
1
1
1
1
1
1
1
1
1
1
1
1
1.00001
1.00014
1.00035
1.00003
1.00002
1.00002
1.00001
1.00001
1
1
1
1
1
1
1
1
1
1
1
1
1.00011
1.0001
1.00008
1.00003
1.00001
1.00001
1.00001
1.00001
1
1
1
1
1
1
1
1
1
1
1
1.00004
1.00005
1.00005
1.00004
1.00002
1.00001
1.00001
1.00001
1
1
1
1
1
1
1
1
1
1
1
1
1.00003
1.00002
1.00002
1.00001
1.00001
1.00001
1
1
1
1
1
1
1
1
1
1
1
1
1
1
1.00001
1.00001
1.00001
1.00001
1
1
1
1
1
1
1
1
1
1
1
1
1
1
1
1.00001
1.00001
1
1
1
1
1
1
1
1
1
1
1
1
1
1
1
1.00001
1.00001
1
1
1
1
1
1
1
1
1
1
1
1
1
1
1
1
1
1.00001
1.00001
1
1
1
1
1
1
1
1
1
1
1
1
1
1
1
1
1.00001
1.00001
1.00001
1
1
1
1
1
1
1
1
1
1
1
1
1
1
1
1
1.00001
1.00001
1.00001
1
1
1
1
1
1
1
1
1
1
1
1
1
1
1
1
1.00001
1.00002
1.00001
1
1
1
1
1
1
1
1
1
1
1
1
1
1
1
1.00001
1.00002
1.00002
1.00002
1
1
1
1
1
1
1
1
1
1
1
1
1
1
1
1.00001
1.00002
1.00004
1.00002
1
1
1
1
1
1
1
1
1
1
1
1
1
1
1
1.00001
1.00003
1.00005
1.00002
1
1
1
1
1
1
1
1
1
1
1
1
1
1
1
1.00002
1.00004
1.00006
1.00002
1
1
1
1
1
1
1
1
1
1
1
1
1
1
1
1.00002
1.00005
1.00006
1.00002
1
1
1
1
1
1
1
1
1
1
1
1
1
1
1.00001
1.00002
1.00005
1.00005
1.00001
1
1
1
1
1
1
1
1
1
1
1
1
1
1
1.00001
1.00002
1.00005
1.00004
1.00001
1
1
1
1
1
1
1
1
1
1
1
1
1
1
1.00001
1.00002
1.00003
1.00002
1
1
1
1
1
1
1
1
1
1
1
1
1
1
1
1.00001
1.00001
1.00001
1.00001
1
1
1
1
1
1
1
1
1
1
1
1
1
1
1
1
1.00001
1
1
1
1
1
1
1
1
1
1
1
1
1
1
1
1
1
1
1
1
1
1
1
1
1
1
1
1
1
1
1
1
1
1
1
1
1
1
1
1
1
1
1
1
1
1
1
1
1
1
1
1
1
1
1
1
1
1
1
1
1
1
1
1
1
1
1
1
1
1
1
1
1
1
1
1
1
1
1
1
1
1
1
1
1
1
1
1
1
1
1
1
1
1
1
1
1
1
1
1
1
1
1
1
1
1
1
1
1
1
1
1
1
1
1
1
1
1
1
1
1
1
1
1
1
1
1
1
1
1
1
1
1
1
1
1
)
;

boundaryField
{
    leftWall
    {
        type            calculated;
        value           nonuniform List<scalar> 
50
(
13529
13529
13529
13529
13529
13509.2
7125.37
1000
1000
1000
1000
1000
1000
1000
1000
1000
930.059
181.426
1.4122
1.15883
1.00063
1.00069
1.00019
1.00003
1.00003
1.00002
1.00002
1.00001
1.00001
1.00001
1.00001
1
1
1
1
1
1
1
1
1
1
1
1
1
1
1
1
1
1
1
)
;
    }
    rightWall
    {
        type            calculated;
        value           nonuniform List<scalar> 
50
(
9495.95
9496
7566.13
4632.54
4095.24
1828.06
890.268
824.888
755.23
454.84
391.155
383.224
335.991
20.0831
1.00059
1.00064
1.00057
1.00014
1.00061
1.00086
1.00086
1.0008
1.00035
1.0001
1.00005
1.00003
1
1
1.00001
1.00001
1.00001
1.00001
1.00001
1.00002
1.00002
1.00002
1.00002
1.00002
1.00001
1.00001
1
1
1
1
1
1
1
1
1
1
)
;
    }
    lowerWall
    {
        type            calculated;
        value           nonuniform List<scalar> 
62
(
13529
13529
13529
13529
13529
13529
13529
13529
13529
13529
13529
13529
13529
13529
13529
13529
13529
13529
13529
13529
13528.6
13522.3
13521.6
13521.6
13521.6
13526.1
13528.6
13528.6
7779.1
1271.2
995.405
490.046
493.373
475.831
941.198
1651.34
1631.99
1527.91
1591.97
1483.82
2637.25
3448.11
3568.04
1651.34
6682.55
11892
11892.8
11872.8
10871.1
7056.99
6931.21
7061.99
7259.29
6985.38
7014.55
9429.72
9490.87
9518.86
9551.64
9519.04
9497.97
9495.95
)
;
    }
    atmosphere
    {
        type            calculated;
        value           nonuniform List<scalar> 
46
(
1
1
1
1
1
1
1
1
1
1
1
1
1
1
1
1
1
1
1
1
1
1
1
1
1
1
1
1
1
1
1
1
1
1
1
1
1
1
1
1
1
1
1
1
1
1
)
;
    }
    defaultFaces
    {
        type            empty;
    }
}


// ************************************************************************* //
