/*--------------------------------*- C++ -*----------------------------------*\
  =========                 |
  \\      /  F ield         | OpenFOAM: The Open Source CFD Toolbox
   \\    /   O peration     | Website:  https://openfoam.org
    \\  /    A nd           | Version:  13
     \\/     M anipulation  |
\*---------------------------------------------------------------------------*/
FoamFile
{
    format      ascii;
    class       volScalarField;
    location    "2.8";
    object      alphas;
}
// * * * * * * * * * * * * * * * * * * * * * * * * * * * * * * * * * * * * * //

dimensions      [];

internalField   nonuniform List<scalar> 
2268
(
2
2
2
2
2
2
2
2
2
2
2
2
2
2
2
2
2
2
2
1.99984
1.99945
1.99945
1.99946
2
2
2
2
2
2
2
2
2
2
2
2
2
2
2
2
2
2
2
1.99998
1.99993
1.9999
1.99999
2
2
2
2
2
2
2
2
2
2
2
2
2
2
2
2
2
2
2
2
2
2
2
2
2
2
2
2
2
2
2
2
2
2
2
2
2
2
2
2
2
2
2
2
2
2
2
2
2
2
2
2
2
2
2
2
2
2
2
2
2
2
2
2
2
2
2
2
2
1.40883
1.38316
1.3832
1.42517
1.49575
1.59247
1.70686
1.81455
1.89986
1.97178
2
2
2
2
2
2
2
2
2
2
2
2
2.00011
0.0781182
0.0699618
0.0705099
0.0862713
0.116195
0.160289
0.223477
0.321081
0.460545
0.621182
0.816715
1.03055
1.22305
1.38403
1.50153
1.57521
1.61669
1.62975
1.62521
1.61008
1.56723
1.47418
1.39078
8.62318e-08
1.45179e-07
9.00326e-08
1.1679e-06
2.73671e-06
7.15013e-06
1.78102e-06
7.38587e-07
4.83023e-07
3.4544e-07
2.53202e-07
0.00623603
0.0257945
0.0533447
0.0873498
0.127888
0.163382
0.194801
0.211803
0.200297
0.164637
0.114719
0.0883428
1.8698
1.86969
1.8981
1.92442
1.90186
1.76806
1.76711
1.7628
1.77756
1.78
1.77158
1.71951
1.69929
1.75201
1.72371
1.65784
1.74001
1.77742
1.76759
1.87023
1.87092
1.85822
1.75987
1.73571
1.7761
1.81472
1.8071
1.93747
2.0288
1.90042
1.79135
1.85586
1.9488
1.91865
1.86436
1.77693
1.77635
1.76724
1.629
1.62352
1.53678
1.34122
1.05396
1.02815
0.968147
0.948996
1.28603
2.21739
2.347
2.09571
2.08889
2.25447
2.2582
1.97558
1.6917
1.60187
1.59494
1.55068
1.28326
0.918088
0.709255
0.654575
0.546859
0.330083
0.224561
0.338889
1.26197
2.18859
2.3989
2.39876
2.35187
2.2868
1.9967
1.51009
1.32855
1.688
0.803535
0.371203
0.291084
0.298624
0.560444
0.818886
0.824023
0.82569
0.352409
0.0267373
0.909172
1.92903
2.2433
2.11932
0.955695
0.390876
0.359752
0.140354
0.972063
0.255182
0.182813
0.184714
0.198227
0.690512
0.927106
1.04208
1.06121
0.487342
0.0266388
0.00271776
0.734268
1.93411
0.975746
0.0812052
0.000178061
0.00017367
0.000181098
0.826333
0.161412
0.2105
0.211843
0.154292
0.6798
1.07031
1.08846
0.614241
0.119321
0.0155543
0.0010496
0.00091298
1.88338
0.789753
0.000256456
0.000239389
0.000217235
0.00123215
0.682816
0.236282
0.255737
0.240414
0.155763
0.398895
1.16024
1.16048
0.247881
0.00169716
0.00135504
0.00105837
0.100203
1.86788
0.637195
0.00844873
0.000233245
0.00329348
0.00182862
0.566727
7.79097e-08
7.6907e-08
1.58885e-06
0.000133296
0.000154664
4.10509e-06
8.03947e-07
5.09996e-07
3.20895e-07
1.73659e-07
1.1742e-07
8.81007e-08
5.62095e-08
2.812e-08
3.71261e-08
1.07975e-07
2.24524e-07
3.7842e-07
9.27594e-07
1.21863e-05
0.000777253
0.00563491
0.0126879
7.72442e-08
0.00192464
0.00444637
0.00187813
6.48402e-05
9.39608e-09
8.45024e-09
3.64717e-08
2.83969e-08
2.19301e-08
1.80229e-08
1.38661e-08
1.27351e-08
1.10422e-07
2.71194e-07
4.75497e-07
7.19255e-07
9.18883e-07
1.53371e-06
0.000504222
0.00981653
0.0495979
0.139783
0.26133
0.107662
0.00330667
0.000508877
2.17407e-05
1.98472e-09
2.07102e-09
2.10604e-09
2.10689e-09
2.05261e-09
1.98887e-09
1.7075e-05
0.00125106
0.00803862
0.0270864
0.0545484
0.0834905
0.100249
0.169745
0.284148
0.416999
0.559566
0.820112
0.53924
0.585412
0.530221
0.500056
0.420472
0.308099
0.365192
0.421968
0.395894
0.36744
0.365386
0.380984
0.445858
0.555897
0.620161
0.669059
0.765718
0.936813
1.05178
1.12367
1.15964
1.11076
1.13237
1.1875
1.02113
0.999439
0.997623
0.994092
1.14873
1.25431
1.23929
1.24808
1.25845
1.27716
1.3011
1.22694
1.15888
1.19416
1.27492
1.25508
1.0755
1.0013
1
1
1
1.03571
1.02296
1.00028
1.00032
0.999963
1.04545
1.10046
1.04428
1.00548
1.01859
1.04671
1.0422
1.02269
1.00596
1.00001
1
1
1
1
1
1
1.00076
1.0011
0.999999
1.00115
0.999342
0.999946
1
1.00027
1.00002
1
1
1
1
1
1
1
1
1
1
1
1
1
1
1
1
0.999999
1.13642
1.16212
1.18483
1.20009
1.20665
1.21734
1.21412
1.198
1.19097
1.1924
1.20251
1.22204
1.25189
1.2887
1.33086
1.38021
1.43763
1.5034
1.56288
1.5977
1.59508
1.55423
1.4904
2.51003
2.55195
2.61811
2.647
2.65184
2.64611
2.65228
2.66644
2.6748
2.68242
2.69648
2.72035
2.75209
2.78619
2.82017
2.85237
2.88069
2.9042
2.91994
2.92619
2.92253
2.90921
2.88513
2.99999
3
2.99999
3
3
3
3
3
3
3
3
3
3
3
3
3
3
3
3
3
3
3
3
3
3
3
3
3
3
3
3
3
3
3
3
3
3
3
3
3
3
3
3
3
3
3
3
2.99999
2.99999
3
3
3
2.99996
2.99985
2.99993
2.99999
3
3
3
3
3
3
3
3
3
3
3
3
3
2.99999
2.99998
2.99995
2.99998
3
2.99999
2.99974
2.99967
2.9997
2.99998
3
3
3
3
3
3
3
3
3
3
3
3
3
2.99999
2.99994
2.99989
2.99991
3
2.99996
2.99968
2.99967
2.99967
2.99982
2.99999
2.99999
3
3
3
3
3
3
3
3
3
3
3
2.99999
2.99993
2.99989
2.99989
3
3
2.9999
2.99967
2.99967
2.99987
2.99999
2.99999
2.99999
2.99999
3
3
3
3
3
3
3
3
3
3
2.99997
2.99991
2.99996
3
3
3
2.99997
2.99993
2.99999
2.99999
2.99999
2.99999
2.99999
3
3
3
3
3
3
3
3
3
3
3
2.99999
3
3
3
3
3
3
3
3
3
3
3
3
3
3
3
3
3
3
3
3
3
3
3
3
3
3
3
3
3
3
3
3
3
3
3
3
3
3
3
3
3
3
3
3
3
3
3
3
3
3
3
3
3
3
3
3
3
3
3
3
3
3
3
3
3
3
3
3
3
3
3
3
3
3
3
3
3
3
3
3
3
3
3
3
3
3
3
3
3
3
3
3
3
3
3
3
3
3
3
3
3
3
3
3
3
3
3
3
3
3
3
3
3
3
3
3
3
3
3
3
3
3
3
3
3
3
3
3
3
3
3
3
3
3
3
3
3
3
3
3
3
3
3
3
3
3
3
3
3
3
3
3
3
3
3
3
3
3
3
3
3
3
3
3
3
3
3
3
3
3
3
3
3
3
3
3
3
3
3
3
3
3
3
3
3
3
3
3
3
3
3
3
3
3
3
3
3
3
3
3
3
3
3
3
3
3
3
3
3
3
3
3
3
3
3
3
3
3
3
3
3
3
3
3
3
3
3
3
3
3
3
3
3
3
3
3
3
3
3
3
3
3
3
3
3
3
3
3
3
3
3
3
3
3
3
3
3
3
3
3
3
3
3
3
3
3
3
3
3
3
3
3
3
3
3
3
3
3
3
3
3
3
3
3
3
3
3
3
3
3
3
3
3
3
3
3
3
3
3
3
3
3
3
3
3
3
3
3
3
3
3
3
3
3
3
3
3
3
3
3
3
3
3
3
3
3
3
3
3
3
3
3
3
3
3
3
3
3
3
3
3
3
3
3
3
3
3
3
3
3
3
3
3
3
3
3
3
3
3
3
3
3
3
3
3
3
3
3
3
3
3
3
3
3
3
3
3
3
3
3
3
3
3
3
3
3
3
3
3
3
3
3
3
3
3
3
3
3
3
3
3
3
3
3
3
3
3
3
3
3
3
3
3
3
3
3
3
3
3
3
3
3
3
3
3
3
3
3
3
3
3
3
3
3
3
3
3
3
3
3
3
3
3
3
3
3
3
3
3
3
3
3
3
3
3
3
3
3
3
3
3
3
3
3
3
3
3
3
3
3
3
3
3
3
3
3
3
3
3
3
3
3
3
3
3
3
3
3
3
3
3
3
3
3
3
3
3
3
3
3
3
3
3
3
3
3
3
3
3
3
3
3
3
3
3
3
3
3
3
3
3
3
3
3
3
3
3
3
3
3
3
3
3
3
3
3
3
3
3
3
3
3
3
3
3
3
3
3
3
3
3
3
3
3
3
3
3
3
3
3
3
3
3
3
3
3
3
3
3
3
3
3
3
3
3
3
3
3
3
3
3
3
3
3
3
3
3
3
3
3
3
3
3
3
3
0.0691236
0.116172
0.105137
0.0977592
0.262335
0.223294
0.0977771
0.0252827
0.923494
1.02064
1.00757
0.655247
1.2491
1.27425
1.27428
1.21548
1.04523
1.02615
1.00055
1.00018
0.999997
0.999993
0.999993
0.999991
0.999997
1
0.999995
0.999988
1.4276
1.3863
1.34876
1.31043
2.85578
2.83473
2.81507
2.79669
3
3
3
3
3
3
3
3
3
3
3
3
3
3
3
3
3
3
3
3
3
3
3
3
3
3
3
3
3
3
3
3
3
3
3
3
3
3
3
3
3
3
3
3
3
3
3
3
3
3
3
3
3
3
3
3
3
3
3
3
3
3
3
3
3
3
3
3
3
3
3
3
3
3
3
3
3
3
3
3
3
3
3
3
3
3
3
3
3
3
3
3
3
3
3
3
3
3
3
3
3
3
3
3
3
3
3
3
3
3
3
3
3
3
3
3
3
3
3
3
3
3
3
3
3
3
3
3
3
3
3
3
0.0439721
0.0520891
0.0884073
0.108696
0.269805
1.02906
0.882365
0.12271
0.00244998
0.00189025
0.00131456
0.0367844
0.636642
0.0607897
0.000246971
0.000234431
0.026151
0.224683
0.349752
0.0124046
0.0127356
0.124044
0.195626
0.550289
0.893531
0.800608
0.458004
0.0902332
0.0271624
0.0112526
0.0108449
0.0169597
0.0241111
0.107055
0.264899
0.477296
0.547503
0.308421
0.548478
0.689094
0.791145
0.660942
0.693768
1.06743
0.964176
0.816535
0.801024
0.735111
0.720426
0.643973
0.532552
0.651343
0.809065
0.894068
0.949109
0.958266
0.839327
1.18018
1.23452
1.2356
1.09201
1.06679
1.26188
1.30353
1.30961
1.1415
0.999936
1
1.00005
1.00012
1.00009
1.00035
1.00063
1.01121
1.03857
1.02567
1.0026
1.01434
1.01264
1.00223
1.00013
1.03181
1.19303
1.18443
1.03504
1.00001
1
1
1
0.999999
1.00016
1.00048
1.00024
1.00002
0.999913
0.999985
0.999987
0.999997
1.00014
1.00011
0.999992
1.00032
1.00011
1
1
1
1
1
1
1.00001
1.00011
1.00007
1.00001
1
0.999991
0.999996
0.999999
0.999999
0.999998
0.999997
0.999999
1
1
1
1
1
0.999993
0.999988
1
1.00002
0.999999
0.999974
0.999973
1.25446
1.16948
1.10722
1.05982
1.01732
1
1
1
1
1
1
1
0.999997
0.999986
0.99962
0.996927
0.995982
0.996603
0.995192
2.76675
2.70374
2.63205
2.55117
2.454
2.32332
2.19365
2.09044
2.00875
1.93069
1.84906
1.76699
1.68708
1.62244
1.66323
1.77194
1.83941
1.88451
1.83133
3
3
3
3
3
3
2.99999
2.99892
2.9955
2.98919
2.97859
2.96257
2.9423
2.92358
2.93626
2.96357
2.97889
2.98348
2.98122
3
3
3
2.99961
2.99909
2.99874
2.99877
2.99949
2.99994
2.9999
2.99981
2.99956
2.99935
2.99852
2.99906
3
3
3
2.99995
3
3
3
2.99939
2.99836
2.99833
2.99833
2.99962
2.99998
2.99995
2.99926
2.99872
2.99867
2.99912
2.99999
3
3
3
3
3
3
3
3
3
2.99989
2.99998
2.99997
3
3
2.99954
2.99894
2.99913
2.99964
3
3
3
3
3
3
3
3
3
3
3
3
3
3
2.99999
2.99999
2.99997
3
3
3
3
3
3
3
3
3
3
3
3
3
3
3
3
3
3
3
3
3
3
3
3
3
3
3
3
3
3
3
3
3
3
3
3
3
3
3
3
3
3
3
3
3
3
3
3
3
3
3
3
3
3
3
3
3
3
3
3
3
3
3
3
3
3
3
3
3
3
3
3
3
3
3
3
3
3
3
3
3
3
3
3
3
3
3
3
3
3
3
3
3
3
3
3
3
3
3
3
3
3
3
3
3
3
3
3
3
3
3
3
3
3
3
3
3
3
3
3
3
3
3
3
3
3
3
3
3
3
3
3
3
3
3
3
3
3
3
3
3
3
3
3
3
3
3
3
3
3
3
3
3
3
3
3
3
3
3
3
3
3
3
3
3
3
3
3
3
3
3
3
3
3
3
3
3
3
3
3
3
3
3
3
3
3
3
3
3
3
3
3
3
3
3
3
3
3
3
3
3
3
3
3
3
3
3
3
3
3
3
3
3
3
3
3
3
3
3
3
3
3
3
3
3
3
3
3
3
3
3
3
3
3
3
3
3
3
3
3
3
3
3
3
3
3
3
3
3
3
3
3
3
3
3
3
3
3
3
3
3
3
3
3
3
3
3
3
3
3
3
3
3
3
3
3
3
3
3
3
3
3
3
3
3
3
3
3
3
3
3
3
3
3
3
3
3
3
3
3
3
3
3
3
3
3
3
3
3
3
3
3
3
3
3
3
3
3
3
3
3
3
3
3
3
3
3
3
3
3
3
3
3
3
3
3
3
3
3
3
3
3
3
3
3
3
3
3
3
3
3
3
3
3
3
3
3
3
3
3
3
3
3
3
3
3
3
3
3
3
3
3
3
3
3
3
3
3
3
3
3
3
3
3
3
3
3
3
3
3
3
3
3
3
3
3
3
3
3
3
3
3
3
3
3
3
3
3
3
3
3
3
3
3
3
3
3
3
3
3
3
3
3
3
3
3
3
3
3
3
3
3
3
3
3
3
3
3
3
3
3
3
3
3
3
3
3
3
3
3
3
3
3
3
3
3
3
3
3
3
3
3
3
3
3
3
3
3
3
3
3
3
3
3
3
3
3
3
3
3
3
3
3
3
3
3
3
3
3
3
3
3
3
3
3
3
3
3
3
3
3
3
3
3
3
3
3
3
3
3
3
3
3
3
3
3
3
3
3
3
3
3
3
3
3
3
3
3
3
3
3
3
3
3
3
3
3
3
3
)
;

boundaryField
{
    leftWall
    {
        type            calculated;
        value           nonuniform List<scalar> 
50
(
2
2
2
2
2
1.40883
0.0781182
8.62318e-08
7.79097e-08
7.72442e-08
0.26133
0.53924
1.1875
1.02296
1.00115
1.13642
2.51003
2.99999
3
3
2.99999
2.99999
2.99999
3
3
3
3
3
3
3
3
3
3
3
3
3
3
3
3
3
3
3
3
3
3
3
3
3
3
3
)
;
    }
    rightWall
    {
        type            calculated;
        value           nonuniform List<scalar> 
50
(
1.76759
1.76724
1.59494
1.688
0.972063
0.826333
0.682816
0.566727
0.349752
0.308421
0.839327
1.02567
0.999913
1
0.999973
0.995192
1.83133
2.98122
2.99995
3
3
3
3
3
3
3
3
3
3
3
3
3
3
3
3
3
3
3
3
3
3
3
3
3
3
3
3
3
3
3
)
;
    }
    lowerWall
    {
        type            calculated;
        value           nonuniform List<scalar> 
62
(
2
2
2
2
2
2
2
2
2
2
2
2
2
2
2
2
2
2
2
1.99984
1.99945
1.99945
1.99946
1.99946
1.99999
2
2
2
2.00011
1.39078
0.0883428
0.0691236
0.116172
0.105137
0.0977592
1.8698
1.87023
1.629
1.55068
0.803535
0.255182
0.161412
0.236282
1.8698
1.86969
1.8981
1.92442
1.90186
1.76806
1.76711
1.7628
1.77756
1.78
1.77158
1.71951
1.69929
1.75201
1.72371
1.65784
1.74001
1.77742
1.76759
)
;
    }
    atmosphere
    {
        type            calculated;
        value           nonuniform List<scalar> 
46
(
3
3
3
3
3
3
3
3
3
3
3
3
3
3
3
3
3
3
3
3
3
3
3
3
3
3
3
3
3
3
3
3
3
3
3
3
3
3
3
3
3
3
3
3
3
3
)
;
    }
    defaultFaces
    {
        type            empty;
    }
}


// ************************************************************************* //
