/*--------------------------------*- C++ -*----------------------------------*\
  =========                 |
  \\      /  F ield         | OpenFOAM: The Open Source CFD Toolbox
   \\    /   O peration     | Website:  https://openfoam.org
    \\  /    A nd           | Version:  13
     \\/     M anipulation  |
\*---------------------------------------------------------------------------*/
FoamFile
{
    format      ascii;
    class       volScalarField;
    location    "2.8";
    object      alpha.mercury;
}
// * * * * * * * * * * * * * * * * * * * * * * * * * * * * * * * * * * * * * //

dimensions      [];

internalField   nonuniform List<scalar> 
2268
(
1
1
1
1
1
1
1
1
1
1
1
1
1
1
1
1
1
1
1
0.999835
0.999449
0.999451
0.99946
1
1
1
1
1
1
1
1
1
1
1
1
1
1
1
1
1
1
0.999999
0.999977
0.999926
0.999898
0.999988
1
1
1
1
1
1
1
1
1
1
1
1
1
1
1
1
1
1
1
1
1
1
1
1
1
1
1
1
1
1
1
1
1
1
1
1
1
1
1
1
1
1
1
1
1
1
1
1
1
1
1
1
1
1
1
1
1
1
1
1
1
1
1
1
1
1
1
1
0.999996
0.704415
0.691581
0.691598
0.712583
0.747874
0.796233
0.85343
0.907273
0.94993
0.98589
1
1
1
1
1
1
1
1
1
0.999999
0.999998
0.999997
0.999847
0.0390591
0.0349809
0.0352549
0.0431346
0.0580956
0.0801429
0.111738
0.160541
0.230273
0.310591
0.408358
0.515274
0.611524
0.692017
0.750765
0.787605
0.808347
0.814873
0.812605
0.805041
0.783602
0.736598
0.694258
2.82426e-10
7.97283e-18
2.98249e-10
5.37791e-07
1.06184e-06
3.19766e-14
2.9803e-15
1.55748e-07
1.98527e-07
1.63704e-07
1.21941e-07
0.00311801
0.0128973
0.0266723
0.0436749
0.063944
0.0816909
0.0974
0.105901
0.100146
0.0822553
0.0544861
0.0379812
0.877966
0.877963
0.87789
0.87783
0.799862
0.65612
0.656788
0.665901
0.68751
0.690131
0.650762
0.639459
0.687324
0.752705
0.752715
0.752705
0.752695
0.752684
0.75259
0.877962
0.877966
0.870214
0.833357
0.817834
0.823733
0.82462
0.825156
0.825109
0.825129
0.770861
0.683665
0.75266
0.752628
0.752715
0.752706
0.752696
0.752573
0.75216
0.635089
0.621512
0.535208
0.439278
0.453671
0.504137
0.482368
0.473837
0.448547
0.561847
0.578611
0.602419
0.561092
0.584734
0.611951
0.61935
0.58336
0.54144
0.502708
0.53334
0.389803
0.210707
0.136315
0.0818955
0.0521591
0.0398501
0.0341706
0.0833707
0.0647433
0.190545
0.252488
0.250588
0.204321
0.155169
0.095166
0.101839
0.135154
0.217968
0.165958
0.081834
0.096341
0.113918
0.0612139
0.0347259
0.0323093
0.0305594
0.0303161
0.00759845
0.00120605
0.035965
0.10574
0.0561723
2.06765e-12
2.38898e-12
2.91372e-14
6.69522e-14
3.73759e-05
0.0521108
0.0731621
0.0743883
0.0787196
0.1009
0.0672946
0.0702849
0.0737298
0.0521451
0.0129781
0.00133747
0.000150091
0.0013136
0.000696772
1.1423e-07
2.64738e-06
4.69465e-07
3.19897e-07
8.56984e-08
0.051578
0.0435057
0.0392889
0.0463581
0.0896228
0.0878075
0.0785419
0.0786707
0.0255392
0.00775682
0.000504432
0.000143829
7.11036e-08
7.16379e-08
4.79372e-07
9.06526e-06
7.05745e-07
3.49707e-06
1.40319e-07
0.0325287
0.0307452
0.0252196
0.0141631
0.0179819
0.0852579
0.0857957
0.0335811
0.000114297
0.000432702
0.000489219
0.000114833
7.10939e-08
7.11035e-08
3.9149e-07
9.69237e-06
1.83427e-05
6.25192e-05
1.68369e-06
2.6716e-10
3.23225e-10
3.81329e-09
7.62716e-08
2.88953e-10
2.8748e-10
3.21308e-10
3.3629e-10
3.41718e-10
2.27964e-10
2.37982e-13
5.88551e-16
1.13136e-25
1.27434e-26
2.13085e-27
6.66971e-27
-1.33394e-26
9.09015e-27
-4.50834e-27
-9.86643e-29
3.36479e-15
-7.5912e-07
-8.85222e-08
3.33714e-10
3.7267e-10
7.66882e-10
6.60659e-10
7.24615e-10
8.81349e-10
8.60098e-10
7.64705e-10
6.93862e-10
7.40101e-10
9.43813e-10
1.01759e-09
8.26208e-10
1.70101e-09
4.10991e-09
4.31526e-09
5.28459e-09
7.92361e-09
3.36549e-09
3.63396e-11
1.64053e-07
4.22877e-07
1.9049e-07
3.83178e-10
4.38032e-10
5.55097e-10
6.66709e-10
8.59882e-10
9.77455e-10
1.05613e-09
1.06562e-09
1.06091e-09
1.03113e-09
9.96838e-10
9.17592e-10
7.50269e-10
6.60885e-10
6.62309e-10
7.05829e-10
1.10134e-09
2.20664e-09
1.57866e-09
4.26233e-11
5.5661e-07
9.17483e-07
6.68117e-07
4.33839e-10
4.80426e-10
5.63093e-10
6.32538e-10
7.12523e-10
7.92994e-10
8.68936e-10
9.29075e-10
9.73888e-10
1.04405e-09
1.11506e-09
1.17554e-09
1.18911e-09
1.20438e-09
1.25358e-09
1.38531e-09
1.77757e-09
2.77469e-09
3.48726e-09
2.57199e-09
2.5437e-09
1.08184e-07
8.96005e-08
4.62906e-10
5.02259e-10
5.53693e-10
6.18294e-10
7.03589e-10
8.62897e-10
1.01456e-09
1.13105e-09
1.248e-09
1.42907e-09
1.62168e-09
1.73049e-09
1.79914e-09
1.80011e-09
1.79316e-09
2.01128e-09
2.92788e-09
4.37482e-09
4.23425e-09
5.42413e-09
3.15545e-09
2.33919e-07
4.55528e-06
4.66631e-10
4.88366e-10
5.17431e-10
6.1023e-10
7.77359e-10
9.84374e-10
1.08343e-09
1.14909e-09
1.21409e-09
1.29943e-09
1.38389e-09
1.43079e-09
1.41613e-09
1.33952e-09
1.41703e-09
2.37919e-09
3.91753e-09
4.52055e-09
4.35948e-09
1.14199e-08
2.00044e-08
6.26049e-07
7.53878e-06
4.64885e-10
4.4442e-10
3.90357e-10
4.46852e-10
5.31305e-10
5.6102e-10
5.20111e-10
5.07368e-10
5.45006e-10
6.43902e-10
7.66881e-10
8.83801e-10
1.02152e-09
1.14816e-09
1.33351e-09
1.54862e-09
2.44923e-09
3.88378e-09
3.47891e-09
3.18117e-09
1.99983e-07
2.85728e-07
7.226e-09
4.62555e-10
4.34111e-10
3.30849e-10
2.4636e-10
2.26824e-10
1.79329e-10
1.34955e-10
1.31034e-10
1.46914e-10
2.15988e-10
3.26965e-10
4.66996e-10
6.42617e-10
8.12629e-10
8.88699e-10
1.09035e-09
2.84266e-09
6.0392e-09
6.38781e-09
3.34113e-09
4.15412e-10
4.14396e-10
6.14897e-10
4.43462e-10
4.35947e-10
3.23468e-10
1.71812e-10
9.70908e-11
5.65643e-11
3.6133e-11
3.35954e-11
3.93192e-11
6.48819e-11
9.01181e-11
1.02979e-10
1.07266e-10
1.08378e-10
1.19093e-10
1.5244e-10
1.45213e-10
1.62033e-10
2.0225e-10
2.35829e-10
4.21745e-10
9.00998e-10
2.04034e-09
3.5056e-10
3.97183e-10
3.12685e-10
1.8028e-10
7.94114e-11
4.83014e-11
2.88767e-11
2.61288e-11
2.31326e-11
2.13987e-11
1.99261e-11
1.79303e-11
1.55767e-11
1.45267e-11
1.3919e-11
1.38877e-11
1.42939e-11
2.28708e-11
9.16995e-11
3.34521e-10
7.04269e-10
1.26312e-09
2.27218e-09
2.68065e-10
3.24543e-10
2.90973e-10
1.57552e-10
9.43693e-11
7.41276e-11
5.50382e-11
3.54232e-11
2.42843e-11
1.7928e-11
1.37821e-11
1.10622e-11
9.20907e-12
7.91734e-12
7.18078e-12
7.19257e-12
1.04103e-11
4.80849e-11
1.46137e-10
2.83519e-10
6.13455e-10
1.02596e-09
1.53601e-09
2.39717e-10
3.09099e-10
2.51602e-10
1.62961e-10
1.36283e-10
1.22017e-10
9.65721e-11
7.23205e-11
4.51738e-11
2.77597e-11
1.7273e-11
1.16309e-11
8.28391e-12
5.76925e-12
4.21241e-12
3.73471e-12
3.7197e-12
5.30871e-12
1.35802e-11
2.69718e-11
6.5126e-11
8.88801e-11
1.12284e-10
2.43853e-10
3.11488e-10
2.75138e-10
2.01378e-10
1.91683e-10
1.83163e-10
1.55677e-10
1.21363e-10
8.18066e-11
4.45584e-11
2.32149e-11
1.41141e-11
8.92288e-12
5.69436e-12
3.63895e-12
2.85084e-12
2.13948e-12
1.76074e-12
1.61498e-12
1.75151e-12
3.03548e-12
5.55951e-12
5.83407e-12
2.49762e-10
3.27958e-10
3.16815e-10
2.73526e-10
2.55155e-10
2.29843e-10
1.91037e-10
1.58435e-10
1.07958e-10
6.80465e-11
3.29869e-11
1.75111e-11
1.05795e-11
6.63044e-12
4.12683e-12
2.78092e-12
1.88436e-12
1.38236e-12
1.13954e-12
1.11788e-12
1.31776e-12
1.51909e-12
1.86521e-12
2.44724e-10
3.52129e-10
3.71697e-10
3.39344e-10
2.9916e-10
2.63586e-10
2.09673e-10
1.66158e-10
1.23691e-10
7.1829e-11
3.94947e-11
2.47614e-11
1.36789e-11
9.046e-12
5.60137e-12
3.08258e-12
1.71877e-12
1.24808e-12
9.28136e-13
7.60329e-13
7.16818e-13
8.48874e-13
2.15242e-12
2.30827e-10
3.52534e-10
3.82041e-10
3.68381e-10
3.1881e-10
2.77116e-10
2.14559e-10
1.62763e-10
1.16309e-10
7.59487e-11
4.42796e-11
2.58855e-11
1.62556e-11
1.05517e-11
6.41625e-12
3.99029e-12
2.08892e-12
1.19582e-12
9.02529e-13
6.81665e-13
5.47959e-13
5.12268e-13
1.38816e-12
2.07686e-10
3.39671e-10
3.80339e-10
3.61227e-10
3.11587e-10
2.57324e-10
2.01663e-10
1.44497e-10
1.03176e-10
7.03836e-11
4.6441e-11
2.74983e-11
1.67541e-11
1.0344e-11
6.80466e-12
4.28865e-12
2.35195e-12
1.40061e-12
8.52768e-13
6.72729e-13
4.86516e-13
3.79835e-13
4.4263e-13
1.79263e-10
3.10728e-10
3.53181e-10
3.29624e-10
2.74544e-10
2.21569e-10
1.58023e-10
1.19246e-10
8.45017e-11
5.80708e-11
3.70242e-11
2.45397e-11
1.8029e-11
1.01386e-11
6.82832e-12
3.73006e-12
2.39604e-12
1.46523e-12
8.72295e-13
6.67655e-13
4.8611e-13
3.2263e-13
2.48911e-13
1.51541e-10
2.63407e-10
3.0374e-10
2.76019e-10
2.30568e-10
1.81916e-10
1.19692e-10
9.26503e-11
7.04217e-11
4.52293e-11
2.83453e-11
1.87589e-11
1.23762e-11
8.43717e-12
5.73054e-12
3.7043e-12
2.33144e-12
1.43233e-12
8.88668e-13
6.28945e-13
4.52864e-13
3.19635e-13
2.19444e-13
1.22305e-10
2.18577e-10
2.54999e-10
2.27245e-10
1.85827e-10
1.45209e-10
1.00765e-10
7.21504e-11
5.17096e-11
3.02845e-11
1.84629e-11
1.27042e-11
8.60388e-12
6.20086e-12
4.23711e-12
2.95086e-12
1.97206e-12
1.33904e-12
8.30263e-13
5.79598e-13
4.20151e-13
2.78778e-13
2.06912e-13
9.79047e-11
1.73295e-10
2.03395e-10
1.78699e-10
1.4433e-10
1.116e-10
7.8207e-11
5.47822e-11
3.8001e-11
2.01297e-11
1.15175e-11
7.89806e-12
5.79607e-12
4.16373e-12
2.99803e-12
2.14517e-12
1.48222e-12
1.04882e-12
7.31935e-13
5.06901e-13
3.5112e-13
2.48478e-13
1.75332e-13
7.67173e-11
1.3116e-10
1.53183e-10
1.34298e-10
1.06506e-10
8.05836e-11
5.67564e-11
3.94405e-11
2.6652e-11
1.40937e-11
8.05833e-12
4.99901e-12
3.77193e-12
2.75965e-12
2.02134e-12
1.45442e-12
1.04051e-12
7.65682e-13
5.55497e-13
3.95575e-13
2.79083e-13
1.88128e-13
1.40548e-13
5.73137e-11
9.272e-11
1.06751e-10
9.38275e-11
7.45547e-11
5.53707e-11
3.89952e-11
2.70159e-11
1.80658e-11
1.02949e-11
5.29117e-12
3.6946e-12
2.54526e-12
1.80218e-12
1.29419e-12
9.25341e-13
6.73488e-13
5.117e-13
3.80216e-13
2.7644e-13
1.93626e-13
1.38321e-13
9.9569e-14
4.07862e-11
6.45797e-11
7.11392e-11
6.09085e-11
4.81787e-11
3.59174e-11
2.59322e-11
1.79393e-11
1.18883e-11
7.10228e-12
4.19374e-12
2.65844e-12
1.72105e-12
1.15456e-12
7.92354e-13
5.53131e-13
4.01568e-13
3.09309e-13
2.32212e-13
1.7257e-13
1.23871e-13
8.37075e-14
6.32037e-14
2.74708e-11
4.26255e-11
4.50716e-11
3.80305e-11
2.97246e-11
2.20913e-11
1.60769e-11
1.1318e-11
7.60155e-12
4.83475e-12
3.0103e-12
1.8617e-12
1.16079e-12
7.33394e-13
4.69562e-13
3.16384e-13
2.2673e-13
1.69239e-13
1.26534e-13
9.40594e-14
6.59529e-14
4.7431e-14
3.47177e-14
1.86707e-11
2.76533e-11
2.77884e-11
2.30677e-11
1.77659e-11
1.32514e-11
9.58747e-12
6.77692e-12
4.63093e-12
3.06523e-12
1.9832e-12
1.24695e-12
7.61016e-13
4.59677e-13
2.7264e-13
1.7316e-13
1.16619e-13
8.29495e-14
5.99121e-14
4.37644e-14
3.18367e-14
2.20231e-14
1.62582e-14
1.19917e-11
1.73676e-11
1.64757e-11
1.32567e-11
1.02286e-11
7.60999e-12
5.51819e-12
3.902e-12
2.69527e-12
1.84274e-12
1.23167e-12
7.80672e-13
4.81002e-13
2.85391e-13
1.62856e-13
9.51421e-14
5.79114e-14
3.84848e-14
2.57582e-14
1.83405e-14
1.30828e-14
9.08519e-15
6.5967e-15
7.45541e-12
1.03624e-11
9.39812e-12
7.3423e-12
5.48987e-12
4.03152e-12
2.89275e-12
2.03723e-12
1.43829e-12
1.0051e-12
6.83406e-13
4.3978e-13
2.72866e-13
1.61043e-13
9.03461e-14
5.00947e-14
2.84598e-14
1.72457e-14
1.047e-14
6.92077e-15
4.88663e-15
3.10702e-15
2.30688e-15
4.76371e-12
6.16737e-12
5.11464e-12
3.88781e-12
2.83323e-12
2.00984e-12
1.406e-12
9.66101e-13
6.7459e-13
4.73284e-13
3.2511e-13
2.1438e-13
1.34634e-13
8.0353e-14
4.6053e-14
2.46115e-14
1.33363e-14
7.35989e-15
4.03704e-15
2.43672e-15
1.54653e-15
9.49346e-16
6.73716e-16
3.0465e-12
3.45008e-12
2.78664e-12
1.98578e-12
1.36587e-12
9.22121e-13
6.19646e-13
4.17069e-13
2.86503e-13
1.9975e-13
1.37221e-13
9.01295e-14
5.72369e-14
3.45947e-14
2.00249e-14
1.08305e-14
5.6251e-15
2.91795e-15
1.44619e-15
7.83158e-16
4.64915e-16
2.6267e-16
1.8104e-16
1.70658e-12
1.90275e-12
1.41526e-12
9.44073e-13
6.06678e-13
3.88198e-13
2.48539e-13
1.61633e-13
1.07198e-13
7.3353e-14
5.00203e-14
3.27854e-14
2.06714e-14
1.27231e-14
7.43147e-15
4.0078e-15
2.04903e-15
1.02395e-15
4.75714e-16
2.40932e-16
1.23099e-16
6.85601e-17
4.33986e-17
9.74724e-13
9.91427e-13
6.72602e-13
4.16315e-13
2.48996e-13
1.49288e-13
9.02063e-14
5.5824e-14
3.58112e-14
2.34509e-14
1.54824e-14
1.02632e-14
6.59303e-15
4.03465e-15
2.31046e-15
1.27349e-15
6.36093e-16
3.1641e-16
1.36204e-16
6.31027e-17
3.17378e-17
1.57318e-17
9.20193e-18
4.89356e-13
4.43827e-13
2.89001e-13
1.65553e-13
9.14537e-14
5.07085e-14
2.87263e-14
1.68965e-14
1.03393e-14
6.65689e-15
4.39804e-15
2.87612e-15
1.83859e-15
1.12071e-15
6.36055e-16
3.41957e-16
1.6143e-16
7.85183e-17
3.26934e-17
1.43378e-17
6.20446e-18
3.11981e-18
1.69662e-18
2.33256e-13
1.91265e-13
1.06134e-13
5.61908e-14
2.88128e-14
1.50843e-14
8.12747e-15
4.63734e-15
2.77156e-15
1.75258e-15
1.12839e-15
7.31973e-16
4.58116e-16
2.73158e-16
1.45784e-16
7.67225e-17
3.64031e-17
1.67983e-17
6.71257e-18
2.75446e-18
1.18515e-18
5.30143e-19
2.62241e-19
9.48032e-14
6.19299e-14
3.38524e-14
1.67759e-14
8.14888e-15
3.94189e-15
2.0507e-15
1.11841e-15
6.60988e-16
4.05685e-16
2.60933e-16
1.62211e-16
9.86966e-17
5.6693e-17
3.07204e-17
1.53591e-17
7.09285e-18
3.03321e-18
1.2027e-18
4.24701e-19
1.77266e-19
7.73971e-20
3.50647e-20
3.25965e-14
1.98122e-14
1.04383e-14
4.94697e-15
2.2579e-15
1.03798e-15
5.14929e-16
2.7364e-16
1.55083e-16
8.88979e-17
5.41516e-17
3.3192e-17
1.94955e-17
1.10281e-17
5.84476e-18
2.83605e-18
1.24783e-18
4.96074e-19
1.84443e-19
6.11821e-20
2.33987e-20
9.32575e-21
3.90888e-21
8.53141e-15
5.39409e-15
2.63645e-15
1.20472e-15
5.34158e-16
2.40289e-16
1.15554e-16
5.96752e-17
3.13234e-17
1.82047e-17
1.05536e-17
6.2865e-18
3.705e-18
2.03396e-18
1.03203e-18
4.68156e-19
1.91956e-19
7.08896e-20
2.43723e-20
7.91675e-21
2.69674e-21
9.76969e-22
3.60301e-22
1.93589e-15
1.07149e-15
5.06727e-16
2.35335e-16
1.07364e-16
4.91922e-17
2.31483e-17
1.1719e-17
6.22041e-18
3.5311e-18
2.03598e-18
1.17475e-18
6.54608e-19
3.38839e-19
1.60892e-19
6.84363e-20
2.58448e-20
8.71403e-21
2.73372e-21
8.21646e-22
2.56926e-22
8.39366e-23
2.90447e-23
2.49828e-16
1.29582e-16
7.27602e-17
3.70242e-17
1.86936e-17
9.03003e-18
4.27593e-18
2.14592e-18
1.15557e-18
6.52229e-19
3.62419e-19
2.01813e-19
1.08075e-19
5.26804e-20
2.32373e-20
9.01706e-21
3.07793e-21
9.41041e-22
2.68698e-22
7.32194e-23
2.0938e-23
6.0305e-24
2.00729e-24
1.60736e-17
9.60278e-18
6.5341e-18
4.84734e-18
2.80412e-18
1.44047e-18
7.17112e-19
3.82055e-19
2.05756e-19
1.18165e-19
6.62686e-20
3.49171e-20
1.72024e-20
7.71739e-21
3.07003e-21
1.06777e-21
3.26367e-22
8.90034e-23
2.23814e-23
5.45533e-24
1.32927e-24
3.5242e-25
2.87667e-26
7.74565e-20
1.65253e-19
4.1362e-19
4.64376e-19
3.4602e-19
2.09146e-19
1.16176e-19
6.52863e-20
3.80172e-20
2.17986e-20
1.18574e-20
5.75869e-21
2.58557e-21
1.04855e-21
3.71298e-22
1.12808e-22
2.89717e-23
6.84179e-24
1.54247e-24
3.29106e-25
7.73655e-26
5.02944e-27
1.81694e-28
9.20156e-27
2.40175e-22
1.43116e-20
4.79253e-20
4.37517e-20
2.91332e-20
1.73629e-20
1.05435e-20
6.47237e-21
3.84425e-21
2.08501e-21
9.6992e-22
4.00089e-22
1.4377e-22
4.16963e-23
1.03832e-23
2.22096e-24
4.4167e-25
8.67248e-26
1.60266e-26
2.44042e-27
4.85226e-29
3.84152e-29
0.0186298
0.0377668
0.0417069
0.0437898
2.24993e-09
1.38284e-25
-7.8717e-09
-2.32925e-24
1.45799e-08
5.42477e-06
-1.41456e-07
2.73861e-05
7.25153e-08
1.86908e-05
2.09396e-06
0.000300361
4.87239e-07
4.20208e-06
0.000138169
0.00019967
1.04807e-05
6.64979e-06
2.02013e-08
9.3226e-10
6.25125e-10
7.25122e-09
4.07431e-10
5.06092e-10
1.06544e-09
1.35179e-09
2.33787e-09
2.54687e-09
3.00601e-09
3.35929e-09
4.68035e-09
6.16979e-09
2.99511e-09
3.12627e-09
2.88448e-09
4.31028e-09
1.64179e-09
1.5887e-09
2.21253e-09
5.35428e-09
9.62268e-11
6.12434e-11
1.02425e-10
2.38171e-10
4.37372e-12
3.32036e-12
4.26315e-12
7.13126e-12
3.06173e-12
4.79055e-12
6.94849e-12
8.54275e-12
4.56099e-12
8.28614e-12
1.45278e-11
2.48166e-11
4.53026e-12
8.36988e-12
1.49746e-11
2.33054e-11
1.73587e-12
5.49466e-12
1.01883e-11
1.78367e-11
2.52016e-13
9.03309e-13
3.03966e-12
8.49027e-12
1.62068e-13
1.47417e-13
2.1725e-13
1.44859e-12
1.52236e-13
1.30448e-13
1.09429e-13
9.16938e-14
1.3709e-13
1.16131e-13
1.04766e-13
9.04071e-14
1.08558e-13
9.22988e-14
8.15865e-14
7.78087e-14
7.95331e-14
6.62674e-14
5.80139e-14
5.14598e-14
5.13725e-14
4.26118e-14
3.65814e-14
3.20652e-14
2.91777e-14
2.34883e-14
2.0564e-14
1.77874e-14
1.37481e-14
1.10567e-14
9.55597e-15
8.56425e-15
5.57054e-15
4.50755e-15
3.99228e-15
3.36233e-15
1.91276e-15
1.47025e-15
1.25268e-15
1.15673e-15
5.85975e-16
4.54882e-16
3.95108e-16
3.24155e-16
1.47002e-16
1.16538e-16
9.55436e-17
8.33648e-17
3.42319e-17
2.69622e-17
2.25261e-17
1.85338e-17
6.92621e-18
5.15356e-18
4.22406e-18
3.45178e-18
1.24127e-18
9.31672e-19
7.0669e-19
5.36549e-19
1.79919e-19
1.30627e-19
9.9093e-20
7.17775e-20
2.32418e-20
1.61018e-20
1.13648e-20
7.52573e-21
2.41896e-21
1.57638e-21
1.08493e-21
6.32831e-22
2.09326e-22
1.27069e-22
8.95379e-23
3.82293e-23
1.57588e-23
5.77176e-24
2.22123e-24
4.40711e-25
2.25472e-25
5.5787e-26
2.01076e-26
5.87857e-27
1.8113e-28
5.56474e-28
1.2617e-27
3.91038e-27
1.80913e-28
4.22517e-28
1.48324e-27
4.74486e-27
9.74955e-29
3.352e-28
1.14434e-27
3.46653e-27
0.0106414
0.00527713
0.015831
0.0094663
0.00588835
0.0301457
0.0341748
0.000583945
2.86054e-05
2.6847e-05
8.41073e-05
0.000114701
3.77518e-05
2.50712e-05
2.69231e-06
2.62241e-06
0.000766228
0.00193192
3.66036e-09
0.000311309
0.000745099
0.0146577
0.00482417
0.00430778
0.0250716
0.0144157
0.000225658
3.77089e-05
2.68421e-05
2.80225e-05
6.56081e-05
6.5385e-05
4.82835e-05
5.60213e-06
2.87293e-05
0.00209207
0.00439368
3.65754e-09
0.000102685
0.0015065
0.00372836
0.00103711
0.00506396
0.00701146
0.00196024
0.000152309
0.00015068
6.55573e-05
6.17713e-07
2.77648e-06
6.44372e-06
2.42057e-07
1.39042e-05
0.000139388
0.00290744
0.00583448
0.00555299
0.000567199
0.000370877
1.23349e-05
0.000354671
0.00119969
1.02477e-06
6.74925e-07
0.000103053
0.000150585
5.50392e-05
6.07918e-07
5.96598e-07
1.99852e-07
1.99149e-06
3.34288e-05
5.89286e-05
0.000641278
0.0036748
0.00409502
0.000278464
7.50555e-05
7.26847e-06
2.05208e-05
8.02592e-07
7.2624e-07
6.45911e-07
1.25823e-05
2.17397e-05
7.98432e-06
3.2029e-06
1.3646e-06
1.09542e-07
4.23346e-08
6.25565e-06
2.34081e-05
2.13401e-05
4.46164e-05
1.09358e-05
5.79951e-11
-1.67186e-12
3.70977e-07
1.92405e-07
8.79731e-07
8.83219e-07
5.38697e-07
1.3639e-10
1.22602e-11
6.42977e-24
3.51447e-07
2.41199e-07
4.23323e-08
4.46308e-08
4.17902e-08
4.17949e-08
8.10423e-08
7.26786e-07
1.11479e-05
1.50979e-09
1.50527e-08
1.02672e-07
1.95122e-07
4.42715e-07
5.37995e-07
2.86599e-07
7.45607e-08
2.6907e-08
9.04836e-09
7.38414e-09
6.4293e-09
1.0668e-06
3.15105e-06
5.78367e-07
4.79816e-08
1.82211e-05
4.67473e-05
1.09424e-05
8.97e-09
7.70558e-08
1.31311e-07
1.63418e-07
1.47065e-07
1.66053e-07
7.20036e-08
4.42303e-08
3.63014e-08
9.83606e-09
4.92753e-09
7.90996e-09
4.38612e-07
3.23381e-06
8.05014e-05
0.000890509
0.00197328
0.00203444
0.00080922
9.8572e-09
1.43466e-08
2.49225e-08
3.0476e-08
2.77251e-08
3.0564e-08
3.00528e-07
2.06737e-07
3.5932e-08
2.67361e-06
6.02559e-07
2.66883e-09
2.60974e-09
2.76882e-07
0.00105755
0.00272956
0.00272935
0.00272956
0.00206108
8.11191e-09
1.06e-08
1.52265e-08
2.38287e-08
3.63302e-08
1.84801e-07
4.59564e-07
1.37719e-06
2.22954e-06
2.87849e-06
2.21299e-05
5.01857e-05
5.16888e-05
8.14072e-05
0.000958664
0.00177012
0.00203215
0.00173541
0.00121235
8.2911e-09
1.11855e-08
1.13455e-08
4.59343e-09
1.00265e-09
5.00939e-08
1.18207e-09
6.42883e-07
6.28896e-06
8.03649e-06
2.00902e-05
3.61833e-05
4.67982e-05
8.9398e-05
9.8107e-05
3.49949e-10
-6.15336e-18
2.60562e-07
2.35072e-05
2.69124e-10
2.53156e-10
2.09529e-10
5.36932e-11
1.9745e-10
3.34776e-10
1.08061e-10
1.79982e-07
1.98501e-06
3.84206e-06
7.03157e-06
8.95838e-06
9.91228e-06
1.39423e-05
6.08274e-07
2.22383e-08
7.22596e-10
3.94039e-11
7.9303e-08
7.96215e-12
1.89621e-11
9.36752e-11
2.98993e-10
8.01344e-10
1.76563e-09
3.04487e-09
6.95222e-09
1.60642e-07
3.3534e-07
1.94822e-07
1.15834e-06
8.49148e-07
1.57543e-09
1.60919e-09
2.64497e-09
3.57777e-09
2.02784e-09
4.97554e-08
1.90972e-11
8.18589e-11
2.5058e-10
5.48644e-10
1.17415e-09
2.87292e-09
7.56139e-09
1.06271e-08
1.22334e-08
3.00474e-08
1.95068e-08
1.42516e-09
1.42638e-09
1.57667e-09
3.26313e-09
8.30089e-09
9.06927e-09
4.51003e-09
1.51612e-09
4.12526e-11
1.03312e-10
2.38522e-10
4.80716e-10
8.66574e-10
1.44749e-09
2.64683e-09
4.39154e-09
3.81597e-09
4.1627e-09
6.18519e-09
1.70645e-09
1.62912e-09
2.45315e-09
4.56831e-09
7.90544e-09
8.00532e-09
3.0256e-09
8.18259e-10
3.59189e-11
7.63762e-11
1.49443e-10
2.72825e-10
4.60703e-10
8.68628e-10
1.61865e-09
3.43979e-09
3.65649e-09
3.18665e-09
2.46654e-09
1.38388e-09
1.36723e-09
1.84127e-09
3.12917e-09
4.77971e-09
4.05986e-09
1.47118e-09
7.52449e-10
2.93246e-11
6.05111e-11
1.15912e-10
2.05535e-10
3.25702e-10
4.79123e-10
7.08694e-10
1.75028e-09
2.5324e-09
2.63026e-09
1.86521e-09
1.07838e-09
9.37818e-10
9.55442e-10
1.40097e-09
1.71873e-09
1.41046e-09
5.17881e-10
3.64275e-10
1.91536e-11
3.91422e-11
7.35053e-11
1.30206e-10
2.22015e-10
3.50594e-10
4.88555e-10
6.44749e-10
1.02256e-09
1.19207e-09
1.13423e-09
7.25282e-10
5.32071e-10
4.39759e-10
4.27378e-10
4.64663e-10
3.4933e-10
1.11532e-10
7.32403e-11
7.97429e-12
1.88203e-11
3.36698e-11
5.72893e-11
1.10213e-10
2.07972e-10
2.76765e-10
3.34447e-10
3.96717e-10
4.49464e-10
4.59623e-10
3.52556e-10
2.33295e-10
1.77925e-10
1.15225e-10
8.20955e-11
4.69751e-11
1.29537e-11
2.55261e-12
1.69994e-12
7.72656e-12
1.74163e-11
3.13506e-11
5.15864e-11
7.81605e-11
1.07981e-10
1.37731e-10
1.64638e-10
1.82072e-10
1.75334e-10
1.45671e-10
9.89908e-11
6.19849e-11
2.30867e-11
1.09721e-11
4.08597e-12
3.66049e-13
3.54651e-14
2.4423e-13
1.34629e-12
4.95518e-12
1.02066e-11
1.74656e-11
2.65212e-11
3.66654e-11
4.73225e-11
5.88275e-11
6.85594e-11
7.03901e-11
5.80185e-11
3.65568e-11
1.64348e-11
4.38823e-12
1.04594e-12
6.27927e-14
9.29756e-15
1.21965e-15
8.3979e-14
2.21895e-13
7.38923e-13
2.0643e-12
4.34766e-12
6.89126e-12
9.75739e-12
1.28135e-11
1.64211e-11
2.04589e-11
2.26153e-11
1.91447e-11
1.12693e-11
4.26915e-12
8.65547e-13
1.21864e-13
7.41396e-15
1.21031e-15
9.41712e-17
4.81176e-14
6.14894e-14
1.28153e-13
3.06119e-13
7.11723e-13
1.40343e-12
2.12513e-12
2.81488e-12
3.70685e-12
4.87035e-12
5.65605e-12
5.1488e-12
2.91616e-12
9.80055e-13
1.62406e-13
1.78585e-14
1.12779e-15
1.50655e-16
2.8227e-17
2.76681e-14
2.57704e-14
3.15468e-14
4.85416e-14
8.58389e-14
1.65736e-13
3.04595e-13
4.42194e-13
6.30516e-13
8.88273e-13
1.08992e-12
1.08838e-12
6.29602e-13
1.98299e-13
2.70726e-14
1.75107e-15
1.6007e-16
4.93327e-17
1.96134e-17
1.40937e-14
1.18646e-14
1.08312e-14
1.06787e-14
1.25775e-14
1.90196e-14
3.49684e-14
5.35255e-14
8.29064e-14
1.26026e-13
1.66896e-13
1.78437e-13
1.12909e-13
3.6367e-14
4.87483e-15
2.02803e-16
4.02976e-17
3.02117e-17
1.42459e-17
6.47168e-15
4.94584e-15
3.92595e-15
3.24328e-15
2.80828e-15
2.73008e-15
3.32395e-15
4.64679e-15
7.77087e-15
1.33358e-14
1.92036e-14
2.18926e-14
1.56294e-14
5.46063e-15
6.90355e-16
3.39118e-17
1.70116e-17
2.01847e-17
9.61516e-18
2.46878e-15
1.84751e-15
1.37433e-15
1.02257e-15
7.55454e-16
5.6804e-16
4.35222e-16
4.00651e-16
6.48615e-16
1.19962e-15
1.89467e-15
2.30501e-15
1.87661e-15
7.53146e-16
8.13226e-17
7.49538e-18
9.21184e-18
1.25468e-17
6.93288e-18
8.27678e-16
5.72916e-16
4.15497e-16
2.90811e-16
2.08733e-16
1.50435e-16
8.07123e-17
4.52063e-17
5.53869e-17
9.75073e-17
1.62552e-16
2.11364e-16
1.77988e-16
5.71764e-17
7.63813e-18
3.34855e-18
4.9444e-18
9.36093e-18
4.44206e-18
2.26667e-16
1.55116e-16
1.02511e-16
6.72862e-17
4.79475e-17
2.78507e-17
1.2951e-17
7.77998e-18
6.5695e-18
8.25727e-18
1.30469e-17
1.53979e-17
3.22424e-18
7.9659e-19
8.51566e-19
1.43144e-18
2.75726e-18
6.00426e-18
2.99035e-18
5.60348e-17
3.6006e-17
2.18606e-17
1.42079e-17
9.01733e-18
3.30869e-18
1.12304e-18
8.45143e-19
8.30416e-19
8.49938e-19
9.44507e-19
2.06362e-19
1.15614e-19
1.66109e-19
3.5608e-19
8.11573e-19
1.79615e-18
4.33361e-18
1.79371e-18
1.16626e-17
6.8173e-18
3.91849e-18
2.53865e-18
9.84068e-19
1.96915e-19
5.13945e-20
5.92228e-20
7.64538e-20
8.41979e-20
3.29811e-20
3.55833e-20
6.50039e-20
1.31743e-19
2.70448e-19
6.03276e-19
1.46216e-18
2.64641e-18
1.11501e-18
2.05003e-18
1.13994e-18
7.03247e-19
2.7686e-19
5.94978e-20
5.05614e-21
2.08252e-21
3.95145e-21
7.72994e-21
7.54373e-21
1.4272e-20
3.03979e-20
6.38981e-20
1.2771e-19
2.41479e-19
5.19888e-19
1.14558e-18
1.85298e-18
6.04095e-19
2.95988e-19
1.65519e-19
7.70868e-20
1.57811e-20
1.18273e-21
2.43739e-22
4.12066e-22
1.06029e-21
2.43206e-21
5.94705e-21
1.41036e-20
3.12167e-20
6.4597e-20
1.24924e-19
2.22443e-19
4.52923e-19
9.12821e-19
1.05689e-18
3.5739e-19
3.65713e-20
1.95112e-20
4.79906e-21
3.83859e-22
6.82961e-23
1.23433e-22
3.30816e-22
9.06018e-22
2.38318e-21
5.98743e-21
1.43367e-20
3.18506e-20
6.47495e-20
1.18352e-19
2.06886e-19
4.06623e-19
6.70942e-19
7.12681e-19
1.77236e-19
4.04637e-21
1.02386e-21
1.11219e-22
1.86973e-23
3.6177e-23
1.05767e-22
3.16362e-22
8.8787e-22
2.35019e-21
5.86949e-21
1.39565e-20
3.0675e-20
6.08183e-20
1.10139e-19
1.95771e-19
3.41614e-19
4.99909e-19
3.71567e-19
9.66191e-20
2.74595e-22
3.07129e-23
4.3059e-24
9.43845e-24
3.10453e-23
1.01269e-22
3.01374e-22
8.48008e-22
2.26162e-21
5.64846e-21
1.34046e-20
2.92898e-20
5.76032e-20
1.03128e-19
1.72113e-19
2.61076e-19
3.34234e-19
2.37999e-19
4.33835e-20
4.54352e-24
6.78782e-25
2.06579e-24
8.18698e-24
2.83968e-23
9.20856e-23
2.74609e-22
7.69336e-22
2.02765e-21
5.06961e-21
1.19987e-20
2.58636e-20
5.03046e-20
8.90351e-20
1.40807e-19
1.95281e-19
2.10275e-19
1.07681e-19
2.2978e-20
9.82712e-26
4.03838e-25
1.82359e-24
7.11481e-24
2.45908e-23
7.73361e-23
2.30509e-22
6.37763e-22
1.67585e-21
4.18011e-21
9.78354e-21
2.10792e-20
4.04716e-20
6.97868e-20
1.05473e-19
1.31044e-19
1.09949e-19
5.75555e-20
1.06436e-20
6.14586e-26
3.48676e-25
1.50142e-24
5.57836e-24
1.87048e-23
5.8056e-23
1.70154e-22
4.68929e-22
1.23304e-21
3.08631e-21
7.22779e-21
1.53314e-20
2.91181e-20
4.97979e-20
6.7652e-20
7.88203e-20
5.52463e-20
2.1242e-20
5.5074e-21
5.49361e-26
2.67901e-25
1.04174e-24
3.55401e-24
1.14457e-23
3.45062e-23
1.01508e-22
2.88083e-22
7.67188e-22
1.93905e-21
4.56051e-21
9.89356e-21
1.92689e-20
3.0956e-20
3.84584e-20
4.0595e-20
2.21861e-20
9.30779e-21
2.82652e-21
3.66844e-26
1.51199e-25
5.29503e-25
1.68675e-24
5.33773e-24
1.65816e-23
4.96492e-23
1.43585e-22
3.95794e-22
1.04604e-21
2.54026e-21
5.52608e-21
1.0431e-20
1.69905e-20
1.96198e-20
1.71909e-20
7.32166e-21
3.43671e-21
8.90264e-22
1.33293e-26
4.54242e-26
1.39848e-25
4.1966e-25
1.5097e-24
5.09571e-24
1.70127e-23
5.27188e-23
1.55523e-22
4.28654e-22
1.0853e-21
2.46071e-21
4.6575e-21
7.19168e-21
7.37454e-21
4.92038e-21
1.97055e-21
6.14801e-22
4.7317e-23
)
;

boundaryField
{
    leftWall
    {
        type            alphaContactAngle;
        contactAngleProperties 
        {
            air             
            {
                theta0          90;
            }
            water           
            {
                theta0          90;
            }
            oil             
            {
                theta0          90;
            }
        }
        value           nonuniform List<scalar> 
50
(
1
1
1
1
1
0.704415
0.0390591
2.82426e-10
2.6716e-10
3.33714e-10
3.83178e-10
4.33839e-10
4.62906e-10
4.66631e-10
4.64885e-10
4.62555e-10
4.43462e-10
3.5056e-10
2.68065e-10
2.39717e-10
2.43853e-10
2.49762e-10
2.44724e-10
2.30827e-10
2.07686e-10
1.79263e-10
1.51541e-10
1.22305e-10
9.79047e-11
7.67173e-11
5.73137e-11
4.07862e-11
2.74708e-11
1.86707e-11
1.19917e-11
7.45541e-12
4.76371e-12
3.0465e-12
1.70658e-12
9.74724e-13
4.89356e-13
2.33256e-13
9.48032e-14
3.25965e-14
8.53141e-15
1.93589e-15
2.49828e-16
1.60736e-17
7.74565e-20
9.20156e-27
)
;
    }
    rightWall
    {
        type            alphaContactAngle;
        contactAngleProperties 
        {
            air             
            {
                theta0          90;
            }
            water           
            {
                theta0          90;
            }
            oil             
            {
                theta0          90;
            }
        }
        value           nonuniform List<scalar> 
50
(
0.75259
0.75216
0.502708
0.217968
3.73759e-05
8.56984e-08
1.40319e-07
1.68369e-06
3.66036e-09
3.65754e-09
0.00555299
0.00409502
1.09358e-05
1.11479e-05
1.09424e-05
0.00080922
0.00206108
0.00121235
2.35072e-05
7.9303e-08
4.97554e-08
1.51612e-09
8.18259e-10
7.52449e-10
3.64275e-10
7.32403e-11
2.55261e-12
3.54651e-14
1.21965e-15
9.41712e-17
2.8227e-17
1.96134e-17
1.42459e-17
9.61516e-18
6.93288e-18
4.44206e-18
2.99035e-18
1.79371e-18
1.11501e-18
6.04095e-19
3.5739e-19
1.77236e-19
9.66191e-20
4.33835e-20
2.2978e-20
1.06436e-20
5.5074e-21
2.82652e-21
8.90264e-22
4.7317e-23
)
;
    }
    lowerWall
    {
        type            alphaContactAngle;
        contactAngleProperties 
        {
            air             
            {
                theta0          90;
            }
            water           
            {
                theta0          90;
            }
            oil             
            {
                theta0          90;
            }
        }
        value           nonuniform List<scalar> 
62
(
1
1
1
1
1
1
1
1
1
1
1
1
1
1
1
1
1
1
1
0.999835
0.999449
0.999451
0.99946
0.99946
0.999988
1
1
0.999996
0.999847
0.694258
0.0379812
0.0186298
0.0377668
0.0417069
0.0437898
0.877966
0.877962
0.635089
0.53334
0.165958
0.0521108
0.051578
0.0325287
0.877966
0.877963
0.87789
0.87783
0.799862
0.65612
0.656788
0.665901
0.68751
0.690131
0.650762
0.639459
0.687324
0.752705
0.752715
0.752705
0.752695
0.752684
0.75259
)
;
    }
    atmosphere
    {
        type            inletOutlet;
        inletValue      uniform 0;
        value           nonuniform List<scalar> 
46
(
0
0
1.43116e-20
4.79253e-20
4.37517e-20
2.91332e-20
1.73629e-20
1.05435e-20
6.47237e-21
3.84425e-21
2.08501e-21
9.6992e-22
4.00089e-22
0
0
0
0
0
0
0
0
0
0
0
0
0
0
0
0
0
0
1.5097e-24
5.09571e-24
1.70127e-23
5.27188e-23
1.55523e-22
4.28654e-22
1.0853e-21
2.46071e-21
4.6575e-21
7.19168e-21
0
0
0
0
0
)
;
    }
    defaultFaces
    {
        type            empty;
    }
}


// ************************************************************************* //
