/*--------------------------------*- C++ -*----------------------------------*\
  =========                 |
  \\      /  F ield         | OpenFOAM: The Open Source CFD Toolbox
   \\    /   O peration     | Website:  https://openfoam.org
    \\  /    A nd           | Version:  13
     \\/     M anipulation  |
\*---------------------------------------------------------------------------*/
FoamFile
{
    format      ascii;
    class       volScalarField;
    location    "2.8";
    object      alpha.water;
}
// * * * * * * * * * * * * * * * * * * * * * * * * * * * * * * * * * * * * * //

dimensions      [];

internalField   nonuniform List<scalar> 
2268
(
1.06045e-10
1.32504e-10
1.51377e-10
1.56408e-10
1.63575e-10
1.70347e-10
1.77971e-10
1.84935e-10
1.9059e-10
1.95916e-10
2.01746e-10
2.09779e-10
2.24961e-10
2.55009e-10
3.06811e-10
3.75883e-10
4.70515e-10
6.06724e-10
1.21384e-09
2.1802e-09
2.74652e-09
2.77311e-09
2.77214e-09
2.13872e-10
2.84671e-10
2.9175e-10
2.75999e-10
2.87485e-10
3.06763e-10
3.39709e-10
3.83824e-10
4.2903e-10
4.73637e-10
5.07369e-10
5.34396e-10
5.48679e-10
5.57856e-10
5.7418e-10
6.07833e-10
6.81961e-10
8.29058e-10
1.0592e-09
1.85219e-09
2.50534e-09
2.60094e-09
1.98237e-09
2.45494e-10
1.0789e-09
1.98001e-09
1.82394e-09
1.41009e-09
9.26175e-10
3.78432e-10
4.4487e-10
5.51096e-10
6.664e-10
7.84093e-10
8.97674e-10
9.77661e-10
1.00611e-09
9.58591e-10
9.0441e-10
8.96899e-10
1.01366e-09
1.32384e-09
1.6803e-09
1.94926e-09
2.01694e-09
1.06487e-09
1.58932e-10
1.71469e-10
1.63898e-10
1.52055e-10
4.71428e-10
2.99886e-09
5.87551e-09
2.81476e-10
3.29316e-10
4.3158e-10
5.42002e-10
6.97955e-10
9.21326e-10
1.07109e-09
1.05464e-09
8.95374e-10
8.18777e-10
8.88722e-10
9.98037e-10
1.19449e-09
1.33596e-09
9.8378e-10
6.43291e-10
9.87151e-08
2.002e-07
2.10839e-07
2.03489e-07
1.55734e-07
9.51596e-09
4.25828e-09
4.5937e-09
1.0813e-10
2.93666e-10
6.20561e-10
4.81048e-10
4.68489e-10
4.54688e-10
4.45724e-10
4.1459e-10
3.6834e-10
3.19138e-10
2.99184e-10
3.52975e-10
1.96811e-10
1.14751e-10
1.06267e-10
0.295585
0.308419
0.308402
0.287417
0.252126
0.203767
0.14657
0.0927274
0.0500702
0.01411
1.45439e-07
9.40553e-08
4.43651e-08
9.95769e-11
1.58731e-10
9.95769e-11
1.39733e-10
8.9437e-11
1.26228e-10
8.9437e-11
1.18468e-10
8.96732e-11
1.14717e-10
0.960941
0.965019
0.964745
0.956865
0.941903
0.919856
0.888261
0.839459
0.769727
0.689409
0.591642
0.484726
0.388476
0.307983
0.249235
0.212395
0.191653
0.185127
0.187394
0.194958
0.216389
0.263066
0.304971
1
1
1
0.999999
0.999999
0.999998
0.999999
1
1
1
1
0.996882
0.987103
0.973328
0.956325
0.936056
0.918309
0.902599
0.894098
0.899852
0.9177
0.943593
0.957883
0.00888671
0.041381
0.0481861
0.0392701
0.0113921
0.001413
0.00135795
0.000858418
0.000896704
0.000858418
0.0100248
0.0456601
0.124401
0.124402
0.124409
0.122868
0.0400575
0.0026613
0.0115213
0.00845796
0.0106567
0.0260342
0.0931986
0.107792
0.0915168
0.0537679
0.0795114
0.0568811
0.010364
0.000803418
0.0191286
0.0503131
0.0588369
0.0683495
0.0261592
0.0022192
0.00265903
0.011429
0.00762203
0.00750383
0.0224828
0.122027
0.402178
0.476033
0.514267
0.5249
0.421288
0.0729763
0.000727137
0.000727635
0.000626616
0.000629925
0.000630012
0.000633453
0.00063312
0.000636924
0.000636117
0.00898847
0.144642
0.341528
0.475949
0.463275
0.505346
0.709814
0.813855
0.82542
0.556152
0.150766
0.00253006
0.000633351
0.00107866
0.016864
0.0754976
0.197352
0.252258
0.0644918
0.389567
0.730287
0.831754
0.853292
0.53053
0.220648
0.219567
0.249014
0.7036
0.987038
0.696541
0.255
0.0110831
0.0603363
0.467905
0.756309
0.825669
0.9531
0.473156
0.816554
0.909834
0.909185
0.899977
0.42995
0.173544
0.134224
0.134481
0.609252
0.986367
0.998647
0.755194
0.157128
0.459954
0.918801
0.999831
0.999833
0.999825
0.619717
0.909834
0.910868
0.911841
0.928669
0.429453
0.118973
0.117921
0.590802
0.948735
0.99223
0.999482
0.999482
0.213851
0.547441
0.99975
0.999808
0.999818
0.998778
0.770584
0.892943
0.89091
0.900976
0.938272
0.687361
0.136397
0.271452
0.904412
0.999394
0.999403
0.999483
0.948997
0.199593
0.609721
0.991558
0.999808
0.998787
0.998741
0.81043
1
1
0.999999
0.999956
0.999948
0.999999
1
1
1
1
1
1
1
1
1
1
1
1
1
0.999996
0.999739
0.998122
0.995771
1
0.999358
0.998518
0.999374
0.999978
1
1
1
1
1
1
1
1
1
1
1
1
1
0.999999
0.999832
0.996728
0.983467
0.953125
0.91289
0.964113
0.998898
0.99983
0.999993
1
1
1
1
1
1
0.999994
0.999583
0.99732
0.990971
0.981817
0.97217
0.963261
0.914493
0.835903
0.743452
0.612119
0.454198
0.69269
0.526993
0.470077
0.499964
0.579528
0.727235
0.82
0.83072
0.838122
0.84343
0.838168
0.819115
0.771194
0.717795
0.680497
0.63153
0.53494
0.363756
0.203055
0.101225
0.04008
2.12248e-13
5.52578e-14
0.0467982
0.00652011
0.00102509
0.00247475
0.00590799
0.0473179
0.117732
0.132835
0.123957
0.11356
0.0948795
0.0641254
0.0410519
0.0233015
0.00694014
9.47373e-21
-8.80235e-12
8.02063e-26
2.55051e-25
2.33078e-26
2.83139e-11
2.7394e-08
1.28979e-06
6.80612e-05
0.000190953
2.02166e-05
3.51015e-05
9.78615e-05
8.50811e-17
4.84466e-17
7.86387e-17
1.66544e-17
8.83491e-21
8.83512e-27
9.07498e-21
5.36451e-21
1.30951e-16
6.28194e-11
1.43068e-09
4.09335e-09
2.08163e-08
9.19059e-08
1.6212e-07
3.08994e-07
1.04438e-06
8.2385e-06
6.80615e-05
0.000657955
5.34896e-05
1.11377e-06
5.53384e-08
5.02194e-08
1.08021e-08
4.00707e-09
4.32698e-09
2.68211e-09
4.27054e-09
9.96087e-09
2.50868e-08
3.87013e-08
2.55249e-08
2.65226e-08
4.50697e-08
6.1204e-08
2.72514e-07
3.25062e-07
2.85224e-07
4.52592e-07
1.03162e-06
8.9695e-05
0.000699564
5.81809e-05
2.74393e-12
2.13047e-07
2.68105e-07
1.64208e-07
8.02904e-08
1.08439e-08
1.3501e-09
1.36502e-09
3.59899e-08
1.79711e-07
1.95589e-07
1.56931e-07
8.54172e-08
1.9622e-07
2.07185e-07
1.84936e-07
4.73533e-08
2.82366e-10
2.1134e-08
9.29589e-07
3.79169e-05
0.0002758
4.15541e-05
5.43625e-12
1.43768e-07
2.68173e-07
2.68131e-07
1.90272e-07
1.32105e-08
4.30545e-09
1.38822e-09
7.07895e-08
1.78336e-07
1.95629e-07
1.90316e-07
9.18143e-08
1.81795e-09
6.75867e-10
2.82529e-10
2.82332e-10
2.82529e-10
1.21965e-07
3.38564e-07
6.97054e-07
4.86705e-07
2.40522e-06
1.26831e-06
4.53499e-08
8.48394e-08
9.32618e-08
5.52787e-08
3.55695e-08
2.37728e-08
1.47791e-08
1.5779e-08
1.44549e-08
1.22772e-08
4.80264e-09
4.09321e-09
4.03254e-09
2.90755e-09
1.87449e-09
9.69697e-10
3.29695e-10
7.12024e-09
-6.29041e-12
2.66386e-07
4.6964e-07
7.12786e-07
5.87652e-07
3.67206e-11
2.34948e-08
3.60542e-08
4.13e-08
6.3044e-08
3.17086e-08
1.66455e-08
1.62924e-08
2.35747e-08
2.41268e-08
3.27507e-08
1.55093e-08
5.12007e-09
2.88113e-09
2.31532e-09
1.94517e-09
1.78605e-09
2.13375e-09
2.79847e-09
3.77832e-07
1.51443e-06
3.16801e-06
9.07016e-07
4.45132e-11
3.96682e-09
1.33217e-07
1.31484e-06
1.93462e-06
1.11397e-06
3.87248e-07
2.75755e-07
2.592e-07
2.47809e-07
1.52737e-07
2.97253e-08
5.10531e-09
5.62669e-09
4.57792e-09
3.16926e-09
1.42567e-09
3.56665e-10
4.05718e-10
6.6715e-07
3.4877e-06
4.43835e-06
1.37789e-06
4.55143e-11
4.8839e-11
3.35279e-07
2.52291e-06
2.96434e-06
2.92701e-06
1.10137e-06
9.05246e-07
5.89586e-07
4.78211e-07
1.81326e-07
7.81757e-08
8.95953e-09
8.12217e-09
6.47763e-09
3.99356e-09
2.39729e-09
9.38049e-10
2.91266e-10
3.85332e-07
3.0542e-06
4.41508e-06
2.91087e-06
4.85615e-11
4.91334e-11
2.11881e-07
1.77115e-06
2.72405e-06
3.25382e-06
3.24806e-06
2.95892e-06
1.48389e-06
1.02654e-06
2.87075e-07
4.54834e-08
2.03e-08
1.1953e-08
1.12138e-08
1.04936e-08
8.02701e-09
4.98065e-09
1.41369e-09
1.19011e-07
1.47785e-06
3.80757e-06
2.62293e-06
4.87442e-11
4.8982e-11
4.89832e-11
9.69453e-10
9.95801e-07
3.17776e-06
3.24057e-06
3.2503e-06
3.19838e-06
2.65367e-06
1.7439e-07
1.17634e-08
1.17403e-08
1.18865e-08
1.78291e-08
1.88678e-08
1.60985e-08
1.16238e-08
6.03219e-09
3.34235e-08
1.26567e-07
9.93845e-07
6.57336e-07
3.29547e-08
4.89832e-11
8.45413e-11
1.11664e-10
1.96475e-10
6.43972e-07
1.77074e-06
3.06564e-06
3.0517e-06
2.00316e-06
3.09032e-08
2.8093e-08
1.42259e-08
1.1828e-08
1.73733e-08
2.05275e-08
1.96154e-08
1.37075e-08
1.01603e-08
1.63038e-08
9.81181e-09
5.81167e-09
5.74056e-09
1.90641e-08
1.552e-09
2.83957e-10
7.2192e-10
3.21638e-09
3.9592e-09
1.15408e-07
6.78454e-07
1.1684e-06
2.68785e-07
5.27176e-08
8.21676e-08
7.56774e-08
1.62661e-08
8.54152e-09
1.47188e-08
1.7567e-08
1.29198e-08
9.26137e-09
1.85366e-08
1.51243e-08
1.30538e-08
5.58233e-09
4.10702e-09
1.69708e-09
4.98109e-10
1.02124e-09
3.73206e-09
1.42154e-08
3.55194e-08
6.32438e-08
3.62351e-08
3.11413e-09
3.5079e-08
5.45038e-08
5.07459e-08
1.71812e-08
8.29577e-09
1.02664e-08
1.11865e-08
8.99972e-09
7.28774e-09
2.00126e-08
1.62706e-08
1.72665e-08
6.26452e-09
3.21782e-09
1.74953e-09
6.68382e-10
8.56933e-10
1.58595e-09
2.66199e-09
5.67581e-09
8.4144e-09
3.16509e-09
2.88921e-09
1.95171e-08
3.02338e-08
2.66438e-08
1.61215e-08
8.13527e-09
7.15399e-09
7.03903e-09
6.54043e-09
5.35326e-09
2.00053e-08
1.37034e-08
1.67535e-08
6.20808e-09
3.28917e-09
2.04027e-09
1.21747e-09
1.26289e-09
1.47629e-09
1.8094e-09
2.47329e-09
2.79495e-09
1.28131e-09
1.52269e-09
6.3463e-09
1.1505e-08
1.20723e-08
9.68846e-09
6.05125e-09
4.68349e-09
4.23116e-09
3.67582e-09
3.46241e-09
1.92849e-08
1.09757e-08
1.21845e-08
5.51077e-09
3.2447e-09
2.20384e-09
1.6474e-09
1.4142e-09
1.31283e-09
1.40174e-09
1.61627e-09
1.75628e-09
1.31356e-09
1.22492e-09
2.68654e-09
4.94455e-09
5.61126e-09
4.88965e-09
3.76437e-09
2.74712e-09
2.18394e-09
1.98624e-09
1.88726e-09
1.84784e-08
8.78766e-09
8.02604e-09
4.5501e-09
2.98516e-09
2.14827e-09
1.67604e-09
1.38943e-09
1.1805e-09
1.05684e-09
1.0595e-09
9.85526e-10
8.41066e-10
7.94168e-10
1.19192e-09
2.04539e-09
2.51831e-09
2.27008e-09
1.80128e-09
1.34634e-09
1.01401e-09
8.51651e-10
8.58431e-10
1.81391e-08
7.11655e-09
5.24092e-09
3.56871e-09
2.64103e-09
2.03024e-09
1.61583e-09
1.32031e-09
1.08625e-09
8.66692e-10
6.84565e-10
5.86277e-10
4.82827e-10
4.49499e-10
5.55612e-10
8.04105e-10
9.97272e-10
9.34123e-10
7.45174e-10
5.54187e-10
4.03454e-10
3.39487e-10
3.36785e-10
1.80344e-08
6.25896e-09
3.71846e-09
2.81863e-09
2.29829e-09
1.8578e-09
1.50611e-09
1.20808e-09
9.5564e-10
7.22976e-10
5.39229e-10
4.01856e-10
3.00611e-10
2.54872e-10
2.54873e-10
2.98089e-10
3.51608e-10
3.31586e-10
2.65363e-10
2.00775e-10
1.47116e-10
1.12493e-10
1.12778e-10
1.80182e-08
6.02497e-09
2.75528e-09
2.37287e-09
2.03013e-09
1.65874e-09
1.33059e-09
1.04713e-09
8.07683e-10
6.04935e-10
4.41602e-10
3.12256e-10
2.18898e-10
1.60302e-10
1.30514e-10
1.17574e-10
1.15634e-10
1.0393e-10
8.37802e-11
6.34569e-11
4.50863e-11
3.63195e-11
3.50598e-11
1.79938e-08
6.61486e-09
2.47594e-09
2.16874e-09
1.82948e-09
1.45803e-09
1.12438e-09
8.55918e-10
6.42346e-10
4.74508e-10
3.45553e-10
2.45284e-10
1.68727e-10
1.14354e-10
7.71431e-11
5.57751e-11
4.26407e-11
3.32507e-11
2.52679e-11
1.89985e-11
1.44138e-11
1.1215e-11
1.04317e-11
1.77604e-08
7.69095e-09
2.71415e-09
2.13995e-09
1.66768e-09
1.25228e-09
9.21125e-10
6.69243e-10
4.82643e-10
3.48845e-10
2.52222e-10
1.78072e-10
1.23818e-10
8.30707e-11
5.31992e-11
3.37285e-11
2.13091e-11
1.40541e-11
9.12748e-12
6.50275e-12
4.9143e-12
3.82227e-12
3.38991e-12
1.63526e-08
7.51768e-09
3.51905e-09
2.16519e-09
1.50127e-09
1.04627e-09
7.19566e-10
4.90612e-10
3.4004e-10
2.37667e-10
1.66684e-10
1.15547e-10
7.9733e-11
5.35066e-11
3.42895e-11
2.11208e-11
1.26094e-11
7.537e-12
4.26458e-12
2.66323e-12
1.89596e-12
1.34473e-12
1.16241e-12
1.46374e-08
7.07223e-09
3.6242e-09
2.10353e-09
1.33461e-09
8.55761e-10
5.45937e-10
3.4594e-10
2.22844e-10
1.46494e-10
9.78475e-11
6.60944e-11
4.4604e-11
2.9734e-11
1.94242e-11
1.18717e-11
7.05361e-12
4.03002e-12
2.12943e-12
1.18909e-12
7.30137e-13
4.74285e-13
3.82061e-13
1.32945e-08
6.40669e-09
3.40912e-09
1.92051e-09
1.13814e-09
6.78131e-10
3.99513e-10
2.34221e-10
1.39668e-10
8.509e-11
5.31245e-11
3.3654e-11
2.18538e-11
1.42478e-11
9.23892e-12
5.72349e-12
3.36009e-12
1.89389e-12
9.51239e-13
4.88354e-13
2.7666e-13
1.60238e-13
1.21305e-13
1.08178e-08
5.57018e-09
2.98555e-09
1.63179e-09
9.1237e-10
5.10689e-10
2.7871e-10
1.50952e-10
8.20857e-11
4.58481e-11
2.63147e-11
1.54947e-11
9.38968e-12
5.94433e-12
3.7749e-12
2.30581e-12
1.34664e-12
7.49798e-13
3.68972e-13
1.84599e-13
9.10836e-14
5.13223e-14
3.51903e-14
9.03493e-09
4.64799e-09
2.42603e-09
1.27915e-09
6.79021e-10
3.5651e-10
1.81071e-10
9.06211e-11
4.55029e-11
2.27872e-11
1.16616e-11
6.38491e-12
3.67183e-12
2.18949e-12
1.31746e-12
8.0318e-13
4.56485e-13
2.54961e-13
1.19403e-13
5.66262e-14
2.8232e-14
1.43034e-14
9.10101e-15
6.64642e-09
3.39995e-09
1.76396e-09
8.99186e-10
4.52456e-10
2.22184e-10
1.05158e-10
4.89097e-11
2.24089e-11
1.02904e-11
4.84731e-12
2.3955e-12
1.272e-12
7.15317e-13
4.09916e-13
2.37999e-13
1.27167e-13
6.92845e-14
3.1835e-14
1.46193e-14
6.48813e-15
3.41647e-15
2.05627e-15
4.71558e-09
2.36951e-09
1.10833e-09
5.42437e-10
2.5922e-10
1.204e-10
5.38858e-11
2.36448e-11
1.00931e-11
4.29481e-12
1.81534e-12
8.1296e-13
3.96121e-13
2.06816e-13
1.07422e-13
5.9849e-14
3.15501e-14
1.62533e-14
7.20238e-15
3.15575e-15
1.43426e-15
6.97859e-16
3.92795e-16
2.80763e-09
1.2776e-09
6.01556e-10
2.77526e-10
1.27424e-10
5.58345e-11
2.39998e-11
9.65893e-12
3.91976e-12
1.50987e-12
6.06018e-13
2.39248e-13
1.06409e-13
5.09384e-14
2.60197e-14
1.34467e-14
6.78663e-15
3.22816e-15
1.41537e-15
5.50767e-16
2.49801e-16
1.23057e-16
6.54121e-17
1.44443e-09
6.464e-10
2.95068e-10
1.3132e-10
5.64972e-11
2.34431e-11
9.50016e-12
3.68334e-12
1.3835e-12
4.80224e-13
1.73417e-13
6.438e-14
2.57308e-14
1.15471e-14
5.61854e-15
2.7785e-15
1.32209e-15
5.81522e-16
2.40106e-16
8.95969e-17
3.87514e-17
1.81248e-17
9.10193e-18
5.66889e-10
2.66053e-10
1.1606e-10
4.94304e-11
2.05941e-11
8.31354e-12
3.23396e-12
1.19661e-12
4.00632e-13
1.37129e-13
4.40092e-14
1.49638e-14
5.73311e-15
2.43099e-15
1.11423e-15
5.11392e-16
2.2596e-16
9.23581e-17
3.55574e-17
1.31951e-17
5.31499e-18
2.3341e-18
1.05776e-18
1.88537e-10
8.15035e-11
3.43772e-11
1.46909e-11
6.16265e-12
2.48849e-12
9.31798e-13
3.30206e-13
1.06747e-13
3.42707e-14
1.04449e-14
3.30085e-15
1.15764e-15
4.55056e-16
1.94064e-16
8.33955e-17
3.39911e-17
1.2768e-17
4.56666e-18
1.62516e-18
6.21716e-19
2.52141e-19
1.08547e-19
3.59142e-11
1.56747e-11
7.52429e-12
3.41814e-12
1.53532e-12
6.37446e-13
2.37201e-13
8.0325e-14
2.55943e-14
7.6111e-15
2.06852e-15
6.20476e-16
2.06319e-16
7.66492e-17
3.08245e-17
1.22415e-17
4.56014e-18
1.57773e-18
5.27533e-19
1.7701e-19
6.39776e-20
2.33443e-20
9.44788e-21
3.18571e-12
1.66486e-12
9.94695e-13
6.19284e-13
3.11743e-13
1.34409e-13
5.13686e-14
1.78513e-14
5.37695e-15
1.55022e-15
4.18867e-16
1.13845e-16
3.47359e-17
1.21038e-17
4.48171e-18
1.62624e-18
5.53425e-19
1.75153e-19
5.36322e-20
1.67253e-20
5.3031e-21
1.77343e-21
2.11201e-22
2.03743e-14
3.94445e-14
8.04815e-14
7.76033e-14
4.97017e-14
2.46325e-14
1.01134e-14
3.55616e-15
1.11087e-15
3.06037e-16
7.73166e-17
1.92363e-17
5.39911e-18
1.74854e-18
5.95622e-19
1.94852e-19
5.75727e-20
1.65576e-20
4.83085e-21
1.3712e-21
4.22634e-22
4.14333e-23
1.14745e-24
8.52174e-21
9.63674e-17
3.5978e-15
9.49442e-15
7.44885e-15
4.04344e-15
1.74014e-15
6.35636e-16
2.01535e-16
5.5472e-17
1.36951e-17
3.25733e-18
8.4703e-19
2.51757e-19
7.37423e-20
2.08317e-20
5.45498e-21
1.44203e-21
3.95718e-22
9.98552e-23
1.89738e-23
5.32748e-25
5.29985e-27
0.970749
0.947386
0.946847
0.95041
0.905556
0.906627
0.941038
0.978614
0.350788
0.253685
0.247758
0.414003
3.24522e-24
5.1986e-14
2.51082e-14
1.81119e-14
2.1166e-06
2.91227e-06
2.4727e-05
2.39108e-05
1.38684e-05
1.33879e-05
7.55193e-06
1.46153e-05
2.75064e-06
1.63959e-06
5.33238e-06
1.24273e-05
2.37744e-06
1.56265e-06
5.53957e-08
1.58987e-07
4.41286e-07
2.79509e-08
1.26708e-09
1.13032e-09
-1.13964e-11
2.15786e-09
4.30427e-09
7.3451e-09
2.93153e-09
2.71813e-09
3.90729e-09
1.2182e-08
3.48148e-10
2.27684e-10
2.19447e-10
5.42307e-10
1.64446e-10
1.16851e-10
9.1434e-11
8.41849e-11
5.00819e-10
4.54153e-10
3.21698e-10
2.07909e-10
1.48697e-09
1.2215e-09
9.12098e-10
4.67601e-10
6.23243e-09
2.35637e-09
1.77248e-09
1.09141e-09
8.91498e-09
5.53266e-09
3.31816e-09
2.57756e-09
5.96714e-09
5.9565e-09
5.64407e-09
4.27302e-09
4.55189e-09
4.01609e-09
3.83122e-09
3.71676e-09
2.97302e-09
2.7471e-09
2.59043e-09
2.47238e-09
1.76336e-09
1.63901e-09
1.60423e-09
1.52485e-09
8.50887e-10
8.33595e-10
8.47654e-10
8.2424e-10
3.36685e-10
3.56551e-10
3.80913e-10
3.7848e-10
1.13629e-10
1.11991e-10
1.33738e-10
1.39687e-10
3.4683e-11
3.26844e-11
3.80217e-11
4.04766e-11
1.02242e-11
9.17481e-12
1.00513e-11
1.09931e-11
3.19839e-12
2.88793e-12
2.93765e-12
2.85316e-12
1.06459e-12
8.96141e-13
8.52297e-13
8.77847e-13
3.5716e-13
3.04731e-13
2.89603e-13
2.61418e-13
1.05894e-13
9.15019e-14
8.16693e-14
7.77748e-14
2.98082e-14
2.55579e-14
2.31682e-14
2.07052e-14
7.35372e-15
5.93721e-15
5.29537e-15
4.70286e-15
1.62789e-15
1.33233e-15
1.10109e-15
9.14417e-16
2.9579e-16
2.35654e-16
1.94494e-16
1.53731e-16
4.81513e-17
3.67981e-17
2.82279e-17
2.06229e-17
6.35179e-18
4.60086e-18
3.4612e-18
2.24087e-18
6.99204e-19
4.75297e-19
3.61524e-19
1.78392e-19
6.70338e-20
2.9784e-20
1.23292e-20
2.77826e-21
1.71479e-21
4.26656e-22
1.30186e-22
1.58297e-23
1.44337e-27
1.24963e-24
2.34295e-25
8.54428e-27
3.40156e-41
6.72654e-29
2.86053e-28
9.36907e-28
-3.6178e-46
6.26104e-29
2.36268e-28
7.20744e-28
0.980179
0.97545
0.948802
0.941595
0.873323
0.362786
0.513509
0.954743
0.999174
0.999361
0.999482
0.9789
0.689161
0.956812
0.999762
0.999774
0.989702
0.850582
0.851873
0.994073
0.993957
0.941845
0.91875
0.80016
0.493239
0.575507
0.838252
0.943122
0.972864
0.99
0.990916
0.983844
0.976681
0.893257
0.735254
0.566647
0.575644
0.807842
0.638398
0.601131
0.572929
0.701632
0.672995
0.301281
0.399483
0.545316
0.371581
0.264954
0.279723
0.357524
0.469009
0.34995
0.19129
0.107974
0.10562
0.166326
0.283015
0.00713813
0.0217726
0.0409732
0.110565
0.07656
0.0223768
0.0581719
0.0521947
0.00305265
0.000118797
1.15543e-06
1.77735e-20
6.06238e-25
6.02791e-25
-7.93721e-26
-4.29376e-10
-2.71546e-21
3.33586e-20
2.7483e-23
1.87131e-06
1.92313e-06
1.87131e-06
1.92312e-06
4.31908e-06
-5.74463e-20
4.59218e-20
4.09541e-20
4.89809e-14
-4.52753e-14
7.24376e-08
3.42865e-08
3.257e-08
5.86041e-07
4.54443e-07
7.50132e-09
2.45856e-06
2.87262e-05
9.81228e-05
1.47457e-05
1.34699e-05
3.51928e-06
4.2045e-06
8.91408e-06
8.59288e-06
1.78852e-06
1.43518e-09
2.20511e-09
3.59754e-11
4.79812e-08
8.88444e-08
1.49307e-08
1.07426e-07
6.24901e-09
6.51595e-09
3.04834e-07
1.04451e-05
8.54947e-06
8.71746e-06
3.6013e-06
1.29645e-06
1.54475e-06
2.65288e-06
3.21903e-06
9.60439e-07
5.36216e-08
9.84261e-09
8.41222e-09
3.85595e-08
5.25986e-08
8.26833e-06
1.54006e-05
2.64775e-06
1.67667e-08
3.29538e-05
7.32815e-05
3.79688e-05
1.78399e-07
4.15475e-07
1.23668e-07
3.32327e-08
1.11425e-07
5.11108e-07
1.30175e-07
1.86461e-08
1.15654e-08
3.64277e-09
5.06968e-09
8.94398e-08
3.62676e-06
1.69574e-05
0.00046085
0.00396391
0.00620591
0.00634392
0.0057915
1.55555e-09
1.97164e-09
1.10178e-08
3.13021e-08
3.15025e-08
4.41571e-08
8.4068e-07
6.8092e-07
1.15252e-08
7.51624e-06
9.68674e-06
4.29329e-08
4.2837e-08
5.15149e-05
0.00563705
0.00967348
0.00967017
0.00967347
0.00967016
1.88242e-08
2.90834e-08
4.93822e-08
8.90606e-08
1.175e-07
4.7481e-07
1.11688e-06
3.34462e-06
6.42982e-06
9.11154e-06
3.75516e-05
0.00017701
0.000190439
0.0005029
0.00454981
0.00688099
0.00635993
0.00492709
0.00585431
2.13736e-08
3.31616e-08
3.6499e-08
1.46395e-08
2.74314e-09
1.21804e-07
5.97078e-08
2.5743e-08
1.79719e-05
3.0955e-05
5.53538e-05
0.000135908
0.000201693
0.000462657
0.000280303
4.9924e-07
-5.97453e-18
2.6547e-07
9.1462e-06
6.61509e-10
6.51514e-10
6.09077e-10
7.93103e-11
7.98936e-11
3.86114e-10
1.96236e-10
2.99002e-10
7.0918e-06
1.50071e-05
2.54387e-05
3.17936e-05
5.03098e-05
4.68463e-05
1.85527e-06
6.4495e-08
2.11075e-09
1.1951e-10
2.71159e-07
7.63918e-11
7.15299e-11
8.43143e-11
1.42442e-10
3.40622e-10
9.27476e-10
1.75306e-09
8.7446e-09
6.46021e-07
1.26559e-06
8.27741e-07
3.76255e-06
3.25535e-06
1.66455e-09
1.84023e-09
3.68044e-09
1.03923e-08
8.68363e-09
1.1791e-07
1.54346e-10
1.06377e-10
1.39135e-10
2.33961e-10
5.0772e-10
1.64083e-09
5.86192e-09
1.05428e-08
1.42306e-08
6.69387e-08
6.88621e-10
7.10363e-10
7.0558e-10
1.6271e-09
4.702e-09
2.01197e-08
2.36522e-08
1.70337e-08
1.12572e-08
2.34393e-10
1.1876e-10
1.4042e-10
1.92042e-10
2.95144e-10
4.78837e-10
9.50383e-10
2.44847e-09
2.34436e-09
3.59263e-09
4.02718e-09
9.23684e-10
7.505e-10
3.41692e-09
8.54107e-09
1.82714e-08
2.11017e-08
1.34002e-08
9.41298e-09
4.87064e-10
1.32649e-10
1.32954e-10
1.45486e-10
1.94416e-10
3.18833e-10
5.55521e-10
1.13154e-09
1.31098e-09
1.35681e-09
1.31387e-09
5.81101e-10
6.31105e-10
2.53793e-09
5.80479e-09
1.04737e-08
1.07557e-08
7.7379e-09
8.66158e-09
1.28252e-09
3.30668e-10
1.60328e-10
1.47014e-10
1.56408e-10
1.86822e-10
2.3803e-10
4.15266e-10
5.57334e-10
6.03731e-10
5.06598e-10
3.58897e-10
3.70537e-10
1.00728e-09
2.46834e-09
3.50807e-09
3.65677e-09
2.82414e-09
3.69923e-09
2.38038e-09
9.9212e-10
3.96814e-10
2.15434e-10
1.60188e-10
1.57644e-10
1.66541e-10
1.9112e-10
2.36392e-10
2.54917e-10
2.40043e-10
1.89086e-10
1.79564e-10
2.95502e-10
6.28492e-10
8.78843e-10
8.4996e-10
5.5938e-10
6.96252e-10
3.21703e-09
1.65128e-09
8.24444e-10
4.42144e-10
2.37207e-10
1.53555e-10
1.23541e-10
1.17216e-10
1.17569e-10
1.14731e-10
1.04184e-10
8.40324e-11
7.1658e-11
7.75975e-11
1.10965e-10
1.29544e-10
1.02394e-10
5.71708e-11
2.34371e-11
2.38113e-09
1.83748e-09
1.0829e-09
6.70485e-10
3.94987e-10
2.10421e-10
1.15339e-10
7.67593e-11
6.18676e-11
5.45206e-11
4.7618e-11
3.89647e-11
2.77128e-11
1.97247e-11
1.48015e-11
1.35455e-11
7.98726e-12
1.51921e-12
4.15868e-13
1.43214e-09
1.32293e-09
1.07733e-09
7.18655e-10
4.72491e-10
2.79379e-10
1.50419e-10
7.40069e-11
4.24338e-11
3.16618e-11
2.51916e-11
1.80282e-11
1.05374e-11
4.91439e-12
1.88745e-12
8.23874e-13
8.62083e-14
3.37607e-14
1.7559e-14
7.99143e-10
7.42986e-10
6.6616e-10
5.9724e-10
4.47508e-10
2.96483e-10
1.80495e-10
9.32959e-11
4.44386e-11
2.37336e-11
1.42027e-11
7.67693e-12
3.67333e-12
1.3742e-12
3.49883e-13
8.27412e-14
1.02927e-14
3.66032e-15
1.23768e-15
3.71821e-10
3.62971e-10
3.36772e-10
3.01414e-10
2.70662e-10
2.34431e-10
1.61504e-10
9.83042e-11
5.08663e-11
2.26274e-11
9.34536e-12
3.66673e-12
1.35469e-12
4.29236e-13
1.03506e-13
2.21068e-14
2.21188e-15
7.4631e-16
2.51509e-16
1.40245e-10
1.4141e-10
1.40868e-10
1.3142e-10
1.18585e-10
1.05378e-10
9.44835e-11
7.00235e-11
4.26299e-11
2.10682e-11
8.27699e-12
2.59418e-12
6.92087e-13
1.71745e-13
3.77652e-14
4.83857e-15
6.73937e-16
3.86369e-16
1.51784e-16
4.0441e-11
4.38973e-11
4.51105e-11
4.4012e-11
4.18876e-11
3.84922e-11
3.64094e-11
3.12523e-11
2.35568e-11
1.42838e-11
6.60687e-12
2.10154e-12
4.65199e-13
8.56535e-14
1.58852e-14
1.24405e-15
3.15391e-16
2.56376e-16
1.06669e-16
1.06963e-11
1.10107e-11
1.1325e-11
1.1511e-11
1.11587e-11
1.07866e-11
1.05024e-11
9.95881e-12
8.75495e-12
6.72864e-12
3.81012e-12
1.39044e-12
3.00655e-13
4.23631e-14
4.54084e-15
2.91884e-16
1.55377e-16
1.58308e-16
6.97696e-17
2.72029e-12
2.70826e-12
2.64756e-12
2.5696e-12
2.49641e-12
2.45762e-12
2.44145e-12
2.39809e-12
2.44974e-12
2.22831e-12
1.53572e-12
6.70158e-13
1.61229e-13
2.00897e-14
1.02434e-15
7.73843e-17
7.47853e-17
9.25758e-17
4.90402e-17
7.85315e-13
6.98696e-13
6.46583e-13
5.77623e-13
5.31142e-13
4.9391e-13
4.63336e-13
4.71693e-13
5.35222e-13
5.59127e-13
4.50786e-13
2.37482e-13
5.47066e-14
4.3545e-15
1.81691e-16
3.1744e-17
3.53393e-17
6.71418e-17
3.01011e-17
2.23578e-13
1.91194e-13
1.57906e-13
1.29087e-13
1.10331e-13
8.65272e-14
7.35198e-14
7.93701e-14
9.49848e-14
1.07189e-13
9.88401e-14
5.01211e-14
6.69564e-15
3.26317e-16
1.72374e-17
1.10137e-17
1.6991e-17
4.06202e-17
1.94292e-17
6.27933e-14
4.95199e-14
3.73751e-14
2.97249e-14
2.27093e-14
1.24392e-14
7.98849e-15
9.24533e-15
1.2329e-14
1.54861e-14
1.38078e-14
3.55993e-15
4.56655e-16
1.86297e-17
2.16725e-18
3.69648e-18
9.40044e-18
2.79513e-17
1.09091e-17
1.5476e-14
1.09931e-14
7.86017e-15
6.08223e-15
3.38548e-15
1.21021e-15
5.23747e-16
7.09551e-16
1.1251e-15
1.56076e-15
6.09873e-16
1.77059e-16
2.2618e-17
6.63646e-19
4.96658e-19
1.85676e-18
6.98217e-18
1.55687e-17
6.31967e-18
3.29784e-15
2.21726e-15
1.62275e-15
8.79773e-16
3.22724e-16
5.99127e-17
1.92351e-17
3.88315e-17
8.47474e-17
3.55747e-17
1.56349e-17
5.8057e-18
6.86586e-19
9.62362e-20
2.58833e-19
1.34183e-18
4.91432e-18
1.01165e-17
3.06777e-18
5.9029e-16
3.90472e-16
2.25947e-16
7.51132e-17
1.26104e-17
7.90185e-19
4.73562e-19
1.74498e-18
8.81578e-19
4.86997e-19
3.06929e-19
9.23472e-20
2.78701e-20
4.74592e-20
1.81572e-19
1.01949e-18
3.48153e-18
4.98988e-18
1.636e-18
9.14442e-17
5.67735e-17
1.94179e-17
2.83698e-18
1.29919e-19
5.16663e-21
1.20178e-20
8.16248e-21
7.16825e-21
8.0454e-21
7.70397e-21
9.52785e-21
1.66616e-20
3.84977e-20
1.54137e-19
8.37717e-19
2.15965e-18
3.02536e-18
6.87343e-19
1.27786e-17
4.31828e-18
6.9925e-19
2.89494e-20
2.72362e-22
1.10238e-22
1.49866e-22
2.94898e-22
6.61355e-22
1.49785e-21
3.46498e-21
7.66692e-21
1.51945e-20
3.56114e-20
1.4479e-19
6.15337e-19
1.39486e-18
1.25239e-18
3.23032e-19
1.1219e-18
1.70038e-19
6.71578e-21
3.22313e-23
1.34513e-23
2.66327e-23
7.14372e-23
2.00409e-22
5.36595e-22
1.36776e-21
3.32557e-21
7.41194e-21
1.46358e-20
3.37063e-20
1.20368e-19
3.85703e-19
7.9946e-19
6.94778e-19
1.10503e-19
2.58991e-20
5.86552e-22
3.56262e-24
2.56181e-24
6.55576e-24
2.08348e-23
6.26949e-23
1.7831e-22
4.78546e-22
1.22482e-21
2.97266e-21
6.53569e-21
1.27963e-20
2.89882e-20
9.2569e-20
2.54972e-19
4.42347e-19
2.35237e-19
4.56298e-20
2.14115e-22
1.77616e-24
5.48572e-25
1.58578e-24
5.42178e-24
1.72408e-23
5.21348e-23
1.46708e-22
3.93314e-22
1.00408e-21
2.40839e-21
5.29694e-21
1.02692e-20
2.25348e-20
6.51577e-20
1.58541e-19
1.90658e-19
1.06347e-19
1.50419e-20
7.29281e-25
9.3354e-26
3.25236e-25
1.20948e-24
4.09488e-24
1.2863e-23
3.82456e-23
1.07183e-22
2.8749e-22
7.36274e-22
1.76616e-21
3.82415e-21
7.3671e-21
1.60967e-20
3.87361e-20
9.12458e-20
7.77236e-20
2.86077e-20
6.21745e-21
1.20888e-26
5.69086e-26
2.22628e-25
7.65095e-25
2.48746e-24
7.58948e-24
2.26565e-23
6.54086e-23
1.77613e-22
4.59075e-22
1.10521e-21
2.44796e-21
4.88004e-21
1.01533e-20
2.11127e-20
4.29825e-20
2.56451e-20
1.00305e-20
2.7232e-21
7.69678e-27
3.19019e-26
1.12348e-25
3.6034e-25
1.15144e-24
3.62178e-24
1.10085e-23
3.23892e-23
9.10251e-23
2.45985e-22
6.11312e-22
1.35793e-21
2.65844e-21
5.65043e-21
1.04061e-20
1.61275e-20
6.85128e-21
3.13674e-21
7.21992e-22
2.78079e-27
9.513e-27
2.9427e-26
8.88755e-26
3.23455e-25
1.1067e-24
3.75359e-24
1.18373e-23
3.56025e-23
1.00299e-22
2.59794e-22
6.01616e-22
1.18445e-21
2.36609e-21
3.6776e-21
4.06915e-21
1.61965e-21
4.814e-22
3.37533e-23
)
;

boundaryField
{
    leftWall
    {
        type            alphaContactAngle;
        contactAngleProperties 
        {
            mercury         
            {
                theta0          90;
            }
            air             
            {
                theta0          90;
            }
            oil             
            {
                theta0          90;
            }
        }
        value           nonuniform List<scalar> 
50
(
1.06045e-10
2.13872e-10
2.45494e-10
1.58932e-10
9.87151e-08
0.295585
0.960941
1
1
1
0.91289
0.69269
0.0467982
6.80612e-05
6.80615e-05
8.9695e-05
3.79169e-05
6.97054e-07
2.66386e-07
3.77832e-07
6.6715e-07
3.85332e-07
1.19011e-07
3.34235e-08
1.63038e-08
1.85366e-08
2.00126e-08
2.00053e-08
1.92849e-08
1.84784e-08
1.81391e-08
1.80344e-08
1.80182e-08
1.79938e-08
1.77604e-08
1.63526e-08
1.46374e-08
1.32945e-08
1.08178e-08
9.03493e-09
6.64642e-09
4.71558e-09
2.80763e-09
1.44443e-09
5.66889e-10
1.88537e-10
3.59142e-11
3.18571e-12
2.03743e-14
8.52174e-21
)
;
    }
    rightWall
    {
        type            alphaContactAngle;
        contactAngleProperties 
        {
            mercury         
            {
                theta0          90;
            }
            air             
            {
                theta0          90;
            }
            oil             
            {
                theta0          90;
            }
        }
        value           nonuniform List<scalar> 
50
(
0.0115213
0.011429
0.000636117
0.0644918
0.473156
0.619717
0.770584
0.81043
0.851873
0.807842
0.283015
2.7483e-23
9.81228e-05
8.54947e-06
3.79688e-05
0.0057915
0.00967016
0.00585431
9.1462e-06
2.71159e-07
1.1791e-07
1.12572e-08
9.41298e-09
8.66158e-09
3.69923e-09
6.96252e-10
2.34371e-11
4.15868e-13
1.7559e-14
1.23768e-15
2.51509e-16
1.51784e-16
1.06669e-16
6.97696e-17
4.90402e-17
3.01011e-17
1.94292e-17
1.09091e-17
6.31967e-18
3.06777e-18
1.636e-18
6.87343e-19
3.23032e-19
1.10503e-19
4.56298e-20
1.50419e-20
6.21745e-21
2.7232e-21
7.21992e-22
3.37533e-23
)
;
    }
    lowerWall
    {
        type            alphaContactAngle;
        contactAngleProperties 
        {
            mercury         
            {
                theta0          90;
            }
            air             
            {
                theta0          90;
            }
            oil             
            {
                theta0          90;
            }
        }
        value           nonuniform List<scalar> 
62
(
1.06045e-10
1.32504e-10
1.51377e-10
1.56408e-10
1.63575e-10
1.70347e-10
1.77971e-10
1.84935e-10
1.9059e-10
1.95916e-10
2.01746e-10
2.09779e-10
2.24961e-10
2.55009e-10
3.06811e-10
3.75883e-10
4.70515e-10
6.06724e-10
1.21384e-09
2.1802e-09
2.74652e-09
2.77311e-09
2.77214e-09
2.77214e-09
1.98237e-09
1.06487e-09
6.43291e-10
1.06267e-10
1.14717e-10
0.304971
0.957883
0.970749
0.947386
0.946847
0.95041
0.00888671
0.00845796
0.00762203
0.00898847
0.389567
0.816554
0.909834
0.892943
0.00888671
0.041381
0.0481861
0.0392701
0.0113921
0.001413
0.00135795
0.000858418
0.000896704
0.000858418
0.0100248
0.0456601
0.124401
0.124402
0.124409
0.122868
0.0400575
0.0026613
0.0115213
)
;
    }
    atmosphere
    {
        type            inletOutlet;
        inletValue      uniform 0;
        value           nonuniform List<scalar> 
46
(
0
0
3.5978e-15
9.49442e-15
7.44885e-15
4.04344e-15
1.74014e-15
6.35636e-16
2.01535e-16
5.5472e-17
1.36951e-17
3.25733e-18
8.47029e-19
0
0
0
0
0
0
0
0
0
0
0
0
0
0
0
0
0
0
3.23455e-25
1.1067e-24
3.75359e-24
1.18373e-23
3.56025e-23
1.00299e-22
2.59794e-22
6.01616e-22
1.18445e-21
2.36609e-21
0
0
0
0
0
)
;
    }
    defaultFaces
    {
        type            empty;
    }
}

