/*--------------------------------*- C++ -*----------------------------------*\
  =========                 |
  \\      /  F ield         | OpenFOAM: The Open Source CFD Toolbox
   \\    /   O peration     | Website:  https://openfoam.org
    \\  /    A nd           | Version:  13
     \\/     M anipulation  |
\*---------------------------------------------------------------------------*/
FoamFile
{
    format      ascii;
    class       volScalarField;
    location    "2.8";
    object      epsilon;
}
// * * * * * * * * * * * * * * * * * * * * * * * * * * * * * * * * * * * * * //

dimensions      [0 2 -3 0 0 0 0];

internalField   nonuniform List<scalar> 
2268
(
0.00291532
0.0153568
0.0300261
0.0442731
0.0573764
0.0691186
0.0793852
0.0881044
0.0953269
0.101207
0.10584
0.109238
0.111406
0.112542
0.11288
0.112137
0.109852
0.105238
0.0971781
0.0840625
0.0639494
0.0364081
0.00962296
0.00512099
0.0100894
0.0165923
0.0229524
0.0287696
0.0339191
0.0383618
0.0421008
0.0451553
0.0475532
0.0493251
0.0504939
0.0510745
0.0511501
0.0507887
0.0499601
0.0485664
0.0464144
0.0432199
0.0385893
0.0320696
0.0236603
0.0166189
0.00876366
0.0103283
0.0148566
0.0194114
0.0236217
0.0273841
0.0306617
0.0334466
0.03574
0.0375497
0.0388901
0.0397774
0.0402311
0.0403093
0.040064
0.0395157
0.0386487
0.0374044
0.0356956
0.0334214
0.0305166
0.0272896
0.0287071
0.0125444
0.0115097
0.0149923
0.0186799
0.022152
0.0253025
0.0280863
0.0304807
0.0324757
0.0340727
0.035279
0.0361064
0.0365788
0.0367489
0.0366681
0.0363763
0.0358967
0.0352407
0.0344371
0.0335862
0.0329823
0.0335749
0.0432959
0.0165749
0.0131085
0.0158211
0.018942
0.0219592
0.0247515
0.027261
0.0294485
0.031295
0.0327985
0.0339603
0.0347887
0.0353103
0.0355769
0.0356419
0.0355583
0.0353759
0.0351563
0.035021
0.0352611
0.0366255
0.0412957
0.0624147
0.0212208
0.0150004
0.0170393
0.0197256
0.0224185
0.024973
0.0273147
0.0293852
0.0311558
0.0326226
0.0337802
0.0346322
0.0352068
0.0355554
0.0357346
0.0358087
0.0358485
0.0359542
0.0363222
0.037422
0.0405543
0.0500796
0.0904119
0.0263706
0.0171251
0.0185318
0.0208504
0.023291
0.0256774
0.0279161
0.0299255
0.0316651
0.03313
0.0343067
0.0351919
0.0358132
0.0362228
0.036482
0.0366661
0.0368626
0.0371986
0.0379222
0.0396388
0.044184
0.0591854
0.137722
0.0307026
0.0193534
0.0201664
0.022145
0.0243552
0.0265942
0.0287581
0.0307515
0.0325162
0.0340302
0.0352673
0.0362103
0.0368791
0.037333
0.0376417
0.0378918
0.0381862
0.0386658
0.0396024
0.0416568
0.0469015
0.0659162
0.23356
0.00942244
0.0269271
0.0451458
0.0636993
0.0808959
0.0842204
0.0902774
0.093131
0.0905548
0.086805
0.0747027
0.0637998
0.0626411
0.0561764
0.0473025
0.0402497
0.0302924
0.0178418
0.0031172
0.011498
0.0197589
0.0279394
0.0348106
0.0400726
0.0420006
0.0434473
0.0441147
0.0430247
0.0405513
0.0366537
0.0336295
0.0307251
0.0273972
0.0237744
0.0206532
0.0168602
0.012042
0.00604136
0.0161407
0.0194131
0.0253463
0.0303044
0.033903
0.0352084
0.0357669
0.0360591
0.0352615
0.0333814
0.0306929
0.0284384
0.0260592
0.0232581
0.0206523
0.0184913
0.0163666
0.014108
0.0123106
0.0206122
0.0203819
0.025303
0.0293085
0.0318932
0.0330978
0.0334501
0.0336885
0.0328516
0.0314057
0.0292482
0.0273287
0.0254688
0.0226749
0.0204394
0.0188515
0.0178846
0.0180054
0.022814
0.0252094
0.0219937
0.0265325
0.0298088
0.0314136
0.0321148
0.0323578
0.0323591
0.0313863
0.0300203
0.0284433
0.0272055
0.0264961
0.0231148
0.0210468
0.0200155
0.0196601
0.0214157
0.0406545
0.0260586
0.024428
0.0286867
0.0310829
0.0318891
0.0320566
0.0319518
0.0315305
0.0305013
0.0292058
0.0278575
0.0268568
0.0279096
0.0234405
0.0218089
0.0209325
0.0203983
0.0218467
0.0444384
0.0284693
0.0284273
0.0314161
0.0328687
0.0329457
0.0325241
0.032104
0.0314205
0.0303254
0.0290565
0.0278437
0.0267419
0.0274282
0.0237324
0.0223061
0.0213189
0.0206136
0.0216107
0.0435908
0.0468979
0.0351548
0.0346126
0.0346954
0.034213
0.0332898
0.0326289
0.0317886
0.0304996
0.029155
0.0279651
0.0267881
0.0266863
0.0241707
0.0227238
0.0216614
0.0209215
0.0215559
0.0404719
0.0380559
0.0231474
0.0229967
0.0243863
0.0261421
0.0280229
0.0299245
0.0317652
0.0334902
0.0350541
0.0363934
0.0374647
0.0382683
0.0388428
0.0392614
0.0396208
0.040036
0.0406532
0.0417391
0.0438863
0.0486078
0.0604325
0.0960137
0.0484588
0.0286295
0.027342
0.027976
0.0290869
0.03037
0.0317049
0.0330296
0.0343174
0.0355418
0.0366626
0.037644
0.0384748
0.0391647
0.0397499
0.0402949
0.040882
0.0416222
0.0427008
0.0444732
0.0476447
0.0535651
0.0645617
0.0556926
0.0343405
0.032056
0.0319733
0.0324869
0.0332372
0.0340847
0.0349697
0.0358697
0.0367619
0.0376168
0.038411
0.0391304
0.0397716
0.0403587
0.0409385
0.0415697
0.0423231
0.0433042
0.04468
0.0466966
0.049663
0.0537173
0.0646931
0.0403971
0.0368906
0.0360665
0.0360235
0.036311
0.03678
0.0373482
0.0379621
0.0385955
0.0392308
0.0398491
0.0404347
0.0409806
0.0415084
0.0420655
0.0426982
0.0434365
0.0443244
0.0454177
0.0467406
0.0482555
0.0498085
0.0750204
0.0462643
0.0415647
0.040041
0.0395019
0.039406
0.0395716
0.0398895
0.0402784
0.0407049
0.0411507
0.0415972
0.0420314
0.042452
0.0428858
0.0433787
0.0439651
0.0446457
0.0454191
0.0462684
0.0471219
0.0478585
0.0483453
0.0842435
0.0518816
0.0457674
0.0436524
0.0427351
0.0423482
0.0422599
0.042344
0.0425318
0.0427761
0.0430504
0.0433333
0.0436109
0.0438965
0.0442198
0.0446143
0.0451113
0.0457174
0.0463905
0.0470496
0.0475851
0.0478828
0.0478865
0.0957129
0.0564841
0.0492719
0.0466877
0.0454778
0.0448681
0.0445668
0.0444465
0.0444572
0.0445555
0.0446965
0.0448514
0.0450097
0.0451884
0.0454136
0.0457114
0.0461113
0.0466253
0.0471973
0.0477097
0.0480307
0.0480692
0.0478375
0.106146
0.0603983
0.0521367
0.0491198
0.0476618
0.0468624
0.0463876
0.0461117
0.0459953
0.0459916
0.0460468
0.0461236
0.0462104
0.0463181
0.0464657
0.0466787
0.0469892
0.04741
0.0478831
0.0482728
0.0484354
0.0483022
0.0479313
0.109778
0.0638583
0.0545635
0.0511111
0.0494011
0.0484282
0.0478109
0.0474202
0.0472146
0.0471479
0.0471598
0.0471992
0.0472459
0.0473043
0.0473895
0.0475325
0.0477759
0.0481389
0.0485512
0.0488379
0.0488486
0.0485486
0.0480398
0.117964
0.0650713
0.0561218
0.0526905
0.0508321
0.0497115
0.0489811
0.048498
0.0482104
0.0480907
0.0480816
0.0481072
0.0481325
0.0481572
0.048192
0.048272
0.0484389
0.0486834
0.0489068
0.048973
0.0488198
0.0484506
0.0479432
0.111486
0.0650211
0.0568373
0.0536006
0.0516969
0.0503533
0.0493789
0.0487049
0.0482686
0.0480678
0.0480625
0.0481444
0.0482388
0.0483053
0.0483255
0.048315
0.048308
0.0483091
0.0482964
0.0482243
0.0480525
0.0477777
0.0474237
0.114155
0.0657989
0.0569437
0.053234
0.0511132
0.0496747
0.0485778
0.0477633
0.047261
0.0470906
0.04715
0.0472712
0.0473669
0.047406
0.0473819
0.0473143
0.047246
0.0472076
0.0471953
0.0471636
0.0470659
0.0468832
0.0466045
0.125141
0.0668418
0.0563615
0.0521383
0.0498448
0.0483609
0.0472265
0.0463562
0.0458046
0.0455911
0.0456152
0.045711
0.0457924
0.0458359
0.045842
0.0458279
0.0458221
0.0458447
0.0458839
0.0459019
0.045861
0.0457437
0.0455361
0.12922
0.0662326
0.0547379
0.0502472
0.0479312
0.0465226
0.0454806
0.0446728
0.0441503
0.0439273
0.0439205
0.0439975
0.044083
0.0441567
0.0442171
0.0442733
0.0443396
0.044423
0.0445067
0.0445608
0.0445569
0.0444816
0.0443212
0.126416
0.0638273
0.0522314
0.0477788
0.045577
0.0443271
0.0434775
0.0428372
0.0424183
0.04223
0.0422186
0.0423003
0.0424136
0.0425334
0.0426509
0.0427667
0.0428845
0.0430031
0.0431063
0.0431721
0.0431817
0.0431273
0.0429965
0.119775
0.0602132
0.0491553
0.0449791
0.0429867
0.0419338
0.0413111
0.0408939
0.0406333
0.040526
0.0405512
0.0406644
0.0408193
0.0409872
0.041154
0.0413137
0.0414632
0.0415974
0.0417048
0.0417696
0.0417804
0.0417338
0.041619
0.111243
0.0559052
0.0457711
0.0420367
0.0403238
0.0394874
0.0390794
0.0388737
0.0387891
0.0388019
0.0389039
0.039072
0.0392753
0.0394889
0.039697
0.0398904
0.0400624
0.0402066
0.0403154
0.040379
0.0403905
0.0403493
0.0402472
0.101549
0.0512555
0.0422733
0.0390802
0.0376908
0.0370813
0.036863
0.0368369
0.0369127
0.0370552
0.0372514
0.0374877
0.0377441
0.0380023
0.0382483
0.0384724
0.0386671
0.0388261
0.0389433
0.0390141
0.0390346
0.0390055
0.0389216
0.0912709
0.0465731
0.0388357
0.0362124
0.0351539
0.0347633
0.0347075
0.0348318
0.035041
0.0352975
0.0355847
0.0358905
0.0362016
0.0365049
0.0367891
0.0370458
0.0372683
0.0374508
0.0375891
0.0376798
0.0377215
0.0377158
0.0376596
0.0811945
0.0421426
0.0356115
0.0335203
0.032764
0.0325682
0.0326516
0.0328872
0.0332006
0.0335485
0.0339128
0.0342818
0.0346452
0.0349931
0.0353169
0.0356097
0.0358658
0.0360807
0.0362509
0.0363741
0.0364492
0.0364778
0.0364586
0.07226
0.0382389
0.0327236
0.031071
0.0305604
0.0305207
0.0307124
0.0310295
0.031416
0.0318323
0.032257
0.032679
0.033089
0.0334793
0.0338428
0.0341741
0.0344683
0.0347218
0.0349317
0.0350957
0.0352128
0.0352836
0.035308
0.0651506
0.0350093
0.030237
0.0288999
0.028566
0.0286376
0.0289055
0.0292789
0.0297112
0.030174
0.0306433
0.0311068
0.0315564
0.031985
0.0323867
0.0327567
0.033091
0.0333863
0.0336397
0.0338491
0.0340126
0.0341299
0.0342015
0.0595245
0.0323487
0.0281243
0.027004
0.0267833
0.0269244
0.0272391
0.0276471
0.0281077
0.0285966
0.0290967
0.0295916
0.0300734
0.0305355
0.0309726
0.03138
0.0317541
0.0320917
0.0323897
0.0326456
0.0328565
0.0330213
0.0331405
0.055162
0.0301725
0.0263329
0.0253509
0.0251965
0.025375
0.0257138
0.0261401
0.0266163
0.0271207
0.0276386
0.028157
0.0286649
0.0291562
0.0296255
0.0300684
0.030481
0.0308599
0.0312017
0.031503
0.0317604
0.0319716
0.0321365
0.0517811
0.0283739
0.0247965
0.0238981
0.0237789
0.023975
0.0243246
0.0247585
0.0252424
0.0257565
0.0262869
0.0268226
0.0273528
0.0278706
0.0283703
0.0288472
0.0292971
0.029716
0.0301001
0.0304452
0.030747
0.0310021
0.03121
0.0490705
0.0268426
0.0234479
0.0226015
0.0225012
0.0227059
0.0230608
0.0234997
0.0239897
0.0245119
0.0250536
0.0256048
0.0261566
0.0267006
0.027231
0.0277421
0.0282293
0.0286879
0.0291133
0.0295005
0.0298446
0.0301411
0.0303888
0.0467564
0.0254856
0.0222325
0.0214247
0.0213389
0.0215514
0.0219129
0.0223592
0.0228583
0.0233922
0.023949
0.0245194
0.0250953
0.0256683
0.0262319
0.0267797
0.0273062
0.0278057
0.0282727
0.0287016
0.0290864
0.0294221
0.0297064
0.0446418
0.024239
0.021114
0.0203446
0.0202768
0.0205021
0.020876
0.0213359
0.0218509
0.0224037
0.022983
0.0235802
0.0241873
0.0247963
0.0253995
0.0259896
0.0265598
0.0271035
0.0276141
0.0280851
0.02851
0.0288832
0.0292012
0.042612
0.0230689
0.0200758
0.0193522
0.0193105
0.019557
0.0199517
0.0204341
0.0209745
0.0215566
0.0221696
0.0228051
0.023455
0.0241109
0.0247638
0.0254051
0.0260265
0.0266199
0.0271779
0.027693
0.0281582
0.0285674
0.0289166
0.0406195
0.0219658
0.0191172
0.0184511
0.0184462
0.0187241
0.0191497
0.0196652
0.0202428
0.0208674
0.0215287
0.0222182
0.0229269
0.0236451
0.0243621
0.025067
0.0257497
0.0264007
0.0270113
0.0275735
0.0280799
0.0285241
0.0289016
0.0386631
0.0209371
0.0182504
0.0176564
0.017701
0.0180212
0.0184885
0.0190489
0.0196774
0.0203606
0.0210889
0.0218528
0.0226414
0.0234424
0.0242421
0.0250268
0.0257839
0.0265022
0.027172
0.0277847
0.028333
0.0288106
0.0292129
0.0367721
0.0200034
0.0175002
0.0169964
0.0171043
0.0174781
0.0179974
0.0186146
0.0193092
0.0200706
0.0208892
0.0217537
0.0226497
0.0235601
0.0244665
0.0253512
0.0261984
0.0269952
0.0277311
0.0283974
0.0289876
0.029496
0.0299179
0.0349997
0.0192005
0.0169107
0.0165203
0.016706
0.0171415
0.0177197
0.0184034
0.01918
0.0200422
0.0209807
0.02198
0.0230193
0.0240738
0.0251176
0.0261271
0.0270827
0.0279699
0.0287781
0.0294999
0.0301301
0.0306644
0.0310988
0.033441
0.0185982
0.0165676
0.0163191
0.016591
0.0170853
0.0177179
0.0184705
0.0193424
0.0203316
0.021427
0.0226061
0.0238367
0.0250811
0.0263018
0.0274666
0.0285516
0.0295411
0.0304262
0.0312025
0.0318677
0.0324203
0.0328572
0.0322899
0.0183553
0.0166536
0.0165682
0.0169069
0.0174238
0.0180788
0.0188844
0.0198578
0.0210023
0.022302
0.023721
0.0252082
0.0267048
0.0281546
0.0295128
0.0307507
0.0318535
0.032817
0.0336425
0.0343337
0.0348931
0.0353196
0.0320024
0.018869
0.0175714
0.0176077
0.0179049
0.0183274
0.0189135
0.0197212
0.0207869
0.0221159
0.0236803
0.0254216
0.0272573
0.0290935
0.0308434
0.032444
0.0338616
0.0350868
0.0361251
0.036989
0.0376917
0.0382425
0.0386431
0.0337188
0.0211428
0.0201913
0.0200667
0.019983
0.0200239
0.0203437
0.0210447
0.0221698
0.023712
0.0256191
0.0277964
0.0301126
0.0324162
0.0345669
0.036475
0.0381044
0.0394587
0.0405621
0.0414464
0.0421403
0.0426633
0.0430213
0.0404669
0.0276048
0.0262487
0.024982
0.0236788
0.0227545
0.0224547
0.022867
0.0239905
0.0257737
0.0281222
0.0308919
0.0338836
0.0368514
0.0395518
0.0418575
0.043738
0.045227
0.0463794
0.0472584
0.0479173
0.048391
0.0486911
0.0607156
0.0436124
0.0386337
0.0336628
0.0294795
0.0266304
0.0252042
0.0250894
0.0261313
0.0281816
0.0310875
0.0346569
0.0386182
0.0425777
0.0460528
0.0488837
0.0510633
0.0526939
0.0538731
0.0547131
0.0553058
0.0557077
0.0559392
0.120287
0.0791642
0.0605002
0.0467988
0.0372923
0.0313698
0.0283014
0.0274442
0.0283341
0.0306697
0.0342419
0.0388567
0.0442349
0.0497907
0.0543733
0.0579281
0.0604484
0.0622282
0.0633996
0.0641545
0.0646438
0.0649526
0.0651115
0.326052
0.145767
0.0909161
0.0625413
0.0456947
0.0360387
0.0311372
0.0294886
0.030206
0.0328127
0.0370821
0.0429408
0.0503557
0.0587281
0.0648315
0.069659
0.0724685
0.0743449
0.0754137
0.0760037
0.0763419
0.0765369
0.0766257
1.57281
0.208744
0.113499
0.0744194
0.0516197
0.0391063
0.0328946
0.0307048
0.0313038
0.0340926
0.0388761
0.0458311
0.0556441
0.0688143
0.0765777
0.0859923
0.0884715
0.0899059
0.0905244
0.0907866
0.0909103
0.0909736
0.0909982
0.262792
0.214828
0.194443
0.177355
0.0784247
0.0800739
0.0779193
0.072736
0.0566536
0.0575562
0.0572192
0.0556995
0.0505885
0.0507981
0.050637
0.050074
0.0484383
0.0483923
0.0482193
0.0479003
0.0477207
0.0475733
0.0473815
0.0471352
0.0475609
0.0473706
0.0471702
0.0469557
0.0475917
0.0473791
0.0471779
0.0469856
0.0476452
0.0474141
0.0472092
0.0470263
0.047569
0.0473357
0.0471272
0.0469451
0.0471221
0.0469074
0.0467021
0.0465225
0.0463464
0.0461699
0.0459962
0.0458401
0.0453318
0.0451916
0.0450497
0.0449142
0.0441552
0.0440413
0.0439207
0.0437987
0.0428562
0.0427578
0.0426486
0.0425326
0.0414934
0.0414034
0.0413006
0.0411884
0.0401332
0.0400499
0.0399535
0.0398468
0.038823
0.0387486
0.0386615
0.0385639
0.0375817
0.0375201
0.0374466
0.0373624
0.0364076
0.0363625
0.0363057
0.0362378
0.0352884
0.0352624
0.0352248
0.0351753
0.0342152
0.0342096
0.0341921
0.0341618
0.0331875
0.0332023
0.0332048
0.0331935
0.0322154
0.0322498
0.0322712
0.032278
0.0313184
0.031371
0.03141
0.0314335
0.0305242
0.0305934
0.0306484
0.0306871
0.0298663
0.0299506
0.0300198
0.030072
0.0293829
0.0294807
0.0295624
0.0296263
0.0291174
0.0292267
0.0293188
0.0293921
0.0291184
0.0292369
0.0293368
0.0294167
0.0294416
0.0295664
0.0296709
0.0297536
0.0301533
0.0302805
0.030385
0.0304658
0.0313337
0.0314582
0.0315572
0.0316296
0.0330827
0.0331981
0.0332843
0.0333405
0.0355248
0.0356235
0.0356887
0.0357195
0.0388164
0.0388905
0.038926
0.0389218
0.043152
0.0431946
0.0431936
0.0431467
0.0487726
0.0487807
0.0487405
0.0486487
0.0559725
0.0559494
0.0558764
0.0557478
0.065108
0.0650665
0.064978
0.0648358
0.0766071
0.0765676
0.0764927
0.0763762
0.0909872
0.0909706
0.0909404
0.0908946
0.0758437
0.0480046
0.0399634
0.0372883
0.035902
0.0347481
0.0338796
0.0327186
0.0309951
0.0294851
0.0282367
0.0271488
0.0270078
0.0252218
0.0236206
0.0224967
0.0217972
0.0218706
0.0334966
0.0591917
0.0486899
0.0429152
0.0395004
0.0375926
0.0366189
0.0357629
0.0341046
0.0321376
0.0304946
0.0291752
0.0281885
0.0278819
0.0266389
0.0252426
0.0242564
0.0234603
0.0226338
0.0288469
0.0519083
0.0472452
0.0436664
0.0408596
0.0389673
0.0378305
0.0367834
0.035124
0.0333462
0.0317743
0.0304581
0.0293909
0.0286601
0.0276142
0.0264632
0.0254449
0.0244345
0.0238735
0.0293268
0.0485676
0.0461348
0.0438697
0.0417707
0.0400284
0.0386721
0.0374575
0.0360297
0.0345218
0.0331279
0.0318786
0.0307422
0.0297167
0.028649
0.0275393
0.0265123
0.0258155
0.0267416
0.0393001
0.0471252
0.0456769
0.0441449
0.0425693
0.0410527
0.0396738
0.0383796
0.0370666
0.035764
0.0345262
0.0333493
0.0322064
0.0310773
0.0299396
0.0288198
0.027908
0.0276538
0.0297669
0.0492019
0.0466231
0.0456761
0.044594
0.0433866
0.0421168
0.0408443
0.0395694
0.0382958
0.0370722
0.0359122
0.0347809
0.0336406
0.0324627
0.0312587
0.0301204
0.0293115
0.0294168
0.0324346
0.0565828
0.0465659
0.0459086
0.0451307
0.0442056
0.0431563
0.0420147
0.040796
0.0395472
0.0383471
0.037214
0.0360991
0.0349479
0.0337287
0.032471
0.0313146
0.0305595
0.0308326
0.0343211
0.0609795
0.0466689
0.0461897
0.0456235
0.0449163
0.0440535
0.0430406
0.0418954
0.0406824
0.0395014
0.0383785
0.0372583
0.0360823
0.0348245
0.0335305
0.0323615
0.0316122
0.0318977
0.0354368
0.0620541
0.0467444
0.046364
0.0459371
0.0453965
0.0447032
0.0438291
0.0427718
0.0416107
0.0404703
0.0393666
0.0382295
0.0370192
0.0357295
0.0344171
0.0332514
0.0325093
0.0328434
0.0366139
0.0642265
0.0466687
0.0463298
0.0459755
0.04555
0.0450251
0.0443133
0.0433634
0.0422624
0.0411985
0.0401382
0.0389738
0.0377355
0.0364346
0.0351195
0.0339815
0.0332616
0.0337898
0.0385347
0.0738753
0.0462617
0.0459588
0.0456469
0.0452989
0.0449098
0.0443015
0.043453
0.0425342
0.0415993
0.0405012
0.0393209
0.0381923
0.0369753
0.0356686
0.0344707
0.0337156
0.0343707
0.0400187
0.0720207
0.0456006
0.0452895
0.0449798
0.0446172
0.0441556
0.0435447
0.0428196
0.0420678
0.0412597
0.0403292
0.0393584
0.0383832
0.0371593
0.0357321
0.0345362
0.0337819
0.0343699
0.0396915
0.0813115
0.0446956
0.0443855
0.0440532
0.0436211
0.043074
0.0424682
0.0418743
0.0413051
0.0406536
0.0398687
0.0389456
0.0378859
0.0366613
0.0353223
0.0341144
0.0332179
0.0333418
0.0374304
0.0747464
0.04359
0.0432671
0.0429018
0.0424297
0.041851
0.0412476
0.0407178
0.0402835
0.0398086
0.0391739
0.0383044
0.0372042
0.03595
0.0346243
0.033332
0.0322164
0.0316882
0.0340187
0.06258
0.0423247
0.0419843
0.0415912
0.0411062
0.040537
0.0399504
0.0394364
0.039027
0.0386244
0.0380852
0.0372854
0.0362149
0.0349632
0.0336269
0.0322695
0.0309384
0.0298399
0.0305135
0.0497168
0.0409823
0.0406351
0.0402337
0.0397565
0.0392108
0.038643
0.0381169
0.0376619
0.0372161
0.0366631
0.0358946
0.0348847
0.0336949
0.0324007
0.0310386
0.0296138
0.028254
0.0281428
0.0414539
0.0396482
0.0393105
0.0389193
0.0384615
0.0379427
0.0373899
0.03684
0.0363135
0.0357754
0.0351539
0.0343751
0.0334157
0.032312
0.0311119
0.0298396
0.0285056
0.0272396
0.0270035
0.03725
0.0383816
0.0380662
0.0376971
0.0372659
0.0367747
0.0362355
0.035666
0.0350773
0.0344549
0.0337624
0.0329633
0.032047
0.0310365
0.0299645
0.0288602
0.0277652
0.0268476
0.0269812
0.0364839
0.0372026
0.0369184
0.036579
0.0361788
0.035716
0.0351935
0.0346176
0.0339939
0.0333206
0.0325856
0.0317795
0.0309058
0.0299858
0.0290512
0.0281447
0.0273447
0.0268743
0.0276742
0.0383951
0.036105
0.0358575
0.035552
0.0351848
0.0347516
0.0342506
0.0336827
0.0330514
0.0323613
0.0316154
0.0308203
0.0299902
0.0291502
0.0283373
0.0276091
0.0270767
0.0270258
0.028578
0.0417473
0.0350723
0.0348641
0.0345938
0.0342597
0.0338566
0.0333806
0.0328308
0.0322107
0.0315276
0.0307925
0.03002
0.029231
0.028455
0.0277353
0.0271423
0.0268135
0.0270956
0.0293248
0.0452557
0.0340896
0.0339207
0.0336852
0.033383
0.0330092
0.0325595
0.032033
0.0314335
0.03077
0.0300563
0.0293108
0.0285577
0.0278302
0.0271768
0.0266788
0.0264955
0.0270291
0.0298204
0.0483411
0.0331515
0.0330203
0.0328177
0.0325454
0.032199
0.031775
0.0312731
0.0306977
0.0300585
0.0293701
0.0286521
0.0279305
0.0272409
0.0266369
0.0262087
0.0261343
0.0268634
0.0301126
0.0508918
0.0322646
0.0321684
0.0319961
0.031751
0.0314298
0.0310299
0.030552
0.0300011
0.0293872
0.0287251
0.0280346
0.0273426
0.0266867
0.0261247
0.0257544
0.0257694
0.0266578
0.0302812
0.0529658
0.0314465
0.031382
0.0312372
0.0310165
0.0307179
0.03034
0.0298846
0.0293575
0.0287688
0.0281333
0.0274708
0.0268088
0.0261866
0.0256653
0.0253487
0.0254425
0.0264651
0.0303942
0.0546701
0.0307239
0.0306874
0.0305667
0.0303673
0.0300885
0.0297302
0.0292954
0.0287907
0.0282267
0.0276181
0.0269847
0.0263543
0.0257677
0.0252881
0.0250237
0.0251891
0.0263272
0.030511
0.0561128
0.0301298
0.0301171
0.0300166
0.0298348
0.0295721
0.0292303
0.0288136
0.0283295
0.0277892
0.0272074
0.0266041
0.0260072
0.0254581
0.0250213
0.0248079
0.0250399
0.0262804
0.0306842
0.0574408
0.0297018
0.0297078
0.0296225
0.0294532
0.0292019
0.0288721
0.0284696
0.0280033
0.0274847
0.0269291
0.0263563
0.0257942
0.0252841
0.0248912
0.0247282
0.0250233
0.0263588
0.0309731
0.058839
0.0294814
0.0294998
0.0294229
0.0292589
0.0290119
0.0286874
0.0282933
0.0278399
0.0273399
0.0268088
0.0262664
0.02574
0.0252706
0.0249225
0.0248096
0.0251649
0.0265899
0.0314068
0.060314
0.0295145
0.029537
0.029459
0.0292903
0.0290371
0.0287078
0.028313
0.0278652
0.0273785
0.026869
0.0263563
0.025867
0.0254406
0.0251401
0.0250788
0.0254928
0.0270009
0.032003
0.0618567
0.0298533
0.0298683
0.0297762
0.0295882
0.0293135
0.0289645
0.0285554
0.0281022
0.0276208
0.0271286
0.0266453
0.0261962
0.0258185
0.0255726
0.0255692
0.0260456
0.0276342
0.032806
0.0635672
0.0305583
0.0305506
0.0304261
0.0301979
0.0298796
0.0294888
0.0290456
0.0285705
0.0280833
0.027603
0.0271497
0.0267475
0.0264304
0.0262545
0.0263253
0.0268774
0.0285529
0.0338923
0.0655755
0.0317033
0.0316525
0.0314705
0.0311727
0.0307784
0.0303135
0.0298068
0.0292864
0.0287774
0.0283023
0.0278821
0.02754
0.027306
0.02723
0.0274088
0.0280684
0.0298543
0.0353756
0.0681025
0.0333807
0.0332604
0.0329869
0.0325781
0.0320611
0.0314745
0.0308611
0.0302611
0.0297082
0.02923
0.0288501
0.0285911
0.0284799
0.0285583
0.0289092
0.0297412
0.0316924
0.0374434
0.0714388
0.035709
0.0354866
0.0350772
0.0344996
0.0337919
0.0330128
0.0322287
0.0314994
0.0308717
0.0303804
0.0300536
0.0299166
0.029995
0.0303219
0.030961
0.0320912
0.034326
0.0404147
0.0761324
0.0388425
0.0384811
0.0378801
0.0370544
0.0360558
0.0349773
0.0339269
0.0329964
0.0322509
0.0317346
0.031483
0.0315296
0.0319065
0.0326405
0.0337701
0.035432
0.0381955
0.0448774
0.0831367
0.0429837
0.0424478
0.041591
0.0404104
0.0389715
0.0374288
0.0359678
0.0347329
0.0338113
0.0332563
0.0331148
0.0334412
0.03429
0.0356907
0.0376474
0.0402509
0.0440389
0.0519217
0.0944081
0.0483972
0.0476661
0.0464916
0.0448169
0.0427065
0.040439
0.0383505
0.0366663
0.0354932
0.0348857
0.0349077
0.0356591
0.0372526
0.0397336
0.0430313
0.0472186
0.0529699
0.0635421
0.11391
0.0554242
0.0545162
0.0529925
0.0506537
0.0474887
0.0440733
0.0410376
0.0387148
0.0372023
0.0365322
0.0367929
0.0381785
0.0409352
0.0451367
0.0504454
0.0569999
0.0662661
0.0831153
0.15058
0.0644895
0.0634998
0.0616888
0.0585136
0.0535606
0.0483086
0.043897
0.0407275
0.0387972
0.0380643
0.0386518
0.0409371
0.0454656
0.0523925
0.0603351
0.0696346
0.0842323
0.11548
0.228375
0.0760936
0.075237
0.0734265
0.0694002
0.0608819
0.0527808
0.0465809
0.0424446
0.0400801
0.0392981
0.040269
0.043684
0.0507611
0.06233
0.0729466
0.0835723
0.103182
0.163095
0.443907
0.0907816
0.0904009
0.0893513
0.0855604
0.0679602
0.0562469
0.0483819
0.0434876
0.0408166
0.0400105
0.041288
0.0457273
0.0558915
0.0781183
0.0889609
0.0955334
0.110343
0.192767
1.45384
)
;

boundaryField
{
    leftWall
    {
        type            epsilonWallFunction;
        value           nonuniform List<scalar> 
50
(
0.00291532
0.00512099
0.00876366
0.0125444
0.0165749
0.0212208
0.0263706
0.0307026
0.0380559
0.0484588
0.0556926
0.0646931
0.0750204
0.0842435
0.0957129
0.106146
0.109778
0.117964
0.111486
0.114155
0.125141
0.12922
0.126416
0.119775
0.111243
0.101549
0.0912709
0.0811945
0.07226
0.0651506
0.0595245
0.055162
0.0517811
0.0490705
0.0467564
0.0446418
0.042612
0.0406195
0.0386631
0.0367721
0.0349997
0.033441
0.0322899
0.0320024
0.0337188
0.0404669
0.0607156
0.120287
0.326052
1.57281
)
;
    }
    rightWall
    {
        type            epsilonWallFunction;
        value           nonuniform List<scalar> 
50
(
0.0031172
0.00604136
0.0123106
0.022814
0.0406545
0.0444384
0.0435908
0.0404719
0.0334966
0.0288469
0.0293268
0.0393001
0.0492019
0.0565828
0.0609795
0.0620541
0.0642265
0.0738753
0.0720207
0.0813115
0.0747464
0.06258
0.0497168
0.0414539
0.03725
0.0364839
0.0383951
0.0417473
0.0452557
0.0483411
0.0508918
0.0529658
0.0546701
0.0561128
0.0574408
0.058839
0.060314
0.0618567
0.0635672
0.0655755
0.0681025
0.0714388
0.0761324
0.0831367
0.0944081
0.11391
0.15058
0.228375
0.443907
1.45384
)
;
    }
    lowerWall
    {
        type            epsilonWallFunction;
        value           nonuniform List<scalar> 
62
(
0.00291532
0.0153568
0.0300261
0.0442731
0.0573764
0.0691186
0.0793852
0.0881044
0.0953269
0.101207
0.10584
0.109238
0.111406
0.112542
0.11288
0.112137
0.109852
0.105238
0.0971781
0.0840625
0.0639494
0.0364081
0.00962296
0.00962296
0.0166189
0.0287071
0.0432959
0.0624147
0.0904119
0.137722
0.23356
0.262792
0.214828
0.194443
0.177355
0.00942244
0.011498
0.0161407
0.0206122
0.0252094
0.0260586
0.0284693
0.0468979
0.00942244
0.0269271
0.0451458
0.0636993
0.0808959
0.0842204
0.0902774
0.093131
0.0905548
0.086805
0.0747027
0.0637998
0.0626411
0.0561764
0.0473025
0.0402497
0.0302924
0.0178418
0.0031172
)
;
    }
    atmosphere
    {
        type            inletOutlet;
        inletValue      uniform 0.1;
        value           nonuniform List<scalar> 
46
(
0.1
0.1
0.1
0.0744194
0.0516197
0.0391063
0.0328946
0.0307048
0.0313038
0.0340926
0.0388761
0.0458311
0.0556441
0.0688143
0.0765777
0.1
0.1
0.1
0.1
0.1
0.1
0.1
0.1
0.1
0.1
0.1
0.1
0.1
0.1
0.1
0.1
0.0679602
0.0562469
0.0483819
0.0434876
0.0408166
0.0400105
0.041288
0.0457273
0.0558915
0.1
0.1
0.1
0.1
0.1
0.1
)
;
    }
    defaultFaces
    {
        type            empty;
    }
}


// ************************************************************************* //
