/*--------------------------------*- C++ -*----------------------------------*\
  =========                 |
  \\      /  F ield         | OpenFOAM: The Open Source CFD Toolbox
   \\    /   O peration     | Website:  https://openfoam.org
    \\  /    A nd           | Version:  13
     \\/     M anipulation  |
\*---------------------------------------------------------------------------*/
FoamFile
{
    format      ascii;
    class       volScalarField;
    location    "2.8";
    object      k;
}
// * * * * * * * * * * * * * * * * * * * * * * * * * * * * * * * * * * * * * //

dimensions      [0 2 -2 0 0 0 0];

internalField   nonuniform List<scalar> 
2268
(
0.000784683
0.00237294
0.00369694
0.00477923
0.0056741
0.00641964
0.00703788
0.00754289
0.00794967
0.00827436
0.00852686
0.00871131
0.00883203
0.00890826
0.00894126
0.00891657
0.0088093
0.00857453
0.00814257
0.00739891
0.00616386
0.0042193
0.0017128
0.0018868
0.00548493
0.00821152
0.0104486
0.0123071
0.0138622
0.0151584
0.016224
0.0170879
0.0177802
0.0183211
0.0187211
0.0189917
0.0191494
0.0191974
0.0191268
0.0188991
0.0184352
0.0176017
0.016175
0.0137981
0.00997101
0.0040849
0.00270442
0.00742831
0.0107746
0.0135216
0.0158188
0.0177511
0.0193695
0.0207081
0.0217992
0.0226756
0.0233604
0.0238691
0.0242197
0.0244315
0.0245113
0.0244498
0.0242052
0.0236906
0.0227555
0.0211435
0.0184238
0.0138706
0.00589088
0.00343671
0.00901964
0.0127624
0.0158206
0.0183929
0.0205718
0.0224094
0.0239396
0.025195
0.026209
0.0270056
0.0276035
0.0280255
0.0282943
0.028419
0.0283923
0.0281745
0.027681
0.0267627
0.0251584
0.0223972
0.0175248
0.00775226
0.00413454
0.0104545
0.0145017
0.0177845
0.0205592
0.0229276
0.024941
0.0266298
0.0280251
0.02916
0.0300583
0.03074
0.0312321
0.0315598
0.0317354
0.031755
0.0315843
0.0311474
0.0303063
0.0288124
0.0261829
0.021255
0.00988748
0.00486589
0.0118018
0.0161044
0.0195679
0.0225079
0.0250371
0.0272057
0.0290379
0.0305619
0.0318107
0.0328063
0.033569
0.034129
0.0345135
0.0347387
0.034806
0.0346889
0.0343235
0.0335892
0.0322642
0.0298926
0.0251892
0.0126368
0.00561108
0.013083
0.0176163
0.0212383
0.0243245
0.0270006
0.0293154
0.031285
0.0329334
0.0342935
0.0353847
0.0362262
0.0368496
0.0372859
0.0375554
0.0376663
0.0376016
0.0373105
0.0366929
0.0355641
0.03354
0.0293933
0.016696
0.0061943
0.0142663
0.0190169
0.0227811
0.0259926
0.0287955
0.0312449
0.0333541
0.0351397
0.0366258
0.0378267
0.0387558
0.0394434
0.0399287
0.0402365
0.040384
0.0403657
0.0401433
0.0396375
0.0387068
0.0370723
0.0338389
0.0237216
0.00166035
0.00335571
0.00475768
0.00600434
0.00703939
0.00725736
0.00761603
0.00778047
0.007642
0.00744816
0.00673951
0.00607564
0.00602166
0.0055929
0.00499108
0.00447722
0.00370576
0.00260516
0.000811032
0.00336404
0.0072016
0.0102233
0.0128763
0.0147966
0.0157174
0.0163859
0.016688
0.0164231
0.0158011
0.0148584
0.0137034
0.0132649
0.0121862
0.0111054
0.00999562
0.00849754
0.00624204
0.0022318
0.00421987
0.00934026
0.0130919
0.0162892
0.0186826
0.0199515
0.0207526
0.0211493
0.0208899
0.0201087
0.0190925
0.0180091
0.0171151
0.0157007
0.0144017
0.0130543
0.0113477
0.0087822
0.00359275
0.00497934
0.0109527
0.0151863
0.0187123
0.0212632
0.0228331
0.0238026
0.0243119
0.0240187
0.0232288
0.0222152
0.0211549
0.020134
0.018419
0.0169705
0.0155195
0.0138014
0.0113456
0.00542599
0.00574458
0.0122666
0.0170304
0.0208272
0.0233858
0.025012
0.0261048
0.0266072
0.0262418
0.0254227
0.0245162
0.023637
0.0229303
0.020748
0.0191868
0.0177375
0.0159112
0.0134451
0.00795591
0.00593108
0.0134121
0.0188128
0.0227585
0.0253564
0.0270128
0.0280698
0.0284369
0.0280402
0.0272317
0.0263378
0.0254515
0.0254142
0.0225676
0.021097
0.0194922
0.0172894
0.0142747
0.00844181
0.00627834
0.0147504
0.0206163
0.0246555
0.0272717
0.0289092
0.0299144
0.0301912
0.0297685
0.0289653
0.0280701
0.0270206
0.0266371
0.0241096
0.0226106
0.0207407
0.0181862
0.014602
0.00833674
0.00884464
0.016951
0.022676
0.0265735
0.0291674
0.0307318
0.0316979
0.03192
0.0314061
0.0305523
0.029612
0.0284331
0.02754
0.0255597
0.0238918
0.021778
0.0189156
0.014764
0.00793315
0.00711111
0.0160556
0.0211259
0.0250578
0.0283775
0.0312683
0.03381
0.0360354
0.0379678
0.0396207
0.0409885
0.042072
0.0428914
0.0434777
0.0438651
0.0440826
0.0441408
0.0440187
0.0436646
0.0429953
0.0418711
0.0399108
0.0357161
0.00831004
0.0183356
0.0238537
0.0279823
0.0313696
0.0342382
0.0367035
0.0388326
0.0406795
0.0422776
0.0436398
0.0447731
0.045692
0.0464067
0.0469401
0.0473147
0.0475396
0.0476041
0.0474795
0.0471225
0.0464651
0.0453431
0.0433777
0.00908074
0.0204406
0.0265007
0.0308548
0.0343159
0.0371793
0.039588
0.0416357
0.0433944
0.0449101
0.046209
0.0473105
0.0482256
0.0489633
0.0495454
0.0499942
0.0503201
0.0505151
0.0505553
0.0503999
0.0499795
0.0491864
0.047902
0.0100061
0.0224163
0.0289815
0.0335832
0.0371457
0.0400332
0.0424367
0.0444608
0.0461749
0.047635
0.0488822
0.049941
0.0508255
0.0515493
0.0521374
0.0526212
0.0530161
0.0533072
0.0534654
0.0534453
0.053163
0.0525145
0.0514582
0.0110299
0.0245296
0.0314341
0.0362214
0.0398704
0.0427922
0.0452068
0.0472255
0.0489148
0.0503367
0.0515361
0.0525413
0.0533755
0.0540599
0.0546275
0.0551151
0.0555405
0.0558833
0.056106
0.0561525
0.0559341
0.0553634
0.0544318
0.011903
0.0263096
0.0337605
0.0387459
0.0424737
0.0454212
0.0478276
0.0498192
0.0514786
0.0528607
0.0540104
0.0549596
0.0557334
0.0563672
0.0568998
0.057365
0.0577853
0.0581543
0.0584211
0.0585062
0.0583213
0.0578033
0.056976
0.0129441
0.0282794
0.0359148
0.0409865
0.0447581
0.0477224
0.0501153
0.0520764
0.053703
0.055057
0.0561745
0.0570851
0.0578193
0.0584177
0.0589204
0.0593599
0.0597625
0.0601324
0.0604181
0.0605255
0.0603623
0.0598838
0.059143
0.0138437
0.0298253
0.0376044
0.0427669
0.0465959
0.0495898
0.0519872
0.0539371
0.0555539
0.0569012
0.058012
0.0589126
0.0596351
0.0602187
0.0607012
0.0611178
0.0615004
0.0618582
0.062144
0.0622574
0.0621029
0.061647
0.060956
0.0141653
0.0305175
0.0387422
0.0440951
0.0480205
0.0510725
0.0534961
0.0554595
0.057086
0.0584464
0.0595729
0.0604856
0.0612128
0.0617913
0.0622587
0.0626564
0.0630264
0.0633853
0.0636813
0.0637891
0.0636066
0.063126
0.062438
0.0148708
0.0314802
0.0396881
0.0451553
0.0491808
0.0522995
0.054768
0.0567539
0.0583854
0.059756
0.0609057
0.0618397
0.0625778
0.0631551
0.063608
0.0639827
0.0643226
0.0646269
0.0648265
0.0648245
0.0645868
0.064128
0.0635143
0.0144616
0.0318533
0.0403429
0.0459896
0.0500871
0.0531666
0.0555529
0.0574582
0.0590163
0.0603505
0.0615193
0.0625075
0.0633074
0.0639259
0.0643786
0.0646992
0.0649278
0.0650773
0.0651346
0.0650726
0.0648704
0.0645339
0.0640851
0.0146857
0.0321797
0.0406117
0.0461327
0.0501532
0.0531878
0.0554988
0.0573121
0.0588245
0.0601784
0.0613941
0.0624152
0.0632233
0.0638307
0.0642607
0.0645503
0.0647472
0.0648852
0.0649684
0.0649701
0.0648621
0.0646346
0.0642806
0.0155505
0.0325225
0.0406249
0.0459232
0.0498094
0.0527653
0.055008
0.0567494
0.0582014
0.0595067
0.0606878
0.0616889
0.0624915
0.063112
0.0635777
0.0639229
0.0641849
0.0643897
0.0645375
0.0646066
0.0645735
0.0644268
0.0641558
0.0158668
0.0324348
0.0402095
0.0452821
0.0490351
0.0519308
0.0541522
0.0558764
0.0573079
0.0585805
0.059726
0.0607109
0.0615228
0.0621788
0.0627031
0.0631226
0.0634629
0.0637396
0.0639489
0.0640741
0.0640972
0.0640093
0.0637983
0.0156442
0.0318414
0.0393543
0.0442446
0.0478882
0.0507469
0.0529943
0.054764
0.0562243
0.0574968
0.0586281
0.0596169
0.0604594
0.0611669
0.0617563
0.0622462
0.0626528
0.0629847
0.0632372
0.0633989
0.0634583
0.0634105
0.0632437
0.0151115
0.0308299
0.038126
0.0428807
0.0464468
0.0492863
0.0515815
0.0534379
0.0549713
0.0562834
0.0574372
0.0584559
0.0593441
0.0601089
0.0607606
0.0613111
0.0617704
0.0621431
0.0624266
0.0626138
0.0626984
0.0626786
0.062544
0.0144133
0.0295188
0.0366126
0.0412723
0.0447965
0.0476355
0.0499813
0.0519263
0.0535545
0.0549436
0.0561575
0.0572302
0.0581745
0.0589981
0.0597083
0.060313
0.0608181
0.0612266
0.0615384
0.0617496
0.0618576
0.0618627
0.0617566
0.0135945
0.0280078
0.0349056
0.0395018
0.0430131
0.0458689
0.0482629
0.050287
0.0520096
0.0534916
0.054786
0.0559283
0.0569364
0.0578207
0.0585884
0.0592455
0.0597967
0.0602442
0.0605887
0.06083
0.0609674
0.0610023
0.0609288
0.0126894
0.0263916
0.0331034
0.0376516
0.0411643
0.0440448
0.0464816
0.0485762
0.050383
0.0519535
0.0533312
0.0545481
0.055624
0.0565711
0.0573977
0.0581095
0.0587108
0.0592043
0.0595912
0.0598726
0.0600492
0.0601231
0.0600908
0.0117598
0.024766
0.0312983
0.0357995
0.0393133
0.0422169
0.0446915
0.0468383
0.0487148
0.0503614
0.0518151
0.0531039
0.0542472
0.055258
0.0561451
0.0569148
0.0575715
0.0581182
0.0585568
0.0588887
0.0591151
0.059238
0.0592558
0.0108917
0.0232112
0.029569
0.0340137
0.0375172
0.0404327
0.0429329
0.0451161
0.0470433
0.0487508
0.0502688
0.0516221
0.0528288
0.0539016
0.0548497
0.0556794
0.0563955
0.0570011
0.0574984
0.0578886
0.0581727
0.0583525
0.0584276
0.0101697
0.0218068
0.0279744
0.0323478
0.0358224
0.0387326
0.0412425
0.043447
0.0454055
0.0471574
0.0487268
0.0501351
0.0513988
0.05253
0.0535374
0.0544274
0.0552046
0.055872
0.0564317
0.0568846
0.0572312
0.0574725
0.057609
0.00957497
0.0206151
0.0265729
0.0308401
0.0342604
0.0371468
0.0396493
0.0418597
0.0438353
0.0456143
0.0472227
0.048676
0.0499895
0.051174
0.0522376
0.0531861
0.0540239
0.0547535
0.0553765
0.0558934
0.0563039
0.0566081
0.0568071
0.00909763
0.0196304
0.0253698
0.0295128
0.0328564
0.0356942
0.0381717
0.0403753
0.0423562
0.0441514
0.0457859
0.0472757
0.048632
0.0498645
0.0509805
0.0519849
0.0528812
0.0536714
0.0543566
0.0549363
0.0554095
0.0557756
0.0560354
0.00871756
0.0188217
0.0243436
0.0283521
0.0316062
0.0343845
0.0368249
0.0390079
0.0409842
0.042788
0.044442
0.045961
0.0473547
0.0486311
0.049796
0.0508534
0.0518057
0.0526542
0.0533989
0.0540388
0.0545719
0.0549968
0.0553142
0.00840704
0.0181439
0.0234584
0.0273317
0.0304928
0.0332075
0.0356067
0.0377661
0.0397337
0.0415414
0.0432102
0.0447544
0.0461828
0.0475011
0.0487132
0.0498217
0.050828
0.0517323
0.0525337
0.0532304
0.0538197
0.0542995
0.0546697
0.00813866
0.0175519
0.0226759
0.0264222
0.0294951
0.0321495
0.0345099
0.0366482
0.0386093
0.0404228
0.0421084
0.0436789
0.045142
0.0465019
0.047761
0.0489202
0.0499795
0.0509379
0.0517935
0.0525437
0.0531851
0.0537151
0.0541331
0.00789107
0.0170097
0.0219641
0.0255981
0.0285941
0.0311977
0.033528
0.0356529
0.0376147
0.0394412
0.04115
0.0427525
0.0442552
0.0456608
0.0469697
0.0481814
0.0492943
0.0503061
0.0512139
0.0520144
0.0527039
0.0532793
0.0537391
0.00765097
0.0164946
0.0213024
0.0248428
0.0277781
0.0303452
0.0326584
0.0347822
0.0367568
0.0386075
0.0403506
0.0419955
0.0435469
0.0450059
0.0463709
0.0476394
0.0488083
0.0498741
0.0508331
0.0516813
0.0524149
0.0530303
0.0535258
0.00741232
0.0159967
0.0206818
0.0241503
0.0270444
0.0295929
0.0319057
0.0340445
0.0360474
0.0379381
0.0397306
0.0414323
0.0430457
0.0445695
0.0459998
0.0473321
0.0485615
0.0496832
0.0506929
0.0515864
0.0523598
0.0530099
0.0535344
0.00717451
0.0155165
0.0201052
0.0235262
0.0264014
0.0289517
0.0312833
0.0334559
0.0355059
0.0374554
0.0393164
0.0410936
0.0427863
0.0443901
0.0458983
0.0473036
0.0485994
0.0497798
0.0508401
0.0517763
0.052585
0.0532634
0.0538095
0.00694093
0.0150643
0.0195871
0.0229892
0.0258704
0.0284446
0.0308154
0.0330418
0.0351597
0.0371899
0.0391422
0.0410177
0.0428114
0.0445146
0.0461163
0.0476063
0.0489757
0.050218
0.0513285
0.0523041
0.0531425
0.0538419
0.0544006
0.00671862
0.0146615
0.0191588
0.0225759
0.0254901
0.0281096
0.0305384
0.0328376
0.0350446
0.0371796
0.0392497
0.0412512
0.043173
0.0449996
0.0467146
0.0483032
0.0497546
0.0510618
0.0522211
0.0532312
0.0540919
0.0548031
0.0553639
0.00652085
0.0143505
0.0188801
0.0223528
0.025325
0.0280048
0.0305032
0.0328887
0.0352033
0.0374681
0.0396865
0.0418479
0.0439318
0.0459127
0.0477658
0.0494703
0.0510129
0.0523872
0.0535919
0.0546292
0.0555023
0.0562141
0.0567647
0.00637516
0.0142193
0.0188668
0.0224377
0.0254788
0.028214
0.0307751
0.0332471
0.0356812
0.0381
0.0405019
0.0428656
0.0451561
0.0473324
0.0493559
0.0511977
0.0528418
0.0542838
0.0555277
0.0565815
0.0574541
0.0581523
0.0586788
0.00634502
0.0144577
0.0193439
0.0230356
0.0261118
0.0288507
0.0314299
0.0339637
0.0365161
0.0391108
0.0417376
0.0443587
0.0469166
0.0493451
0.0515835
0.0535902
0.0553472
0.0568555
0.0581282
0.0591833
0.0600385
0.0607068
0.0611935
0.00658104
0.0154679
0.0207359
0.0244866
0.0274537
0.0300509
0.0325394
0.0350714
0.0377221
0.0405105
0.0434118
0.046364
0.049276
0.05204
0.0545566
0.0567654
0.0586484
0.0602186
0.0615046
0.0625405
0.0633571
0.0639765
0.0644082
0.00744146
0.0180576
0.0237876
0.0272971
0.0297853
0.0319401
0.0341373
0.0365561
0.0392631
0.0422585
0.0454944
0.0488781
0.0522721
0.0555009
0.0583896
0.0608517
0.0628755
0.0644992
0.0657766
0.0667665
0.0675193
0.0680696
0.0684325
0.00973966
0.023709
0.029619
0.0320572
0.0333328
0.0345484
0.0361633
0.038319
0.0410243
0.0442352
0.0478746
0.051823
0.0558942
0.0598041
0.0632063
0.065992
0.0681695
0.0698321
0.0710704
0.0719795
0.0726387
0.0730993
0.0733835
0.015329
0.0349347
0.0395423
0.0391129
0.0380246
0.0376741
0.0383955
0.0401445
0.0427915
0.0462185
0.0503247
0.0549976
0.0600447
0.065033
0.0691546
0.0723767
0.0747012
0.076371
0.0775208
0.0783013
0.0788314
0.079182
0.0793828
0.0298776
0.0558636
0.0546865
0.047992
0.0431585
0.0407486
0.0404151
0.0417033
0.0442632
0.0478853
0.0524708
0.0579972
0.0644278
0.0712689
0.0763614
0.0803846
0.0827634
0.0843313
0.0852848
0.085859
0.086215
0.0864355
0.0865526
0.0853367
0.0895318
0.076053
0.0564024
0.0470865
0.0428173
0.0416666
0.042622
0.0451144
0.0488634
0.0537994
0.0600715
0.0680912
0.0779317
0.0840752
0.0911469
0.0930632
0.0940705
0.0945484
0.0947833
0.0949109
0.0949841
0.0950202
0.0255832
0.0223195
0.0209335
0.0198047
0.0409837
0.0393342
0.0377856
0.0362391
0.0466137
0.0456768
0.0446656
0.0435849
0.0504574
0.0497619
0.0490437
0.0482984
0.0535912
0.053032
0.0524693
0.051902
0.0562567
0.0557876
0.0553205
0.0548561
0.0585107
0.0581014
0.0576973
0.0573005
0.0603781
0.06001
0.0596522
0.0593054
0.0618901
0.0615483
0.061221
0.0609067
0.06303
0.0627151
0.0624099
0.0621163
0.063688
0.0634068
0.0631217
0.0628456
0.0639407
0.0637028
0.0634552
0.0632092
0.0638756
0.0636767
0.0634642
0.0632441
0.0635631
0.0633939
0.0632067
0.0630052
0.0630421
0.0628931
0.0627222
0.0625318
0.0623664
0.0622313
0.0620718
0.0618899
0.0615999
0.0614768
0.0613284
0.0611561
0.0607961
0.0606871
0.0605525
0.0603933
0.0599876
0.0598966
0.0597801
0.0596387
0.0591885
0.0591195
0.0590251
0.0589051
0.0584011
0.0583573
0.0582879
0.0581923
0.0576262
0.0576094
0.0575666
0.0574969
0.0568686
0.0568791
0.0568633
0.0568197
0.0561397
0.0561769
0.0561871
0.056169
0.0554587
0.0555208
0.0555557
0.0555613
0.0548509
0.0549361
0.0549932
0.0550204
0.054347
0.0544525
0.0545294
0.0545758
0.0539811
0.0541042
0.0541979
0.0542605
0.053791
0.0539285
0.0540357
0.054111
0.0538172
0.0539655
0.0540822
0.0541663
0.0541036
0.0542582
0.0543801
0.0544683
0.0546986
0.0548546
0.0549764
0.0550632
0.0556573
0.055809
0.0559246
0.0560035
0.0570438
0.0571846
0.0572871
0.0573509
0.058933
0.0590557
0.0591379
0.0591787
0.0614123
0.0615103
0.061565
0.0615755
0.0645825
0.0646503
0.0646725
0.0646474
0.068557
0.0685926
0.068581
0.0685198
0.0734592
0.0734655
0.0734257
0.0733358
0.0794181
0.0794047
0.0793502
0.0792498
0.0865627
0.0865445
0.0864965
0.0864144
0.0950205
0.0950121
0.0949926
0.0949603
0.0198868
0.0228895
0.0267368
0.029775
0.0320365
0.0335344
0.0344322
0.0345103
0.0337816
0.0328178
0.031759
0.0305395
0.0296138
0.0278299
0.0257681
0.0232741
0.0199317
0.0147487
0.0070027
0.0338522
0.0329752
0.0339268
0.0350251
0.0362042
0.0373574
0.0380315
0.0377268
0.0367861
0.0356776
0.0344898
0.0332581
0.0322029
0.0304513
0.0281019
0.0251599
0.020878
0.0141305
0.0063309
0.0418312
0.0403429
0.0400496
0.0400754
0.0403773
0.0408322
0.0410246
0.0404946
0.0395372
0.038384
0.0371171
0.0357543
0.0343477
0.0324349
0.0298846
0.026531
0.0217667
0.0148163
0.00637966
0.0470289
0.0456599
0.0449219
0.0444632
0.0441735
0.0439602
0.04367
0.0430287
0.0420739
0.0409214
0.0395993
0.038087
0.0363546
0.034216
0.0314947
0.0280192
0.0234554
0.0172041
0.00773788
0.0509452
0.049765
0.0488982
0.0482064
0.0475758
0.0469556
0.046295
0.0454838
0.0444901
0.0433104
0.0419234
0.0402917
0.0383599
0.0360328
0.0331901
0.0297254
0.025417
0.0196272
0.00897822
0.0540821
0.0530744
0.0522089
0.0514121
0.0506148
0.0497824
0.0488864
0.0478919
0.0467815
0.0455168
0.0440411
0.0422973
0.0402188
0.0377394
0.0347926
0.0313063
0.0270627
0.0212553
0.0098458
0.0566487
0.0557833
0.0549682
0.0541484
0.0532778
0.0523279
0.0512779
0.0501232
0.0488714
0.0474891
0.0459043
0.0440425
0.0418349
0.0392282
0.0361844
0.0326297
0.0283053
0.0222951
0.010355
0.0587414
0.0579817
0.0572259
0.0564217
0.0555265
0.0545117
0.0533598
0.0520796
0.0506982
0.0491921
0.0474859
0.0455018
0.0431756
0.0404655
0.0373402
0.0336998
0.029233
0.0229847
0.0104913
0.0603973
0.0597037
0.0589946
0.0582183
0.0573328
0.0562974
0.055083
0.0537095
0.0522255
0.0506081
0.0487787
0.0466747
0.044245
0.0414544
0.0382706
0.0345579
0.0299735
0.0235888
0.0107602
0.0616357
0.0609758
0.0602883
0.0595338
0.0586868
0.057672
0.0564296
0.0549844
0.0534331
0.0517289
0.0497808
0.0475758
0.0450706
0.0422223
0.0390082
0.0352345
0.0305993
0.024211
0.0117969
0.0623982
0.0617744
0.0611031
0.0603661
0.0595572
0.0585377
0.0572753
0.0558568
0.0542884
0.0524574
0.050416
0.048218
0.0457117
0.0428239
0.0395349
0.0356998
0.0310057
0.0243012
0.0115404
0.0627964
0.0621774
0.0615023
0.0607321
0.0598278
0.0587381
0.0574759
0.0560812
0.0545191
0.0527295
0.0507557
0.0485876
0.0460157
0.0430045
0.0396834
0.0358376
0.0312188
0.0248172
0.0125241
0.0628624
0.062255
0.0615603
0.0607184
0.0597115
0.0585675
0.057326
0.0559831
0.0544581
0.0527029
0.0506931
0.048389
0.0457258
0.0426773
0.0392716
0.0353418
0.0306148
0.0241748
0.0119185
0.0626431
0.062034
0.0613112
0.0604207
0.0593542
0.0581639
0.0569127
0.0556071
0.0541432
0.0524244
0.0503731
0.0479474
0.0451508
0.0419843
0.0384139
0.0343079
0.0293377
0.0226808
0.0106206
0.0621794
0.0615621
0.0608142
0.0598979
0.0588113
0.0575982
0.0563181
0.0549859
0.0535194
0.0518011
0.0497146
0.0472082
0.044295
0.0409884
0.0372445
0.0329135
0.0276617
0.0207367
0.00912384
0.0615464
0.0609281
0.0601712
0.0592503
0.0581642
0.0569418
0.0556245
0.0542252
0.0526856
0.0508972
0.0487555
0.0461974
0.0432171
0.0398133
0.0359289
0.0314069
0.0259283
0.0188309
0.00807363
0.0608263
0.0602215
0.0594739
0.058565
0.0574917
0.056268
0.054915
0.0534378
0.0517967
0.0499142
0.0477037
0.0451055
0.0420981
0.0386594
0.0347229
0.0301373
0.0246217
0.0176019
0.00749732
0.0600853
0.0595082
0.0587852
0.0579015
0.0568509
0.0556352
0.0542601
0.0527227
0.050997
0.0490323
0.0467689
0.0441578
0.0411678
0.0377629
0.033874
0.0293662
0.0239921
0.0172034
0.00737825
0.0593599
0.0588222
0.0581358
0.0572881
0.0562696
0.0550744
0.0536983
0.052134
0.0503641
0.0483576
0.046077
0.0434861
0.040553
0.0372378
0.0334741
0.0291416
0.0240066
0.0174889
0.00763091
0.0586617
0.0581724
0.0575312
0.0567275
0.05575
0.0545882
0.0532332
0.051676
0.0499043
0.0479001
0.0456406
0.0431008
0.0402523
0.0370569
0.0334526
0.0293258
0.0244397
0.0181536
0.00806874
0.0579888
0.0575534
0.0569629
0.0562086
0.0552786
0.0541607
0.0528443
0.0513201
0.0495792
0.0476109
0.0454011
0.0429321
0.0401801
0.0371096
0.0336607
0.0297196
0.0250355
0.0189018
0.00851729
0.0573355
0.0569566
0.0564193
0.0557171
0.0548384
0.0537708
0.0525036
0.0510283
0.0493378
0.0474249
0.0452802
0.0428902
0.0402339
0.0372777
0.0339614
0.0301671
0.025628
0.0195809
0.00890491
0.0567007
0.0563781
0.055894
0.055244
0.0544174
0.0534024
0.0521892
0.05077
0.0491387
0.0472897
0.0452153
0.0429039
0.0403361
0.0374786
0.0342699
0.0305869
0.0261497
0.0201517
0.00922142
0.056091
0.0558225
0.0553895
0.0547898
0.0540137
0.0530507
0.0518917
0.0505299
0.0489596
0.0471756
0.0451707
0.0429338
0.0404456
0.0376724
0.0345508
0.0309533
0.0265901
0.0206216
0.0094763
0.0555218
0.0553034
0.054918
0.0543651
0.0536362
0.0527221
0.0516149
0.0503082
0.0487968
0.0470753
0.0451363
0.0429682
0.0405513
0.0378506
0.0348008
0.0312707
0.026963
0.0210128
0.00968429
0.0550159
0.0548425
0.0544999
0.053989
0.0533027
0.052433
0.0513731
0.0501174
0.0486608
0.0469975
0.0451195
0.0430143
0.0406611
0.0380233
0.0350334
0.0315569
0.0272902
0.0213486
0.00985913
0.0546018
0.0544672
0.0541615
0.0536866
0.0530369
0.0522058
0.0511876
0.0499775
0.0485704
0.0469601
0.0451378
0.0430895
0.0407931
0.0382097
0.0352694
0.0318342
0.0275954
0.0216522
0.0100185
0.0543121
0.0542089
0.0539328
0.0534866
0.0528662
0.0520665
0.0510832
0.049912
0.0485482
0.0469852
0.0452128
0.0432157
0.0409694
0.0384327
0.0355325
0.0321275
0.027904
0.0219475
0.0101837
0.0541823
0.0541018
0.0538464
0.0534198
0.0528194
0.0520421
0.0510851
0.049945
0.0486176
0.0470955
0.0453675
0.0434163
0.0412145
0.0387177
0.035849
0.0324629
0.0282401
0.0222522
0.0103566
0.0542504
0.0541823
0.0539367
0.0535182
0.0529263
0.05216
0.0512185
0.0501
0.0488008
0.047313
0.0456242
0.0437144
0.0415527
0.0390904
0.0362455
0.032867
0.0286292
0.0225895
0.0105345
0.054557
0.054489
0.0542396
0.0538147
0.0532163
0.0524462
0.0515066
0.0503979
0.0491172
0.0476569
0.0460027
0.0441317
0.0420084
0.0395781
0.0367518
0.0333708
0.029101
0.0229832
0.0107293
0.0551469
0.0550638
0.0547937
0.0543438
0.0537192
0.0529259
0.0519703
0.0508561
0.0495828
0.0481428
0.0465205
0.0446892
0.0426074
0.0402123
0.0374044
0.034014
0.0296945
0.0234674
0.0109548
0.056071
0.0559546
0.0556424
0.0551433
0.0544663
0.0536236
0.052628
0.0514888
0.0502089
0.0487824
0.0471922
0.0454075
0.0433791
0.0410324
0.0382528
0.0348525
0.0304658
0.0240874
0.0112354
0.0573891
0.0572178
0.0568372
0.0562572
0.0554924
0.0545642
0.0534957
0.0523051
0.0510017
0.0495824
0.0480297
0.0463084
0.0443597
0.0420928
0.0393694
0.0359721
0.0315031
0.024919
0.0116008
0.0591738
0.0589231
0.0584417
0.0577396
0.0568386
0.0557742
0.0545866
0.053309
0.0519606
0.0505435
0.0490415
0.0474162
0.0455981
0.0434736
0.0408674
0.0375123
0.0329545
0.0260866
0.0121079
0.061514
0.0611587
0.0605392
0.0596616
0.0585565
0.0572828
0.0559102
0.0544962
0.0530752
0.0516575
0.0502316
0.0487598
0.0471634
0.0452983
0.0429297
0.039706
0.0350749
0.027816
0.0128494
0.0645198
0.0640385
0.0632413
0.0621203
0.060714
0.0591229
0.0574696
0.055851
0.0543219
0.0529042
0.051597
0.0503738
0.049155
0.0477575
0.0458482
0.0429343
0.038297
0.0305039
0.0140068
0.0683254
0.0677104
0.066702
0.0652533
0.0634004
0.061327
0.0592543
0.0573385
0.0556575
0.0542449
0.0531213
0.0522944
0.0517085
0.0511341
0.050061
0.0477705
0.0432984
0.034829
0.0159112
0.07309
0.0723633
0.0711354
0.0692607
0.066724
0.0639101
0.061222
0.0588922
0.0570098
0.0556131
0.0547598
0.054538
0.054978
0.0558039
0.0561361
0.0549265
0.0509745
0.0418439
0.0192223
0.078991
0.0782285
0.0768395
0.074446
0.0707708
0.0668115
0.0632587
0.0603937
0.0582675
0.0569008
0.0564091
0.0570415
0.0590558
0.0621971
0.0646441
0.0649776
0.0621458
0.0530234
0.0254625
0.0862061
0.0855642
0.0842269
0.0813405
0.0754241
0.0697444
0.0651084
0.0616496
0.0592741
0.0579473
0.0578609
0.0595353
0.0637696
0.0708807
0.0760064
0.0778889
0.0768871
0.0701634
0.0398152
0.0948774
0.0945969
0.0938461
0.0912576
0.079729
0.0719179
0.0663078
0.0623969
0.0598482
0.058554
0.0587756
0.0613573
0.0681801
0.0839454
0.0906738
0.0926257
0.0932859
0.0933424
0.0869099
)
;

boundaryField
{
    leftWall
    {
        type            kqRWallFunction;
        value           nonuniform List<scalar> 
50
(
0.000784683
0.0018868
0.00270442
0.00343671
0.00413454
0.00486589
0.00561108
0.0061943
0.00711111
0.00831004
0.00908074
0.0100061
0.0110299
0.011903
0.0129441
0.0138437
0.0141653
0.0148708
0.0144616
0.0146857
0.0155505
0.0158668
0.0156442
0.0151115
0.0144133
0.0135945
0.0126894
0.0117598
0.0108917
0.0101697
0.00957497
0.00909763
0.00871756
0.00840704
0.00813866
0.00789107
0.00765097
0.00741232
0.00717451
0.00694093
0.00671862
0.00652085
0.00637516
0.00634502
0.00658104
0.00744146
0.00973966
0.015329
0.0298776
0.0853367
)
;
    }
    rightWall
    {
        type            kqRWallFunction;
        value           nonuniform List<scalar> 
50
(
0.000811032
0.0022318
0.00359275
0.00542599
0.00795591
0.00844181
0.00833674
0.00793315
0.0070027
0.0063309
0.00637966
0.00773788
0.00897822
0.0098458
0.010355
0.0104913
0.0107602
0.0117969
0.0115404
0.0125241
0.0119185
0.0106206
0.00912384
0.00807363
0.00749732
0.00737825
0.00763091
0.00806874
0.00851729
0.00890491
0.00922142
0.0094763
0.00968429
0.00985913
0.0100185
0.0101837
0.0103566
0.0105345
0.0107293
0.0109548
0.0112354
0.0116008
0.0121079
0.0128494
0.0140068
0.0159112
0.0192223
0.0254625
0.0398152
0.0869099
)
;
    }
    lowerWall
    {
        type            kqRWallFunction;
        value           nonuniform List<scalar> 
62
(
0.000784683
0.00237294
0.00369694
0.00477923
0.0056741
0.00641964
0.00703788
0.00754289
0.00794967
0.00827436
0.00852686
0.00871131
0.00883203
0.00890826
0.00894126
0.00891657
0.0088093
0.00857453
0.00814257
0.00739891
0.00616386
0.0042193
0.0017128
0.0017128
0.0040849
0.00589088
0.00775226
0.00988748
0.0126368
0.016696
0.0237216
0.0255832
0.0223195
0.0209335
0.0198047
0.00166035
0.00336404
0.00421987
0.00497934
0.00574458
0.00593108
0.00627834
0.00884464
0.00166035
0.00335571
0.00475768
0.00600434
0.00703939
0.00725736
0.00761603
0.00778047
0.007642
0.00744816
0.00673951
0.00607564
0.00602166
0.0055929
0.00499108
0.00447722
0.00370576
0.00260516
0.000811032
)
;
    }
    atmosphere
    {
        type            inletOutlet;
        inletValue      uniform 0.1;
        value           nonuniform List<scalar> 
46
(
0.1
0.1
0.1
0.0564024
0.0470865
0.0428173
0.0416666
0.042622
0.0451144
0.0488634
0.0537994
0.0600715
0.0680912
0.0779317
0.0840752
0.1
0.1
0.1
0.1
0.1
0.1
0.1
0.1
0.1
0.1
0.1
0.1
0.1
0.1
0.1
0.1
0.079729
0.0719179
0.0663078
0.0623969
0.0598482
0.058554
0.0587756
0.0613573
0.0681801
0.1
0.1
0.1
0.1
0.1
0.1
)
;
    }
    defaultFaces
    {
        type            empty;
    }
}


// ************************************************************************* //
