/*--------------------------------*- C++ -*----------------------------------*\
  =========                 |
  \\      /  F ield         | OpenFOAM: The Open Source CFD Toolbox
   \\    /   O peration     | Website:  https://openfoam.org
    \\  /    A nd           | Version:  13
     \\/     M anipulation  |
\*---------------------------------------------------------------------------*/
FoamFile
{
    format      ascii;
    class       volScalarField;
    location    "2.8";
    object      nut;
}
// * * * * * * * * * * * * * * * * * * * * * * * * * * * * * * * * * * * * * //

dimensions      [0 2 -1 0 0 0 0];

internalField   nonuniform List<scalar> 
2268
(
1.90084e-05
3.30001e-05
4.09664e-05
4.64321e-05
5.05015e-05
5.36622e-05
5.61548e-05
5.81192e-05
5.96658e-05
6.08837e-05
6.18257e-05
6.25222e-05
6.30168e-05
6.34619e-05
6.37414e-05
6.38101e-05
6.35794e-05
6.28768e-05
6.14041e-05
5.86104e-05
5.34702e-05
4.40073e-05
2.74376e-05
6.2566e-05
0.000268362
0.000365749
0.000428086
0.00047383
0.000509874
0.000539074
0.00056269
0.000581982
0.000598326
0.000612459
0.000624692
0.000635573
0.000645218
0.00065307
0.000659026
0.000661891
0.000659002
0.000645162
0.000610191
0.0005343
0.000378183
9.03656e-05
7.51115e-05
0.000480834
0.000703274
0.000847695
0.000953401
0.00103561
0.00110124
0.0011539
0.00119665
0.0012324
0.00126288
0.00128908
0.00131226
0.00133272
0.00134964
0.00136151
0.00136435
0.00135043
0.00130557
0.00120384
0.00100108
0.000634503
0.000108796
8.47379e-05
0.000636148
0.000977779
0.0012059
0.00137445
0.0015053
0.00160919
0.0016922
0.0017592
0.00181441
0.00186053
0.00189927
0.0019325
0.00196062
0.00198231
0.00199447
0.00199022
0.00195687
0.00187187
0.00169609
0.00136883
0.000823255
0.000124926
9.28207e-05
0.000750402
0.00119631
0.00150279
0.00173236
0.00191143
0.00205366
0.00216728
0.00225872
0.00233326
0.00239441
0.00244462
0.00248624
0.00251966
0.00254313
0.00255226
0.00253792
0.00248361
0.00236037
0.00211888
0.00168459
0.000984603
0.00014097
0.000100417
0.000835674
0.00136986
0.00174704
0.00203379
0.00225912
0.00243874
0.00258252
0.00269814
0.00279172
0.00286744
0.00292846
0.00297757
0.00301519
0.00303934
0.00304481
0.00302102
0.002949
0.00279556
0.00250355
0.00198304
0.00114027
0.000158962
0.000107452
0.000899548
0.00150714
0.00194701
0.00228636
0.00255527
0.00277063
0.00294356
0.00308271
0.00319481
0.0032847
0.00335617
0.00341243
0.00345422
0.00347942
0.00348243
0.00345199
0.00336805
0.00319531
0.00287174
0.00229141
0.00131379
0.000182166
0.000112474
0.000946465
0.00161395
0.00210919
0.00249661
0.00280612
0.0030552
0.00325594
0.00341774
0.00354775
0.00365146
0.00373322
0.00379674
0.00384344
0.00387092
0.00387361
0.00384026
0.00375096
0.00357054
0.00323692
0.00263727
0.00156345
0.000216837
2.63316e-05
3.76376e-05
4.51248e-05
5.09377e-05
5.51298e-05
5.62837e-05
5.78257e-05
5.85006e-05
5.80424e-05
5.7517e-05
5.47221e-05
5.20723e-05
5.20973e-05
5.01143e-05
4.73966e-05
4.48226e-05
4.08002e-05
3.42353e-05
1.89912e-05
8.85812e-05
0.000236232
0.000336674
0.000428659
0.000491722
0.000529355
0.000556189
0.000568157
0.000564203
0.000554127
0.000542084
0.000502549
0.000515411
0.000487832
0.000466875
0.000435386
0.000385448
0.000291203
7.42021e-05
9.92926e-05
0.000404451
0.000608604
0.000788022
0.000926569
0.00101753
0.00108369
0.0011164
0.00111382
0.0010902
0.00106888
0.00102641
0.00101168
0.000953908
0.000903864
0.000829439
0.000708104
0.000492021
9.43666e-05
0.000108258
0.000529711
0.000820301
0.00107523
0.00127585
0.00141767
0.00152439
0.00157906
0.00158046
0.00154628
0.0015186
0.00147382
0.0014325
0.00134657
0.00126812
0.00114987
0.000958539
0.000643424
0.000116145
0.000117814
0.000615728
0.000983815
0.00130967
0.00156686
0.00175321
0.00189541
0.00196899
0.00197465
0.00193763
0.00190181
0.00184829
0.00178599
0.00167613
0.0015742
0.0014147
0.00115894
0.000759691
0.000140125
0.000121495
0.000662751
0.00111037
0.00149971
0.00181458
0.00204864
0.00221935
0.00230821
0.00232
0.0022852
0.00224109
0.00217077
0.00208278
0.00195546
0.00183676
0.00163359
0.00131889
0.000839446
0.00014433
0.000124611
0.000688838
0.00121762
0.00166452
0.00203174
0.00231264
0.00250868
0.00261089
0.00262996
0.00259871
0.00254685
0.0024572
0.00232819
0.00220436
0.00206274
0.00181603
0.00144402
0.00088797
0.000143496
0.000150124
0.000735609
0.00133704
0.00183176
0.00223794
0.00255334
0.0027714
0.00288468
0.00291056
0.00288149
0.00282202
0.00271613
0.00255788
0.00243256
0.00226078
0.00197058
0.00153918
0.000910089
0.000139952
0.00011959
0.00100229
0.00174666
0.0023173
0.00277236
0.00314006
0.00343801
0.00367918
0.00387396
0.00403041
0.00415474
0.00425213
0.00432658
0.00437991
0.00441079
0.00441423
0.00437997
0.00428965
0.00411111
0.00379101
0.00324612
0.00237221
0.00119574
0.000128256
0.00105686
0.00187295
0.00251898
0.00304484
0.00347392
0.00382412
0.00410897
0.0043399
0.0045261
0.00467502
0.00479271
0.00488367
0.0049489
0.00498878
0.00500018
0.00497532
0.00490012
0.00475137
0.00449367
0.00407833
0.00345449
0.00262302
0.000133256
0.00109502
0.00197173
0.00267978
0.0032623
0.003743
0.00413819
0.00446152
0.00472478
0.00493779
0.00510873
0.00524449
0.00534914
0.00542514
0.00547409
0.00549477
0.00548212
0.00542634
0.00531184
0.0051167
0.00481438
0.0043843
0.00384446
0.00013929
0.00111949
0.00204912
0.00281439
0.00344727
0.00397232
0.00440671
0.00476351
0.00505481
0.00529125
0.00548172
0.00563299
0.00574978
0.00583591
0.00589393
0.0059243
0.00592444
0.00588787
0.00580424
0.00566027
0.0054421
0.00514344
0.00478462
0.000145952
0.00117052
0.00213954
0.00294896
0.00362181
0.00418223
0.00464801
0.00503195
0.00534627
0.00560229
0.00580882
0.00597283
0.00610032
0.00619576
0.00626254
0.00630242
0.00631471
0.00629545
0.00623768
0.00613332
0.00597549
0.00576407
0.00551562
0.000151363
0.00120077
0.00224132
0.00309518
0.00379926
0.00438456
0.00487159
0.00527527
0.00560768
0.00587904
0.00609847
0.00627346
0.0064103
0.00651425
0.00658942
0.00663839
0.0066618
0.0066577
0.00662144
0.00654772
0.00643319
0.00628011
0.00610117
0.000157548
0.00127425
0.00235608
0.00323834
0.00396448
0.00456824
0.00507192
0.00549145
0.00583844
0.00612303
0.006354
0.00653901
0.0066847
0.00679679
0.00688
0.00693752
0.00697096
0.00697971
0.00696079
0.00691056
0.0068274
0.00671421
0.00658083
0.000162497
0.00132552
0.00244105
0.0033512
0.00409984
0.00472285
0.00524364
0.00567816
0.0060389
0.00633588
0.00657776
0.00677228
0.00692639
0.0070462
0.00713683
0.00720211
0.00724437
0.00726386
0.00725871
0.00722639
0.00716643
0.00708108
0.00697681
0.000164505
0.00131258
0.00247577
0.00342379
0.00420107
0.00484751
0.00538716
0.00583755
0.00621192
0.00652071
0.00677281
0.00697609
0.00713777
0.00726435
0.00736139
0.0074333
0.00748304
0.00751145
0.00751738
0.00749857
0.0074541
0.00738725
0.00730364
0.00016872
0.00137066
0.00252599
0.00348279
0.00428248
0.004952
0.00551147
0.00597737
0.00636371
0.00668259
0.00694353
0.0071543
0.00732224
0.00745417
0.00755599
0.0076326
0.00768732
0.00772126
0.00773355
0.00772261
0.00769014
0.00763904
0.00757285
0.000168831
0.00140442
0.00257718
0.00355133
0.00436748
0.00505234
0.00562489
0.00610062
0.00649415
0.00681946
0.00708696
0.00730401
0.00747747
0.00761379
0.0077188
0.00779756
0.00785388
0.00788993
0.00790591
0.00790265
0.00788171
0.00784499
0.00779401
0.000170035
0.00141641
0.00260675
0.00359809
0.004429
0.00512544
0.00570653
0.0061893
0.00658955
0.00692132
0.00719474
0.00741697
0.00759489
0.00773514
0.00784372
0.00792586
0.00798583
0.00802643
0.00804911
0.00805494
0.00804485
0.00801964
0.00797946
0.000173914
0.00142417
0.00263538
0.0036404
0.00447967
0.00518138
0.00576645
0.00625254
0.0066558
0.00699026
0.00726667
0.00749266
0.00767523
0.00782097
0.00793576
0.00802462
0.00809157
0.00813928
0.0081697
0.00818401
0.00818289
0.00816667
0.00813501
0.000175345
0.00142953
0.00265835
0.00367268
0.0045148
0.00521708
0.00580295
0.00629009
0.0066948
0.00703094
0.00730974
0.00753959
0.00772758
0.00788009
0.0080026
0.00809973
0.00817507
0.00823102
0.00826957
0.0082919
0.00829862
0.00828988
0.00826513
0.000174238
0.00142962
0.00266868
0.00368746
0.00452848
0.00522867
0.00581348
0.00630103
0.00670714
0.00704544
0.00732739
0.00756203
0.00775647
0.00791672
0.00804779
0.00815382
0.00823802
0.00830257
0.00834924
0.0083792
0.00839306
0.00839097
0.00837228
0.000171591
0.00142068
0.00266143
0.00367922
0.00451668
0.00521352
0.00579648
0.00628468
0.00669318
0.00703509
0.00732192
0.00756283
0.00776485
0.00793361
0.00807372
0.00818892
0.0082821
0.0083553
0.00841
0.00844739
0.00846805
0.00847215
0.00845905
0.000168072
0.00140277
0.00263579
0.00364697
0.00447889
0.00517183
0.0057532
0.00624253
0.00665464
0.00700202
0.00729568
0.00754445
0.00775514
0.00793311
0.00808266
0.00820721
0.00830942
0.00839125
0.00845401
0.00849875
0.00852609
0.0085362
0.00852851
0.000163791
0.0013774
0.00259398
0.00359352
0.00441783
0.00510651
0.00568694
0.00617834
0.00659528
0.00694968
0.00725169
0.0075096
0.0077299
0.0079177
0.00807705
0.00821116
0.00832251
0.00841297
0.00848386
0.00853606
0.00857016
0.00858636
0.00858414
0.00015878
0.00134598
0.00253954
0.00352332
0.00433821
0.0050224
0.00560249
0.00609696
0.0065198
0.00688221
0.00719353
0.00746142
0.00769199
0.00789009
0.00805957
0.00820347
0.00832415
0.00842339
0.00850247
0.00856228
0.00860335
0.00862586
0.00862944
0.000153292
0.00130988
0.00247567
0.00344103
0.00424547
0.00492519
0.0055054
0.00600369
0.00643307
0.00680401
0.0071251
0.00740339
0.00764458
0.00785326
0.0080331
0.00818699
0.0083172
0.00842542
0.00851292
0.00858053
0.0086288
0.00865795
0.00866772
0.000147752
0.00126804
0.00240467
0.00335116
0.00414519
0.00482074
0.00540143
0.00590379
0.00633995
0.00671952
0.00705042
0.00733914
0.00759101
0.00781034
0.00800062
0.00816461
0.00830447
0.00842185
0.00851794
0.00859357
0.00864929
0.00868537
0.00870171
0.000142869
0.00122249
0.00232931
0.00325864
0.00404298
0.00471475
0.00529606
0.00580239
0.00624509
0.00663299
0.00697338
0.00727227
0.00753461
0.00776445
0.00796507
0.00813911
0.00828863
0.00841518
0.00851993
0.00860369
0.00866699
0.00871019
0.00873331
0.000138619
0.00118238
0.00225963
0.0031699
0.00394423
0.00461255
0.00519421
0.00570406
0.0061527
0.00654833
0.00689762
0.00720617
0.00747854
0.00771854
0.00792923
0.00811309
0.00827206
0.00840764
0.00852093
0.00861271
0.00868356
0.00873385
0.00876375
0.000135039
0.00114945
0.00219977
0.00309222
0.00385603
0.0045189
0.00509986
0.00561264
0.00606638
0.00646889
0.00682636
0.00714387
0.00742568
0.0076753
0.00789558
0.00808883
0.00825686
0.00840107
0.00852254
0.00862202
0.0087001
0.00875722
0.00879366
0.000132087
0.00112367
0.00215092
0.00302725
0.0037809
0.00443821
0.00501742
0.00553126
0.00598886
0.00639735
0.00676224
0.00708793
0.00737846
0.00763703
0.00786625
0.00806823
0.00824467
0.00839688
0.00852589
0.00863247
0.00871722
0.00878065
0.00882312
0.000129631
0.00110377
0.0021122
0.00297467
0.00371906
0.00437097
0.00494801
0.00546241
0.00592294
0.00633618
0.00670728
0.00704031
0.00733874
0.00760549
0.00784284
0.00805268
0.00823661
0.00839591
0.00853155
0.00864434
0.00873492
0.00880387
0.00885164
0.000127499
0.00108791
0.00208153
0.00293268
0.00366919
0.00431633
0.00489137
0.00540619
0.00586924
0.00628673
0.00666337
0.00700286
0.00730824
0.00758205
0.00782636
0.00804289
0.00823313
0.00839829
0.00853937
0.00865721
0.00875252
0.00882596
0.00887807
0.000125537
0.00107429
0.00205636
0.00289873
0.00362909
0.00427257
0.0048463
0.00536193
0.0058276
0.00624917
0.00663094
0.0069762
0.00728759
0.00756731
0.00781724
0.008039
0.00823399
0.00840345
0.00854844
0.00866989
0.00876861
0.00884533
0.00890065
0.000123636
0.00106145
0.00203435
0.0028702
0.00359628
0.00423761
0.00481118
0.00532847
0.0057973
0.00622311
0.00660976
0.00696013
0.00727649
0.00756079
0.00781475
0.00803996
0.00823788
0.00840982
0.00855698
0.00868041
0.00878105
0.00885971
0.00891706
0.000121735
0.00104847
0.00201371
0.0028449
0.00356852
0.00420937
0.00478428
0.00530443
0.00577724
0.00620762
0.00659894
0.00695365
0.00727372
0.00756093
0.00781702
0.00804364
0.00824242
0.00841485
0.0085623
0.00868602
0.00878706
0.00886633
0.00892456
0.00011982
0.00103494
0.00199336
0.00282128
0.00354404
0.00418608
0.00476394
0.00528832
0.00576601
0.00620126
0.00659683
0.00695479
0.00727694
0.00756506
0.00782107
0.00804687
0.00824434
0.00841525
0.00856119
0.00868358
0.00878364
0.00886233
0.00892043
0.000117912
0.00102103
0.00197307
0.00279855
0.00352161
0.00416629
0.00474863
0.00527857
0.00576192
0.00620202
0.00660102
0.00696068
0.00728282
0.00756954
0.00782311
0.00804586
0.00824003
0.00840765
0.00855055
0.00867032
0.00876827
0.00884546
0.00890262
0.000116075
0.0010076
0.00195353
0.0027766
0.00350034
0.00414862
0.00473674
0.00527336
0.00576283
0.00620734
0.00660839
0.00696767
0.00728741
0.00757033
0.00781931
0.00803718
0.00822653
0.00838964
0.00852849
0.00864477
0.00873989
0.00881491
0.00887059
0.000114438
0.000996558
0.00193638
0.00275556
0.0034791
0.0041313
0.00472629
0.00527056
0.00576634
0.00621433
0.00661555
0.0069721
0.00728709
0.0075642
0.00780711
0.00801911
0.008203
0.00836115
0.00849557
0.008608
0.00869989
0.00877233
0.0088261
0.000113281
0.000991374
0.00192368
0.00273478
0.00345569
0.00411179
0.0047149
0.00526799
0.00577019
0.00622051
0.00661989
0.00697152
0.00728004
0.00755041
0.00778704
0.00799342
0.00817227
0.00832581
0.00845598
0.00856451
0.00865293
0.00872242
0.00877382
0.000113221
0.000996985
0.00191657
0.0027123
0.00342723
0.00408746
0.00470064
0.00526428
0.00577326
0.00622489
0.00662078
0.00696621
0.00726798
0.00753244
0.0077643
0.00796672
0.00814189
0.0082917
0.00841798
0.00852254
0.00860709
0.00867302
0.00872131
0.0001156
0.00101845
0.00191656
0.00268919
0.00339455
0.00405892
0.00468416
0.00526025
0.00577658
0.00622886
0.00662053
0.00696012
0.00725714
0.00751891
0.00774953
0.00795086
0.00812419
0.00827105
0.00839338
0.00849334
0.00857307
0.00863434
0.00867843
0.000123157
0.00106311
0.00194015
0.0026844
0.00337199
0.00403504
0.00467083
0.00525961
0.00578326
0.00623583
0.00662383
0.00696029
0.00725761
0.00752295
0.00775795
0.00796186
0.0081348
0.00827854
0.00839577
0.00848947
0.0085626
0.00861757
0.008656
0.000140615
0.00116
0.0020437
0.00274755
0.00339209
0.00403385
0.00466987
0.00526722
0.00579648
0.00624903
0.0066354
0.00697426
0.00728088
0.00756002
0.00780742
0.00801792
0.00819056
0.008329
0.00843815
0.00852254
0.00858634
0.00863284
0.0086641
0.000175813
0.00138749
0.002326
0.00294204
0.00348941
0.00407209
0.00468808
0.005285
0.00581632
0.00626852
0.00665652
0.00700591
0.00733545
0.00764472
0.00791587
0.00813862
0.00830831
0.00843554
0.00853085
0.00860109
0.00865195
0.00868758
0.00871038
0.000246404
0.00192682
0.00296048
0.00331446
0.00366867
0.00414666
0.00472118
0.00530799
0.00583761
0.00628933
0.00668211
0.00704996
0.00741891
0.00778388
0.00809477
0.00834855
0.00850687
0.00860932
0.00868032
0.00872931
0.00876285
0.00878529
0.00879889
0.000416715
0.00345607
0.00458653
0.00384726
0.00386563
0.00421925
0.00475
0.00532482
0.00585163
0.00630302
0.00670061
0.0070863
0.00749904
0.00794314
0.0083076
0.00869496
0.00881039
0.00885852
0.00888762
0.00890604
0.00891787
0.00892542
0.00892979
0.000224151
0.000208698
0.000202831
0.000199038
0.00192757
0.00173897
0.00164911
0.00162498
0.00345177
0.00326244
0.00313796
0.00306948
0.0045294
0.00438722
0.00427504
0.00419272
0.00533631
0.00523048
0.00513845
0.00506142
0.00596877
0.00588782
0.00581308
0.00574575
0.00647834
0.00641367
0.00635164
0.0062932
0.006894
0.00684074
0.00678822
0.006737
0.00723545
0.00719064
0.00714524
0.00709958
0.00751645
0.00747823
0.00743837
0.00739713
0.00774699
0.00771388
0.00767828
0.00764062
0.00793927
0.00791044
0.00787872
0.00784436
0.00810046
0.00807507
0.00804653
0.00801491
0.00823515
0.00821254
0.00818653
0.00815706
0.00834623
0.00832594
0.00830195
0.00827414
0.00843654
0.00841829
0.00839604
0.00836964
0.00850939
0.00849306
0.00847248
0.00844751
0.0085685
0.0085542
0.00853547
0.00851216
0.00861765
0.00860563
0.00858903
0.0085677
0.00866015
0.0086507
0.00863655
0.0086176
0.00869868
0.00869203
0.00868063
0.00866435
0.00873503
0.00873135
0.00872285
0.00870945
0.00877026
0.00876958
0.00876405
0.0087536
0.00880481
0.00880706
0.00880444
0.00879688
0.00883857
0.00884355
0.00884365
0.00883881
0.00887088
0.00887829
0.0088808
0.0088784
0.00890047
0.0089099
0.00891447
0.00891414
0.00892547
0.00893651
0.00894269
0.00894403
0.00894354
0.0089557
0.00896308
0.00896567
0.00895197
0.00896484
0.00897301
0.00897649
0.00894815
0.00896135
0.00897
0.00897408
0.00893019
0.00894346
0.00895233
0.00895679
0.00889766
0.00891079
0.00891971
0.0089244
0.00885237
0.00886517
0.00887396
0.00887872
0.00879887
0.00881109
0.00881948
0.00882404
0.00874456
0.00875578
0.00876335
0.00876728
0.00869903
0.00870871
0.00871489
0.00871759
0.00867303
0.00868059
0.0086848
0.00868567
0.00867683
0.00868188
0.00868381
0.00868254
0.00871861
0.00872123
0.00872112
0.00871813
0.0088031
0.00880392
0.00880278
0.00879947
0.00893093
0.00893098
0.00893027
0.0089287
0.000469301
0.000982276
0.00160991
0.0021398
0.00257285
0.00291268
0.00314944
0.00327601
0.00331367
0.00328745
0.00321486
0.00309184
0.00292242
0.0027637
0.00252997
0.00216706
0.00164033
0.000895139
0.000131757
0.00174243
0.00200992
0.00241388
0.00279512
0.00313804
0.00342996
0.00363996
0.00375603
0.00378963
0.00375675
0.00366953
0.00353154
0.00334742
0.00313285
0.00281566
0.00234874
0.00167219
0.000793961
0.000125047
0.00303393
0.0031004
0.00330591
0.00353757
0.00376545
0.00396649
0.00411793
0.00420178
0.00421898
0.00417317
0.00407088
0.00391458
0.00370476
0.00342874
0.00303734
0.00248972
0.00174511
0.000827574
0.000124903
0.00409851
0.00406709
0.00413993
0.00425963
0.00438731
0.00449742
0.00458215
0.00462487
0.00461504
0.00454935
0.0044271
0.00424678
0.00400277
0.00367784
0.00324164
0.00266505
0.00191799
0.000996137
0.000137117
0.00495674
0.00487971
0.00487471
0.00491311
0.00496218
0.00500165
0.00502586
0.00502311
0.00498109
0.00488965
0.00474317
0.00453662
0.00426141
0.00390295
0.00344008
0.0028495
0.0021025
0.00116473
0.000147449
0.00564611
0.00555041
0.00550118
0.005483
0.00547446
0.00546089
0.00543574
0.00539033
0.00531305
0.00519211
0.00501901
0.00478635
0.00448453
0.00410073
0.00361707
0.00300932
0.00224074
0.00125363
0.000154191
0.00620234
0.00610039
0.0060255
0.00596949
0.00591957
0.00586554
0.00580077
0.00571747
0.00560557
0.00545411
0.00525354
0.00499534
0.00467004
0.00426525
0.00376304
0.00313562
0.00233867
0.00130347
0.000158256
0.00665433
0.00655058
0.00646012
0.00637867
0.00629887
0.00621361
0.00611653
0.00600027
0.00585618
0.00567474
0.00544689
0.00516422
0.00481763
0.00439513
0.00387763
0.00323328
0.00241118
0.00134173
0.000159637
0.00702342
0.00691933
0.00681872
0.00671954
0.00661775
0.00650813
0.0063844
0.00623934
0.00606556
0.00585537
0.0056015
0.00529637
0.00493109
0.00449376
0.00396427
0.00330621
0.00246189
0.00136775
0.000162246
0.00732625
0.00722266
0.00711513
0.00700295
0.00688443
0.00675521
0.00660896
0.00643825
0.00623709
0.00600001
0.0057226
0.00539839
0.00501781
0.00456855
0.00403007
0.0033592
0.00249391
0.00136905
0.000169543
0.0075747
0.00747293
0.00736135
0.00724004
0.00710837
0.00696137
0.00679451
0.0066017
0.00637632
0.00611487
0.00581776
0.00547879
0.00508611
0.00462731
0.00408087
0.00340206
0.0025173
0.00132811
0.000166428
0.00778289
0.00768265
0.00756847
0.00744005
0.00729561
0.00713094
0.00694339
0.00672864
0.00648355
0.00620484
0.00589081
0.00553544
0.00512845
0.00465813
0.00410378
0.00342165
0.00255209
0.00139653
0.000173613
0.00795719
0.00785868
0.00774225
0.00760653
0.00744978
0.00726928
0.00706315
0.00682894
0.00656551
0.00627016
0.00593857
0.00556236
0.00513284
0.00464074
0.00406875
0.00338413
0.00252998
0.00140522
0.00017104
0.00810217
0.00800467
0.00788581
0.00774361
0.00757599
0.00738162
0.00715939
0.00690838
0.00662756
0.00631412
0.00596199
0.00556134
0.00510358
0.00458178
0.00398435
0.00328817
0.00244453
0.00136095
0.000162219
0.00822132
0.00812423
0.00800296
0.00785521
0.00767912
0.00747375
0.00723839
0.00697238
0.00667426
0.00634109
0.00596583
0.00553848
0.00505057
0.00449654
0.0038688
0.00315132
0.00230783
0.00126832
0.000150694
0.00831862
0.00822199
0.00809897
0.00794723
0.00776511
0.0075515
0.00730562
0.00702656
0.00671268
0.0063592
0.00596019
0.00550607
0.00498872
0.00440296
0.00374308
0.00299778
0.00214147
0.00113401
0.000141519
0.0083985
0.00830304
0.00817957
0.00802588
0.00784015
0.00762099
0.00736723
0.00707737
0.00674933
0.00637847
0.00595803
0.00547964
0.00493632
0.00432341
0.00363648
0.00286762
0.00200299
0.00103262
0.000135809
0.00846557
0.00837252
0.00825032
0.00809675
0.00790985
0.00768791
0.0074293
0.00713201
0.0067933
0.00640876
0.00597208
0.00547608
0.00491457
0.00428318
0.00357829
0.00279536
0.00192963
0.000987204
0.000134292
0.00852424
0.00843497
0.0083157
0.00816427
0.00797862
0.00775676
0.00749665
0.00719588
0.00685127
0.00645871
0.0060126
0.00550685
0.00493598
0.00429582
0.00358314
0.0027951
0.00193004
0.000994696
0.000136496
0.00857797
0.00849369
0.00837887
0.00823144
0.00804927
0.00783019
0.00757185
0.0072716
0.00692615
0.00653155
0.00608288
0.00557485
0.00500245
0.00436138
0.00364796
0.00285855
0.00198909
0.00103785
0.000140354
0.00862911
0.00855079
0.00844165
0.00829975
0.00812294
0.00790892
0.0076552
0.00735898
0.00701698
0.00662536
0.00617966
0.00567497
0.0051063
0.00446872
0.00375701
0.00296467
0.00208189
0.00109651
0.000144269
0.00867896
0.00860727
0.00850469
0.0083694
0.0081993
0.00799204
0.00774503
0.00745542
0.00711991
0.00673473
0.00629554
0.00579742
0.00523493
0.00460195
0.00389089
0.00309128
0.00218696
0.00115717
0.000147634
0.00872802
0.00866328
0.0085677
0.00843964
0.00827705
0.00807754
0.0078385
0.00755701
0.00722974
0.00685281
0.00642179
0.0059314
0.00537537
0.00474597
0.00403296
0.00322183
0.00229096
0.00121371
0.00015038
0.00877613
0.0087183
0.00862979
0.00850911
0.00835427
0.00816289
0.00793231
0.00765951
0.00734107
0.00697292
0.00655031
0.00606738
0.00551685
0.00488921
0.00417164
0.0033462
0.00238704
0.00126391
0.000152589
0.00882261
0.00877133
0.00868962
0.0085761
0.00842883
0.00824542
0.00802315
0.00775892
0.0074491
0.00708939
0.00667458
0.00619812
0.00565162
0.0050239
0.00429996
0.00345907
0.00247233
0.00130744
0.000154393
0.00886629
0.00882097
0.00874552
0.00863865
0.00849845
0.0083225
0.00810801
0.00785175
0.00754989
0.00719779
0.00678976
0.00631854
0.00577464
0.00514548
0.00441424
0.00355809
0.00254595
0.00134439
0.000155904
0.00890554
0.00886543
0.00879554
0.00869464
0.00856082
0.00839164
0.00818419
0.00793509
0.00764028
0.0072948
0.00689245
0.00642529
0.00588287
0.00525147
0.00451283
0.00364247
0.00260787
0.00137509
0.000157263
0.00893826
0.00890253
0.00883745
0.0087418
0.00861365
0.00845048
0.00824929
0.00800652
0.00771787
0.00737804
0.00698039
0.00651632
0.00597466
0.00534071
0.00459516
0.00371237
0.00265858
0.00139967
0.000158631
0.0089621
0.00892992
0.00886893
0.00877786
0.00865473
0.00849693
0.00830132
0.00806417
0.00778093
0.00744601
0.00705233
0.0065908
0.00604962
0.00541342
0.00466205
0.00376896
0.00269935
0.00141894
0.000160052
0.00897454
0.00894524
0.00888777
0.0088008
0.00868224
0.00852938
0.00833892
0.00810693
0.00782863
0.00749814
0.00710804
0.00664881
0.00610821
0.00547036
0.00471459
0.00381367
0.002732
0.00143505
0.000161466
0.0089733
0.00894641
0.00889212
0.00880901
0.00869487
0.00854683
0.0083614
0.00813443
0.00786091
0.00753471
0.00714808
0.00669122
0.00615154
0.00551287
0.00475425
0.00384806
0.00275811
0.00144914
0.000162986
0.00895688
0.00893212
0.0088809
0.00880169
0.00869213
0.00854915
0.00836899
0.00814725
0.00787872
0.00755699
0.00717407
0.00671992
0.00618171
0.00554314
0.00478316
0.0038741
0.00277935
0.00146241
0.000164707
0.00892514
0.00890236
0.00885424
0.00877918
0.00867465
0.00853727
0.00836297
0.00814707
0.00788409
0.0075674
0.00718881
0.00673806
0.00620218
0.00556478
0.00480484
0.00389488
0.00279809
0.00147611
0.000166822
0.00887987
0.00885885
0.00881385
0.00874324
0.00864432
0.00851334
0.00834581
0.00813666
0.00788017
0.00756952
0.00719641
0.00675043
0.00621842
0.00558374
0.0048253
0.00391575
0.00281834
0.00149255
0.000169546
0.00882517
0.0088054
0.00876322
0.00869713
0.00860432
0.00848062
0.00832093
0.00811973
0.007871
0.00756796
0.00720234
0.00676371
0.00623859
0.00560967
0.00485493
0.00394642
0.00284741
0.00151543
0.000173304
0.00876765
0.00874805
0.00870772
0.00864554
0.00855888
0.00844315
0.00829241
0.00810044
0.0078611
0.0075679
0.00721309
0.00678653
0.00627442
0.00565782
0.00491162
0.00400459
0.00289884
0.00155169
0.000178738
0.00871617
0.00869501
0.00865455
0.00859441
0.00851281
0.00840519
0.00826428
0.00808284
0.00785473
0.00757441
0.00723552
0.00682921
0.00634178
0.00575137
0.00502518
0.0041217
0.00299734
0.00161289
0.000187029
0.00868135
0.00865653
0.00861281
0.00855078
0.00847097
0.00837039
0.00823971
0.00806989
0.00785497
0.00759126
0.00727543
0.0069021
0.00645966
0.00592253
0.00524153
0.00434959
0.00318534
0.00171816
0.000200027
0.00867479
0.00864476
0.00859408
0.00852325
0.00843754
0.00834078
0.00822007
0.00806273
0.0078627
0.0076194
0.00733502
0.00701168
0.00664542
0.00620929
0.00562219
0.00476356
0.00352904
0.00189594
0.000220844
0.00870781
0.00867362
0.008614
0.00852449
0.008416
0.00831613
0.00820443
0.00806007
0.0078758
0.0076553
0.0074092
0.00715332
0.00690374
0.00664529
0.00623347
0.00545688
0.00412656
0.00219115
0.000255503
0.00878962
0.0087578
0.00869543
0.00858016
0.00840958
0.0082944
0.00819045
0.00805898
0.00788939
0.00769021
0.00748243
0.00730247
0.00721005
0.0072544
0.00712751
0.00653328
0.00515639
0.00271658
0.000321402
0.00892422
0.00890889
0.00887103
0.00876008
0.00841822
0.00827595
0.00817877
0.00805754
0.00789783
0.00771226
0.0075303
0.00740968
0.00748535
0.00811864
0.00831777
0.00808258
0.00709792
0.00406788
0.000467591
)
;

boundaryField
{
    leftWall
    {
        type            nutkWallFunction;
        Cmu             0.09;
        kappa           0.41;
        E               9.8;
        value           nonuniform List<scalar> 
50
(
2.16214e-06
6.41597e-06
7.55796e-06
8.42842e-06
9.16783e-06
1.00644e-05
1.23006e-05
1.32121e-05
1.40956e-05
1.51605e-05
1.5802e-05
1.65331e-05
1.73004e-05
1.79188e-05
1.86283e-05
1.92197e-05
1.95389e-05
1.60484e-05
1.56928e-05
1.58864e-05
1.6622e-05
1.68886e-05
1.67e-05
1.62492e-05
1.5648e-05
1.49234e-05
1.40943e-05
1.32064e-05
1.23408e-05
1.15904e-05
1.09492e-05
1.0418e-05
9.98362e-06
9.62066e-06
9.3007e-06
9.00013e-06
8.70346e-06
8.40327e-06
8.09856e-06
7.79361e-06
7.49785e-06
7.23e-06
7.0297e-06
6.98792e-06
7.31196e-06
8.44004e-06
1.11282e-05
1.64231e-05
2.63607e-05
4.91566e-05
)
;
    }
    rightWall
    {
        type            nutkWallFunction;
        Cmu             0.09;
        kappa           0.41;
        E               9.8;
        value           nonuniform List<scalar> 
50
(
2.21009e-06
7.68401e-06
9.66043e-06
1.19874e-05
1.63923e-05
1.68507e-05
1.67525e-05
1.63693e-05
1.54435e-05
1.47326e-05
1.46841e-05
1.60702e-05
1.73342e-05
1.8092e-05
1.85197e-05
1.86062e-05
1.87666e-05
1.96158e-05
1.76716e-05
1.65448e-05
1.59076e-05
1.44811e-05
1.2715e-05
1.13741e-05
1.05947e-05
1.04291e-05
1.07774e-05
1.1366e-05
1.19505e-05
1.24416e-05
1.28336e-05
1.31437e-05
1.33932e-05
1.36005e-05
1.37876e-05
1.39799e-05
1.41793e-05
1.43823e-05
1.46025e-05
1.48546e-05
1.51642e-05
1.55609e-05
1.60996e-05
1.68649e-05
1.80107e-05
1.97843e-05
2.26008e-05
2.72391e-05
3.58842e-05
5.56715e-05
)
;
    }
    lowerWall
    {
        type            nutkWallFunction;
        Cmu             0.09;
        kappa           0.41;
        E               9.8;
        value           nonuniform List<scalar> 
62
(
2.16214e-06
3.59575e-06
4.40296e-06
4.9499e-06
5.35255e-06
5.66212e-06
5.9042e-06
6.09343e-06
6.24088e-06
6.35563e-06
6.44318e-06
6.50624e-06
6.54712e-06
6.57278e-06
6.58385e-06
6.57557e-06
6.53945e-06
6.45955e-06
6.30936e-06
6.04023e-06
5.55832e-06
4.67661e-06
3.09716e-06
3.09716e-06
9.1176e-06
1.07699e-05
1.22032e-05
1.36322e-05
1.52434e-05
1.76507e-05
2.38784e-05
2.5197e-05
2.33312e-05
2.26002e-05
2.20071e-05
3.0639e-06
9.22092e-06
1.03266e-05
1.11993e-05
1.28001e-05
1.37775e-05
1.41681e-05
1.67728e-05
3.0639e-06
4.23003e-06
4.95908e-06
5.51129e-06
5.93394e-06
6.05155e-06
6.18595e-06
6.24498e-06
6.1885e-06
6.11579e-06
5.85244e-06
5.59267e-06
5.56994e-06
5.37073e-06
5.10109e-06
4.85876e-06
4.44616e-06
3.78045e-06
2.21009e-06
)
;
    }
    atmosphere
    {
        type            calculated;
        value           nonuniform List<scalar> 
46
(
0.009
0.009
0.009
0.00384726
0.00386563
0.00421925
0.00475
0.00532482
0.00585163
0.00630302
0.00670061
0.0070863
0.00749904
0.00794314
0.0083076
0.009
0.009
0.009
0.009
0.009
0.009
0.009
0.009
0.009
0.009
0.009
0.009
0.009
0.009
0.009
0.009
0.00841822
0.00827595
0.00817877
0.00805754
0.00789783
0.00771226
0.0075303
0.00740968
0.00748535
0.009
0.009
0.009
0.009
0.009
0.009
)
;
    }
    defaultFaces
    {
        type            empty;
    }
}


// ************************************************************************* //
