/*--------------------------------*- C++ -*----------------------------------*\
  =========                 |
  \\      /  F ield         | OpenFOAM: The Open Source CFD Toolbox
   \\    /   O peration     | Website:  https://openfoam.org
    \\  /    A nd           | Version:  13
     \\/     M anipulation  |
\*---------------------------------------------------------------------------*/
FoamFile
{
    format      ascii;
    class       volScalarField;
    location    "2.8";
    object      p;
}
// * * * * * * * * * * * * * * * * * * * * * * * * * * * * * * * * * * * * * //

dimensions      [1 -1 -2 0 0 0 0];

internalField   nonuniform List<scalar> 
2268
(
5094.02
5089.58
5097.04
5118.24
5152.15
5197.51
5252.32
5314.03
5379.82
5446.81
5512.37
5574.68
5632.45
5684.61
5729.74
5767.19
5796.33
5816.49
5826.79
5826.17
5814.17
5792.37
5766.47
4298.68
4295.68
4304.12
4326.51
4361.15
4406.87
4461.8
4523.44
4588.98
4655.46
4720.16
4781.34
4837.79
4888.07
4931.21
4966.38
4993.07
5010.86
5019.12
5017.25
5005.58
4984.69
4960.62
3501.14
3500.78
3510.59
3534.62
3570.31
3616.72
3672.03
3733.75
3799.13
3865.13
3928.84
3988.73
4043.53
4091.78
4132.33
4164.55
4188.16
4203.08
4209.11
4206.19
4195.2
4175.24
4153.43
2700.26
2702.73
2713.66
2739.34
2776.43
2824.06
2880.4
2942.79
3008.45
3074.44
3137.57
3196.3
3249.65
3296.03
3334.14
3363.59
3384.39
3396.79
3400.99
3397.16
3385.88
3364.89
3344.37
1894.66
1896.59
1907.01
1933.67
1972.56
2022.66
2081.96
2147
2214.69
2282.45
2346.1
2404.14
2456.39
2501.15
2536.9
2563.56
2581.45
2591.18
2593.36
2588.18
2575.4
2552.41
2533.33
1193.34
1194.05
1201.27
1219.07
1245.4
1279.79
1321.8
1371.53
1428.39
1488.34
1550.08
1610.89
1665.38
1711.25
1746.4
1771.19
1786.53
1793.5
1793.27
1786.1
1770.32
1743.29
1722.01
854.282
854.032
856.598
861.07
867.312
875.195
885.199
899.463
918.994
941.333
968.024
996.14
1022.58
1045.27
1063.1
1076.56
1084.83
1088.61
1087.36
1079.27
1063.83
1042.35
1026.7
778.068
777.522
778.151
778.786
778.935
778.266
776.375
772.909
767.795
761.689
754.547
746.813
740.347
735.038
731.209
728.729
726.179
723.338
719.006
711.98
703.605
698.034
696.035
2995.2
2892.41
2767.85
2644.58
2547.76
2479.08
2444.12
2424.85
2418.33
2420.06
2403.27
2381.3
2406.32
2414
2407.65
2397.81
2383.53
2374.97
2372.05
2310.96
2203.6
2073.41
1955.65
1892.87
1872.14
1837.67
1813.35
1800.99
1808.46
1826.65
1839.87
1823.57
1806.57
1799.03
1787.46
1775.9
1768.23
1765.44
1724.43
1615.38
1505.98
1428.17
1363.87
1323.52
1295.29
1274.85
1273.63
1256.21
1286.85
1316.08
1295.95
1271.72
1253.26
1235.82
1234.82
1243.22
1254.11
1278
1208.61
1180.51
1163.04
1111.39
1063.21
1044.23
1029.89
1023.8
986.491
977.356
974.928
971.76
952.939
942.716
940.007
944.156
950.223
950.543
993.624
991.831
1012.31
1018.14
1007.93
986.172
972.968
961.399
933.333
907.319
876.24
850.391
825.824
838.606
857.271
867.462
864.969
853.379
835.622
872.797
881.982
891.947
891.961
902.188
906.327
898.019
887.765
855.771
838.932
823.398
803.322
765.382
789.214
809.577
812.285
809.123
798.026
792.928
785.589
787.379
794.415
789.768
789.483
810.187
807.37
789.353
772.736
771.059
763.942
754.829
738.162
749.059
753.336
753.124
750.181
741.794
745.143
705.061
709.174
717.329
711.286
702.226
712.444
713.232
700.845
704.162
708.255
706.017
703.091
710.278
706.294
697.648
695.199
692.607
685.87
694.549
682.743
682.309
682.56
682.898
682.695
681.581
679.24
675.583
670.849
665.516
659.873
654.071
648.018
641.309
634.346
627.036
619.503
611.758
603.964
596.832
591.257
588.873
590.171
552.477
552.929
554.112
554.815
555.007
554.436
552.649
549.622
545.652
540.992
535.795
530.08
523.863
517.528
510.898
504.122
497.179
490.009
482.374
474.621
467.511
461.868
457.718
427.369
426.156
426.221
426.62
427.207
427.523
426.211
423.536
420.299
416.496
412
406.897
401.221
395.125
389.056
382.986
376.641
369.931
363.664
358.517
354.904
353.255
353.134
316.716
315.978
315.163
314.266
313.012
311.106
309.271
306.994
304.063
300.788
297.168
293.48
290.021
286.492
282.699
279.073
276.335
274.69
273.813
273.785
274.879
277.465
281.266
235.297
236.087
235.68
233.969
231.032
227.693
225.608
223.73
221.33
218.665
216.21
214.022
212.262
210.719
209.094
207.902
207.819
209.025
210.765
212.624
214.779
217.351
220.674
172.965
172.556
171.42
169.741
167.721
166.077
164.397
162.7
160.947
159.139
157.434
155.821
154.023
152.457
151.444
150.904
150.333
149.713
150.044
151.245
152.946
155.092
157.725
109.354
108.485
107.063
105.44
104.03
102.799
101.115
99.4797
98.1048
96.7827
95.3218
93.7659
92.17
90.6613
89.59
88.8176
88.2032
87.7582
87.79
88.4296
89.6545
91.4437
93.5902
48.1933
47.104
45.5144
44.1078
43.027
41.9789
41.0036
40.0493
39.1792
38.329
37.448
36.5176
35.5649
34.7101
33.8815
33.1386
32.4723
31.8825
31.5249
31.5935
32.0977
32.9645
34.3974
11.5057
10.9475
10.0819
9.54306
9.28075
9.12459
8.85486
8.51752
8.24649
8.00755
7.7429
7.42266
7.05155
6.66753
6.29361
5.94968
5.65719
5.42222
5.26839
5.20967
5.2897
5.49875
5.83861
3.74058
3.74617
3.77051
3.77037
3.75377
3.7316
3.71408
3.69697
3.67172
3.64281
3.61877
3.60293
3.59307
3.58659
3.58416
3.58694
3.59406
3.60149
3.60573
3.60419
3.59841
3.58625
3.56581
3.62618
3.62741
3.62916
3.62922
3.62689
3.62275
3.61726
3.60842
3.59407
3.57634
3.55807
3.54011
3.52253
3.50548
3.48939
3.47494
3.46248
3.45176
3.44172
3.43158
3.42012
3.40733
3.39209
3.50557
3.50593
3.50595
3.50399
3.49946
3.49342
3.48639
3.47597
3.46137
3.44384
3.42666
3.41009
3.39419
3.37916
3.36524
3.35272
3.3416
3.3316
3.3215
3.31067
3.29858
3.28571
3.27133
3.384
3.3832
3.38287
3.38016
3.37448
3.36713
3.35889
3.34722
3.33319
3.31691
3.30035
3.28469
3.26961
3.25527
3.24192
3.22976
3.2187
3.20833
3.19784
3.18664
3.17454
3.16192
3.1473
3.26199
3.26013
3.25876
3.25561
3.24996
3.24215
3.23259
3.22168
3.20915
3.19539
3.18083
3.16648
3.15215
3.13806
3.1245
3.11168
3.09951
3.08767
3.07568
3.0632
3.05012
3.03679
3.02143
3.14018
3.13735
3.13494
3.13143
3.12647
3.11899
3.10867
3.09824
3.08703
3.07527
3.06357
3.05071
3.03723
3.02354
3.00994
2.99661
2.98345
2.97025
2.9567
2.94269
2.92829
2.91394
2.89789
3.01936
3.01626
3.01316
3.00956
3.00522
2.99852
2.98917
2.97828
2.96771
2.95784
2.94726
2.93526
2.92239
2.90907
2.89562
2.88205
2.86831
2.85426
2.83973
2.82472
2.80941
2.79435
2.7779
2.89982
2.8971
2.89394
2.89056
2.88629
2.8802
2.87216
2.86268
2.85274
2.84286
2.83219
2.82047
2.80795
2.79494
2.78161
2.76794
2.75391
2.73941
2.72433
2.70878
2.69297
2.67755
2.6609
2.78146
2.77931
2.77662
2.7733
2.76902
2.76333
2.75612
2.74764
2.73837
2.72853
2.71792
2.70641
2.69417
2.68141
2.6682
2.65455
2.64044
2.62575
2.61044
2.59464
2.57864
2.56309
2.54647
2.66403
2.66241
2.66011
2.65697
2.65283
2.64745
2.64077
2.63294
2.62416
2.61459
2.60419
2.59297
2.58105
2.56855
2.55553
2.54202
2.52798
2.51332
2.49799
2.48218
2.46619
2.45072
2.43424
2.54738
2.5462
2.54425
2.54135
2.5374
2.5323
2.52603
2.51866
2.51032
2.50109
2.49101
2.48013
2.46856
2.45638
2.44365
2.43039
2.41656
2.40207
2.38691
2.37127
2.35546
2.34019
2.32401
2.43136
2.43054
2.42891
2.42624
2.42252
2.4177
2.41178
2.40481
2.39688
2.38804
2.37835
2.36787
2.35669
2.3449
2.33254
2.31963
2.30612
2.29195
2.2771
2.26176
2.24627
2.23132
2.21548
2.31584
2.31532
2.31394
2.31151
2.30804
2.30351
2.29792
2.29133
2.2838
2.27539
2.26614
2.25612
2.2454
2.23406
2.22215
2.20968
2.19661
2.18287
2.16845
2.15355
2.13849
2.12396
2.10859
2.20077
2.20045
2.19928
2.19708
2.19386
2.18962
2.18438
2.17818
2.17106
2.1631
2.15433
2.14481
2.13461
2.12379
2.11241
2.10047
2.08793
2.07474
2.06087
2.04652
2.03201
2.01802
2.00319
2.08606
2.08586
2.08488
2.08291
2.07995
2.076
2.0711
2.06529
2.05861
2.05112
2.04286
2.03389
2.02426
2.01403
2.00325
1.99192
1.98001
1.96745
1.95423
1.94055
1.92671
1.91336
1.89924
1.97167
1.97155
1.97072
1.96897
1.96627
1.96263
1.95808
1.95267
1.94643
1.93943
1.93171
1.92332
1.91431
1.90472
1.89459
1.88394
1.87273
1.8609
1.84843
1.83551
1.82243
1.80981
1.79641
1.85757
1.85748
1.85679
1.85525
1.85281
1.84949
1.84531
1.84031
1.83453
1.82803
1.82086
1.81307
1.8047
1.79579
1.78637
1.77646
1.76601
1.75498
1.74333
1.73125
1.71901
1.70718
1.69457
1.74371
1.74365
1.74308
1.74174
1.73957
1.73657
1.73276
1.72819
1.72289
1.71691
1.71031
1.70315
1.69544
1.68724
1.67856
1.66943
1.65979
1.6496
1.63884
1.62765
1.6163
1.60535
1.59355
1.63008
1.63005
1.6296
1.62845
1.62653
1.62385
1.62042
1.61629
1.61148
1.60605
1.60004
1.59352
1.5865
1.57903
1.57113
1.56281
1.55402
1.54472
1.53487
1.52462
1.51421
1.50412
1.49339
1.51665
1.51666
1.51632
1.51535
1.51368
1.51132
1.50827
1.50458
1.50027
1.4954
1.49
1.48413
1.47782
1.47111
1.46401
1.45652
1.4486
1.44021
1.43132
1.42204
1.41261
1.40347
1.39371
1.40337
1.40344
1.40321
1.40242
1.401
1.39895
1.39629
1.39304
1.38924
1.38492
1.38014
1.37494
1.36935
1.36339
1.3571
1.35045
1.34343
1.33597
1.32805
1.31978
1.31134
1.30314
1.29441
1.29022
1.29037
1.29026
1.28965
1.28847
1.28673
1.28445
1.28164
1.27834
1.27458
1.27041
1.26588
1.261
1.25581
1.25031
1.24452
1.23838
1.23186
1.22493
1.21766
1.21025
1.20304
1.1953
1.17716
1.17739
1.17741
1.17698
1.17605
1.17462
1.17271
1.17034
1.16754
1.16434
1.16078
1.15689
1.15271
1.14827
1.14356
1.13859
1.13333
1.12773
1.12177
1.11553
1.10915
1.10294
1.0963
1.06414
1.06448
1.06463
1.06439
1.06371
1.0626
1.06106
1.05912
1.0568
1.05414
1.05117
1.04792
1.04442
1.04068
1.03672
1.03255
1.02813
1.02342
1.01842
1.01317
1.00781
1.0026
0.996986
0.951136
0.951582
0.951879
0.951834
0.951412
0.950619
0.949458
0.947943
0.946099
0.943956
0.941545
0.938894
0.936023
0.932952
0.929694
0.926255
0.922622
0.918763
0.914658
0.910362
0.905971
0.901693
0.897116
0.838092
0.838668
0.83912
0.839284
0.839132
0.838666
0.837879
0.836779
0.83539
0.83374
0.831854
0.829757
0.827465
0.824996
0.822366
0.819592
0.816673
0.813586
0.810318
0.806899
0.803419
0.800035
0.796372
0.724978
0.725699
0.726318
0.726706
0.726843
0.726716
0.726305
0.725611
0.724654
0.723462
0.722056
0.720457
0.718677
0.716732
0.714646
0.712449
0.710159
0.707761
0.705242
0.70263
0.699977
0.697401
0.694638
0.611756
0.612646
0.613445
0.614074
0.61453
0.614767
0.614736
0.614434
0.613881
0.613107
0.612129
0.610962
0.609617
0.608106
0.606461
0.604743
0.602987
0.601191
0.599337
0.597432
0.595513
0.593665
0.591637
0.498407
0.499496
0.500492
0.501409
0.502233
0.502857
0.503205
0.503271
0.503086
0.502682
0.502076
0.501273
0.500281
0.499102
0.49778
0.496435
0.495123
0.493842
0.492561
0.491279
0.489997
0.488756
0.487381
0.384919
0.386267
0.387559
0.388859
0.390102
0.391108
0.391797
0.392178
0.392305
0.39222
0.391935
0.391446
0.390745
0.389779
0.388642
0.387566
0.386616
0.385771
0.384987
0.384242
0.383518
0.382835
0.382045
0.271333
0.273067
0.274952
0.276762
0.278406
0.279697
0.280613
0.281212
0.281571
0.281747
0.281758
0.281602
0.281252
0.280444
0.279326
0.278433
0.277785
0.277332
0.276953
0.276667
0.276446
0.276299
0.27626
0.157745
0.160006
0.163221
0.165686
0.167444
0.168763
0.16972
0.170406
0.170908
0.171287
0.171593
0.17189
0.172263
0.171149
0.16977
0.168995
0.168622
0.168461
0.168381
0.168423
0.168574
0.168824
0.169565
0.049655
0.0496093
0.0529651
0.0546525
0.0556911
0.0564811
0.0570651
0.0575102
0.0578697
0.0581847
0.0585088
0.0589535
0.0598843
0.0595802
0.0579702
0.0574425
0.057354
0.0573019
0.0571634
0.0571761
0.0572742
0.0574501
0.0580129
598.663
601.756
604.299
606.028
453.271
450.446
450.457
454.266
353.488
353.947
354.167
355.209
284.006
285.443
285.751
285.04
223.393
224.664
225.273
225.46
159.563
160.573
161.374
162.109
95.5389
96.6991
97.7577
98.7706
36.1266
37.2374
38.1894
38.9723
6.24461
6.54644
6.82991
7.08788
3.54529
3.5309
3.51227
3.49056
3.36928
3.3489
3.32663
3.30816
3.25052
3.22827
3.2027
3.18135
3.12383
3.09939
3.07245
3.05128
2.99609
2.97046
2.94281
2.92184
2.87198
2.84581
2.81764
2.7965
2.75177
2.72532
2.69682
2.67541
2.63479
2.60825
2.57953
2.55797
2.52049
2.49401
2.46535
2.44373
2.40859
2.38236
2.35384
2.33233
2.2988
2.27298
2.24485
2.22353
2.1909
2.16563
2.13797
2.117
2.08467
2.06007
2.03316
2.01265
1.98016
1.95638
1.93023
1.9103
1.8772
1.85438
1.82923
1.80989
1.77555
1.75382
1.72968
1.71107
1.67485
1.65429
1.63148
1.6137
1.57515
1.55588
1.53435
1.51752
1.47639
1.45847
1.4383
1.42238
1.37822
1.36173
1.34294
1.32808
1.28035
1.26533
1.24819
1.23443
1.18281
1.16932
1.15372
1.14113
1.08537
1.07345
1.05953
1.04802
0.987702
0.977347
0.964936
0.954531
0.889293
0.880428
0.86966
0.860338
0.790005
0.782564
0.773232
0.765013
0.68957
0.683459
0.67561
0.668408
0.587789
0.582903
0.576324
0.570155
0.484481
0.480661
0.47539
0.470241
0.380042
0.377198
0.373042
0.368888
0.275255
0.27343
0.270369
0.266994
0.170444
0.169834
0.167781
0.164892
0.0593039
0.0594556
0.0587321
0.0572648
605.274
607.585
612.016
610.987
606.744
603.574
600.122
602.214
610.775
615.182
616.416
620.019
633.765
622.072
610.795
605.688
603.643
602.273
610.793
465.735
473.97
476.347
481.997
485.204
480.329
477.88
483.449
487.323
490.575
493.47
498.75
509.309
499.962
492.874
490.744
492.795
496.794
501.993
358.835
362.81
364.558
372.666
378.496
376.653
378.854
383.206
385.587
388.919
391.664
394.886
399.071
398.085
398.257
400.978
404.598
407.192
407.059
284.901
287.945
290.596
294.477
299.047
304.57
307.694
310.467
314.43
317.834
320.275
322.053
324.058
326.282
329.262
331.93
333.236
332.641
331.305
225.962
228.804
231.287
233.736
238.044
244.654
248.958
251.986
253.982
255.939
258.16
260.222
262.346
264.285
266.365
268.01
268.277
266.852
266.011
163.456
166.509
169.336
172.443
176.651
182.09
187.134
190.33
192.079
194.056
196.26
198.356
200.358
202.169
203.841
205.063
205.26
204.339
203.887
100.488
103.689
106.931
110.4
114.501
119.168
123.501
126.971
129.692
132.198
134.587
136.75
138.673
140.287
141.605
142.573
142.827
142.197
141.724
40.1653
42.7668
45.5883
48.6337
52.1597
56.2084
60.2749
63.9229
67.1283
70.0716
72.7815
75.1974
77.2708
78.8054
79.6769
79.8488
79.3949
78.7319
78.5636
7.51509
8.41133
9.47977
10.706
12.1722
14.0942
16.0777
17.9088
19.6203
21.3036
22.9915
24.6468
26.1828
27.3959
28.1084
28.0021
27.2657
26.5573
26.4355
3.45644
3.42995
3.42159
3.43106
3.44549
3.43497
3.40715
3.39504
3.45598
3.59228
3.82717
4.13919
4.4504
4.77968
5.20051
5.32525
5.32561
5.07052
4.79188
3.29065
3.27928
3.27452
3.27848
3.28565
3.28144
3.26693
3.24454
3.23634
3.24346
3.26832
3.29643
3.3089
3.31641
3.26426
3.19164
3.1894
3.21108
3.23329
3.16053
3.14972
3.1409
3.13264
3.12678
3.11719
3.10696
3.09783
3.094
3.09293
3.09747
3.10453
3.10249
3.08617
3.07217
3.0757
3.07991
3.08637
3.09188
3.03163
3.02089
3.00989
2.99536
2.98
2.9695
2.96343
2.96462
2.96381
2.96022
2.95504
2.95336
2.94991
2.94644
2.94955
2.95376
2.95895
2.96475
2.9695
2.9035
2.89365
2.88327
2.87139
2.8598
2.85078
2.84588
2.84411
2.84221
2.83844
2.8319
2.82654
2.82556
2.82794
2.83203
2.83669
2.84162
2.84709
2.85103
2.7784
2.76928
2.75982
2.7495
2.73981
2.73227
2.72749
2.72501
2.72285
2.71996
2.71612
2.71317
2.71302
2.71485
2.71841
2.72282
2.72769
2.7322
2.73466
2.65721
2.64857
2.63983
2.63057
2.62208
2.61532
2.61061
2.60762
2.60528
2.60304
2.60081
2.59953
2.60028
2.60264
2.60633
2.6107
2.61518
2.61878
2.62006
2.5397
2.53135
2.52312
2.51459
2.50686
2.50059
2.49596
2.49275
2.4904
2.48861
2.48742
2.48726
2.48863
2.49135
2.49509
2.49931
2.50341
2.50637
2.50694
2.42543
2.4173
2.40943
2.40135
2.3941
2.38812
2.38356
2.38028
2.37799
2.37652
2.3759
2.37636
2.37808
2.38093
2.38459
2.38859
2.39231
2.39481
2.39502
2.31411
2.30612
2.29848
2.29069
2.28369
2.27787
2.27334
2.27002
2.26775
2.26643
2.26608
2.2668
2.26862
2.27141
2.27487
2.27857
2.28193
2.28406
2.28415
2.20542
2.19756
2.19007
2.18244
2.17557
2.1698
2.16524
2.16183
2.1595
2.15818
2.15787
2.1586
2.16033
2.16292
2.1661
2.16947
2.17245
2.17435
2.17453
2.09918
2.09142
2.08402
2.07647
2.06964
2.06384
2.05918
2.05564
2.05316
2.05171
2.05127
2.05185
2.05336
2.05567
2.05852
2.06154
2.06427
2.06606
2.06643
1.99515
1.98751
1.98018
1.97267
1.96581
1.95993
1.95512
1.95138
1.94868
1.94701
1.94634
1.94665
1.94786
1.94984
1.95234
1.95508
1.95762
1.95939
1.95995
1.89325
1.88568
1.8784
1.87089
1.86398
1.85797
1.85298
1.84901
1.84604
1.84407
1.84309
1.84307
1.84394
1.84555
1.84773
1.85021
1.85259
1.85437
1.85509
1.79321
1.78574
1.7785
1.771
1.76402
1.75787
1.75267
1.74844
1.74517
1.74287
1.74154
1.74115
1.74163
1.74287
1.74472
1.74694
1.74917
1.75094
1.7518
1.69493
1.6875
1.68033
1.67283
1.66578
1.65948
1.65407
1.64957
1.64599
1.64334
1.64163
1.64083
1.64091
1.64177
1.64328
1.64521
1.64727
1.64902
1.64995
1.5981
1.59076
1.58367
1.5762
1.56909
1.56267
1.55705
1.55228
1.54838
1.54536
1.54325
1.54205
1.54171
1.54216
1.5433
1.54494
1.54679
1.54846
1.54945
1.50264
1.49533
1.48834
1.48093
1.47378
1.46724
1.46143
1.4564
1.45218
1.4488
1.44629
1.44466
1.44388
1.44392
1.44467
1.44596
1.44757
1.44912
1.45012
1.40817
1.40115
1.39422
1.38683
1.37967
1.37302
1.36704
1.36176
1.35723
1.3535
1.35059
1.34853
1.34731
1.3469
1.34722
1.34816
1.34948
1.35086
1.35182
1.3147
1.30787
1.30105
1.29373
1.28657
1.27984
1.2737
1.2682
1.26338
1.2593
1.25599
1.2535
1.25183
1.25096
1.25084
1.25135
1.25235
1.25353
1.25441
1.22186
1.21526
1.20856
1.20135
1.19422
1.18745
1.18119
1.17549
1.17041
1.16599
1.1623
1.15937
1.15724
1.15589
1.15529
1.15537
1.15599
1.1569
1.15769
1.12945
1.12301
1.11647
1.10938
1.10232
1.09555
1.08921
1.08336
1.07804
1.07333
1.06927
1.06591
1.06331
1.06146
1.06036
1.05996
1.06018
1.06083
1.06149
1.03706
1.03081
1.02442
1.0175
1.01056
1.00384
0.997478
0.991527
0.986036
0.981063
0.976661
0.972891
0.969812
0.967455
0.965838
0.964958
0.964757
0.965089
0.965631
0.944378
0.938278
0.932086
0.925385
0.918626
0.912034
0.905723
0.899743
0.89414
0.888959
0.884253
0.880087
0.876534
0.873665
0.871521
0.870134
0.869509
0.869549
0.869957
0.850934
0.845079
0.839138
0.832726
0.826234
0.819858
0.813694
0.807778
0.802144
0.796824
0.791865
0.787332
0.783314
0.779916
0.777223
0.775332
0.774286
0.774031
0.774345
0.756484
0.750895
0.745283
0.739252
0.733134
0.727088
0.721185
0.715449
0.709888
0.70452
0.699376
0.694517
0.690042
0.686095
0.68283
0.680405
0.678948
0.678449
0.678688
0.660663
0.655468
0.650282
0.644749
0.639132
0.633557
0.628059
0.622639
0.617281
0.611981
0.606748
0.601622
0.596705
0.592182
0.588292
0.585311
0.583445
0.582721
0.582954
0.563344
0.558612
0.55397
0.54907
0.544107
0.539167
0.534242
0.529298
0.524302
0.519222
0.514035
0.508742
0.503423
0.4983
0.493713
0.490091
0.487794
0.486894
0.487159
0.464386
0.460262
0.456274
0.452156
0.448029
0.443923
0.439751
0.435461
0.43101
0.426348
0.421403
0.416114
0.410494
0.404768
0.399373
0.395012
0.392201
0.391081
0.391419
0.364051
0.360507
0.357242
0.35405
0.350983
0.347921
0.344681
0.34122
0.337519
0.333516
0.329097
0.324105
0.31842
0.312202
0.305901
0.300649
0.297148
0.295641
0.295899
0.262821
0.259717
0.257169
0.25494
0.253144
0.25127
0.24911
0.246647
0.243917
0.240873
0.237371
0.233164
0.227959
0.22169
0.214374
0.208252
0.203763
0.201143
0.200735
0.160374
0.157549
0.155723
0.154261
0.154593
0.154052
0.153061
0.151741
0.150205
0.148436
0.146313
0.14358
0.139737
0.134496
0.125418
0.119044
0.113449
0.108243
0.10585
0.0543913
0.0529767
0.0521145
0.0510819
0.0520098
0.0522351
0.052125
0.0518189
0.0514329
0.0509618
0.0503577
0.0495036
0.048098
0.0459751
0.0406817
0.0371706
0.033444
0.0269885
0.0244796
)
;

boundaryField
{
    leftWall
    {
        type            calculated;
        value           nonuniform List<scalar> 
50
(
5094.02
4298.68
3501.14
2700.26
1894.66
1193.34
854.282
778.068
682.743
552.477
427.369
316.716
235.297
172.965
109.354
48.1933
11.5057
3.74058
3.62618
3.50557
3.384
3.26199
3.14018
3.01936
2.89982
2.78146
2.66403
2.54738
2.43136
2.31584
2.20077
2.08606
1.97167
1.85757
1.74371
1.63008
1.51665
1.40337
1.29022
1.17716
1.06414
0.951136
0.838092
0.724978
0.611756
0.498407
0.384919
0.271333
0.157745
0.049655
)
;
    }
    rightWall
    {
        type            calculated;
        value           nonuniform List<scalar> 
50
(
2372.05
1765.44
1254.11
950.543
835.622
792.928
745.143
694.549
610.793
501.993
407.059
331.305
266.011
203.887
141.724
78.5636
26.4355
4.79188
3.23329
3.09188
2.9695
2.85103
2.73466
2.62006
2.50694
2.39502
2.28415
2.17453
2.06643
1.95995
1.85509
1.7518
1.64995
1.54945
1.45012
1.35182
1.25441
1.15769
1.06149
0.965631
0.869957
0.774345
0.678688
0.582954
0.487159
0.391419
0.295899
0.200735
0.10585
0.0244796
)
;
    }
    lowerWall
    {
        type            calculated;
        value           nonuniform List<scalar> 
62
(
5492.17
5487.73
5495.19
5516.39
5550.3
5595.66
5650.47
5712.18
5777.97
5844.96
5910.52
5972.83
6030.6
6082.76
6127.89
6165.34
6194.48
6214.64
6224.94
6224.25
6212.1
6190.31
6164.42
5766.47
4960.62
4153.43
3344.37
2533.33
1722.01
1026.7
696.035
675.207
693.106
699.087
702.719
2995.2
2310.96
1724.43
1278
993.624
872.797
785.589
705.061
3346.68
3244.14
3119.39
2995.83
2868.51
2744.57
2709.87
2694.19
2696.01
2698.74
2666.7
2640.95
2685.41
2718.25
2712.11
2702.74
2687.25
2678.13
2675.31
)
;
    }
    atmosphere
    {
        type            calculated;
        value           nonuniform List<scalar> 
46
(
0
0
0
0
0
0
0
0
0
0
0
0
0
0
0
0
0
0
0
0
0
0
0
0
0
0
0
0
0
0
0
0
0
0
0
0
0
0
0
0
0
0
0
0
-4.80696e-05
-5.74513e-05
)
;
    }
    defaultFaces
    {
        type            empty;
    }
}


// ************************************************************************* //
