/*--------------------------------*- C++ -*----------------------------------*\
  =========                 |
  \\      /  F ield         | OpenFOAM: The Open Source CFD Toolbox
   \\    /   O peration     | Website:  https://openfoam.org
    \\  /    A nd           | Version:  13
     \\/     M anipulation  |
\*---------------------------------------------------------------------------*/
FoamFile
{
    format      ascii;
    class       volScalarField;
    location    "2.8";
    object      p_rgh;
}
// * * * * * * * * * * * * * * * * * * * * * * * * * * * * * * * * * * * * * //

dimensions      [1 -1 -2 0 0 0 0];

internalField   nonuniform List<scalar> 
2268
(
5492.17
5487.73
5495.19
5516.39
5550.3
5595.66
5650.47
5712.18
5777.97
5844.96
5910.52
5972.83
6030.6
6082.76
6127.89
6165.34
6194.48
6214.64
6224.94
6224.25
6212.1
6190.31
6164.42
5493.13
5490.13
5498.57
5520.96
5555.6
5601.32
5656.25
5717.89
5783.43
5849.91
5914.61
5975.79
6032.24
6082.52
6125.66
6160.83
6187.52
6205.31
6213.57
6211.68
6199.95
6179.03
6155.05
5491.89
5491.53
5501.34
5525.37
5561.06
5607.47
5662.78
5724.5
5789.88
5855.88
5919.59
5979.48
6034.28
6082.53
6123.08
6155.3
6178.91
6193.83
6199.86
6196.94
6185.95
6165.99
6144.18
5487.3
5489.78
5500.71
5526.39
5563.48
5611.11
5667.45
5729.84
5795.5
5861.49
5924.62
5983.35
6036.7
6083.07
6121.19
6150.64
6171.44
6183.84
6188.04
6184.21
6172.93
6151.94
6131.41
5478.01
5479.94
5490.36
5517.02
5555.91
5606.01
5665.31
5730.35
5798.04
5865.8
5929.45
5987.49
6039.74
6084.49
6120.25
6146.9
6164.8
6174.53
6176.71
6171.52
6158.75
6135.76
6116.67
4374.12
4322.77
4330.07
4432.97
4602.44
4832.98
5106.97
5375.08
5604.95
5810.76
5929.73
5990.54
6045.03
6090.89
6126.04
6150.83
6166.18
6173.15
6172.92
6165.74
6149.97
6122.93
6100.99
1424.09
1404.29
1408.17
1450.41
1528.37
1641.93
1803.38
2051.58
2405.36
2812.69
3308.01
3848.62
4336.42
4744.95
5044.38
5234.42
5342.12
5377.17
5365.05
5320.7
5202.5
4955.59
4736.82
1219.51
1218.96
1219.59
1220.23
1220.38
1219.71
1217.81
1214.35
1209.24
1203.13
1195.99
1205.5
1253.12
1324
1414.21
1523.83
1619.44
1703.48
1746.16
1707.31
1599.96
1439.98
1345.72
3346.68
3244.14
3119.39
2995.83
2868.51
2744.57
2709.87
2694.19
2696.01
2698.74
2666.7
2640.95
2685.41
2718.25
2712.11
2702.74
2687.25
2678.13
2675.31
3365.38
3258.06
3119.41
2962.09
2881.97
2866.9
2831.78
2808.83
2793.05
2797.5
2754.69
2668.49
2732.34
2713.44
2706.88
2695.56
2685.39
2677.6
2674.72
3016.09
2880.7
2606.41
2352.01
2336.71
2398.63
2331.48
2295.47
2228.64
2385.56
2441.54
2526.51
2425.88
2441.77
2476.35
2483.75
2422.84
2352.63
2288.1
2812.09
2370.81
1881.72
1678.43
1480.07
1358.26
1327.31
1308.22
1431.43
1281.83
1548.27
1696.83
1688.37
1545.42
1404.91
1256
1309.7
1419.06
1617.75
1748.56
1502.08
1585.61
1654.19
1419.9
1267.34
1245.23
1229.35
1261.86
1196.28
1065.13
1064.84
1248.72
1098.63
1023.68
1090.33
1094.49
1105.86
1001.43
1385.03
1498.12
1513.15
1529.94
1557.64
1377.42
1369.49
1372.52
1332.59
1215.19
1152.54
1048.53
870.186
993.328
1120.16
1135.99
1132.82
1121.72
1019.07
1406.14
1362.34
1347.92
1386.29
1507.79
1452.24
1400.52
1473.74
1268.76
1190.82
1148.94
1138
865.626
1012.88
1135.87
1135.71
1132.73
1124.16
1040.56
1299.31
1290.6
1269.17
1211.76
1170.56
1430.35
1449.2
1301.26
1146.02
1152.02
1150.15
1128.53
857.482
1034.4
1137.23
1136.65
1133.66
1127.34
1052.62
1216.21
1215.78
1216.03
1216.34
1216.13
1215.05
1212.71
1209.05
1204.32
1198.98
1193.34
1187.54
1181.49
1174.78
1167.81
1160.5
1152.97
1145.22
1137.43
1130.3
1124.59
1121.33
1121.38
1211.14
1211.17
1211.8
1213.06
1213.65
1213.1
1211.31
1208.28
1204.31
1199.65
1194.46
1188.74
1182.52
1176.19
1169.56
1162.78
1155.84
1148.67
1141.04
1133.17
1124.02
1109.65
1085.68
1143.01
1181.91
1209.21
1210.34
1211.06
1211.38
1210.07
1207.39
1204.16
1200.35
1195.86
1190.75
1184.75
1176.88
1165.84
1152.6
1138.7
1126.97
1097.53
1054.58
1006.84
951.522
869.435
1033.48
984.54
983.283
996.033
1030.95
1088.16
1094.5
1081.79
1086.46
1090.85
1086.49
1074.93
1045.84
1005.2
978.336
952.469
905.813
826.38
762.834
723.313
702.323
706.871
705.77
716.161
749.445
753.213
752.346
751.209
718.697
707.61
713.52
706.552
698.518
686.395
670.062
681.461
692.88
677.912
654.083
659.121
706.664
727.551
729.746
731.902
734.476
728.645
746.062
752.251
751.053
749.482
734.322
716.737
731.308
740.834
735.289
725.347
724.946
728.978
732.018
732.173
731.164
730.624
730.053
729.433
729.764
730.965
732.447
734.504
737.563
751.325
751.225
749.414
747.757
746.26
745.11
743.432
741.797
740.422
739.1
737.639
736.083
734.487
732.978
731.907
731.135
730.52
730.075
730.107
730.747
731.975
733.766
735.908
705.153
695.238
685.435
678.642
675.252
670.442
670.601
675.318
676.919
675.568
671.131
663.329
651.878
638.072
622.415
604.313
583.448
559.724
538.446
526.266
527.69
542.927
566.811
200.707
184.187
157.892
146.274
144.158
146.197
143.562
137.804
134.33
131.172
125.524
116.06
103.532
90.0882
76.703
64.0259
52.8874
43.6483
37.4665
35.0133
36.495
41.8039
51.3684
5.40321
5.40786
5.43473
5.43269
5.41406
5.39196
5.37446
5.35728
5.33199
5.30306
5.27902
5.26317
5.25331
5.24683
5.24439
5.24717
5.25429
5.26171
5.26595
5.26442
5.2587
5.2469
5.22685
5.4134
5.414
5.41596
5.41583
5.41263
5.40852
5.40273
5.3939
5.3796
5.36196
5.34353
5.32558
5.30801
5.29096
5.27489
5.26044
5.24797
5.23723
5.22718
5.21705
5.20561
5.19286
5.17772
5.41818
5.42002
5.42272
5.41645
5.41049
5.40594
5.4156
5.45763
5.40434
5.35755
5.33802
5.32127
5.30532
5.29028
5.27629
5.26363
5.25244
5.2424
5.23226
5.2214
5.20931
5.19647
5.18212
5.42312
5.43118
5.44856
5.42718
5.41069
5.40948
5.52518
5.55396
5.52439
5.36467
5.33839
5.32233
5.30661
5.29209
5.27836
5.26599
5.25478
5.24434
5.23381
5.22256
5.21045
5.19783
5.18324
5.42779
5.45678
5.48287
5.46578
5.41122
5.42316
5.56605
5.56326
5.55154
5.45513
5.34884
5.33386
5.31635
5.30133
5.28641
5.27307
5.26083
5.24894
5.23686
5.22431
5.21123
5.19787
5.1825
5.43014
5.46263
5.48806
5.47946
5.41294
5.40558
5.45168
5.57181
5.56282
5.43765
5.35716
5.34434
5.33073
5.3158
5.29664
5.28305
5.26994
5.25671
5.2431
5.22904
5.2146
5.20021
5.18414
5.4333
5.44613
5.47652
5.44641
5.41697
5.41018
5.40124
5.40949
5.41894
5.37655
5.36291
5.35407
5.3412
5.3253
5.30709
5.29358
5.27992
5.26587
5.25131
5.23626
5.22092
5.2058
5.18934
5.43816
5.43671
5.43478
5.42836
5.42326
5.41692
5.40893
5.39942
5.38948
5.3796
5.36939
5.35947
5.34806
5.33222
5.31833
5.30475
5.29074
5.27615
5.26105
5.24548
5.22965
5.21421
5.19753
5.44447
5.44248
5.43905
5.4354
5.43096
5.42524
5.41804
5.40958
5.40032
5.39061
5.38038
5.36931
5.35701
5.34354
5.33008
5.31648
5.30236
5.28763
5.2723
5.25649
5.24048
5.22492
5.20828
5.45206
5.45012
5.44743
5.44409
5.43994
5.43455
5.42787
5.42003
5.41122
5.40171
5.3916
5.38082
5.36895
5.3559
5.34261
5.32909
5.31504
5.30035
5.28502
5.26919
5.2532
5.23772
5.22123
5.46026
5.4591
5.4568
5.45368
5.44969
5.44458
5.4383
5.43092
5.42255
5.41334
5.40338
5.39276
5.38123
5.36874
5.35589
5.34261
5.32877
5.31428
5.29911
5.28346
5.26765
5.25237
5.23619
5.46924
5.4685
5.46661
5.46376
5.46
5.45516
5.44922
5.44223
5.43429
5.42546
5.4158
5.40536
5.39417
5.38233
5.36995
5.35702
5.34351
5.32934
5.31448
5.29914
5.28364
5.26869
5.25285
5.47874
5.47831
5.47676
5.47422
5.4707
5.46615
5.46054
5.45394
5.4464
5.43799
5.42875
5.41872
5.40799
5.39664
5.38473
5.37225
5.35918
5.34544
5.33102
5.31611
5.30105
5.28652
5.27115
5.48875
5.48846
5.48722
5.48496
5.48171
5.47744
5.47218
5.46596
5.45884
5.45087
5.44211
5.43258
5.42238
5.41156
5.40017
5.38823
5.37569
5.3625
5.34863
5.33427
5.31977
5.30577
5.29094
5.49917
5.49901
5.49798
5.49597
5.49297
5.489
5.48409
5.47826
5.47157
5.46408
5.45582
5.44685
5.43721
5.42698
5.4162
5.40486
5.39295
5.3804
5.36718
5.3535
5.33966
5.3263
5.31218
5.50995
5.50983
5.50898
5.50721
5.50448
5.50082
5.49626
5.49083
5.48458
5.47757
5.46985
5.46146
5.45245
5.44286
5.43273
5.42208
5.41087
5.39904
5.38657
5.37365
5.36057
5.34795
5.33454
5.52103
5.52093
5.52023
5.51866
5.5162
5.51286
5.50867
5.50366
5.49787
5.49137
5.48419
5.47641
5.46803
5.45912
5.4497
5.43979
5.42935
5.41831
5.40667
5.39458
5.38234
5.37051
5.3579
5.53235
5.53228
5.53169
5.53033
5.52814
5.52513
5.52131
5.51673
5.51142
5.50544
5.49884
5.49167
5.48397
5.47576
5.46709
5.45795
5.44832
5.43813
5.42737
5.41617
5.40483
5.39388
5.38207
5.5439
5.54386
5.54338
5.54222
5.54028
5.53759
5.53416
5.53002
5.52521
5.51977
5.51377
5.50724
5.50022
5.49275
5.48485
5.47653
5.46774
5.45844
5.44859
5.43834
5.42793
5.41784
5.40711
5.55565
5.55564
5.55528
5.5543
5.55262
5.55025
5.5472
5.5435
5.53919
5.53431
5.52892
5.52305
5.51674
5.51002
5.50292
5.49543
5.48752
5.47913
5.47024
5.46096
5.45152
5.44238
5.43262
5.56756
5.5676
5.56736
5.56656
5.56513
5.56307
5.5604
5.55715
5.55335
5.54903
5.54425
5.53905
5.53345
5.5275
5.52121
5.51456
5.50754
5.50008
5.49216
5.48389
5.47545
5.46725
5.45852
5.57958
5.57971
5.57959
5.57897
5.57778
5.57604
5.57375
5.57094
5.56764
5.56388
5.55972
5.55518
5.5503
5.54511
5.53962
5.53382
5.52769
5.52117
5.51423
5.50696
5.49955
5.49235
5.4846
5.59171
5.59192
5.59192
5.59149
5.59055
5.58912
5.58721
5.58484
5.58204
5.57883
5.57527
5.57139
5.56721
5.56276
5.55806
5.55309
5.54783
5.54223
5.53627
5.53003
5.52365
5.51744
5.5108
5.60387
5.60419
5.60433
5.60409
5.6034
5.60229
5.60075
5.59881
5.5965
5.59383
5.59086
5.58761
5.58411
5.58037
5.57641
5.57224
5.56782
5.56312
5.55811
5.55286
5.5475
5.54229
5.53668
5.61605
5.61648
5.61677
5.61672
5.6163
5.61551
5.61434
5.61283
5.61099
5.60884
5.60643
5.60378
5.60091
5.59784
5.59458
5.59114
5.58751
5.58365
5.57954
5.57525
5.57086
5.56658
5.562
5.62819
5.62876
5.6292
5.62937
5.62921
5.62875
5.62796
5.62686
5.62547
5.62382
5.62194
5.61984
5.61755
5.61508
5.61245
5.60967
5.60675
5.60367
5.6004
5.59698
5.5935
5.59012
5.58645
5.64026
5.64098
5.6416
5.64198
5.64212
5.64199
5.64158
5.64089
5.63993
5.63874
5.63733
5.63573
5.63395
5.63201
5.62992
5.62772
5.62543
5.62304
5.62052
5.61791
5.61525
5.61268
5.60991
5.65223
5.65312
5.65392
5.65454
5.655
5.65524
5.65521
5.6549
5.65435
5.65358
5.6526
5.65143
5.65009
5.64858
5.64693
5.64521
5.64346
5.64166
5.63981
5.6379
5.63598
5.63414
5.63211
5.66407
5.66516
5.66616
5.66707
5.6679
5.66852
5.66887
5.66894
5.66875
5.66835
5.66774
5.66694
5.66595
5.66477
5.66344
5.6621
5.66079
5.65951
5.65823
5.65694
5.65566
5.65442
5.65305
5.67578
5.67713
5.67842
5.67972
5.68096
5.68197
5.68266
5.68304
5.68316
5.68308
5.68279
5.68231
5.6816
5.68064
5.6795
5.67843
5.67748
5.67663
5.67585
5.6751
5.67438
5.67369
5.6729
5.68739
5.68912
5.69101
5.69282
5.69446
5.69575
5.69667
5.69727
5.69762
5.6978
5.69781
5.69766
5.69731
5.6965
5.69538
5.69449
5.69384
5.69339
5.69301
5.69272
5.6925
5.69235
5.69231
5.69899
5.70125
5.70447
5.70693
5.70869
5.71001
5.71097
5.71165
5.71216
5.71254
5.71284
5.71314
5.71351
5.7124
5.71102
5.71024
5.70987
5.70971
5.70963
5.70967
5.70982
5.71007
5.71081
5.7161
5.71605
5.71941
5.7211
5.72213
5.72292
5.72351
5.72395
5.72431
5.72463
5.72495
5.7254
5.72633
5.72602
5.72441
5.72389
5.7238
5.72374
5.72361
5.72362
5.72372
5.72389
5.72446
1250.99
1380.26
1412.11
1430.05
1053.24
1057.01
1083.32
1105.24
829.258
791.706
793.261
896.138
682.033
677.991
678.094
694.318
728.852
735.098
744.157
745.284
739.449
740.401
741.098
741.836
737.858
739.016
740.078
741.096
590.634
606.269
620.427
634.694
63.0138
71.3783
79.1906
86.4891
5.20638
5.1917
5.1731
5.15144
5.15493
5.13452
5.11227
5.09389
5.16135
5.13911
5.11356
5.09222
5.15981
5.13538
5.10843
5.08728
5.15719
5.13158
5.10394
5.08297
5.15825
5.13208
5.10391
5.08278
5.16321
5.13675
5.10826
5.08685
5.17141
5.14486
5.11615
5.09458
5.18229
5.15581
5.12715
5.10553
5.19558
5.16935
5.14082
5.11931
5.21098
5.18515
5.15702
5.1357
5.22827
5.203
5.17533
5.15436
5.24723
5.22263
5.19571
5.1752
5.26791
5.24413
5.21798
5.19805
5.29014
5.26732
5.24217
5.22283
5.31368
5.29195
5.26781
5.2492
5.33818
5.31762
5.29482
5.27704
5.36368
5.3444
5.32288
5.30605
5.39011
5.37219
5.35202
5.3361
5.41714
5.40065
5.38186
5.36699
5.44446
5.42944
5.4123
5.39854
5.47211
5.45863
5.44302
5.43043
5.49987
5.48795
5.47403
5.46252
5.52739
5.51704
5.50463
5.49422
5.55418
5.54531
5.53455
5.52522
5.58009
5.57264
5.56331
5.55509
5.60485
5.59873
5.59089
5.58368
5.62826
5.62337
5.61679
5.61063
5.65015
5.64633
5.64105
5.63591
5.6709
5.66806
5.6639
5.65975
5.69131
5.68948
5.68642
5.68305
5.71169
5.71108
5.70903
5.70614
5.72575
5.7259
5.72517
5.72371
1205.62
1168.22
1239.01
1189.24
1129.08
1128.46
1193.22
1117.44
1144.01
1148.5
1150.24
1146.58
1041.22
1141.85
1144.22
1139.11
1137.68
1099.55
1077.91
1124.1
1136.06
1233.22
1137.3
1058.14
1127.82
1061.01
1042.13
1122.1
1140.53
1148.88
1154.7
1163.09
1151.24
1116.38
1062.44
1019.82
1033.89
1078.26
965.491
949.258
948.637
979.468
1015.17
887.531
876.632
919.676
890.959
885.36
893.201
926.674
974.579
926.918
865.233
836.275
857.48
900.669
943.779
707.033
698.715
701.163
757.593
770.338
704.806
706.631
707.9
739.373
773.066
774.807
776.574
778.559
780.81
784.111
787.024
792.96
822.776
829.438
746.237
743.258
745.248
750.567
755.146
753.578
716.278
721.69
762.36
773.169
775.325
777.363
779.47
781.409
783.532
785.331
785.632
784.59
783.332
743.184
746.237
749.064
752.126
756.355
761.828
766.77
770.018
771.799
773.776
775.985
778.079
780.079
781.89
783.558
784.753
784.961
784.071
783.78
742.811
746.009
749.251
752.721
756.827
761.497
765.824
769.289
772.01
774.516
776.905
779.067
781.014
782.667
783.933
784.886
785.466
785.344
784.248
655.572
688.068
712.789
732.511
750.985
761.126
765.19
768.838
772.043
774.986
777.696
780.112
782.196
783.791
786.395
803.915
824.855
825.167
802.364
98.3808
123.413
151.936
184.138
222.819
274.789
326.442
367.801
400.793
432.43
465.338
498.409
530.549
556.545
565.333
559.225
532.645
514.668
521.286
5.11736
5.09096
5.0831
5.09304
5.10764
5.10131
5.08099
5.53319
7.03065
9.79916
14.8587
22.4839
31.2315
40.0968
56.2909
63.9585
63.175
53.8788
43.3905
5.07648
5.06532
5.06186
5.23666
5.47665
5.62876
5.60074
5.27145
5.2057
5.27819
5.63768
6.19794
6.58436
8.08627
7.91921
4.97795
4.97481
5.00326
5.60279
5.07144
5.06104
5.05265
5.33448
5.8209
5.82333
5.81534
5.19638
5.06945
5.13148
5.5513
5.8685
5.92135
5.79107
5.00389
4.98711
4.9907
4.9971
5.0051
5.06764
5.05702
5.04614
5.03198
5.01593
5.06202
5.01094
5.01347
5.00577
5.00783
5.23139
5.5612
5.45057
5.16708
4.98707
4.98996
4.99514
5.00088
5.00701
5.06463
5.05477
5.04439
5.03252
5.02095
5.01199
5.00811
5.00729
5.0055
5.00575
5.00139
5.00483
4.98843
4.98948
4.99403
4.99845
5.00334
5.00865
5.01233
5.06468
5.05558
5.04614
5.03587
5.02622
5.01871
5.01401
5.01177
5.00987
5.00717
5.00288
4.99967
4.99944
5.00129
5.00513
5.00967
5.01459
5.01894
5.02131
5.06866
5.06004
5.05134
5.04215
5.03373
5.02699
5.02228
5.01934
5.01704
5.01483
5.01261
5.01123
5.01194
5.01426
5.01807
5.02254
5.02702
5.0306
5.03188
5.07631
5.06798
5.05978
5.05129
5.04362
5.03739
5.03277
5.02957
5.02724
5.02548
5.02431
5.02412
5.02544
5.02811
5.03187
5.0361
5.04021
5.04316
5.04373
5.08722
5.0791
5.07123
5.06317
5.05593
5.04997
5.04543
5.04215
5.03987
5.03842
5.03782
5.03828
5.03999
5.0428
5.04645
5.05045
5.05417
5.05664
5.05685
5.1011
5.09311
5.08546
5.07767
5.07068
5.06486
5.06034
5.05702
5.05476
5.05345
5.05311
5.05382
5.05564
5.05842
5.06188
5.06557
5.06892
5.07106
5.07115
5.11759
5.10974
5.10224
5.09461
5.08774
5.08198
5.07742
5.07401
5.07168
5.07037
5.07006
5.07079
5.07252
5.07511
5.07828
5.08165
5.08464
5.08654
5.08672
5.13655
5.12878
5.12139
5.11384
5.107
5.10121
5.09655
5.093
5.09052
5.08908
5.08864
5.08922
5.09073
5.09304
5.09589
5.09892
5.10165
5.10346
5.10384
5.15771
5.15007
5.14274
5.13523
5.12837
5.12248
5.11768
5.11394
5.11124
5.10956
5.1089
5.1092
5.11042
5.1124
5.11491
5.11766
5.12021
5.122
5.1226
5.181
5.17343
5.16615
5.15864
5.15173
5.14572
5.14073
5.13675
5.13379
5.13182
5.13084
5.13082
5.13169
5.13331
5.13549
5.13797
5.14038
5.14221
5.14298
5.20616
5.19868
5.19145
5.18394
5.17696
5.17081
5.16561
5.16138
5.15811
5.15582
5.15448
5.15409
5.15457
5.15582
5.15767
5.1599
5.16216
5.16402
5.16488
5.23306
5.22564
5.21846
5.21096
5.20391
5.19762
5.19221
5.18771
5.18413
5.18148
5.17976
5.17897
5.17905
5.17991
5.18142
5.18337
5.18546
5.1873
5.18824
5.26143
5.25409
5.247
5.23953
5.23242
5.226
5.22038
5.21561
5.21171
5.20869
5.20659
5.20538
5.20504
5.2055
5.20664
5.20829
5.21018
5.21195
5.21288
5.29116
5.28386
5.27687
5.26946
5.26231
5.25576
5.24995
5.24492
5.2407
5.23732
5.23481
5.23318
5.23241
5.23245
5.2332
5.23451
5.23617
5.23783
5.23872
5.32189
5.31487
5.30794
5.30055
5.29339
5.28674
5.28076
5.27548
5.27095
5.26722
5.26431
5.26225
5.26103
5.26062
5.26095
5.26189
5.26328
5.26477
5.26561
5.35362
5.34679
5.33996
5.33265
5.32548
5.31876
5.31262
5.30712
5.3023
5.29821
5.29491
5.29241
5.29074
5.28987
5.28976
5.29029
5.29135
5.29263
5.29337
5.38597
5.37937
5.37267
5.36546
5.35833
5.35156
5.34529
5.3396
5.33451
5.3301
5.32641
5.32348
5.32135
5.32
5.3194
5.31949
5.32018
5.32119
5.32183
5.41876
5.41232
5.40577
5.39868
5.39162
5.38485
5.37851
5.37266
5.36735
5.36263
5.35857
5.35522
5.35261
5.35077
5.34967
5.34929
5.34957
5.35023
5.35081
5.45155
5.44531
5.43892
5.432
5.42506
5.41834
5.41198
5.40602
5.40053
5.39556
5.39116
5.38739
5.38431
5.38196
5.38034
5.37948
5.37932
5.37965
5.38014
5.48407
5.47797
5.47178
5.46508
5.45832
5.45173
5.44542
5.43944
5.43383
5.42865
5.42395
5.41978
5.41623
5.41336
5.41122
5.40985
5.40925
5.40926
5.40966
5.51582
5.50997
5.50402
5.49761
5.49112
5.48474
5.47858
5.47266
5.46703
5.46171
5.45675
5.45222
5.4482
5.44481
5.44212
5.44024
5.4392
5.43894
5.43924
5.54657
5.54098
5.53536
5.52933
5.52321
5.51717
5.51127
5.50553
5.49997
5.4946
5.48946
5.4846
5.48013
5.47618
5.47292
5.47051
5.46905
5.46854
5.46877
5.57594
5.57074
5.56556
5.56002
5.55441
5.54883
5.54334
5.53791
5.53256
5.52726
5.52202
5.5169
5.51198
5.50746
5.50358
5.5006
5.49873
5.498
5.49823
5.60381
5.59908
5.59444
5.58954
5.58458
5.57964
5.57471
5.56977
5.56477
5.55969
5.55451
5.54921
5.5439
5.53878
5.53419
5.53057
5.52827
5.52737
5.52763
5.63005
5.62593
5.62194
5.61782
5.61369
5.60959
5.60542
5.60113
5.59668
5.59201
5.58707
5.58178
5.57616
5.57044
5.56504
5.56068
5.55787
5.55675
5.55708
5.65491
5.65137
5.6481
5.64491
5.64184
5.63878
5.63554
5.63208
5.62838
5.62437
5.61996
5.61497
5.60928
5.60306
5.59677
5.59151
5.58801
5.5865
5.58676
5.67887
5.67577
5.67322
5.67099
5.6692
5.66732
5.66516
5.6627
5.65997
5.65693
5.65343
5.64922
5.64401
5.63775
5.63043
5.62431
5.61982
5.6172
5.61679
5.70162
5.6988
5.69697
5.69551
5.69584
5.6953
5.69431
5.69299
5.69145
5.68968
5.68756
5.68483
5.68099
5.67575
5.66667
5.66029
5.6547
5.64949
5.6471
5.72083
5.71942
5.71856
5.71752
5.71845
5.71868
5.71857
5.71826
5.71788
5.7174
5.7168
5.71595
5.71454
5.71242
5.70713
5.70361
5.69989
5.69343
5.69092
)
;

boundaryField
{
    leftWall
    {
        type            fixedFluxPressure;
        gradient        uniform 0;
        value           nonuniform List<scalar> 
50
(
5492.17
5493.13
5491.89
5487.3
5478.01
4374.12
1424.09
1219.51
1216.21
1211.14
1143.01
1033.48
716.161
746.062
751.325
705.153
200.707
5.40321
5.4134
5.41818
5.42312
5.42779
5.43014
5.4333
5.43816
5.44447
5.45206
5.46026
5.46924
5.47874
5.48875
5.49917
5.50995
5.52103
5.53235
5.5439
5.55565
5.56756
5.57958
5.59171
5.60387
5.61605
5.62819
5.64026
5.65223
5.66407
5.67578
5.68739
5.69899
5.7161
)
;
    }
    rightWall
    {
        type            fixedFluxPressure;
        gradient        uniform 0;
        value           nonuniform List<scalar> 
50
(
2675.31
2674.72
2288.1
1617.75
1001.43
1019.07
1040.56
1052.62
1077.91
1078.26
943.779
829.438
783.332
783.78
784.248
802.364
521.286
43.3905
5.60279
5.0051
5.00701
5.01233
5.02131
5.03188
5.04373
5.05685
5.07115
5.08672
5.10384
5.1226
5.14298
5.16488
5.18824
5.21288
5.23872
5.26561
5.29337
5.32183
5.35081
5.38014
5.40966
5.43924
5.46877
5.49823
5.52763
5.55708
5.58676
5.61679
5.6471
5.69092
)
;
    }
    lowerWall
    {
        type            fixedFluxPressure;
        gradient        uniform 0;
        value           nonuniform List<scalar> 
62
(
5492.17
5487.73
5495.19
5516.39
5550.3
5595.66
5650.47
5712.18
5777.97
5844.96
5910.52
5972.83
6030.6
6082.76
6127.89
6165.34
6194.48
6214.64
6224.94
6224.25
6212.1
6190.31
6164.42
6164.42
6155.05
6144.18
6131.41
6116.67
6100.99
4736.82
1345.72
1250.99
1380.26
1412.11
1430.05
3346.68
3365.38
3016.09
2812.09
1748.56
1385.03
1406.14
1299.31
3346.68
3244.14
3119.39
2995.83
2868.51
2744.57
2709.87
2694.19
2696.01
2698.74
2666.7
2640.95
2685.41
2718.25
2712.11
2702.74
2687.25
2678.13
2675.31
)
;
    }
    atmosphere
    {
        type            prghTotalPressure;
        rho             rho;
        psi             none;
        gamma           1;
        p0              uniform 0;
        value           nonuniform List<scalar> 
46
(
5.72904
5.72904
5.72904
5.72904
5.72904
5.72904
5.72904
5.72904
5.72904
5.72904
5.72904
5.72904
5.72904
5.72904
5.72904
5.72904
5.72904
5.72904
5.72904
5.72904
5.72904
5.72904
5.72904
5.72904
5.72904
5.72904
5.72904
5.72904
5.72904
5.72904
5.72904
5.72904
5.72904
5.72904
5.72904
5.72904
5.72904
5.72904
5.72904
5.72904
5.72904
5.72904
5.72904
5.72904
5.72899
5.72898
)
;
        rho             rho;
    }
    defaultFaces
    {
        type            empty;
    }
}


// ************************************************************************* //
