/*--------------------------------*- C++ -*----------------------------------*\
  =========                 |
  \\      /  F ield         | OpenFOAM: The Open Source CFD Toolbox
   \\    /   O peration     | Website:  https://openfoam.org
    \\  /    A nd           | Version:  13
     \\/     M anipulation  |
\*---------------------------------------------------------------------------*/
FoamFile
{
    format      ascii;
    class       surfaceScalarField;
    location    "2.8";
    object      phi;
}
// * * * * * * * * * * * * * * * * * * * * * * * * * * * * * * * * * * * * * //

dimensions      [0 3 -1 0 0 0 0];

internalField   nonuniform List<scalar> 
4432
(
-1.20364e-06
1.20365e-06
-2.2196e-06
1.01595e-06
-3.20866e-06
9.89057e-07
-4.16873e-06
9.6006e-07
-5.07733e-06
9.08601e-07
-5.90186e-06
8.24518e-07
-6.62026e-06
7.18397e-07
-7.23121e-06
6.10949e-07
-7.73538e-06
5.04175e-07
-8.12303e-06
3.87655e-07
-8.38852e-06
2.65496e-07
-8.53282e-06
1.44303e-07
-8.54972e-06
1.68978e-08
-8.42366e-06
-1.26047e-07
-8.13919e-06
-2.84471e-07
-7.68065e-06
-4.58534e-07
-7.03559e-06
-6.45058e-07
-6.19998e-06
-8.35606e-07
-5.17345e-06
-1.02652e-06
-3.97172e-06
-1.20172e-06
-2.65591e-06
-1.31581e-06
-1.39724e-06
-1.25866e-06
-1.39723e-06
-1.08808e-06
2.29178e-06
-2.07341e-06
2.0013e-06
-3.08673e-06
2.00238e-06
-4.07591e-06
1.94925e-06
-5.00121e-06
1.8339e-06
-5.83607e-06
1.65937e-06
-6.56396e-06
1.44629e-06
-7.18004e-06
1.22703e-06
-7.6802e-06
1.00434e-06
-8.05716e-06
7.64621e-07
-8.30895e-06
5.17293e-07
-8.43525e-06
2.70606e-07
-8.42358e-06
5.23069e-09
-8.25694e-06
-2.92695e-07
-7.92246e-06
-6.18962e-07
-7.4103e-06
-9.70703e-07
-6.71853e-06
-1.33685e-06
-5.85162e-06
-1.70254e-06
-4.82239e-06
-2.05578e-06
-3.66709e-06
-2.35705e-06
-2.46033e-06
-2.5226e-06
-1.27805e-06
-2.44096e-06
-2.67533e-06
-1.04957e-06
3.34135e-06
-2.05129e-06
3.00302e-06
-3.05727e-06
3.00836e-06
-4.02924e-06
2.92122e-06
-4.9348e-06
2.73945e-06
-5.75142e-06
2.47599e-06
-6.46321e-06
2.15808e-06
-7.06249e-06
1.82631e-06
-7.542e-06
1.48385e-06
-7.89436e-06
1.11699e-06
-8.12072e-06
7.43649e-07
-8.21833e-06
3.68222e-07
-8.17296e-06
-4.01372e-08
-7.96823e-06
-4.97421e-07
-7.59577e-06
-9.9142e-07
-7.05344e-06
-1.51303e-06
-6.34678e-06
-2.0435e-06
-5.48721e-06
-2.56211e-06
-4.49402e-06
-3.04897e-06
-3.40593e-06
-3.44514e-06
-2.28499e-06
-3.64354e-06
-1.16908e-06
-3.55687e-06
-3.84439e-06
-1.01998e-06
4.36134e-06
-2.06157e-06
4.04461e-06
-3.05503e-06
4.00182e-06
-3.99686e-06
3.86304e-06
-4.87065e-06
3.61323e-06
-5.65867e-06
3.26399e-06
-6.34493e-06
2.84433e-06
-6.9191e-06
2.40048e-06
-7.37186e-06
1.9366e-06
-7.69528e-06
1.44041e-06
-7.89057e-06
9.38934e-07
-7.95579e-06
4.33448e-07
-7.87462e-06
-1.21317e-07
-7.63231e-06
-7.39728e-07
-7.22653e-06
-1.3972e-06
-6.6616e-06
-2.07796e-06
-5.94878e-06
-2.75632e-06
-5.1036e-06
-3.4073e-06
-4.14737e-06
-4.0052e-06
-3.11568e-06
-4.47683e-06
-2.05493e-06
-4.70428e-06
-9.92549e-07
-4.61926e-06
-4.83696e-06
-1.00027e-06
5.36159e-06
-2.07695e-06
5.12125e-06
-3.04752e-06
4.97235e-06
-3.94763e-06
4.7631e-06
-4.77887e-06
4.44443e-06
-5.52934e-06
4.01443e-06
-6.18406e-06
3.49902e-06
-6.72967e-06
2.94608e-06
-7.15308e-06
2.36e-06
-7.44679e-06
1.73411e-06
-7.6151e-06
1.10724e-06
-7.65e-06
4.68357e-07
-7.53232e-06
-2.38998e-07
-7.25372e-06
-1.01832e-06
-6.8183e-06
-1.83262e-06
-6.23576e-06
-2.6605e-06
-5.52122e-06
-3.47086e-06
-4.69229e-06
-4.23622e-06
-3.77102e-06
-4.92645e-06
-2.78973e-06
-5.45811e-06
-1.786e-06
-5.70801e-06
-7.91592e-07
-5.61366e-06
-5.62854e-06
-1.13758e-06
6.49916e-06
-2.12901e-06
6.11263e-06
-3.03027e-06
5.87355e-06
-3.86466e-06
5.59742e-06
-4.63209e-06
5.2118e-06
-5.329e-06
4.71128e-06
-5.94763e-06
4.11759e-06
-6.46582e-06
3.46421e-06
-6.85922e-06
2.75335e-06
-7.13418e-06
2.00903e-06
-7.28267e-06
1.25569e-06
-7.28377e-06
4.69446e-07
-7.13253e-06
-3.90252e-07
-6.82278e-06
-1.32806e-06
-6.36587e-06
-2.28952e-06
-5.77465e-06
-3.25169e-06
-5.06576e-06
-4.17972e-06
-4.25679e-06
-5.04515e-06
-3.37016e-06
-5.81305e-06
-2.43856e-06
-6.38966e-06
-1.49533e-06
-6.65119e-06
-5.87292e-07
-6.52165e-06
-6.21579e-06
-1.32338e-06
7.82247e-06
-2.13975e-06
6.92892e-06
-2.92739e-06
6.66109e-06
-3.65726e-06
6.32719e-06
-4.32893e-06
5.88336e-06
-4.95329e-06
5.33553e-06
-5.53308e-06
4.69728e-06
-6.02485e-06
3.9559e-06
-6.38462e-06
3.11304e-06
-6.64558e-06
2.26994e-06
-6.78218e-06
1.39225e-06
-6.76441e-06
4.51658e-07
-6.59147e-06
-5.63204e-07
-6.27099e-06
-1.64853e-06
-5.81505e-06
-2.74543e-06
-5.23262e-06
-3.83407e-06
-4.54529e-06
-4.86699e-06
-3.76932e-06
-5.82104e-06
-2.93172e-06
-6.65056e-06
-2.07893e-06
-7.24235e-06
-1.24455e-06
-7.48547e-06
-5.11584e-07
-7.25451e-06
-6.72728e-06
-1.03045e-06
8.85294e-06
-1.78537e-06
7.68385e-06
-2.28679e-06
7.16251e-06
-2.71988e-06
6.76026e-06
-3.13593e-06
6.29938e-06
-3.56452e-06
5.76409e-06
-4.02728e-06
5.16001e-06
-4.5089e-06
4.43748e-06
-4.97045e-06
3.57457e-06
-5.35041e-06
2.64987e-06
-5.60961e-06
1.65143e-06
-5.71652e-06
5.58554e-07
-5.62517e-06
-6.54547e-07
-5.36118e-06
-1.9125e-06
-4.94787e-06
-3.1587e-06
-4.40149e-06
-4.38039e-06
-3.75751e-06
-5.51088e-06
-3.03203e-06
-6.54642e-06
-2.2591e-06
-7.42337e-06
-1.49457e-06
-8.00677e-06
-7.95929e-07
-8.18399e-06
-3.83539e-07
-7.6668e-06
-7.11077e-06
-9.15598e-07
9.15588e-07
-2.23115e-06
1.31555e-06
-3.56061e-06
1.32946e-06
-4.07612e-06
5.15508e-07
-3.36663e-06
-7.0949e-07
-3.57231e-06
2.05686e-07
-3.3245e-06
-2.47809e-07
-2.85192e-06
-4.72588e-07
-2.29586e-06
-5.56054e-07
-1.00971e-06
-1.28616e-06
-7.22873e-07
-2.86833e-07
-2.04422e-06
1.32134e-06
-1.50795e-06
-5.36268e-07
-6.97819e-07
-8.1013e-07
-3.20073e-07
-3.77746e-07
8.75163e-09
-3.28826e-07
1.33072e-07
-1.24321e-07
2.80118e-07
-1.47048e-07
2.80116e-07
-4.56436e-07
1.37201e-06
-1.22551e-06
2.08461e-06
-2.32028e-06
2.4242e-06
-3.21316e-06
1.40838e-06
-3.57551e-06
-3.47148e-07
-3.03133e-06
-3.38497e-07
-2.63124e-06
-6.47903e-07
-2.1237e-06
-9.80125e-07
-1.91005e-06
-7.69699e-07
-1.76328e-06
-1.43292e-06
-1.42413e-06
-6.25979e-07
-6.5282e-07
5.50026e-07
-3.65314e-07
-8.23772e-07
-4.06157e-07
-7.69285e-07
-2.63793e-07
-5.20107e-07
-1.50781e-07
-4.41834e-07
-1.62269e-07
-1.12831e-07
-2.90419e-07
-1.88966e-08
-1.03023e-08
3.98904e-07
9.731e-07
-1.80276e-07
2.66378e-06
-1.16288e-06
3.4068e-06
-1.4457e-06
1.6912e-06
-1.97086e-06
1.78015e-07
-2.10316e-06
-2.06195e-07
-1.79309e-06
-9.57957e-07
-1.4233e-06
-1.3499e-06
-9.03857e-07
-1.28914e-06
-1.46892e-06
-8.67861e-07
-1.20499e-06
-8.89903e-07
-2.03422e-07
-4.51533e-07
-1.25478e-08
-1.01464e-06
-2.15474e-07
-5.66356e-07
-2.18488e-07
-5.17089e-07
-3.26036e-07
-3.34287e-07
-3.51869e-07
-8.6999e-08
-5.76536e-07
2.05767e-07
-5.86845e-07
2.33312e-08
9.49722e-07
-5.85537e-07
3.2726e-06
-7.47835e-07
3.56907e-06
3.05161e-07
6.38182e-07
2.14877e-07
2.68278e-07
-6.00101e-07
6.08767e-07
-3.97666e-07
-1.1604e-06
1.05e-07
-1.85257e-06
9.48539e-07
-2.13268e-06
6.54761e-08
1.52e-08
-9.73724e-09
-8.14693e-07
2.62595e-07
-7.23866e-07
4.1929e-08
-7.93973e-07
-4.72275e-07
-5.21474e-08
-4.64492e-07
-5.2487e-07
-2.41242e-07
-5.57533e-07
3.14656e-07
-6.42893e-07
1.19285e-06
-6.72427e-07
6.06019e-07
-1.40836e-06
2.35808e-06
-1.66245e-06
3.52669e-06
-5.99021e-07
2.50565e-06
4.33842e-07
-3.94664e-07
1.25352e-06
-5.51391e-07
1.20931e-06
6.52987e-07
1.65155e-06
-1.60264e-06
2.62206e-06
-2.82308e-06
2.84976e-06
-2.36038e-06
2.84384e-06
2.11238e-08
2.34192e-06
-3.1277e-07
1.8023e-06
-1.84259e-07
-8.35023e-07
1.84335e-06
-2.13635e-06
1.24917e-06
-1.16522e-06
-1.49601e-06
8.30756e-07
-2.55352e-06
2.98163e-06
-2.79378e-06
6.45108e-06
-4.14189e-06
7.05707e-06
-1.45982e-06
3.81784e-06
-6.1199e-07
2.67883e-06
3.82288e-07
1.51136e-06
5.12802e-07
-5.25188e-07
9.18905e-07
-9.57508e-07
1.75273e-06
-1.80861e-07
2.43778e-06
-2.28771e-06
3.21036e-06
-3.59567e-06
3.01396e-06
-2.164e-06
3.05305e-06
-1.79933e-08
3.48574e-06
-7.45475e-07
4.01206e-06
-7.10583e-07
-2.01825e-06
7.87361e-06
-2.68425e-06
1.91515e-06
-5.25668e-07
-3.6546e-06
1.56425e-06
-4.64344e-06
3.92985e-06
-5.15938e-06
5.56454e-06
-5.77657e-06
1.26216e-05
7.37861e-07
3.07995e-06
9.79124e-07
2.43756e-06
1.91411e-06
5.76357e-07
1.6105e-06
-2.21592e-07
9.96988e-07
-3.44009e-07
1.88228e-06
-1.06616e-06
2.65956e-06
-3.06501e-06
2.70317e-06
-3.6393e-06
2.0974e-06
-1.55823e-06
2.18211e-06
-1.02722e-07
2.49374e-06
-1.05711e-06
2.79041e-06
-1.00728e-06
-1.00458e-06
1.16686e-05
-1.00941e-06
1.91997e-06
3.52945e-07
-5.01697e-06
1.89525e-06
-6.18575e-06
3.38855e-06
-6.65269e-06
3.73047e-06
-6.11848e-06
1.63521e-05
2.56898e-06
5.10964e-07
2.53357e-06
2.47295e-06
3.44199e-06
-3.32072e-07
2.9786e-06
2.41779e-07
1.81487e-06
8.19716e-07
2.05475e-06
-1.30605e-06
2.4084e-06
-3.41866e-06
1.57412e-06
-2.80503e-06
9.92933e-07
-9.77054e-07
9.98365e-07
-1.08162e-07
1.08149e-06
-1.14024e-06
5.10745e-07
-4.36542e-07
2.50217e-07
1.19291e-05
6.50599e-07
1.51958e-06
1.16821e-06
-5.53458e-06
1.86825e-06
-6.88579e-06
2.39894e-06
-7.18338e-06
1.71388e-06
-5.43342e-06
1.8066e-05
-1.45172e-06
1.03048e-05
-2.31295e-06
8.54524e-06
-2.52689e-06
7.37661e-06
-2.4957e-06
6.72923e-06
-2.35189e-06
6.15572e-06
-2.16863e-06
5.58094e-06
-2.05677e-06
5.04825e-06
-2.08152e-06
4.4623e-06
-2.21718e-06
3.71029e-06
-2.38303e-06
2.81575e-06
-2.54627e-06
1.81468e-06
-2.67551e-06
6.87814e-07
-2.72411e-06
-6.0594e-07
-2.68128e-06
-1.95531e-06
-2.45495e-06
-3.385e-06
-2.00232e-06
-4.83296e-06
-1.28656e-06
-6.22659e-06
-3.49203e-07
-7.4837e-06
7.16557e-07
-8.48906e-06
1.81147e-06
-9.1016e-06
2.69363e-06
-9.06608e-06
2.91174e-06
-7.88487e-06
-4.78432e-06
5.85341e-07
-1.48583e-06
1.17906e-05
-1.29178e-06
8.35123e-06
-6.76923e-07
6.76182e-06
-1.5666e-08
6.06804e-06
7.69551e-07
5.37058e-06
1.65878e-06
4.69179e-06
2.49165e-06
4.21547e-06
3.17948e-06
3.77453e-06
3.74615e-06
3.14369e-06
4.24675e-06
2.3152e-06
4.72333e-06
1.33814e-06
5.18018e-06
2.30976e-07
5.58554e-06
-1.0113e-06
5.9747e-06
-2.3445e-06
6.37152e-06
-3.78186e-06
6.82385e-06
-5.28537e-06
7.33845e-06
-6.74128e-06
7.90346e-06
-8.04883e-06
8.41919e-06
-9.00492e-06
8.8326e-06
-9.51516e-06
9.15083e-06
-9.38444e-06
9.3789e-06
-8.11306e-06
-5.26635e-06
9.86084e-06
3.67443e-07
1.14232e-05
4.67638e-07
8.25105e-06
9.96477e-07
6.233e-06
1.7033e-06
5.36124e-06
2.62145e-06
4.45247e-06
3.78329e-06
3.52998e-06
4.88817e-06
3.11061e-06
5.85368e-06
2.80905e-06
6.76463e-06
2.23276e-06
7.63572e-06
1.44413e-06
8.44825e-06
5.25629e-07
9.20758e-06
-5.28352e-07
9.88538e-06
-1.68911e-06
1.04273e-05
-2.88642e-06
1.08649e-05
-4.21956e-06
1.12142e-05
-5.63469e-06
1.14576e-05
-6.98474e-06
1.14859e-05
-8.07719e-06
1.12632e-05
-8.78233e-06
1.07691e-05
-9.02114e-06
1.0024e-05
-8.63946e-06
9.20043e-06
-7.28962e-06
-4.32558e-06
8.2596e-06
1.42683e-06
9.99634e-06
2.23892e-06
7.43894e-06
2.82215e-06
5.64975e-06
3.58536e-06
4.59802e-06
4.44858e-06
3.58925e-06
5.23096e-06
2.74759e-06
6.15571e-06
2.18587e-06
7.20335e-06
1.76141e-06
8.23755e-06
1.19856e-06
9.22799e-06
4.53691e-07
1.01368e-05
-3.83181e-07
1.09376e-05
-1.32915e-06
1.16885e-05
-2.43999e-06
1.23148e-05
-3.51278e-06
1.26631e-05
-4.56784e-06
1.26431e-05
-5.61471e-06
1.23177e-05
-6.65939e-06
1.17604e-05
-7.51986e-06
1.08486e-05
-7.87059e-06
9.52279e-06
-7.69541e-06
7.86885e-06
-6.9856e-06
6.16667e-06
-5.58743e-06
-3.17886e-06
5.01988e-06
1.01594e-06
8.98038e-06
2.96004e-06
5.49482e-06
4.07064e-06
4.53915e-06
4.98985e-06
3.6788e-06
5.66681e-06
2.91228e-06
5.98207e-06
2.43233e-06
6.62316e-06
1.54476e-06
7.67536e-06
7.09197e-07
8.76731e-06
1.06594e-07
9.76903e-06
-5.48043e-07
1.06999e-05
-1.31405e-06
1.15142e-05
-2.14347e-06
1.22294e-05
-3.15523e-06
1.27452e-05
-4.02856e-06
1.28873e-05
-4.71003e-06
1.25031e-05
-5.23055e-06
1.16821e-05
-5.83842e-06
1.06863e-05
-6.52409e-06
9.41627e-06
-6.60058e-06
7.82348e-06
-6.10266e-06
6.01697e-06
-5.17911e-06
4.23211e-06
-3.80267e-06
-1.88241e-06
2.93564e-06
2.49526e-06
6.48512e-06
3.04163e-06
4.94846e-06
3.54742e-06
4.03338e-06
4.04415e-06
3.18206e-06
4.47927e-06
2.47716e-06
5.10007e-06
1.81152e-06
5.93713e-06
7.07674e-07
6.94667e-06
-3.00358e-07
8.07991e-06
-1.02668e-06
9.20127e-06
-1.66943e-06
1.0276e-05
-2.38883e-06
1.12823e-05
-3.14982e-06
1.20199e-05
-3.89283e-06
1.24435e-05
-4.45218e-06
1.25452e-05
-4.81172e-06
1.23369e-05
-5.02231e-06
1.16964e-05
-5.19794e-06
1.04555e-05
-5.28328e-06
8.82941e-06
-4.97453e-06
6.95827e-06
-4.23157e-06
4.96515e-06
-3.18606e-06
3.0807e-06
-1.91822e-06
-5.34087e-07
1.73233e-06
1.78761e-06
4.69752e-06
2.12638e-06
4.60969e-06
2.30888e-06
3.85087e-06
2.57828e-06
2.91264e-06
3.1141e-06
1.94133e-06
4.02848e-06
8.97135e-07
4.99009e-06
-2.53937e-07
6.05342e-06
-1.36369e-06
7.2577e-06
-2.23095e-06
8.54195e-06
-2.95367e-06
9.78162e-06
-3.6285e-06
1.08797e-05
-4.24785e-06
1.17296e-05
-4.74277e-06
1.22276e-05
-4.95015e-06
1.24145e-05
-4.99863e-06
1.22337e-05
-4.84152e-06
1.15733e-05
-4.53757e-06
1.03292e-05
-4.03914e-06
8.58424e-06
-3.2296e-06
6.5188e-06
-2.16615e-06
4.33934e-06
-1.00662e-06
2.33103e-06
9.00431e-08
1.04779e-06
7.49112e-07
1.16985e-06
3.52761e-06
1.58414e-06
4.19523e-06
1.51709e-06
3.91776e-06
1.69834e-06
2.7313e-06
2.31828e-06
1.32136e-06
3.22964e-06
-1.421e-08
4.31053e-06
-1.33476e-06
5.47402e-06
-2.52708e-06
6.74902e-06
-3.50582e-06
8.09722e-06
-4.30173e-06
9.41689e-06
-4.94801e-06
1.05852e-05
-5.41595e-06
1.14862e-05
-5.64364e-06
1.21e-05
-5.56376e-06
1.23539e-05
-5.25244e-06
1.21925e-05
-4.68e-06
1.15147e-05
-3.85963e-06
1.02188e-05
-2.74313e-06
8.3489e-06
-1.35964e-06
6.1298e-06
5.29531e-08
3.81794e-06
1.30521e-06
1.67943e-06
2.22851e-06
2.74869e-06
-2.15535e-08
2.90089e-06
6.26487e-07
2.83582e-06
4.25998e-06
2.11156e-06
4.64175e-06
1.98826e-06
2.85442e-06
2.43295e-06
8.76619e-07
3.42909e-06
-1.01031e-06
4.56704e-06
-2.47262e-06
5.69178e-06
-3.65167e-06
6.94174e-06
-4.75558e-06
8.30213e-06
-5.6619e-06
9.6496e-06
-6.29521e-06
1.08277e-05
-6.59379e-06
1.17147e-05
-6.53035e-06
1.22696e-05
-6.11825e-06
1.24343e-05
-5.41677e-06
1.21213e-05
-4.36665e-06
1.12288e-05
-2.96674e-06
9.65945e-06
-1.17344e-06
7.5435e-06
7.56522e-07
5.12946e-06
2.46707e-06
2.76173e-06
3.67289e-06
7.14166e-07
4.27586e-06
4.22717e-06
-7.64534e-07
-5.68602e-07
1.19482e-06
1.48675e-06
2.20422e-06
2.67566e-06
3.45243e-06
3.02138e-06
2.50854e-06
3.45211e-06
4.45871e-07
4.17156e-06
-1.72964e-06
5.16406e-06
-3.46491e-06
6.32811e-06
-4.8154e-06
7.52912e-06
-5.95621e-06
8.72578e-06
-6.85809e-06
9.84318e-06
-7.4121e-06
1.07561e-05
-7.50609e-06
1.13732e-05
-7.14694e-06
1.16211e-05
-6.36547e-06
1.13979e-05
-5.19296e-06
1.06155e-05
-3.58368e-06
9.25662e-06
-1.60732e-06
7.45034e-06
6.33235e-07
5.54359e-06
2.66349e-06
3.7452e-06
4.26553e-06
2.18396e-06
5.23405e-06
9.39052e-07
5.52054e-06
5.04451e-06
1.21265e-07
-9.37419e-07
2.13241e-06
-1.64094e-06
2.90796e-06
-1.28676e-06
3.09841e-06
-7.80564e-07
2.00247e-06
-3.21661e-07
-1.29371e-08
2.40516e-07
-2.29172e-06
1.22177e-06
-4.44607e-06
2.52014e-06
-6.11366e-06
3.55961e-06
-6.99555e-06
4.12607e-06
-7.4244e-06
4.36205e-06
-7.64791e-06
4.37822e-06
-7.52208e-06
4.19863e-06
-6.96718e-06
3.80655e-06
-5.97327e-06
3.163e-06
-4.54932e-06
2.28493e-06
-2.70559e-06
1.24931e-06
-5.71738e-07
2.15707e-07
1.66675e-06
-6.48947e-07
3.52809e-06
-1.18728e-06
4.80397e-06
-1.39532e-06
5.44228e-06
-1.42103e-06
5.5462e-06
4.97358e-06
-1.35064e-06
-1.0517e-06
3.18443e-06
-1.87644e-06
3.73319e-06
-1.87512e-06
3.09752e-06
-1.82609e-06
1.9537e-06
-1.99994e-06
1.61003e-07
-2.09946e-06
-2.19227e-06
-1.67574e-06
-4.86996e-06
-1.01998e-06
-6.76968e-06
-5.05653e-07
-7.51023e-06
-5.67455e-07
-7.36299e-06
-9.943e-07
-7.2215e-06
-1.60125e-06
-6.91559e-06
-2.27682e-06
-6.29209e-06
-2.9656e-06
-5.28496e-06
-3.63093e-06
-3.88448e-06
-4.20183e-06
-2.13514e-06
-4.60502e-06
-1.68966e-07
-4.72537e-06
1.78678e-06
-4.60538e-06
3.40797e-06
-4.27821e-06
4.477e-06
-3.81462e-06
4.97894e-06
-3.28653e-06
5.01834e-06
4.61388e-06
-2.92714e-06
-1.83893e-06
5.02352e-06
-2.48869e-06
4.38309e-06
-2.60069e-06
3.20963e-06
-2.78498e-06
2.13807e-06
-3.27231e-06
6.48348e-07
-3.75887e-06
-1.70576e-06
-3.87348e-06
-4.75545e-06
-3.92328e-06
-6.72003e-06
-3.97504e-06
-7.45866e-06
-4.34284e-06
-6.9954e-06
-5.06905e-06
-6.49553e-06
-5.88425e-06
-6.10064e-06
-6.68473e-06
-5.49188e-06
-7.39201e-06
-4.57795e-06
-7.93897e-06
-3.33777e-06
-8.24368e-06
-1.83067e-06
-8.23757e-06
-1.75291e-07
-7.89279e-06
1.44185e-06
-7.27905e-06
2.7942e-06
-6.51568e-06
3.71381e-06
-5.69912e-06
4.16256e-06
-4.88171e-06
4.20105e-06
3.92569e-06
-4.19407e-06
-2.02175e-06
7.04534e-06
-2.74294e-06
5.10435e-06
-3.0911e-06
3.55785e-06
-3.40719e-06
2.45418e-06
-3.95977e-06
1.20093e-06
-4.57306e-06
-1.09249e-06
-5.31212e-06
-4.01646e-06
-5.93447e-06
-6.09776e-06
-6.54289e-06
-6.85034e-06
-7.15946e-06
-6.37894e-06
-7.94445e-06
-5.71068e-06
-8.74817e-06
-5.29707e-06
-9.49428e-06
-4.74593e-06
-1.01104e-05
-3.96197e-06
-1.05285e-05
-2.91982e-06
-1.06709e-05
-1.68845e-06
-1.04875e-05
-3.58817e-07
-9.97676e-06
9.3106e-07
-9.20148e-06
2.0189e-06
-8.26895e-06
2.78147e-06
-7.27723e-06
3.17099e-06
-6.28899e-06
3.21277e-06
3.01158e-06
-5.37539e-06
-1.69837e-06
8.74377e-06
-2.69309e-06
6.09911e-06
-3.35079e-06
4.21557e-06
-3.89333e-06
2.99673e-06
-4.37888e-06
1.68648e-06
-5.01856e-06
-4.52835e-07
-6.06826e-06
-2.96678e-06
-7.1578e-06
-5.00826e-06
-8.17532e-06
-5.83286e-06
-9.03726e-06
-5.51705e-06
-9.75506e-06
-4.99293e-06
-1.04508e-05
-4.60144e-06
-1.10655e-05
-4.13124e-06
-1.155e-05
-3.47749e-06
-1.18384e-05
-2.63153e-06
-1.1868e-05
-1.65886e-06
-1.1605e-05
-6.21901e-07
-1.10531e-05
3.79132e-07
-1.02657e-05
1.2316e-06
-9.32686e-06
1.84276e-06
-8.32285e-06
2.16707e-06
-7.31482e-06
2.20477e-06
2.04528e-06
-6.34915e-06
-1.32984e-06
1.00736e-05
-2.4516e-06
7.22089e-06
-3.38727e-06
5.15124e-06
-4.09638e-06
3.70584e-06
-4.59277e-06
2.18286e-06
-5.24993e-06
2.04328e-07
-6.28063e-06
-1.93609e-06
-7.60336e-06
-3.68554e-06
-8.86951e-06
-4.56672e-06
-9.82169e-06
-4.56486e-06
-1.052e-05
-4.29458e-06
-1.11192e-05
-4.0023e-06
-1.16263e-05
-3.62414e-06
-1.20016e-05
-3.10215e-06
-1.21898e-05
-2.44332e-06
-1.21534e-05
-1.69529e-06
-1.18698e-05
-9.05426e-07
-1.13458e-05
-1.44865e-07
-1.06213e-05
5.07047e-07
-9.76125e-06
9.82929e-07
-8.83515e-06
1.24108e-06
-7.89808e-06
1.26758e-06
1.13058e-06
-6.98397e-06
-1.10523e-06
1.11789e-05
-2.15903e-06
8.27472e-06
-3.15963e-06
6.15185e-06
-3.90399e-06
4.4502e-06
-4.49643e-06
2.7753e-06
-5.2193e-06
9.27196e-07
-6.22683e-06
-9.28563e-07
-7.4676e-06
-2.44477e-06
-8.70023e-06
-3.33408e-06
-9.65095e-06
-3.61413e-06
-1.0364e-05
-3.58156e-06
-1.09316e-05
-3.43463e-06
-1.13787e-05
-3.17699e-06
-1.16863e-05
-2.79448e-06
-1.18207e-05
-2.30888e-06
-1.17622e-05
-1.75378e-06
-1.14992e-05
-1.16842e-06
-1.10401e-05
-6.03931e-07
-1.04161e-05
-1.1693e-07
-9.67605e-06
2.43006e-07
-8.87538e-06
4.40468e-07
-8.06017e-06
4.5236e-07
3.28171e-07
-7.25843e-06
-9.04128e-07
1.20831e-05
-1.8078e-06
9.17842e-06
-2.66731e-06
7.01137e-06
-3.39333e-06
5.17623e-06
-4.05197e-06
3.43395e-06
-4.8089e-06
1.68412e-06
-5.76386e-06
2.63936e-08
-6.87029e-06
-1.33833e-06
-7.95586e-06
-2.24851e-06
-8.86382e-06
-2.70616e-06
-9.56808e-06
-2.87728e-06
-1.01202e-05
-2.88246e-06
-1.05392e-05
-2.758e-06
-1.08154e-05
-2.51822e-06
-1.09353e-05
-2.18888e-06
-1.08888e-05
-1.80025e-06
-1.06731e-05
-1.38411e-06
-1.02981e-05
-9.78884e-07
-9.78935e-06
-6.25677e-07
-9.18484e-06
-3.61343e-07
-8.52785e-06
-2.16421e-07
-7.85632e-06
-2.1931e-07
-3.32215e-07
-7.19651e-06
-6.17381e-07
1.27005e-05
-1.31156e-06
9.87263e-06
-2.01502e-06
7.71485e-06
-2.67976e-06
5.84098e-06
-3.33936e-06
4.09355e-06
-4.08182e-06
2.42659e-06
-4.95609e-06
9.00674e-07
-5.92336e-06
-3.7106e-07
-6.87486e-06
-1.297e-06
-7.7021e-06
-1.87889e-06
-8.37666e-06
-2.20269e-06
-8.91125e-06
-2.34783e-06
-9.31404e-06
-2.35516e-06
-9.5822e-06
-2.25e-06
-9.71027e-06
-2.06076e-06
-9.6957e-06
-1.81478e-06
-9.54074e-06
-1.53905e-06
-9.25638e-06
-1.26323e-06
-8.8642e-06
-1.01782e-06
-8.39406e-06
-8.31323e-07
-7.88068e-06
-7.29743e-07
-7.35481e-06
-7.45175e-07
-8.48898e-07
-6.83876e-06
-2.82841e-07
1.29834e-05
-7.49856e-07
1.03397e-05
-1.29259e-06
8.25762e-06
-1.86435e-06
6.41275e-06
-2.47435e-06
4.70356e-06
-3.1604e-06
3.11265e-06
-3.93889e-06
1.67918e-06
-4.77783e-06
4.67889e-07
-5.60386e-06
-4.70958e-07
-6.34666e-06
-1.13606e-06
-6.97469e-06
-1.57463e-06
-7.48377e-06
-1.83872e-06
-7.87407e-06
-1.96481e-06
-8.14311e-06
-1.98091e-06
-8.28955e-06
-1.91427e-06
-8.31464e-06
-1.78966e-06
-8.22334e-06
-1.63033e-06
-8.0267e-06
-1.45986e-06
-7.74292e-06
-1.30156e-06
-7.39656e-06
-1.17752e-06
-7.0148e-06
-1.1114e-06
-6.62252e-06
-1.13761e-06
-1.23088e-06
-6.24109e-06
3.81116e-08
1.29454e-05
-2.10634e-07
1.05885e-05
-5.89898e-07
8.63691e-06
-1.04679e-06
6.86966e-06
-1.57123e-06
5.22802e-06
-2.17095e-06
3.71237e-06
-2.84331e-06
2.35155e-06
-3.56041e-06
1.18501e-06
-4.27196e-06
2.40613e-07
-4.92781e-06
-4.80179e-07
-5.49925e-06
-1.00316e-06
-5.97481e-06
-1.36311e-06
-6.34935e-06
-1.59021e-06
-6.61965e-06
-1.71056e-06
-6.78541e-06
-1.74847e-06
-6.84914e-06
-1.72588e-06
-6.81669e-06
-1.66276e-06
-6.69845e-06
-1.57809e-06
-6.50994e-06
-1.49003e-06
-6.27051e-06
-1.41678e-06
-6.0025e-06
-1.37936e-06
-5.72578e-06
-1.4143e-06
-1.49962e-06
-5.45767e-06
2.84457e-07
1.2661e-05
2.36136e-07
1.06368e-05
1.87047e-08
8.85437e-06
-3.08218e-07
7.1966e-06
-7.2316e-07
5.64297e-06
-1.21641e-06
4.20564e-06
-1.77505e-06
2.9102e-06
-2.37316e-06
1.78315e-06
-2.9746e-06
8.42072e-07
-3.54219e-06
8.74457e-08
-4.0501e-06
-4.95213e-07
-4.4842e-06
-9.28964e-07
-4.83659e-06
-1.23776e-06
-5.10308e-06
-1.44401e-06
-5.28291e-06
-1.56859e-06
-5.37846e-06
-1.63029e-06
-5.39526e-06
-1.64593e-06
-5.34242e-06
-1.63093e-06
-5.23259e-06
-1.5998e-06
-5.08185e-06
-1.56735e-06
-4.9073e-06
-1.55379e-06
-4.72469e-06
-1.59704e-06
-1.6744e-06
-4.55041e-06
4.35698e-07
1.22253e-05
5.53223e-07
1.05194e-05
4.90031e-07
8.91759e-06
2.99304e-07
7.38735e-06
8.23642e-09
5.93406e-06
-3.66318e-07
4.58022e-06
-8.05953e-07
3.34986e-06
-1.28652e-06
2.26374e-06
-1.77952e-06
1.3351e-06
-2.25675e-06
5.64715e-07
-2.69543e-06
-5.64876e-08
-3.0808e-06
-5.43537e-07
-3.40354e-06
-9.14968e-07
-3.65843e-06
-1.18907e-06
-3.84383e-06
-1.38313e-06
-3.96128e-06
-1.5128e-06
-4.01522e-06
-1.59196e-06
-4.01314e-06
-1.63299e-06
-3.96539e-06
-1.6475e-06
-3.88418e-06
-1.64839e-06
-3.78352e-06
-1.65436e-06
-3.67573e-06
-1.70475e-06
-1.7778e-06
-3.57292e-06
4.9914e-07
1.17262e-05
7.4108e-07
1.02775e-05
8.13361e-07
8.84534e-06
7.558e-07
7.44494e-06
5.92694e-07
6.09719e-06
3.4261e-07
4.83032e-06
2.45294e-08
3.66797e-06
-3.39831e-07
2.62813e-06
-7.26416e-07
1.72172e-06
-1.11214e-06
9.50483e-07
-1.47731e-06
3.08725e-07
-1.8078e-06
-2.12991e-07
-2.09365e-06
-6.29058e-07
-2.3287e-06
-9.53957e-07
-2.51029e-06
-1.20149e-06
-2.63882e-06
-1.38423e-06
-2.71743e-06
-1.51332e-06
-2.75179e-06
-1.59862e-06
-2.74972e-06
-1.64952e-06
-2.72117e-06
-1.67675e-06
-2.67646e-06
-1.69894e-06
-2.62507e-06
-1.75629e-06
-1.82444e-06
-2.57893e-06
4.98269e-07
1.1228e-05
8.24771e-07
9.951e-06
1.00912e-06
8.66102e-06
1.07235e-06
7.38174e-06
1.03158e-06
6.13799e-06
9.02836e-07
4.95909e-06
7.03282e-07
3.86755e-06
4.51935e-07
2.87951e-06
1.69121e-07
2.00458e-06
-1.25818e-07
1.24547e-06
-4.16031e-07
5.9899e-07
-6.87651e-07
5.86867e-08
-9.30952e-07
-3.85696e-07
-1.13901e-06
-7.45839e-07
-1.30822e-06
-1.03222e-06
-1.43786e-06
-1.25454e-06
-1.52962e-06
-1.42153e-06
-1.58745e-06
-1.54076e-06
-1.61725e-06
-1.61966e-06
-1.62591e-06
-1.66792e-06
-1.62191e-06
-1.70289e-06
-1.61216e-06
-1.76595e-06
-1.83234e-06
-1.60486e-06
4.62619e-07
1.07655e-05
8.40818e-07
9.57285e-06
1.11215e-06
8.38973e-06
1.27831e-06
7.21561e-06
1.34713e-06
6.0692e-06
1.32978e-06
4.97648e-06
1.24007e-06
3.9573e-06
1.09392e-06
3.0257e-06
9.08366e-07
2.19017e-06
7.00037e-07
1.45385e-06
4.83807e-07
8.15273e-07
2.72631e-07
2.69923e-07
7.546e-08
-1.88463e-07
-1.00434e-07
-5.69882e-07
-2.5065e-07
-8.81945e-07
-3.73302e-07
-1.13184e-06
-4.688e-07
-1.326e-06
-5.3946e-07
-1.47009e-06
-5.89056e-07
-1.57002e-06
-6.23001e-07
-1.63381e-06
-6.4725e-07
-1.67851e-06
-6.67943e-07
-1.74541e-06
-1.81302e-06
-6.87695e-07
4.18333e-07
1.03472e-05
8.25692e-07
9.16555e-06
1.16132e-06
8.05414e-06
1.41043e-06
6.96655e-06
1.57173e-06
5.90794e-06
1.65083e-06
4.89742e-06
1.65766e-06
3.95051e-06
1.60497e-06
3.07844e-06
1.50693e-06
2.28826e-06
1.37779e-06
1.58303e-06
1.23071e-06
9.62408e-07
1.07727e-06
4.23421e-07
9.26218e-07
-3.73453e-08
7.84689e-07
-4.28289e-07
6.57634e-07
-7.5483e-07
5.47727e-07
-1.02188e-06
4.5566e-07
-1.2339e-06
3.80441e-07
-1.39485e-06
3.19647e-07
-1.50917e-06
2.70569e-07
-1.58458e-06
2.2914e-07
-1.63702e-06
1.92257e-07
-1.70839e-06
-1.77264e-06
1.51317e-07
3.84575e-07
9.96273e-06
8.09537e-07
8.74066e-06
1.19159e-06
7.67215e-06
1.50441e-06
6.65378e-06
1.73934e-06
5.67305e-06
1.89705e-06
4.73976e-06
1.98386e-06
3.86374e-06
2.00964e-06
3.0527e-06
1.98615e-06
2.3118e-06
1.92563e-06
1.6436e-06
1.83973e-06
1.04837e-06
1.73874e-06
5.24468e-07
1.63116e-06
7.03001e-08
1.52359e-06
-3.20651e-07
1.42114e-06
-6.52328e-07
1.32702e-06
-9.2771e-07
1.24272e-06
-1.14956e-06
1.16842e-06
-1.32053e-06
1.10333e-06
-1.44403e-06
1.04534e-06
-1.52642e-06
9.92387e-07
-1.58391e-06
9.41576e-07
-1.65777e-06
-1.71954e-06
8.88071e-07
3.72646e-07
9.59017e-06
8.13175e-07
8.30021e-06
1.22977e-06
7.25562e-06
1.58977e-06
6.29384e-06
1.87987e-06
5.383e-06
2.09727e-06
4.5224e-06
2.24568e-06
3.71538e-06
2.33282e-06
2.96562e-06
2.36858e-06
2.27608e-06
2.36366e-06
1.64858e-06
2.3284e-06
1.08368e-06
2.27208e-06
5.80848e-07
2.2026e-06
1.39844e-07
2.12598e-06
-2.43971e-07
2.04719e-06
-5.73474e-07
1.96959e-06
-8.50056e-07
1.89524e-06
-1.07518e-06
1.82513e-06
-1.2504e-06
1.7593e-06
-1.37814e-06
1.69755e-06
-1.46451e-06
1.63806e-06
-1.52439e-06
1.5793e-06
-1.59884e-06
-1.65935e-06
1.51857e-06
3.87982e-07
9.20232e-06
8.49134e-07
7.83915e-06
1.29379e-06
6.81104e-06
1.68781e-06
5.89987e-06
2.01618e-06
5.05469e-06
2.27465e-06
4.26397e-06
2.46573e-06
3.52435e-06
2.59603e-06
2.83537e-06
2.67441e-06
2.19775e-06
2.71053e-06
1.61251e-06
2.71379e-06
1.08048e-06
2.69256e-06
6.02135e-07
2.65392e-06
1.78543e-07
2.60331e-06
-1.93303e-07
2.5452e-06
-5.15303e-07
2.48281e-06
-7.87614e-07
2.41838e-06
-1.01071e-06
2.35346e-06
-1.18545e-06
2.28916e-06
-1.31378e-06
2.22556e-06
-1.40075e-06
2.16279e-06
-1.46145e-06
2.09993e-06
-1.53615e-06
-1.59225e-06
2.03252e-06
4.31827e-07
8.77056e-06
9.23184e-07
7.34788e-06
1.39373e-06
6.34056e-06
1.81173e-06
5.48194e-06
2.16334e-06
4.70314e-06
2.44514e-06
3.98222e-06
2.66017e-06
3.30937e-06
2.81526e-06
2.68033e-06
2.91916e-06
2.09389e-06
2.98115e-06
1.55057e-06
3.01001e-06
1.05168e-06
3.01336e-06
5.98842e-07
2.99734e-06
1.94616e-07
2.96665e-06
-1.62561e-07
2.92495e-06
-4.73551e-07
2.87499e-06
-7.3761e-07
2.81898e-06
-9.54671e-07
2.75873e-06
-1.12518e-06
2.69573e-06
-1.25071e-06
2.63153e-06
-1.33639e-06
2.56624e-06
-1.3961e-06
2.49951e-06
-1.46919e-06
-1.52292e-06
2.42972e-06
5.03451e-07
8.26725e-06
1.03702e-06
6.81441e-06
1.53385e-06
5.84381e-06
1.96782e-06
5.04804e-06
2.32904e-06
4.34197e-06
2.61733e-06
3.69398e-06
2.83817e-06
3.08857e-06
3.00004e-06
2.5185e-06
3.1126e-06
1.98137e-06
3.18541e-06
1.4778e-06
3.227e-06
1.01014e-06
3.24432e-06
5.81564e-07
3.24253e-06
1.96454e-07
3.2253e-06
-1.45286e-07
3.19517e-06
-4.4338e-07
3.15412e-06
-6.96518e-07
3.10396e-06
-9.04489e-07
3.04666e-06
-1.06787e-06
2.98436e-06
-1.18837e-06
2.9186e-06
-1.27048e-06
2.85078e-06
-1.32813e-06
2.78054e-06
-1.39919e-06
-1.44802e-06
2.70532e-06
6.00915e-07
7.6664e-06
1.18966e-06
6.22574e-06
1.71426e-06
5.31926e-06
2.15686e-06
4.60548e-06
2.51454e-06
3.98433e-06
2.79296e-06
3.4156e-06
3.00207e-06
2.8795e-06
3.15344e-06
2.36715e-06
3.2586e-06
1.87624e-06
3.32795e-06
1.40847e-06
3.37009e-06
9.68026e-07
3.39141e-06
5.60279e-07
3.39596e-06
1.91931e-07
3.38605e-06
-1.35345e-07
3.36273e-06
-4.20028e-07
3.32683e-06
-6.606e-07
3.27965e-06
-8.57304e-07
3.2231e-06
-1.01133e-06
3.15949e-06
-1.12472e-06
3.09152e-06
-1.20241e-06
3.02026e-06
-1.25692e-06
2.94574e-06
-1.32448e-06
-1.37113e-06
2.86833e-06
7.22462e-07
6.94404e-06
1.37898e-06
5.56928e-06
1.93202e-06
4.76627e-06
2.37499e-06
4.16255e-06
2.71534e-06
3.64401e-06
2.9675e-06
3.16346e-06
3.14797e-06
2.69905e-06
3.27265e-06
2.24249e-06
3.35562e-06
1.79328e-06
3.40855e-06
1.35556e-06
3.44031e-06
9.36289e-07
3.45676e-06
5.43841e-07
3.46081e-06
1.87904e-07
3.45295e-06
-1.27468e-07
3.43227e-06
-3.99346e-07
3.39814e-06
-6.26464e-07
3.35103e-06
-8.10205e-07
3.2928e-06
-9.5312e-07
3.22641e-06
-1.05834e-06
3.15465e-06
-1.13058e-06
3.07977e-06
-1.18195e-06
3.00156e-06
-1.24655e-06
-1.29058e-06
2.92071e-06
8.66588e-07
6.07746e-06
1.60154e-06
4.83436e-06
2.18114e-06
4.1867e-06
2.61356e-06
3.73016e-06
2.92119e-06
3.3364e-06
3.13058e-06
2.95409e-06
3.26654e-06
2.5631e-06
3.35006e-06
2.15898e-06
3.39801e-06
1.74533e-06
3.42337e-06
1.3302e-06
3.43537e-06
9.24291e-07
3.4395e-06
5.39719e-07
3.43749e-06
1.8991e-07
3.42765e-06
-1.17623e-07
3.40647e-06
-3.78173e-07
3.37137e-06
-5.91378e-07
3.32193e-06
-7.60798e-07
3.25995e-06
-8.91182e-07
3.18887e-06
-9.87286e-07
3.11273e-06
-1.05441e-06
3.03387e-06
-1.10316e-06
2.95244e-06
-1.16497e-06
-1.21007e-06
2.87145e-06
1.03347e-06
5.04403e-06
1.85237e-06
4.01547e-06
2.4511e-06
3.58799e-06
2.85761e-06
3.32365e-06
3.11526e-06
3.07876e-06
3.26603e-06
2.80331e-06
3.34403e-06
2.4851e-06
3.37501e-06
2.128e-06
3.37804e-06
1.7423e-06
3.36703e-06
1.3412e-06
3.3516e-06
9.39712e-07
3.33725e-06
5.54059e-07
3.32495e-06
2.02196e-07
3.31047e-06
-1.03153e-07
3.28674e-06
-3.54469e-07
3.24881e-06
-5.53477e-07
3.19521e-06
-7.07236e-07
3.12776e-06
-8.23801e-07
3.05104e-06
-9.10613e-07
2.96999e-06
-9.73324e-07
2.88787e-06
-1.02102e-06
2.80482e-06
-1.08231e-06
-1.12896e-06
2.72339e-06
1.22417e-06
3.81981e-06
2.12163e-06
3.118e-06
2.72273e-06
2.98688e-06
3.08238e-06
2.96399e-06
3.27251e-06
2.88863e-06
3.35247e-06
2.72334e-06
3.36437e-06
2.47318e-06
3.33674e-06
2.15562e-06
3.28923e-06
1.78979e-06
3.23592e-06
1.39449e-06
3.18693e-06
9.88684e-07
3.1487e-06
5.9227e-07
3.12268e-06
2.28189e-07
3.10205e-06
-8.25438e-08
3.07456e-06
-3.27018e-07
3.03258e-06
-5.11538e-07
2.97363e-06
-6.48345e-07
2.89966e-06
-7.49901e-07
2.81646e-06
-8.27469e-07
2.73086e-06
-8.87741e-07
2.64682e-06
-9.37163e-07
2.56505e-06
-1.00045e-06
-1.05131e-06
2.48689e-06
1.43574e-06
2.38402e-06
2.38583e-06
2.16787e-06
2.95966e-06
2.41303e-06