/*--------------------------------*- C++ -*----------------------------------*\
  =========                 |
  \\      /  F ield         | OpenFOAM: The Open Source CFD Toolbox
   \\    /   O peration     | Website:  https://openfoam.org
    \\  /    A nd           | Version:  13
     \\/     M anipulation  |
\*---------------------------------------------------------------------------*/
FoamFile
{
    format      ascii;
    class       volScalarField;
    location    "2.8";
    object      rho;
}
// * * * * * * * * * * * * * * * * * * * * * * * * * * * * * * * * * * * * * //

dimensions      [1 -3 0 0 0 0 0];

internalField   nonuniform List<scalar> 
2268
(
13529
13529
13529
13529
13529
13529
13529
13529
13529
13529
13529
13529
13529
13529
13529
13529
13529
13529
13529
13526.9
13521.8
13521.8
13522
13529
13529
13529
13529
13529
13529
13529
13529
13529
13529
13529
13529
13529
13529
13529
13529
13529
13529
13529
13528.7
13528
13527.7
13528.8
13529
13529
13529
13529
13529
13529
13529
13529
13529
13529
13529
13529
13529
13529
13529
13529
13529
13529
13529
13529
13529
13529
13529
13529
13529
13529
13529
13529
13529
13529
13529
13529
13529
13529
13529
13529
13529
13529
13529
13529
13529
13529
13529
13529
13529
13529
13529
13529
13529
13529
13529
13529
13529
13529
13529
13529
13529
13529
13529
13529
13529
13529
13529
13529
13529
13529
13529
13529
13529
9825.62
9664.82
9665.03
9927.95
10370.1
10976
11692.6
12367.2
12901.7
13352.2
13529
13529
13529
13529
13529
13529
13529
13529
13529
13529
13529
13529
13526.9
1489.37
1438.28
1441.71
1540.43
1727.88
2004.11
2399.97
3011.41
3885.08
4891.39
6116.31
7455.86
8661.78
9670.28
10406.3
10867.9
11127.8
11209.5
11181.1
11086.4
10817.7
10228.5
9697.59
1000
1000
1000
1000.01
1000.01
999.998
999.999
1000
1000
1000
1000
1039.07
1161.59
1334.18
1547.2
1801.15
2023.51
2220.32
2326.83
2254.72
2030.53
1680.74
1471.74
11943.3
11951.4
11945.1
11935.5
10898.8
9021.01
9030.11
9152.06
9435.33
9469.51
8951.14
8822.98
9483.32
10338.3
10345.5
10361.4
10320.1
10301.2
10304.6
11943
11943.4
11847.5
11399.5
11203.1
11267.2
11259.9
11275.4
11236.6
11202.4
10511.4
9385.39
10293.3
10271.8
10282.8
10285.7
10301.4
10300
10299
8778.01
8599.06
7478.47
6278.39
6611.36
7306.41
7041.89
6936.05
6490.2
7675.02
7847.19
8226.02
7678.94
7951.56
8312.03
8480.8
8073.73
7539.51
7026.93
7446.81
5641.56
3403.87
2501.83
1789.68
1432.24
1374.1
1351.08
1978.75
1433.65
2771.36
3504.27
3478.6
2876.05
2243.58
1533.9
1774.43
2275.86
3238.79
2850.28
1926.45
2164.49
2401.4
1555.4
1061.57
1027.93
1011.65
1240.38
1090.98
713.16
809.645
1596.64
981.728
628.264
841.432
866.572
953.233
625.992
1582.33
1903.28
1918.93
1970.76
2024.72
1455.23
1456.4
1497.44
1472.94
1162.27
1016.74
757.469
323.744
630.522
959.4
999.948
999.921
999.915
698.57
1622.02
1502.84
1446.76
1559.2
1877.52
1678.21
1550.39
1788.87
1296.51
1097.17
1006.31
1001.55
333.168
689.592
999.88
1000.01
999.91
999.433
772.171
1346.16
1317.12
1250.09
1133.74
1060.93
1626.29
1667.2
1360.12
1000.94
1005.26
1006.1
963.748
333.463
743.256
995.782
1000.02
999.118
1000.06
811.137
1000
1000
1000
999.957
999.949
999.999
1000
1000
1000
1000
1000
1000
1000
1000
1000
1000
1000
1000
1000
999.996
999.741
998.114
995.774
1000
999.359
998.519
999.375
999.978
1000
1000
1000
1000
1000
1000
1000
1000
1000
1000
1000
1000
1000
999.999
999.832
996.733
983.489
953.384
912.977
964.149
998.899
999.831
999.993
1000
1000
1000
1000
1000
1000
999.994
999.583
997.323
990.98
981.835
972.198
965.785
936.229
887.999
831.701
763.236
658.668
788.479
735.451
734.964
749.977
789.764
854.802
863.795
852.314
860.674
869.103
868.297
859.633
831.442
790.611
765.234
740.768
692.456
606.886
537.947
494.502
470.209
472.368
466.974
464.942
496.361
500.397
501.213
502.954
474.746
466.043
473.573
469.155
463.964
454.617
440.94
453.663
466.196
453.295
431.408
436.359
481.162
499.675
500
500
500.003
491.151
494.288
499.978
499.924
500.018
488.686
474.936
488.953
498.632
495.362
488.346
489.471
494.34
498.513
499.997
500
500
500
500
500
500
499.811
499.734
500.102
499.731
500.329
500.027
500
499.932
499.995
499.999
500
500
500
500
500
500
500
500
500
500
500
500
500
500.003
500.004
500.001
465.985
459.726
453.9
450.079
448.441
445.773
446.577
450.6
452.352
451.997
449.475
444.601
437.154
427.968
417.451
405.137
390.811
374.401
359.562
350.874
351.526
361.72
377.644
123.256
112.858
96.2918
89.0741
87.8663
89.2964
87.7559
84.2243
82.138
80.2361
76.7294
70.7724
62.8529
54.3449
45.8686
37.8341
30.7684
24.9026
20.9757
19.4158
20.3289
23.6512
29.6606
1.00146
1.00089
1.00241
1.00127
1.00005
1.00009
1.00009
1.00006
1.00004
1.00002
1.00002
1.00002
1.00001
1.00001
1
1
1
1
1
1.00001
1.00005
1.00026
1.00049
1.00102
1.00066
1.00078
1.00067
1.00018
1.0002
1.00004
1.00004
1.00006
1.00012
1.00003
1.00003
1.00004
1.00004
1.00005
1.00005
1.00004
1.00003
1.00003
1.00003
1.00004
1.00007
1.00012
1.00105
1.00183
1.00323
1.00097
1.00022
1.001
1.00973
1.03719
1.01694
1.00162
1.00039
1.0003
1.00028
1.00027
1.00023
1.00016
1.00012
1.0001
1.00008
1.00006
1.00007
1.00008
1.0001
1.00163
1.00598
1.01468
1.00551
1.0002
1.00322
1.06409
1.08397
1.07633
1.00587
1.0011
1.00091
1.00059
1.0005
1.00031
1.00021
1.00014
1.0001
1.00008
1.00006
1.00006
1.00005
1.00007
1.00223
1.0165
1.0292
1.02275
1.00012
1.00926
1.07981
1.08357
1.08394
1.04569
1.00325
1.00296
1.00148
1.00105
1.00042
1.00018
1.00015
1.00013
1.00009
1.00005
1.00005
1.00004
1.00004
1.00165
1.0171
1.02928
1.02705
1.00012
1.00018
1.02485
1.08196
1.08293
1.03333
1.00324
1.00325
1.0032
1.00266
1.00022
1.00011
1.00013
1.00012
1.00009
1.00007
1.00005
1.00003
1.00003
1.00106
1.00767
1.02155
1.01056
1.00015
1.00012
1.00028
1.00822
1.01652
1.00304
1.00177
1.00308
1.00308
1.00201
1.00003
1.00006
1.0001
1.00009
1.00008
1.00006
1.00005
1.00003
1.00002
1.00069
1.0012
1.00168
1.00048
1.00015
1.00006
1.00008
1.00006
1.00006
1.00006
1.00024
1.00095
1.00139
1.00028
1.00006
1.00009
1.0001
1.00006
1.00005
1.00005
1.00004
1.00003
1.00002
1.00047
1.00052
1.00025
1.00012
1.00006
1.00005
1.00006
1.00006
1.00007
1.00012
1.00025
1.00042
1.0004
1.00013
1.00004
1.00006
1.00006
1.00004
1.00003
1.00003
1.00003
1.00002
1.00001
1.00038
1.00027
1.00013
1.00005
1.00005
1.00005
1.00005
1.00004
1.00003
1.00005
1.00016
1.00032
1.00033
1.00014
1.00004
1.00003
1.00003
1.00002
1.00002
1.00002
1.00001
1.00001
1.00001
1.00025
1.00025
1.00013
1.00006
1.00004
1.00004
1.00004
1.00003
1.00002
1.00003
1.00007
1.00016
1.00018
1.00007
1.00003
1.00002
1.00002
1.00001
1.00001
1.00001
1.00001
1.00001
1.00001
1.00017
1.0002
1.00011
1.00005
1.00004
1.00003
1.00003
1.00002
1.00002
1.00002
1.00003
1.00004
1.00004
1.00003
1.00002
1.00001
1.00001
1.00001
1.00001
1.00001
1.00001
1
1
1.00011
1.00014
1.00008
1.00005
1.00003
1.00003
1.00002
1.00002
1.00001
1.00001
1.00002
1.00002
1.00001
1.00001
1.00001
1.00001
1.00001
1.00001
1
1
1
1
1
1.00007
1.00008
1.00006
1.00004
1.00003
1.00002
1.00002
1.00001
1.00001
1.00001
1.00001
1.00001
1.00001
1.00001
1
1
1
1
1
1
1
1
1
1.00005
1.00006
1.00005
1.00003
1.00003
1.00002
1.00001
1.00001
1.00001
1.00001
1
1
1
1
1
1
1
1
1
1
1
1
1
1.00004
1.00004
1.00004
1.00003
1.00002
1.00001
1.00001
1.00001
1
1
1
1
1
1
1
1
1
1
1
1
1
1
1
1.00004
1.00003
1.00003
1.00002
1.00002
1.00001
1.00001
1.00001
1
1
1
1
1
1
1
1
1
1
1
1
1
1
1
1.00003
1.00003
1.00002
1.00002
1.00001
1.00001
1.00001
1
1
1
1
1
1
1
1
1
1
1
1
1
1
1
1
1.00003
1.00002
1.00002
1.00001
1.00001
1.00001
1
1
1
1
1
1
1
1
1
1
1
1
1
1
1
1
1
1.00002
1.00002
1.00001
1.00001
1.00001
1
1
1
1
1
1
1
1
1
1
1
1
1
1
1
1
1
1
1.00002
1.00001
1.00001
1.00001
1
1
1
1
1
1
1
1
1
1
1
1
1
1
1
1
1
1
1
1.00001
1.00001
1.00001
1
1
1
1
1
1
1
1
1
1
1
1
1
1
1
1
1
1
1
1
1.00001
1.00001
1
1
1
1
1
1
1
1
1
1
1
1
1
1
1
1
1
1
1
1
1
1.00001
1
1
1
1
1
1
1
1
1
1
1
1
1
1
1
1
1
1
1
1
1
1
1.00001
1
1
1
1
1
1
1
1
1
1
1
1
1
1
1
1
1
1
1
1
1
1
1
1
1
1
1
1
1
1
1
1
1
1
1
1
1
1
1
1
1
1
1
1
1
1
1
1
1
1
1
1
1
1
1
1
1
1
1
1
1
1
1
1
1
1
1
1
1
1
1
1
1
1
1
1
1
1
1
1
1
1
1
1
1
1
1
1
1
1
1
1
1
1
1
1
1
1
1
1
1
1
1
1
1
1
1
1
1
1
1
1
1
1
1
1
1
1
1
1
1
1
1
1
1
1
1
1
1
1
1
1
1
1
1
1
1
1
1
1
1
1
1
1
1
1
1
1
1
1
1
1
1
1
1
1
1
1
1
1
1
1
1
1
1
1
1
1
1
1
1
1
1
1
1
1
1
1
1
1
1
1
1
1
1
1
1
1
1
1
1
1
1
1
1
1
1
1
1
1
1
1
1
1
1
1
1222.8
1459.32
1514.26
1544.65
910.889
920.898
960.835
988.335
606.961
558.469
560.172
690.087
437.849
431.822
431.596
450.225
488.723
493.533
501.703
502.612
500.143
500.093
500.004
500.006
500.001
500
500.003
500.006
393.315
403.618
412.985
422.549
36.9826
42.2351
47.1398
51.7264
1.00052
1.00035
1.00037
1.0004
1.00013
1.00012
1.00013
1.00018
1.00012
1.00012
1.00013
1.00014
1.00009
1.00009
1.00009
1.0001
1.00005
1.00006
1.00006
1.00006
1.00003
1.00004
1.00004
1.00004
1.00002
1.00002
1.00002
1.00002
1.00002
1.00001
1.00001
1.00001
1.00001
1.00001
1.00001
1.00001
1.00001
1.00001
1.00001
1.00001
1
1
1
1
1
1
1
1
1
1
1
1
1
1
1
1
1
1
1
1
1
1
1
1
1
1
1
1
1
1
1
1
1
1
1
1
1
1
1
1
1
1
1
1
1
1
1
1
1
1
1
1
1
1
1
1
1
1
1
1
1
1
1
1
1
1
1
1
1
1
1
1
1
1
1
1
1
1
1
1
1
1
1
1
1
1
1
1
1
1
1
1
1125.37
1050.93
1175.33
1083.95
979.14
983.918
1111.77
965.801
999.562
999.725
1000.66
987.06
763.794
974.347
999.914
999.92
1001.07
932.166
875.631
999.554
1005.2
1149.12
994.896
869.844
983.034
885.332
848.206
963.74
986.782
995.06
995.89
992.59
988.784
946.625
867.97
800.139
815.438
874.913
773.937
748.159
745.135
774.125
812.232
651.749
635.038
684.399
644.726
633.331
639.833
678.425
734.201
674.656
595.741
555.328
577.761
629.551
684.718
464.365
451.867
451.644
509.45
518.443
440.279
438.851
437.196
467.459
500.776
500.007
499.995
499.974
500.003
500.356
500.626
505.72
539.173
547.97
503.049
497.42
496.943
499.717
499.98
492.074
451.847
454.152
491.545
500.104
500.041
500.018
500.001
500.001
500.043
500.192
500.225
500.596
500.192
500.007
500.007
500.007
499.968
499.987
500.016
499.927
499.972
500
500
500.004
500.003
500.001
500.001
499.998
499.974
499.984
500.01
500.149
500.004
500.002
500.002
500.003
500.007
500.009
500.004
500.001
500
500
500
500
500.018
500.049
500.008
499.997
500.25
500.646
500.162
436.512
457.716
473.25
485.078
495.681
500.002
500.001
500
500
500
500
500
500.008
500.051
501.279
513.584
528.759
529.451
513.396
59.195
74.9183
92.8038
112.983
137.227
169.831
202.188
227.939
248.317
267.83
288.169
308.635
328.573
344.717
349.978
346.068
329.232
317.983
322.373
1.00042
1.00048
1.00078
1.00106
1.00116
1.00369
1.0082
1.28787
2.15313
3.7386
6.64462
11.0496
16.1311
21.2726
30.7733
35.3166
34.8445
29.3987
23.2491
1.00023
1.00035
1.00108
1.09676
1.22717
1.31472
1.30715
1.13527
1.10303
1.13964
1.32706
1.62512
1.83457
2.67157
2.60721
1.0005
1
1.00379
1.32714
1.00016
1.00037
1.0006
1.15243
1.41009
1.41638
1.41755
1.09837
1.03394
1.06697
1.28432
1.44665
1.47537
1.41573
1.01105
1.00042
1.00009
1.00007
1.00137
1.00011
1.00016
1.00022
1.0004
1.00006
1.02786
1.00576
1.00641
1.00302
1.0058
1.11816
1.28099
1.22834
1.0908
1.00084
1.0002
1.00019
1.00016
1.00084
1.00006
1.00006
1.00006
1.00006
1.00007
1.0001
1.00057
1.00101
1.00106
1.00292
1.00393
1.008
1.00087
1.00025
1.00047
1.00035
1.00034
1.00026
1.00014
1.00004
1.00005
1.00006
1.00008
1.00009
1.00011
1.00014
1.00025
1.00036
1.00045
1.00025
1.00014
1.0001
1.00011
1.00023
1.00029
1.00031
1.00024
1.0002
1.00003
1.00004
1.00005
1.00008
1.00011
1.00012
1.00012
1.00014
1.00016
1.00017
1.00017
1.00013
1.00012
1.0001
1.00015
1.00019
1.00019
1.00018
1.00018
1.00001
1.00002
1.00003
1.00005
1.00007
1.00009
1.00009
1.0001
1.0001
1.00011
1.00012
1.00011
1.00009
1.00007
1.00008
1.00008
1.00009
1.00008
1.00008
1.00001
1.00001
1.00001
1.00001
1.00002
1.00003
1.00003
1.00004
1.00004
1.00005
1.00005
1.00006
1.00005
1.00003
1.00003
1.00003
1.00003
1.00002
1.00002
1.00001
1.00001
1.00001
1.00001
1.00001
1.00001
1.00001
1.00001
1.00001
1.00002
1.00002
1.00002
1.00002
1.00002
1.00001
1.00001
1.00001
1.00001
1.00001
1
1
1
1
1
1
1.00001
1.00001
1.00001
1.00001
1.00001
1.00001
1.00001
1.00001
1.00001
1.00001
1.00001
1.00001
1.00001
1
1
1
1
1
1
1
1
1
1
1
1
1
1
1
1.00001
1.00001
1.00001
1.00002
1
1
1
1
1
1
1
1
1
1
1
1
1
1
1
1.00001
1.00001
1.00002
1.00003
1
1
1
1
1
1
1
1
1
1
1
1
1
1
1
1.00001
1.00001
1.00003
1.00004
1
1
1
1
1
1
1
1
1
1
1
1
1
1
1
1.00001
1.00002
1.00004
1.00004
1
1
1
1
1
1
1
1
1
1
1
1
1
1
1
1.00001
1.00002
1.00004
1.00004
1
1
1
1
1
1
1
1
1
1
1
1
1
1
1
1.00001
1.00002
1.00005
1.00003
1
1
1
1
1
1
1
1
1
1
1
1
1
1
1
1
1.00002
1.00005
1.00002
1
1
1
1
1
1
1
1
1
1
1
1
1
1
1
1
1.00002
1.00005
1.00002
1
1
1
1
1
1
1
1
1
1
1
1
1
1
1
1
1.00002
1.00005
1.00001
1
1
1
1
1
1
1
1
1
1
1
1
1
1
1
1
1.00002
1.00004
1.00001
1
1
1
1
1
1
1
1
1
1
1
1
1
1
1
1
1.00002
1.00002
1
1
1
1
1
1
1
1
1
1
1
1
1
1
1
1
1.00001
1.00002
1.00001
1
1
1
1
1
1
1
1
1
1
1
1
1
1
1
1
1.00001
1.00001
1
1
1
1
1
1
1
1
1
1
1
1
1
1
1
1
1
1.00001
1.00001
1
1
1
1
1
1
1
1
1
1
1
1
1
1
1
1
1
1
1
1
1
1
1
1
1
1
1
1
1
1
1
1
1
1
1
1
1
1
1
1
1
1
1
1
1
1
1
1
1
1
1
1
1
1
1
1
1
1
1
1
1
1
1
1
1
1
1
1
1
1
1
1
1
1
1
1
1
1
1
1
1
1
1
1
1
1
1
1
1
1
1
1
1
1
1
1
1
1
1
1
1
1
1
1
1
1
1
1
1
1
1
1
1
1
1
1
1
1
1
1
1
1
1
1
1
1
1
1
1
1
1
1
1
1
1
1
1
1
1
1
1
1
1
1
1
1
1
1
1
1
1
1
1
1
)
;

boundaryField
{
    leftWall
    {
        type            calculated;
        value           nonuniform List<scalar> 
50
(
13529
13529
13529
13529
13529
9825.62
1489.37
1000
1000
1000
912.977
788.479
464.942
494.288
499.731
465.985
123.256
1.00146
1.00102
1.00105
1.00163
1.00223
1.00165
1.00106
1.00069
1.00047
1.00038
1.00025
1.00017
1.00011
1.00007
1.00005
1.00004
1.00004
1.00003
1.00003
1.00002
1.00002
1.00001
1.00001
1.00001
1.00001
1
1
1
1
1
1
1
1
)
;
    }
    rightWall
    {
        type            calculated;
        value           nonuniform List<scalar> 
50
(
10304.6
10299
7026.93
3238.79
625.992
698.57
772.171
811.137
875.631
874.913
684.718
547.97
500.192
500.149
500.162
513.396
322.373
23.2491
1.32714
1.00137
1.00084
1.00014
1.0002
1.00018
1.00008
1.00002
1.00001
1.00001
1.00002
1.00003
1.00004
1.00004
1.00004
1.00003
1.00002
1.00002
1.00001
1.00001
1
1
1
1
1
1
1
1
1
1
1
1
)
;
    }
    lowerWall
    {
        type            calculated;
        value           nonuniform List<scalar> 
62
(
13529
13529
13529
13529
13529
13529
13529
13529
13529
13529
13529
13529
13529
13529
13529
13529
13529
13529
13529
13526.9
13521.8
13521.8
13522
13522
13528.8
13529
13529
13529
13526.9
9697.59
1471.74
1222.8
1459.32
1514.26
1544.65
11943.3
11943
8778.01
7446.81
2850.28
1582.33
1622.02
1346.16
11943.3
11951.4
11945.1
11935.5
10898.8
9021.01
9030.11
9152.06
9435.33
9469.51
8951.14
8822.98
9483.32
10338.3
10345.5
10361.4
10320.1
10301.2
10304.6
)
;
    }
    atmosphere
    {
        type            calculated;
        value           nonuniform List<scalar> 
46
(
1
1
1
1
1
1
1
1
1
1
1
1
1
1
1
1
1
1
1
1
1
1
1
1
1
1
1
1
1
1
1
1
1
1
1
1
1
1
1
1
1
1
1
1
1
1
)
;
    }
    defaultFaces
    {
        type            empty;
    }
}


// ************************************************************************* //
