/*--------------------------------*- C++ -*----------------------------------*\
  =========                 |
  \\      /  F ield         | OpenFOAM: The Open Source CFD Toolbox
   \\    /   O peration     | Website:  https://openfoam.org
    \\  /    A nd           | Version:  13
     \\/     M anipulation  |
\*---------------------------------------------------------------------------*/
FoamFile
{
    format      ascii;
    class       volScalarField;
    location    "2.9";
    object      alpha.air;
}
// * * * * * * * * * * * * * * * * * * * * * * * * * * * * * * * * * * * * * //

dimensions      [];

internalField   nonuniform List<scalar> 
2268
(
6.0136e-13
7.21546e-13
8.0427e-13
6.7729e-13
4.69536e-13
2.67312e-13
1.27962e-13
5.64077e-14
3.43794e-14
3.32187e-14
4.0185e-14
7.3222e-14
1.38985e-13
2.58353e-13
4.55226e-13
8.09376e-13
1.42095e-12
1.96823e-12
3.77714e-12
1.19238e-11
2.09409e-11
4.95098e-11
2.42415e-10
1.90452e-12
2.63202e-12
2.69447e-12
2.52082e-12
1.98734e-12
1.17396e-12
5.26645e-13
2.6069e-13
2.26114e-13
2.86271e-13
6.13856e-13
1.22903e-12
2.33411e-12
4.00251e-12
6.86444e-12
1.13537e-11
1.74965e-11
2.61344e-11
2.96957e-11
1.21184e-10
5.35246e-10
2.06595e-09
6.43908e-09
4.33162e-12
6.79978e-12
6.82408e-12
6.01924e-12
5.14762e-12
4.20619e-12
1.97714e-12
8.804e-13
8.41146e-13
1.39086e-12
3.11618e-12
7.82628e-12
1.58112e-11
3.10429e-11
5.70784e-11
9.74464e-11
1.70468e-10
2.72876e-10
1.08943e-10
5.5695e-10
3.59759e-09
7.32921e-09
2.33217e-08
1.06159e-11
1.34581e-11
1.20986e-11
7.04767e-12
7.73639e-12
8.1874e-12
7.43512e-12
5.3569e-12
3.93818e-12
4.33407e-12
7.52058e-12
1.71196e-11
3.73119e-11
7.0778e-11
1.24757e-10
2.42808e-10
7.81095e-10
3.98366e-09
1.81172e-08
3.54178e-08
2.15298e-08
1.40363e-08
2.61015e-08
1.41464e-11
1.65203e-11
9.98343e-12
6.91083e-12
8.14907e-12
1.05567e-11
1.1763e-11
1.22953e-11
1.22065e-11
1.19104e-11
1.32786e-11
2.19085e-11
4.35195e-11
7.31365e-11
1.13199e-10
1.66788e-10
5.09992e-10
6.69067e-09
6.03116e-08
1.32089e-07
1.34547e-08
1.34968e-08
1.35275e-08
1.18474e-10
7.87244e-10
4.65732e-08
8.41277e-08
5.40275e-12
4.87636e-12
6.98963e-12
1.14572e-11
1.60009e-11
2.53818e-11
3.89312e-11
4.72017e-11
5.71432e-11
7.1437e-11
3.48189e-10
1.6717e-09
2.05066e-09
1.88382e-09
5.29257e-08
4.14078e-07
2.7559e-06
5.84875e-05
0.000141139
1.32237e-10
4.61135e-09
1.37325e-07
5.20762e-07
3.85542e-07
2.03929e-07
6.45503e-12
6.38672e-12
6.45146e-12
4.95903e-11
2.63044e-10
4.24623e-10
5.80691e-10
7.47578e-10
4.5638e-09
2.39899e-08
4.00716e-08
4.03061e-08
1.35419e-07
4.91723e-06
8.24882e-05
0.00127158
0.002692
1.22177e-08
2.47656e-08
3.11405e-08
1.88448e-07
1.19822e-06
1.4877e-06
2.29562e-07
6.45506e-12
4.90272e-10
2.01568e-09
3.05104e-09
4.22928e-09
4.82633e-09
6.54854e-09
1.67754e-08
4.73889e-08
8.59599e-08
1.60761e-07
1.64249e-06
2.65052e-05
0.000189516
0.00156398
0.00367727
0.000368082
0.0160491
0.0343653
0.0452076
0.0565406
0.0565405
0.0565027
0.0474787
0.0454506
0.0454819
0.0656192
0.0607841
0.066411
0.0615706
0.0479063
0.01444
0.0137502
0.0136261
0.0131942
0.000368082
0.00155402
0.00808974
0.0108678
0.0158846
0.0250616
0.0219051
0.0343319
0.0917755
0.118578
0.0654624
0.0612199
0.0803607
0.133937
0.121675
0.070306
0.0132751
0.0131958
0.0131911
0.00222988
0.00375618
0.00899252
0.0102191
0.000807885
3.01118e-05
2.69894e-05
0.000148518
0.136588
0.382568
0.390531
0.252405
0.300143
0.3544
0.33413
0.181797
0.0528864
0.0285355
0.0524816
0.0137657
0.0179118
0.0243052
0.0243112
0.0178897
0.000904292
3.00514e-05
0.000436717
0.0323244
0.334397
0.574822
0.575016
0.574985
0.574913
0.574873
0.481724
0.300709
0.216829
0.259961
0.0132104
0.00969642
0.014333
0.0193998
0.0173513
0.00159098
0.00331798
0.0207695
0.0161798
0.00513765
0.18137
0.555451
0.573259
0.554808
0.15297
0.0552863
0.0715561
0.0304375
0.185426
0.00970131
0.00968821
0.00986883
0.00976211
0.00977395
0.00914477
0.0493716
0.0623639
0.0389083
0.000753852
1.46768e-05
0.126779
0.483029
0.199163
3.08654e-06
3.0888e-06
3.08888e-06
3.09128e-06
0.169284
0.0121718
0.0408712
0.042554
0.0204788
0.00980624
0.0421667
0.0674713
0.0720552
0.0315037
0.000176612
1.42944e-05
0.000234474
0.479461
0.137358
3.08676e-06
1.29225e-05
9.19367e-06
3.39881e-06
0.174888
0.041373
0.055509
0.0560312
0.0370851
0.0312828
0.0905209
0.180714
0.0815249
0.000149492
0.000142507
1.74897e-05
0.017041
0.462058
0.141234
3.08459e-06
7.08278e-06
0.000455524
0.0014019
0.180493
1.98803e-08
2.30487e-08
2.35253e-08
2.58084e-08
3.29427e-05
1.52649e-06
2.38234e-07
1.36855e-07
8.99437e-08
4.81287e-08
3.51463e-08
2.62554e-08
1.9074e-08
1.8896e-08
3.58974e-08
7.51785e-08
1.30892e-07
1.85656e-07
2.07598e-07
4.31462e-07
-6.42519e-07
0.000165673
0.00305407
2.09155e-08
2.15876e-08
0.000907291
0.000474639
2.72674e-05
1.42799e-08
1.38302e-08
2.87753e-08
1.82673e-08
1.7686e-08
1.55141e-08
6.77531e-08
8.94374e-08
1.10509e-07
1.43651e-07
1.97406e-07
2.52721e-07
3.39221e-07
0.00115413
0.00694353
0.0167784
0.0248439
0.0452893
0.0235583
0.0130573
0.00183231
0.000342753
3.21101e-05
1.12822e-08
6.17861e-10
5.17596e-10
6.15733e-10
0.000117631
0.000536669
0.00131153
0.00513069
0.01539
0.0309015
0.0504755
0.0688086
0.0730783
0.0758166
0.0831765
0.091888
0.0922
0.134275
0.117144
0.0653984
0.00145491
3.02056e-05
9.27162e-08
0.00301089
0.0518667
0.111684
0.114219
0.107909
0.10946
0.114026
0.116565
0.136855
0.150329
0.150295
0.150329
0.150232
0.120672
0.087395
0.0751866
0.0375434
0.0505576
0.117144
0.0406384
3.40305e-05
3.2331e-05
1.02749e-07
0.0352008
0.183038
0.185589
0.185432
0.183386
0.184554
0.184912
0.146794
0.0652254
0.0596227
0.0988492
0.106382
0.0345827
0.000170624
2.14968e-07
1.75652e-07
2.31683e-07
0.0132916
0.0538016
0.00412077
0.000111591
3.87425e-08
0.00879004
0.0494611
0.0402601
0.0105229
0.00582582
0.0130258
0.0125186
0.00410484
2.01911e-06
7.93282e-08
3.08634e-08
2.80975e-08
6.00808e-08
6.98845e-08
5.80755e-09
7.77493e-11
0.000257457
0.000478004
4.6808e-08
0.000425228
-2.56044e-11
-1.24227e-07
-5.44254e-08
4.0365e-05
0.000667353
1.45105e-06
4.57318e-08
2.23707e-08
8.13766e-09
-5.70962e-11
5.70962e-11
-4.26841e-10
-6.79193e-13
-1.06e-14
3.35229e-08
3.57401e-08
9.20467e-08
-5.98597e-14
-9.21059e-13
-4.96956e-11
5.02846e-23
2.16403e-17
0.039933
0.04113
0.0453959
0.0563395
0.0737119
0.0953956
0.115344
0.133017
0.151956
0.172344
0.19415
0.216897
0.239179
0.260003
0.275736
0.285195
0.290785
0.294884
0.291043
0.271186
0.236543
0.193917
0.152291
0.742773
0.729644
0.737171
0.763737
0.791877
0.816651
0.844392
0.8745
0.899771
0.91878
0.93394
0.946539
0.956889
0.964936
0.96984
0.97119
0.968785
0.962555
0.952048
0.937662
0.919067
0.895454
0.868876
1
1
0.999996
0.999998
1
1
1
1
1
1
1
1
1
1
1
1
1
1
0.999999
0.999999
0.999998
0.999999
0.999999
0.999998
0.999999
0.999999
0.999999
1
1
1
0.999998
1
0.999999
1
1
1
1
1
1
1
1
1
1
1
1
1
0.999998
0.999998
0.999997
0.999999
1
0.999997
0.99996
0.999889
0.999952
0.999998
0.999999
1
1
1
1
1
1
1
1
1
1
1
1
0.999997
0.99999
0.999977
0.999994
1
0.999977
0.999835
0.999834
0.999844
0.999991
0.999999
0.999999
0.999999
0.999999
1
1
1
1
1
1
1
1
1
0.999996
0.999966
0.999946
0.999965
1
0.999958
0.999835
0.999834
0.999833
0.99995
0.999997
0.999997
0.999999
0.999999
1
1
1
1
1
1
1
1
1
0.999996
0.99996
0.999946
0.999957
1
1
0.999937
0.999836
0.999871
0.999992
0.999997
0.999997
0.999997
0.999999
1
1
1
1
1
1
1
1
1
0.999998
0.999978
0.999951
0.999985
1
1
1
0.999997
0.999997
0.999999
0.999998
0.999997
0.999997
0.999999
1
1
1
1
1
1
1
1
1
0.999998
0.999997
0.999995
0.999999
1
1
1
1
1
1
0.999999
0.999999
0.999999
1
1
1
1
1
1
1
1
1
1
0.999999
0.999999
1
1
1
1
1
1
1
1
0.999999
0.999999
0.999999
1
1
1
1
1
1
1
1
1
1
0.999999
1
1
1
1
1
1
1
1
1
1
0.999999
0.999999
1
1
1
1
1
1
1
1
1
1
0.999999
1
1
1
1
1
1
1
1
1
1
1
1
1
1
1
1
1
1
1
1
1
1
1
1
1
1
1
1
1
1
1
1
1
1
1
1
1
1
1
1
1
1
1
1
1
1
1
1
1
1
1
1
1
1
1
1
1
1
1
1
1
1
1
1
1
1
1
1
1
1
1
1
1
1
1
1
1
1
1
1
1
1
1
1
1
1
1
1
1
1
1
1
1
1
1
1
1
1
1
1
1
1
1
1
1
1
1
1
1
1
1
1
1
1
1
1
1
1
1
1
1
1
1
1
1
1
1
1
1
1
1
1
1
1
1
1
1
1
1
1
1
1
1
1
1
1
1
1
1
1
1
1
1
1
1
1
1
1
1
1
1
1
1
1
1
1
1
1
1
1
1
1
1
1
1
1
1
1
1
1
1
1
1
1
1
1
1
1
1
1
1
1
1
1
1
1
1
1
1
1
1
1
1
1
1
1
1
1
1
1
1
1
1
1
1
1
1
1
1
1
1
1
1
1
1
1
1
1
1
1
1
1
1
1
1
1
1
1
1
1
1
1
1
1
1
1
1
1
1
1
1
1
1
1
1
1
1
1
1
1
1
1
1
1
1
1
1
1
1
1
1
1
1
1
1
1
1
1
1
1
1
1
1
1
1
1
1
1
1
1
1
1
1
1
1
1
1
1
1
1
1
1
1
1
1
1
1
1
1
1
1
1
1
1
1
1
1
1
1
1
1
1
1
1
1
1
1
1
1
1
1
1
1
1
1
1
1
1
1
1
1
1
1
1
1
1
1
1
1
1
1
1
1
1
1
1
1
1
1
1
1
1
1
1
1
1
1
1
1
1
1
1
1
1
1
1
1
1
1
1
1
1
1
1
1
1
1
1
1
1
1
1
1
1
1
1
1
1
1
1
1
1
1
1
1
1
1
1
1
1
1
1
1
1
1
1
1
1
1
1
1
1
1
1
1
1
1
1
1
1
1
1
1
1
1
1
1
1
1
1
1
1
1
1
1
1
1
1
1
1
1
1
1
1
1
1
1
1
1
1
1
1
1
1
1
1
1
1
1
1
1
1
1
1
1
1
1
1
1
1
1
1
1
1
1
1
1
1
1
1
1
1
1
1
1
1
1
1
1
1
1
1
1
1
1
1
1
1
1
1
1
1
1
1
1
1
1
1
1
1
1
1
1
1
1
1
1
1
0.0106663
0.0150081
0.0116531
0.00273858
0.102066
0.100367
0.0439571
0.00340331
0.137169
0.137192
0.137169
0.0715357
0.122922
0.137169
0.137184
0.122388
0.023509
0.0194048
0.00577442
0.000908474
7.87909e-13
1.5884e-13
1.33312e-15
-1.48038e-22
3.70313e-19
2.80925e-17
5.96255e-14
1.72472e-25
0.130023
0.115787
0.103117
0.0903583
0.854856
0.844502
0.834072
0.823095
0.999999
0.999999
0.999998
0.999999
1
1
1
1
1
1
1
1
1
1
1
1
1
1
1
1
1
1
1
1
1
1
1
1
1
1
1
1
1
1
1
1
1
1
1
1
1
1
1
1
1
1
1
1
1
1
1
1
1
1
1
1
1
1
1
1
1
1
1
1
1
1
1
1
1
1
1
1
1
1
1
1
1
1
1
1
1
1
1
1
1
1
1
1
1
1
1
1
1
1
1
1
1
1
1
1
1
1
1
1
1
1
1
1
1
1
1
1
1
1
1
1
1
1
1
1
1
1
1
1
1
1
1
1
1
1
1
1
0.00266884
0.0107863
0.0110659
0.0112714
0.0391775
0.177365
0.180809
0.0537095
0.000574779
0.000583177
0.000357446
0.0200274
0.341591
0.0428492
3.08711e-06
3.09209e-06
0.00966271
0.0428931
0.153776
0.00881262
0.00838266
0.0303811
0.0440698
0.15885
0.180855
0.180729
0.136619
0.0103349
4.77813e-09
0.00061906
0.00117275
0.0069013
0.000841895
0.000167295
0.000508494
0.0296761
0.0615931
0.0664143
0.0866726
0.141317
0.180851
0.180857
0.180789
0.180858
0.180861
0.180858
0.0674559
1.13662e-10
0.0001543
0.000759173
0.000666606
0.000599064
0.000145849
0.00160829
0.0379677
0.0604761
0.0570418
0.0872287
0.124436
0.136095
0.0969206
0.0787015
0.166746
0.180864
0.180868
0.0558265
1.94709e-11
4.15941e-06
3.09602e-05
5.31776e-05
4.67481e-05
0.000141848
0.000514712
0.0098654
0.0181284
0.00667649
2.60209e-20
0.00603539
0.00455106
5.44171e-05
0.00014762
0.0405143
0.138555
0.108826
0.0129158
2.14579e-11
7.85606e-07
1.97081e-07
9.74612e-10
6.29217e-08
0.000103379
0.000219148
1.16612e-05
-4.55444e-10
3.14329e-25
-2.27972e-24
9.40001e-28
4.52379e-10
5.2907e-05
4.62135e-05
6.38419e-05
0.0046437
0.00220966
2.54309e-08
1.01867e-07
2.68173e-07
2.03007e-07
3.91998e-08
7.10865e-09
1.18923e-05
5.15822e-05
3.04077e-05
6.89651e-06
1.10173e-07
-8.3648e-14
-1.19832e-25
1.29928e-07
5.0152e-23
-1.19913e-23
-3.53042e-17
3.53107e-17
1.35101e-08
4.91974e-10
3.57446e-09
2.55918e-14
-1.63349e-23
7.27884e-09
9.48237e-08
1.11182e-06
-5.06795e-09
-4.43205e-16
-1.14201e-08
-1.98699e-10
0.0693734
0.0425681
0.0202499
0.0021829
-1.38759e-11
-2.38689e-10
1.20033e-28
1.43725e-12
3.90411e-13
1.52944e-08
-2.55916e-14
2.96728e-19
1.11597e-19
1.44326e-10
0.000107984
0.00327098
0.00785403
0.0121404
0.00839327
0.801967
0.774882
0.741325
0.695395
0.62089
0.540133
0.475128
0.434409
0.411941
0.396458
0.383501
0.372969
0.364584
0.363942
0.426304
0.517008
0.564499
0.584718
0.55739
0.999999
0.999999
0.999999
0.999998
0.999998
0.999388
0.996768
0.993124
0.989666
0.986442
0.983799
0.982286
0.982786
0.986678
0.995007
0.993289
0.993826
0.995041
0.993689
1
1
0.999999
0.999828
0.999573
0.999389
0.999441
0.999835
0.999977
0.999962
0.999919
0.999828
0.999742
0.999499
0.999988
1
1
1
0.999993
1
0.999999
1
0.999665
0.999169
0.999172
0.999185
0.999788
0.99999
0.999979
0.99968
0.999413
0.999408
0.999594
0.999986
0.999999
1
1
1
1
1
1
0.999975
0.999988
0.999956
0.999983
0.999977
0.999998
0.999998
0.999852
0.999526
0.9996
0.999847
0.999997
0.999999
1
1
1
1
1
1
1
1
1
0.999999
0.999999
0.999999
0.999996
0.999995
0.999999
1
1
0.999999
0.999999
1
1
1
1
1
1
1
1
1
1
1
0.999999
0.999999
1
1
1
1
1
1
1
1
1
1
1
1
1
1
1
1
1
1
1
1
1
1
1
1
1
1
1
1
1
1
1
1
1
1
1
1
1
1
1
1
1
1
1
1
1
1
1
1
1
1
1
1
1
1
1
1
1
1
1
1
1
1
1
1
1
1
1
1
1
1
1
1
1
1
1
1
1
1
1
1
1
1
1
1
1
1
1
1
1
1
1
1
1
1
1
1
1
1
1
1
1
1
1
1
1
1
1
1
1
1
1
1
1
1
1
1
1
1
1
1
1
1
1
1
1
1
1
1
1
1
1
1
1
1
1
1
1
1
1
1
1
1
1
1
1
1
1
1
1
1
1
1
1
1
1
1
1
1
1
1
1
1
1
1
1
1
1
1
1
1
1
1
1
1
1
1
1
1
1
1
1
1
1
1
1
1
1
1
1
1
1
1
1
1
1
1
1
1
1
1
1
1
1
1
1
1
1
1
1
1
1
1
1
1
1
1
1
1
1
1
1
1
1
1
1
1
1
1
1
1
1
1
1
1
1
1
1
1
1
1
1
1
1
1
1
1
1
1
1
1
1
1
1
1
1
1
1
1
1
1
1
1
1
1
1
1
1
1
1
1
1
1
1
1
1
1
1
1
1
1
1
1
1
1
1
1
1
1
1
1
1
1
1
1
1
1
1
1
1
1
1
1
1
1
1
1
1
1
1
1
1
1
1
1
1
1
1
1
1
1
1
1
1
1
1
1
1
1
1
1
1
1
1
1
1
1
1
1
1
1
1
1
1
1
1
1
1
1
1
1
1
1
1
1
1
1
1
1
1
1
1
1
1
1
1
1
1
1
1
1
1
1
1
1
1
1
1
1
1
1
1
1
1
1
1
1
1
1
1
1
1
1
1
1
1
1
1
1
1
1
1
1
1
1
1
1
1
1
1
1
1
1
1
1
1
1
1
1
1
1
1
1
1
1
1
1
1
1
1
1
1
1
1
1
1
1
1
1
1
1
1
1
1
1
1
1
1
1
1
1
1
1
1
1
1
1
1
1
1
1
1
1
1
1
1
1
1
1
1
1
1
1
1
1
1
1
1
1
1
1
1
1
1
1
1
1
1
1
1
1
1
1
1
1
1
1
1
1
1
1
1
1
1
1
1
1
1
1
1
1
1
1
1
1
1
1
1
1
1
1
1
1
)
;

boundaryField
{
    leftWall
    {
        type            alphaContactAngle;
        contactAngleProperties 
        {
            mercury         
            {
                theta0          90;
            }
            water           
            {
                theta0          90;
            }
            oil             
            {
                theta0          90;
            }
        }
        value           nonuniform List<scalar> 
50
(
6.0136e-13
1.90452e-12
4.33162e-12
1.06159e-11
1.41464e-11
1.18474e-10
1.32237e-10
1.22177e-08
1.98803e-08
2.09155e-08
0.0235583
0.117144
0.117144
0.0538016
0.000425228
0.039933
0.742773
1
0.999998
0.999998
0.999997
0.999996
0.999996
0.999998
0.999998
0.999999
0.999999
0.999999
1
1
1
1
1
1
1
1
1
1
1
1
1
1
1
1
1
1
1
1
1
1
)
;
    }
    rightWall
    {
        type            alphaContactAngle;
        contactAngleProperties 
        {
            mercury         
            {
                theta0          90;
            }
            water           
            {
                theta0          90;
            }
            oil             
            {
                theta0          90;
            }
        }
        value           nonuniform List<scalar> 
50
(
0.0131942
0.0131911
0.0524816
0.259961
0.185426
0.169284
0.174888
0.180493
0.153776
0.0664143
0.0570418
0.00667649
3.14329e-25
1.10173e-07
-1.98699e-10
0.00839327
0.55739
0.993689
0.999993
1
1
1
1
1
1
1
1
1
1
1
1
1
1
1
1
1
1
1
1
1
1
1
1
1
1
1
1
1
1
1
)
;
    }
    lowerWall
    {
        type            alphaContactAngle;
        contactAngleProperties 
        {
            mercury         
            {
                theta0          90;
            }
            water           
            {
                theta0          90;
            }
            oil             
            {
                theta0          90;
            }
        }
        value           nonuniform List<scalar> 
62
(
6.0136e-13
7.21546e-13
8.0427e-13
6.7729e-13
4.69536e-13
2.67312e-13
1.27962e-13
5.64077e-14
3.43794e-14
3.32187e-14
4.0185e-14
7.3222e-14
1.38985e-13
2.58353e-13
4.55226e-13
8.09376e-13
1.42095e-12
1.96823e-12
3.77714e-12
1.19238e-11
2.09409e-11
4.95098e-11
2.42415e-10
2.42415e-10
6.43908e-09
2.33217e-08
2.61015e-08
1.35275e-08
0.000141139
0.002692
0.00367727
0.0106663
0.0150081
0.0116531
0.00273858
0.000368082
0.000368082
0.00222988
0.0137657
0.0132104
0.00970131
0.0121718
0.041373
0.000368082
0.0160491
0.0343653
0.0452076
0.0565406
0.0565405
0.0565027
0.0474787
0.0454506
0.0454819
0.0656192
0.0607841
0.066411
0.0615706
0.0479063
0.01444
0.0137502
0.0136261
0.0131942
)
;
    }
    atmosphere
    {
        type            inletOutlet;
        inletValue      uniform 1;
        value           nonuniform List<scalar> 
46
(
1
1
0.999999
0.999999
0.999999
1
1
1
1
1
1
1
1
1
1
1
1
1
1
1
1
1
1
1
1
1
1
1
1
1
1
1
1
1
1
1
1
1
1
1
1
1
1
1
1
1
)
;
    }
    defaultFaces
    {
        type            empty;
    }
}


// ************************************************************************* //
