/*--------------------------------*- C++ -*----------------------------------*\
  =========                 |
  \\      /  F ield         | OpenFOAM: The Open Source CFD Toolbox
   \\    /   O peration     | Website:  https://openfoam.org
    \\  /    A nd           | Version:  13
     \\/     M anipulation  |
\*---------------------------------------------------------------------------*/
FoamFile
{
    format      ascii;
    class       volScalarField;
    location    "2.9";
    object      alpha.oil;
}
// * * * * * * * * * * * * * * * * * * * * * * * * * * * * * * * * * * * * * //

dimensions      [];

internalField   nonuniform List<scalar> 
2268
(
6.82539e-14
3.90366e-13
1.43748e-12
4.09713e-12
1.03249e-11
2.13592e-11
4.20323e-11
8.073e-11
1.51876e-10
2.79697e-10
4.78509e-10
1.00765e-09
1.81066e-09
3.11119e-09
5.09874e-09
7.84288e-09
9.96322e-09
5.20572e-08
3.1114e-06
0.000300179
0.000548701
0.000548216
0.000504623
5.67553e-14
3.40061e-13
1.37058e-12
4.39112e-12
1.08916e-11
2.36563e-11
4.77869e-11
9.17869e-11
1.67192e-10
2.87349e-10
6.74908e-10
1.3284e-09
2.72171e-09
5.81004e-09
1.37776e-08
3.33222e-08
5.52562e-08
1.32934e-07
2.84446e-06
1.69316e-05
4.1895e-05
4.9557e-05
6.7888e-09
1.11803e-13
5.12125e-13
1.02889e-12
2.5941e-12
7.39354e-12
2.18422e-11
5.36739e-11
9.74415e-11
1.86386e-10
3.30117e-10
6.06563e-10
1.16768e-09
1.85416e-09
2.83598e-09
4.16123e-09
7.20419e-09
2.92523e-08
6.9336e-08
5.1145e-08
7.51842e-09
6.85132e-09
7.51919e-09
2.62691e-08
1.2296e-13
1.20352e-12
2.38904e-12
4.22094e-12
8.89599e-12
1.88044e-11
3.96308e-11
1.04067e-10
1.96723e-10
3.46024e-10
6.37448e-10
1.2182e-09
2.20892e-09
3.69494e-09
6.01481e-09
9.75517e-09
1.54352e-08
2.52592e-08
3.78887e-08
4.32435e-08
2.40129e-08
7.71416e-08
1.01795e-07
6.00368e-11
8.30542e-11
6.67809e-11
4.78131e-11
3.43333e-11
3.0236e-11
4.04541e-11
7.67558e-11
1.52838e-10
2.8994e-10
5.2896e-10
1.12854e-09
2.35125e-09
3.89677e-09
6.11671e-09
9.75845e-09
2.31344e-08
5.18755e-08
7.13256e-08
3.36498e-08
3.21441e-08
6.2377e-07
1.00532e-05
3.74788e-10
3.81739e-10
3.14969e-10
2.40994e-10
1.81744e-10
1.25676e-10
8.45611e-11
7.85236e-11
9.61425e-11
1.43893e-10
3.22582e-10
7.83764e-10
1.64877e-09
2.20044e-09
2.01495e-09
6.51576e-10
1.16872e-07
5.21961e-07
7.53537e-07
4.38509e-07
4.26603e-07
7.6793e-06
2.27596e-05
1.85959e-09
1.60494e-09
1.19819e-09
9.09261e-10
7.39555e-10
5.92697e-10
4.0379e-10
2.35305e-10
1.50664e-10
1.38662e-10
1.64344e-10
3.98348e-10
7.75483e-10
8.73671e-10
6.24301e-10
6.20732e-10
1.96934e-07
1.02134e-06
1.17151e-06
1.18244e-06
2.97194e-06
1.27382e-05
2.26819e-05
3.41817e-09
3.34619e-09
2.68568e-09
2.07692e-09
1.62839e-09
1.43233e-09
1.17908e-09
7.5703e-10
4.51217e-10
2.94901e-10
2.54386e-10
2.79664e-10
3.78784e-10
5.10583e-10
7.70724e-10
4.78467e-09
4.4846e-08
2.74143e-07
7.53961e-07
7.84977e-07
3.68238e-06
2.53516e-06
3.23513e-06
0.113482
0.0643525
0.0406435
0.0403581
0.155287
0.285474
0.28552
0.282278
0.261089
0.256877
0.271097
0.237484
0.111354
0.0613118
0.0749625
0.109733
0.19207
0.230928
0.222809
0.115779
0.111733
0.0877182
0.0517073
0.0579898
0.0804884
0.102565
0.0598073
0.0316308
0.0506335
0.171156
0.236592
0.121481
0.0613463
0.0612957
0.153026
0.231845
0.231342
0.222804
0.390704
0.359898
0.379319
0.382862
0.142842
0.00582951
0.00189306
0.00170333
0.00178794
0.0017995
0.0398805
0.155785
0.174017
0.0806616
0.0651582
0.205198
0.363243
0.426662
0.447908
0.446041
0.446402
0.446053
0.398888
0.39462
0.380008
0.251866
0.16573
0.0818303
0.003597
0.0736884
0.171045
0.174011
0.227012
0.260428
0.342321
0.387595
0.382079
0.448381
0.388978
0.168379
0.119669
0.0271316
0.317806
0.707103
0.73305
0.736909
0.423072
0.0229632
0.000161582
0.0689007
0.307877
0.315716
0.305172
0.138739
0.0723917
0.000163433
0.305012
0.049012
0.00673409
0.006433
0.00630495
0.405237
0.742439
0.742483
0.726208
0.472233
0.0265895
9.49099e-05
7.51655e-05
0.271818
0.314977
0.0296842
0.000163459
0.00016343
0.000163461
0.177037
0.024157
0.00715837
0.00630495
0.0061932
0.394243
0.742527
0.731221
0.351163
0.00869571
0.000282864
1.84255e-06
4.00354e-05
0.161023
0.288032
0.00022004
0.00016343
0.000163459
0.000582186
0.0154258
0.0149702
0.0188788
0.0152181
0.00625268
0.197769
0.66534
0.520796
0.0397363
2.04949e-06
1.02689e-06
1.4993e-06
0.0194199
0.195087
0.276924
0.014691
0.000169166
0.000163431
0.000257889
0.000426794
3.22732e-09
3.14511e-09
2.68624e-09
2.3057e-09
2.00973e-09
1.85454e-09
1.81523e-09
1.71573e-09
1.37047e-09
9.77108e-10
6.69692e-10
4.58464e-10
3.68664e-10
3.95368e-10
5.18784e-10
7.35524e-10
7.47717e-10
1.83663e-11
6.7186e-19
1.67525e-08
1.15949e-06
-3.5029e-08
-4.25999e-08
1.37678e-09
1.09354e-09
1.04049e-09
8.48725e-10
7.83673e-10
5.81582e-09
4.59249e-09
3.11516e-09
2.24294e-09
1.81548e-09
1.37809e-09
8.99918e-10
4.9775e-10
2.77166e-10
2.4837e-10
4.3995e-10
1.11918e-08
-9.69006e-20
4.31037e-19
-2.27368e-12
-7.82229e-11
0.00279057
0.0048733
1.88183e-18
3.16441e-20
1.27239e-20
4.14123e-20
1.99384e-20
-2.14281e-13
-4.06483e-11
-1.25186e-11
-6.33372e-12
1.13521e-13
-1.03157e-14
-1.75722e-14
-3.87749e-15
-9.23707e-16
-4.79269e-16
0.000460117
0.00828874
0.0435754
0.135205
0.248075
0.36209
0.476335
0.484908
3.78382e-05
0.121286
0.257984
0.282794
0.271805
0.197678
0.0743715
0.0253305
0.0328135
0.0525003
0.0764583
0.113668
0.180703
0.268911
0.342881
0.409653
0.503
0.64834
0.803826
0.907
0.924813
0.962456
0.949442
0.619142
0.845466
0.95189
0.960157
0.958994
0.891411
0.673292
0.649633
0.672973
0.707075
0.738657
0.775428
0.849064
0.934775
0.940377
0.901151
0.893618
0.965417
0.999829
1
1
1
0.986703
0.94615
0.995854
0.99984
0.999866
0.990758
0.950539
0.95974
0.989477
0.994174
0.986974
0.987481
0.995895
0.999998
1
1
1
1
1
1
1
0.999742
0.99952
0.999985
0.999529
0.999546
0.999893
0.999969
0.999959
0.999333
0.999999
1
1
1
1
1
1
1
1
1
1
1
1
1
1
0.999999
0.999998
0.95998
0.958252
0.954431
0.94366
0.926288
0.904604
0.884656
0.866983
0.848044
0.827656
0.80585
0.783103
0.760821
0.739996
0.724263
0.714805
0.709214
0.705115
0.708956
0.728814
0.763457
0.806083
0.847708
0.257196
0.270047
0.262726
0.236262
0.208123
0.183349
0.155608
0.1255
0.100229
0.0812198
0.0660605
0.0534613
0.0431104
0.0350636
0.0301596
0.0288102
0.0312149
0.0374455
0.0479525
0.0623377
0.0809326
0.104546
0.131123
3.84295e-09
6.16612e-09
3.84295e-09
5.94879e-09
3.61405e-09
6.60678e-14
2.48258e-13
2.74687e-13
3.18658e-14
8.21856e-15
7.42396e-22
8.10824e-26
2.31786e-26
1.46806e-26
-1.53166e-14
-1.27834e-13
-5.00339e-10
3.62246e-07
7.60477e-07
1.2046e-06
1.55547e-06
9.22115e-07
1.39658e-06
1.24294e-06
3.20168e-07
9.98106e-08
1.45752e-07
3.57029e-07
3.44738e-07
3.05179e-11
1.59517e-06
2.72417e-07
3.45762e-07
4.79671e-08
3.17999e-08
2.72885e-08
2.95975e-08
3.98738e-08
5.66898e-08
6.01382e-08
5.65261e-08
5.40479e-08
5.86327e-08
7.03055e-08
1.46723e-07
1.03775e-07
1.28876e-06
3.42997e-07
1.03613e-07
1.12185e-07
3.21753e-07
2.62069e-06
3.95072e-05
0.000109513
4.57191e-05
1.11452e-06
7.54125e-09
3.69182e-08
2.9591e-08
5.46087e-08
1.79952e-07
2.64046e-07
2.13995e-07
1.656e-07
1.30179e-07
9.56757e-08
1.05404e-07
1.28653e-07
1.60698e-07
1.79956e-06
6.19762e-06
1.91756e-05
5.51307e-06
1.94528e-07
2.2542e-05
0.000164345
0.000163839
0.000152957
5.44507e-06
-7.41543e-12
8.46049e-10
8.40427e-10
1.1325e-07
2.66266e-07
2.66492e-07
2.66636e-07
1.8358e-07
1.25773e-07
1.04122e-07
1.09083e-07
1.1199e-07
1.53813e-07
3.57904e-06
2.99482e-05
4.94535e-05
3.23339e-05
1.87786e-07
4.17223e-05
0.000164229
0.000164222
0.000163756
4.6454e-05
-1.16007e-21
6.34027e-10
1.12345e-09
1.45618e-07
2.66551e-07
2.66352e-07
2.62028e-07
1.99388e-07
1.25792e-07
8.60511e-08
8.73162e-08
7.5996e-08
9.20869e-08
3.46839e-06
3.80227e-05
5.01932e-05
4.12058e-05
1.7975e-07
1.72719e-07
6.28848e-05
0.000164229
0.000128404
4.16784e-06
-8.78813e-26
8.39015e-09
6.27702e-09
5.08706e-08
1.48263e-07
2.13526e-07
2.36423e-07
1.93883e-07
1.17034e-07
8.51212e-08
6.90964e-08
4.73641e-08
5.52416e-08
2.38108e-06
2.2153e-05
4.76604e-05
1.44713e-05
1.72718e-07
1.64142e-07
1.21921e-07
2.77628e-06
3.34689e-06
4.81155e-07
5.40057e-16
5.79324e-08
4.75021e-08
1.0536e-08
3.33416e-08
1.13872e-07
1.67002e-07
1.56663e-07
1.12602e-07
8.42457e-08
5.27672e-08
2.91237e-08
2.92791e-08
1.88054e-06
3.49319e-06
5.38461e-06
7.7171e-07
2.03658e-07
9.00441e-08
1.19456e-07
1.00945e-07
1.04262e-07
1.1719e-07
4.04778e-07
6.70748e-07
2.39429e-07
7.72817e-09
8.03141e-09
3.52654e-08
6.08081e-08
1.03962e-07
8.49018e-08
6.06187e-08
4.23721e-08
2.66883e-08
1.75008e-08
8.81381e-07
8.62307e-07
2.47858e-07
1.94049e-07
1.0999e-07
9.15592e-08
1.05636e-07
9.68076e-08
1.00553e-07
2.37354e-07
6.6819e-07
7.07971e-07
6.24816e-07
7.04041e-08
7.53194e-09
7.62322e-09
2.60171e-08
5.15096e-08
4.95115e-08
3.84565e-08
2.70593e-08
1.764e-08
1.19777e-08
6.93605e-07
4.04275e-07
1.89202e-07
8.71297e-08
8.76707e-08
8.64661e-08
8.73992e-08
7.43576e-08
6.31899e-08
1.19361e-07
3.93679e-07
7.10837e-07
5.21443e-07
1.31163e-07
7.43525e-09
7.53225e-09
1.04675e-08
2.09557e-08
2.30944e-08
1.96125e-08
1.56108e-08
1.15948e-08
7.59723e-09
5.17425e-07
4.21925e-07
2.06233e-07
8.98594e-08
7.55063e-08
7.5127e-08
6.86996e-08
5.58044e-08
4.16515e-08
7.13885e-08
1.56485e-07
3.26991e-07
2.83485e-07
7.65436e-08
2.31719e-08
1.26076e-08
9.32969e-09
9.81595e-09
1.12392e-08
1.0584e-08
8.53832e-09
6.38666e-09
5.02131e-09
3.52584e-07
3.76262e-07
2.00186e-07
8.93906e-08
6.96129e-08
5.99531e-08
5.05375e-08
3.94836e-08
3.1766e-08
4.01512e-08
6.01442e-08
7.63995e-08
6.23767e-08
3.77473e-08
2.20475e-08
1.23027e-08
8.5472e-09
7.71347e-09
7.15944e-09
6.59966e-09
5.53469e-09
4.50385e-09
3.49824e-09
2.43142e-07
2.94666e-07
1.57561e-07
8.35128e-08
6.07472e-08
4.6723e-08
3.71204e-08
2.78245e-08
2.24555e-08
2.51665e-08
3.053e-08
2.91528e-08
2.06988e-08
1.73791e-08
1.28698e-08
8.84337e-09
6.86063e-09
5.83896e-09
5.08373e-09
4.47646e-09
3.83039e-09
3.0913e-09
2.60243e-09
1.37589e-07
1.95614e-07
1.22462e-07
7.47626e-08
5.36584e-08
3.80903e-08
2.79301e-08
2.02081e-08
1.58946e-08
1.5625e-08
1.66072e-08
1.46914e-08
1.12233e-08
8.85814e-09
7.08229e-09
5.76591e-09
4.7444e-09
4.02722e-09
3.35645e-09
2.9441e-09
2.53949e-09
2.17314e-09
1.82753e-09
8.08368e-08
1.21836e-07
9.10797e-08
6.44245e-08
4.62047e-08
3.14736e-08
2.2139e-08
1.55132e-08
1.14709e-08
9.68043e-09
8.59631e-09
7.12637e-09
5.52197e-09
4.50863e-09
3.87991e-09
3.38271e-09
2.87604e-09
2.42681e-09
2.03613e-09
1.78297e-09
1.5535e-09
1.28408e-09
1.12996e-09
5.4843e-08
8.51202e-08
7.25263e-08
5.45976e-08
3.92933e-08
2.62913e-08
1.78763e-08
1.20093e-08
8.30213e-09
6.21538e-09
4.84603e-09
3.7308e-09
2.96155e-09
2.46986e-09
2.14297e-09
1.87296e-09
1.59948e-09
1.34516e-09
1.11938e-09
9.67629e-10
8.21556e-10
6.9939e-10
6.16329e-10
3.95274e-08
6.29099e-08
5.81303e-08
4.47969e-08
3.21595e-08
2.18789e-08
1.4443e-08
9.28746e-09
5.99669e-09
4.0144e-09
2.80103e-09
2.03812e-09
1.58678e-09
1.31043e-09
1.11006e-09
9.609e-10
8.15016e-10
6.73691e-10
5.63458e-10
4.76345e-10
4.02881e-10
3.33808e-10
2.86978e-10
3.0309e-08
4.6426e-08
4.41382e-08
3.37997e-08
2.46797e-08
1.70561e-08
1.12887e-08
7.13064e-09
4.37789e-09
2.71898e-09
1.75922e-09
1.17978e-09
8.61809e-10
6.80854e-10
5.59463e-10
4.68605e-10
3.86221e-10
3.24406e-10
2.64479e-10
2.20501e-10
1.83455e-10
1.44913e-10
1.2325e-10
2.08393e-08
3.26704e-08
3.10291e-08
2.36684e-08
1.71263e-08
1.19593e-08
7.96969e-09
4.97957e-09
3.01522e-09
1.80789e-09
1.09257e-09
6.74431e-10
4.46289e-10
3.23154e-10
2.51985e-10
2.04336e-10
1.69314e-10
1.4125e-10
1.14653e-10
9.34348e-11
7.68145e-11
5.73833e-11
4.75636e-11
1.49494e-08
2.26042e-08
2.01129e-08
1.54611e-08
1.10932e-08
7.65854e-09
5.0798e-09
3.14422e-09
1.87005e-09
1.08717e-09
6.28664e-10
3.6422e-10
2.22861e-10
1.47222e-10
1.05946e-10
8.18118e-11
6.66505e-11
5.47071e-11
4.39024e-11
3.54287e-11
2.78117e-11
2.02805e-11
1.6288e-11
1.11855e-08
1.47615e-08
1.28804e-08
9.57463e-09
6.61377e-09
4.41725e-09
2.86974e-09
1.76322e-09
1.03758e-09
5.9072e-10
3.31238e-10
1.81564e-10
1.04511e-10
6.20545e-11
4.17124e-11
3.01305e-11
2.32866e-11
1.87635e-11
1.50147e-11
1.19344e-11
9.23802e-12
6.49881e-12
5.11165e-12
7.02542e-09
9.32511e-09
7.74055e-09
5.46225e-09
3.5672e-09
2.2796e-09
1.43885e-09
8.68363e-10
5.00677e-10
2.79987e-10
1.50821e-10
8.02779e-11
4.22764e-11
2.44492e-11
1.51217e-11
1.01084e-11
7.39767e-12
5.78112e-12
4.54769e-12
3.623e-12
2.65913e-12
1.89499e-12
1.43013e-12
4.63956e-09
5.64739e-09
4.32081e-09
2.86113e-09
1.75421e-09
1.06073e-09
6.2198e-10
3.65143e-10
2.07123e-10
1.13968e-10
5.83358e-11
2.97552e-11
1.58189e-11
8.57871e-12
4.91468e-12
3.12387e-12
2.17112e-12
1.64171e-12
1.25387e-12
9.61204e-13
7.25726e-13
4.90553e-13
3.54511e-13
2.68413e-09
2.93374e-09
2.12087e-09
1.30724e-09
7.46549e-10
4.26069e-10
2.43994e-10
1.36669e-10
7.58859e-11
3.79096e-11
1.95691e-11
9.99073e-12
5.05884e-12
2.64242e-12
1.44346e-12
8.68051e-13
5.48799e-13
4.05758e-13
3.00071e-13
2.23761e-13
1.55921e-13
1.09566e-13
7.5877e-14
1.4871e-09
1.41104e-09
9.04748e-10
5.3808e-10
2.95248e-10
1.47453e-10
7.68869e-11
4.23554e-11
2.17812e-11
1.18224e-11
5.96415e-12
2.92015e-12
1.40458e-12
7.0925e-13
3.59804e-13
2.06225e-13
1.29868e-13
9.13211e-14
6.51822e-14
4.7003e-14
3.2762e-14
2.15522e-14
1.38451e-14
6.45965e-10
4.97945e-10
3.07483e-10
1.64814e-10
8.5196e-11
4.40531e-11
2.29967e-11
1.16125e-11
6.21072e-12
3.17441e-12
1.56077e-12
7.23044e-13
3.38427e-13
1.59537e-13
8.11807e-14
4.47279e-14
2.75626e-14
1.85369e-14
1.29427e-14
8.68225e-15
5.71371e-15
3.66657e-15
2.21565e-15
2.88628e-10
1.91745e-10
1.0893e-10
5.6351e-11
2.76132e-11
1.31234e-11
6.36529e-12
3.18356e-12
1.61451e-12
7.73459e-13
3.58932e-13
1.6108e-13
7.15675e-14
3.31643e-14
1.65365e-14
9.03673e-15
5.44343e-15
3.51856e-15
2.3454e-15
1.49743e-15
9.30284e-16
5.45686e-16
3.04372e-16
8.4218e-11
5.78295e-11
3.19805e-11
1.61336e-11
7.68772e-12
3.53974e-12
1.64998e-12
7.88737e-13
3.70643e-13
1.72358e-13
7.55099e-14
3.21402e-14
1.40252e-14
6.37194e-15
3.11673e-15
1.66129e-15
9.78911e-16
6.13786e-16
3.88449e-16
2.31991e-16
1.32608e-16
7.08514e-17
3.80335e-17
2.33634e-11
1.3744e-11
7.30431e-12
3.70004e-12
1.78554e-12
8.26885e-13
3.76382e-13
1.7325e-13
7.87946e-14
3.55438e-14
1.50852e-14
6.16683e-15
2.55491e-15
1.10984e-15
5.23622e-16
2.75943e-16
1.60268e-16
9.73479e-17
5.80535e-17
3.22707e-17
1.65775e-17
8.30376e-18
5.92174e-18
3.77363e-12
2.13332e-12
1.22247e-12
6.72327e-13
3.5155e-13
1.70857e-13
7.70533e-14
3.47633e-14
1.5635e-14
6.86969e-15
2.76464e-15
1.07182e-15
4.23378e-16
1.77479e-16
8.2323e-17
4.29236e-17
2.46261e-17
1.43611e-17
7.89895e-18
3.94883e-18
1.88783e-18
1.11086e-18
2.26512e-18
2.69112e-13
1.89247e-13
1.37928e-13
9.8513e-14
5.80929e-14
3.01241e-14
1.43482e-14
6.60408e-15
2.94107e-15
1.27455e-15
5.04654e-16
1.85205e-16
6.78349e-17
2.70728e-17
1.22237e-17
6.38793e-18
3.62293e-18
1.96916e-18
9.64842e-19
4.33661e-19
2.25323e-19
3.2268e-19
1.6943e-18
3.43756e-15
5.52717e-15
9.49456e-15
1.0937e-14
8.06025e-15
4.71696e-15
2.41038e-15
1.16342e-15
5.47189e-16
2.37144e-16
9.09135e-17
3.1004e-17
1.0342e-17
3.91652e-18
1.74512e-18
9.13989e-19
4.88111e-19
2.44017e-19
1.09731e-19
5.03496e-20
5.32154e-20
1.97866e-19
1.2661e-18
1.07678e-22
3.08946e-17
3.9414e-16
1.16931e-15
1.09413e-15
7.23951e-16
3.96252e-16
2.01047e-16
9.77893e-17
4.28533e-17
1.61868e-17
5.29674e-18
1.63995e-18
6.01735e-19
2.56465e-19
1.30514e-19
6.5554e-20
2.92315e-20
1.24805e-20
8.33501e-21
2.06686e-20
9.37549e-20
6.46312e-19
2.9922e-16
4.8311e-16
0.00778575
0.0113049
0.009057
0.0270106
0.0596771
0.0519426
0.511978
0.607232
0.648512
0.644509
0.877078
0.862817
0.862812
0.877374
0.976488
0.980592
0.994082
0.998864
0.999977
0.999981
0.999987
0.999983
0.999996
0.999996
0.999993
0.999988
0.869974
0.884212
0.896883
0.90964
0.145143
0.155498
0.165928
0.176905
6.80348e-07
1.14186e-06
1.52826e-06
1.05703e-06
2.40057e-07
1.95885e-07
1.85849e-07
1.88892e-07
2.10341e-07
2.23452e-07
2.45712e-07
2.57482e-07
1.83718e-07
2.03577e-07
1.93482e-07
2.12529e-07
1.11727e-07
1.429e-07
1.37654e-07
1.38732e-07
7.17903e-08
6.63766e-08
8.55957e-08
8.63593e-08
3.60499e-08
4.23377e-08
4.66263e-08
4.96599e-08
1.44773e-08
2.0431e-08
2.35478e-08
2.52511e-08
8.53788e-09
8.13055e-09
9.15124e-09
1.1006e-08
5.40422e-09
4.55045e-09
4.56486e-09
4.38988e-09
3.46507e-09
2.90893e-09
2.54451e-09
2.48028e-09
2.71427e-09
2.12986e-09
1.92471e-09
1.70907e-09
2.12868e-09
1.83416e-09
1.48946e-09
1.35134e-09
1.55378e-09
1.34508e-09
1.20897e-09
1.05666e-09
9.96365e-10
8.73634e-10
7.88982e-10
7.19065e-10
5.50396e-10
4.7379e-10
4.46167e-10
4.1143e-10
2.64463e-10
2.22973e-10
2.08618e-10
2.012e-10
1.09658e-10
9.60936e-11
9.02753e-11
8.15417e-11
4.27547e-11
3.46355e-11
3.12113e-11
3.0444e-11
1.47491e-11
1.23975e-11
1.12051e-11
9.80085e-12
4.46666e-12
3.71042e-12
3.21374e-12
2.91592e-12
1.21084e-12
1.02904e-12
8.96849e-13
7.75823e-13
2.85306e-13
2.34867e-13
1.99558e-13
1.71037e-13
6.13766e-14
4.99319e-14
4.04204e-14
3.24861e-14
1.05961e-14
8.41669e-15
6.78783e-15
5.30241e-15
1.65845e-15
1.26915e-15
9.76337e-16
7.28561e-16
2.20196e-16
1.64918e-16
1.3162e-16
1.08867e-16
2.8328e-17
2.45693e-17
2.63458e-17
3.74122e-17
6.21841e-18
8.33799e-18
1.51933e-17
3.50423e-17
3.50633e-18
6.69908e-18
1.70341e-17
5.03904e-17
3.0264e-18
7.35826e-18
2.34872e-17
7.60974e-17
2.61982e-18
8.11585e-18
2.94059e-17
9.57943e-17
1.87641e-18
6.60788e-18
2.29614e-17
7.11344e-17
0.00288487
0.0041656
0.016268
0.0241616
0.0318281
0.383129
0.29805
0.0170672
9.43726e-06
3.04133e-08
8.18781e-05
0.0207993
0.19603
0.0658525
0.000303817
0.000205094
0.0105258
0.116121
0.00192989
0.00313452
0.00288508
0.0124986
0.0170461
0.0175205
0.242643
0.211177
0.0119504
0.0236777
0.014773
0.00746767
0.00777681
0.0365473
0.0275503
0.141051
0.335681
0.455935
0.281558
0.0856856
0.381615
0.269657
0.280799
0.139336
0.122149
0.439521
0.357912
0.200021
0.515404
0.706389
0.70818
0.60643
0.498442
0.677976
0.857329
0.90405
0.839163
0.709414
0.580696
0.91224
0.863935
0.831923
0.809277
0.839892
0.794089
0.731858
0.740874
0.940158
0.99944
0.999995
0.999963
0.999415
0.999948
0.999827
0.999437
0.988819
0.97801
0.990142
0.999721
0.993901
0.995442
0.999932
0.999852
0.959485
0.861443
0.891152
0.987049
0.999976
0.999997
0.999999
1
0.999999
0.999887
0.999757
0.999969
0.999938
0.999919
0.999985
0.999988
0.999996
0.999942
0.999945
0.999929
0.995355
0.99779
1
1
0.999999
1
1
0.999999
0.999988
0.999948
0.99997
0.999979
0.999979
0.999992
0.999996
0.999998
0.999998
0.999996
0.999996
0.999999
1
1
1
1
1
0.999988
0.999983
0.999992
0.999991
0.99977
0.999599
0.999797
0.930626
0.957431
0.97975
0.997817
0.999999
0.999999
1
1
1
1
1
1
0.999996
0.999986
0.998737
0.990652
0.982964
0.978267
0.98362
0.198033
0.225118
0.258675
0.304605
0.37911
0.459867
0.524871
0.56559
0.588058
0.603532
0.616491
0.627028
0.635411
0.635806
0.565992
0.470589
0.423102
0.402879
0.430717
1.10114e-06
8.53933e-07
1.21169e-06
1.41745e-06
1.76238e-06
0.000611768
0.00323017
0.00687077
0.0103267
0.0135472
0.0161329
0.0174903
0.0169613
0.0125431
1.02829e-15
7.48448e-17
4.48385e-17
2.22957e-17
2.38665e-20
1.96985e-07
2.86731e-07
1.02827e-06
0.000172427
0.000426587
0.000611172
0.000558814
0.000162917
-3.29035e-11
-3.22311e-09
-1.3066e-07
-2.89399e-07
-3.70661e-07
8.57995e-12
3.87533e-07
4.19552e-08
2.83881e-08
1.73154e-08
3.80967e-09
3.11485e-07
5.98502e-07
4.70645e-07
0.000335242
0.00083103
0.000828036
0.000814976
0.000211795
1.72156e-12
2.8726e-08
0.000288488
0.000555414
0.0005541
0.00040045
1.41782e-05
4.79859e-07
1.76542e-07
1.38946e-07
6.67609e-08
2.3336e-07
3.92485e-07
4.65633e-07
2.47207e-05
1.15103e-05
4.40225e-05
1.68536e-05
2.27282e-05
1.5452e-06
7.28119e-08
0.000147047
0.000472333
0.000397771
0.000153267
3.39069e-06
5.95618e-07
2.97957e-07
2.6819e-07
1.06163e-07
1.4246e-07
1.4606e-07
1.45037e-07
2.95137e-07
1.40447e-07
1.15809e-07
6.53175e-07
1.15775e-06
1.34163e-06
4.25379e-06
5.16586e-06
6.83399e-07
3.07831e-07
1.53012e-07
6.92752e-07
4.77148e-07
3.98556e-07
3.62737e-07
2.21418e-07
8.95324e-08
9.89145e-08
1.076e-07
1.41951e-07
1.65694e-07
1.70907e-07
2.06412e-07
3.4234e-07
6.41598e-07
8.84724e-07
3.51391e-07
1.78936e-07
1.53068e-07
1.44416e-07
2.91295e-07
3.23852e-07
3.46055e-07
3.7084e-07
3.46116e-07
5.44325e-08
7.43518e-08
1.06483e-07
1.60606e-07
2.04358e-07
2.17439e-07
1.94404e-07
1.82935e-07
2.21566e-07
2.46502e-07
2.67709e-07
2.22298e-07
1.88363e-07
1.42853e-07
1.97435e-07
2.2097e-07
2.47302e-07
3.044e-07
3.35692e-07
2.81229e-08
3.84752e-08
5.6936e-08
8.91096e-08
1.28524e-07
1.58742e-07
1.62539e-07
1.44416e-07
1.34052e-07
1.54638e-07
1.90468e-07
1.86175e-07
1.4792e-07
1.05949e-07
1.02019e-07
1.07133e-07
1.21889e-07
1.44537e-07
1.44764e-07
1.26657e-08
1.56181e-08
1.9517e-08
2.55941e-08
3.50325e-08
4.66201e-08
5.47799e-08
5.55954e-08
5.43411e-08
6.13251e-08
7.755e-08
8.7482e-08
7.3466e-08
5.30807e-08
4.61367e-08
4.76628e-08
4.80872e-08
3.92978e-08
3.52284e-08
5.11479e-09
6.87789e-09
8.3113e-09
9.27002e-09
9.71548e-09
9.90493e-09
1.10305e-08
1.41459e-08
1.89073e-08
2.33367e-08
2.72545e-08
2.98983e-08
2.96875e-08
2.6371e-08
2.18777e-08
2.0071e-08
1.74828e-08
1.74102e-08
1.70205e-08
2.42705e-09
2.96261e-09
4.02125e-09
5.10116e-09
6.23815e-09
7.3012e-09
8.26582e-09
9.38139e-09
1.06958e-08
1.19151e-08
1.26674e-08
1.29622e-08
1.32195e-08
1.27917e-08
1.33857e-08
1.38528e-08
1.52992e-08
1.78756e-08
2.02602e-08
1.56646e-09
1.46115e-09
1.6751e-09
2.17025e-09
2.7422e-09
3.40785e-09
4.11835e-09
4.82493e-09
5.5365e-09
6.1209e-09
6.48714e-09
6.74948e-09
7.12834e-09
8.18656e-09
9.60839e-09
1.32287e-08
1.70953e-08
2.90026e-08
4.33468e-08
1.20713e-09
1.0212e-09
9.26258e-10
9.12353e-10
1.07511e-09
1.3362e-09
1.64569e-09
1.98493e-09
2.33091e-09
2.73063e-09
3.12761e-09
3.60356e-09
4.34734e-09
5.61285e-09
8.34819e-09
1.33559e-08
2.40905e-08
4.6265e-08
7.28503e-08
9.15742e-10
7.55022e-10
6.2926e-10
5.44713e-10
5.12839e-10
5.38463e-10
6.48232e-10
8.04478e-10
1.01983e-09
1.30152e-09
1.64234e-09
2.1132e-09
2.84973e-09
4.14294e-09
6.77648e-09
1.31838e-08
2.76675e-08
6.86556e-08
8.38172e-08
6.25547e-10
5.10105e-10
4.24968e-10
3.4523e-10
2.85243e-10
2.57819e-10
2.66818e-10
3.30542e-10
4.55363e-10
6.47392e-10
9.19819e-10
1.3293e-09
1.99846e-09
3.17597e-09
5.83565e-09
1.28321e-08
3.28602e-08
8.22524e-08
8.3895e-08
3.52008e-10
2.99304e-10
2.47165e-10
1.97863e-10
1.6146e-10
1.3717e-10
1.36009e-10
1.63396e-10
2.33078e-10
3.62975e-10
5.75979e-10
9.19586e-10
1.4958e-09
2.50757e-09
4.73442e-09
1.1568e-08
3.37258e-08
8.75616e-08
7.36041e-08
1.69341e-10
1.41484e-10
1.17604e-10
9.65659e-11
7.77137e-11
6.69197e-11
6.90186e-11
8.91445e-11
1.36803e-10
2.31364e-10
4.00708e-10
6.98044e-10
1.21164e-09
2.11966e-09
4.08411e-09
1.04842e-08
3.45027e-08
9.22836e-08
5.00578e-08
6.78455e-11
5.70102e-11
4.65558e-11
3.76335e-11
3.10501e-11
2.88577e-11
3.39649e-11
5.07911e-11
8.85075e-11
1.64657e-10
3.08579e-10
5.74512e-10
1.04626e-09
1.87962e-09
3.62443e-09
9.69467e-09
3.69005e-08
9.50317e-08
3.6158e-08
2.45693e-11
1.93163e-11
1.55516e-11
1.2335e-11
1.07882e-11
1.16847e-11
1.72588e-11
3.10164e-11
6.34773e-11
1.27962e-10
2.5671e-10
5.0698e-10
9.62269e-10
1.77678e-09
3.37966e-09
9.40426e-09
3.95305e-08
9.48458e-08
3.07472e-08
7.61579e-12
5.83414e-12
4.40496e-12
3.52743e-12
3.56804e-12
5.32982e-12
1.04278e-11
2.23111e-11
5.01682e-11
1.08624e-10
2.30997e-10
4.80416e-10
9.50489e-10
1.77784e-09
3.33527e-09
9.28593e-09
4.17167e-08
9.51402e-08
2.22083e-08
2.17962e-12
1.5704e-12
1.13877e-12
1.04479e-12
1.50104e-12
3.20293e-12
7.58536e-12
1.84134e-11
4.30274e-11
9.94781e-11
2.2287e-10
4.81084e-10
9.81245e-10
1.85138e-09
3.45192e-09
9.46306e-09
4.16777e-08
7.32608e-08
1.38227e-08
5.36304e-13
3.58642e-13
2.79148e-13
3.82579e-13
8.94092e-13
2.38809e-12
6.35127e-12
1.61318e-11
3.98715e-11
9.63163e-11
2.25667e-10
4.98418e-10
1.03926e-09
2.00436e-09
3.63565e-09
9.56043e-09
3.81154e-08
4.10897e-08
8.27322e-09
1.12836e-13
7.66913e-14
8.68857e-14
2.16042e-13
6.83381e-13
2.01723e-12
5.66893e-12
1.50559e-11
3.83345e-11
9.74501e-11
2.35717e-10
5.31134e-10
1.13082e-09
2.18792e-09
3.95374e-09
1.05442e-08
2.8498e-08
2.19366e-08
3.88822e-09
2.02835e-14
1.79781e-14
4.48964e-14
1.71441e-13
5.86139e-13
1.81852e-12
5.27736e-12
1.4733e-11
3.92753e-11
1.00866e-10
2.52248e-10
5.78005e-10
1.21979e-09
2.39537e-09
4.17886e-09
1.06243e-08
2.10064e-08
6.79319e-09
2.51513e-09
3.72615e-15
8.38622e-15
3.76495e-14
1.57584e-13
5.49193e-13
1.75853e-12
5.30252e-12
1.50994e-11
4.1073e-11
1.06639e-10
2.68658e-10
6.20285e-10
1.31805e-09
2.49496e-09
4.41359e-09
9.99888e-09
1.20395e-08
7.84752e-09
1.36024e-09
1.20866e-15
7.22578e-15
3.70115e-14
1.52587e-13
5.4387e-13
1.76498e-12
5.43984e-12
1.57502e-11
4.31645e-11
1.13423e-10
2.84043e-10
6.50472e-10
1.36521e-09
2.568e-09
4.42782e-09
8.3237e-09
8.43755e-09
3.32219e-09
9.10343e-10
9.52362e-16
7.22766e-15
3.63639e-14
1.52353e-13
5.42607e-13
1.8161e-12
5.54044e-12
1.6032e-11
4.41917e-11
1.16012e-10
2.88691e-10
6.5486e-10
1.35949e-09
2.49308e-09
4.04295e-09
6.4407e-09
4.89124e-09
2.4438e-09
4.19989e-10
1.02476e-15
7.42338e-15
3.61581e-14
1.50511e-13
5.3546e-13
1.77754e-12
5.43746e-12
1.56782e-11
4.27251e-11
1.121e-10
2.76083e-10
6.1734e-10
1.25918e-09
2.26776e-09
3.42548e-09
4.65745e-09
3.31833e-09
9.51451e-10
2.6505e-10
1.12189e-15
7.50646e-15
3.5089e-14
1.40585e-13
4.99259e-13
1.61365e-12
4.94264e-12
1.40973e-11
3.83624e-11
9.96216e-11
2.43726e-10
5.39462e-10
1.08157e-09
1.87435e-09
2.68073e-09
2.92912e-09
1.66748e-09
5.96802e-10
1.2187e-10
1.20935e-15
6.9618e-15
3.08325e-14
1.18266e-13
4.09368e-13
1.30844e-12
3.95062e-12
1.12449e-11
3.06164e-11
7.96796e-11
1.94591e-10
4.24102e-10
8.27766e-10
1.41476e-09
1.79461e-09
1.7792e-09
9.13552e-10
2.20083e-10
7.18662e-11
1.11863e-15
5.63608e-15
2.27178e-14
8.07036e-14
2.69734e-13
8.41686e-13
2.55587e-12
7.49213e-12
2.06846e-11
5.44253e-11
1.32782e-10
2.95203e-10
5.8209e-10
9.31765e-10
1.09297e-09
9.62601e-10
3.71361e-10
1.13157e-10
3.64701e-11
7.7366e-16
3.31785e-15
1.21145e-14
4.03956e-14
1.33629e-13
4.31347e-13
1.34033e-12
4.02207e-12
1.15091e-11
3.15556e-11
7.9394e-11
1.76978e-10
3.36454e-10
5.40532e-10
6.01064e-10
4.31059e-10
1.39387e-10
4.38191e-11
1.14887e-11
2.86084e-16
1.01973e-15
3.28619e-15
1.04333e-14
3.97008e-14
1.39938e-13
4.86037e-13
1.57061e-12
4.81517e-12
1.38338e-11
3.62421e-11
8.38887e-11
1.57913e-10
2.3981e-10
2.38882e-10
1.29236e-10
3.87447e-11
7.83837e-12
4.44413e-13
)
;

boundaryField
{
    leftWall
    {
        type            alphaContactAngle;
        contactAngleProperties 
        {
            mercury         
            {
                theta0          90;
            }
            air             
            {
                theta0          90;
            }
            water           
            {
                theta0          90;
            }
        }
        value           nonuniform List<scalar> 
50
(
6.82539e-14
5.67553e-14
1.11803e-13
1.2296e-13
6.00368e-11
3.74788e-10
1.85959e-09
3.41817e-09
3.22732e-09
1.37678e-09
1.88183e-18
3.78382e-05
0.619142
0.94615
0.999529
0.95998
0.257196
3.84295e-09
1.24294e-06
1.28876e-06
1.79956e-06
3.57904e-06
3.46839e-06
2.38108e-06
1.88054e-06
8.81381e-07
6.93605e-07
5.17425e-07
3.52584e-07
2.43142e-07
1.37589e-07
8.08368e-08
5.4843e-08
3.95274e-08
3.0309e-08
2.08393e-08
1.49494e-08
1.11855e-08
7.02542e-09
4.63956e-09
2.68413e-09
1.4871e-09
6.45965e-10
2.88628e-10
8.4218e-11
2.33634e-11
3.77363e-12
2.69112e-13
3.43756e-15
1.07678e-22
)
;
    }
    rightWall
    {
        type            alphaContactAngle;
        contactAngleProperties 
        {
            mercury         
            {
                theta0          90;
            }
            air             
            {
                theta0          90;
            }
            water           
            {
                theta0          90;
            }
        }
        value           nonuniform List<scalar> 
50
(
0.222809
0.222804
0.447908
0.448381
0.305012
0.177037
0.0154258
0.000426794
0.00192989
0.0856856
0.580696
0.990142
0.999919
0.999979
0.999797
0.98362
0.430717
2.38665e-20
3.80967e-09
6.67609e-08
1.06163e-07
2.21418e-07
3.46116e-07
3.35692e-07
1.44764e-07
3.52284e-08
1.70205e-08
2.02602e-08
4.33468e-08
7.28503e-08
8.38172e-08
8.3895e-08
7.36041e-08
5.00578e-08
3.6158e-08
3.07472e-08
2.22083e-08
1.38227e-08
8.27322e-09
3.88822e-09
2.51513e-09
1.36024e-09
9.10343e-10
4.19989e-10
2.6505e-10
1.2187e-10
7.18662e-11
3.64701e-11
1.14887e-11
4.44413e-13
)
;
    }
    lowerWall
    {
        type            alphaContactAngle;
        contactAngleProperties 
        {
            mercury         
            {
                theta0          90;
            }
            air             
            {
                theta0          90;
            }
            water           
            {
                theta0          90;
            }
        }
        value           nonuniform List<scalar> 
62
(
6.82539e-14
3.90366e-13
1.43748e-12
4.09713e-12
1.03249e-11
2.13592e-11
4.20323e-11
8.073e-11
1.51876e-10
2.79697e-10
4.78509e-10
1.00765e-09
1.81066e-09
3.11119e-09
5.09874e-09
7.84288e-09
9.96322e-09
5.20572e-08
3.1114e-06
0.000300179
0.000548701
0.000548216
0.000504623
0.000504623
6.7888e-09
2.62691e-08
1.01795e-07
1.00532e-05
2.27596e-05
2.26819e-05
3.23513e-06
2.9922e-16
4.8311e-16
0.00778575
0.0113049
0.113482
0.115779
0.390704
0.446041
0.388978
0.049012
0.024157
0.0149702
0.113482
0.0643525
0.0406435
0.0403581
0.155287
0.285474
0.28552
0.282278
0.261089
0.256877
0.271097
0.237484
0.111354
0.0613118
0.0749625
0.109733
0.19207
0.230928
0.222809
)
;
    }
    atmosphere
    {
        type            inletOutlet;
        inletValue      uniform 0;
        value           nonuniform List<scalar> 
46
(
0
0
3.9414e-16
1.16931e-15
1.09413e-15
7.23951e-16
3.96252e-16
2.01047e-16
9.77892e-17
4.28533e-17
1.61868e-17
5.29674e-18
1.63995e-18
0
0
0
0
0
0
0
0
0
0
0
0
0
0
0
0
0
0
0
1.39938e-13
4.86037e-13
1.57061e-12
4.81517e-12
1.38338e-11
3.62421e-11
8.38887e-11
1.57913e-10
2.3981e-10
0
0
0
0
0
)
;
    }
    defaultFaces
    {
        type            empty;
    }
}


// ************************************************************************* //
