/*--------------------------------*- C++ -*----------------------------------*\
  =========                 |
  \\      /  F ield         | OpenFOAM: The Open Source CFD Toolbox
   \\    /   O peration     | Website:  https://openfoam.org
    \\  /    A nd           | Version:  13
     \\/     M anipulation  |
\*---------------------------------------------------------------------------*/
FoamFile
{
    format      ascii;
    class       volScalarField;
    location    "2.9";
    object      alphas;
}
// * * * * * * * * * * * * * * * * * * * * * * * * * * * * * * * * * * * * * //

dimensions      [];

internalField   nonuniform List<scalar> 
2268
(
2
2
2
2
2
2
2
2
2
2
2
2
2
2
2
2
2
2
2
1.9997
1.99945
1.99945
1.9995
2
2
2
2
2
2
2
2
2
2
2
2
2
2
2
2
2
2
2
1.99998
1.99996
1.99995
2
2
2
2
2
2
2
2
2
2
2
2
2
2
2
2
2
2
2
2
2
2
2
2
2
2
2
2
2
2
2
2
2
2
2
2
2
2
2
2
2
2
2
2
2
2
2
2
2
2
2
2
2
2
2
2
2
2
2
2
2
2
2
2
2
2
2
2
2
1.99999
2
2
1.98852
1.98519
1.98788
1.99868
2
2
2
2
1.99732
1.9944
1.99528
1.99507
1.99351
1.99039
1.98546
1.97859
1.97002
1.96084
1.95045
1.93568
1.91901
0.899951
0.763786
0.716338
0.710734
0.719676
0.736229
0.773987
0.820937
0.86912
0.913568
0.957236
0.987145
0.992895
0.978742
0.945933
0.900034
0.845455
0.788498
0.735147
0.688276
0.646016
0.598342
0.547944
7.60153e-07
6.16944e-07
7.33952e-07
1.15915e-06
4.08642e-06
4.46497e-06
1.09822e-06
5.81638e-07
0.000380058
0.00118879
9.40751e-09
1.29675e-08
1.48575e-08
2.01562e-08
5.10969e-08
1.46716e-07
2.99477e-07
7.44393e-07
5.68142e-06
8.03005e-05
0.000572225
0.00469421
0.011035
1.87056
1.86847
1.89971
1.93195
1.88227
1.76857
1.76862
1.76346
1.78261
1.78683
1.76969
1.71371
1.70624
1.75147
1.72414
1.65849
1.73876
1.77724
1.76783
1.87004
1.87237
1.86796
1.80479
1.77327
1.80759
1.81678
1.81229
1.95646
2.05518
1.89175
1.77685
1.868
1.96859
1.93171
1.86945
1.77714
1.77639
1.76782
1.59687
1.62939
1.61505
1.47407
1.13174
1.06423
0.993635
0.935256
1.27188
2.21277
2.34929
2.09526
2.12491
2.27252
2.26775
1.97537
1.68843
1.60067
1.60339
1.41309
1.30316
1.11738
0.825993
0.70322
0.544604
0.343229
0.231919
0.338483
1.12779
2.123
2.38572
2.39974
2.34587
2.26611
1.96627
1.49055
1.30548
1.67288
0.543667
0.345825
0.343381
0.304641
0.491079
0.773205
0.80445
0.860653
0.535332
0.0635209
0.546891
1.77272
2.22291
2.08972
0.764084
0.304598
0.28706
0.091476
0.861293
0.175862
0.173992
0.174239
0.189283
0.628076
0.89234
1.03106
1.06707
0.719968
0.0684072
0.00197557
0.380897
1.73119
0.912466
0.0296937
0.000180886
0.000174409
0.000181385
0.684889
0.160017
0.205183
0.20639
0.155562
0.603519
1.0493
1.09016
0.724034
0.177313
0.0197938
0.00104699
0.00122776
1.59941
0.700105
0.000230081
0.000217062
0.000193499
0.0006444
0.540095
0.195445
0.236106
0.238172
0.14658
0.326342
1.10047
1.2259
0.366437
0.00212593
0.00123948
0.00104865
0.070854
1.58126
0.700625
0.0147007
0.000205724
0.00153226
0.00480272
0.541928
6.35637e-08
7.29129e-08
1.91965e-07
4.33292e-07
9.91659e-05
4.58177e-06
7.16973e-07
4.13313e-07
2.72017e-07
1.45363e-07
1.06121e-07
7.92691e-08
5.76917e-08
5.72952e-08
1.08793e-07
2.26946e-07
3.94333e-07
5.58364e-07
6.23405e-07
1.31115e-06
-7.67809e-07
0.000496214
0.00916195
6.47761e-08
6.65509e-08
0.00272189
0.00142393
8.18159e-05
5.01865e-08
4.74511e-08
9.07152e-08
5.82537e-08
5.61993e-08
4.96811e-08
2.06106e-07
2.70453e-07
3.34228e-07
4.36849e-07
5.98949e-07
7.76798e-07
1.02783e-06
0.00346241
0.0208306
0.0503354
0.0773231
0.140742
0.0706749
0.0391718
0.00549693
0.00102826
9.63324e-05
3.57547e-08
3.80839e-09
3.56801e-09
3.88497e-09
0.000352895
0.00161001
0.0039346
0.0153921
0.04617
0.0927045
0.151887
0.214715
0.26281
0.362655
0.497605
0.637754
0.752936
0.887733
0.351471
0.317481
0.262349
0.282884
0.271806
0.206711
0.229972
0.360382
0.375469
0.376226
0.404838
0.455748
0.530398
0.679476
0.793869
0.860537
0.953988
1.09904
1.16584
1.16919
1.15037
1.07509
1.10112
0.970575
0.967381
0.951992
0.960254
0.958995
0.997014
1.22241
1.2064
1.22927
1.25723
1.29232
1.33017
1.28945
1.13045
1.11925
1.1977
1.21276
1.06917
1.00034
1
1
1
1.02659
1.10755
1.00822
1.00017
0.999866
1.01713
1.09892
1.08052
1.02105
1.01165
1.02605
1.02504
1.00821
1
1
1
1
1
1
1
1
1.00051
1.00096
0.999999
1.0008
0.999546
0.999893
0.999969
1.00008
1.00133
1
1
1
1
1
1
1
1
1
1
1
1
1
1
1
1
0.999999
1.07978
1.08164
1.09062
1.11268
1.14742
1.19079
1.23069
1.26603
1.30391
1.34469
1.3883
1.43379
1.47836
1.52001
1.55147
1.57039
1.58157
1.58977
1.58209
1.54237
1.47309
1.38783
1.30458
2.48551
2.45898
2.47424
2.52747
2.58375
2.6333
2.68878
2.749
2.79954
2.83756
2.86788
2.89308
2.91378
2.92987
2.93968
2.94238
2.93757
2.92511
2.9041
2.87532
2.83813
2.79091
2.73775
3
3
2.99999
2.99999
3
3
3
3
3
3
3
3
3
3
3
3
3
3
3
3
3
3
3
3
3
3
3
3
3
3
3
3
3
3
3
3
3
3
3
3
3
3
3
3
3
3
3
2.99999
2.99999
3
3
2.99999
2.99992
2.99978
2.9999
2.99999
3
3
3
3
3
3
3
3
3
3
3
3
3
2.99999
2.99998
2.99995
2.99999
3
2.99995
2.99967
2.99966
2.99968
2.99998
3
3
3
3
3
3
3
3
3
3
3
3
3
2.99999
2.99993
2.99989
2.99993
3
2.99992
2.99967
2.99967
2.99966
2.9999
2.99999
2.99999
3
3
3
3
3
3
3
3
3
3
3
2.99999
2.99992
2.99989
2.99991
3
3
2.99987
2.99967
2.99974
2.99998
2.99999
2.99999
2.99999
3
3
3
3
3
3
3
3
3
3
3
2.99995
2.9999
2.99997
3
3
3
2.99999
2.99999
3
2.99999
2.99999
2.99999
3
3
3
3
3
3
3
3
3
3
3
2.99999
2.99999
3
3
3
3
3
3
3
3
3
3
3
3
3
3
3
3
3
3
3
3
3
3
3
3
3
3
3
3
3
3
3
3
3
3
3
3
3
3
3
3
3
3
3
3
3
3
3
3
3
3
3
3
3
3
3
3
3
3
3
3
3
3
3
3
3
3
3
3
3
3
3
3
3
3
3
3
3
3
3
3
3
3
3
3
3
3
3
3
3
3
3
3
3
3
3
3
3
3
3
3
3
3
3
3
3
3
3
3
3
3
3
3
3
3
3
3
3
3
3
3
3
3
3
3
3
3
3
3
3
3
3
3
3
3
3
3
3
3
3
3
3
3
3
3
3
3
3
3
3
3
3
3
3
3
3
3
3
3
3
3
3
3
3
3
3
3
3
3
3
3
3
3
3
3
3
3
3
3
3
3
3
3
3
3
3
3
3
3
3
3
3
3
3
3
3
3
3
3
3
3
3
3
3
3
3
3
3
3
3
3
3
3
3
3
3
3
3
3
3
3
3
3
3
3
3
3
3
3
3
3
3
3
3
3
3
3
3
3
3
3
3
3
3
3
3
3
3
3
3
3
3
3
3
3
3
3
3
3
3
3
3
3
3
3
3
3
3
3
3
3
3
3
3
3
3
3
3
3
3
3
3
3
3
3
3
3
3
3
3
3
3
3
3
3
3
3
3
3
3
3
3
3
3
3
3
3
3
3
3
3
3
3
3
3
3
3
3
3
3
3
3
3
3
3
3
3
3
3
3
3
3
3
3
3
3
3
3
3
3
3
3
3
3
3
3
3
3
3
3
3
3
3
3
3
3
3
3
3
3
3
3
3
3
3
3
3
3
3
3
3
3
3
3
3
3
3
3
3
3
3
3
3
3
3
3
3
3
3
3
3
3
3
3
3
3
3
3
3
3
3
3
3
3
3
3
3
3
3
3
3
3
3
3
3
3
3
3
3
3
3
3
3
3
3
3
3
3
3
3
3
3
3
3
3
3
3
3
3
3
3
3
3
3
3
3
3
3
3
3
3
3
3
3
3
3
3
3
3
3
3
3
3
3
3
3
3
3
3
3
3
3
3
3
3
3
3
3
3
3
3
3
3
3
3
3
3
3
3
3
3
3
3
3
3
3
3
3
3
3
3
3
3
3
3
3
3
3
3
3
3
3
3
3
3
3
3
3
3
3
3
3
3
3
3
3
3
3
3
3
3
3
3
3
3
3
3
3
3
3
3
3
3
3
3
3
3
3
3
3
3
3
3
3
3
3
3
3
3
3
3
3
3
3
3
3
3
3
3
3
3
3
3
3
3
3
3
3
3
3
3
3
3
3
3
3
3
3
3
3
3
3
3
3
3
3
0.0562311
0.0981228
0.121104
0.0979984
0.315256
0.328113
0.191549
0.0621525
0.923486
1.01882
1.06002
0.859153
1.24584
1.27435
1.27437
1.24501
1.04702
1.03881
1.01165
1.002
0.999997
0.999993
0.999997
0.999987
0.999997
0.999997
0.999993
0.999988
1.26004
1.23157
1.20623
1.18072
2.70971
2.689
2.66814
2.64619
3
3
3
3
3
3
3
3
3
3
3
3
3
3
3
3
3
3
3
3
3
3
3
3
3
3
3
3
3
3
3
3
3
3
3
3
3
3
3
3
3
3
3
3
3
3
3
3
3
3
3
3
3
3
3
3
3
3
3
3
3
3
3
3
3
3
3
3
3
3
3
3
3
3
3
3
3
3
3
3
3
3
3
3
3
3
3
3
3
3
3
3
3
3
3
3
3
3
3
3
3
3
3
3
3
3
3
3
3
3
3
3
3
3
3
3
3
3
3
3
3
3
3
3
3
3
3
3
3
3
3
3
0.0334684
0.048794
0.0763281
0.0785279
0.160507
0.96666
0.909666
0.183914
0.00179261
0.00180618
0.00130894
0.081113
1.22084
0.194444
0.00032147
0.000222349
0.041351
0.248773
0.463258
0.0295749
0.0288851
0.127597
0.159682
0.503325
0.830838
0.786383
0.42246
0.0547367
0.0148272
0.00938464
0.0114275
0.0573834
0.0301734
0.141565
0.337393
0.550172
0.47309
0.284929
0.641797
0.696117
0.828938
0.683821
0.673806
0.998819
0.905565
0.742897
0.718043
0.706476
0.708644
0.608715
0.500461
0.679776
0.857783
0.90944
0.961371
0.90143
0.761758
1.17499
1.23796
1.24022
1.10075
1.07838
1.29433
1.27445
1.28373
1.10791
0.999524
1.00001
1.00006
0.999575
1.0001
1.00031
1.00108
1.02105
1.04012
1.01653
1.00028
1.01213
1.00911
1.00012
1.0003
1.08103
1.27711
1.21767
1.02587
0.999995
1
1
1
1
1.00022
1.00046
1.00004
1.00001
0.999935
0.999985
0.999988
0.999997
1.0001
1.00009
1.00012
1.00929
1.00442
1
1
1
1
1
1
1.00002
1.0001
1.00006
1
0.999994
0.999992
0.999996
0.999999
0.999998
0.999997
0.999997
1
1
1
1
1
1
0.999991
0.999989
0.999998
0.999992
0.999919
0.999869
0.999815
1.13875
1.08514
1.0405
1.00437
1
0.999999
1
1
1
1
1
1
0.999997
0.999988
0.999412
1.00282
1.0109
1.01927
1.01089
2.60393
2.54976
2.48265
2.39079
2.24178
2.08027
1.95026
1.86882
1.82388
1.79291
1.767
1.74594
1.72917
1.72765
1.84744
2.02707
2.12206
2.16249
2.10733
3
3
3
3
3
2.99877
2.99354
2.98625
2.97933
2.97288
2.96758
2.96445
2.96543
2.97279
2.98685
2.98259
2.98452
2.98783
2.98314
3
3
3
2.99966
2.99915
2.99878
2.99888
2.99967
2.99994
2.9999
2.9998
2.99956
2.99932
2.99866
2.99999
3
3
3
2.99999
3
3
3
2.99933
2.99834
2.99834
2.99837
2.99958
2.99997
2.99995
2.99934
2.99881
2.99879
2.99919
2.99997
3
3
3
3
3
3
3
2.99995
2.99998
2.99991
2.99997
2.99995
2.99999
2.99999
2.9997
2.99905
2.9992
2.99969
2.99999
3
3
3
3
3
3
3
3
3
3
3
3
3
2.99999
2.99999
3
3
3
3
3
3
3
3
3
3
3
3
3
3
3
3
3
3
3
3
3
3
3
3
3
3
3
3
3
3
3
3
3
3
3
3
3
3
3
3
3
3
3
3
3
3
3
3
3
3
3
3
3
3
3
3
3
3
3
3
3
3
3
3
3
3
3
3
3
3
3
3
3
3
3
3
3
3
3
3
3
3
3
3
3
3
3
3
3
3
3
3
3
3
3
3
3
3
3
3
3
3
3
3
3
3
3
3
3
3
3
3
3
3
3
3
3
3
3
3
3
3
3
3
3
3
3
3
3
3
3
3
3
3
3
3
3
3
3
3
3
3
3
3
3
3
3
3
3
3
3
3
3
3
3
3
3
3
3
3
3
3
3
3
3
3
3
3
3
3
3
3
3
3
3
3
3
3
3
3
3
3
3
3
3
3
3
3
3
3
3
3
3
3
3
3
3
3
3
3
3
3
3
3
3
3
3
3
3
3
3
3
3
3
3
3
3
3
3
3
3
3
3
3
3
3
3
3
3
3
3
3
3
3
3
3
3
3
3
3
3
3
3
3
3
3
3
3
3
3
3
3
3
3
3
3
3
3
3
3
3
3
3
3
3
3
3
3
3
3
3
3
3
3
3
3
3
3
3
3
3
3
3
3
3
3
3
3
3
3
3
3
3
3
3
3
3
3
3
3
3
3
3
3
3
3
3
3
3
3
3
3
3
3
3
3
3
3
3
3
3
3
3
3
3
3
3
3
3
3
3
3
3
3
3
3
3
3
3
3
3
3
3
3
3
3
3
3
3
3
3
3
3
3
3
3
3
3
3
3
3
3
3
3
3
3
3
3
3
3
3
3
3
3
3
3
3
3
3
3
3
3
3
3
3
3
3
3
3
3
3
3
3
3
3
3
3
3
3
3
3
3
3
3
3
3
3
3
3
3
3
3
3
3
3
3
3
3
3
3
3
3
3
3
3
3
3
3
3
3
3
3
3
3
3
3
3
3
3
3
3
3
3
3
3
3
3
3
3
3
3
3
3
3
3
3
3
3
3
3
3
3
3
3
3
3
3
3
3
3
3
3
3
3
3
3
3
3
3
3
3
3
3
3
3
3
3
3
3
3
3
3
3
3
3
3
3
3
3
3
3
3
3
3
3
3
3
3
3
3
3
3
3
3
3
3
3
3
3
3
3
3
3
3
3
3
3
3
3
3
3
3
3
3
3
3
3
3
3
3
)
;

boundaryField
{
    leftWall
    {
        type            calculated;
        value           nonuniform List<scalar> 
50
(
2
2
2
2
2
2
0.899951
7.60153e-07
6.35637e-08
6.47761e-08
0.0706749
0.351471
0.970575
1.10755
1.0008
1.07978
2.48551
3
3
3
2.99999
2.99999
2.99999
3
3
3
3
3
3
3
3
3
3
3
3
3
3
3
3
3
3
3
3
3
3
3
3
3
3
3
)
;
    }
    rightWall
    {
        type            calculated;
        value           nonuniform List<scalar> 
50
(
1.76783
1.76782
1.60339
1.67288
0.861293
0.684889
0.540095
0.541928
0.463258
0.284929
0.761758
1.01653
0.999935
0.999994
0.999815
1.01089
2.10733
2.98314
2.99999
3
3
3
3
3
3
3
3
3
3
3
3
3
3
3
3
3
3
3
3
3
3
3
3
3
3
3
3
3
3
3
)
;
    }
    lowerWall
    {
        type            calculated;
        value           nonuniform List<scalar> 
62
(
2
2
2
2
2
2
2
2
2
2
2
2
2
2
2
2
2
2
2
1.9997
1.99945
1.99945
1.9995
1.9995
2
2
2
1.99999
1.91901
0.547944
0.011035
0.0562311
0.0981228
0.121104
0.0979984
1.87056
1.87004
1.59687
1.41309
0.543667
0.175862
0.160017
0.195445
1.87056
1.86847
1.89971
1.93195
1.88227
1.76857
1.76862
1.76346
1.78261
1.78683
1.76969
1.71371
1.70624
1.75147
1.72414
1.65849
1.73876
1.77724
1.76783
)
;
    }
    atmosphere
    {
        type            calculated;
        value           nonuniform List<scalar> 
46
(
3
3
3
3
3
3
3
3
3
3
3
3
3
3
3
3
3
3
3
3
3
3
3
3
3
3
3
3
3
3
3
3
3
3
3
3
3
3
3
3
3
3
3
3
3
3
)
;
    }
    defaultFaces
    {
        type            empty;
    }
}


// ************************************************************************* //
