/*--------------------------------*- C++ -*----------------------------------*\
  =========                 |
  \\      /  F ield         | OpenFOAM: The Open Source CFD Toolbox
   \\    /   O peration     | Website:  https://openfoam.org
    \\  /    A nd           | Version:  13
     \\/     M anipulation  |
\*---------------------------------------------------------------------------*/
FoamFile
{
    format      ascii;
    class       volScalarField;
    location    "2.9";
    object      alpha.mercury;
}
// * * * * * * * * * * * * * * * * * * * * * * * * * * * * * * * * * * * * * //

dimensions      [];

internalField   nonuniform List<scalar> 
2268
(
1
1
1
1
1
1
1
1
1
1
1
1
1
1
1
1
1
1
0.999997
0.9997
0.999451
0.999452
0.999495
1
1
1
1
1
1
1
1
1
1
1
1
1
1
1
1
1
1
0.999997
0.999983
0.999958
0.99995
1
1
1
1
1
1
1
1
1
1
1
1
1
1
1
1
1
1
1
1
1
1
1
1
1
1
1
1
1
1
1
1
1
1
1
1
1
1
1
1
1
1
1
1
1
1
1
1
1
1
1
1
1
1
1
1
1
1
1
1
1
1
1
1
1
1
1
1
0.999999
0.99999
1
1
0.99426
0.992594
0.993942
0.999341
1
1
1
1
0.99866
0.997199
0.997641
0.997533
0.996754
0.995193
0.99273
0.989293
0.985007
0.980419
0.97522
0.967748
0.959282
0.449975
0.381893
0.358169
0.355366
0.359837
0.368114
0.386994
0.410468
0.43456
0.456784
0.478618
0.493572
0.496447
0.489371
0.472967
0.450017
0.422728
0.394248
0.367573
0.34413
0.322883
0.297257
0.269923
3.60041e-07
2.69651e-07
3.18922e-07
2.95866e-07
2.45074e-07
2.28413e-10
2.04178e-07
2.90431e-07
0.000190028
0.000594394
3.38813e-23
2.46689e-24
-1.57956e-13
1.37687e-21
8.7749e-21
-1.17633e-10
-1.62451e-09
-6.01706e-09
1.57767e-20
-3.46775e-11
-2.15604e-09
-1.35548e-07
-2.97566e-08
0.877985
0.877985
0.877985
0.877984
0.778679
0.656738
0.656796
0.669372
0.692582
0.696752
0.650869
0.646938
0.697827
0.752722
0.752728
0.75272
0.752719
0.752716
0.752719
0.87658
0.877985
0.877985
0.860241
0.833813
0.825961
0.824252
0.824744
0.824752
0.824406
0.762103
0.678298
0.75272
0.752716
0.752695
0.752751
0.752736
0.752731
0.752719
0.599736
0.629112
0.604376
0.530275
0.493236
0.529155
0.49583
0.466553
0.430165
0.531634
0.568906
0.591131
0.525231
0.564327
0.6001
0.61239
0.583264
0.544201
0.499016
0.462874
0.401514
0.299203
0.177086
0.127465
0.0809417
0.0456367
0.0324391
0.0798396
0.0604988
0.162424
0.244814
0.250389
0.19706
0.140531
0.0893879
0.100413
0.136457
0.222309
0.0575287
0.0741787
0.0903567
0.109655
0.0606093
0.0306644
0.0307228
0.0307177
0.0318599
0.0125724
0.00131039
0.018732
0.0976288
0.0547882
4.27257e-12
5.38455e-12
4.27226e-12
3.23312e-11
9.46286e-07
0.0488732
0.0690964
0.0691
0.0768458
0.0967583
0.0612332
0.07023
0.0768855
0.0655048
0.0197781
0.000918313
0.000242534
0.00514364
5.68354e-08
9.10407e-08
4.08005e-06
8.56111e-07
4.32506e-06
2.74067e-07
0.0496725
0.0377055
0.0362116
0.0439661
0.0899285
0.0901349
0.0782644
0.0783528
0.037053
0.00949056
0.000501133
0.000242149
5.67496e-08
5.83e-08
3.90668e-07
7.43248e-06
1.22977e-06
2.60089e-05
2.37181e-06
0.028178
0.0253498
0.0274301
0.0145361
0.0173623
0.0817821
0.0814804
0.0410628
0.000837703
0.000405468
0.00049734
0.000155487
6.14079e-08
5.67781e-08
2.49404e-07
7.65493e-06
1.12605e-06
0.000169562
1.0752e-05
3.4771e-10
3.10864e-10
5.93513e-08
1.76781e-07
1.67945e-07
2.24561e-10
2.28414e-10
5.15571e-10
4.07743e-10
4.23516e-24
6.34718e-12
2.22673e-11
5.04822e-11
1.05856e-10
2.90987e-10
3.37382e-10
4.54283e-10
6.89077e-10
3.05948e-10
4.76107e-12
1.28674e-10
-3.85111e-07
-1.11866e-07
3.26439e-10
3.4724e-10
7.09231e-09
6.47667e-09
6.49751e-09
7.65438e-10
6.84011e-10
6.37015e-10
6.04386e-10
6.62928e-10
8.80385e-10
9.73359e-10
8.21737e-10
1.21222e-09
2.82431e-09
3.14502e-09
3.72222e-09
5.08624e-09
3.3682e-09
6.16483e-13
1.26988e-07
4.84127e-07
2.85759e-07
3.50997e-10
3.98922e-10
4.11194e-10
8.23917e-10
1.05469e-09
9.54166e-10
9.97727e-10
1.01387e-09
1.02205e-09
1.02267e-09
1.00913e-09
9.61634e-10
8.4188e-10
7.3442e-10
7.38578e-10
7.73659e-10
9.80181e-10
2.01144e-09
2.0193e-09
8.44231e-13
2.96068e-07
6.39516e-07
6.33904e-07
4.06549e-10
4.60568e-10
5.41357e-10
6.33654e-10
7.38822e-10
8.0709e-10
8.72209e-10
9.28467e-10
9.61965e-10
1.02599e-09
1.11203e-09
1.22066e-09
1.30305e-09
1.35345e-09
1.39116e-09
1.5006e-09
1.89654e-09
2.87166e-09
3.74785e-09
2.95491e-09
2.91317e-09
8.64227e-08
1.13427e-07
4.5658e-10
4.93979e-10
5.45358e-10
6.03645e-10
6.73589e-10
8.02068e-10
9.53484e-10
1.08504e-09
1.18633e-09
1.34091e-09
1.53835e-09
1.68978e-09
1.75096e-09
1.74544e-09
1.70682e-09
1.85423e-09
2.54478e-09
3.97694e-09
4.26537e-09
6.30947e-09
3.95727e-09
1.2638e-07
4.50582e-06
4.64675e-10
4.86664e-10
5.19638e-10
5.814e-10
7.13483e-10
9.2108e-10
1.04419e-09
1.1227e-09
1.1676e-09
1.22267e-09
1.28758e-09
1.34227e-09
1.35339e-09
1.30508e-09
1.3732e-09
1.92096e-09
3.05016e-09
4.06592e-09
4.22453e-09
8.21141e-09
2.88814e-08
5.92091e-07
7.21387e-06
4.64696e-10
4.53672e-10
4.1468e-10
4.52979e-10
5.52304e-10
5.96363e-10
5.62026e-10
4.9701e-10
4.91402e-10
5.36413e-10
6.27883e-10
7.38466e-10
8.65546e-10
9.97108e-10
1.16406e-09
1.30579e-09
1.89817e-09
3.63035e-09
3.43451e-09
3.42745e-09
1.62277e-07
2.96684e-07
3.64868e-07
4.63334e-10
4.419e-10
3.60351e-10
2.84448e-10
2.54566e-10
2.07178e-10
1.44784e-10
1.20728e-10
1.21993e-10
1.52376e-10
2.21706e-10
3.14507e-10
4.331e-10
5.81347e-10
6.73352e-10
7.69199e-10
1.57084e-09
4.96649e-09
6.05893e-09
4.18318e-09
6.33754e-09
5.17187e-09
1.46723e-08
4.40802e-10
4.38227e-10
3.57305e-10
2.08738e-10
1.15434e-10
6.62017e-11
3.93161e-11
3.2642e-11
3.34917e-11
4.3245e-11
6.01962e-11
7.14929e-11
7.53001e-11
7.70043e-11
8.30489e-11
1.09987e-10
1.22006e-10
1.67571e-10
3.94573e-10
5.14529e-10
4.54652e-10
6.96669e-10
1.78476e-09
3.40439e-10
3.915e-10
3.30867e-10
2.09866e-10
9.74623e-11
6.29086e-11
3.36181e-11
2.90762e-11
2.50256e-11
2.17167e-11
1.87799e-11
1.63386e-11
1.42719e-11
1.30179e-11
1.25604e-11
1.28453e-11
1.3609e-11
1.90332e-11
7.10877e-11
2.90021e-10
6.2696e-10
1.19903e-09
2.29308e-09
2.66714e-10
3.23819e-10
2.82008e-10
1.54638e-10
9.45553e-11
7.76522e-11
6.18045e-11
4.19147e-11
2.81562e-11
2.10326e-11
1.52527e-11
1.18965e-11
9.40292e-12
7.58908e-12
6.81644e-12
7.12962e-12
1.04126e-11
4.48058e-11
1.37784e-10
3.10987e-10
6.51137e-10
1.13906e-09
1.79705e-09
2.46221e-10
3.05623e-10
2.37856e-10
1.58147e-10
1.36451e-10
1.2581e-10
1.051e-10
8.47736e-11
5.31482e-11
3.06505e-11
1.84968e-11
1.1921e-11
8.20904e-12
5.56906e-12
4.08393e-12
3.78391e-12
4.36139e-12
1.38068e-11
4.65057e-11
1.10788e-10
2.35743e-10
3.20081e-10
3.71904e-10
2.49924e-10
3.08205e-10
2.61154e-10
1.99085e-10
1.92633e-10
1.85074e-10
1.58406e-10
1.2176e-10
8.39573e-11
4.45355e-11
2.21448e-11
1.31336e-11
8.25807e-12
5.17688e-12
3.43599e-12
2.67931e-12
2.13246e-12
2.04596e-12
2.93988e-12
5.62497e-12
1.42397e-11
5.26437e-11
5.88128e-11
2.56672e-10
3.25223e-10
3.05598e-10
2.69724e-10
2.51509e-10
2.24858e-10
1.86586e-10
1.50798e-10
9.82075e-11
5.72735e-11
2.77379e-11
1.53034e-11
9.2562e-12
5.70132e-12
3.57204e-12
2.46586e-12
1.7095e-12
1.32203e-12
1.27928e-12
1.46117e-12
2.65045e-12
6.41322e-12
7.12972e-12
2.53687e-10
3.53294e-10
3.64162e-10
3.31766e-10
2.88659e-10
2.5608e-10
1.96592e-10
1.53417e-10
1.03602e-10
5.81424e-11
3.25083e-11
1.99314e-11
1.16254e-11
7.7337e-12
4.37456e-12
2.35524e-12
1.45236e-12
1.15186e-12
8.89421e-13
7.86732e-13
9.11303e-13
1.4161e-12
3.01203e-12
2.42414e-10
3.56932e-10
3.8e-10
3.6092e-10
3.09562e-10
2.62227e-10
1.96991e-10
1.43992e-10
9.64931e-11
6.20882e-11
3.4945e-11
2.03987e-11
1.366e-11
8.56405e-12
5.19775e-12
2.95481e-12
1.57603e-12
1.03649e-12
8.25211e-13
6.57063e-13
5.66108e-13
6.4516e-13
2.34154e-12
2.22762e-10
3.49188e-10
3.79902e-10
3.55076e-10
3.0013e-10
2.40942e-10
1.84519e-10
1.24693e-10
8.7085e-11
5.96092e-11
3.70143e-11
2.14856e-11
1.3465e-11
8.52094e-12
5.57199e-12
3.44132e-12
1.81397e-12
1.10525e-12
7.81248e-13
6.15456e-13
4.65686e-13
4.0221e-13
8.58691e-13
1.94285e-10
3.26004e-10
3.58538e-10
3.26673e-10
2.64384e-10
2.1039e-10
1.4521e-10
1.05452e-10
7.24825e-11
4.7181e-11
2.94909e-11
2.22065e-11
1.38302e-11
8.6586e-12
5.24323e-12
2.96952e-12
2.01342e-12
1.20781e-12
7.64019e-13
6.10174e-13
4.40142e-13
3.10047e-13
2.85152e-13
1.66214e-10
2.82397e-10
3.14024e-10
2.77041e-10
2.25856e-10
1.701e-10
1.13413e-10
8.78785e-11
6.13532e-11
3.72634e-11
2.33966e-11
1.52084e-11
1.03111e-11
7.33893e-12
4.78116e-12
2.94868e-12
2.04201e-12
1.21557e-12
7.7408e-13
5.78167e-13
4.18004e-13
2.94205e-13
2.07323e-13
1.3741e-10
2.3456e-10
2.66339e-10
2.32908e-10
1.84708e-10
1.40138e-10
9.52434e-11
6.75932e-11
4.70304e-11
2.55931e-11
1.58212e-11
1.08427e-11
7.42265e-12
5.34666e-12
3.66779e-12
2.57454e-12
1.76251e-12
1.16586e-12
7.48667e-13
5.37487e-13
3.855e-13
2.62562e-13
1.93048e-13
1.10767e-10
1.89942e-10
2.17206e-10
1.86539e-10
1.47576e-10
1.10366e-10
7.52503e-11
5.17464e-11
3.53008e-11
1.74493e-11
1.02125e-11
6.98228e-12
5.19155e-12
3.69332e-12
2.70024e-12
1.93154e-12
1.34778e-12
9.64538e-13
6.66019e-13
4.69689e-13
3.28081e-13
2.3227e-13
1.66122e-13
8.85162e-11
1.48746e-10
1.66876e-10
1.43126e-10
1.11384e-10
8.20859e-11
5.63677e-11
3.81887e-11
2.5295e-11
1.27012e-11
7.11721e-12
4.66767e-12
3.48217e-12
2.56204e-12
1.85852e-12
1.33175e-12
9.64284e-13
7.13527e-13
5.17765e-13
3.67619e-13
2.60224e-13
1.78472e-13
1.32799e-13
6.7304e-11
1.09392e-10
1.22828e-10
1.04363e-10
8.05867e-11
5.83088e-11
4.00074e-11
2.6919e-11
1.74386e-11
9.77021e-12
4.96431e-12
3.48878e-12
2.39972e-12
1.69418e-12
1.21098e-12
8.65899e-13
6.32614e-13
4.8408e-13
3.54585e-13
2.59698e-13
1.83449e-13
1.30444e-13
9.49079e-14
4.91124e-11
7.64524e-11
8.37097e-11
7.06879e-11
5.42333e-11
3.91445e-11
2.72108e-11
1.83743e-11
1.18625e-11
6.93455e-12
4.05449e-12
2.5589e-12
1.64413e-12
1.09979e-12
7.52446e-13
5.24522e-13
3.83007e-13
2.93368e-13
2.20389e-13
1.63181e-13
1.17031e-13
7.99601e-14
6.00764e-14
3.45854e-11
5.20332e-11
5.48098e-11
4.53738e-11
3.45245e-11
2.48639e-11
1.74919e-11
1.19513e-11
7.81652e-12
4.85029e-12
2.97189e-12
1.8238e-12
1.12807e-12
7.08991e-13
4.5216e-13
3.04125e-13
2.17585e-13
1.6262e-13
1.20345e-13
8.95472e-14
6.31485e-14
4.47541e-14
3.31946e-14
2.32391e-11
3.42927e-11
3.44407e-11
2.80366e-11
2.10821e-11
1.52367e-11
1.07254e-11
7.3609e-12
4.90012e-12
3.16491e-12
2.00916e-12
1.24668e-12
7.54241e-13
4.5205e-13
2.66711e-13
1.68559e-13
1.13238e-13
7.96886e-14
5.76123e-14
4.20118e-14
3.03517e-14
2.10996e-14
1.5468e-14
1.54153e-11
2.18119e-11
2.08148e-11
1.652e-11
1.23679e-11
8.93825e-12
6.29887e-12
4.3378e-12
2.92358e-12
1.94763e-12
1.27624e-12
8.0018e-13
4.87276e-13
2.87255e-13
1.62792e-13
9.44344e-14
5.69006e-14
3.76296e-14
2.50433e-14
1.77357e-14
1.26565e-14
8.61022e-15
6.32151e-15
9.63229e-12
1.33092e-11
1.20705e-11
9.31266e-12
6.83123e-12
4.88269e-12
3.40965e-12
2.33587e-12
1.59817e-12
1.08778e-12
7.25032e-13
4.61206e-13
2.82023e-13
1.65863e-13
9.29538e-14
5.08822e-14
2.8691e-14
1.722e-14
1.04162e-14
6.79557e-15
4.76357e-15
3.01086e-15
2.20584e-15
6.08524e-12
7.9237e-12
6.68381e-12
5.01555e-12
3.58768e-12
2.49714e-12
1.70568e-12
1.14364e-12
7.74326e-13
5.27161e-13
3.5386e-13
2.27729e-13
1.41803e-13
8.45384e-14
4.78761e-14
2.56434e-14
1.38428e-14
7.57526e-15
4.14052e-15
2.44941e-15
1.53479e-15
9.32261e-16
6.52968e-16
3.91652e-12
4.5264e-12
3.63144e-12
2.59477e-12
1.77416e-12
1.18235e-12
7.78127e-13
5.08912e-13
3.38192e-13
2.28019e-13
1.52864e-13
9.79e-14
6.16744e-14
3.63177e-14
2.11875e-14
1.15112e-14
5.9839e-15
3.0876e-15
1.5377e-15
8.10629e-16
4.76885e-16
2.60673e-16
1.77399e-16
2.24633e-12
2.50062e-12
1.88372e-12
1.26536e-12
8.13748e-13
5.14512e-13
3.24586e-13
2.0487e-13
1.31387e-13
8.65911e-14
5.66874e-14
3.62482e-14
2.21239e-14
1.3606e-14
7.94467e-15
4.31828e-15
2.21854e-15
1.10937e-15
5.21625e-16
2.57864e-16
1.28166e-16
6.99887e-17
4.33241e-17
1.31279e-12
1.33358e-12
9.24899e-13
5.78602e-13
3.47138e-13
2.06606e-13
1.19864e-13
7.23156e-14
4.47323e-14
2.86738e-14
1.802e-14
1.13408e-14
7.18664e-15
4.35705e-15
2.50029e-15
1.37937e-15
7.02837e-16
3.43286e-16
1.53765e-16
6.98732e-17
3.44456e-17
1.64004e-17
9.53722e-18
6.8232e-13
6.29441e-13
4.09288e-13
2.35922e-13
1.30439e-13
7.29299e-14
4.12254e-14
2.34499e-14
1.39458e-14
8.01248e-15
5.07843e-15
3.25539e-15
2.0234e-15
1.21877e-15
6.93762e-16
3.78059e-16
1.77351e-16
8.7021e-17
3.72917e-17
1.61486e-17
6.99896e-18
3.35537e-18
1.78659e-18
3.37608e-13
2.76332e-13
1.59503e-13
8.78513e-14
4.6237e-14
2.23763e-14
1.14234e-14
6.34608e-15
3.45421e-15
2.16415e-15
1.34877e-15
8.40068e-16
5.0616e-16
2.9875e-16
1.61056e-16
8.47711e-17
4.06025e-17
1.88827e-17
7.8438e-18
3.19407e-18
1.34462e-18
5.9164e-19
2.84944e-19
1.30908e-13
8.94495e-14
4.96295e-14
2.42702e-14
1.18381e-14
5.9613e-15
3.07237e-15
1.56659e-15
8.91696e-16
5.22738e-16
3.16619e-16
1.88663e-16
1.11164e-16
6.23282e-17
3.38337e-17
1.71336e-17
8.05083e-18
3.50191e-18
1.41338e-18
5.1497e-19
2.03385e-19
8.68787e-20
3.87868e-20
5.30305e-14
3.16268e-14
1.62829e-14
7.71406e-15
3.54844e-15
1.62591e-15
7.77857e-16
3.95969e-16
2.14166e-16
1.17576e-16
6.73967e-17
3.90026e-17
2.20681e-17
1.22239e-17
6.47089e-18
3.18372e-18
1.42948e-18
5.82257e-19
2.20086e-19
7.53252e-20
2.7524e-20
1.07019e-20
4.37896e-21
1.38988e-14
8.80345e-15
4.46131e-15
2.06675e-15
9.2008e-16
4.06079e-16
1.87101e-16
9.16556e-17
4.61978e-17
2.46955e-17
1.34755e-17
7.48457e-18
4.18865e-18
2.25437e-18
1.14652e-18
5.30267e-19
2.22254e-19
8.41814e-20
2.94509e-20
9.64235e-21
3.22794e-21
1.13495e-21
4.14328e-22
3.54171e-15
1.94446e-15
9.56786e-16
4.46198e-16
2.00395e-16
8.86734e-17
4.00126e-17
1.90107e-17
9.36446e-18
4.90309e-18
2.6212e-18
1.40867e-18
7.46812e-19
3.78198e-19
1.79133e-19
7.77636e-20
3.014e-20
1.04437e-20
3.33066e-21
1.00686e-21
3.08646e-22
9.84975e-23
3.31965e-23
5.25448e-16
2.81162e-16
1.50212e-16
7.63074e-17
3.70769e-17
1.72234e-17
7.73274e-18
3.63622e-18
1.79246e-18
9.28599e-19
4.80033e-19
2.46713e-19
1.24039e-19
5.89123e-20
2.59456e-20
1.02791e-20
3.60402e-21
1.12891e-21
3.26207e-22
8.91772e-23
2.49036e-23
7.05298e-24
2.36146e-24
3.46068e-17
2.32897e-17
1.58891e-17
1.04971e-17
5.76812e-18
2.8694e-18
1.36989e-18
6.65186e-19
3.29769e-19
1.7184e-19
8.85657e-20
4.33908e-20
1.99616e-20
8.65293e-21
3.42869e-21
1.21902e-21
3.77514e-22
1.04214e-22
2.67681e-23
6.50138e-24
1.56263e-24
4.11234e-25
3.41115e-26
4.22413e-19
6.45303e-19
1.02328e-18
1.09253e-18
7.5303e-19
4.25439e-19
2.20403e-19
1.14049e-19
6.078e-20
3.22365e-20
1.63334e-20
7.43315e-21
3.05236e-21
1.18304e-21
4.12745e-22
1.26962e-22
3.3311e-23
7.90012e-24
1.76747e-24
3.7414e-25
8.7379e-26
5.6148e-27
1.86696e-28
8.67192e-27
3.45675e-21
3.95434e-20
1.09295e-19
9.64981e-20
6.22822e-20
3.50517e-20
1.93882e-20
1.08547e-20
5.9227e-21
2.99132e-21
1.30086e-21
4.82799e-22
1.66435e-22
4.70921e-23
1.14996e-23
2.42982e-24
4.73179e-25
9.09967e-26
1.66174e-26
2.56469e-27
5.13341e-29
3.66438e-29
0.012116
0.0265493
0.0391796
0.0392389
8.38919e-09
-8.8883e-11
-3.24425e-24
9.81167e-18
1.51052e-08
3.44404e-06
1.04839e-06
1.82422e-05
1.03052e-07
1.34714e-05
4.43037e-06
0.000237413
7.68146e-07
1.32327e-06
0.000120816
0.00020476
9.71931e-06
6.31976e-06
5.1122e-06
2.37268e-06
7.14449e-07
5.06565e-07
1.55045e-07
5.53883e-08
3.21849e-08
4.15095e-09
6.126e-09
4.33267e-09
2.42562e-09
3.15892e-09
4.60686e-09
6.00465e-09
2.9604e-09
3.15393e-09
3.27606e-09
5.22615e-09
1.96923e-09
1.89796e-09
2.87418e-09
5.74861e-09
3.57768e-10
3.201e-10
5.84072e-10
1.28681e-09
4.3294e-11
3.7259e-11
6.67733e-11
1.44933e-10
6.52043e-12
7.10194e-12
1.07484e-11
1.68582e-11
5.62938e-12
9.25335e-12
1.71883e-11
2.6446e-11
6.36817e-12
1.12009e-11
1.82374e-11
2.73361e-11
3.60308e-12
8.29906e-12
1.40217e-11
2.20722e-11
5.53119e-13
2.00477e-12
5.63586e-12
1.22139e-11
1.66271e-13
2.0057e-13
6.02297e-13
2.69084e-12
1.43283e-13
1.2342e-13
1.05075e-13
1.24446e-13
1.29047e-13
1.10691e-13
9.81847e-14
8.08154e-14
1.02535e-13
8.82962e-14
7.87039e-14
7.56991e-14
7.48059e-14
6.26575e-14
5.52235e-14
4.96412e-14
4.86152e-14
4.04734e-14
3.44944e-14
3.04909e-14
2.74201e-14
2.21572e-14
1.94634e-14
1.68522e-14
1.31422e-14
1.04671e-14
9.07231e-15
8.16535e-15
5.24243e-15
4.28243e-15
3.78444e-15
3.20954e-15
1.85662e-15
1.40971e-15
1.19688e-15
1.10813e-15
5.59836e-16
4.40965e-16
3.78487e-16
3.14997e-16
1.44976e-16
1.12908e-16
9.31323e-17
8.08706e-17
3.3631e-17
2.67786e-17
2.21466e-17
1.83577e-17
6.84783e-18
5.25728e-18
4.20977e-18
3.4445e-18
1.27718e-18
9.52302e-19
7.22364e-19
5.50238e-19
1.88473e-19
1.3575e-19
1.01853e-19
7.48208e-20
2.48452e-20
1.6996e-20
1.19747e-20
8.09064e-21
2.66534e-21
1.70525e-21
1.15456e-21
7.07021e-22
2.31054e-22
1.3931e-22
9.84981e-23
4.59587e-23
1.83134e-23
7.24452e-24
2.70614e-24
5.84702e-25
2.79423e-25
7.10069e-26
2.35113e-26
6.54403e-27
1.77417e-28
5.31794e-28
1.19414e-27
3.65707e-27
1.76661e-28
3.98124e-28
1.39647e-27
4.47608e-27
9.1483e-29
3.13317e-28
1.07494e-27
3.2759e-27
0.0112885
0.00613481
0.0134312
0.010276
0.00557324
0.0257177
0.0345946
0.00285902
2.94192e-05
2.83081e-05
7.7362e-05
0.000115811
1.74551e-05
2.18252e-05
4.19575e-06
3.9892e-06
0.000918522
0.00198632
3.70712e-09
1.23249e-06
0.00042603
0.0119776
0.00521308
0.00462732
0.0228148
0.0165098
0.000326539
2.70558e-05
2.7089e-05
2.98942e-05
6.62113e-05
6.607e-05
4.87066e-05
6.42339e-06
9.3486e-05
0.00260424
0.00337647
3.71772e-09
8.22669e-05
0.00125494
0.00279316
0.000957279
0.00464539
0.0083621
0.00253461
0.000151879
0.000135649
4.37887e-05
4.80437e-07
3.9343e-06
9.67983e-06
9.87253e-07
7.88215e-06
0.000282573
0.00415224
0.00529378
0.00496836
0.000531803
0.000357369
6.92165e-06
0.000357686
0.00118991
9.25696e-07
1.12303e-06
0.000123925
0.000138422
4.2058e-05
4.67012e-07
4.577e-07
3.30966e-07
5.56488e-06
3.09849e-05
4.85739e-05
0.00131569
0.00386183
0.00318155
0.00027762
6.35955e-05
6.66976e-06
1.359e-05
6.92382e-07
6.91791e-07
1.48781e-06
2.21416e-05
3.54467e-05
9.54962e-06
2.52433e-06
7.61885e-07
7.88791e-08
9.97212e-08
9.1548e-06
2.36972e-05
1.61568e-05
3.35066e-05
7.86239e-06
4.48753e-08
1.4768e-08
3.86735e-07
2.36278e-07
8.63224e-07
8.53926e-07
4.9132e-07
-1.31894e-13
2.67988e-12
4.19787e-10
4.12333e-07
2.01875e-07
7.36014e-08
1.25956e-07
4.76035e-08
4.70635e-08
5.85372e-08
1.2219e-06
7.5964e-06
3.3312e-09
1.51216e-08
1.5335e-07
2.43206e-07
4.59213e-07
5.23955e-07
2.11142e-07
3.38327e-08
1.55904e-08
6.62241e-09
5.08921e-09
5.08227e-09
1.47338e-06
2.85438e-06
1.15466e-06
6.41219e-07
7.4424e-05
0.000134677
9.01058e-06
1.00086e-08
7.5512e-08
1.33967e-07
1.91862e-07
1.78431e-07
1.89028e-07
8.56105e-08
4.60331e-08
3.19483e-08
5.71489e-09
5.08261e-09
2.25906e-08
4.26792e-07
1.25977e-06
0.000175339
0.00117743
0.00218579
0.00229121
0.00104464
1.11493e-08
2.50518e-08
3.708e-08
3.77876e-08
3.6756e-08
8.78167e-08
2.75227e-07
1.25868e-07
2.20659e-07
2.22754e-06
3.47809e-07
7.47989e-07
1.55242e-06
9.27584e-06
0.00126632
0.00272957
0.00272937
0.00272957
0.00222273
8.54403e-09
1.03378e-08
1.58937e-08
2.09129e-08
3.07261e-08
1.72061e-07
5.16877e-07
1.46373e-06
1.83528e-06
2.81259e-06
2.33801e-05
5.01082e-05
5.47512e-05
0.000106254
0.000915654
0.00136286
0.00152286
0.00135454
0.00103761
8.4385e-09
1.0872e-08
1.0371e-08
4.68013e-09
9.0455e-09
5.09979e-08
3.74201e-09
9.28361e-07
5.97791e-06
8.16934e-06
2.18331e-05
3.59254e-05
4.68495e-05
8.27007e-05
1.18261e-05
2.10841e-09
2.64794e-09
2.39564e-10
7.27339e-06
1.82124e-09
2.24491e-09
1.52201e-09
2.00338e-10
2.02077e-10
4.52973e-10
2.8332e-10
1.60333e-07
2.35132e-06
4.2336e-06
6.70844e-06
6.95562e-06
6.17064e-06
4.58637e-06
1.48633e-09
1.64838e-08
3.09797e-09
2.78245e-10
7.93835e-10
1.99926e-10
1.82484e-10
1.66488e-10
2.67699e-10
7.42428e-10
1.6993e-09
2.78684e-09
6.59773e-09
1.33945e-07
4.02551e-07
1.24256e-07
3.24482e-07
5.17412e-07
1.45656e-09
1.47227e-09
2.67067e-09
4.01281e-09
2.43696e-09
4.41237e-08
3.02001e-11
8.3236e-11
2.3076e-10
5.19762e-10
1.13165e-09
2.63293e-09
7.03101e-09
9.75996e-09
1.12104e-08
3.80919e-08
1.54157e-08
2.28707e-09
1.44444e-09
1.62121e-09
3.03816e-09
7.82785e-09
8.86147e-09
4.83746e-09
3.06238e-09
4.24267e-11
1.07603e-10
2.42479e-10
4.78454e-10
8.49895e-10
1.39395e-09
2.58708e-09
4.50853e-09
3.80985e-09
3.99039e-09
5.67707e-09
2.2219e-09
1.60559e-09
2.29728e-09
4.30669e-09
7.48288e-09
7.71097e-09
3.14589e-09
7.61063e-10
3.97561e-11
8.3974e-11
1.58884e-10
2.80285e-10
4.61958e-10
8.63321e-10
1.57566e-09
3.39291e-09
3.63756e-09
3.21979e-09
2.45245e-09
1.43874e-09
1.31916e-09
1.74224e-09
2.99054e-09
4.51364e-09
3.85647e-09
1.38911e-09
7.53781e-10
3.31183e-11
6.68675e-11
1.22594e-10
2.10134e-10
3.2923e-10
4.84868e-10
7.18085e-10
1.75989e-09
2.51959e-09
2.59158e-09
1.83216e-09
1.06454e-09
9.11206e-10
9.33047e-10
1.34761e-09
1.6096e-09
1.25019e-09
4.87528e-10
3.75412e-10
2.23168e-11
4.38498e-11
7.86479e-11
1.35605e-10
2.27662e-10
3.55417e-10
4.92239e-10
6.60622e-10
1.02324e-09
1.17744e-09
1.09146e-09
6.85263e-10
5.0168e-10
4.1816e-10
4.06898e-10
4.20296e-10
3.0734e-10
1.01307e-10
6.87508e-11
9.87565e-12
2.09074e-11
3.59985e-11
6.16853e-11
1.17776e-10
2.09704e-10
2.76211e-10
3.34319e-10
3.95999e-10
4.44328e-10
4.4589e-10
3.27152e-10
2.19062e-10
1.6376e-10
1.0382e-10
7.32658e-11
3.87694e-11
1.07879e-11
1.99793e-12
2.32807e-12
8.96794e-12
1.87077e-11
3.28358e-11
5.3164e-11
7.94668e-11
1.08814e-10
1.38047e-10
1.63937e-10
1.79388e-10
1.7062e-10
1.37398e-10
9.03781e-11
5.41819e-11
1.9779e-11
8.94657e-12
3.04616e-12
2.52966e-13
2.71695e-14
3.03842e-13
1.59814e-12
5.46116e-12
1.07123e-11
1.79692e-11
2.69501e-11
3.7034e-11
4.77434e-11
5.90916e-11
6.7941e-11
6.89568e-11
5.44228e-11
3.23875e-11
1.36202e-11
3.43832e-12
7.79496e-13
4.29401e-14
6.01523e-15
6.9429e-16
8.67894e-14
2.41066e-13
8.02833e-13
2.21562e-12
4.49172e-12
7.01505e-12
9.88895e-12
1.30004e-11
1.6556e-11
2.03599e-11
2.21116e-11
1.79609e-11
9.97553e-12
3.50546e-12
6.85825e-13
8.91884e-14
5.19192e-15
7.61893e-16
5.94002e-17
4.7161e-14
6.22574e-14
1.32362e-13
3.1821e-13
7.39309e-13
1.43787e-12
2.12901e-12
2.83661e-12
3.77078e-12
4.90199e-12
5.59713e-12
4.91158e-12
2.61001e-12
8.25887e-13
1.29943e-13
1.38643e-14
7.88097e-16
1.05367e-16
2.48369e-17
2.67379e-14
2.50179e-14
3.12531e-14
4.85193e-14
8.5788e-14
1.67777e-13
3.10576e-13
4.49305e-13
6.42911e-13
8.97324e-13
1.08268e-12
1.05489e-12
5.74336e-13
1.71087e-13
2.25482e-14
1.41613e-15
1.20534e-16
4.10622e-17
1.67932e-17
1.35457e-14
1.14834e-14
1.0444e-14
1.02942e-14
1.23449e-14
1.90082e-14
3.52793e-14
5.41757e-14
8.42164e-14
1.27406e-13
1.66374e-13
1.74337e-13
1.05596e-13
3.26121e-14
4.18231e-15
1.70883e-16
3.37468e-17
2.65092e-17
1.2067e-17
6.20981e-15
4.76929e-15
3.80213e-15
3.15803e-15
2.74572e-15
2.68724e-15
3.29532e-15
4.65677e-15
7.83853e-15
1.34299e-14
1.91552e-14
2.14896e-14
1.49572e-14
5.04353e-15
6.1931e-16
2.99829e-17
1.50658e-17
1.73282e-17
8.42514e-18
2.38075e-15
1.79593e-15
1.34116e-15
1.0027e-15
7.43783e-16
5.62096e-16
4.3028e-16
3.97277e-16
6.4484e-16
1.19757e-15
1.88235e-15
2.26654e-15
1.82374e-15
7.19108e-16
7.57979e-17
6.98434e-18
8.17557e-18
1.13666e-17
5.76368e-18
8.03539e-16
5.64024e-16
4.0845e-16
2.88257e-16
2.07633e-16
1.50892e-16
8.16561e-17
4.52261e-17
5.4956e-17
9.65562e-17
1.60347e-16
2.07176e-16
1.74047e-16
5.65944e-17
7.43241e-18
3.10648e-18
4.37921e-18
8.24379e-18
3.84074e-18
2.22453e-16
1.53255e-16
1.02374e-16
6.77053e-17
4.86193e-17
2.84127e-17
1.33267e-17
7.84544e-18
6.57417e-18
8.19436e-18
1.28229e-17
1.50918e-17
3.66129e-18
7.57488e-19
8.13163e-19
1.35754e-18
2.45712e-18
5.52063e-18
2.47476e-18
5.55911e-17
3.61743e-17
2.22239e-17
1.44553e-17
9.39493e-18
3.57888e-18
1.17306e-18
8.45119e-19
8.31845e-19
8.51875e-19
9.40647e-19
2.44904e-19
1.13725e-19
1.60829e-19
3.37795e-19
7.58436e-19
1.69561e-18
3.80873e-18
1.52606e-18
1.17319e-17
7.01968e-18
4.05414e-18
2.66032e-18
1.07892e-18
2.2719e-19
5.30912e-20
5.88506e-20
7.60918e-20
8.46765e-20
3.62104e-20
3.53983e-20
6.32132e-20
1.27735e-19
2.60158e-19
5.75694e-19
1.37322e-18
2.41837e-18
9.38756e-19
2.09257e-18
1.18985e-18
7.46818e-19
3.04577e-19
6.96356e-20
6.34689e-21
2.09367e-21
3.87984e-21
7.62417e-21
7.57819e-21
1.38014e-20
2.93045e-20
6.1738e-20
1.23288e-19
2.33782e-19
4.97999e-19
1.07697e-18
1.65444e-18
5.07143e-19
3.07922e-19
1.73681e-19
8.746e-20
1.93135e-20
1.5596e-21
2.49301e-22
3.99327e-22
1.0155e-21
2.32435e-21
5.63994e-21
1.35382e-20
3.00131e-20
6.22228e-20
1.20931e-19
2.15644e-19
4.34538e-19
8.56522e-19
9.71019e-19
3.05997e-19
3.89049e-20
2.13335e-20
5.75476e-21
5.235e-22
7.06231e-23
1.18648e-22
3.13177e-22
8.58319e-22
2.2653e-21
5.6753e-21
1.37191e-20
3.06718e-20
6.25654e-20
1.14431e-19
2.01117e-19
3.91112e-19
6.36566e-19
6.4795e-19
1.47788e-19
4.43659e-21
1.18651e-21
1.4063e-22
1.9558e-23
3.46281e-23
9.97459e-23
2.98787e-22
8.42057e-22
2.2307e-21
5.60321e-21
1.34162e-20
2.95788e-20
5.89107e-20
1.07034e-19
1.89867e-19
3.28789e-19
4.73837e-19
3.38728e-19
8.47525e-20
3.14829e-22
4.18982e-23
4.59339e-24
8.99246e-24
2.92113e-23
9.55246e-23
2.85698e-22
8.07241e-22
2.15477e-21
5.41226e-21
1.28967e-20
2.83703e-20
5.59845e-20
1.00354e-19
1.67681e-19
2.51188e-19
3.18485e-19
2.21249e-19
3.65944e-20
6.38979e-24
6.97054e-25
1.94982e-24
7.69255e-24
2.68336e-23
8.73947e-23
2.61879e-22
7.36915e-22
1.94565e-21
4.90201e-21
1.1605e-20
2.51944e-20
4.91109e-20
8.69113e-20
1.37502e-19
1.88663e-19
2.00039e-19
9.77976e-20
2.08443e-20
1.10034e-25
3.80626e-25
1.71781e-24
6.73843e-24
2.34147e-23
7.4014e-23
2.21564e-22
6.16062e-22
1.62546e-21
4.061e-21
9.56908e-21
2.06227e-20
3.97637e-20
6.8414e-20
1.03006e-19
1.27121e-19
1.04311e-19
5.38661e-20
8.87873e-21
5.76247e-26
3.29625e-25
1.42789e-24
5.33511e-24
1.7985e-23
5.61112e-23
1.65295e-22
4.57743e-22
1.20851e-21
3.03052e-21
7.13268e-21
1.51514e-20
2.87323e-20
4.90412e-20
6.60087e-20
7.62792e-20
5.30975e-20
1.89036e-20
4.90368e-21
5.19841e-26
2.55835e-25
1.00003e-24
3.43706e-24
1.1136e-23
3.38131e-23
1.00032e-22
2.85086e-22
7.62488e-22
1.933e-21
4.54597e-21
9.86435e-21
1.91145e-20
3.06279e-20
3.77426e-20
3.91582e-20
2.04512e-20
8.53345e-21
2.44506e-21
3.50147e-26
1.4563e-25
5.12948e-25
1.64692e-24
5.26366e-24
1.64624e-23
4.97163e-23
1.44581e-22
4.00146e-22
1.05879e-21
2.57051e-21
5.57896e-21
1.04754e-20
1.68243e-20
1.9255e-20
1.64666e-20
6.817e-21
3.03346e-21
7.68735e-22
1.27905e-26
4.40337e-26
1.36364e-25
4.14937e-25
1.52023e-24
5.16935e-24
1.74196e-23
5.44544e-23
1.61204e-22
4.4636e-22
1.12758e-21
2.53808e-21
4.73291e-21
7.14963e-21
7.19399e-21
4.63212e-21
1.76538e-21
5.17825e-22
3.23247e-23
)
;

boundaryField
{
    leftWall
    {
        type            alphaContactAngle;
        contactAngleProperties 
        {
            air             
            {
                theta0          90;
            }
            water           
            {
                theta0          90;
            }
            oil             
            {
                theta0          90;
            }
        }
        value           nonuniform List<scalar> 
50
(
1
1
1
1
1
1
0.449975
3.60041e-07
3.4771e-10
3.26439e-10
3.50997e-10
4.06549e-10
4.5658e-10
4.64675e-10
4.64696e-10
4.63334e-10
4.40802e-10
3.40439e-10
2.66714e-10
2.46221e-10
2.49924e-10
2.56672e-10
2.53687e-10
2.42414e-10
2.22762e-10
1.94285e-10
1.66214e-10
1.3741e-10
1.10767e-10
8.85162e-11
6.7304e-11
4.91124e-11
3.45854e-11
2.32391e-11
1.54153e-11
9.63229e-12
6.08524e-12
3.91652e-12
2.24633e-12
1.31279e-12
6.8232e-13
3.37608e-13
1.30908e-13
5.30305e-14
1.38988e-14
3.54171e-15
5.25448e-16
3.46068e-17
4.22413e-19
8.67192e-27
)
;
    }
    rightWall
    {
        type            alphaContactAngle;
        contactAngleProperties 
        {
            air             
            {
                theta0          90;
            }
            water           
            {
                theta0          90;
            }
            oil             
            {
                theta0          90;
            }
        }
        value           nonuniform List<scalar> 
50
(
0.752719
0.752719
0.499016
0.222309
9.46286e-07
2.74067e-07
2.37181e-06
1.0752e-05
3.70712e-09
3.71772e-09
0.00496836
0.00318155
7.86239e-06
7.5964e-06
9.01058e-06
0.00104464
0.00222273
0.00103761
7.27339e-06
7.93835e-10
4.41237e-08
3.06238e-09
7.61063e-10
7.53781e-10
3.75412e-10
6.87508e-11
1.99793e-12
2.71695e-14
6.9429e-16
5.94002e-17
2.48369e-17
1.67932e-17
1.2067e-17
8.42514e-18
5.76368e-18
3.84074e-18
2.47476e-18
1.52606e-18
9.38756e-19
5.07143e-19
3.05997e-19
1.47788e-19
8.47525e-20
3.65944e-20
2.08443e-20
8.87873e-21
4.90368e-21
2.44506e-21
7.68735e-22
3.23247e-23
)
;
    }
    lowerWall
    {
        type            alphaContactAngle;
        contactAngleProperties 
        {
            air             
            {
                theta0          90;
            }
            water           
            {
                theta0          90;
            }
            oil             
            {
                theta0          90;
            }
        }
        value           nonuniform List<scalar> 
62
(
1
1
1
1
1
1
1
1
1
1
1
1
1
1
1
1
1
1
0.999997
0.9997
0.999451
0.999452
0.999495
0.999495
1
1
1
0.99999
0.959282
0.269923
-2.97566e-08
0.012116
0.0265493
0.0391796
0.0392389
0.877985
0.87658
0.599736
0.462874
0.0575287
0.0488732
0.0496725
0.028178
0.877985
0.877985
0.877985
0.877984
0.778679
0.656738
0.656796
0.669372
0.692582
0.696752
0.650869
0.646938
0.697827
0.752722
0.752728
0.75272
0.752719
0.752716
0.752719
)
;
    }
    atmosphere
    {
        type            inletOutlet;
        inletValue      uniform 0;
        value           nonuniform List<scalar> 
46
(
0
0
3.95434e-20
1.09295e-19
9.6498e-20
6.22822e-20
3.50517e-20
1.93882e-20
1.08547e-20
5.9227e-21
2.99131e-21
1.30086e-21
4.82799e-22
0
0
0
0
0
0
0
0
0
0
0
0
0
0
0
0
0
0
0
5.16935e-24
1.74196e-23
5.44544e-23
1.61204e-22
4.4636e-22
1.12757e-21
2.53807e-21
4.73291e-21
7.14962e-21
0
0
0
0
0
)
;
    }
    defaultFaces
    {
        type            empty;
    }
}


// ************************************************************************* //
