/*--------------------------------*- C++ -*----------------------------------*\
  =========                 |
  \\      /  F ield         | OpenFOAM: The Open Source CFD Toolbox
   \\    /   O peration     | Website:  https://openfoam.org
    \\  /    A nd           | Version:  13
     \\/     M anipulation  |
\*---------------------------------------------------------------------------*/
FoamFile
{
    format      ascii;
    class       volScalarField;
    location    "2.9";
    object      alpha.water;
}
// * * * * * * * * * * * * * * * * * * * * * * * * * * * * * * * * * * * * * //

dimensions      [];

internalField   nonuniform List<scalar> 
2268
(
1.08809e-10
1.36197e-10
1.52945e-10
1.59278e-10
1.67432e-10
1.75092e-10
1.8257e-10
1.89133e-10
1.95039e-10
2.01493e-10
2.09506e-10
2.30417e-10
2.60875e-10
3.05595e-10
3.64755e-10
4.42755e-10
5.68581e-10
8.32219e-10
1.56495e-09
2.45163e-09
2.76842e-09
2.76879e-09
2.76091e-09
2.07006e-10
2.60824e-10
2.72901e-10
2.60648e-10
2.82392e-10
3.12231e-10
3.56558e-10
4.04411e-10
4.50464e-10
4.89076e-10
5.28749e-10
5.54154e-10
5.77581e-10
6.01441e-10
6.32648e-10
6.89196e-10
7.73043e-10
9.46628e-10
1.31678e-09
2.05657e-09
2.48781e-09
2.49448e-09
1.83296e-09
3.23533e-10
1.05623e-09
1.53478e-09
1.33733e-09
9.81422e-10
6.30874e-10
4.21729e-10
5.16044e-10
6.28491e-10
7.40384e-10
8.54416e-10
9.4851e-10
9.88355e-10
9.88679e-10
9.16646e-10
8.84697e-10
9.29085e-10
1.08753e-09
1.3809e-09
1.64958e-09
1.78497e-09
1.72097e-09
9.06493e-10
1.27218e-10
1.45819e-10
3.41615e-10
3.65182e-10
7.45529e-10
2.20035e-09
2.18917e-09
3.3707e-10
4.18197e-10
5.15288e-10
6.69618e-10
6.75384e-10
7.23081e-10
8.04447e-10
7.45835e-10
7.41574e-10
7.46121e-10
7.12437e-10
7.49457e-10
7.94566e-10
7.06468e-10
5.15083e-10
3.92278e-10
3.03977e-10
1.18433e-08
5.49484e-11
6.42012e-11
4.73893e-10
2.4203e-09
2.34964e-09
2.20077e-10
2.6025e-10
7.29561e-10
3.02624e-10
7.35925e-10
8.14204e-10
9.60962e-10
8.8115e-10
7.45836e-10
7.34206e-11
6.13471e-11
6.08377e-11
6.13471e-11
-7.27834e-12
7.73402e-11
6.81255e-11
1.56011e-07
3.60984e-07
0.00574023
0.00740573
0.00605782
0.000659451
2.54612e-07
8.40455e-08
1.02155e-08
5.23161e-08
0.00133973
0.00280148
0.00235909
0.00246677
0.00324621
0.00480662
0.00727023
0.0107066
0.0149918
0.0195799
0.0247764
0.0321855
0.0405538
0.550025
0.618107
0.641831
0.644633
0.640162
0.631886
0.613006
0.589532
0.56544
0.543216
0.521382
0.506428
0.503553
0.510629
0.527033
0.549983
0.577272
0.605751
0.632426
0.655864
0.677032
0.701458
0.727363
1
1
1
1
0.999999
0.999999
1
1
0.99981
0.999406
1
1
1
1
1
1
1
1
0.999998
0.999973
0.999807
0.998434
0.99632
0.00816571
0.041613
0.0470062
0.0364501
0.00949306
0.00124774
0.00118048
0.000871296
0.00087761
0.000888785
0.0124144
0.0547938
0.124408
0.124396
0.124403
0.123106
0.0414608
0.0027296
0.0112784
0.00727226
0.00872801
0.0262066
0.0771837
0.0923131
0.0684894
0.0512777
0.081117
0.0518421
0.00638319
0.00127951
0.0238895
0.0454384
0.052001
0.0643343
0.0239172
0.00214406
0.00273191
0.0112854
0.00733057
0.00723428
0.00731321
0.0766435
0.363114
0.464986
0.50225
0.531595
0.431459
0.0839985
0.000682242
0.000678938
0.000608907
0.000611647
0.000612214
0.000614347
0.00060682
0.000600985
0.000594025
0.0773192
0.134173
0.230438
0.399715
0.460025
0.538146
0.702468
0.801394
0.806006
0.601507
0.189066
0.00912576
0.000615173
0.00101495
0.0241676
0.0865674
0.211283
0.264634
0.0693492
0.540283
0.747746
0.775642
0.843814
0.604233
0.260641
0.232909
0.211604
0.528888
0.959327
0.817158
0.356916
0.0212351
0.0746877
0.541857
0.805975
0.856052
0.969399
0.509561
0.892414
0.914481
0.914598
0.907087
0.488231
0.187183
0.137916
0.134543
0.423354
0.952879
0.998972
0.872903
0.240009
0.48586
0.970313
0.999829
0.999833
0.999829
0.653679
0.913999
0.914265
0.914929
0.929362
0.506022
0.125171
0.123043
0.498429
0.922748
0.99005
0.999483
0.999483
0.359516
0.57461
0.999776
0.999816
0.999826
0.999388
0.809684
0.915479
0.900262
0.901321
0.942126
0.753586
0.162357
0.217009
0.837676
0.999011
0.999451
0.999484
0.963384
0.342855
0.581842
0.985306
0.999816
0.99938
0.998171
0.819069
1
1
1
1
0.999967
0.999998
1
1
1
1
1
1
1
1
1
1
1
1
1
1
0.999999
0.999835
0.996946
1
1
0.999093
0.999525
0.999973
1
1
1
1
1
1
1
1
1
1
1
1
1
0.998846
0.993056
0.983221
0.972365
0.949837
0.976442
0.986943
0.998168
0.999657
0.999968
1
1
1
1
0.999882
0.999463
0.998688
0.994869
0.98461
0.969099
0.949064
0.922903
0.883346
0.788978
0.668748
0.546022
0.431464
0.380817
0.882818
0.813316
0.740561
0.717176
0.728195
0.799311
0.873762
0.862986
0.852968
0.839591
0.814082
0.772305
0.702732
0.594234
0.50679
0.440052
0.346671
0.201428
0.0755021
0.00560487
2.50374e-16
3.885e-18
2.44141e-16
0.263714
0.113896
0.0480764
0.0398104
0.0410055
0.073388
0.14367
0.164779
0.141595
0.109539
0.0767892
0.0396598
0.0041418
1.25742e-20
1.65436e-26
-2.09367e-26
-2.89625e-26
2.68487e-26
4.16225e-26
8.44376e-11
9.12047e-09
6.57697e-08
1.25261e-06
4.84501e-05
2.55845e-05
4.86012e-05
0.000134179
0.00045224
5.82223e-08
-4.81131e-20
-6.61005e-21
5.13519e-25
-1.70492e-27
-1.02142e-26
-6.11659e-18
6.28331e-17
4.20372e-09
5.56637e-09
5.68564e-09
9.51223e-09
2.06338e-08
8.98746e-08
1.49379e-07
2.80623e-07
9.95693e-07
7.90765e-06
4.60186e-05
0.0004542
0.000106742
3.05554e-05
6.21468e-07
4.34772e-08
1.59835e-08
4.70443e-09
4.38067e-09
2.87332e-09
2.51534e-09
5.56825e-09
2.77288e-08
5.92602e-08
4.96627e-08
2.98399e-08
3.93731e-08
4.2703e-08
2.12108e-07
3.00065e-07
3.01781e-07
4.85877e-07
1.43686e-06
8.67659e-05
0.000618409
0.000173125
3.14838e-07
1.2906e-07
2.54528e-07
2.13275e-07
1.18176e-07
2.13645e-08
1.35011e-09
1.35638e-09
1.35011e-09
1.44159e-07
1.94344e-07
1.94611e-07
1.14495e-07
1.54794e-07
2.05158e-07
2.06518e-07
7.73969e-08
8.82722e-09
1.88228e-08
1.11927e-06
3.15979e-05
0.000309966
0.000102856
9.4566e-08
8.74721e-08
2.5015e-07
2.617e-07
2.48045e-07
5.56327e-08
6.24828e-09
1.67097e-09
1.12621e-08
9.96788e-08
1.91935e-07
1.94079e-07
1.23928e-07
1.11034e-08
2.79941e-09
4.7337e-09
2.82306e-10
2.82521e-10
1.11794e-07
5.11012e-07
3.30074e-07
4.25021e-07
4.08801e-06
1.96689e-06
1.42306e-07
7.27979e-08
8.28175e-08
5.82316e-08
5.72296e-08
4.44631e-08
2.42186e-08
1.73811e-08
7.37697e-09
4.11811e-09
3.93318e-09
4.12652e-09
3.92455e-09
3.01255e-09
1.74853e-09
7.80927e-10
7.14082e-10
2.66973e-08
1.59645e-09
2.88951e-07
4.12854e-07
5.80021e-07
5.79695e-07
2.84971e-11
2.10062e-08
4.01147e-08
8.98491e-08
2.02722e-07
1.68361e-07
7.8441e-08
5.17299e-08
5.01529e-08
4.60565e-08
3.98942e-08
1.71444e-08
5.35546e-09
2.9582e-09
2.20545e-09
1.69001e-09
1.48418e-09
3.47923e-09
1.9689e-09
3.81838e-07
1.70977e-06
3.12494e-06
5.31468e-07
2.64944e-11
3.82044e-11
2.58886e-07
1.8644e-06
2.44958e-06
1.31843e-06
5.6547e-07
4.21762e-07
3.28471e-07
2.76557e-07
1.38646e-07
1.79771e-08
5.11098e-09
4.97468e-09
4.01973e-09
2.79585e-09
1.29886e-09
7.07335e-10
8.50501e-10
7.16611e-07
3.83126e-06
4.25411e-06
9.25305e-07
3.69381e-11
3.8803e-11
7.02547e-07
2.59907e-06
3.15848e-06
3.17767e-06
1.27991e-06
9.93208e-07
6.3465e-07
4.24962e-07
1.55102e-07
5.76582e-08
7.59404e-09
6.9067e-09
4.71801e-09
2.95747e-09
1.582e-09
5.83558e-10
3.30114e-10
4.89332e-07
3.60658e-06
4.22302e-06
2.32885e-06
3.75211e-11
3.7302e-11
2.71139e-07
1.94708e-06
2.75434e-06
3.34679e-06
3.32607e-06
2.79423e-06
1.34336e-06
7.2629e-07
1.28698e-07
3.40603e-08
1.55291e-08
1.05347e-08
9.41174e-09
7.64615e-09
5.2808e-09
3.04807e-09
7.12162e-10
1.89019e-07
2.09801e-06
3.78045e-06
2.13656e-06
3.59814e-11
4.78451e-11
4.78951e-11
9.25982e-09
1.05014e-06
3.35368e-06
3.32085e-06
3.30268e-06
3.18236e-06
1.38252e-06
1.17522e-08
1.18941e-08
1.17438e-08
1.32955e-08
1.89237e-08
1.78868e-08
1.38389e-08
9.58664e-09
3.5398e-09
4.81619e-08
3.13884e-07
1.34076e-06
5.84358e-07
3.76793e-11
6.05877e-11
9.41224e-11
8.74605e-11
6.92709e-11
7.05603e-07
1.99674e-06
3.23932e-06
2.75548e-06
5.65386e-07
1.18102e-08
1.60717e-08
1.20307e-08
1.25936e-08
1.99288e-08
1.98805e-08
1.8705e-08
1.28985e-08
9.35228e-09
1.45748e-08
4.98777e-09
4.91855e-09
4.98885e-09
1.6166e-08
1.0998e-09
4.62259e-10
1.26271e-09
3.37582e-09
6.98157e-09
1.80761e-07
6.42606e-07
6.90185e-07
1.09907e-07
5.12938e-08
6.88381e-08
5.58238e-08
9.17877e-09
9.93033e-09
1.67393e-08
1.74182e-08
1.17729e-08
9.19329e-09
1.47842e-08
9.49831e-09
8.58356e-09
4.81155e-09
4.16512e-09
1.39921e-09
6.70853e-10
1.4829e-09
5.05044e-09
1.79339e-08
3.58187e-08
4.36627e-08
2.06376e-09
1.26206e-08
4.12846e-08
5.54378e-08
3.96362e-08
1.01372e-08
7.55028e-09
1.09071e-08
1.09726e-08
8.87201e-09
7.02651e-09
1.98679e-08
1.71191e-08
1.60604e-08
5.54869e-09
2.98417e-09
1.51848e-09
6.83319e-10
1.07232e-09
1.92333e-09
3.19301e-09
4.74086e-09
4.00165e-09
2.02803e-09
7.7412e-09
2.45515e-08
2.90631e-08
2.44808e-08
1.20653e-08
6.97719e-09
7.24203e-09
7.12128e-09
6.28945e-09
5.17918e-09
1.99329e-08
1.48704e-08
1.61959e-08
5.95396e-09
3.03161e-09
1.87963e-09
1.2027e-09
1.29346e-09
1.59267e-09
1.93999e-09
2.36631e-09
2.24674e-09
1.26745e-09
2.32751e-09
8.20896e-09
1.18497e-08
1.14738e-08
8.41911e-09
5.54142e-09
4.59542e-09
4.09418e-09
3.66206e-09
3.34556e-09
1.95627e-08
1.1818e-08
1.32952e-08
5.46599e-09
3.14048e-09
2.11995e-09
1.59754e-09
1.39814e-09
1.33417e-09
1.44126e-09
1.6088e-09
1.60594e-09
1.26486e-09
1.36759e-09
3.33015e-09
5.14519e-09
5.36099e-09
4.57289e-09
3.44109e-09
2.60854e-09
2.12899e-09
1.93907e-09
1.83499e-09
1.88995e-08
9.71854e-09
8.8968e-09
4.67412e-09
2.96961e-09
2.11187e-09
1.64499e-09
1.36219e-09
1.1652e-09
1.05424e-09
1.03358e-09
9.38119e-10
8.15008e-10
8.10221e-10
1.35675e-09
2.1462e-09
2.41145e-09
2.12872e-09
1.67921e-09
1.25293e-09
9.62379e-10
8.32578e-10
8.33688e-10
1.83554e-08
7.94237e-09
6.20682e-09
3.81281e-09
2.68982e-09
2.02558e-09
1.60125e-09
1.30283e-09
1.06483e-09
8.50135e-10
6.63483e-10
5.6623e-10
4.7274e-10
4.4826e-10
5.8273e-10
8.28876e-10
9.58638e-10
8.81878e-10
6.88701e-10
5.17059e-10
3.83448e-10
3.25613e-10
3.24577e-10
1.81582e-08
6.75145e-09
4.31387e-09
3.05299e-09
2.3754e-09
1.88138e-09
1.5092e-09
1.20461e-09
9.46605e-10
7.11236e-10
5.26831e-10
3.91121e-10
2.93748e-10
2.52076e-10
2.52855e-10
2.99016e-10
3.38443e-10
3.12594e-10
2.49383e-10
1.87909e-10
1.38071e-10
1.07947e-10
1.07444e-10
1.8115e-08
6.23554e-09
3.19196e-09
2.52975e-09
2.10463e-09
1.70094e-09
1.35584e-09
1.0611e-09
8.12703e-10
6.03342e-10
4.36827e-10
3.07222e-10
2.14462e-10
1.57169e-10
1.27801e-10
1.14876e-10
1.11435e-10
9.93735e-11
7.90041e-11
5.98872e-11
4.28997e-11
3.41045e-11
3.33865e-11
1.80801e-08
6.43818e-09
2.66236e-09
2.25139e-09
1.89281e-09
1.51025e-09
1.1662e-09
8.83279e-10
6.58697e-10
4.82229e-10
3.47896e-10
2.44992e-10
1.6751e-10
1.12897e-10
7.58548e-11
5.45517e-11
4.14814e-11
3.18856e-11
2.42208e-11
1.81686e-11
1.3677e-11
1.07003e-11
9.87402e-12
1.79797e-08
7.54158e-09
2.70578e-09
2.17584e-09
1.72877e-09
1.31313e-09
9.69561e-10
7.03655e-10
5.05151e-10
3.61289e-10
2.58383e-10
1.81165e-10
1.24912e-10
8.34004e-11
5.31492e-11
3.3541e-11
2.10244e-11
1.38063e-11
8.90999e-12
6.30118e-12
4.75244e-12
3.60946e-12
3.23562e-12
1.69154e-08
7.65619e-09
3.37045e-09
2.21034e-09
1.57453e-09
1.11398e-09
7.72622e-10
5.27942e-10
3.63252e-10
2.51387e-10
1.74411e-10
1.19867e-10
8.16725e-11
5.45719e-11
3.49342e-11
2.13508e-11
1.27183e-11
7.57548e-12
4.29266e-12
2.64016e-12
1.85608e-12
1.2996e-12
1.10634e-12
1.53873e-08
7.29565e-09
3.73702e-09
2.18635e-09
1.41775e-09
9.25753e-10
5.97346e-10
3.80513e-10
2.44381e-10
1.59156e-10
1.05098e-10
6.95949e-11
4.65165e-11
3.08541e-11
1.99191e-11
1.21887e-11
7.24945e-12
4.14242e-12
2.20476e-12
1.21268e-12
7.31565e-13
4.65771e-13
3.68172e-13
1.40929e-08
6.7231e-09
3.57016e-09
2.03962e-09
1.23221e-09
7.47328e-10
4.46719e-10
2.6387e-10
1.57093e-10
9.49388e-11
5.86693e-11
3.63839e-11
2.34002e-11
1.48157e-11
9.61313e-12
5.95534e-12
3.50418e-12
1.97819e-12
1.01111e-12
5.11765e-13
2.8747e-13
1.59525e-13
1.18028e-13
1.16211e-08
5.93497e-09
3.19905e-09
1.77689e-09
1.01209e-09
5.75764e-10
3.20317e-10
1.75138e-10
9.54936e-11
5.30367e-11
2.98147e-11
1.72427e-11
1.00961e-11
6.3295e-12
3.97922e-12
2.4282e-12
1.42049e-12
7.94721e-13
3.99583e-13
1.98362e-13
9.58534e-14
5.25754e-14
3.48504e-14
9.88632e-09
5.05961e-09
2.6807e-09
1.43804e-09
7.7702e-10
4.16373e-10
2.12378e-10
1.07954e-10
5.4334e-11
2.7566e-11
1.37201e-11
7.19711e-12
4.07872e-12
2.38007e-12
1.41377e-12
8.52716e-13
4.89964e-13
2.69905e-13
1.31889e-13
6.23101e-14
3.07488e-14
1.49011e-14
9.30082e-15
7.49845e-09
3.86765e-09
2.02318e-09
1.04506e-09
5.3423e-10
2.69375e-10
1.30638e-10
6.13917e-11
2.87409e-11
1.24434e-11
5.81403e-12
2.8393e-12
1.45518e-12
7.93855e-13
4.47395e-13
2.5875e-13
1.3609e-13
7.46342e-14
3.53166e-14
1.62401e-14
7.27169e-15
3.64239e-15
2.12346e-15
5.51084e-09
2.78063e-09
1.34894e-09
6.75565e-10
3.32243e-10
1.51281e-10
6.79737e-11
3.05976e-11
1.26096e-11
5.4686e-12
2.31087e-12
1.00734e-12
4.61859e-13
2.34366e-13
1.19991e-13
6.538e-14
3.4325e-14
1.77469e-14
8.15694e-15
3.58282e-15
1.60216e-15
7.62679e-16
4.14177e-16
3.21672e-09
1.53531e-09
7.39307e-10
3.47973e-10
1.62351e-10
7.34683e-11
3.2181e-11
1.29265e-11
5.26188e-12
2.04674e-12
7.97509e-13
3.08699e-13
1.30073e-13
5.87653e-14
2.92118e-14
1.49223e-14
7.53395e-15
3.61645e-15
1.61227e-15
6.46305e-16
2.79475e-16
1.33899e-16
6.95612e-17
1.8638e-09
8.37121e-10
3.82242e-10
1.73196e-10
7.6353e-11
3.22949e-11
1.32065e-11
5.16009e-12
1.94483e-12
6.83434e-13
2.39557e-13
8.53339e-14
3.23156e-14
1.36758e-14
6.39541e-15
3.11563e-15
1.48517e-15
6.6278e-16
2.77197e-16
1.06022e-16
4.3897e-17
1.99145e-17
9.74018e-18
7.43194e-10
3.58757e-10
1.62541e-10
7.12777e-11
3.0237e-11
1.2316e-11
4.81082e-12
1.78419e-12
6.10178e-13
2.01884e-13
6.40115e-14
2.05691e-14
7.27965e-15
2.89837e-15
1.27797e-15
5.79833e-16
2.56797e-16
1.06481e-16
4.14678e-17
1.53986e-17
6.05082e-18
2.5713e-18
1.1517e-18
2.70849e-10
1.20207e-10
5.29105e-11
2.30294e-11
9.72498e-12
3.92439e-12
1.4818e-12
5.23867e-13
1.69282e-13
5.26307e-14
1.55681e-14
4.62201e-15
1.49469e-15
5.47991e-16
2.23275e-16
9.48916e-17
3.89069e-17
1.48372e-17
5.34675e-18
1.89198e-18
7.04918e-19
2.79231e-19
1.17534e-19
5.80773e-11
2.61466e-11
1.24263e-11
5.76223e-12
2.5732e-12
1.06898e-12
3.94523e-13
1.34654e-13
4.20885e-14
1.22566e-14
3.27069e-15
8.90413e-16
2.67368e-16
9.19634e-17
3.53558e-17
1.39239e-17
5.22919e-18
1.83048e-18
6.12711e-19
2.03497e-19
7.15949e-20
2.57411e-20
1.05625e-20
5.43295e-12
3.11718e-12
1.86993e-12
1.1004e-12
5.46644e-13
2.37634e-13
9.12816e-14
3.11931e-14
9.37059e-15
2.59441e-15
6.63252e-16
1.66458e-16
4.52408e-17
1.44076e-17
5.10443e-18
1.844e-18
6.25809e-19
1.98386e-19
6.11662e-20
1.88017e-20
5.87173e-21
1.96412e-21
2.42676e-22
8.11492e-14
1.10807e-13
1.59062e-13
1.49174e-13
9.2261e-14
4.48356e-14
1.82325e-14
6.37721e-15
1.95733e-15
5.27542e-16
1.27573e-16
2.91908e-17
7.08761e-18
2.06945e-18
6.69071e-19
2.16718e-19
6.44625e-20
1.84147e-20
5.28539e-21
1.48379e-21
4.56955e-22
4.51876e-23
1.28041e-24
8.03124e-21
7.22186e-16
7.92213e-15
1.84954e-14
1.44463e-14
7.87928e-15
3.39232e-15
1.22e-15
3.77566e-16
1.0069e-16
2.36291e-17
5.12509e-18
1.13017e-18
3.01775e-19
8.32739e-20
2.27063e-20
5.82894e-21
1.50306e-21
4.04475e-22
1.0123e-22
1.95712e-23
5.61393e-25
5.3012e-27
0.977218
0.958443
0.941382
0.946718
0.888877
0.872622
0.896366
0.944654
0.350852
0.255572
0.214317
0.283937
-8.53619e-19
2.45433e-16
-9.53862e-20
1.81097e-14
1.85888e-06
2.01478e-06
2.26945e-05
2.28483e-05
1.31395e-05
1.29402e-05
7.99453e-06
1.50448e-05
3.40917e-06
3.47865e-06
6.79038e-06
1.17119e-05
2.85063e-06
9.10968e-07
7.3585e-07
1.42323e-06
6.27043e-07
4.59756e-08
1.26673e-09
1.13003e-09
1.88663e-10
2.06051e-10
3.56954e-09
6.62594e-09
2.20995e-09
2.273e-09
5.53008e-09
1.35432e-08
7.891e-10
6.68279e-10
1.17238e-09
2.99551e-09
2.21827e-10
1.72624e-10
2.00294e-10
3.88352e-10
3.719e-10
3.34216e-10
2.3772e-10
1.87667e-10
9.64916e-10
9.4874e-10
6.48538e-10
3.49061e-10
3.26407e-09
1.62853e-09
1.32929e-09
8.13614e-10
8.46031e-09
3.62336e-09
2.55682e-09
2.03931e-09
6.15654e-09
6.08416e-09
5.13366e-09
3.52784e-09
4.39165e-09
3.95845e-09
3.84567e-09
3.68384e-09
2.88445e-09
2.68572e-09
2.50326e-09
2.42108e-09
1.692e-09
1.59506e-09
1.55548e-09
1.46809e-09
8.24971e-10
8.09246e-10
8.12383e-10
7.95176e-10
3.23627e-10
3.47396e-10
3.66197e-10
3.63022e-10
1.08494e-10
1.08016e-10
1.28072e-10
1.33254e-10
3.23463e-11
3.0949e-11
3.61043e-11
3.84367e-11
9.71872e-12
8.60643e-12
9.47976e-12
1.04236e-11
2.9862e-12
2.72054e-12
2.75869e-12
2.69522e-12
1.02345e-12
8.5164e-13
8.07469e-13
8.3261e-13
3.38064e-13
2.92348e-13
2.74552e-13
2.50741e-13
1.03144e-13
8.76012e-14
7.84497e-14
7.43308e-14
2.89424e-14
2.49083e-14
2.23702e-14
2.01342e-14
7.17841e-15
5.92788e-15
5.16407e-15
4.59459e-15
1.63845e-15
1.32769e-15
1.09706e-15
9.13329e-16
3.01525e-16
2.37843e-16
1.94603e-16
1.55892e-16
4.97098e-17
3.75705e-17
2.88973e-17
2.14515e-17
6.69723e-18
4.7909e-18
3.57005e-18
2.41183e-18
7.39084e-19
5.00915e-19
3.83895e-19
2.06591e-19
7.3961e-20
3.52428e-20
1.47044e-20
3.62246e-21
2.04844e-21
5.4663e-22
1.54106e-22
2.20379e-23
1.69468e-35
1.20621e-24
3.45221e-25
1.4587e-26
-1.52195e-42
6.2306e-29
2.67184e-28
8.76518e-28
-3.39501e-46
5.81906e-29
2.2179e-28
6.81073e-28
0.983158
0.978913
0.959235
0.954291
0.923421
0.413788
0.486546
0.926364
0.999386
0.999388
0.999483
0.959058
0.462361
0.891276
0.999689
0.999788
0.978893
0.839
0.844294
0.988052
0.988306
0.945143
0.933671
0.819002
0.553687
0.591584
0.851104
0.96596
0.9852
0.991883
0.990984
0.956485
0.971559
0.858776
0.663717
0.511784
0.653473
0.8479
0.53163
0.587771
0.535557
0.67885
0.692417
0.371259
0.458692
0.61897
0.417004
0.293567
0.291665
0.392807
0.500882
0.321423
0.142517
0.0940592
0.118717
0.224816
0.357294
4.21557e-11
0.0112711
0.0319747
0.0934445
0.0802167
0.039164
0.0872762
0.0781338
0.00387719
0.00051834
6.34916e-08
5.95026e-06
0.000531903
-1.23775e-20
-4.10625e-21
1.09914e-19
-1.69568e-09
-1.88287e-19
2.75019e-23
1.2762e-06
8.52639e-15
-1.1998e-25
-3.10208e-24
-1.41716e-10
4.51197e-20
8.58504e-20
6.89704e-16
3.04696e-10
1.4805e-05
5.79011e-08
2.90091e-08
1.2177e-07
5.27044e-07
3.37527e-07
3.84093e-15
3.08156e-06
2.84123e-05
7.27404e-05
1.49483e-05
1.21465e-05
3.18404e-06
4.48603e-06
7.97081e-06
6.69859e-06
3.41206e-07
-2.01592e-13
1.39868e-09
1.48778e-09
5.07289e-08
9.07739e-08
1.82222e-07
4.77131e-07
2.34552e-08
1.69589e-09
1.61537e-09
1.30817e-05
1.35353e-05
8.35994e-06
3.64843e-06
1.52745e-06
1.99331e-06
3.25758e-06
3.2539e-06
6.73165e-07
-6.01722e-11
6.81447e-09
9.14505e-09
2.96753e-08
2.12817e-07
1.00339e-05
1.41542e-05
5.74926e-06
8.86272e-06
0.000155412
0.000266014
0.000194216
9.91295e-07
6.23642e-07
1.01365e-07
1.31574e-07
4.23979e-07
7.62995e-07
1.95064e-07
1.60143e-08
9.90011e-09
5.40468e-09
4.96165e-09
2.23511e-07
3.45542e-06
1.28793e-05
0.000979645
0.00489925
0.00699569
0.0073016
0.00694249
1.2667e-09
1.13002e-09
1.15829e-08
2.87312e-08
3.95618e-08
2.33068e-07
8.02605e-07
4.34209e-07
3.85271e-07
7.05223e-06
7.67415e-06
2.65432e-06
3.03009e-06
0.000242657
0.00643758
0.00967352
0.00967021
0.00967352
0.00967021
1.45547e-08
2.23286e-08
4.75553e-08
7.89371e-08
9.90725e-08
4.41484e-07
1.22833e-06
3.53551e-06
5.58745e-06
7.87505e-06
4.49524e-05
0.000173223
0.000197503
0.00067309
0.0040773
0.0053481
0.00465145
0.00360416
0.00527363
2.22245e-08
3.56969e-08
3.65458e-08
1.7776e-08
2.38863e-08
1.32999e-07
8.49549e-08
7.84643e-07
1.69923e-05
3.03124e-05
5.96309e-05
0.000136226
0.000211721
0.000418491
2.22069e-09
2.33759e-10
9.91595e-12
1.98678e-18
-6.57705e-10
4.66941e-09
5.78911e-09
4.57971e-09
8.56157e-11
9.24791e-11
5.30631e-10
7.47552e-10
7.45453e-10
8.01117e-06
1.63373e-05
2.48203e-05
2.48737e-05
3.20943e-05
1.2131e-06
3.93424e-08
5.04765e-08
9.03273e-09
8.83213e-10
1.73042e-07
5.48338e-10
4.74905e-10
3.62617e-10
1.3058e-10
3.13763e-10
8.77038e-10
1.52393e-09
1.80367e-09
6.18873e-07
1.54322e-06
5.86712e-07
9.2826e-07
1.70565e-06
1.51338e-09
1.56319e-09
3.94342e-09
1.07411e-08
6.69743e-09
1.13651e-07
1.64167e-10
1.1987e-10
1.37964e-10
2.24411e-10
4.87101e-10
1.46716e-09
5.26234e-09
1.00157e-08
1.15979e-08
9.96401e-08
7.03672e-10
7.39101e-10
6.90708e-10
1.65604e-09
4.15957e-09
1.86036e-08
2.29444e-08
1.74537e-08
1.25325e-08
2.02156e-10
1.1799e-10
1.41006e-10
1.92868e-10
2.91409e-10
4.62758e-10
9.48115e-10
2.63341e-09
2.31911e-09
3.26983e-09
3.77152e-09
1.28536e-09
7.58309e-10
3.0482e-09
8.01293e-09
1.71726e-08
2.02084e-08
1.35422e-08
8.76501e-09
3.88636e-10
1.30542e-10
1.33859e-10
1.47596e-10
1.95008e-10
3.16915e-10
5.42054e-10
1.1254e-09
1.31664e-09
1.34352e-09
1.29446e-09
6.16773e-10
5.94632e-10
2.33957e-09
5.54975e-09
9.83618e-09
1.03524e-08
7.58283e-09
8.75423e-09
1.02885e-09
2.87097e-10
1.5801e-10
1.47726e-10
1.57804e-10
1.88055e-10
2.38718e-10
4.1917e-10
5.62102e-10
6.00733e-10
4.9605e-10
3.50184e-10
3.6279e-10
1.01189e-09
2.40836e-09
3.2816e-09
3.36762e-09
2.84904e-09
3.82474e-09
2.02025e-09
8.67196e-10
3.70206e-10
2.10952e-10
1.60701e-10
1.58051e-10
1.66728e-10
1.92033e-10
2.35991e-10
2.5239e-10
2.32228e-10
1.82715e-10
1.74287e-10
3.06011e-10
6.27118e-10
8.12799e-10
7.79724e-10
5.35937e-10
6.56359e-10
2.98025e-09
1.49455e-09
7.68066e-10
4.20849e-10
2.30427e-10
1.4976e-10
1.2199e-10
1.15932e-10
1.16113e-10
1.12755e-10
1.00522e-10
8.02598e-11
6.98359e-11
7.84212e-11
1.07702e-10
1.19119e-10
8.73739e-11
4.85006e-11
1.72079e-11
2.33282e-09
1.71511e-09
1.01685e-09
6.33987e-10
3.73457e-10
1.98903e-10
1.09691e-10
7.42756e-11
6.03717e-11
5.32283e-11
4.61154e-11
3.68688e-11
2.56832e-11
1.82341e-11
1.39716e-11
1.19301e-11
6.24679e-12
1.08215e-12
3.19793e-13
1.39268e-09
1.29098e-09
1.01957e-09
6.81007e-10
4.4594e-10
2.62477e-10
1.40178e-10
6.90871e-11
4.06928e-11
3.06298e-11
2.41001e-11
1.66994e-11
9.33419e-12
4.19311e-12
1.57074e-12
6.34882e-13
6.2149e-14
2.2904e-14
9.93908e-15
7.7176e-10
7.15227e-10
6.44647e-10
5.77241e-10
4.24218e-10
2.80623e-10
1.68776e-10
8.64223e-11
4.1392e-11
2.2295e-11
1.31565e-11
6.97054e-12
3.23146e-12
1.14711e-12
2.87894e-13
6.3107e-14
7.66417e-15
2.4791e-15
7.18281e-16
3.58038e-10
3.50218e-10
3.24897e-10
2.91812e-10
2.64054e-10
2.25467e-10
1.53284e-10
9.24325e-11
4.72217e-11
2.08211e-11
8.53843e-12
3.31843e-12
1.20185e-12
3.70078e-13
8.66863e-14
1.76656e-14
1.70311e-15
5.87961e-16
2.1202e-16
1.34368e-10
1.35509e-10
1.36364e-10
1.27682e-10
1.14292e-10
1.02584e-10
9.1968e-11
6.73104e-11
4.049e-11
1.97206e-11
7.63315e-12
2.36349e-12
6.23806e-13
1.52111e-13
3.25653e-14
4.02186e-15
5.68721e-16
3.33768e-16
1.27594e-16
3.86847e-11
4.23007e-11
4.3195e-11
4.22409e-11
4.06595e-11
3.75921e-11
3.57199e-11
3.06183e-11
2.29387e-11
1.376e-11
6.26477e-12
1.96225e-12
4.29574e-13
7.81999e-14
1.38993e-14
1.0651e-15
2.75258e-16
2.21782e-16
8.93186e-17
1.01966e-11
1.05478e-11
1.09182e-11
1.11758e-11
1.08885e-11
1.05821e-11
1.03476e-11
9.84463e-12
8.66236e-12
6.62691e-12
3.71394e-12
1.33821e-12
2.86225e-13
3.97046e-14
4.11397e-15
2.60075e-16
1.35732e-16
1.33262e-16
6.05706e-17
2.5999e-12
2.6071e-12
2.56467e-12
2.50145e-12
2.44194e-12
2.41513e-12
2.40968e-12
2.37463e-12
2.43286e-12
2.21824e-12
1.52618e-12
6.63185e-13
1.58275e-13
1.9369e-14
9.58661e-16
7.15914e-17
6.50033e-17
8.31094e-17
4.01682e-17
7.53843e-13
6.77992e-13
6.28849e-13
5.65605e-13
5.22012e-13
4.87687e-13
4.5847e-13
4.6795e-13
5.31245e-13
5.5679e-13
4.52054e-13
2.39591e-13
5.58268e-14
4.43779e-15
1.77038e-16
2.91538e-17
3.06589e-17
5.83552e-17
2.56809e-17
2.16116e-13
1.85893e-13
1.55176e-13
1.27727e-13
1.09855e-13
8.64117e-14
7.30305e-14
7.86303e-14
9.40858e-14
1.06469e-13
9.89552e-14
5.1992e-14
7.53093e-15
3.40931e-16
1.67325e-17
1.0311e-17
1.47277e-17
3.69512e-17
1.57593e-17
6.11669e-14
4.8764e-14
3.71818e-14
2.96377e-14
2.30678e-14
1.29076e-14
8.02053e-15
9.13753e-15
1.21621e-14
1.53307e-14
1.39455e-14
4.06613e-15
4.95435e-16
2.034e-17
1.97846e-18
3.30865e-18
8.71522e-18
2.40972e-17
9.09222e-18
1.52448e-14
1.1026e-14
7.91417e-15
6.1892e-15
3.56004e-15
1.31894e-15
5.34875e-16
6.97863e-16
1.1084e-15
1.5495e-15
6.86822e-16
1.90487e-16
2.51872e-17
7.90767e-19
4.69594e-19
1.7122e-18
6.41608e-18
1.39856e-17
5.18467e-18
3.28668e-15
2.24834e-15
1.66775e-15
9.29729e-16
3.56312e-16
7.04806e-17
1.97096e-17
3.82111e-17
8.40194e-17
4.06991e-17
1.66308e-17
6.17044e-18
8.12209e-19
9.72365e-20
2.42162e-19
1.24586e-18
4.4994e-18
8.81492e-18
2.49683e-18
5.98137e-16
3.98636e-16
2.43987e-16
8.52979e-17
1.52678e-17
1.01167e-18
4.91922e-19
1.75345e-18
1.00758e-18
5.16875e-19
3.20467e-19
1.03613e-19
2.86728e-20
4.57219e-20
1.71152e-19
9.49572e-19
3.16417e-18
4.48519e-18
1.35561e-18
9.44695e-17
6.00913e-17
2.21225e-17
3.57854e-18
1.83761e-19
6.06967e-21
1.26329e-20
9.03064e-21
7.34683e-21
8.1059e-21
7.79528e-21
9.40655e-21
1.61706e-20
3.68403e-20
1.46623e-19
7.84292e-19
1.98854e-18
2.67052e-18
5.50551e-19
1.35498e-17
4.82353e-18
8.56453e-19
4.30273e-20
4.35695e-22
1.15458e-22
1.4864e-22
2.84768e-22
6.33623e-22
1.437e-21
3.33435e-21
7.39113e-21
1.47196e-20
3.43646e-20
1.37496e-19
5.76102e-19
1.29233e-18
1.10007e-18
2.72297e-19
1.24113e-18
2.2017e-19
1.00587e-20
6.48962e-23
1.35943e-23
2.55667e-23
6.79271e-23
1.90737e-22
5.11e-22
1.30925e-21
3.19633e-21
7.17432e-21
1.42225e-20
3.255e-20
1.15199e-19
3.59319e-19
7.47739e-19
6.24348e-19
8.88392e-20
3.46497e-20
8.94016e-22
5.07331e-24
2.55562e-24
6.25893e-24
1.98057e-23
5.98058e-23
1.70792e-22
4.59016e-22
1.18371e-21
2.87328e-21
6.36362e-21
1.24904e-20
2.81107e-20
8.90218e-20
2.39651e-19
4.1318e-19
2.07326e-19
3.9703e-20
3.2423e-22
3.02148e-24
5.46382e-25
1.51228e-24
5.16478e-24
1.64991e-23
5.0105e-23
1.4169e-22
3.81383e-22
9.75109e-22
2.35481e-21
5.18042e-21
1.00877e-20
2.19749e-20
6.27575e-20
1.50969e-19
1.77073e-19
9.73411e-20
1.20591e-20
1.22759e-24
9.42164e-26
3.10443e-25
1.15676e-24
3.93681e-24
1.24306e-23
3.71495e-23
1.04615e-22
2.81738e-22
7.22838e-22
1.74265e-21
3.77867e-21
7.26692e-21
1.57969e-20
3.71557e-20
8.72854e-20
7.34566e-20
2.4955e-20
5.45739e-21
1.18753e-26
5.43672e-26
2.13688e-25
7.39845e-25
2.42001e-24
7.437e-24
2.23277e-23
6.47304e-23
1.76536e-22
4.57674e-22
1.10171e-21
2.44072e-21
4.83717e-21
1.00116e-20
2.04881e-20
4.11158e-20
2.3319e-20
9.12802e-21
2.34121e-21
7.34426e-27
3.07242e-26
1.08827e-25
3.5181e-25
1.13548e-24
3.59603e-24
1.10248e-23
3.26195e-23
9.2045e-23
2.49031e-22
6.18708e-22
1.37108e-21
2.66865e-21
5.58572e-21
1.01452e-20
1.53703e-20
6.35471e-21
2.7591e-21
6.28565e-22
2.66835e-27
9.22169e-27
2.86934e-26
8.78766e-26
3.25748e-25
1.12287e-24
3.84411e-24
1.22297e-23
3.69111e-23
1.0447e-22
2.6999e-22
6.20665e-22
1.20351e-21
2.3501e-21
3.58136e-21
3.82636e-21
1.45105e-21
4.05978e-22
2.33492e-23
)
;

boundaryField
{
    leftWall
    {
        type            alphaContactAngle;
        contactAngleProperties 
        {
            mercury         
            {
                theta0          90;
            }
            air             
            {
                theta0          90;
            }
            oil             
            {
                theta0          90;
            }
        }
        value           nonuniform List<scalar> 
50
(
1.08809e-10
2.07006e-10
3.23533e-10
1.27218e-10
3.03977e-10
1.56011e-07
0.550025
1
1
1
0.976442
0.882818
0.263714
4.84501e-05
4.60186e-05
8.67659e-05
3.15979e-05
3.30074e-07
2.88951e-07
3.81838e-07
7.16611e-07
4.89332e-07
1.89019e-07
4.81619e-08
1.45748e-08
1.47842e-08
1.98679e-08
1.99329e-08
1.95627e-08
1.88995e-08
1.83554e-08
1.81582e-08
1.8115e-08
1.80801e-08
1.79797e-08
1.69154e-08
1.53873e-08
1.40929e-08
1.16211e-08
9.88632e-09
7.49845e-09
5.51084e-09
3.21672e-09
1.8638e-09
7.43194e-10
2.70849e-10
5.80773e-11
5.43295e-12
8.11492e-14
8.03124e-21
)
;
    }
    rightWall
    {
        type            alphaContactAngle;
        contactAngleProperties 
        {
            mercury         
            {
                theta0          90;
            }
            air             
            {
                theta0          90;
            }
            oil             
            {
                theta0          90;
            }
        }
        value           nonuniform List<scalar> 
50
(
0.0112784
0.0112854
0.000594025
0.0693492
0.509561
0.653679
0.809684
0.819069
0.844294
0.8479
0.357294
2.75019e-23
7.27404e-05
1.35353e-05
0.000194216
0.00694249
0.00967021
0.00527363
-6.57705e-10
1.73042e-07
1.13651e-07
1.25325e-08
8.76501e-09
8.75423e-09
3.82474e-09
6.56359e-10
1.72079e-11
3.19793e-13
9.93908e-15
7.18281e-16
2.1202e-16
1.27594e-16
8.93186e-17
6.05706e-17
4.01682e-17
2.56809e-17
1.57593e-17
9.09222e-18
5.18467e-18
2.49683e-18
1.35561e-18
5.50551e-19
2.72297e-19
8.88392e-20
3.9703e-20
1.20591e-20
5.45739e-21
2.34121e-21
6.28565e-22
2.33492e-23
)
;
    }
    lowerWall
    {
        type            alphaContactAngle;
        contactAngleProperties 
        {
            mercury         
            {
                theta0          90;
            }
            air             
            {
                theta0          90;
            }
            oil             
            {
                theta0          90;
            }
        }
        value           nonuniform List<scalar> 
62
(
1.08809e-10
1.36197e-10
1.52945e-10
1.59278e-10
1.67432e-10
1.75092e-10
1.8257e-10
1.89133e-10
1.95039e-10
2.01493e-10
2.09506e-10
2.30417e-10
2.60875e-10
3.05595e-10
3.64755e-10
4.42755e-10
5.68581e-10
8.32219e-10
1.56495e-09
2.45163e-09
2.76842e-09
2.76879e-09
2.76091e-09
2.76091e-09
1.83296e-09
9.06493e-10
3.92278e-10
6.81255e-11
0.0405538
0.727363
0.99632
0.977218
0.958443
0.941382
0.946718
0.00816571
0.00727226
0.00733057
0.0773192
0.540283
0.892414
0.913999
0.915479
0.00816571
0.041613
0.0470062
0.0364501
0.00949306
0.00124774
0.00118048
0.000871296
0.00087761
0.000888785
0.0124144
0.0547938
0.124408
0.124396
0.124403
0.123106
0.0414608
0.0027296
0.0112784
)
;
    }
    atmosphere
    {
        type            inletOutlet;
        inletValue      uniform 0;
        value           nonuniform List<scalar> 
46
(
0
0
7.92213e-15
1.84954e-14
1.44462e-14
7.87928e-15
3.39232e-15
1.22e-15
3.77565e-16
1.0069e-16
2.36291e-17
5.12509e-18
1.13017e-18
0
0
0
0
0
0
0
0
0
0
0
0
0
0
0
0
0
0
0
1.12287e-24
3.84411e-24
1.22297e-23
3.69111e-23
1.0447e-22
2.6999e-22
6.20665e-22
1.20351e-21
2.3501e-21
0
0
0
0
0
)
;
    }
    defaultFaces
    {
        type            empty;
    }
}

