/*--------------------------------*- C++ -*----------------------------------*\
  =========                 |
  \\      /  F ield         | OpenFOAM: The Open Source CFD Toolbox
   \\    /   O peration     | Website:  https://openfoam.org
    \\  /    A nd           | Version:  13
     \\/     M anipulation  |
\*---------------------------------------------------------------------------*/
FoamFile
{
    format      ascii;
    class       volScalarField;
    location    "2.9";
    object      epsilon;
}
// * * * * * * * * * * * * * * * * * * * * * * * * * * * * * * * * * * * * * //

dimensions      [0 2 -3 0 0 0 0];

internalField   nonuniform List<scalar> 
2268
(
0.00308692
0.015997
0.0295814
0.0423535
0.0540624
0.0646767
0.0741526
0.0824728
0.0896916
0.0958956
0.101261
0.106278
0.110561
0.113916
0.116164
0.117013
0.115936
0.11209
0.104176
0.0903146
0.0683336
0.0375893
0.00790335
0.00570503
0.0109412
0.017407
0.0233771
0.0285978
0.033064
0.036818
0.0399305
0.0424841
0.044559
0.0462539
0.0477312
0.0489206
0.0497765
0.0502454
0.050232
0.0495682
0.0479927
0.045125
0.0404455
0.0333726
0.0237685
0.0151257
0.0100409
0.0111102
0.0156027
0.0199506
0.0237711
0.027024
0.0297398
0.0319769
0.0337997
0.0352682
0.0364467
0.0374118
0.038157
0.0386705
0.0389297
0.0388917
0.0384817
0.0375898
0.036072
0.033763
0.0305245
0.0265301
0.0267073
0.0144974
0.0121141
0.015462
0.0189986
0.0221888
0.024946
0.0272757
0.0292155
0.0308122
0.0321109
0.0331597
0.0340045
0.0346527
0.0351048
0.0353551
0.0353902
0.0351866
0.034718
0.0339782
0.0330313
0.0321154
0.0320127
0.040247
0.0189494
0.0134021
0.015893
0.0188974
0.0217172
0.0242167
0.0263727
0.0281993
0.0297251
0.0309828
0.03201
0.0328374
0.0334761
0.0339341
0.0342184
0.0343379
0.0343055
0.034155
0.0339845
0.0340594
0.0350587
0.0388678
0.0571069
0.0235357
0.014861
0.0166392
0.0192466
0.0218177
0.0241689
0.0262482
0.0280443
0.0295675
0.0308384
0.0318862
0.0327326
0.0333909
0.0338742
0.0342003
0.0343957
0.0345015
0.0345961
0.0348584
0.0357323
0.0384103
0.0466948
0.0807884
0.0281622
0.0164446
0.0176
0.0198909
0.0222816
0.0245447
0.0266006
0.0284123
0.0299694
0.0312808
0.0323677
0.033247
0.0339339
0.0344456
0.0348078
0.0350618
0.0352705
0.0355435
0.036113
0.0375524
0.0415356
0.0547359
0.120636
0.0322479
0.0180433
0.0186845
0.0207155
0.0229681
0.0251766
0.0272397
0.0290946
0.030707
0.0320737
0.0332082
0.0341253
0.0348419
0.0353774
0.0357629
0.036052
0.0363245
0.0367079
0.0374562
0.039185
0.0437597
0.0603307
0.203455
0.00647624
0.0184978
0.0312528
0.0460881
0.0595399
0.0665986
0.0736265
0.0774223
0.0775698
0.0781958
0.0680534
0.060096
0.0611318
0.0540061
0.045441
0.0379624
0.0287484
0.0170944
0.00286881
0.0086507
0.0138689
0.0202486
0.027231
0.0329764
0.0361227
0.0380766
0.0389779
0.0384569
0.037112
0.0337219
0.0314059
0.0294643
0.0260588
0.0225607
0.0194652
0.015906
0.0114148
0.00558207
0.0128787
0.0148556
0.0194579
0.0243794
0.0283422
0.0305091
0.0315644
0.0321542
0.0319357
0.0309183
0.0286247
0.0267493
0.0249708
0.0221126
0.0194325
0.0172516
0.015172
0.0130357
0.0114211
0.0170983
0.0168595
0.0205338
0.0241566
0.0267718
0.0284856
0.0292946
0.0298796
0.0297466
0.0291675
0.0275736
0.0260261
0.0246539
0.0216514
0.0191088
0.017373
0.0162847
0.0162895
0.0213315
0.0219142
0.019129
0.0221837
0.0249261
0.0266556
0.0277004
0.0282855
0.0286657
0.0283532
0.0277349
0.026717
0.0260401
0.0260299
0.0221909
0.0195523
0.0182529
0.017737
0.0193042
0.0369432
0.0268508
0.0222199
0.0242902
0.0259415
0.0270203
0.0277425
0.0280837
0.0281078
0.0276268
0.026938
0.0260253
0.0255487
0.0275663
0.0225303
0.020152
0.01903
0.0184644
0.0198607
0.0404575
0.0367129
0.0267479
0.0268399
0.0273154
0.0276993
0.0280781
0.0282755
0.0280998
0.0275578
0.026835
0.0259717
0.025256
0.02701
0.0226109
0.0205788
0.0194239
0.0187818
0.0197788
0.039828
0.0756567
0.0330192
0.0294739
0.028797
0.0285976
0.0285958
0.0286523
0.0283916
0.027729
0.0269031
0.0260232
0.0250945
0.025732
0.0227809
0.0209689
0.0198029
0.0191681
0.0197799
0.0368617
0.0362515
0.0205187
0.0204131
0.0220343
0.0240309
0.0260922
0.0280902
0.0299324
0.0315707
0.0329869
0.0341682
0.0351225
0.0358701
0.0364299
0.0368378
0.03716
0.0374902
0.0379631
0.038822
0.0406046
0.0446534
0.0548383
0.0849326
0.0417297
0.0239623
0.0230834
0.0241516
0.025665
0.0272815
0.0288618
0.0303313
0.0316657
0.0328572
0.0338914
0.0347606
0.0354733
0.0360445
0.0365038
0.0369088
0.0373376
0.0378987
0.0387669
0.0402645
0.0430106
0.0481574
0.0575685
0.0461743
0.0279647
0.0263434
0.026839
0.0278498
0.0290049
0.030157
0.0312459
0.0322567
0.0331837
0.0340106
0.0347335
0.0353608
0.0359081
0.0364015
0.0368847
0.0374141
0.0380599
0.0389216
0.0401451
0.0419366
0.0445372
0.0479929
0.0515806
0.0324514
0.0300018
0.0299062
0.0304202
0.0311348
0.0319163
0.032704
0.0334546
0.034149
0.0347814
0.0353568
0.0358876
0.036389
0.0368888
0.0374278
0.0380367
0.0387335
0.03955
0.0405213
0.0416605
0.0429424
0.0442297
0.0585392
0.0369618
0.0338278
0.0331244
0.0331343
0.0334436
0.0339162
0.0344598
0.0349982
0.0354961
0.0359598
0.0364003
0.0368326
0.037274
0.0377543
0.0383067
0.038935
0.0396178
0.0403416
0.0410787
0.0417723
0.0423446
0.0427034
0.0644927
0.0414667
0.0374182
0.0361316
0.0357351
0.035743
0.0359704
0.0362962
0.0366379
0.0369684
0.0372852
0.0375987
0.0379299
0.038305
0.0387435
0.039261
0.039863
0.0405257
0.0411739
0.0417201
0.0420938
0.0422383
0.0421477
0.0711399
0.0456522
0.0405254
0.038741
0.0380535
0.0378532
0.0378882
0.038025
0.0381988
0.038387
0.0385805
0.0387869
0.0390288
0.0393345
0.0397196
0.0401899
0.0407449
0.0413502
0.0419012
0.0422798
0.042414
0.0422904
0.0419703
0.0774966
0.0490582
0.0431669
0.0409993
0.0400972
0.0397444
0.0396297
0.0396074
0.0396346
0.0396947
0.0397803
0.0398966
0.0400641
0.0403096
0.0406467
0.0410717
0.0415665
0.0420761
0.0424883
0.0426939
0.0426402
0.0423456
0.0418962
0.08161
0.0518596
0.0454342
0.0430151
0.0420061
0.0415748
0.0413401
0.0411592
0.0410179
0.0409286
0.0408955
0.0409218
0.0410265
0.0412363
0.0415544
0.0419527
0.0423753
0.0427449
0.0429645
0.042972
0.0427515
0.0423379
0.0418263
0.0895762
0.0542533
0.0473028
0.044926
0.0440176
0.0436142
0.0432772
0.0428763
0.0424721
0.0421594
0.0419654
0.0418751
0.0418902
0.042018
0.0422352
0.0424883
0.042721
0.0428882
0.0429494
0.042869
0.0426291
0.0422204
0.041701
0.0995864
0.0537982
0.0470852
0.045166
0.044655
0.0444904
0.0442096
0.0437232
0.0431709
0.0427379
0.0424632
0.0422735
0.0421442
0.0420739
0.0420568
0.042072
0.0420996
0.0421201
0.0421098
0.0420337
0.0418604
0.0415737
0.0411947
0.103718
0.0543678
0.0466866
0.0442676
0.0434047
0.0430741
0.042797
0.0424159
0.0420294
0.0417769
0.0416491
0.0415354
0.041413
0.0413056
0.0412383
0.0412144
0.0412226
0.0412456
0.0412588
0.0412276
0.0411167
0.0409019
0.0405867
0.106933
0.0545995
0.0461008
0.0432225
0.0420072
0.0414365
0.0410453
0.0406761
0.040389
0.0402523
0.0402257
0.0402099
0.0401796
0.0401532
0.0401508
0.040177
0.0402234
0.0402753
0.0403126
0.0403103
0.0402423
0.040088
0.0398383
0.107292
0.0542158
0.045203
0.0420153
0.0405782
0.039851
0.039383
0.0390181
0.0387825
0.0386952
0.0387102
0.0387573
0.03881
0.0388721
0.0389512
0.0390467
0.0391492
0.0392443
0.0393151
0.0393429
0.0393087
0.0391975
0.0389975
0.104282
0.0528677
0.0438212
0.0405312
0.0390204
0.038259
0.0378074
0.0374879
0.0372946
0.0372267
0.037258
0.0373436
0.0374556
0.0375846
0.0377271
0.0378774
0.0380246
0.0381552
0.0382542
0.0383067
0.0382992
0.0382222
0.0380659
0.0995817
0.0507398
0.0419808
0.0387674
0.0372985
0.0365847
0.0362089
0.0359812
0.0358532
0.0358199
0.0358768
0.0359959
0.0361509
0.0363263
0.0365116
0.0366975
0.036873
0.0370253
0.0371415
0.0372098
0.0372209
0.0371697
0.0370487
0.0943117
0.0480708
0.0397893
0.0367801
0.0354412
0.0348251
0.034547
0.0344256
0.0343903
0.0344265
0.0345323
0.0346917
0.0348842
0.0350943
0.0353087
0.0355168
0.0357079
0.0358709
0.0359953
0.0360723
0.0360957
0.0360636
0.0359692
0.0884562
0.0450163
0.037368
0.0346606
0.0335001
0.0330142
0.0328452
0.0328307
0.0328972
0.0330194
0.0331901
0.0333983
0.0336294
0.0338701
0.0341083
0.0343333
0.0345355
0.0347058
0.034836
0.0349197
0.0349536
0.034937
0.0348636
0.0818122
0.0417436
0.0348458
0.0324946
0.0315422
0.0311924
0.0311382
0.0312264
0.0313889
0.0315958
0.0318347
0.0320955
0.0323672
0.0326392
0.0329012
0.0331439
0.0333592
0.0335395
0.0336789
0.033773
0.0338198
0.0338197
0.0337669
0.0747222
0.0384346
0.0323464
0.030363
0.0296223
0.0294084
0.0294557
0.0296372
0.0298837
0.0301655
0.0304676
0.0307797
0.0310925
0.0313972
0.0316856
0.0319502
0.0321838
0.0323807
0.0325361
0.0326472
0.0327128
0.0327338
0.0327056
0.0677059
0.0352713
0.0299746
0.0283344
0.0277871
0.0276967
0.0278314
0.028085
0.028401
0.0287453
0.029102
0.0294608
0.0298132
0.0301517
0.0304695
0.0307603
0.0310184
0.0312388
0.031418
0.0315536
0.0316451
0.0316936
0.0316957
0.0613426
0.0324213
0.0278116
0.0264595
0.0260718
0.0260827
0.0262883
0.0265976
0.0269625
0.0273552
0.0277571
0.0281567
0.0285459
0.0289182
0.0292676
0.0295885
0.0298762
0.0301265
0.0303361
0.030503
0.0306269
0.0307087
0.0307466
0.0560579
0.0299832
0.0259003
0.0247662
0.0244976
0.0245835
0.0248416
0.0251918
0.0255925
0.0260191
0.0264554
0.0268893
0.0273123
0.0277177
0.0280999
0.0284539
0.0287751
0.0290597
0.0293047
0.0295081
0.0296691
0.0297884
0.0298656
0.0518128
0.0279391
0.0242407
0.0232587
0.0230714
0.0232078
0.0235015
0.0238799
0.0243059
0.0247576
0.0252203
0.0256829
0.0261363
0.0265737
0.0269893
0.027378
0.0277354
0.0280576
0.0283414
0.0285843
0.0287852
0.0289447
0.0290626
0.0483877
0.0262116
0.0228028
0.0219246
0.0217885
0.0219563
0.0222726
0.0226702
0.0231148
0.0235863
0.0240712
0.024559
0.0250412
0.0255101
0.0259599
0.026385
0.0267807
0.0271427
0.0274673
0.0277515
0.0279937
0.0281938
0.0283515
0.0456139
0.0247441
0.0215479
0.0207405
0.0206371
0.0208242
0.0211557
0.021568
0.0220285
0.0225184
0.0230248
0.023538
0.0240494
0.0245513
0.0250371
0.0255008
0.025937
0.0263406
0.0267074
0.0270337
0.0273171
0.0275569
0.0277525
0.0433072
0.0234732
0.020438
0.0196818
0.0196021
0.0198048
0.0201501
0.020577
0.0210549
0.0215655
0.0220966
0.0226386
0.023183
0.0237217
0.0242473
0.0247531
0.0252327
0.0256803
0.0260908
0.0264597
0.0267838
0.0270618
0.0272928
0.0413017
0.0223426
0.0194407
0.0187281
0.0186713
0.0188918
0.0192549
0.0197018
0.0202028
0.0207406
0.0213033
0.0218812
0.0224656
0.0230478
0.0236196
0.0241729
0.0247004
0.0251952
0.0256512
0.0260634
0.0264278
0.0267423
0.0270056
0.0394712
0.0213115
0.0185341
0.0178676
0.0178393
0.0180847
0.0184736
0.0189492
0.019483
0.0200583
0.0206633
0.0212882
0.0219234
0.0225595
0.0231868
0.0237958
0.0243776
0.0249242
0.0254288
0.0258855
0.0262898
0.0266389
0.0269309
0.0377415
0.0203585
0.0177103
0.0170991
0.0171098
0.0173909
0.0178166
0.0183325
0.0189116
0.0195379
0.0201998
0.0208868
0.021588
0.0222922
0.0229879
0.0236636
0.0243087
0.0249137
0.0254709
0.0259739
0.0264178
0.0267992
0.0271158
0.0360818
0.0194802
0.0169752
0.0164346
0.0164986
0.0168284
0.0173036
0.0178732
0.0185122
0.0192059
0.0199427
0.020711
0.0214977
0.0222891
0.0230703
0.0238274
0.0245473
0.0252191
0.0258342
0.0263857
0.0268688
0.02728
0.0276163
0.0345038
0.0186919
0.0163523
0.0159029
0.0160369
0.016429
0.016966
0.0176021
0.0183163
0.019096
0.0199294
0.0208029
0.0217004
0.0226033
0.0234926
0.02435
0.0251596
0.0259087
0.0265878
0.0271905
0.0277122
0.0281497
0.0284997
0.0330577
0.0180328
0.0158906
0.0155586
0.0157791
0.0162432
0.0168493
0.017561
0.0183641
0.0192492
0.0202045
0.0212132
0.0222536
0.0233003
0.0243269
0.0253094
0.0262276
0.0270668
0.0278173
0.0284736
0.0290325
0.0294919
0.0298485
0.0318571
0.0175878
0.015688
0.0155008
0.0158153
0.0163472
0.017016
0.0178022
0.0187022
0.0197116
0.0208181
0.0219998
0.0232257
0.0244593
0.0256629
0.0268031
0.027854
0.028799
0.0296291
0.0303411
0.0309347
0.03141
0.0317645
0.0311281
0.0175411
0.015939
0.0159081
0.0162914
0.0168514
0.0175467
0.018385
0.0193784
0.0205284
0.0218208
0.0232246
0.0246945
0.0261753
0.0276106
0.0289528
0.0301679
0.0312377
0.0321559
0.0329246
0.0335487
0.0340322
0.0343745
0.0313494
0.0183035
0.017034
0.0170983
0.017437
0.0179075
0.0185356
0.0193673
0.0204317
0.021734
0.0232541
0.0249471
0.0267445
0.0285603
0.0303062
0.0319116
0.0333321
0.0345493
0.0355638
0.0363875
0.037035
0.0375172
0.0378364
0.0335814
0.0208003
0.0197488
0.0196198
0.0195909
0.0197023
0.020074
0.0207863
0.0218736
0.0233343
0.0251358
0.0272129
0.0294625
0.031747
0.0339196
0.035874
0.0375539
0.038944
0.0400599
0.0409322
0.0415915
0.0420602
0.0423451
0.0404111
0.027135
0.025583
0.0243542
0.0231951
0.0224195
0.0222104
0.0226261
0.0236615
0.0252834
0.0274376
0.0300363
0.0329314
0.035897
0.0386698
0.0410917
0.043101
0.0446898
0.0459037
0.0468077
0.0474599
0.0478993
0.0481401
0.0588306
0.0420685
0.0371881
0.0324955
0.0286714
0.0261324
0.0248805
0.0247742
0.0256686
0.0274559
0.0300553
0.0333714
0.0372181
0.0412229
0.0448499
0.0478932
0.0503257
0.0521321
0.05342
0.0543197
0.0549332
0.0553227
0.0555116
0.111539
0.0755399
0.0580875
0.0449791
0.0360371
0.0306043
0.0278168
0.0269835
0.0276637
0.0296241
0.0327692
0.0370565
0.0423373
0.0480337
0.0528492
0.0566784
0.0596978
0.0617204
0.0630134
0.0638387
0.0643634
0.0646762
0.0648091
0.305859
0.141097
0.0885562
0.0605902
0.0441665
0.0350374
0.0304835
0.0288687
0.0293203
0.0314518
0.0351926
0.0406833
0.0480784
0.0567488
0.0630242
0.0677146
0.0718679
0.0740435
0.0751768
0.0758054
0.0761705
0.0763743
0.0764504
1.57093
0.208216
0.112699
0.0729654
0.0501119
0.0380026
0.0321406
0.0299826
0.0302804
0.0325343
0.0367343
0.0433236
0.0532426
0.0669332
0.0742724
0.0796358
0.0879551
0.0898719
0.0904764
0.0907305
0.0908591
0.0909254
0.0909463
0.211632
0.165365
0.15745
0.158196
0.0684772
0.0692831
0.0677432
0.0633319
0.0502779
0.05086
0.0504403
0.0488922
0.0448364
0.0449722
0.0447729
0.044162
0.0427572
0.0427069
0.0425365
0.0422017
0.0419628
0.0418146
0.0416214
0.0413568
0.0416685
0.0414653
0.0412461
0.0409979
0.0415297
0.0412998
0.0410741
0.0408451
0.0414527
0.0412233
0.0410056
0.0407963
0.0413541
0.0411474
0.0409639
0.0407976
0.0409145
0.0407454
0.0406034
0.0404704
0.0403363
0.0401758
0.0400297
0.0398953
0.0396206
0.0394786
0.039342
0.0392141
0.0388109
0.0386886
0.0385682
0.038453
0.0379115
0.0378087
0.0377036
0.0375977
0.0369213
0.036834
0.03674
0.0366395
0.0358616
0.0357849
0.0356984
0.035602
0.0347713
0.0347027
0.0346229
0.0345318
0.03369
0.0336301
0.0335588
0.0334759
0.0326472
0.0325985
0.0325385
0.0324674
0.0316605
0.0316261
0.0315806
0.031524
0.0307385
0.0307206
0.0306916
0.0306514
0.0298865
0.0298864
0.0298749
0.0298519
0.0291123
0.02913
0.0291358
0.0291298
0.0284288
0.0284634
0.0284858
0.0284957
0.0278557
0.0279059
0.0279433
0.0279675
0.027419
0.0274832
0.0275337
0.0275702
0.0271517
0.0272278
0.0272891
0.0273354
0.0270933
0.0271787
0.0272481
0.0273012
0.0272902
0.0273819
0.027456
0.0275123
0.0277977
0.027892
0.0279667
0.0280217
0.0286819
0.0287745
0.0288448
0.0288931
0.0300242
0.0301096
0.0301697
0.0302044
0.0319252
0.0319974
0.0320402
0.0320537
0.0345111
0.0345633
0.0345815
0.0345652
0.0379397
0.0379655
0.0379518
0.0378973
0.0424078
0.0424026
0.0423517
0.0422527
0.0481591
0.0481218
0.0480332
0.0478889
0.055491
0.0554271
0.0553085
0.0551287
0.0647628
0.0646868
0.0645584
0.0643689
0.076404
0.0763411
0.0762369
0.076083
0.0909257
0.0909008
0.0908599
0.0907988
0.0624844
0.0389435
0.0329973
0.0309945
0.0300629
0.0296405
0.0294555
0.028993
0.0280024
0.0269949
0.0260261
0.0250459
0.0251812
0.0234812
0.0217859
0.020663
0.0200868
0.0201789
0.0306423
0.0496245
0.0400589
0.0356213
0.0332456
0.0319124
0.0311818
0.030746
0.0298324
0.0285811
0.0273914
0.0263523
0.0256215
0.0258989
0.0246038
0.023129
0.0221324
0.0212553
0.0203532
0.0260409
0.0446753
0.0399247
0.0368725
0.0347422
0.033334
0.0323711
0.0316488
0.030583
0.0293351
0.0281018
0.0270312
0.0262731
0.0260348
0.0250129
0.0237243
0.022591
0.0214525
0.0208357
0.0259438
0.0424638
0.0397476
0.0375731
0.0357729
0.0343588
0.0332613
0.0323427
0.0313036
0.0301328
0.0289637
0.0279099
0.027023
0.0262981
0.0253063
0.0241928
0.0232111
0.0225134
0.0230916
0.0338332
0.0413376
0.0396359
0.0380327
0.0365686
0.0352509
0.0341195
0.0331198
0.032105
0.0310222
0.0299326
0.0289012
0.0279392
0.0270225
0.0260537
0.0251244
0.0244147
0.0241822
0.0257279
0.0417267
0.0407744
0.0396124
0.0383971
0.0371986
0.0360417
0.0349896
0.0340245
0.0330397
0.0319998
0.0309529
0.0299355
0.028947
0.0279823
0.0270439
0.0262185
0.0256706
0.0257554
0.0280433
0.0478269
0.0405268
0.0396696
0.0387219
0.0377317
0.0367395
0.0358085
0.0349171
0.0339742
0.0329653
0.0319427
0.0309348
0.0299403
0.0289671
0.0280469
0.0272628
0.0267725
0.0269842
0.0296872
0.0517441
0.04045
0.0397839
0.0390213
0.0381922
0.0373467
0.0365385
0.0357255
0.034824
0.0338404
0.0328347
0.0318356
0.0308451
0.0298733
0.0289578
0.0281781
0.027691
0.0279482
0.0308365
0.0533595
0.0404568
0.0399263
0.0392907
0.0385682
0.0378418
0.03716
0.0364341
0.0355652
0.0345906
0.0335891
0.0326004
0.0316257
0.0306605
0.0297397
0.0289545
0.0284946
0.0288689
0.0321254
0.0564268
0.040524
0.0401162
0.0395622
0.0388612
0.0382021
0.0376679
0.0370726
0.0362149
0.0352075
0.0341832
0.0332092
0.0322756
0.0313333
0.030404
0.0295756
0.0291621
0.0297688
0.0338318
0.0642906
0.0402432
0.0398898
0.0394038
0.0387785
0.0382386
0.0378044
0.037298
0.0365414
0.035577
0.0345492
0.0335899
0.0327334
0.0318435
0.0309048
0.0299299
0.0294588
0.0302072
0.0347778
0.0587589
0.0396701
0.039333
0.0389225
0.0384196
0.0379137
0.0374282
0.0369202
0.0362947
0.0354881
0.0345607
0.0336283
0.0327667
0.0318122
0.0308092
0.029863
0.0293473
0.0300359
0.0345157
0.0652653
0.0390058
0.0386927
0.0383093
0.03782
0.0372888
0.0367742
0.0362658
0.0356903
0.0349919
0.0341933
0.0333334
0.032423
0.0314247
0.0303865
0.0294075
0.0287902
0.0291884
0.0332274
0.0647826
0.0382621
0.0379623
0.0375893
0.0371049
0.0365552
0.0360086
0.0354822
0.0349389
0.0343321
0.0336404
0.0328523
0.0319445
0.0309009
0.0297869
0.0287157
0.0278924
0.0278127
0.0306722
0.0567731
0.0374123
0.0371076
0.0367332
0.0362599
0.0357162
0.0351583
0.0346168
0.0340866
0.0335336
0.0329136
0.03218
0.0312867
0.0302188
0.029045
0.0278705
0.02683
0.0262479
0.0277391
0.0470126
0.0364542
0.0361391
0.0357615
0.0353033
0.0347815
0.0342366
0.0336972
0.0331695
0.0326303
0.0320327
0.0313184
0.0304352
0.0293715
0.0281817
0.026949
0.0257557
0.0248211
0.025379
0.0394915
0.0354179
0.0350995
0.0347262
0.0342876
0.0337948
0.0332733
0.0327429
0.0322098
0.0316575
0.0310469
0.0303275
0.0294556
0.0284208
0.0272637
0.0260422
0.0248154
0.0237582
0.0238576
0.0347214
0.0343549
0.0340451
0.033686
0.0332713
0.0328082
0.0323105
0.0317888
0.0312462
0.0306707
0.030035
0.0293035
0.0284476
0.0274643
0.0263819
0.0252459
0.0241194
0.023186
0.0233504
0.0331665
0.0333132
0.0330238
0.032687
0.0322992
0.0318648
0.0313884
0.0308749
0.0303247
0.0297301
0.0290749
0.0283396
0.0275109
0.0265933
0.0256133
0.0246183
0.0236925
0.0230639
0.0237022
0.0343736
0.0323254
0.0320648
0.0317561
0.0313976
0.03099
0.0305339
0.0300307
0.0294797
0.0288771
0.0282162
0.0274904
0.0266989
0.0258541
0.024987
0.0241539
0.0234643
0.0232006
0.0244737
0.0370326
0.0314067
0.0311801
0.0309031
0.0305743
0.0301926
0.0297572
0.0292678
0.0287242
0.0281259
0.0274729
0.0267678
0.026019
0.0252458
0.024485
0.0238027
0.0233301
0.0233998
0.0252874
0.0400711
0.0305614
0.0303715
0.0301268
0.0298268
0.0294705
0.0290567
0.0285846
0.0280549
0.02747
0.0268344
0.0261564
0.0254504
0.0247411
0.0240702
0.023512
0.023215
0.0235561
0.025975
0.0429603
0.0297903
0.0296365
0.029423
0.0291507
0.0288189
0.0284267
0.0279739
0.0274623
0.026896
0.0262825
0.0256336
0.0249674
0.0243121
0.0237135
0.0232525
0.0230919
0.0236475
0.0265096
0.0455187
0.0290959
0.0289762
0.0287918
0.0285451
0.0282362
0.0278648
0.0274316
0.0269394
0.0263938
0.025804
0.0251838
0.0245535
0.0239437
0.0234036
0.0230196
0.0229667
0.0236944
0.0269245
0.0477207
0.0284874
0.0283985
0.0282402
0.0280161
0.0277275
0.027375
0.0269602
0.026487
0.0259621
0.0253958
0.0248031
0.0242056
0.0236358
0.0231454
0.0228254
0.0228613
0.0237309
0.0272673
0.0496094
0.0279819
0.0279194
0.0277829
0.0275775
0.0273056
0.0269689
0.0265702
0.0261143
0.0256089
0.0250651
0.0244987
0.0239322
0.0233993
0.0229536
0.0226899
0.0228026
0.0237935
0.0275914
0.0512633
0.0276036
0.0275618
0.0274418
0.0272499
0.0269898
0.0266644
0.026278
0.0258365
0.0253485
0.0248259
0.024285
0.0237487
0.0232514
0.022848
0.0226363
0.0228185
0.0239183
0.0279536
0.0528594
0.0273833
0.0273555
0.0272451
0.0270599
0.0268049
0.0264847
0.0261051
0.0256735
0.0251998
0.0246964
0.0241799
0.0236736
0.0232118
0.02285
0.0226881
0.0229348
0.024135
0.0283952
0.0544321
0.0273581
0.0273357
0.0272262
0.0270385
0.0267795
0.0264557
0.0260752
0.0256474
0.0251832
0.0246963
0.0242034
0.0237274
0.0233019
0.022982
0.0228684
0.0231749
0.0244651
0.0289265
0.0559664
0.0275716
0.0275441
0.0274237
0.0272211
0.0269454
0.026606
0.0262136
0.0257804
0.0253195
0.0248455
0.0243753
0.023931
0.0235447
0.0232695
0.0232051
0.0235681
0.0249375
0.0295714
0.0574923
0.0280753
0.0280289
0.0278822
0.0276479
0.0273379
0.0269656
0.0265459
0.0260948
0.0256284
0.0251629
0.0247156
0.0243072
0.0239669
0.0237441
0.0237351
0.0241559
0.0255974
0.0303824
0.0591371
0.0289307
0.0288482
0.0286549
0.0283657
0.0279968
0.0275672
0.0270982
0.0266116
0.0261279
0.0256662
0.0252442
0.0248809
0.0246012
0.0244481
0.0245105
0.0249999
0.0265147
0.0314407
0.0610428
0.0302138
0.0300733
0.0298063
0.0294308
0.0289684
0.0284469
0.0278973
0.0273504
0.0268341
0.0263716
0.0259819
0.0256821
0.025491
0.0254417
0.0256102
0.0261968
0.0278015
0.0328775
0.0634653
0.0320202
0.0317944
0.0314185
0.0309133
0.0303086
0.0296456
0.0289705
0.0283288
0.0277594
0.0272928
0.0269508
0.0267484
0.026697
0.0268146
0.0271565
0.027902
0.0296439
0.0349118
0.0667668
0.0344722
0.0341285
0.0335981
0.0329036
0.0320869
0.0312098
0.0303446
0.0295597
0.0289109
0.0284399
0.0281743
0.0281286
0.0283054
0.0287014
0.0293404
0.0303674
0.032357
0.037931
0.0716431
0.0377283
0.0372299
0.0364875
0.0355217
0.0343909
0.0331931
0.0320441
0.0310483
0.0302862
0.0298156
0.0296755
0.0298849
0.0304374
0.0312998
0.0324493
0.0339872
0.0364638
0.0426238
0.0792902
0.0419945
0.0413048
0.040281
0.0389303
0.0373338
0.0356541
0.0340842
0.032784
0.0318659
0.0314091
0.0314729
0.0320928
0.0332566
0.0348833
0.0368828
0.0393257
0.0427815
0.0502039
0.092014
0.047538
0.0466316
0.0452505
0.0433585
0.0410639
0.0386508
0.0364592
0.0347283
0.0336025
0.0331841
0.0335687
0.0348346
0.0369719
0.039799
0.0431174
0.0470544
0.0524207
0.0627117
0.114104
0.0547024
0.0535879
0.0517881
0.0491465
0.0457837
0.0422247
0.0391171
0.036794
0.0354039
0.0350623
0.0359289
0.038187
0.0418527
0.0464474
0.0515784
0.0576717
0.0664845
0.0833814
0.154493
0.0639197
0.0626849
0.0604867
0.0568615
0.0518082
0.0463622
0.0419151
0.038819
0.0371166
0.0369009
0.0384497
0.0422078
0.0483314
0.0552804
0.0624237
0.0708946
0.0849797
0.116692
0.236335
0.0757109
0.074598
0.0722944
0.0676537
0.0596871
0.050876
0.0445387
0.0405386
0.0385166
0.0384693
0.0408877
0.0468778
0.0575219
0.066947
0.075428
0.0848516
0.103972
0.164596
0.453473
0.0906453
0.0901204
0.0887118
0.0844319
0.069603
0.0548869
0.0463634
0.0415848
0.0393318
0.0394368
0.0426876
0.0516384
0.074073
0.0833697
0.0905145
0.0961072
0.110622
0.19304
1.45415
)
;

boundaryField
{
    leftWall
    {
        type            epsilonWallFunction;
        value           nonuniform List<scalar> 
50
(
0.00308692
0.00570503
0.0100409
0.0144974
0.0189494
0.0235357
0.0281622
0.0322479
0.0362515
0.0417297
0.0461743
0.0515806
0.0585392
0.0644927
0.0711399
0.0774966
0.08161
0.0895762
0.0995864
0.103718
0.106933
0.107292
0.104282
0.0995817
0.0943117
0.0884562
0.0818122
0.0747222
0.0677059
0.0613426
0.0560579
0.0518128
0.0483877
0.0456139
0.0433072
0.0413017
0.0394712
0.0377415
0.0360818
0.0345038
0.0330577
0.0318571
0.0311281
0.0313494
0.0335814
0.0404111
0.0588306
0.111539
0.305859
1.57093
)
;
    }
    rightWall
    {
        type            epsilonWallFunction;
        value           nonuniform List<scalar> 
50
(
0.00286881
0.00558207
0.0114211
0.0213315
0.0369432
0.0404575
0.039828
0.0368617
0.0306423
0.0260409
0.0259438
0.0338332
0.0417267
0.0478269
0.0517441
0.0533595
0.0564268
0.0642906
0.0587589
0.0652653
0.0647826
0.0567731
0.0470126
0.0394915
0.0347214
0.0331665
0.0343736
0.0370326
0.0400711
0.0429603
0.0455187
0.0477207
0.0496094
0.0512633
0.0528594
0.0544321
0.0559664
0.0574923
0.0591371
0.0610428
0.0634653
0.0667668
0.0716431
0.0792902
0.092014
0.114104
0.154493
0.236335
0.453473
1.45415
)
;
    }
    lowerWall
    {
        type            epsilonWallFunction;
        value           nonuniform List<scalar> 
62
(
0.00308692
0.015997
0.0295814
0.0423535
0.0540624
0.0646767
0.0741526
0.0824728
0.0896916
0.0958956
0.101261
0.106278
0.110561
0.113916
0.116164
0.117013
0.115936
0.11209
0.104176
0.0903146
0.0683336
0.0375893
0.00790335
0.00790335
0.0151257
0.0267073
0.040247
0.0571069
0.0807884
0.120636
0.203455
0.211632
0.165365
0.15745
0.158196
0.00647624
0.0086507
0.0128787
0.0170983
0.0219142
0.0268508
0.0367129
0.0756567
0.00647624
0.0184978
0.0312528
0.0460881
0.0595399
0.0665986
0.0736265
0.0774223
0.0775698
0.0781958
0.0680534
0.060096
0.0611318
0.0540061
0.045441
0.0379624
0.0287484
0.0170944
0.00286881
)
;
    }
    atmosphere
    {
        type            inletOutlet;
        inletValue      uniform 0.1;
        value           nonuniform List<scalar> 
46
(
0.1
0.1
0.1
0.0729654
0.0501119
0.0380026
0.0321406
0.0299826
0.0302804
0.0325343
0.0367343
0.0433236
0.0532426
0.0669332
0.0742724
0.0796358
0.1
0.1
0.1
0.1
0.1
0.1
0.1
0.1
0.1
0.1
0.1
0.1
0.1
0.1
0.1
0.069603
0.0548869
0.0463634
0.0415848
0.0393318
0.0394368
0.0426876
0.0516384
0.1
0.1
0.1
0.1
0.1
0.1
0.1
)
;
    }
    defaultFaces
    {
        type            empty;
    }
}


// ************************************************************************* //
