/*--------------------------------*- C++ -*----------------------------------*\
  =========                 |
  \\      /  F ield         | OpenFOAM: The Open Source CFD Toolbox
   \\    /   O peration     | Website:  https://openfoam.org
    \\  /    A nd           | Version:  13
     \\/     M anipulation  |
\*---------------------------------------------------------------------------*/
FoamFile
{
    format      ascii;
    class       volScalarField;
    location    "2.9";
    object      k;
}
// * * * * * * * * * * * * * * * * * * * * * * * * * * * * * * * * * * * * * //

dimensions      [0 2 -2 0 0 0 0];

internalField   nonuniform List<scalar> 
2268
(
0.00081223
0.00243125
0.00365022
0.00462941
0.00544377
0.00613406
0.00672117
0.00721891
0.00763985
0.00799551
0.00830361
0.00858773
0.00882497
0.00900807
0.0091289
0.00917332
0.0091147
0.00890832
0.00847982
0.00770668
0.00639787
0.00429235
0.0014957
0.00202619
0.00562628
0.00810819
0.0101137
0.0117825
0.0131987
0.0144087
0.015443
0.0163268
0.0170809
0.0177272
0.0182748
0.0187256
0.0190728
0.0193001
0.0193782
0.0192555
0.0188469
0.0180129
0.0165282
0.0140406
0.0100498
0.00383002
0.00295857
0.00763502
0.0106863
0.0131548
0.015217
0.0169682
0.0184646
0.0197449
0.0208395
0.0217739
0.022573
0.023247
0.0237986
0.0242192
0.0244898
0.0245776
0.0244259
0.0239415
0.0229718
0.0212678
0.0184203
0.0137377
0.00560112
0.00378094
0.00922656
0.0126284
0.0153814
0.0176992
0.0196797
0.0213801
0.0228404
0.0240921
0.0251622
0.0260769
0.0268461
0.0274724
0.0279468
0.0282509
0.0283532
0.0281994
0.0276994
0.0267052
0.0249699
0.0220532
0.0170611
0.00735804
0.00451713
0.0105824
0.0142471
0.0172103
0.0197278
0.0218982
0.0237754
0.0253957
0.0267887
0.0279809
0.0289987
0.0298518
0.0305427
0.0310638
0.0313994
0.0315224
0.0313847
0.030905
0.0299488
0.0282851
0.0254621
0.0203833
0.0092798
0.00520822
0.0117814
0.0156709
0.0188087
0.0214982
0.0238391
0.0258808
0.0276528
0.0291805
0.0304888
0.0316037
0.0325348
0.0332853
0.0338499
0.0342169
0.0343654
0.0342556
0.033818
0.0329364
0.0314067
0.0287982
0.0238749
0.0116801
0.00585748
0.0128589
0.0169553
0.0202534
0.023101
0.0256026
0.0278026
0.0297231
0.0313825
0.0328034
0.0340117
0.0350172
0.0358242
0.0364302
0.0368279
0.0370037
0.0369275
0.0365429
0.0357535
0.034391
0.0320892
0.0276519
0.0152442
0.00641487
0.0137924
0.0181042
0.0215618
0.0245622
0.0272179
0.0295726
0.0316398
0.0334289
0.0349598
0.0362596
0.0373371
0.0381984
0.0388433
0.039269
0.0394698
0.0394263
0.0390953
0.0383993
0.0372089
0.0352578
0.0316804
0.0215862
0.00131295
0.00263738
0.00370891
0.0048037
0.0057079
0.00617345
0.00661291
0.00685716
0.00688714
0.00694891
0.00634332
0.00585558
0.00592899
0.00545563
0.00485783
0.00430436
0.00357721
0.00253173
0.000769187
0.00282002
0.00592648
0.00836291
0.0106609
0.0125304
0.0136064
0.0144965
0.0150297
0.0151398
0.0149044
0.014175
0.0132689
0.0130086
0.0119083
0.0107721
0.00962303
0.00818436
0.00605869
0.00211806
0.00368807
0.00785726
0.0110268
0.0137786
0.0160069
0.0174794
0.0184892
0.0191518
0.0193331
0.0190771
0.0183331
0.0174845
0.0168059
0.0153455
0.0139199
0.0125094
0.0108274
0.0083835
0.00341074
0.00446842
0.00974186
0.0133962
0.0163201
0.0185138
0.0201329
0.0212652
0.0220452
0.0222631
0.0220694
0.0214144
0.020615
0.019849
0.0180126
0.0163347
0.0147694
0.0130305
0.0106663
0.00517204
0.00529316
0.0115637
0.0156286
0.0186597
0.0207953
0.0223093
0.0234773
0.0242429
0.0243748
0.0240772
0.0235556
0.0230345
0.0227245
0.0202903
0.0183769
0.0167689
0.0149361
0.0125826
0.00745037
0.00612473
0.0133784
0.0178093
0.020766
0.0228551
0.0243645
0.025498
0.0261389
0.0261585
0.0257867
0.0252066
0.0246556
0.0251768
0.0220125
0.0201078
0.0183713
0.0162265
0.0133779
0.0079173
0.00774882
0.0155374
0.0201205
0.0228567
0.024793
0.0262601
0.0273644
0.0279096
0.027876
0.0274643
0.0268304
0.0260312
0.0262597
0.0233321
0.021486
0.019536
0.0170825
0.0136673
0.00783611
0.012491
0.018503
0.0225975
0.0249825
0.0267024
0.0280465
0.0290895
0.0295709
0.0294551
0.0289632
0.028254
0.0272368
0.0267616
0.0245291
0.0226585
0.0205068
0.0177631
0.0137231
0.00744056
0.0068888
0.0150237
0.0196518
0.0233286
0.026517
0.0293526
0.031883
0.0341144
0.0360564
0.0377257
0.0391352
0.0402949
0.0412184
0.0419089
0.0423701
0.0426078
0.0426164
0.0423696
0.0418151
0.0408758
0.0394216
0.0371119
0.0327949
0.0075048
0.0164285
0.0214502
0.0253436
0.0286408
0.0315167
0.0340404
0.0362456
0.0381672
0.0398347
0.0412537
0.0424352
0.0433929
0.0441351
0.0446692
0.045006
0.0451464
0.0450761
0.0447635
0.0441637
0.0432093
0.0417625
0.0395387
0.00801654
0.0177742
0.0232546
0.0273554
0.0307347
0.0336192
0.036104
0.0382504
0.0401113
0.041724
0.0430985
0.0442551
0.0452139
0.0459897
0.0465947
0.04704
0.0473265
0.0474395
0.0473493
0.0470098
0.046356
0.0453123
0.0438447
0.00861061
0.0191234
0.025056
0.0293729
0.0328365
0.0357328
0.0382029
0.0403271
0.0421516
0.0437122
0.0450388
0.0461632
0.0471137
0.0479099
0.04857
0.0491107
0.0495269
0.0497875
0.0498524
0.0496704
0.0491766
0.0483271
0.0471669
0.00935495
0.0207854
0.0269524
0.0314011
0.0349181
0.0378282
0.0403055
0.0424278
0.0442312
0.0457513
0.0470375
0.048131
0.0490667
0.0498704
0.0505657
0.0511694
0.0516669
0.0520145
0.0521653
0.0520652
0.0516591
0.0509242
0.0499253
0.00996853
0.0221075
0.0286939
0.033322
0.0369283
0.0398841
0.0423747
0.044484
0.0462565
0.0477425
0.0489917
0.0500498
0.0509603
0.05176
0.0524693
0.0530966
0.0536349
0.0540493
0.0542657
0.0542104
0.0538435
0.0531655
0.0522601
0.010616
0.0232935
0.030248
0.0350651
0.038786
0.041807
0.0443134
0.0464042
0.0481469
0.0496016
0.050818
0.0518443
0.0527294
0.0535149
0.054222
0.0548557
0.0554094
0.055848
0.0560877
0.056045
0.055683
0.055031
0.054199
0.011233
0.0245287
0.0316777
0.0366469
0.0404825
0.0435759
0.0461064
0.04818
0.049891
0.0513104
0.0524936
0.0534906
0.0543518
0.0551213
0.0558215
0.0564534
0.057001
0.0574204
0.0576274
0.0575506
0.0571734
0.0565452
0.0557712
0.0116569
0.0255125
0.0329838
0.0381446
0.0421239
0.0453109
0.0478641
0.0499046
0.0515544
0.0529109
0.054042
0.0549997
0.0558362
0.0565982
0.0573032
0.057936
0.0584543
0.0588023
0.0589162
0.0587648
0.0583581
0.0577492
0.0570348
0.0124464
0.0267307
0.0345465
0.0398562
0.0439725
0.0472536
0.0498088
0.0517532
0.0532571
0.0544803
0.0555127
0.0563968
0.0571743
0.05788
0.0585146
0.0590451
0.0594352
0.05966
0.0597009
0.0595454
0.059198
0.0586714
0.0580264
0.0134695
0.0282385
0.0357649
0.0410712
0.0452926
0.0486582
0.0512167
0.0530827
0.0544658
0.0555871
0.0565459
0.0573422
0.057998
0.0585432
0.0589924
0.059343
0.05959
0.0597295
0.0597551
0.0596532
0.0594135
0.0590372
0.0585518
0.0138661
0.0290415
0.036303
0.0413211
0.0452675
0.048454
0.0509484
0.0528323
0.0542878
0.0555013
0.056536
0.0573628
0.058003
0.0585038
0.0589058
0.0592272
0.0594713
0.0596357
0.0597121
0.0596844
0.0595354
0.0592561
0.0588571
0.0141095
0.029195
0.0363339
0.04116
0.0448821
0.0478755
0.0502497
0.0520995
0.0535882
0.0548543
0.0559398
0.0568219
0.0575192
0.0580745
0.0585251
0.0588912
0.0591788
0.0593872
0.0595104
0.0595377
0.0594563
0.0592567
0.0589366
0.0141115
0.0290327
0.0360445
0.0407238
0.044291
0.0471482
0.0494346
0.0512539
0.0527518
0.0540331
0.0551356
0.0560575
0.056816
0.0574421
0.0579634
0.058396
0.058745
0.0590095
0.0591851
0.0592645
0.0592387
0.0591002
0.0588416
0.0138277
0.0285665
0.0354673
0.0400348
0.0435003
0.0462842
0.0485393
0.0503579
0.051863
0.0531441
0.0542516
0.0552027
0.0560124
0.0567007
0.057286
0.0577795
0.0581851
0.0585017
0.0587256
0.0588512
0.0588726
0.058785
0.0585812
0.0134056
0.0278535
0.0346352
0.0391125
0.0425103
0.0452551
0.0475093
0.0493567
0.0508868
0.0521826
0.0533077
0.0542899
0.0551442
0.0558846
0.0565227
0.0570663
0.0575183
0.0578777
0.0581414
0.0583053
0.0583659
0.058321
0.0581644
0.012936
0.0269432
0.0335789
0.0379781
0.0413356
0.0440617
0.0463243
0.0482085
0.049785
0.0511256
0.0522909
0.0533143
0.0542136
0.0550009
0.0556846
0.0562704
0.0567606
0.0571547
0.0574509
0.0576466
0.0577404
0.0577319
0.057615
0.0124094
0.0258701
0.0323391
0.0366739
0.0400044
0.0427273
0.0450061
0.0469301
0.0485636
0.0499657
0.0511878
0.0522634
0.053212
0.0540462
0.0547736
0.0553989
0.0559246
0.0563509
0.0566773
0.0569028
0.0570274
0.057052
0.0569701
0.0117962
0.0246758
0.0309739
0.0352513
0.0385642
0.0412877
0.0435902
0.0455562
0.0472473
0.0487143
0.0499996
0.0511336
0.0521361
0.0530198
0.0537926
0.0544592
0.0550225
0.0554834
0.0558426
0.0561003
0.0562575
0.0563157
0.0562688
0.0111199
0.0234178
0.0295471
0.0337671
0.0370643
0.0397911
0.0421137
0.0441204
0.0458651
0.0473934
0.0487411
0.049935
0.0509937
0.0519297
0.052751
0.053463
0.0540685
0.0545694
0.0549669
0.0552623
0.055457
0.0555529
0.0555448
0.010425
0.0221559
0.0281184
0.0322769
0.0355542
0.0382821
0.04062
0.042657
0.0444483
0.046031
0.0474364
0.0486881
0.0498029
0.0507928
0.0516659
0.0524273
0.0530804
0.0536273
0.0540698
0.0544093
0.0546478
0.0547872
0.0548238
0.00976712
0.0209457
0.0267417
0.0308306
0.0340791
0.0368004
0.039147
0.0412055
0.0430304
0.0446582
0.0461148
0.0474202
0.0485895
0.0496336
0.0505602
0.0513744
0.0520795
0.0526778
0.0531711
0.0535609
0.0538491
0.0540377
0.0541245
0.00919608
0.0198324
0.02546
0.0294683
0.032676
0.0353802
0.0377262
0.0397976
0.0416469
0.043309
0.0448084
0.0461621
0.0473829
0.0484804
0.0494614
0.0503304
0.0510907
0.0517442
0.0522925
0.0527369
0.0530791
0.0533211
0.0534619
0.00872531
0.0188556
0.0243019
0.0282174
0.0313718
0.0340478
0.0363837
0.0384595
0.0403253
0.0420144
0.0435494
0.0449459
0.0462148
0.0473639
0.048399
0.0493237
0.0501407
0.0508515
0.0514572
0.0519588
0.0523573
0.0526549
0.0528511
0.00833498
0.0180305
0.0232854
0.0270915
0.0301818
0.0328205
0.0351386
0.0372123
0.039089
0.0407999
0.042366
0.0438014
0.0451156
0.0463148
0.0474033
0.048384
0.0492583
0.0500273
0.0506912
0.0512504
0.0517057
0.0520584
0.0523088
0.00801132
0.0173328
0.0224033
0.0260964
0.0291132
0.0317072
0.0340029
0.0360718
0.0379568
0.0396874
0.0412829
0.0427559
0.0441145
0.0453633
0.0465053
0.0475419
0.0484737
0.0493006
0.0500222
0.0506381
0.0511485
0.0515543
0.0518558
0.00773722
0.0167337
0.0216322
0.0252172
0.0281632
0.0307137
0.0329869
0.0350498
0.0369439
0.0386956
0.0403222
0.0418345
0.0432391
0.0445389
0.0457354
0.0468287
0.0478181
0.0487025
0.0494806
0.0501512
0.0507139
0.0511692
0.0515172
0.00749561
0.0162048
0.0209491
0.0244371
0.0273214
0.0298358
0.0320932
0.0341569
0.0360656
0.0378436
0.0395063
0.0410624
0.0425169
0.0438712
0.045125
0.0462768
0.0473246
0.048266
0.049099
0.0498219
0.0504335
0.0509339
0.0513231
0.00727263
0.0157236
0.0203352
0.0237432
0.0265801
0.0290714
0.0313248
0.0334003
0.035334
0.0371481
0.0388558
0.0404642
0.0419761
0.0433911
0.0447071
0.0459209
0.0470288
0.0480276
0.0489143
0.0496867
0.0503433
0.0508836
0.0513074
0.00705964
0.0152765
0.0197802
0.0231298
0.0259386
0.028424
0.0306893
0.0327914
0.034764
0.0366275
0.0383931
0.0400658
0.041646
0.0431312
0.0445171
0.0457984
0.04697
0.0480273
0.0489668
0.0497859
0.0504831
0.0510574
0.0515085
0.00685294
0.0148601
0.0192846
0.0226016
0.0254052
0.0279054
0.0302011
0.0323469
0.0343751
0.0363043
0.0381437
0.0398961
0.0415591
0.0431275
0.0445939
0.0459508
0.0471912
0.0483094
0.0493014
0.0501645
0.0508974
0.0514993
0.0519697
0.00665412
0.0144822
0.018862
0.0221769
0.0250014
0.0275382
0.0298834
0.0320908
0.034192
0.0362047
0.0381366
0.0399876
0.041752
0.0434204
0.0449818
0.0464254
0.0477418
0.0489245
0.049969
0.0508734
0.0516367
0.0522591
0.0527398
0.00647008
0.0141651
0.0185443
0.0218927
0.024765
0.0273585
0.0297695
0.0320534
0.0342437
0.0363584
0.0384037
0.0403762
0.0422653
0.044056
0.0457316
0.0472768
0.0486793
0.0499314
0.051029
0.0519714
0.0527594
0.0533941
0.0538754
0.00631654
0.013955
0.0183921
0.021813
0.0247558
0.027418
0.0299021
0.0322705
0.0345617
0.0367958
0.0389777
0.0410997
0.043144
0.0450868
0.0469028
0.0485698
0.0500716
0.0513995
0.0525509
0.0535275
0.054333
0.0549709
0.055442
0.00622504
0.0139405
0.0185137
0.0220429
0.0250629
0.0277858
0.0303319
0.0327787
0.0351742
0.0375426
0.0398876
0.0421949
0.0444358
0.0465724
0.0485652
0.0503816
0.0520002
0.0534117
0.0546169
0.0556222
0.0564364
0.0570668
0.0575163
0.00626053
0.0142928
0.0191004
0.0227507
0.0258135
0.0285472
0.031111
0.0336074
0.0360981
0.0386123
0.0411517
0.0436924
0.0461888
0.0485796
0.0508015
0.0528054
0.0545631
0.0560668
0.0573236
0.0583492
0.0591605
0.0597711
0.0601869
0.00655902
0.0153453
0.0204933
0.0242013
0.0271786
0.0297959
0.0322795
0.0347643
0.0373249
0.0399932
0.0427665
0.0456086
0.048448
0.0511844
0.0537114
0.0559548
0.0578797
0.0594827
0.0607844
0.061816
0.0626084
0.0631845
0.0635546
0.00741894
0.0177676
0.0233039
0.0267954
0.029365
0.0316091
0.033841
0.0362153
0.0388037
0.0416322
0.0446918
0.0479328
0.0512499
0.0544755
0.0574186
0.0599703
0.0620956
0.0638002
0.0651297
0.0661433
0.0668938
0.0674176
0.0677312
0.00951627
0.0229458
0.0285955
0.0310766
0.032563
0.0339951
0.0357247
0.0378589
0.0404228
0.0434177
0.0468299
0.0506075
0.0546124
0.0585651
0.0620813
0.065024
0.0673904
0.069187
0.0705079
0.0714629
0.0721382
0.0725882
0.0728363
0.0145796
0.0336863
0.0379901
0.0375783
0.036793
0.0367998
0.0377402
0.0395078
0.041999
0.0451653
0.0489991
0.0534873
0.0585052
0.0636083
0.0678925
0.071302
0.0739869
0.0758427
0.0770823
0.077912
0.0784655
0.078816
0.0789929
0.028712
0.0547355
0.0531783
0.0462077
0.0415693
0.0395749
0.039544
0.0408906
0.0432873
0.046615
0.0508982
0.0562483
0.0627209
0.0697739
0.0749553
0.078841
0.0821766
0.0840072
0.0850224
0.0856237
0.0859956
0.086219
0.0863227
0.0852734
0.089299
0.0751865
0.0547544
0.0453738
0.0414792
0.0406637
0.0416998
0.0440263
0.0474635
0.0520856
0.0582048
0.0663556
0.0765233
0.0822925
0.0865324
0.0925051
0.0939718
0.0944772
0.094712
0.0948422
0.094916
0.0949477
0.02216
0.0187422
0.0182229
0.0184153
0.0370801
0.0356412
0.0346021
0.0337375
0.0425776
0.0417881
0.0410741
0.0403318
0.0462235
0.0456454
0.0451156
0.0445931
0.0491405
0.0486665
0.0482248
0.0477903
0.0515656
0.0511412
0.0507386
0.0503429
0.053564
0.0531697
0.0527895
0.0524162
0.0551804
0.0548129
0.0544589
0.0541144
0.0565027
0.056169
0.0558452
0.0555297
0.0575602
0.0572684
0.0569897
0.0567198
0.0581694
0.0579246
0.0576926
0.0574601
0.0585199
0.0582949
0.0580711
0.0578467
0.0586419
0.058441
0.0582335
0.0580221
0.0585848
0.0584073
0.0582202
0.0580259
0.0583619
0.058207
0.0580388
0.0578582
0.0579781
0.0578424
0.0576893
0.0575184
0.0574558
0.0573352
0.0571938
0.057031
0.0568344
0.0567267
0.0565963
0.0564426
0.056157
0.056063
0.0559454
0.0558036
0.0554604
0.0553827
0.055281
0.0551549
0.0547717
0.0547135
0.0546312
0.0545243
0.0541089
0.0540731
0.0540128
0.0539277
0.0534854
0.0534735
0.0534368
0.0533748
0.0529138
0.0529262
0.0529132
0.0528746
0.0524094
0.0524453
0.0524553
0.0524391
0.0519918
0.0520495
0.0520806
0.0520849
0.0516849
0.0517619
0.0518117
0.0518339
0.0515175
0.051611
0.0516763
0.0517132
0.0515233
0.0516296
0.0517068
0.0517545
0.0517397
0.0518548
0.0519395
0.0519937
0.0522092
0.0523285
0.0524159
0.0524714
0.0529802
0.0530985
0.0531831
0.053234
0.0541082
0.0542198
0.0542955
0.0543355
0.0556584
0.0557571
0.0558175
0.0558394
0.0577071
0.0577868
0.0578251
0.0578217
0.0603435
0.0603984
0.0604087
0.0603734
0.0636702
0.0636964
0.0636745
0.0636029
0.0678026
0.0677992
0.0677452
0.0676375
0.0728663
0.0728376
0.0727581
0.0726229
0.0789918
0.0789491
0.07886
0.0787181
0.0863089
0.0862707
0.0861978
0.0860837
0.0949397
0.0949242
0.0948956
0.0948507
0.0215203
0.0240511
0.0266509
0.0283681
0.02966
0.0307643
0.0316343
0.031958
0.0316269
0.030983
0.0301213
0.028965
0.0281674
0.0264549
0.0243633
0.021905
0.0186782
0.013455
0.00657443
0.0325776
0.0320799
0.0325719
0.0331471
0.0337099
0.0343057
0.0348146
0.034728
0.0341372
0.0332901
0.0322755
0.0311852
0.030472
0.0287092
0.0263619
0.0234717
0.0192728
0.0128096
0.00589448
0.0390738
0.0379868
0.0376103
0.0374656
0.037456
0.0375037
0.0375429
0.0371639
0.0364338
0.0354477
0.0343123
0.0331275
0.0320308
0.0301666
0.0276015
0.0243272
0.0198187
0.0135169
0.00588301
0.0436327
0.0424711
0.0417227
0.0411611
0.040709
0.0403191
0.0399552
0.0393875
0.0385466
0.0374796
0.0362506
0.0348859
0.0333563
0.0313131
0.028688
0.0254404
0.0212854
0.0157122
0.0070135
0.0470246
0.0459388
0.0450526
0.0442892
0.0435719
0.0428938
0.042243
0.041496
0.0405579
0.0394168
0.038093
0.0365737
0.0348056
0.0326515
0.0300503
0.0269309
0.0230502
0.0178124
0.00806286
0.0496725
0.0486854
0.047771
0.0469127
0.0460689
0.0452458
0.0444355
0.0435408
0.0424834
0.0412456
0.0398232
0.0381871
0.0362929
0.0340721
0.0314663
0.0283769
0.0245488
0.0192185
0.00882921
0.0517992
0.0509062
0.0500163
0.0491253
0.0482267
0.0473397
0.0464386
0.0454304
0.0442594
0.0429203
0.0414025
0.0396726
0.0376931
0.0354144
0.0327703
0.029633
0.0257137
0.0201834
0.00930329
0.0535523
0.0527377
0.0518853
0.0509947
0.0500825
0.0491707
0.0482104
0.0471104
0.045838
0.0444025
0.0427957
0.0409868
0.0389372
0.0365982
0.0338942
0.0306737
0.0266156
0.0208971
0.00949736
0.0550173
0.0542744
0.0534571
0.0525674
0.0516577
0.0507506
0.0497588
0.0485783
0.0472062
0.0456739
0.0439866
0.0421132
0.0400008
0.0375929
0.034815
0.0315167
0.0273454
0.0215181
0.00985917
0.0562687
0.0556052
0.0548137
0.0538883
0.0529672
0.0521007
0.0511264
0.0498623
0.0483696
0.046729
0.044972
0.0430586
0.040899
0.0384196
0.0355314
0.0321491
0.0279101
0.0219678
0.0107385
0.0570573
0.0564324
0.0556722
0.0547712
0.0538971
0.0530516
0.0520725
0.050799
0.049252
0.0475276
0.0457093
0.0437888
0.0416108
0.039084
0.0360378
0.0325139
0.0281401
0.0218182
0.0101001
0.0574569
0.0568474
0.0561367
0.0553111
0.0544313
0.053497
0.0524531
0.0512081
0.0497083
0.0479911
0.0461283
0.0441416
0.0418582
0.0392341
0.0361721
0.032634
0.0283411
0.0223396
0.0108037
0.0576561
0.0570711
0.056377
0.0555458
0.0546164
0.0536139
0.0525136
0.0512462
0.0497677
0.0480877
0.0462173
0.0441287
0.0417438
0.0390234
0.0358985
0.0323191
0.028001
0.0221139
0.0107823
0.0576837
0.0571151
0.0564258
0.055582
0.0546084
0.0535411
0.0523795
0.0510859
0.0496224
0.047965
0.0460844
0.0439252
0.041424
0.0385651
0.03532
0.0316033
0.0271412
0.0211589
0.00989741
0.0575291
0.0569617
0.0562674
0.0554168
0.0544218
0.0533117
0.0520997
0.0507741
0.0493041
0.0476457
0.0457406
0.0435154
0.0409098
0.0379164
0.0345189
0.0306222
0.0259507
0.019782
0.00875393
0.0571967
0.056625
0.0559242
0.0550729
0.0540746
0.0529489
0.0517091
0.0503524
0.0488535
0.0471626
0.0452101
0.0429183
0.0402305
0.037131
0.0335977
0.0295223
0.0246339
0.0182609
0.00781348
0.0567169
0.0561462
0.0554468
0.0546027
0.0536136
0.0524893
0.0512369
0.0498526
0.048313
0.0465714
0.0445624
0.0422142
0.0394706
0.0363099
0.0326944
0.0285091
0.0235002
0.0170573
0.00717604
0.0561409
0.0555823
0.0548955
0.0540675
0.0530954
0.0519815
0.0507254
0.0493193
0.0477412
0.045951
0.0438936
0.0415095
0.038752
0.0355865
0.0319636
0.0277734
0.0227866
0.016443
0.00695813
0.0555212
0.0549869
0.0543232
0.0535195
0.052571
0.0514735
0.0502215
0.0488044
0.0472018
0.0453813
0.0433004
0.0409133
0.0381796
0.0350616
0.0315069
0.027415
0.0225766
0.016446
0.00711831
0.0548989
0.0543998
0.0537684
0.0529964
0.0520768
0.0510022
0.0497641
0.0483503
0.0467432
0.0449176
0.0428423
0.040483
0.0378061
0.0347759
0.0313417
0.0274098
0.0227768
0.0168689
0.0074735
0.0543004
0.0538443
0.0532526
0.0525178
0.0516324
0.0505875
0.0493732
0.0479778
0.0463862
0.0445794
0.0425348
0.0402268
0.0376282
0.0347062
0.0314116
0.0276513
0.023213
0.0174709
0.00787314
0.0537399
0.0533321
0.0527844
0.0520906
0.0512435
0.0502341
0.0490524
0.0476877
0.0461274
0.0443572
0.0423603
0.0401172
0.037605
0.034793
0.0316313
0.0280219
0.0237371
0.0180961
0.00824677
0.0532253
0.0528679
0.0523659
0.0517151
0.0509089
0.0499388
0.0487956
0.0474696
0.0459507
0.0442275
0.0422868
0.040113
0.0376853
0.0349736
0.0319253
0.0284362
0.0242624
0.018676
0.00857284
0.0527635
0.0524559
0.0519992
0.0513912
0.0506262
0.0496968
0.0485947
0.0473114
0.0458384
0.0441662
0.0422839
0.0401773
0.0378268
0.0352012
0.032245
0.0288473
0.0247507
0.0191894
0.00885005
0.0523645
0.0521037
0.0516899
0.0511225
0.0503971
0.0495072
0.0484457
0.0472054
0.0457786
0.0441571
0.042331
0.0402866
0.0380039
0.0354504
0.0325672
0.0292375
0.0251934
0.0196391
0.00908545
0.0520434
0.0518246
0.0514493
0.0509183
0.0502286
0.0493749
0.0483512
0.0471511
0.045768
0.0441943
0.04242
0.0404313
0.0382072
0.0357132
0.0328872
0.0296074
0.0255969
0.0200358
0.00928979
0.0518211
0.0516376
0.0512944
0.0507938
0.0501339
0.0493108
0.0483197
0.0471553
0.0458115
0.0442807
0.042553
0.0406135
0.0384397
0.0359945
0.0332126
0.0299678
0.0259758
0.0203973
0.00948292
0.0517234
0.0515671
0.0512479
0.0507696
0.0501317
0.0493317
0.048366
0.0472306
0.0459198
0.0444264
0.0427395
0.040843
0.0387121
0.0363069
0.0335584
0.0303357
0.0263481
0.0207393
0.00967333
0.0517808
0.0516418
0.0513368
0.0508707
0.0502447
0.0494579
0.0485085
0.0473938
0.046109
0.0446467
0.0429951
0.0411362
0.0390424
0.0366698
0.0339452
0.0307326
0.0267346
0.021079
0.00985638
0.0520284
0.0518948
0.0515917
0.0511253
0.0504983
0.0497124
0.0487678
0.0476638
0.0463968
0.0449592
0.0433382
0.0415132
0.0394526
0.0371077
0.0343992
0.0311852
0.027161
0.0214389
0.0100365
0.0525055
0.0523637
0.0520475
0.0515648
0.0509207
0.0501197
0.0491655
0.0480599
0.0468013
0.0453825
0.0437892
0.0419974
0.0399702
0.0376517
0.0349548
0.031729
0.0276609
0.0218469
0.0102286
0.0532574
0.053091
0.0527436
0.0522245
0.0515423
0.0507057
0.0497233
0.0486012
0.0473407
0.0459358
0.0443706
0.0426168
0.04063
0.038344
0.0356596
0.0324141
0.0282821
0.022342
0.0104493
0.0543365
0.0541265
0.0537254
0.0531447
0.052397
0.0514977
0.0504628
0.0493055
0.0480319
0.0466383
0.0451075
0.0434059
0.0414785
0.0392439
0.0365841
0.0333167
0.029098
0.0229834
0.0107273
0.0558053
0.0555297
0.0550476
0.0543723
0.0535227
0.0525243
0.0514047
0.0501881
0.0488892
0.0475085
0.0460284
0.0444087
0.0425801
0.0404384
0.0378355
0.0345565
0.0302271
0.0238683
0.0111021
0.0577392
0.0573734
0.0567769
0.0559645
0.0549637
0.0538156
0.0525672
0.0512601
0.0499224
0.0485624
0.0471645
0.045681
0.0440242
0.0420549
0.0395774
0.0363224
0.031862
0.0251587
0.011647
0.06023
0.0597482
0.0589979
0.0579924
0.0567713
0.0554019
0.053963
0.052524
0.0511325
0.04981
0.0485471
0.0472915
0.0459311
0.0442753
0.0420516
0.0389031
0.034309
0.0271238
0.0124798
0.0633899
0.0627691
0.0618205
0.0605481
0.0590079
0.0573119
0.0555947
0.0539674
0.0525048
0.0512477
0.0502016
0.0493177
0.0484557
0.0473446
0.0455916
0.0427079
0.0380247
0.0301902
0.0138078
0.0673548
0.0665833
0.0653928
0.0637576
0.0617515
0.0595682
0.0574449
0.0555533
0.0539988
0.052847
0.0521343
0.0518362
0.0517836
0.0515673
0.0506088
0.0482488
0.0436191
0.0349902
0.0159693
0.0722869
0.0713816
0.0699239
0.0678076
0.0651087
0.0621769
0.0594607
0.0572062
0.0555352
0.0545384
0.054311
0.0549038
0.0561316
0.0572873
0.0575287
0.0560395
0.0517843
0.0424102
0.0195737
0.0783714
0.0774094
0.075728
0.0730198
0.0692524
0.0651064
0.0615265
0.0587952
0.0569836
0.0561916
0.0566241
0.0585316
0.0617966
0.0648587
0.0666704
0.0663861
0.063101
0.0537044
0.026016
0.0858026
0.0849694
0.083305
0.0800674
0.0744754
0.0682087
0.0634148
0.0601192
0.0581578
0.0575964
0.0588291
0.0626114
0.0694768
0.0746876
0.0781317
0.0790805
0.0775803
0.0706189
0.0402771
0.0947368
0.0943596
0.0934069
0.0906251
0.0806879
0.0708701
0.0646971
0.0609115
0.0588364
0.0584565
0.0604125
0.0665435
0.0821968
0.0879269
0.0918851
0.0930982
0.093493
0.0934277
0.0869245
)
;

boundaryField
{
    leftWall
    {
        type            kqRWallFunction;
        value           nonuniform List<scalar> 
50
(
0.00081223
0.00202619
0.00295857
0.00378094
0.00451713
0.00520822
0.00585748
0.00641487
0.0068888
0.0075048
0.00801654
0.00861061
0.00935495
0.00996853
0.010616
0.011233
0.0116569
0.0124464
0.0134695
0.0138661
0.0141095
0.0141115
0.0138277
0.0134056
0.012936
0.0124094
0.0117962
0.0111199
0.010425
0.00976712
0.00919608
0.00872531
0.00833498
0.00801132
0.00773722
0.00749561
0.00727263
0.00705964
0.00685294
0.00665412
0.00647008
0.00631654
0.00622504
0.00626053
0.00655902
0.00741894
0.00951627
0.0145796
0.028712
0.0852734
)
;
    }
    rightWall
    {
        type            kqRWallFunction;
        value           nonuniform List<scalar> 
50
(
0.000769187
0.00211806
0.00341074
0.00517204
0.00745037
0.0079173
0.00783611
0.00744056
0.00657443
0.00589448
0.00588301
0.0070135
0.00806286
0.00882921
0.00930329
0.00949736
0.00985917
0.0107385
0.0101001
0.0108037
0.0107823
0.00989741
0.00875393
0.00781348
0.00717604
0.00695813
0.00711831
0.0074735
0.00787314
0.00824677
0.00857284
0.00885005
0.00908545
0.00928979
0.00948292
0.00967333
0.00985638
0.0100365
0.0102286
0.0104493
0.0107273
0.0111021
0.011647
0.0124798
0.0138078
0.0159693
0.0195737
0.026016
0.0402771
0.0869245
)
;
    }
    lowerWall
    {
        type            kqRWallFunction;
        value           nonuniform List<scalar> 
62
(
0.00081223
0.00243125
0.00365022
0.00462941
0.00544377
0.00613406
0.00672117
0.00721891
0.00763985
0.00799551
0.00830361
0.00858773
0.00882497
0.00900807
0.0091289
0.00917332
0.0091147
0.00890832
0.00847982
0.00770668
0.00639787
0.00429235
0.0014957
0.0014957
0.00383002
0.00560112
0.00735804
0.0092798
0.0116801
0.0152442
0.0215862
0.02216
0.0187422
0.0182229
0.0184153
0.00131295
0.00282002
0.00368807
0.00446842
0.00529316
0.00612473
0.00774882
0.012491
0.00131295
0.00263738
0.00370891
0.0048037
0.0057079
0.00617345
0.00661291
0.00685716
0.00688714
0.00694891
0.00634332
0.00585558
0.00592899
0.00545563
0.00485783
0.00430436
0.00357721
0.00253173
0.000769187
)
;
    }
    atmosphere
    {
        type            inletOutlet;
        inletValue      uniform 0.1;
        value           nonuniform List<scalar> 
46
(
0.1
0.1
0.1
0.0547544
0.0453738
0.0414792
0.0406637
0.0416998
0.0440263
0.0474635
0.0520856
0.0582048
0.0663556
0.0765233
0.0822925
0.0865324
0.1
0.1
0.1
0.1
0.1
0.1
0.1
0.1
0.1
0.1
0.1
0.1
0.1
0.1
0.1
0.0806879
0.0708701
0.0646971
0.0609115
0.0588364
0.0584565
0.0604125
0.0665435
0.1
0.1
0.1
0.1
0.1
0.1
0.1
)
;
    }
    defaultFaces
    {
        type            empty;
    }
}


// ************************************************************************* //
