/*--------------------------------*- C++ -*----------------------------------*\
  =========                 |
  \\      /  F ield         | OpenFOAM: The Open Source CFD Toolbox
   \\    /   O peration     | Website:  https://openfoam.org
    \\  /    A nd           | Version:  13
     \\/     M anipulation  |
\*---------------------------------------------------------------------------*/
FoamFile
{
    format      ascii;
    class       volScalarField;
    location    "2.9";
    object      p;
}
// * * * * * * * * * * * * * * * * * * * * * * * * * * * * * * * * * * * * * //

dimensions      [1 -1 -2 0 0 0 0];

internalField   nonuniform List<scalar> 
2268
(
5597.5
5578.31
5561.46
5548.18
5538.98
5533.8
5531.93
5532.37
5534.01
5535.77
5536.59
5535.23
5531.02
5523.46
5512.51
5498.55
5482.21
5464.12
5444.61
5423.73
5401.84
5380.53
5359.79
4805.12
4787.8
4772.35
4760.19
4751.18
4745.48
4742.54
4741.47
4741.35
4741.18
4739.87
4736.41
4729.99
4720.24
4707.21
4691.33
4673.34
4653.98
4633.89
4613.65
4594.1
4576.06
4557.95
4011.97
3995.56
3981.34
3970.87
3962.65
3956.99
3953.23
3950.86
3949
3946.8
3943.24
3937.28
3928.21
3915.81
3900.24
3882.12
3862.31
3841.82
3821.66
3802.82
3786.24
3771.15
3755.29
3217.15
3200
3186.23
3177.73
3171.07
3166.23
3162.65
3159.56
3156.42
3152.51
3146.91
3138.56
3126.84
3111.74
3093.54
3073.1
3051.52
3030.12
3010.25
2993.07
2979.01
2965.44
2951.01
2419.81
2400.2
2386.44
2380.14
2375.73
2372.89
2370.73
2367.85
2363.96
2358.77
2351.46
2340.98
2326.78
2309.05
2288.2
2265.42
2242.09
2219.81
2200.17
2184.31
2171.83
2159.15
2145.42
1617.78
1588.38
1574.77
1570.41
1568.33
1567.4
1568.28
1569.13
1568.46
1565.86
1561.23
1552.91
1539.44
1521.71
1500.41
1477.1
1453.31
1430.84
1411.31
1395.55
1382.67
1370.07
1355.54
1014.45
996.536
990.127
987.397
984.996
982.359
981.813
980.094
977.291
973.439
968.494
961.67
951.916
940.223
926.961
913.036
899.148
886.016
874.161
863.814
854.772
847.729
840.225
785.785
785.285
785.243
782.94
779.417
774.955
769.349
762.336
754.763
747.118
739.304
731.861
725.034
718.814
713.192
708.093
703.373
698.742
693.856
688.68
683.745
681.658
682.04
2923.55
2901.29
2832.8
2728.08
2610.22
2518.24
2466
2428.08
2408.87
2404.75
2380.7
2360.64
2382.32
2391.74
2388.8
2384.66
2378.32
2373.52
2371.09
2222.6
2203.79
2140.82
2040.97
1964.18
1920.44
1866
1822.41
1795.01
1793.31
1807.47
1819.16
1794.34
1783.79
1780.41
1775.48
1771.37
1767.54
1764.46
1631.59
1607.86
1552.55
1477.65
1414.49
1361.79
1318.07
1285.76
1275.35
1252.98
1273.89
1302.03
1279.95
1256.76
1238.94
1226.72
1231.11
1242.21
1254.99
1200.14
1192.49
1180.65
1166.38
1127.98
1076.03
1054.57
1039.77
1030.67
994.454
976.498
968.428
968.086
947.985
937.202
935.093
940.564
948.468
951.593
965.467
975.218
991.98
1009.99
1007.95
986.945
978.435
969.033
943.443
914.042
880.663
850.661
824.841
836.018
854.642
863.12
860.656
850.175
834.058
875.455
872.394
880.421
887.868
903.432
909.647
902.735
893.125
865.388
842.182
823.965
804.216
764.17
785.978
804.545
806.965
804.186
794.35
789.569
784.056
780.645
787.694
787.604
791.662
813.872
811.077
794.269
776.638
771.796
763.766
751.645
730.062
743.773
747.507
747.955
745.494
738.075
739.84
701.811
704.88
711.686
710.116
703.833
714.631
717.755
705.584
705.438
708.554
705.36
698.299
695.276
699.519
691.937
690.157
688.132
682.274
688.563
690.113
687.439
685.347
682.915
679.848
676.173
671.655
666.601
661.256
655.914
650.693
645.564
640.525
635.482
630.403
625.209
619.773
613.919
607.484
600.658
594.292
590.312
591.118
563.244
561.893
560.655
558.64
555.946
552.606
548.419
543.413
538.025
532.516
526.936
521.306
515.616
509.809
503.932
498.03
492.018
485.802
479.142
472.48
466.646
462.702
461.06
438.574
437.476
436.063
433.898
431.427
428.768
424.969
419.894
414.683
409.394
403.897
398.251
392.579
386.762
381.227
376.139
371.146
366.175
362.09
359.466
358.425
358.804
360.039
322.663
321.233
319.554
317.478
314.888
311.681
307.727
303.874
299.527
295.041
290.586
286.448
283.327
281.366
279.407
277.557
276.591
277.01
278.451
280.615
283.417
286.711
290.043
232.272
232.881
232.748
231.41
228.765
224.919
221.81
219.325
216.505
213.527
210.884
208.922
208.041
208.369
208.903
209.637
211.297
214.007
217.085
219.988
222.718
225.492
228.78
167.675
168.86
168.987
167.798
165.599
163.018
160.807
158.417
156.214
154.215
152.606
151.486
150.401
149.389
149.539
150.658
152.009
153.204
155.043
157.442
160.044
162.799
165.741
107.886
107.902
107.248
105.75
103.687
101.503
99.0848
96.3535
93.9634
91.9268
90.0507
88.3527
87.1583
86.4782
86.5209
87.2336
88.3625
89.7372
91.632
93.9129
96.6613
99.5764
102.481
48.1481
48.3545
47.7548
46.3142
44.3477
42.1894
40.0103
37.8324
35.8715
34.2216
32.8686
31.793
30.935
30.3782
30.2093
30.4788
31.1546
32.0054
33.1868
34.9897
37.2107
39.6569
42.3012
11.7966
12.0272
11.6834
10.8954
10.0543
9.2854
8.44901
7.5879
6.85329
6.28893
5.84642
5.49071
5.21353
5.01565
4.90955
4.9134
5.03741
5.3044
5.70969
6.22337
6.84264
7.56395
8.32446
3.69358
3.69186
3.68005
3.68857
3.69834
3.706
3.716
3.72559
3.72578
3.7185
3.70948
3.70068
3.69363
3.68799
3.68166
3.67487
3.66813
3.66133
3.65055
3.6325
3.60642
3.57061
3.53562
3.59073
3.59133
3.59119
3.59274
3.59599
3.60074
3.6059
3.60804
3.60377
3.59495
3.58431
3.57228
3.55921
3.54555
3.5314
3.51626
3.49989
3.48156
3.46063
3.43716
3.41195
3.3875
3.36432
3.47175
3.47
3.46891
3.46936
3.47105
3.4737
3.47642
3.47564
3.47038
3.46125
3.45142
3.44083
3.42949
3.41762
3.40497
3.39136
3.37641
3.35972
3.34092
3.32012
3.29803
3.27705
3.25749
3.35569
3.35328
3.35163
3.35088
3.35043
3.35016
3.34952
3.34545
3.33921
3.32981
3.31967
3.30913
3.29813
3.28689
3.27526
3.26298
3.24968
3.23501
3.21864
3.20056
3.18126
3.16259
3.14422
3.23859
3.23637
3.23454
3.23286
3.23079
3.22762
3.2234
3.21828
3.21124
3.20275
3.19348
3.18322
3.17224
3.16082
3.14901
3.13667
3.12348
3.1091
3.09328
3.07611
3.05807
3.04069
3.023
3.1215
3.11893
3.11664
3.11417
3.11146
3.10685
3.10035
3.09389
3.08665
3.07964
3.07148
3.06165
3.05077
3.03912
3.02687
3.01391
3.00005
2.9851
2.96898
2.95189
2.93431
2.91763
2.90069
3.00443
3.00172
2.99902
2.99625
2.99336
2.9887
2.98186
2.97405
2.96699
2.96037
2.95202
2.94218
2.9312
2.91941
2.90685
2.89344
2.87908
2.86371
2.84734
2.83025
2.81292
2.79669
2.78036
2.88776
2.88535
2.88249
2.87984
2.87663
2.87201
2.86583
2.85867
2.85122
2.84341
2.8345
2.82436
2.81324
2.8013
2.7885
2.77481
2.76018
2.7446
2.72813
2.71108
2.69396
2.67811
2.66229
2.77158
2.76964
2.76713
2.76432
2.76083
2.75621
2.75033
2.74344
2.73584
2.72756
2.71828
2.70796
2.69672
2.68463
2.67169
2.65786
2.64313
2.6275
2.61106
2.59414
2.57726
2.56176
2.54643
2.65581
2.65423
2.65201
2.64921
2.64564
2.64103
2.63531
2.62856
2.62094
2.61247
2.60303
2.59265
2.58137
2.56924
2.55628
2.54245
2.52776
2.51221
2.49591
2.47921
2.46261
2.44749
2.43262
2.54036
2.53911
2.53714
2.53445
2.53089
2.52634
2.52074
2.51412
2.50656
2.49807
2.48864
2.47829
2.46707
2.45502
2.44214
2.42844
2.4139
2.39855
2.38249
2.36609
2.34985
2.33513
2.32075
2.42522
2.42427
2.42254
2.41999
2.41652
2.41207
2.40659
2.40012
2.39268
2.38431
2.375
2.36479
2.35372
2.34184
2.32915
2.31568
2.30141
2.28635
2.27064
2.25461
2.23878
2.2245
2.21059
2.31038
2.30968
2.30817
2.30578
2.30245
2.29813
2.29281
2.28652
2.27927
2.27109
2.26199
2.25202
2.24121
2.2296
2.21721
2.20405
2.19014
2.17548
2.16019
2.14462
2.12927
2.11545
2.10207
2.1958
2.19532
2.19401
2.19179
2.18862
2.18448
2.17936
2.17328
2.16626
2.15835
2.14955
2.1399
2.12943
2.11819
2.10619
2.09345
2.07998
2.0658
2.05103
2.036
2.0212
2.00792
1.99506
2.08149
2.08114
2.08001
2.07797
2.07499
2.07106
2.06618
2.06036
2.05363
2.04604
2.0376
2.02834
2.0183
2.0075
1.99598
1.98375
1.97082
1.95721
1.94303
1.92863
1.91445
1.90177
1.88952
1.96743
1.96717
1.96618
1.96432
1.96154
1.95785
1.95323
1.94772
1.94133
1.93411
1.92608
1.91728
1.90773
1.89746
1.88649
1.87484
1.86253
1.84957
1.83607
1.82235
1.80888
1.79688
1.78516
1.85359
1.85339
1.85254
1.85085
1.84828
1.84483
1.8405
1.83532
1.82932
1.82251
1.81494
1.80664
1.79764
1.78796
1.77761
1.76661
1.75499
1.74275
1.73
1.71704
1.70432
1.69311
1.68178
1.73997
1.73981
1.73908
1.73757
1.73522
1.73203
1.72801
1.72318
1.71758
1.71122
1.70415
1.6964
1.68798
1.67893
1.66926
1.65897
1.64809
1.63663
1.62469
1.61253
1.6006
1.59
1.57966
1.62655
1.62643
1.62582
1.62449
1.62236
1.61944
1.61575
1.6113
1.60612
1.60025
1.5937
1.58652
1.57873
1.57035
1.56139
1.55186
1.54177
1.53113
1.52004
1.50875
1.49766
1.4878
1.47836
1.51331
1.51325
1.51275
1.51159
1.50969
1.50706
1.50371
1.49966
1.49493
1.48956
1.48357
1.47699
1.46986
1.46218
1.45396
1.44522
1.43595
1.42618
1.41598
1.40558
1.39537
1.38632
1.37765
1.40024
1.40023
1.39985
1.39886
1.3972
1.39487
1.39187
1.38823
1.38397
1.37912
1.3737
1.36775
1.36129
1.35433
1.34687
1.33894
1.33052
1.32163
1.31235
1.30288
1.29357
1.28532
1.27748
1.28731
1.28737
1.28711
1.2863
1.28488
1.28285
1.28021
1.27699
1.2732
1.26888
1.26405
1.25873
1.25295
1.24672
1.24004
1.23292
1.22536
1.21737
1.20902
1.2005
1.19212
1.18473
1.17767
1.17449
1.17463
1.1745
1.17388
1.1727
1.17098
1.16871
1.16591
1.16261
1.15882
1.15457
1.14988
1.14477
1.13926
1.13335
1.12704
1.12033
1.11324
1.10583
1.09828
1.09086
1.08432
1.07816
1.06174
1.06198
1.06199
1.06157
1.06065
1.05925
1.05735
1.05497
1.05214
1.04887
1.04519
1.04111
1.03667
1.03185
1.02668
1.02117
1.0153
1.0091
1.00263
0.996031
0.989569
0.983911
0.978572
0.949025
0.949385
0.949556
0.949345
0.9487
0.947617
0.946093
0.944135
0.941762
0.938996
0.935861
0.932374
0.928553
0.924407
0.919946
0.915181
0.910121
0.904781
0.899213
0.893564
0.888035
0.88321
0.878723
0.836298
0.836797
0.837147
0.837167
0.836809
0.83606
0.834909
0.833359
0.83143
0.829145
0.826525
0.82359
0.820353
0.816827
0.813024
0.808962
0.804661
0.800138
0.795443
0.790691
0.786071
0.782072
0.778344
0.723512
0.724171
0.724716
0.724986
0.724936
0.724538
0.723764
0.722615
0.721112
0.71928
0.71714
0.714711
0.712009
0.709045
0.705835
0.702414
0.698813
0.695055
0.691179
0.687293
0.683531
0.680307
0.677367
0.610602
0.611443
0.612199
0.612746
0.613041
0.613021
0.612637
0.611885
0.610792
0.609386
0.60769
0.605722
0.603498
0.601029
0.598337
0.595485
0.592522
0.589473
0.586372
0.583287
0.580335
0.577845
0.575557
0.497519
0.498555
0.499543
0.500426
0.501129
0.501527
0.501545
0.501186
0.500488
0.499487
0.498206
0.496659
0.494861
0.492813
0.490551
0.488194
0.485814
0.483428
0.481052
0.478734
0.476539
0.474712
0.473048
0.384227
0.385488
0.386811
0.388144
0.389328
0.390157
0.390563
0.390573
0.390248
0.389638
0.388763
0.38763
0.386235
0.384526
0.382594
0.380668
0.378837
0.377084
0.375412
0.373827
0.372381
0.371238
0.370185
0.270786
0.272393
0.274343
0.276252
0.277902
0.279083
0.279789
0.280101
0.28011
0.279881
0.279441
0.278793
0.277921
0.276542
0.274828
0.273293
0.272041
0.270901
0.269909
0.269053
0.26836
0.26795
0.267832
0.157346
0.159503
0.16283
0.165395
0.167185
0.16845
0.169282
0.169792
0.170081
0.170219
0.170259
0.170265
0.170346
0.168824
0.167145
0.166001
0.165302
0.16473
0.164335
0.164097
0.164049
0.164283
0.165303
0.0494465
0.0498558
0.0530092
0.0546467
0.0556567
0.0564045
0.0569304
0.0573045
0.057585
0.0578156
0.0580479
0.0583708
0.0591095
0.0586998
0.0571675
0.0566334
0.0563918
0.0560523
0.0559123
0.0558885
0.0559734
0.0562239
0.0570995
597.649
599.554
601.915
602.978
459.726
457.699
455.757
457.18
361.229
361.638
361.465
360.983
292.384
293.69
293.987
293.024
231.436
232.679
233.243
233.159
167.638
168.674
169.447
170.045
104.394
105.481
106.496
107.498
44.6886
45.9486
46.7944
47.3617
8.82391
9.14802
9.45864
9.78362
3.52137
3.51071
3.48982
3.46396
3.33701
3.3151
3.2916
3.27411
3.23583
3.21268
3.18574
3.16329
3.12016
3.0949
3.06641
3.04379
2.99735
2.97122
2.94233
2.92023
2.87524
2.84912
2.8202
2.79833
2.75538
2.72947
2.70067
2.67897
2.63782
2.6122
2.58356
2.56209
2.52246
2.49717
2.46883
2.44763
2.40922
2.38434
2.35632
2.33544
2.29794
2.27353
2.24597
2.22542
2.18844
2.16458
2.1375
2.11736
2.08057
2.05732
2.03092
2.01126
1.97435
1.95181
1.92609
1.90697
1.86966
1.84793
1.82308
1.80451
1.76627
1.74546
1.72152
1.70367
1.66388
1.6441
1.6212
1.60394
1.56279
1.54397
1.52204
1.50557
1.46258
1.44487
1.42417
1.40848
1.3631
1.34659
1.32711
1.31233
1.26408
1.24883
1.23081
1.21701
1.16556
1.15163
1.13501
1.12227
1.06735
1.05481
1.03974
1.02799
0.969155
0.958032
0.944411
0.933721
0.870568
0.86083
0.848831
0.839201
0.771493
0.763127
0.752593
0.744078
0.671719
0.664682
0.65571
0.648234
0.571069
0.565298
0.557712
0.551334
0.469483
0.464856
0.458745
0.453455
0.367558
0.364018
0.359182
0.354963
0.266379
0.264036
0.260494
0.257033
0.166469
0.165762
0.163369
0.160119
0.0589027
0.0592056
0.0583645
0.0565158
598.237
602.568
606.914
608.784
607.082
606.393
605.299
605.916
612.739
615.827
615.842
616.286
628.102
617.971
605.844
600.702
599.647
600.201
607.98
465.443
472.169
473.961
479.958
484.756
483.5
481.623
487.096
489.563
491.491
493.509
498.788
511.923
498.371
488.856
486.892
489.911
494.575
499.56
361.916
364.972
365.708
372.616
378.65
377.284
379.903
384.482
386.342
389.113
391.437
394.518
399.083
396.43
395.646
397.792
400.789
402.086
401.752
291.238
292.459
294.332
296.833
300.113
304.115
306.87
309.834
313.953
317.334
319.46
320.766
322.799
324.63
326.803
328.311
327.955
326.105
324.378
232.767
234.403
236.011
237.459
240.743
245.981
249.456
251.99
253.713
255.467
257.21
258.719
260.381
261.69
262.976
263.569
262.633
260.542
259.612
171.016
173.176
175.174
177.359
180.612
185.242
189.502
191.623
192.45
193.77
195.234
196.546
197.812
198.813
199.594
199.821
199.129
197.742
197.131
109.172
111.807
114.342
116.886
119.916
123.536
126.85
129.104
130.603
131.992
133.3
134.405
135.314
135.929
136.278
136.317
135.833
134.857
134.351
48.1731
50.4291
52.8695
55.5104
58.6946
62.1186
65.1551
67.4872
69.2043
70.5648
71.7913
72.6819
73.2848
73.5018
73.1686
72.2173
71.0972
70.3714
70.4431
10.3983
11.3309
12.3735
13.6934
15.591
17.5537
19.1985
20.5037
21.5168
22.3751
23.0078
23.4663
23.7433
23.7842
23.6633
23.0608
22.1846
21.6697
21.9027
3.42843
3.41613
3.41217
3.41716
3.41331
3.40852
3.44375
3.50945
3.60633
3.71708
3.84081
3.9401
3.95525
3.97104
4.31268
4.69644
4.8167
4.68337
4.57424
3.25875
3.24825
3.24426
3.24866
3.25681
3.25854
3.24838
3.22437
3.20982
3.21078
3.23093
3.25703
3.27544
3.29014
3.22261
3.19967
3.2041
3.21864
3.22645
3.14137
3.13099
3.12213
3.11386
3.10768
3.09811
3.08957
3.08154
3.07719
3.07719
3.08262
3.09314
3.09377
3.08429
3.08698
3.0879
3.09113
3.095
3.09751
3.02255
3.01125
2.99952
2.98369
2.96709
2.95613
2.94917
2.949
2.94798
2.94572
2.94237
2.94328
2.94491
2.94739
2.95579
2.96003
2.96496
2.96953
2.97293
2.90071
2.88945
2.8779
2.86415
2.85095
2.84036
2.83343
2.82982
2.82686
2.82304
2.81785
2.81394
2.81654
2.82363
2.83134
2.83788
2.84371
2.84897
2.85265
2.77944
2.76888
2.75821
2.7461
2.73454
2.72516
2.71816
2.71342
2.70946
2.70562
2.7021
2.70054
2.70274
2.70799
2.71473
2.72096
2.72675
2.73148
2.73408
2.66044
2.65093
2.64097
2.62994
2.61954
2.61076
2.60386
2.59875
2.59472
2.59149
2.58922
2.58875
2.59092
2.59528
2.60086
2.60657
2.61187
2.61591
2.61755
2.54399
2.53528
2.52596
2.51573
2.50611
2.49781
2.4911
2.48595
2.48205
2.47927
2.47772
2.4778
2.47987
2.48364
2.48845
2.49356
2.49834
2.5018
2.50276
2.42995
2.42185
2.41306
2.40342
2.39435
2.38645
2.37996
2.37489
2.37113
2.36861
2.3674
2.36769
2.3696
2.3729
2.37713
2.38169
2.38594
2.38889
2.38946
2.31819
2.31056
2.3022
2.29299
2.28434
2.27674
2.27043
2.26546
2.26178
2.25937
2.25828
2.25857
2.26025
2.26313
2.26683
2.27087
2.2746
2.27714
2.27758
2.20855
2.20132
2.19332
2.18445
2.1761
2.16872
2.16253
2.15761
2.15395
2.15154
2.1504
2.15055
2.15194
2.1544
2.15761
2.16116
2.16444
2.16668
2.16717
2.10097
2.09406
2.08636
2.07776
2.06962
2.06238
2.05627
2.05134
2.04763
2.04512
2.04384
2.04376
2.04481
2.04685
2.04962
2.05272
2.05565
2.05772
2.05833
1.99529
1.98868
1.98123
1.97284
1.96486
1.95771
1.95162
1.94665
1.94282
1.94016
1.93866
1.93829
1.93899
1.94063
1.94298
1.94572
1.94838
1.95035
1.95111
1.89151
1.88508
1.87785
1.86964
1.86177
1.85467
1.84856
1.84351
1.83954
1.83668
1.83492
1.83424
1.83459
1.83585
1.83782
1.84023
1.84268
1.84462
1.8455
1.78945
1.78312
1.77612
1.76806
1.76029
1.75322
1.74707
1.74191
1.73777
1.73469
1.73266
1.73166
1.73166
1.73255
1.73419
1.73632
1.73858
1.74048
1.74148
1.68906
1.68266
1.67593
1.66803
1.66034
1.65328
1.64708
1.6418
1.63749
1.63418
1.63187
1.63056
1.63022
1.63076
1.63207
1.63393
1.63602
1.63787
1.63894
1.58988
1.58392
1.57725
1.56947
1.56185
1.55481
1.54855
1.54315
1.53866
1.53511
1.53252
1.5309
1.53022
1.53042
1.53141
1.533
1.53491
1.53668
1.53779
1.49215
1.48649
1.47993
1.47228
1.46475
1.45773
1.45142
1.4459
1.44123
1.43745
1.43458
1.43264
1.43162
1.43148
1.43214
1.43343
1.43513
1.43681
1.43793
1.39563
1.39021
1.38381
1.37633
1.3689
1.36191
1.35557
1.34995
1.34511
1.3411
1.33795
1.3357
1.33433
1.33384
1.33415
1.33514
1.33659
1.33813
1.33922
1.3002
1.29496
1.28874
1.28143
1.27413
1.2672
1.26084
1.25514
1.25015
1.24592
1.24251
1.23993
1.23822
1.23736
1.2373
1.23795
1.23911
1.24048
1.2415
1.20556
1.20053
1.1945
1.18739
1.18025
1.17341
1.16706
1.1613
1.15618
1.15175
1.14807
1.14518
1.1431
1.14185
1.1414
1.14168
1.14253
1.14367
1.14461
1.1116
1.10671
1.10088
1.094
1.08704
1.08033
1.07403
1.06823
1.06301
1.0584
1.05446
1.05124
1.04879
1.04713
1.04627
1.04614
1.04665
1.04755
1.04838
1.01796
1.01324
1.00762
1.001
0.994276
0.987729
0.981526
0.975745
0.970442
0.965671
0.961486
0.957945
0.955106
0.953019
0.95171
0.951166
0.951305
0.951937
0.952658
0.924437
0.919841
0.914464
0.908151
0.901709
0.895391
0.889341
0.883625
0.878292
0.873391
0.868977
0.865112
0.861868
0.859325
0.857547
0.856552
0.856321
0.856702
0.857306
0.830622
0.826231
0.821135
0.815189
0.809102
0.803088
0.797267
0.791686
0.786386
0.781402
0.776785
0.772601
0.768938
0.765906
0.763619
0.762167
0.761562
0.761693
0.762219
0.736327
0.73214
0.727386
0.721881
0.716236
0.710619
0.705121
0.699777
0.694595
0.689596
0.684817
0.680326
0.676228
0.672671
0.66984
0.667889
0.66692
0.666849
0.667316
0.641224
0.637343
0.632997
0.628023
0.622926
0.617825
0.612781
0.607793
0.602842
0.597923
0.593052
0.588286
0.583747
0.579621
0.576183
0.573709
0.572373
0.572123
0.572593
0.54523
0.541687
0.537825
0.533475
0.529047
0.524605
0.520172
0.515694
0.511118
0.506411
0.501559
0.496591
0.491625
0.486892
0.482778
0.479697
0.477977
0.477592
0.478093
0.448268
0.445165
0.441836
0.438192
0.434566
0.430959
0.427325
0.423536
0.419507
0.415187
0.410525
0.405492
0.400177
0.394819
0.389925
0.386143
0.38395
0.383384
0.383941
0.350727
0.34796
0.345154
0.342245
0.339552
0.336985
0.334359
0.331442
0.328147
0.324434
0.320213
0.315368
0.309926
0.304026
0.29828
0.29362
0.29075
0.289813
0.290272
0.253167
0.250453
0.248057
0.245812
0.244102
0.242866
0.241456
0.239573
0.23721
0.234381
0.230981
0.226817
0.221804
0.215755
0.208883
0.203264
0.199307
0.19723
0.197124
0.155021
0.151925
0.149908
0.148081
0.147135
0.148435
0.148514
0.147757
0.1465
0.14487
0.142805
0.140081
0.136375
0.131092
0.122336
0.116031
0.110749
0.106073
0.104379
0.0528756
0.0510391
0.0499868
0.0488175
0.0481757
0.0498593
0.0505264
0.0505426
0.0502621
0.0498455
0.0492892
0.0484867
0.0471752
0.0450262
0.0399737
0.0362202
0.0327428
0.0268361
0.0253629
)
;

boundaryField
{
    leftWall
    {
        type            calculated;
        value           nonuniform List<scalar> 
50
(
5597.5
4805.12
4011.97
3217.15
2419.81
1617.78
1014.45
785.785
690.113
563.244
438.574
322.663
232.272
167.675
107.886
48.1481
11.7966
3.69358
3.59073
3.47175
3.35569
3.23859
3.1215
3.00443
2.88776
2.77158
2.65581
2.54036
2.42522
2.31038
2.1958
2.08149
1.96743
1.85359
1.73997
1.62655
1.51331
1.40024
1.28731
1.17449
1.06174
0.949025
0.836298
0.723512
0.610602
0.497519
0.384227
0.270786
0.157346
0.0494465
)
;
    }
    rightWall
    {
        type            calculated;
        value           nonuniform List<scalar> 
50
(
2371.09
1764.46
1254.99
951.593
834.058
789.569
739.84
688.563
607.98
499.56
401.752
324.378
259.612
197.131
134.351
70.4431
21.9027
4.57424
3.22645
3.09751
2.97293
2.85265
2.73408
2.61755
2.50276
2.38946
2.27758
2.16717
2.05833
1.95111
1.8455
1.74148
1.63894
1.53779
1.43793
1.33922
1.2415
1.14461
1.04838
0.952658
0.857306
0.762219
0.667316
0.572593
0.478093
0.383941
0.290272
0.197124
0.104379
0.0253629
)
;
    }
    lowerWall
    {
        type            calculated;
        value           nonuniform List<scalar> 
62
(
5995.65
5976.46
5959.61
5946.33
5937.13
5931.95
5930.08
5930.52
5932.16
5933.92
5934.74
5933.38
5929.17
5921.61
5910.66
5896.7
5880.36
5862.27
5842.76
5821.77
5799.78
5778.47
5757.75
5359.79
4557.95
3755.29
2951.01
2145.42
1355.54
840.225
682.04
669.082
682.035
694.268
695.825
2923.55
2222.6
1631.59
1200.14
965.467
875.455
784.056
701.811
3275.03
3253.03
3184.35
3079.32
2922.81
2783.96
2731.74
2698.77
2688.5
2685.97
2644.2
2623.32
2665.46
2696
2693.27
2689.59
2682.07
2676.69
2674.4
)
;
    }
    atmosphere
    {
        type            calculated;
        value           nonuniform List<scalar> 
46
(
0
0
0
0
0
0
0
0
0
0
0
0
0
0
0
0
0
0
0
0
0
0
0
0
0
0
0
0
0
0
0
0
0
0
0
0
0
0
0
0
0
0
0
-7.5035e-07
-6.42192e-05
-0.000104619
)
;
    }
    defaultFaces
    {
        type            empty;
    }
}


// ************************************************************************* //
