/*--------------------------------*- C++ -*----------------------------------*\
  =========                 |
  \\      /  F ield         | OpenFOAM: The Open Source CFD Toolbox
   \\    /   O peration     | Website:  https://openfoam.org
    \\  /    A nd           | Version:  13
     \\/     M anipulation  |
\*---------------------------------------------------------------------------*/
FoamFile
{
    format      ascii;
    class       volScalarField;
    location    "2.9";
    object      p_rgh;
}
// * * * * * * * * * * * * * * * * * * * * * * * * * * * * * * * * * * * * * //

dimensions      [1 -1 -2 0 0 0 0];

internalField   nonuniform List<scalar> 
2268
(
5995.65
5976.46
5959.61
5946.33
5937.13
5931.95
5930.08
5930.52
5932.16
5933.92
5934.74
5933.38
5929.17
5921.61
5910.66
5896.7
5880.36
5862.27
5842.76
5821.77
5799.78
5778.47
5757.75
5999.56
5982.25
5966.8
5954.64
5945.63
5939.93
5936.99
5935.92
5935.8
5935.63
5934.32
5930.86
5924.44
5914.69
5901.66
5885.78
5867.79
5848.43
5828.34
5808.08
5788.5
5770.45
5752.4
6002.72
5986.31
5972.09
5961.62
5953.4
5947.74
5943.98
5941.61
5939.75
5937.55
5933.99
5928.03
5918.96
5906.56
5890.99
5872.87
5853.06
5832.57
5812.41
5793.57
5776.99
5761.9
5746.04
6004.2
5987.05
5973.28
5964.78
5958.12
5953.28
5949.7
5946.61
5943.47
5939.56
5933.96
5925.61
5913.88
5898.79
5880.59
5860.15
5838.57
5817.17
5797.3
5780.12
5766.06
5752.49
5738.06
6003.16
5983.54
5969.79
5963.49
5959.08
5956.24
5954.07
5951.2
5947.31
5942.11
5934.81
5924.33
5910.13
5892.4
5871.55
5848.77
5825.43
5803.16
5783.52
5767.66
5755.18
5742.49
5728.73
5997.43
5968.03
5931.13
5920.02
5923.4
5944.37
5947.92
5948.78
5948.11
5945.51
5935.45
5921.2
5909.52
5891.35
5866.9
5837.25
5803.47
5767.06
5730.15
5695.78
5661.82
5618.89
5569.99
3553.93
3209.67
3089.54
3073.38
3092.41
3129.45
3219.4
3330.2
3442.88
3545.55
3645.27
3710.13
3714.15
3668.54
3576.64
3452.71
3308.02
3158.37
3018.65
2895.94
2785.02
2654.68
2515.61
1227.23
1226.73
1226.68
1224.38
1220.86
1216.39
1210.79
1203.78
1197.25
1191.85
1180.74
1173.3
1166.47
1160.25
1154.63
1149.53
1144.81
1140.18
1135.3
1130.11
1125.1
1122.41
1121.86
3275.03
3253.03
3184.35
3079.32
2922.81
2783.96
2731.74
2698.77
2688.5
2685.97
2644.2
2623.32
2665.46
2696
2693.27
2689.59
2682.07
2676.69
2674.4
3275.39
3258.2
3195.71
3077.58
2970.84
2916.61
2859.59
2817.33
2786.11
2780.83
2725.43
2641.91
2702.81
2690.18
2687.87
2683.48
2680.9
2677.09
2674.38
2855.34
2887.81
2784.69
2572.74
2460.34
2484.05
2379.18
2292.9
2195.34
2323.88
2409.53
2490.42
2338.49
2386.27
2438.52
2461.05
2419.07
2357.07
2281.45
2552.06
2385.15
2107.96
1783.36
1618.65
1451.62
1352.42
1312.34
1427.67
1287.42
1475.84
1670.35
1684.1
1520.91
1360.79
1237.41
1303.93
1422.7
1631.7
1366.23
1461.38
1537.05
1630.02
1427.26
1259.5
1247.3
1232.75
1253.72
1216.23
1101.86
1021.59
1221.23
1094.08
1038.62
1094.98
1097
1106.96
1009.47
1386.33
1472.14
1480.18
1519.09
1550.85
1358.6
1375.16
1390.98
1365.77
1241.58
1151.39
1087.91
908.547
994.31
1123.46
1130.68
1127.88
1118.06
1029.89
1395.46
1326.97
1326.38
1371.92
1526.14
1470.35
1403.15
1457.71
1323.12
1199.75
1148.74
1135.29
898.592
1018.76
1130.05
1130.54
1128.05
1120.67
1052.64
1277.55
1257.88
1276.77
1214.22
1183.85
1421.62
1415.2
1329.41
1151.45
1152.17
1149.54
1128.8
889.89
1017.55
1130.13
1131.6
1129.34
1123.98
1050.37
1223.58
1220.91
1218.81
1216.38
1213.3
1209.64
1205.12
1200.07
1194.72
1189.38
1184.16
1179.03
1173.99
1168.95
1163.87
1158.68
1153.24
1147.39
1140.95
1134.12
1127.76
1123.69
1122.96
1221.91
1220.55
1218.72
1216.99
1214.59
1211.27
1207.08
1202.08
1196.69
1191.18
1185.6
1179.97
1174.28
1168.47
1162.59
1156.69
1150.68
1144.46
1137.04
1126.57
1114.27
1104.1
1088.32
1203.98
1211.11
1218.48
1217.49
1215.26
1212.62
1208.82
1203.75
1198.54
1193.16
1187.33
1181.08
1172.42
1158.57
1140.88
1120.29
1097.87
1075.73
1033.59
980.962
928.416
883.778
848.706
1125.31
1115.76
1110.02
1097.96
1100.4
1128.15
1135.87
1099.99
1089.94
1082.23
1065.48
1040.28
1004.39
943.906
896.09
863.921
820.495
754.942
712.555
698.044
703.836
724.207
721.636
825.31
787.928
774.714
769.102
767.092
761.825
718.764
725.879
711.151
692.651
672.47
651.123
651.547
691.829
695.255
675.745
673.517
713.282
734.119
737.11
739.84
742.617
739.104
716.295
746.211
748.671
747.596
740.496
714.121
717.234
732.049
732.563
726.399
725.083
728.831
730.12
729.109
729.258
730.378
731.729
732.924
734.763
737.163
739.615
742.252
745.574
749.96
750.511
749.633
748.087
745.978
743.392
741.401
738.671
736.281
734.244
732.368
730.67
729.475
728.795
728.838
729.551
730.68
732.054
733.949
736.23
738.981
741.899
744.805
725.031
724.77
720.855
711.594
697.405
679.993
663.78
649.169
633.884
617.891
601.198
584.119
567.586
552.379
541.142
534.758
531.5
529.467
533.351
549.123
575.716
608.15
640.079
210.386
220.887
214.618
193.402
171.007
151.262
129.176
105.253
85.1611
70.0364
57.9822
47.9759
39.7703
33.4089
29.5464
28.5165
30.4823
35.5218
43.9752
55.5077
70.3701
89.1788
110.298
5.35436
5.3528
5.34706
5.35206
5.3588
5.36634
5.37635
5.3859
5.3861
5.37879
5.36974
5.36093
5.35386
5.34822
5.34189
5.33509
5.32835
5.32185
5.3114
5.29373
5.26794
5.23166
5.19705
5.37777
5.37777
5.37773
5.37932
5.38172
5.3865
5.39139
5.39503
5.38979
5.38097
5.36991
5.35781
5.34473
5.33107
5.31692
5.30176
5.28536
5.26703
5.2461
5.22263
5.19744
5.17308
5.14987
5.38433
5.38421
5.38559
5.38109
5.38197
5.38681
5.42519
5.49422
5.42925
5.37544
5.36311
5.35228
5.34076
5.32881
5.31601
5.30225
5.28724
5.27049
5.25166
5.23083
5.20875
5.18779
5.16826
5.39478
5.40317
5.41557
5.39417
5.38643
5.40886
5.55371
5.55298
5.53682
5.37761
5.35808
5.34695
5.33522
5.32367
5.31165
5.29917
5.28576
5.27102
5.25458
5.23647
5.21717
5.19851
5.18018
5.40451
5.43745
5.45799
5.43376
5.392
5.43361
5.56208
5.56057
5.55477
5.42107
5.36166
5.35025
5.33614
5.32354
5.31057
5.29803
5.28479
5.27033
5.25443
5.23722
5.21917
5.20178
5.1841
5.41209
5.4533
5.46874
5.45226
5.39786
5.39325
5.45829
5.56746
5.52173
5.37824
5.36526
5.3554
5.34424
5.32852
5.31326
5.30037
5.28653
5.27154
5.25535
5.23822
5.22061
5.2039
5.18695
5.41881
5.44053
5.47099
5.42647
5.40496
5.40029
5.3934
5.38879
5.3824
5.37404
5.36822
5.36143
5.34928
5.33217
5.31831
5.305
5.2907
5.27532
5.25891
5.24178
5.22441
5.20814
5.1918
5.42677
5.42637
5.42591
5.41742
5.41351
5.40871
5.40257
5.39539
5.38794
5.38016
5.37205
5.36342
5.35187
5.33817
5.32522
5.31161
5.29698
5.28133
5.26484
5.24778
5.23064
5.21475
5.19891
5.43457
5.4326
5.42927
5.42637
5.42277
5.41812
5.41225
5.40535
5.39777
5.3897
5.38104
5.37079
5.35933
5.34653
5.33359
5.3198
5.30505
5.28937
5.27292
5.256
5.2391
5.22358
5.20824
5.4438
5.44182
5.43929
5.43632
5.43274
5.42813
5.4224
5.41564
5.40801
5.39961
5.39056
5.38062
5.36907
5.35642
5.34333
5.32951
5.31481
5.29924
5.28293
5.26622
5.24963
5.23449
5.21961
5.45334
5.45194
5.44966
5.44677
5.44318
5.43862
5.43301
5.42637
5.41879
5.41035
5.40104
5.39094
5.37965
5.3673
5.35436
5.34065
5.32611
5.31075
5.29469
5.27828
5.26204
5.24731
5.23293
5.46318
5.46224
5.46025
5.4575
5.454
5.44953
5.44403
5.43754
5.4301
5.42173
5.41245
5.40227
5.39118
5.37926
5.36655
5.35307
5.33879
5.32374
5.30802
5.29199
5.27615
5.26187
5.24796
5.47338
5.47274
5.47101
5.46849
5.46511
5.46077
5.45543
5.44912
5.44186
5.43368
5.4246
5.41462
5.4038
5.39218
5.37978
5.36663
5.35271
5.33805
5.32276
5.30719
5.29183
5.27801
5.26463
5.48383
5.48342
5.48198
5.47967
5.47647
5.4723
5.46716
5.46106
5.45404
5.44612
5.43733
5.42767
5.4172
5.40595
5.39395
5.38121
5.36774
5.35356
5.33879
5.32375
5.30895
5.29568
5.28281
5.49464
5.49432
5.49312
5.49103
5.48802
5.48406
5.47916
5.47333
5.4666
5.459
5.45055
5.4413
5.43125
5.42045
5.40893
5.3967
5.38376
5.37015
5.35598
5.34157
5.3274
5.31472
5.30247
5.50573
5.50548
5.50446
5.50256
5.49976
5.49603
5.4914
5.48588
5.47948
5.47226
5.46422
5.45542
5.44587
5.4356
5.42463
5.41298
5.40066
5.3877
5.37421
5.36049
5.34702
5.33501
5.32329
5.51706
5.51686
5.51598
5.51427
5.51168
5.50821
5.50387
5.49867
5.49266
5.48585
5.47828
5.46998
5.46098
5.45129
5.44094
5.42995
5.41832
5.40608
5.39333
5.38037
5.36765
5.35644
5.34511
5.52862
5.52845
5.5277
5.52617
5.5238
5.52059
5.51656
5.51172
5.50611
5.49975
5.49268
5.48492
5.47651
5.46746
5.45778
5.4475
5.43662
5.42515
5.41321
5.40106
5.38912
5.37853
5.36818
5.54037
5.54025
5.53962
5.53826
5.53612
5.53319
5.52949
5.52503
5.51985
5.51397
5.50742
5.50024
5.49245
5.48407
5.47511
5.46558
5.45549
5.44485
5.43376
5.42247
5.41138
5.40152
5.39208
5.55232
5.55223
5.55172
5.55054
5.54863
5.54599
5.54264
5.53858
5.53385
5.52847
5.52248
5.51591
5.50877
5.50109
5.49287
5.48413
5.47487
5.46509
5.45489
5.44449
5.43428
5.42523
5.41657
5.56443
5.5644
5.564
5.563
5.56133
5.55899
5.55599
5.55234
5.54808
5.54323
5.53781
5.53186
5.5254
5.51843
5.51098
5.50305
5.49463
5.48574
5.47645
5.46699
5.45768
5.44943
5.44159
5.57668
5.57672
5.57644
5.57562
5.57419
5.57216
5.56952
5.56629
5.56251
5.55819
5.55335
5.54804
5.54225
5.53602
5.52934
5.52222
5.51466
5.50667
5.49832
5.4898
5.48143
5.47403
5.46698
5.58904
5.58916
5.58902
5.58839
5.58721
5.58548
5.58321
5.58041
5.57711
5.57332
5.56906
5.56438
5.55927
5.55376
5.54784
5.54153
5.53483
5.52774
5.52033
5.51278
5.50536
5.49882
5.49266
5.60147
5.6017
5.6017
5.60127
5.60035
5.59894
5.59704
5.59467
5.59183
5.58856
5.58488
5.58081
5.57636
5.57155
5.56638
5.56086
5.55499
5.54879
5.54232
5.53572
5.52926
5.5236
5.51826
5.61394
5.61429
5.61445
5.61424
5.61359
5.6125
5.61098
5.60902
5.60665
5.60388
5.60075
5.59726
5.59344
5.58929
5.58483
5.58007
5.57501
5.56967
5.5641
5.55845
5.55292
5.5481
5.54361
5.6264
5.62689
5.62723
5.62725
5.62689
5.62614
5.62499
5.62344
5.62151
5.61923
5.61661
5.61367
5.61043
5.60691
5.6031
5.59904
5.59474
5.59022
5.58552
5.58077
5.57615
5.57215
5.56843
5.6388
5.63945
5.63999
5.64026
5.64021
5.63981
5.63904
5.63789
5.63639
5.63456
5.63242
5.62999
5.62728
5.62432
5.62111
5.61769
5.61409
5.61033
5.60645
5.60257
5.59881
5.59558
5.59264
5.65108
5.65192
5.65267
5.65322
5.65351
5.65349
5.65311
5.65236
5.65126
5.64986
5.64816
5.64619
5.64397
5.6415
5.63881
5.63595
5.63299
5.62994
5.62684
5.62376
5.6208
5.61832
5.61603
5.66319
5.66422
5.66521
5.66609
5.66679
5.66719
5.66721
5.66685
5.66615
5.66515
5.66387
5.66232
5.66053
5.65848
5.65622
5.65386
5.65148
5.64909
5.64672
5.6444
5.6422
5.64038
5.63871
5.67509
5.67635
5.67767
5.679
5.68019
5.68102
5.68142
5.68143
5.68111
5.6805
5.67962
5.67849
5.67709
5.67539
5.67345
5.67153
5.6697
5.66794
5.66627
5.66469
5.66324
5.6621
5.66104
5.68684
5.68845
5.6904
5.69231
5.69396
5.69514
5.69584
5.69615
5.69616
5.69594
5.69549
5.69485
5.69397
5.6926
5.69088
5.68935
5.68809
5.68695
5.68596
5.68511
5.68441
5.684
5.68389
5.69859
5.70075
5.70408
5.70664
5.70843
5.7097
5.71053
5.71104
5.71133
5.71147
5.71151
5.71151
5.71159
5.71007
5.70839
5.70725
5.70655
5.70598
5.70558
5.70535
5.7053
5.70553
5.70655
5.71589
5.7163
5.71945
5.72109
5.7221
5.72285
5.72337
5.72375
5.72403
5.72426
5.72449
5.72481
5.72555
5.72514
5.72361
5.72308
5.72283
5.7225
5.72236
5.72233
5.72242
5.72267
5.72354
1206.41
1302.47
1388.96
1394.24
1048.25
1041.42
1065.84
1096.5
837.013
800.106
783.747
836.399
691.152
686.152
686.336
694.844
736.437
739.806
749.025
752.584
747.512
748.497
749.249
749.809
746.725
747.809
748.82
749.824
658.134
669.407
679.166
688.71
121.536
129.791
138.091
146.824
5.18222
5.17194
5.15138
5.12518
5.12269
5.10074
5.07726
5.05986
5.14665
5.12351
5.09659
5.07418
5.15615
5.13091
5.10241
5.07982
5.15847
5.13237
5.10347
5.08138
5.16151
5.13539
5.10649
5.08462
5.16682
5.14091
5.11211
5.09042
5.17444
5.14881
5.12018
5.09871
5.18426
5.15897
5.13063
5.10943
5.19621
5.17132
5.14331
5.12242
5.21011
5.1857
5.15815
5.13759
5.22581
5.20195
5.17487
5.15473
5.24312
5.21988
5.19348
5.17381
5.2621
5.23956
5.21384
5.19472
5.2826
5.26088
5.23603
5.21745
5.30441
5.2836
5.25966
5.2418
5.32721
5.30743
5.28453
5.26727
5.35132
5.33249
5.31057
5.29409
5.3763
5.35859
5.33789
5.3222
5.40201
5.3855
5.36602
5.35125
5.42819
5.41293
5.39492
5.38112
5.45486
5.44094
5.42431
5.41157
5.48185
5.46931
5.45424
5.44249
5.50885
5.49772
5.4841
5.47341
5.53545
5.52572
5.51372
5.50409
5.56157
5.55321
5.54267
5.53416
5.58699
5.57996
5.57099
5.56351
5.61154
5.60577
5.59818
5.5918
5.63515
5.63052
5.62441
5.61912
5.65842
5.65488
5.65004
5.64582
5.68243
5.68009
5.67655
5.67309
5.70772
5.70701
5.70462
5.70137
5.72535
5.72565
5.72481
5.72296
1204.96
1170.18
1219.92
1198.48
1148.43
1115.03
1194.13
1125.32
1146.09
1149.17
1149.61
1134.31
927.352
1111.18
1139.26
1134.14
1131.3
1093.11
1058.98
1117.28
1127.88
1207.36
1147.03
1071.31
1131.53
1088.06
1054.62
1133.85
1145.51
1149.55
1154.66
1154.55
1147.81
1101.01
1035.44
1000.38
1047.85
1086.3
929.144
944.805
925.323
969.639
1018.68
929.378
906.748
949.811
916.706
896.546
897.621
940.141
987.159
914.109
843.454
828.841
866.801
912.535
962.143
712.494
699.893
701.737
754.103
769.492
700.814
719.035
719.296
746.556
772.593
773.989
775.285
777.546
779.2
781.631
783.178
793.588
818.146
813.557
753.631
749.267
750.875
754.736
757.799
742.204
695.091
713.247
764.648
772.726
774.366
775.852
777.504
778.814
780.169
780.898
779.969
778.131
776.878
750.746
752.903
754.902
757.054
760.322
764.942
766.543
770.065
772.17
773.489
774.96
776.269
777.533
778.535
779.307
779.512
778.832
777.484
776.974
751.495
754.127
756.663
759.209
762.243
765.864
769.171
771.422
772.921
774.309
775.617
776.723
777.662
778.303
778.617
778.651
779.496
779.599
776.944
704.284
725.398
743.54
758.893
763.613
767.037
770.071
772.402
774.119
775.479
776.706
777.597
778.209
778.448
781.918
799.912
815.568
813.978
793.535
163.623
185.301
212.048
248.55
307.516
371.338
422.779
455.271
473.496
486.259
496.779
505.31
512.025
512.896
494.903
456.572
419.312
403.316
414.343
5.08978
5.07732
5.07382
5.07916
5.07584
5.58015
7.79364
10.9005
13.8722
16.6767
19.4659
21.5029
21.2243
19.5253
33.3004
45.8358
48.3942
42.7434
38.2853
5.04458
5.03425
5.0309
5.18784
5.42254
5.58993
5.5319
5.17875
5.16993
5.24757
5.64992
6.15287
6.56971
7.81946
5.29401
4.98517
4.9896
5.00407
5.18753
5.05233
5.04224
5.03323
5.34409
5.81059
5.79817
5.77718
5.19821
5.06386
5.12843
5.48903
5.76053
5.7534
5.49754
5.01122
4.99949
5.00201
5.00574
5.00853
5.0586
5.04746
5.0358
5.04462
5.01461
5.0367
5.00217
5.00807
4.9903
4.99582
5.13217
5.46973
5.40251
5.13893
4.99508
4.99652
5.0012
5.00568
5.01029
5.06186
5.05061
5.03905
5.02548
5.01213
5.00157
4.99534
4.99237
4.98966
4.98995
4.98487
4.97574
4.97791
4.98484
4.99318
4.99966
5.00545
5.01053
5.014
5.06574
5.05519
5.04453
5.03247
5.02095
5.01159
5.00466
5.00015
4.99651
4.99295
4.98887
4.987
4.98916
4.99443
5.0014
5.00779
5.01362
5.01823
5.02071
5.07189
5.06241
5.05249
5.04153
5.03119
5.02244
5.01554
5.01047
5.0065
5.00328
5.00101
5.00045
5.00257
5.0069
5.01259
5.01839
5.02371
5.02773
5.02938
5.08061
5.07191
5.06262
5.05243
5.04286
5.03461
5.02791
5.02277
5.01889
5.01614
5.0146
5.01465
5.01667
5.02039
5.02521
5.03034
5.03512
5.03858
5.03955
5.09174
5.08365
5.07486
5.06523
5.05618
5.0483
5.04182
5.03677
5.03301
5.03051
5.02932
5.02961
5.03149
5.03476
5.03898
5.04355
5.04779
5.05072
5.05129
5.10518
5.09754
5.08918
5.07998
5.07133
5.06373
5.05743
5.05246
5.04879
5.04639
5.0453
5.04559
5.04727
5.05014
5.05383
5.05787
5.0616
5.06414
5.06457
5.12073
5.1135
5.1055
5.09663
5.08827
5.08089
5.07471
5.06979
5.06613
5.06373
5.06259
5.06274
5.06413
5.06658
5.0698
5.07334
5.07663
5.07887
5.07936
5.13833
5.13142
5.12373
5.11512
5.10698
5.09975
5.09363
5.08871
5.085
5.08249
5.08121
5.08113
5.08218
5.08422
5.08699
5.0901
5.09304
5.09512
5.09575
5.15785
5.15123
5.14379
5.1354
5.12741
5.12027
5.11417
5.1092
5.10538
5.10272
5.10121
5.10085
5.10155
5.10319
5.10554
5.10829
5.11097
5.11298
5.11378
5.17926
5.17283
5.1656
5.15739
5.14952
5.14242
5.13631
5.13125
5.12729
5.12443
5.12267
5.12199
5.12234
5.1236
5.12558
5.128
5.13048
5.13248
5.13339
5.20239
5.19607
5.18906
5.181
5.17323
5.16616
5.16001
5.15485
5.15071
5.14763
5.1456
5.14461
5.14461
5.1455
5.14714
5.14928
5.15158
5.15356
5.15456
5.2272
5.2208
5.21406
5.20617
5.19847
5.19142
5.18521
5.17994
5.17563
5.17232
5.17001
5.1687
5.16836
5.1689
5.17021
5.17208
5.17421
5.17617
5.1772
5.25321
5.24725
5.24058
5.2328
5.22518
5.21814
5.21188
5.20648
5.20199
5.19844
5.19586
5.19423
5.19355
5.19376
5.19475
5.19635
5.1983
5.20018
5.20122
5.28067
5.27501
5.26845
5.26081
5.25328
5.24626
5.23994
5.23443
5.22976
5.22597
5.2231
5.22116
5.22014
5.22001
5.22067
5.22198
5.22372
5.22552
5.22653
5.30935
5.30393
5.29753
5.29004
5.28262
5.27563
5.26929
5.26367
5.25883
5.25482
5.25167
5.24942
5.24805
5.24756
5.24788
5.24888
5.25038
5.25203
5.253
5.33911
5.33387
5.32765
5.32034
5.31304
5.30612
5.29975
5.29405
5.28906
5.28484
5.28142
5.27885
5.27713
5.27627
5.27622
5.27688
5.27811
5.27958
5.28046
5.36967
5.36464
5.35861
5.3515
5.34436
5.33752
5.33117
5.32541
5.32028
5.31586
5.31218
5.30929
5.30721
5.30596
5.30552
5.30581
5.30672
5.30793
5.30874
5.4009
5.39601
5.39019
5.3833
5.37634
5.36963
5.36333
5.35754
5.35231
5.3477
5.34376
5.34055
5.3381
5.33644
5.33558
5.33547
5.33603
5.33694
5.3377
5.43246
5.42774
5.42212
5.4155
5.40877
5.40223
5.39602
5.39024
5.38494
5.38017
5.37598
5.37244
5.36961
5.36752
5.36622
5.36569
5.36587
5.36648
5.36716
5.46413
5.45953
5.45416
5.44784
5.4414
5.43508
5.42903
5.42332
5.41798
5.41308
5.40867
5.40481
5.40156
5.39902
5.39725
5.39627
5.39606
5.39641
5.397
5.49551
5.49112
5.48602
5.48008
5.47399
5.46797
5.46215
5.45657
5.45127
5.44629
5.44167
5.43749
5.43383
5.4308
5.42852
5.42708
5.42648
5.4266
5.42711
5.52641
5.52222
5.51747
5.51196
5.50632
5.5007
5.4952
5.48986
5.48468
5.47968
5.4749
5.47041
5.46631
5.46276
5.45993
5.45799
5.45702
5.45694
5.4574
5.5565
5.55262
5.54827
5.5433
5.5382
5.5331
5.52806
5.52307
5.51812
5.5132
5.50833
5.50356
5.49903
5.4949
5.49147
5.489
5.48766
5.4874
5.48787
5.5857
5.58216
5.57829
5.57394
5.56952
5.56508
5.56064
5.55616
5.55159
5.54688
5.54203
5.53706
5.5321
5.52737
5.52326
5.52018
5.51846
5.51806
5.51856
5.61393
5.61083
5.6075
5.60386
5.60023
5.59662
5.59299
5.5892
5.58517
5.58085
5.57619
5.57116
5.56584
5.56049
5.5556
5.55182
5.54962
5.54905
5.54961
5.64159
5.63882
5.63601
5.6331
5.63041
5.62784
5.62522
5.6223
5.61901
5.61529
5.61107
5.60623
5.60079
5.59489
5.58914
5.58448
5.58161
5.58067
5.58113
5.66922
5.66651
5.66411
5.66187
5.66016
5.65892
5.65751
5.65563
5.65326
5.65044
5.64703
5.64287
5.63786
5.63181
5.62494
5.61932
5.61536
5.61328
5.61318
5.69627
5.69317
5.69116
5.68933
5.68838
5.68968
5.68976
5.68901
5.68775
5.68612
5.68405
5.68133
5.67762
5.67234
5.66359
5.65728
5.652
5.64732
5.64563
5.71932
5.71748
5.71643
5.71526
5.71462
5.7163
5.71697
5.71699
5.7167
5.71629
5.71573
5.71493
5.71362
5.71147
5.70642
5.70266
5.69919
5.69328
5.69181
)
;

boundaryField
{
    leftWall
    {
        type            fixedFluxPressure;
        gradient        uniform 0;
        value           nonuniform List<scalar> 
50
(
5995.65
5999.56
6002.72
6004.2
6003.16
5997.43
3553.93
1227.23
1223.58
1221.91
1203.98
1125.31
825.31
716.295
749.96
725.031
210.386
5.35436
5.37777
5.38433
5.39478
5.40451
5.41209
5.41881
5.42677
5.43457
5.4438
5.45334
5.46318
5.47338
5.48383
5.49464
5.50573
5.51706
5.52862
5.54037
5.55232
5.56443
5.57668
5.58904
5.60147
5.61394
5.6264
5.6388
5.65108
5.66319
5.67509
5.68684
5.69859
5.71589
)
;
    }
    rightWall
    {
        type            fixedFluxPressure;
        gradient        uniform 0;
        value           nonuniform List<scalar> 
50
(
2674.4
2674.38
2281.45
1631.7
1009.47
1029.89
1052.64
1050.37
1058.98
1086.3
962.143
813.557
776.878
776.974
776.944
793.535
414.343
38.2853
5.18753
5.00853
5.01029
5.014
5.02071
5.02938
5.03955
5.05129
5.06457
5.07936
5.09575
5.11378
5.13339
5.15456
5.1772
5.20122
5.22653
5.253
5.28046
5.30874
5.3377
5.36716
5.397
5.42711
5.4574
5.48787
5.51856
5.54961
5.58113
5.61318
5.64563
5.69181
)
;
    }
    lowerWall
    {
        type            fixedFluxPressure;
        gradient        uniform 0;
        value           nonuniform List<scalar> 
62
(
5995.65
5976.46
5959.61
5946.33
5937.13
5931.95
5930.08
5930.52
5932.16
5933.92
5934.74
5933.38
5929.17
5921.61
5910.66
5896.7
5880.36
5862.27
5842.76
5821.77
5799.78
5778.47
5757.75
5757.75
5752.4
5746.04
5738.06
5728.73
5569.99
2515.61
1121.86
1206.41
1302.47
1388.96
1394.24
3275.03
3275.39
2855.34
2552.06
1366.23
1386.33
1395.46
1277.55
3275.03
3253.03
3184.35
3079.32
2922.81
2783.96
2731.74
2698.77
2688.5
2685.97
2644.2
2623.32
2665.46
2696
2693.27
2689.59
2682.07
2676.69
2674.4
)
;
    }
    atmosphere
    {
        type            prghTotalPressure;
        rho             rho;
        psi             none;
        gamma           1;
        p0              uniform 0;
        value           nonuniform List<scalar> 
46
(
5.72904
5.72904
5.72904
5.72904
5.72904
5.72904
5.72904
5.72904
5.72904
5.72904
5.72904
5.72904
5.72904
5.72904
5.72904
5.72904
5.72904
5.72904
5.72904
5.72904
5.72904
5.72904
5.72904
5.72904
5.72904
5.72904
5.72904
5.72904
5.72904
5.72904
5.72904
5.72904
5.72904
5.72904
5.72904
5.72904
5.72904
5.72904
5.72904
5.72904
5.72904
5.72904
5.72904
5.72904
5.72898
5.72894
)
;
        rho             rho;
    }
    defaultFaces
    {
        type            empty;
    }
}


// ************************************************************************* //
