/*--------------------------------*- C++ -*----------------------------------*\
  =========                 |
  \\      /  F ield         | OpenFOAM: The Open Source CFD Toolbox
   \\    /   O peration     | Website:  https://openfoam.org
    \\  /    A nd           | Version:  13
     \\/     M anipulation  |
\*---------------------------------------------------------------------------*/
FoamFile
{
    format      ascii;
    class       volScalarField;
    location    "2.9";
    object      rho;
}
// * * * * * * * * * * * * * * * * * * * * * * * * * * * * * * * * * * * * * //

dimensions      [1 -3 0 0 0 0 0];

internalField   nonuniform List<scalar> 
2268
(
13529
13529
13529
13529
13529
13529
13529
13529
13529
13529
13529
13529
13529
13529
13529
13529
13529
13529
13529
13525.1
13521.9
13521.9
13522.4
13529
13529
13529
13529
13529
13529
13529
13529
13529
13529
13529
13529
13529
13529
13529
13529
13529
13529
13529
13528.8
13528.5
13528.4
13529
13529
13529
13529
13529
13529
13529
13529
13529
13529
13529
13529
13529
13529
13529
13529
13529
13529
13529
13529
13529
13529
13529
13529
13529
13529
13529
13529
13529
13529
13529
13529
13529
13529
13529
13529
13529
13529
13529
13529
13529
13529
13529
13529
13529
13529
13529
13529
13529
13529
13529
13529
13529
13529
13529
13529
13529
13529
13529
13529
13529
13529
13529
13529
13529
13529
13529
13529
13529
13528.9
13529
13529
13457.1
13436.2
13453.1
13520.7
13529
13529
13529
13529
13512.2
13493.9
13499.4
13498.1
13488.3
13468.8
13437.9
13394.9
13341.2
13283.7
13218.5
13124.9
13018.7
6637.74
5784.74
5487.49
5452.38
5508.4
5612.1
5848.64
6142.76
6444.6
6723.05
6996.61
7183.97
7219.99
7131.33
6925.8
6638.26
6296.35
5939.54
5605.32
5311.6
5045.31
4723.06
4379.16
1000
1000
1000
1000
1000
999.999
1000
1000
1002.38
1007.45
1000
1000
1000
1000
1000
1000
1000
1000
999.998
999.973
999.809
998.435
996.324
11943.2
11952.1
11945.6
11934.9
10621.9
9029.04
9029.79
9197.99
9501.42
9555.73
8953.64
8926.02
9621.05
10338.7
10345.6
10361.5
10321
10301.7
10306.2
11924.4
11942.9
11948.3
11741.3
11402
11283.2
11253.9
11269
11225.8
11185.2
10397.4
9318.95
10289.8
10266.3
10278.3
10284.5
10301.8
10302.1
10306.2
8316.51
8698.44
8373.58
7442.18
7107.53
7626.83
7211.28
6844.45
6252.19
7277.76
7717.75
8076.23
7193.77
7676.07
8152.28
8388.42
8073.26
7576.46
6975.79
6562.57
5789.47
4501.41
2994.98
2381.83
1823.21
1445.82
1323.13
1927.1
1422.13
2423.91
3407.31
3475.71
2781.12
2056.21
1467.54
1763.87
2302.02
3301.42
1513.09
1835.51
2057.93
2340.92
1583.14
1029.05
1015.09
995.659
1171.47
1140.91
835.149
645.347
1496.57
974.33
694.596
875.4
892.32
969.511
662.265
1578.13
1852.66
1852.68
1949.9
1999.9
1386.84
1459.35
1537.89
1545.72
1233.75
1011.44
876.349
445.989
643.548
985.156
999.966
999.926
999.969
742.371
1598.11
1428
1408.03
1527.3
1919.8
1715.91
1547.56
1734.12
1428.42
1118.59
1006.26
1002.78
440.507
718.764
999.892
999.998
999.924
1000.03
817.604
1304.23
1252.72
1280.09
1141.95
1087.4
1601.55
1579.94
1413.16
1010.35
1004.94
1006.21
975.214
440.862
720.446
992.655
1000
999.477
1000.59
819.608
1000
1000
1000
1000
999.969
999.998
1000
1000
1000
1000
1000
1000
1000
1000
1000
1000
1000
1000
1000
1000
1000
999.83
996.948
1000
1000
999.094
999.526
999.973
1000
1000
1000
1000
1000
1000
1000
1000
1000
1000
1000
1000
1000
998.847
993.063
983.24
973.792
952.323
976.465
986.956
998.17
999.658
999.968
1000
1000
1000
1000
999.882
999.464
998.69
994.874
984.625
969.129
949.345
927.116
905.207
856.657
792.869
727.163
669.733
623.414
882.954
874.024
869.554
858.573
864.097
898.153
910.999
875.763
869.489
865.949
852.421
829.253
793.2
728.827
678.38
645.029
598.321
525.748
477.536
459.192
462.482
481.267
474.773
573.402
536.669
524.021
519.889
520.503
519.129
480.499
489.781
478.267
463.26
446.302
427.559
428.821
467.453
470.248
450.674
446.915
482.743
499.915
500
500
500.002
493.427
473.177
497.957
499.969
500.067
495.84
475.319
479.91
494.749
497.093
493.5
493.753
497.952
499.999
500
500
500
500
500
500
500
499.872
499.77
500.098
499.811
500.227
500.053
500.015
499.98
499.667
499.999
500
500
500
500
500
500
500
500
500
500
500
500
500
500.002
500.004
500.005
480.117
479.785
477.434
471.887
463.218
452.398
442.444
433.624
424.174
414
403.119
391.768
380.65
370.258
362.408
357.688
354.898
352.853
354.769
364.678
381.965
403.236
424.007
129.372
136.063
132.203
118.895
104.854
92.4913
78.6486
63.6246
51.0141
41.5287
33.9642
27.6772
22.5122
18.497
16.0499
15.3764
16.5762
19.6853
24.9283
32.1065
41.3854
53.1685
66.431
1.00034
1.00043
1.00409
1.00197
1.00015
1.00007
1.00008
1.00006
1.00006
1.00004
1.00002
1.00002
1.00001
1
1
1
1
1.00018
1.00038
1.00061
1.00079
1.0005
1.00073
1.00091
1.00058
1.00063
1.00065
1.00018
1.00019
1.00004
1.00089
1.00034
1.00034
1.0001
1.00007
1.00006
1.00006
1.00006
1.00005
1.00004
1.00003
1.00003
1.00004
1.00005
1.00009
1.00008
1.00103
1.00188
1.00318
1.00059
1.00016
1.00131
1.01997
1.05651
1.02526
1.00187
1.00057
1.00044
1.00034
1.0003
1.00023
1.00015
1.00011
1.00009
1.00007
1.00005
1.00006
1.00007
1.00009
1.00162
1.00692
1.01382
1.00368
1.0001
1.01125
1.08271
1.08435
1.07948
1.00589
1.00128
1.00099
1.00063
1.00048
1.00029
1.00019
1.00014
1.0001
1.00007
1.00005
1.00006
1.00006
1.00008
1.00228
1.01855
1.0289
1.01846
1.0001
1.02082
1.08222
1.08389
1.08447
1.02652
1.00332
1.00279
1.00134
1.0008
1.00026
1.00017
1.00015
1.00011
1.00007
1.00005
1.00005
1.00004
1.00005
1.00192
1.02107
1.02883
1.0227
1.00009
1.00009
1.03138
1.08196
1.06512
1.00543
1.00332
1.0033
1.00318
1.00141
1.00009
1.00012
1.00013
1.00011
1.00008
1.00006
1.00005
1.00003
1.00003
1.00124
1.01137
1.02513
1.00781
1.00009
1.00009
1.00006
1.00139
1.00167
1.00095
1.002
1.00327
1.00278
1.00057
1.00003
1.00007
1.0001
1.00009
1.00008
1.00006
1.00005
1.00003
1.00002
1.00096
1.00175
1.0027
1.00039
1.00012
1.00005
1.00006
1.00005
1.00006
1.00007
1.00038
1.00098
1.00081
1.00011
1.00006
1.00009
1.00009
1.00006
1.00005
1.00005
1.00004
1.00003
1.00002
1.00046
1.00044
1.00014
1.00011
1.00006
1.00005
1.00006
1.00005
1.00006
1.00014
1.00037
1.0004
1.00031
1.00005
1.00005
1.00006
1.00005
1.00004
1.00003
1.00003
1.00002
1.00002
1.00001
1.00037
1.00022
1.00011
1.00005
1.00005
1.00005
1.00005
1.00004
1.00003
1.00006
1.0002
1.00036
1.00026
1.00007
1.00003
1.00003
1.00003
1.00002
1.00002
1.00002
1.00001
1.00001
1.00001
1.00028
1.00023
1.00012
1.00005
1.00004
1.00004
1.00004
1.00003
1.00002
1.00004
1.00008
1.00017
1.00014
1.00004
1.00002
1.00002
1.00002
1.00001
1.00001
1.00001
1.00001
1.00001
1.00001
1.0002
1.0002
1.00012
1.00005
1.00004
1.00003
1.00003
1.00002
1.00002
1.00002
1.00003
1.00004
1.00003
1.00002
1.00001
1.00001
1.00001
1.00001
1.00001
1.00001
1
1
1
1.00014
1.00016
1.00009
1.00005
1.00003
1.00003
1.00002
1.00002
1.00001
1.00001
1.00002
1.00002
1.00001
1.00001
1.00001
1.00001
1.00001
1.00001
1
1
1
1
1
1.00009
1.00011
1.00007
1.00004
1.00003
1.00002
1.00002
1.00001
1.00001
1.00001
1.00001
1.00001
1.00001
1
1
1
1
1
1
1
1
1
1
1.00006
1.00007
1.00005
1.00004
1.00003
1.00002
1.00001
1.00001
1.00001
1.00001
1
1
1
1
1
1
1
1
1
1
1
1
1
1.00005
1.00005
1.00004
1.00003
1.00002
1.00002
1.00001
1.00001
1.00001
1
1
1
1
1
1
1
1
1
1
1
1
1
1
1.00004
1.00004
1.00003
1.00002
1.00002
1.00001
1.00001
1.00001
1
1
1
1
1
1
1
1
1
1
1
1
1
1
1
1.00003
1.00003
1.00003
1.00002
1.00001
1.00001
1.00001
1
1
1
1
1
1
1
1
1
1
1
1
1
1
1
1
1.00003
1.00002
1.00002
1.00001
1.00001
1.00001
1
1
1
1
1
1
1
1
1
1
1
1
1
1
1
1
1
1.00002
1.00002
1.00001
1.00001
1.00001
1
1
1
1
1
1
1
1
1
1
1
1
1
1
1
1
1
1
1.00002
1.00001
1.00001
1.00001
1
1
1
1
1
1
1
1
1
1
1
1
1
1
1
1
1
1
1
1.00002
1.00001
1.00001
1
1
1
1
1
1
1
1
1
1
1
1
1
1
1
1
1
1
1
1
1.00001
1.00001
1
1
1
1
1
1
1
1
1
1
1
1
1
1
1
1
1
1
1
1
1
1.00001
1.00001
1
1
1
1
1
1
1
1
1
1
1
1
1
1
1
1
1
1
1
1
1
1.00001
1
1
1
1
1
1
1
1
1
1
1
1
1
1
1
1
1
1
1
1
1
1
1
1
1
1
1
1
1
1
1
1
1
1
1
1
1
1
1
1
1
1
1
1
1
1
1
1
1
1
1
1
1
1
1
1
1
1
1
1
1
1
1
1
1
1
1
1
1
1
1
1
1
1
1
1
1
1
1
1
1
1
1
1
1
1
1
1
1
1
1
1
1
1
1
1
1
1
1
1
1
1
1
1
1
1
1
1
1
1
1
1
1
1
1
1
1
1
1
1
1
1
1
1
1
1
1
1
1
1
1
1
1
1
1
1
1
1
1
1
1
1
1
1
1
1
1
1
1
1
1
1
1
1
1
1
1
1
1
1
1
1
1
1
1
1
1
1
1
1
1
1
1
1
1
1
1
1
1
1
1
1
1
1
1
1
1
1
1
1
1
1
1
1
1
1
1
1
1
1
1
1
1
1
1
1
1141.15
1317.64
1475.35
1483.24
893.507
886.228
926.248
970.629
606.979
559.372
538.725
606.51
438.663
431.728
431.603
442.022
488.28
490.335
498.704
502.226
500.133
500.089
500.071
500.038
500.011
500.008
500.005
500.007
435.12
442.223
448.545
454.912
73.4271
78.5933
83.7983
89.2759
1.00038
1.00061
1.00081
1.0006
1.00015
1.00013
1.00014
1.00019
1.00011
1.00012
1.00013
1.00015
1.00009
1.0001
1.0001
1.00011
1.00006
1.00007
1.00007
1.00007
1.00004
1.00003
1.00004
1.00004
1.00002
1.00002
1.00002
1.00003
1.00002
1.00001
1.00001
1.00001
1.00001
1.00001
1.00001
1.00001
1.00001
1.00001
1.00001
1.00001
1
1
1
1
1
1
1
1
1
1
1
1
1
1
1
1
1
1
1
1
1
1
1
1
1
1
1
1
1
1
1
1
1
1
1
1
1
1
1
1
1
1
1
1
1
1
1
1
1
1
1
1
1
1
1
1
1
1
1
1
1
1
1
1
1
1
1
1
1
1
1
1
1
1
1
1
1
1
1
1
1
1
1
1
1
1
1
1
1
1
1
1
1137.32
1064
1149.09
1105.41
1014.77
953.465
1103.78
973.631
999.79
999.772
1000.57
971.044
560.954
924.541
999.898
999.944
996.592
923.976
845.413
989.644
995.521
1113.47
1012.77
890.524
983.851
920.714
861.634
978.176
992.953
996.022
995.77
975.66
985.994
929.388
832.823
775.014
839.993
890.809
723.637
739.719
713.926
761.65
816.52
704.331
672.12
721.216
676.609
647.354
645.762
696.076
750.234
660.426
571.288
549.909
594.512
651.203
714.916
463.402
448.198
448.166
503.019
516.34
436.388
453.401
450.428
475.885
500.807
500.004
499.993
500.244
500.049
500.333
500.376
512.219
541.27
538.121
503.618
497.817
497.816
500.15
499.935
479.792
430.88
445.984
494.017
500.132
500.033
500.01
500.001
500.002
500.068
500.199
500.206
500.451
500.139
500.008
500.006
500.007
499.979
499.992
499.983
497.689
498.897
500
500
500.005
500.003
500.001
500.002
499.995
499.975
499.986
500.019
500.106
500.004
500.002
500.003
500.004
500.008
500.008
500.003
500
500
500
500
500
500.024
500.044
500.017
500.013
501.047
501.888
500.215
465.383
478.76
489.897
498.913
500.003
500.003
500.001
500.001
500
500
500
500
500.007
500.023
502.72
516.158
528.057
527.445
512.894
99.8188
113.334
130.079
152.999
190.177
230.475
262.915
283.232
294.444
302.2
308.641
313.9
318.094
318.635
306.992
282.413
258.711
248.626
255.657
1.00068
1.00059
1.00087
1.00107
1.00139
1.30804
2.62007
4.45185
6.18343
7.80597
9.4115
10.5786
10.4016
9.36881
17.4602
24.7795
26.2481
22.9247
20.3052
1.00023
1.00033
1.00069
1.08612
1.21301
1.3058
1.27898
1.09464
1.09784
1.1408
1.35486
1.62194
1.8451
2.53685
1.16018
1.00005
1.00005
1.00001
1.0984
1.00018
1.00033
1.00026
1.16729
1.41469
1.4132
1.40668
1.10786
1.03981
1.07361
1.2595
1.3961
1.39203
1.26308
1.00713
1.00051
1.00014
1.00007
1.00022
1.00012
1.0002
1.00023
1.01234
1.00575
1.02199
1.00845
1.01143
1.0032
1.00702
1.07564
1.24101
1.20719
1.0765
1.00171
1.00034
1.00021
1.00017
1.00076
1.00007
1.00007
1.00008
1.00015
1.00009
1.00009
1.00043
1.00072
1.00083
1.00274
1.00279
1.00037
1.00017
1.0001
1.00039
1.00036
1.00034
1.00026
1.00016
1.00005
1.00005
1.00006
1.00008
1.00009
1.0001
1.00014
1.00023
1.00037
1.0005
1.00026
1.00012
1.0001
1.00011
1.00021
1.00028
1.0003
1.00024
1.00019
1.00003
1.00004
1.00006
1.00008
1.00011
1.00012
1.00012
1.00014
1.00016
1.00017
1.00017
1.00013
1.00011
1.0001
1.00014
1.00018
1.00019
1.00018
1.00019
1.00002
1.00002
1.00003
1.00005
1.00007
1.00009
1.00009
1.0001
1.0001
1.00011
1.00012
1.00011
1.00009
1.00007
1.00007
1.00008
1.00008
1.00008
1.00008
1.00001
1.00001
1.00001
1.00001
1.00002
1.00003
1.00003
1.00004
1.00004
1.00005
1.00005
1.00005
1.00004
1.00003
1.00003
1.00003
1.00003
1.00002
1.00002
1.00001
1.00001
1.00001
1.00001
1.00001
1.00001
1.00001
1.00001
1.00001
1.00002
1.00002
1.00002
1.00002
1.00002
1.00001
1.00001
1.00001
1.00001
1.00001
1
1
1
1
1
1
1.00001
1.00001
1.00001
1.00001
1.00001
1.00001
1.00001
1.00001
1.00001
1.00001
1.00001
1.00001
1.00001
1
1
1
1
1
1
1
1
1
1
1
1
1
1
1
1.00001
1.00001
1.00001
1.00002
1
1
1
1
1
1
1
1
1
1
1
1
1
1
1
1.00001
1.00001
1.00002
1.00004
1
1
1
1
1
1
1
1
1
1
1
1
1
1
1
1.00001
1.00001
1.00003
1.00004
1
1
1
1
1
1
1
1
1
1
1
1
1
1
1
1.00001
1.00002
1.00004
1.00004
1
1
1
1
1
1
1
1
1
1
1
1
1
1
1
1.00001
1.00002
1.00004
1.00004
1
1
1
1
1
1
1
1
1
1
1
1
1
1
1
1.00001
1.00002
1.00005
1.00002
1
1
1
1
1
1
1
1
1
1
1
1
1
1
1
1
1.00002
1.00005
1.00002
1
1
1
1
1
1
1
1
1
1
1
1
1
1
1
1
1.00002
1.00005
1.00002
1
1
1
1
1
1
1
1
1
1
1
1
1
1
1
1
1.00002
1.00005
1.00001
1
1
1
1
1
1
1
1
1
1
1
1
1
1
1
1
1.00002
1.00004
1.00001
1
1
1
1
1
1
1
1
1
1
1
1
1
1
1
1
1.00002
1.00002
1
1
1
1
1
1
1
1
1
1
1
1
1
1
1
1
1.00001
1.00001
1.00001
1
1
1
1
1
1
1
1
1
1
1
1
1
1
1
1
1.00001
1.00001
1
1
1
1
1
1
1
1
1
1
1
1
1
1
1
1
1
1
1.00001
1
1
1
1
1
1
1
1
1
1
1
1
1
1
1
1
1
1
1
1
1
1
1
1
1
1
1
1
1
1
1
1
1
1
1
1
1
1
1
1
1
1
1
1
1
1
1
1
1
1
1
1
1
1
1
1
1
1
1
1
1
1
1
1
1
1
1
1
1
1
1
1
1
1
1
1
1
1
1
1
1
1
1
1
1
1
1
1
1
1
1
1
1
1
1
1
1
1
1
1
1
1
1
1
1
1
1
1
1
1
1
1
1
1
1
1
1
1
1
1
1
1
1
1
1
1
1
1
1
1
1
1
1
1
1
1
1
1
1
1
1
1
1
1
1
1
1
1
1
1
1
1
1
1
)
;

boundaryField
{
    leftWall
    {
        type            calculated;
        value           nonuniform List<scalar> 
50
(
13529
13529
13529
13529
13529
13529
6637.74
1000
1000
1000
976.465
882.954
573.402
473.177
499.811
480.117
129.372
1.00034
1.00091
1.00103
1.00162
1.00228
1.00192
1.00124
1.00096
1.00046
1.00037
1.00028
1.0002
1.00014
1.00009
1.00006
1.00005
1.00004
1.00003
1.00003
1.00002
1.00002
1.00002
1.00001
1.00001
1.00001
1
1
1
1
1
1
1
1
)
;
    }
    rightWall
    {
        type            calculated;
        value           nonuniform List<scalar> 
50
(
10306.2
10306.2
6975.79
3301.42
662.265
742.371
817.604
819.608
845.413
890.809
714.916
538.121
500.139
500.106
500.215
512.894
255.657
20.3052
1.0984
1.00022
1.00076
1.00016
1.00019
1.00019
1.00008
1.00002
1.00001
1.00001
1.00002
1.00004
1.00004
1.00004
1.00004
1.00002
1.00002
1.00002
1.00001
1.00001
1
1
1
1
1
1
1
1
1
1
1
1
)
;
    }
    lowerWall
    {
        type            calculated;
        value           nonuniform List<scalar> 
62
(
13529
13529
13529
13529
13529
13529
13529
13529
13529
13529
13529
13529
13529
13529
13529
13529
13529
13529
13529
13525.1
13521.9
13521.9
13522.4
13522.4
13529
13529
13529
13528.9
13018.7
4379.16
996.324
1141.15
1317.64
1475.35
1483.24
11943.2
11924.4
8316.51
6562.57
1513.09
1578.13
1598.11
1304.23
11943.2
11952.1
11945.6
11934.9
10621.9
9029.04
9029.79
9197.99
9501.42
9555.73
8953.64
8926.02
9621.05
10338.7
10345.6
10361.5
10321
10301.7
10306.2
)
;
    }
    atmosphere
    {
        type            calculated;
        value           nonuniform List<scalar> 
46
(
1
1
0.999999
0.999999
0.999999
1
1
1
1
1
1
1
1
1
1
1
1
1
1
1
1
1
1
1
1
1
1
1
1
1
1
1
1
1
1
1
1
1
1
1
1
1
1
1
1
1
)
;
    }
    defaultFaces
    {
        type            empty;
    }
}


// ************************************************************************* //
