/*--------------------------------*- C++ -*----------------------------------*\
  =========                 |
  \\      /  F ield         | OpenFOAM: The Open Source CFD Toolbox
   \\    /   O peration     | Website:  https://openfoam.org
    \\  /    A nd           | Version:  13
     \\/     M anipulation  |
\*---------------------------------------------------------------------------*/
FoamFile
{
    format      ascii;
    class       volVectorField;
    location    "2.9";
    object      U;
}
// * * * * * * * * * * * * * * * * * * * * * * * * * * * * * * * * * * * * * //

dimensions      [0 1 -1 0 0 0 0];

internalField   nonuniform List<vector> 
2268
(
(-0.00731751 0.00358704 0)
(-0.018575 0.00486883 0)
(-0.0352396 0.00545387 0)
(-0.0519996 0.00519433 0)
(-0.067105 0.00465612 0)
(-0.0800435 0.00391728 0)
(-0.0904028 0.00307826 0)
(-0.0980827 0.00223559 0)
(-0.103164 0.00142703 0)
(-0.105815 0.000663743 0)
(-0.106212 -6.25276e-05 0)
(-0.104469 -0.00073505 0)
(-0.100718 -0.00138771 0)
(-0.0951544 -0.00200229 0)
(-0.0880075 -0.00257539 0)
(-0.0794725 -0.00312723 0)
(-0.0696892 -0.00366862 0)
(-0.0587606 -0.00420706 0)
(-0.0468003 -0.00472077 0)
(-0.0340967 -0.00508564 0)
(-0.0213011 -0.00498973 0)
(-0.00981947 -0.00363495 0)
(-0.00548665 -0.00302817 0)
(-0.00825845 0.00862575 0)
(-0.0214949 0.0113995 0)
(-0.0376711 0.012366 0)
(-0.053742 0.0116059 0)
(-0.0680607 0.010225 0)
(-0.080253 0.0084835 0)
(-0.0899542 0.00656247 0)
(-0.0970333 0.00462033 0)
(-0.101536 0.00276315 0)
(-0.103615 0.00103603 0)
(-0.103418 -0.000590753 0)
(-0.101056 -0.00212405 0)
(-0.0966958 -0.0035458 0)
(-0.0905819 -0.00479833 0)
(-0.0830237 -0.00587242 0)
(-0.0743052 -0.00680347 0)
(-0.0646675 -0.00762213 0)
(-0.0543223 -0.00834839 0)
(-0.0434887 -0.00893706 0)
(-0.032477 -0.00919242 0)
(-0.0217115 -0.00867554 0)
(-0.0120226 -0.00658173 0)
(-0.0059045 -0.00433351 0)
(-0.00967141 0.0155492 0)
(-0.0244016 0.0185237 0)
(-0.039768 0.0193739 0)
(-0.0547619 0.0180902 0)
(-0.0680195 0.0158792 0)
(-0.0792705 0.0131268 0)
(-0.0881824 0.0100617 0)
(-0.0946061 0.00697404 0)
(-0.0985514 0.00403469 0)
(-0.100146 0.00129563 0)
(-0.0995049 -0.00129489 0)
(-0.0967351 -0.00372999 0)
(-0.0920344 -0.00593977 0)
(-0.0856952 -0.0078422 0)
(-0.078066 -0.00942291 0)
(-0.0694688 -0.0107328 0)
(-0.0601928 -0.0118156 0)
(-0.0505074 -0.012698 0)
(-0.0406807 -0.0133222 0)
(-0.0310097 -0.0134674 0)
(-0.0217532 -0.0126809 0)
(-0.0133064 -0.0104294 0)
(-0.00636249 -0.00865733 0)
(-0.0107707 0.0238233 0)
(-0.0267782 0.0263215 0)
(-0.0414144 0.0266028 0)
(-0.0553023 0.0246804 0)
(-0.0674714 0.021624 0)
(-0.0777849 0.0178328 0)
(-0.0859208 0.0136656 0)
(-0.0917039 0.00940257 0)
(-0.095143 0.00529781 0)
(-0.0963291 0.00144179 0)
(-0.0953358 -0.00221619 0)
(-0.0922716 -0.00564169 0)
(-0.0873682 -0.00871574 0)
(-0.0809507 -0.0113119 0)
(-0.0733851 -0.0134163 0)
(-0.0650068 -0.0150932 0)
(-0.0561266 -0.0163959 0)
(-0.0470442 -0.0173582 0)
(-0.0380488 -0.0179244 0)
(-0.0294099 -0.0178875 0)
(-0.0212665 -0.0168705 0)
(-0.0137102 -0.0146929 0)
(-0.00607359 -0.013281 0)
(-0.0117183 0.0323245 0)
(-0.0284825 0.0342286 0)
(-0.0423843 0.0334974 0)
(-0.0551684 0.030849 0)
(-0.0662778 0.0269857 0)
(-0.0756452 0.0222788 0)
(-0.0830555 0.0170244 0)
(-0.0883435 0.0116297 0)
(-0.0913841 0.00638826 0)
(-0.0922451 0.00141999 0)
(-0.0909944 -0.00331665 0)
(-0.0877492 -0.00771697 0)
(-0.0827598 -0.0116127 0)
(-0.0763743 -0.0148538 0)
(-0.0689597 -0.0174204 0)
(-0.0608432 -0.0193955 0)
(-0.0523412 -0.0208363 0)
(-0.0437678 -0.0217836 0)
(-0.0354212 -0.0221948 0)
(-0.0275486 -0.0219082 0)
(-0.0202341 -0.0206862 0)
(-0.013383 -0.018789 0)
(-0.00573103 -0.0180743 0)
(-0.0139988 0.0392165 0)
(-0.029055 0.0400228 0)
(-0.042369 0.0382119 0)
(-0.0540163 0.0349734 0)
(-0.0640566 0.0305677 0)
(-0.0726033 0.0252315 0)
(-0.0794158 0.0192335 0)
(-0.0842206 0.0130529 0)
(-0.0869627 0.0070259 0)
(-0.0876357 0.00127672 0)
(-0.0862616 -0.00423547 0)
(-0.0829688 -0.00933763 0)
(-0.0780558 -0.0138066 0)
(-0.0718648 -0.017491 0)
(-0.0647237 -0.0203658 0)
(-0.0569429 -0.0225232 0)
(-0.0488288 -0.0240194 0)
(-0.0407005 -0.0249003 0)
(-0.0328687 -0.025138 0)
(-0.0255816 -0.0246199 0)
(-0.0189237 -0.0232543 0)
(-0.0125101 -0.0216689 0)
(-0.00614468 -0.0223923 0)
(-0.0173129 0.0479902 0)
(-0.0292096 0.0462749 0)
(-0.0411041 0.043114 0)
(-0.0513685 0.0391908 0)
(-0.0602053 0.0341925 0)
(-0.0676793 0.0282252 0)
(-0.073793 0.0216377 0)
(-0.0782915 0.0146732 0)
(-0.0808324 0.00779046 0)
(-0.0814024 0.00120812 0)
(-0.0800887 -0.00509408 0)
(-0.0770141 -0.0109228 0)
(-0.0724079 -0.0159937 0)
(-0.0665858 -0.0201484 0)
(-0.0598332 -0.0233659 0)
(-0.0524209 -0.0257382 0)
(-0.0446503 -0.0273105 0)
(-0.0368488 -0.0281293 0)
(-0.029362 -0.0281867 0)
(-0.0224837 -0.0274293 0)
(-0.0163592 -0.0258976 0)
(-0.0104117 -0.0244199 0)
(-0.00712508 -0.0262728 0)
(-0.0218343 0.0664077 0)
(-0.0266046 0.0536551 0)
(-0.0363942 0.0487493 0)
(-0.0441583 0.043923 0)
(-0.0510054 0.0380907 0)
(-0.0569153 0.031437 0)
(-0.0617696 0.0236948 0)
(-0.0654625 0.0158249 0)
(-0.067943 0.00811224 0)
(-0.0687527 0.000756311 0)
(-0.0678053 -0.0062319 0)
(-0.0652166 -0.0126161 0)
(-0.0611638 -0.0180874 0)
(-0.0558916 -0.0225791 0)
(-0.0496284 -0.0260485 0)
(-0.0426353 -0.0286157 0)
(-0.0351796 -0.0302995 0)
(-0.0275852 -0.0311174 0)
(-0.020256 -0.0310263 0)
(-0.0135956 -0.0300068 0)
(-0.00802027 -0.028205 0)
(-0.00284019 -0.0262104 0)
(-0.000929564 -0.0283118 0)
(0.00916446 -0.00347582 0)
(0.0312909 -0.00262543 0)
(0.035657 0.000441768 0)
(0.0303643 0.00176972 0)
(0.0226527 0.0021146 0)
(0.0110986 0.00538848 0)
(-0.00394606 0.00322503 0)
(-0.0110789 0.0016905 0)
(-0.0152829 -0.000205492 0)
(-0.0106357 -0.00612808 0)
(-0.000103647 0.00035701 0)
(-0.0122275 0.00696637 0)
(-0.0169167 -0.00319717 0)
(-0.0061228 -0.0042954 0)
(6.96815e-05 -0.001978 0)
(0.00318703 -0.00133513 0)
(0.00433854 -0.000300574 0)
(0.00336697 -0.000775956 0)
(0.0052259 0.00152814 0)
(0.0139794 -0.0132287 0)
(0.0384 -0.0088844 0)
(0.0426069 0.000115687 0)
(0.0345123 0.0065285 0)
(0.0193515 0.00785211 0)
(0.00932739 0.00747674 0)
(0.00300359 0.00556927 0)
(-0.00244927 0.00330165 0)
(-0.00566759 0.00145807 0)
(-0.00950325 -0.00417346 0)
(-0.00987682 -0.000498209 0)
(-0.00391016 0.00353117 0)
(0.00204572 -0.00357344 0)
(0.00211465 -0.00378769 0)
(0.00184916 -0.00200167 0)
(0.00223684 -0.000942482 0)
(0.00150152 0.000192485 0)
(0.000574892 0.000544462 0)
(-0.00217702 0.00253407 0)
(0.0208468 -0.0272073 0)
(0.0406055 -0.0146678 0)
(0.0437427 0.000239955 0)
(0.0411972 0.0105907 0)
(0.0323485 0.0124809 0)
(0.0212874 0.0105888 0)
(0.0127489 0.0078344 0)
(0.0068606 0.0049115 0)
(0.00767004 0.00253725 0)
(0.00139709 -0.00200757 0)
(-0.00496 -0.00122909 0)
(0.00262065 -6.3387e-06 0)
(0.009602 -0.00438115 0)
(0.00591038 -0.00305054 0)
(0.00315901 -0.00156392 0)
(0.00131044 -0.000343376 0)
(-0.00102089 0.000745629 0)
(-0.00184055 0.00134252 0)
(-0.00676631 5.28413e-05 0)
(0.0088864 -0.0351325 0)
(0.0246973 -0.0183661 0)
(0.0285826 -0.000313455 0)
(0.0368721 0.0106088 0)
(0.0441472 0.015138 0)
(0.0370447 0.0159206 0)
(0.0254513 0.0114773 0)
(0.0221577 0.00731422 0)
(0.0290934 0.00163165 0)
(0.0257579 0.00235319 0)
(0.0144897 8.10726e-05 0)
(0.0158471 -0.00189281 0)
(0.0146263 -0.00427848 0)
(0.00398773 -0.00113053 0)
(-0.000115643 -0.000149809 0)
(-0.000144024 0.00124191 0)
(0.00145012 0.00172357 0)
(0.00764791 0.00222228 0)
(0.0145558 -0.00188897 0)
(-0.0120445 -0.044582 0)
(-0.000362062 -0.0243376 0)
(0.00581937 -0.0037736 0)
(0.0192928 0.00435074 0)
(0.034114 0.0110635 0)
(0.0397673 0.0223545 0)
(0.0368964 0.0135032 0)
(0.0452117 0.00455134 0)
(0.0526864 -0.00170297 0)
(0.0560587 0.00582411 0)
(0.0497434 0.00202425 0)
(0.0458531 0.00041155 0)
(0.0214343 0.00138221 0)
(-0.0134993 0.004646 0)
(-0.0162394 -0.000736947 0)
(0.000700813 -0.00242334 0)
(0.0208127 -0.00353716 0)
(0.0420662 -0.00687391 0)
(0.0733034 0.0143214 0)
(-0.0100006 -0.0374131 0)
(-0.00639548 -0.0254628 0)
(0.000738107 -0.00770936 0)
(0.0120351 -0.000937172 0)
(0.0200661 0.00517517 0)
(0.0295033 0.0188032 0)
(0.0389643 0.00958524 0)
(0.049426 -0.00107165 0)
(0.0549149 -0.00305044 0)
(0.0565579 0.00509241 0)
(0.0580092 0.0031536 0)
(0.0684388 0.00293259 0)
(0.0321761 0.0234045 0)
(-0.0285275 0.0141784 0)
(-0.0151122 -0.00904897 0)
(0.00674565 -0.012911 0)
(0.0297826 -0.0153266 0)
(0.0474063 -0.0210144 0)
(0.0700837 0.0453778 0)
(0.00978259 -0.0353492 0)
(-0.00229209 -0.0245803 0)
(0.00464209 -0.0129196 0)
(0.0157198 -0.00335171 0)
(0.0164346 0.00296294 0)
(0.0230682 0.0131371 0)
(0.0365705 0.00492951 0)
(0.0449694 -0.00390614 0)
(0.0449299 -0.00257521 0)
(0.043247 0.00394092 0)
(0.0468318 0.00092723 0)
(0.0556665 0.00227185 0)
(0.0301304 0.0564832 0)
(-0.0162327 0.0201481 0)
(-0.00134499 -0.0159652 0)
(0.0124415 -0.0209412 0)
(0.0289362 -0.0236674 0)
(0.0348385 -0.0256099 0)
(0.0528073 0.0661111 0)
(0.0236321 -0.0416313 0)
(0.00274271 -0.0213065 0)
(0.0094592 -0.0181503 0)
(0.0208175 -0.00599523 0)
(0.0192769 0.0036952 0)
(0.0218691 0.00913621 0)
(0.0313271 0.000838143 0)
(0.0342182 -0.00390734 0)
(0.0283546 -0.000883413 0)
(0.0263907 0.00286548 0)
(0.0298605 -0.00154735 0)
(0.0338547 0.00280963 0)
(0.0203008 0.0710642 0)
(0.00188179 0.0207237 0)
(0.0130278 -0.0195979 0)
(0.0166208 -0.0250253 0)
(0.0227847 -0.0272518 0)
(0.015429 -0.0250601 0)
(0.029528 0.0805234 0)
(-0.00734255 0.078477 0)
(-0.0127587 0.0669691 0)
(-0.0175205 0.0607499 0)
(-0.0201712 0.0543668 0)
(-0.0216723 0.047186 0)
(-0.0221484 0.0389899 0)
(-0.0220783 0.0303283 0)
(-0.0220055 0.0209652 0)
(-0.0217863 0.0110783 0)
(-0.0210454 0.00106376 0)
(-0.0194724 -0.00863062 0)
(-0.0171426 -0.0176584 0)
(-0.0140066 -0.0254674 0)
(-0.0101754 -0.0317958 0)
(-0.00576703 -0.0366526 0)
(-0.00082678 -0.0401343 0)
(0.00457316 -0.0422429 0)
(0.0102089 -0.0429558 0)
(0.0156249 -0.0421601 0)
(0.0201542 -0.0399253 0)
(0.0230024 -0.036233 0)
(0.0230249 -0.0299336 0)
(0.0147013 -0.0191337 0)
(-0.00388821 0.0773644 0)
(-0.00207159 0.0635269 0)
(-0.00136634 0.0548602 0)
(0.000680722 0.0479836 0)
(0.00345546 0.0405056 0)
(0.00710091 0.0322514 0)
(0.0111462 0.0240321 0)
(0.0147501 0.0160903 0)
(0.0177492 0.00761076 0)
(0.0204752 -0.0012254 0)
(0.0230647 -0.00988788 0)
(0.0255341 -0.0179267 0)
(0.0279643 -0.0250055 0)
(0.0303469 -0.0307361 0)
(0.0326513 -0.0352777 0)
(0.0349326 -0.0387511 0)
(0.0371989 -0.0409725 0)
(0.0392923 -0.0417373 0)
(0.0407584 -0.0405365 0)
(0.0411404 -0.0373857 0)
(0.0401916 -0.0320183 0)
(0.0382133 -0.0229278 0)
(0.0361105 -0.00791259 0)
(0.00318552 0.0767394 0)
(0.0084987 0.0611449 0)
(0.0118815 0.0508834 0)
(0.0160241 0.043522 0)
(0.0207058 0.0354327 0)
(0.0262354 0.0262585 0)
(0.0320846 0.0183949 0)
(0.0371858 0.0115439 0)
(0.0413742 0.00378132 0)
(0.0450205 -0.00450725 0)
(0.0479811 -0.0125338 0)
(0.050155 -0.0199939 0)
(0.0516799 -0.0266134 0)
(0.0526392 -0.0318964 0)
(0.0529826 -0.036022 0)
(0.0527411 -0.0392259 0)
(0.0517964 -0.0410424 0)
(0.0498035 -0.0411312 0)
(0.046513 -0.0389244 0)
(0.041841 -0.0346309 0)
(0.0360782 -0.0282505 0)
(0.0298752 -0.0188148 0)
(0.0243775 -0.00415714 0)
(0.00938896 0.0656235 0)
(0.0178485 0.0561194 0)
(0.0232373 0.0464414 0)
(0.0292942 0.0388504 0)
(0.0355159 0.0303424 0)
(0.0413619 0.0208445 0)
(0.0463727 0.0134525 0)
(0.0511037 0.00705939 0)
(0.0556536 -2.78017e-05 0)
(0.0592201 -0.00751904 0)
(0.0615552 -0.0146269 0)
(0.0625048 -0.021058 0)
(0.0621555 -0.0270568 0)
(0.061293 -0.031981 0)
(0.0599157 -0.035309 0)
(0.0569764 -0.0373505 0)
(0.0521482 -0.0378277 0)
(0.0457796 -0.0364599 0)
(0.0383417 -0.0327341 0)
(0.0300614 -0.0272025 0)
(0.0212693 -0.0204155 0)
(0.0131002 -0.011863 0)
(0.00678253 0.00095108 0)
(0.00451636 0.0547484 0)
(0.0185953 0.046632 0)
(0.0303025 0.0384056 0)
(0.0401986 0.0312823 0)
(0.048505 0.0235822 0)
(0.0538711 0.0158081 0)
(0.0571659 0.00948559 0)
(0.060642 0.00237997 0)
(0.0645256 -0.00414152 0)
(0.0674186 -0.0103799 0)
(0.0687264 -0.0159832 0)
(0.0682775 -0.0206108 0)
(0.066315 -0.0254536 0)
(0.0635611 -0.0301219 0)
(0.059966 -0.0320295 0)
(0.0545478 -0.0316756 0)
(0.0469149 -0.0301166 0)
(0.0384756 -0.0281008 0)
(0.029965 -0.0238721 0)
(0.0210119 -0.0178747 0)
(0.0117315 -0.0113472 0)
(0.00274527 -0.0039994 0)
(-0.00459241 0.0055806 0)
(0.0101993 0.0404362 0)
(0.0221326 0.0303337 0)
(0.0345612 0.0255989 0)
(0.0447787 0.0209489 0)
(0.0523118 0.0160092 0)
(0.0573766 0.0114654 0)
(0.0611268 0.00599673 0)
(0.0645007 -0.00150509 0)
(0.0674144 -0.00743903 0)
(0.0695717 -0.0123467 0)
(0.0706559 -0.0164248 0)
(0.0707225 -0.0195592 0)
(0.0694173 -0.0227631 0)
(0.066087 -0.0259239 0)
(0.060822 -0.0263212 0)
(0.0542878 -0.024277 0)
(0.0466773 -0.0213391 0)
(0.0375557 -0.0184956 0)
(0.0271046 -0.013903 0)
(0.0162265 -0.00783655 0)
(0.00555669 -0.00154573 0)
(-0.00419211 0.00477646 0)
(-0.0116666 0.0113116 0)
(0.0153414 0.0228812 0)
(0.0270618 0.0164576 0)
(0.0376605 0.0148412 0)
(0.0464004 0.0128351 0)
(0.0530232 0.0101061 0)
(0.0583354 0.00708283 0)
(0.0629551 0.00192047 0)
(0.0665413 -0.00446337 0)
(0.0690978 -0.00986691 0)
(0.0710602 -0.0140998 0)
(0.0723206 -0.0172588 0)
(0.0723904 -0.019185 0)
(0.0708652 -0.0207321 0)
(0.0673176 -0.0214378 0)
(0.0617439 -0.0202089 0)
(0.0546691 -0.0170291 0)
(0.0462591 -0.0127853 0)
(0.0361707 -0.00793984 0)
(0.024554 -0.00210504 0)
(0.0123146 0.00407549 0)
(0.000525065 0.00969595 0)
(-0.00982854 0.0144689 0)
(-0.0177879 0.0183296 0)
(0.0125784 0.00625084 0)
(0.0272745 0.00611232 0)
(0.0386821 0.00671149 0)
(0.047569 0.00660531 0)
(0.0542819 0.00526437 0)
(0.0598645 0.00269103 0)
(0.0647126 -0.00157208 0)
(0.0684068 -0.0065409 0)
(0.0708763 -0.0110536 0)
(0.0725367 -0.0146182 0)
(0.0734161 -0.0170007 0)
(0.0732534 -0.0179268 0)
(0.0715979 -0.0181197 0)
(0.0678355 -0.0173043 0)
(0.0618233 -0.01485 0)
(0.0539186 -0.0107499 0)
(0.0444528 -0.00547456 0)
(0.0333414 0.000570621 0)
(0.0206811 0.00706744 0)
(0.00761438 0.0129795 0)
(-0.00454472 0.0176209 0)
(-0.0150754 0.0208319 0)
(-0.0231037 0.0229474 0)
(0.0159982 -0.0128264 0)
(0.029289 -0.00787435 0)
(0.042184 -0.00229548 0)
(0.0514895 0.000430499 0)
(0.0583442 0.000377157 0)
(0.0645057 -0.0016125 0)
(0.0702704 -0.00474885 0)
(0.0744596 -0.00846563 0)
(0.0766315 -0.0120973 0)
(0.0774369 -0.015027 0)
(0.0771148 -0.0167073 0)
(0.0756463 -0.0167284 0)
(0.0727238 -0.0159351 0)
(0.0673713 -0.0140496 0)
(0.059281 -0.0106232 0)
(0.0490975 -0.005571 0)
(0.0374018 0.000874389 0)
(0.0246345 0.00789799 0)
(0.0116455 0.0148382 0)
(-0.000479445 0.0208342 0)
(-0.0111128 0.0246777 0)
(-0.019879 0.0264814 0)
(-0.0259021 0.0261472 0)
(0.0241607 -0.0328878 0)
(0.0229768 -0.0174507 0)
(0.0375022 -0.00964101 0)
(0.0488002 -0.0056795 0)
(0.0574525 -0.00452948 0)
(0.0642531 -0.00587903 0)
(0.0698537 -0.00819094 0)
(0.0740414 -0.0101385 0)
(0.0765456 -0.012216 0)
(0.0770427 -0.0141821 0)
(0.0753664 -0.0147823 0)
(0.0719651 -0.0131835 0)
(0.0667511 -0.00943938 0)
(0.0590855 -0.0030934 0)
(0.0493395 0.00512503 0)
(0.0385527 0.0139986 0)
(0.0276739 0.0219045 0)
(0.0173773 0.0290717 0)
(0.00794657 0.0339761 0)
(-0.000602364 0.0362822 0)
(-0.00829824 0.0356231 0)
(-0.0158006 0.0326008 0)
(-0.02085 0.0294818 0)
(-0.0104904 -0.0694059 0)
(-0.00903547 -0.0508275 0)
(-0.00532058 -0.041186 0)
(-0.00257691 -0.0294239 0)
(0.00111583 -0.0235433 0)
(0.00630729 -0.0233167 0)
(0.0135661 -0.0247965 0)
(0.0225944 -0.0246292 0)
(0.0308128 -0.0223723 0)
(0.0351933 -0.0190835 0)
(0.0355084 -0.0150672 0)
(0.0331432 -0.00898059 0)
(0.0288245 -0.000549345 0)
(0.0229718 0.00970286 0)
(0.0162366 0.020082 0)
(0.00953282 0.0295143 0)
(0.00366954 0.0379528 0)
(-0.000662473 0.0457094 0)
(-0.00328741 0.0524095 0)
(-0.00469771 0.0570933 0)
(-0.00575262 0.0588215 0)
(-0.00675437 0.0565187 0)
(-0.00755946 0.047923 0)
(-0.0123595 -0.0266718 0)
(-0.0212258 -0.0260783 0)
(-0.0244207 -0.0237922 0)
(-0.0255964 -0.0193312 0)
(-0.0251839 -0.0178835 0)
(-0.0231144 -0.0208442 0)
(-0.0182928 -0.026666 0)
(-0.0113869 -0.0290136 0)
(-0.00495762 -0.0257701 0)
(-0.00120155 -0.0192134 0)
(-0.000944523 -0.0136594 0)
(-0.00239961 -0.0075472 0)
(-0.00452417 -4.99792e-05 0)
(-0.00676739 0.00862002 0)
(-0.00877455 0.0173664 0)
(-0.0105077 0.0250172 0)
(-0.0119021 0.0312149 0)
(-0.0127491 0.0364162 0)
(-0.0128102 0.0406994 0)
(-0.0120176 0.0438 0)
(-0.0107015 0.0451642 0)
(-0.0086861 0.0442251 0)
(-0.00694373 0.0392226 0)
(-0.013543 -0.0156264 0)
(-0.0217255 -0.0190433 0)
(-0.0279985 -0.0197567 0)
(-0.032123 -0.0174568 0)
(-0.0346909 -0.0173402 0)
(-0.0356126 -0.0221359 0)
(-0.0344032 -0.0304855 0)
(-0.0318995 -0.0331175 0)
(-0.0291788 -0.0291593 0)
(-0.0273673 -0.0197498 0)
(-0.0272646 -0.0122915 0)
(-0.0279059 -0.00551057 0)
(-0.0284986 0.00184929 0)
(-0.0285467 0.00981291 0)
(-0.0278386 0.0177003 0)
(-0.0265262 0.0247364 0)
(-0.0249164 0.0305184 0)
(-0.0231134 0.035018 0)
(-0.020987 0.0383011 0)
(-0.0183854 0.0403249 0)
(-0.0154234 0.0409288 0)
(-0.0118351 0.0399635 0)
(-0.00791691 0.0368528 0)
(-0.0134342 0.000564218 0)
(-0.0205598 -0.0105133 0)
(-0.0275029 -0.0146613 0)
(-0.0325447 -0.0142155 0)
(-0.0361509 -0.0149904 0)
(-0.0388137 -0.0211956 0)
(-0.0410508 -0.0304902 0)
(-0.0427736 -0.033744 0)
(-0.0438366 -0.0299129 0)
(-0.0444391 -0.0197188 0)
(-0.044786 -0.0115761 0)
(-0.0450755 -0.0047122 0)
(-0.044864 0.00227159 0)
(-0.0439585 0.00954386 0)
(-0.0421834 0.0166647 0)
(-0.0396286 0.0230054 0)
(-0.036537 0.0282339 0)
(-0.033098 0.0322637 0)
(-0.029364 0.0350925 0)
(-0.0253142 0.0367018 0)
(-0.0210509 0.037032 0)
(-0.0163246 0.0361215 0)
(-0.0109882 0.0342492 0)
(-0.0100676 0.0144024 0)
(-0.0172503 -0.00133743 0)
(-0.0251219 -0.00805507 0)
(-0.0310714 -0.00943245 0)
(-0.0353068 -0.0114128 0)
(-0.038782 -0.0180702 0)
(-0.0430933 -0.0267665 0)
(-0.0480833 -0.0307886 0)
(-0.0522279 -0.0277108 0)
(-0.0547758 -0.0189458 0)
(-0.0556889 -0.0116332 0)
(-0.0556898 -0.0052771 0)
(-0.0551158 0.00102758 0)
(-0.0537596 0.00752751 0)
(-0.0515294 0.0138622 0)
(-0.0484707 0.0195923 0)
(-0.0447456 0.0244446 0)
(-0.0405511 0.0282472 0)
(-0.0360154 0.0309124 0)
(-0.0312095 0.0323948 0)
(-0.0262906 0.0326897 0)
(-0.0210276 0.0318892 0)
(-0.0150593 0.0306125 0)
(-0.00665476 0.0250213 0)
(-0.0139545 0.00798003 0)
(-0.0225523 -0.000459488 0)
(-0.0293581 -0.00377792 0)
(-0.0341386 -0.00744593 0)
(-0.0381475 -0.0138777 0)
(-0.043217 -0.021126 0)
(-0.0494878 -0.0251005 0)
(-0.0553989 -0.0231591 0)
(-0.059027 -0.0170346 0)
(-0.0603918 -0.0110967 0)
(-0.0606732 -0.00560844 0)
(-0.0601369 -7.66494e-05 0)
(-0.0587479 0.00557607 0)
(-0.0564692 0.0110246 0)
(-0.0533419 0.0159879 0)
(-0.0495093 0.0202415 0)
(-0.0451385 0.0236128 0)
(-0.0403821 0.0259836 0)
(-0.0353553 0.0272973 0)
(-0.0302566 0.0275554 0)
(-0.0248361 0.0268769 0)
(-0.0186415 0.0259262 0)
(-0.00508473 0.0331538 0)
(-0.0118 0.0169964 0)
(-0.0201555 0.0076403 0)
(-0.0270352 0.00232914 0)
(-0.0322111 -0.0029072 0)
(-0.03685 -0.00918866 0)
(-0.0422524 -0.0151451 0)
(-0.0484842 -0.0185232 0)
(-0.0542764 -0.0179721 0)
(-0.0582399 -0.0143416 0)
(-0.0602937 -0.010026 0)
(-0.0610592 -0.00556556 0)
(-0.0608358 -0.000928079 0)
(-0.0596838 0.00380007 0)
(-0.057617 0.00836341 0)
(-0.0547127 0.0125373 0)
(-0.051097 0.0161437 0)
(-0.046918 0.0190212 0)
(-0.0423281 0.0210518 0)
(-0.0374575 0.0221729 0)
(-0.0325044 0.0223834 0)
(-0.0272227 0.0217618 0)
(-0.0211072 0.0209676 0)
(-0.0045708 0.0401557 0)
(-0.0103754 0.0250334 0)
(-0.0175711 0.0153133 0)
(-0.0238798 0.00835649 0)
(-0.0291694 0.00209356 0)
(-0.0341517 -0.00407253 0)
(-0.0395333 -0.00938364 0)
(-0.0452717 -0.0126139 0)
(-0.0505601 -0.0130571 0)
(-0.0545143 -0.0112628 0)
(-0.0569303 -0.00841578 0)
(-0.0581053 -0.00507373 0)
(-0.058251 -0.00143506 0)
(-0.0574373 0.00234394 0)
(-0.0557276 0.00602913 0)
(-0.0532076 0.00943074 0)
(-0.0499922 0.0123903 0)
(-0.046219 0.0147632 0)
(-0.042029 0.016439 0)
(-0.0375451 0.0173522 0)
(-0.0329795 0.0174843 0)
(-0.0280342 0.0168797 0)
(-0.022234 0.0161392 0)
(-0.00374216 0.0463232 0)
(-0.00860227 0.0317704 0)
(-0.0145802 0.0218108 0)
(-0.020157 0.0140035 0)
(-0.0252424 0.0071963 0)
(-0.0301626 0.00107426 0)
(-0.0352666 -0.00398097 0)
(-0.0404449 -0.00730178 0)
(-0.0451822 -0.00856643 0)
(-0.0489183 -0.00806969 0)
(-0.0514604 -0.00647651 0)
(-0.052905 -0.00423566 0)
(-0.0533599 -0.00158779 0)
(-0.0528942 0.00126594 0)
(-0.0515807 0.00410864 0)
(-0.0495042 0.00677252 0)
(-0.0467721 0.00910907 0)
(-0.0435068 0.0109899 0)
(-0.0398372 0.0123117 0)
(-0.0358789 0.0130073 0)
(-0.0318149 0.0130422 0)
(-0.0273681 0.0124158 0)
(-0.0220589 0.0117051 0)
(-0.00254627 0.0512121 0)
(-0.00645252 0.0371924 0)
(-0.0112955 0.0272201 0)
(-0.0160818 0.0190849 0)
(-0.0207188 0.0120499 0)
(-0.0253054 0.00593976 0)
(-0.0299601 0.000951372 0)
(-0.0345694 -0.00258239 0)
(-0.0387732 -0.00449451 0)
(-0.0422142 -0.00497664 0)
(-0.0447217 -0.0044237 0)
(-0.0462944 -0.00316586 0)
(-0.0469777 -0.00143751 0)
(-0.0468193 0.000555529 0)
(-0.0458824 0.00261875 0)
(-0.0442508 0.00459563 0)
(-0.0420156 0.00635074 0)
(-0.0392877 0.0077669 0)
(-0.0361807 0.0087484 0)
(-0.0327908 0.00922585 0)
(-0.0293113 0.00914855 0)
(-0.0254147 0.00849006 0)
(-0.0206787 0.0078046 0)
(-0.00122202 0.0545298 0)
(-0.00417721 0.0413428 0)
(-0.00795221 0.0316277 0)
(-0.0119158 0.023491 0)
(-0.0159537 0.0164239 0)
(-0.0200338 0.0103357 0)
(-0.0241464 0.00533365 0)
(-0.0281701 0.00158094 0)
(-0.0318652 -0.000857592 0)
(-0.0349698 -0.0020953 0)
(-0.0373399 -0.00238384 0)
(-0.0389351 -0.00196844 0)
(-0.039762 -0.00105636 0)
(-0.0398482 0.000166558 0)
(-0.0392432 0.00152751 0)
(-0.0380175 0.0028827 0)
(-0.0362522 0.00410883 0)
(-0.0340423 0.00509926 0)
(-0.0314868 0.00576388 0)
(-0.0286744 0.00603154 0)
(-0.0257598 0.00584244 0)
(-0.0224529 0.00514282 0)
(-0.0183279 0.00449686 0)
(-3.91257e-05 0.056246 0)
(-0.00206087 0.0442855 0)
(-0.0048204 0.0350716 0)
(-0.00794314 0.0271493 0)
(-0.0112914 0.0201888 0)
(-0.0147619 0.0141596 0)
(-0.0182784 0.00913081 0)
(-0.0217154 0.00518646 0)
(-0.0248937 0.00234461 0)
(-0.0276344 0.000521992 0)
(-0.0298022 -0.000441748 0)
(-0.0313398 -0.000730875 0)
(-0.0322337 -0.000517846 0)
(-0.0324959 3.52549e-05 0)
(-0.0321618 0.000779958 0)
(-0.0312856 0.00158693 0)
(-0.0299364 0.00234353 0)
(-0.0281978 0.0029533 0)
(-0.0261522 0.00333124 0)
(-0.0238678 0.00340603 0)
(-0.0215121 0.00310978 0)
(-0.018748 0.00237502 0)
(-0.015195 0.00177575 0)
(0.000806524 0.0565716 0)
(-0.000325437 0.0461288 0)
(-0.00212135 0.0375811 0)
(-0.00440471 0.0300197 0)
(-0.00701429 0.0232688 0)
(-0.00981629 0.0173499 0)
(-0.0127032 0.0123223 0)
(-0.015552 0.00823668 0)
(-0.0182181 0.00509505 0)
(-0.0205615 0.00283313 0)
(-0.0224772 0.0013383 0)
(-0.0238961 0.000476423 0)
(-0.0247907 0.000107247 0)
(-0.0251619 9.46094e-05 0)
(-0.0250319 0.000311823 0)
(-0.0244414 0.000645694 0)
(-0.0234457 0.000995712 0)
(-0.0221131 0.00127285 0)
(-0.0205147 0.00139799 0)
(-0.0187129 0.00130152 0)
(-0.016833 0.000909782 0)
(-0.0145867 0.000142316 0)
(-0.0115721 -0.00040268 0)
(0.00128581 0.0559084 0)
(0.000941239 0.0469928 0)
(1.33453e-05 0.0391968 0)
(-0.00145189 0.0320884 0)
(-0.0033072 0.0256256 0)
(-0.00541492 0.019873 0)
(-0.00765768 0.014895 0)
(-0.00991799 0.0107319 0)
(-0.0120735 0.00738361 0)
(-0.0140092 0.00480318 0)
(-0.015633 0.00290687 0)
(-0.0168832 0.00159377 0)
(-0.0177224 0.000755526 0)
(-0.0181409 0.000278341 0)
(-0.0181503 5.6023e-05 0)
(-0.0177785 -8.8548e-06 0)
(-0.017068 -4.5454e-06 0)
(-0.0160748 -1.14376e-05 0)
(-0.0148566 -0.000103305 0)
(-0.0134567 -0.000348671 0)
(-0.0120148 -0.000826624 0)
(-0.0101916 -0.00162382 0)
(-0.00764077 -0.0021086 0)
(0.00143589 0.0546554 0)
(0.00175463 0.0470342 0)
(0.0015762 0.0399855 0)
(0.000874769 0.0333757 0)
(-0.00024527 0.0272528 0)
(-0.0016645 0.0217196 0)
(-0.00326914 0.0168475 0)
(-0.00495074 0.0126759 0)
(-0.00660284 0.00920844 0)
(-0.00812703 0.00641263 0)
(-0.00944139 0.00422745 0)
(-0.0104859 0.00257455 0)
(-0.0112247 0.00137139 0)
(-0.0116377 0.000525621 0)
(-0.0117276 -5.21362e-05 0)
(-0.0115117 -0.000443767 0)
(-0.0110207 -0.000725732 0)
(-0.0102982 -0.000969896 0)
(-0.00939031 -0.00124437 0)
(-0.00833844 -0.00161642 0)
(-0.00723857 -0.00216915 0)
(-0.00578667 -0.00299573 0)
(-0.00365168 -0.00341281 0)
(0.00137328 0.0531104 0)
(0.00221544 0.0464412 0)
(0.00265381 0.0400505 0)
(0.00262852 0.0339351 0)
(0.00218991 0.0281834 0)
(0.00142498 0.0229112 0)
(0.000430922 0.0181958 0)
(-0.000697441 0.0140805 0)
(-0.00186584 0.0105748 0)
(-0.00298705 0.00765543 0)
(-0.00398728 0.00527863 0)
(-0.00480898 0.00338543 0)
(-0.00541417 0.00191091 0)
(-0.00578069 0.000784703 0)
(-0.00590224 -7.02321e-05 0)
(-0.00578733 -0.000721237 0)
(-0.00545652 -0.00123332 0)
(-0.00494327 -0.0016699 0)
(-0.00428302 -0.0020933 0)
(-0.00350308 -0.00256782 0)
(-0.00271461 -0.00317185 0)
(-0.00153154 -0.00400376 0)
(0.000268957 -0.00442057 0)
(0.00122036 0.05147 0)
(0.00245424 0.0453729 0)
(0.00338286 0.0395107 0)
(0.0039322 0.0338494 0)
(0.004094 0.0284726 0)
(0.00391756 0.0234926 0)
(0.00347906 0.0189833 0)
(0.00285973 0.0149851 0)
(0.00214136 0.0115091 0)
(0.0014009 0.00854321 0)
(0.000705721 0.00605683 0)
(0.000110649 0.00400659 0)
(-0.000344528 0.00234222 0)
(-0.000637218 0.00101291 0)
(-0.000753962 -4.82253e-05 0)
(-0.000696381 -0.000896516 0)
(-0.000477127 -0.00158566 0)
(-0.000119455 -0.00217087 0)
(0.000350225 -0.00270929 0)
(0.00090906 -0.0032612 0)
(0.00148576 -0.0038994 0)
(0.00236112 -0.00472981 0)
(0.00384919 -0.00514241 0)
(0.00107653 0.0498207 0)
(0.00259747 0.0439525 0)
(0.00391111 0.0384813 0)
(0.00493194 0.0332191 0)
(0.00559927 0.0282063 0)
(0.0059269 0.0235339 0)
(0.0059698 0.0192637 0)
(0.00579492 0.0154305 0)
(0.00547282 0.0120457 0)
(0.0050723 0.00910214 0)
(0.0046555 0.00657886 0)
(0.00427461 0.00444486 0)
(0.00397001 0.0026628 0)
(0.00376471 0.00119702 0)
(0.00367679 -8.74763e-06 0)
(0.00370949 -0.000999582 0)
(0.00385684 -0.00181974 0)
(0.00410229 -0.00251703 0)
(0.00442815 -0.00314309 0)
(0.004828 -0.00375497 0)
(0.00520754 -0.00442946 0)
(0.00587219 -0.00526786 0)
(0.00711228 -0.00561644 0)
(0.00100735 0.0481573 0)
(0.0027486 0.0422605 0)
(0.0043694 0.0370619 0)
(0.00576749 0.0321448 0)
(0.00684205 0.0274804 0)
(0.00757844 0.0231242 0)
(0.00801419 0.0191183 0)
(0.00820443 0.0154868 0)
(0.00821103 0.0122382 0)
(0.00809639 0.00936822 0)
(0.00791838 0.00686311 0)
(0.00772666 0.00470208 0)
(0.00756082 0.00285953 0)
(0.0074447 0.00131197 0)
(0.00739784 1.34388e-05 0)
(0.00742691 -0.00107305 0)
(0.00753002 -0.00198296 0)
(0.00769722 -0.00275774 0)
(0.0079165 -0.00344377 0)
(0.00817791 -0.00409589 0)
(0.00843116 -0.00478859 0)
(0.00890554 -0.00562572 0)
(0.00991312 -0.00592118 0)
(0.00104828 0.0464155 0)
(0.00298054 0.0403364 0)
(0.00485961 0.0353313 0)
(0.00655509 0.0307211 0)
(0.00794197 0.0263936 0)
(0.00898796 0.0223602 0)
(0.00972 0.0186371 0)
(0.0101861 0.0152347 0)
(0.0104429 0.0121559 0)
(0.0105487 0.00939766 0)
(0.0105584 0.00695191 0)
(0.0105195 0.0048068 0)
(0.0104701 0.00294731 0)
(0.0104337 0.00136109 0)
(0.0104295 1.11367e-05 0)
(0.0104656 -0.001132 0)
(0.0105424 -0.00209668 0)
(0.0106529 -0.00291874 0)
(0.0107898 -0.00364056 0)
(0.0109573 -0.00431361 0)
(0.0110791 -0.00501009 0)
(0.0114242 -0.00583322 0)
(0.0122546 -0.00608499 0)
(0.00121257 0.0444935 0)
(0.00333763 0.0381849 0)
(0.00545071 0.033345 0)
(0.00737923 0.0290311 0)
(0.00899066 0.0250424 0)
(0.0102479 0.0213416 0)
(0.0111766 0.0179167 0)
(0.0118241 0.0147624 0)
(0.012246 0.0118756 0)
(0.0124997 0.00925373 0)
(0.0126385 0.00689406 0)
(0.0127083 0.00479341 0)
(0.0127453 0.00294707 0)
(0.0127712 0.00135327 0)
(0.0128034 -1.6857e-05 0)
(0.0128489 -0.00118572 0)
(0.012908 -0.00217607 0)
(0.0129766 -0.00301949 0)
(0.0130502 -0.00375551 0)
(0.0131273 -0.00443184 0)
(0.0131737 -0.00511945 0)
(0.0133812 -0.00591788 0)
(0.0140302 -0.0061287 0)
(0.00150184 0.0422749 0)
(0.00384274 0.0357861 0)
(0.00618353 0.0311403 0)
(0.00829281 0.0271471 0)
(0.0100478 0.0235182 0)
(0.0114206 0.0201677 0)
(0.0124467 0.0170555 0)
(0.0131798 0.014162 0)
(0.0136797 0.0114789 0)
(0.0140057 0.00900492 0)
(0.0142116 0.00674389 0)
(0.0143422 0.00470196 0)
(0.0144314 0.00288547 0)
(0.0144978 0.0013033 0)
(0.0145553 -6.5436e-05 0)
(0.0146072 -0.00123665 0)
(0.0146519 -0.00222911 0)
(0.0146847 -0.00307227 0)
(0.014704 -0.00380374 0)
(0.0147195 -0.00446914 0)
(0.0146712 -0.00513687 0)
(0.0147864 -0.00590358 0)
(0.0152863 -0.00607356 0)
(0.00191201 0.0396357 0)
(0.00450262 0.0331046 0)
(0.0070747 0.0287417 0)
(0.00931933 0.0251331 0)
(0.0111411 0.021908 0)
(0.0125369 0.0189352 0)
(0.0135631 0.0161511 0)
(0.0142881 0.0135252 0)
(0.0147804 0.0110474 0)
(0.0151043 0.00872076 0)
(0.0153156 0.00655726 0)
(0.0154589 0.00457444 0)
(0.0155654 0.00279165 0)
(0.0156497 0.0012288 0)
(0.0157197 -0.000125858 0)
(0.015772 -0.00128258 0)
(0.0158007 -0.0022584 0)
(0.0158008 -0.0030831 0)
(0.0157719 -0.00379438 0)
(0.0157167 -0.00443764 0)
(0.0156168 -0.00507694 0)
(0.0156225 -0.00580455 0)
(0.0159636 -0.00593813 0)
(0.00244074 0.0364564 0)
(0.00531469 0.0300996 0)
(0.00812234 0.02617 0)
(0.0104568 0.0230507 0)
(0.0122687 0.0202964 0)
(0.0135964 0.0177385 0)
(0.0145294 0.0152977 0)
(0.0151576 0.0129403 0)
(0.0155621 0.01066 0)
(0.0158141 0.00846811 0)
(0.0159728 0.00638822 0)
(0.0160834 0.00445167 0)
(0.0161745 0.00269376 0)
(0.016256 0.00114722 0)
(0.0163263 -0.000188454 0)
(0.0163727 -0.00131913 0)
(0.0163827 -0.00226287 0)
(0.016348 -0.00305328 0)
(0.0162696 -0.00373138 0)
(0.0161629 -0.00434257 0)
(0.0159854 -0.00494638 0)
(0.0159187 -0.0056317 0)
(0.0161434 -0.00573066 0)
(0.00308992 0.0326202 0)
(0.00626585 0.0267338 0)
(0.00930507 0.02345 0)
(0.0116777 0.0209645 0)
(0.0133996 0.0187684 0)
(0.0145693 0.0166686 0)
(0.0153221 0.0145837 0)
(0.0157738 0.0124884 0)
(0.0160201 0.0103882 0)
(0.016139 0.00830799 0)
(0.0161934 0.00628623 0)
(0.0162303 0.00437093 0)
(0.0162774 0.00261668 0)
(0.0163389 0.00107356 0)
(0.0164006 -0.000244881 0)
(0.0164364 -0.0013415 0)
(0.0164236 -0.00223934 0)
(0.016351 -0.00298093 0)
(0.0162224 -0.00361471 0)
(0.0160497 -0.00418668 0)
(0.0158313 -0.00475334 0)
(0.0156769 -0.00539263 0)
(0.0157765 -0.00546537 0)
(0.00387078 0.0280203 0)
(0.007331 0.0229865 0)
(0.0105796 0.0206176 0)
(0.0129265 0.0189463 0)
(0.014471 0.0174098 0)
(0.0153968 0.0158108 0)