/*--------------------------------*- C++ -*----------------------------------*\
  =========                 |
  \\      /  F ield         | OpenFOAM: The Open Source CFD Toolbox
   \\    /   O peration     | Website:  https://openfoam.org
    \\  /    A nd           | Version:  13
     \\/     M anipulation  |
\*---------------------------------------------------------------------------*/
FoamFile
{
    format      ascii;
    class       volScalarField;
    location    "1";
    object      alpha.oil;
}
// * * * * * * * * * * * * * * * * * * * * * * * * * * * * * * * * * * * * * //

dimensions      [];

internalField   nonuniform List<scalar> 
2268
(
4.11965e-18
4.22986e-16
8.28075e-15
1.80777e-13
5.48255e-13
1.38533e-12
3.213e-12
6.98274e-12
1.45917e-11
2.97351e-11
5.94378e-11
1.13067e-10
2.18666e-10
4.06829e-10
7.93742e-10
1.49498e-09
2.72203e-09
4.81278e-09
7.95644e-09
3.41298e-08
0.000151129
0.00056701
0.00056862
6.22568e-17
1.82062e-15
1.91919e-14
1.13006e-13
4.06833e-13
1.14122e-12
3.28055e-12
8.27466e-12
2.02182e-11
4.70298e-11
1.03248e-10
2.31185e-10
4.65619e-10
9.68583e-10
2.00163e-09
3.98946e-09
9.59533e-09
2.67136e-08
5.32521e-08
9.82317e-08
1.78903e-06
0.000145773
0.000565786
8.31225e-17
1.65655e-15
1.51245e-14
8.54122e-14
3.64024e-13
1.46534e-12
5.23551e-12
1.43745e-11
3.93555e-11
1.02202e-10
2.70825e-10
5.40214e-10
1.13604e-09
2.32625e-09
4.31838e-09
7.9959e-09
2.09487e-08
5.86132e-08
1.25344e-07
1.06843e-07
3.80449e-08
7.35516e-08
4.20387e-05
6.65713e-17
3.63545e-15
3.12494e-14
2.00337e-13
9.14901e-13
2.89082e-12
8.4265e-12
2.6062e-11
7.00509e-11
1.74182e-10
3.77233e-10
8.48885e-10
1.86606e-09
4.2298e-09
1.05141e-08
3.10846e-08
6.16581e-08
1.03192e-07
1.21799e-07
9.99901e-08
9.15814e-08
1.37354e-06
2.26543e-06
5.29076e-16
8.05767e-15
5.79889e-14
2.78387e-13
9.91377e-13
4.40519e-12
1.00779e-11
1.91582e-11
3.46534e-11
8.36325e-11
1.64345e-10
3.30841e-10
6.14023e-10
9.05204e-10
3.75139e-09
1.7235e-07
1.56527e-06
3.29381e-06
3.2271e-06
1.4754e-06
3.0168e-06
1.4354e-05
1.87943e-05
2.95899e-16
4.31709e-15
2.87845e-14
1.13129e-13
2.70285e-13
4.30066e-13
4.13152e-13
3.17516e-12
1.23075e-11
3.35017e-11
7.70542e-11
2.08253e-10
4.56022e-10
7.59266e-11
8.59574e-11
1.50366e-06
6.57702e-06
7.1795e-06
7.17901e-06
7.16952e-06
7.83061e-06
1.48782e-05
4.26399e-05
8.64093e-17
1.29907e-15
7.41826e-15
1.71632e-14
2.31849e-14
2.52403e-14
4.53281e-14
1.81595e-12
1.83619e-11
1.06559e-10
5.11512e-10
3.0834e-09
1.5428e-08
2.92605e-08
1.11814e-07
1.91273e-06
5.47023e-06
7.14321e-06
7.17698e-06
5.9846e-06
5.10776e-06
4.29393e-06
0.00595998
7.04457e-18
1.30482e-16
1.22907e-15
3.1387e-15
2.43125e-15
4.17198e-14
3.94076e-12
2.55581e-11
1.22464e-10
5.29504e-10
2.15206e-09
8.51967e-09
3.25874e-08
1.09596e-07
2.78018e-07
4.64934e-07
5.77358e-07
1.9752e-06
2.11477e-06
2.48118e-06
0.00083243
0.1498
0.360056
0.949237
0.936849
0.911007
0.866517
0.713584
0.736468
0.824479
0.920106
0.920096
0.863157
0.565806
0.546405
0.628895
0.535851
0.0818193
0.0675578
0.0769226
0.132711
0.159034
0.949434
0.855387
0.479289
0.304793
0.0768628
0.0825525
0.236051
0.536318
0.781253
0.562052
0.206862
0.224023
0.439397
0.493114
0.203672
0.0671644
0.0968638
0.276849
0.31094
0.949485
0.438871
1.38359e-09
-3.0534e-08
-5.77695e-11
-1.53503e-08
-5.46837e-19
0.0470349
0.252964
0.233568
0.0526549
0.108111
0.136983
0.232749
0.264584
0.0726574
0.204974
0.310119
0.320483
0.911681
0.17586
-8.48369e-09
4.34938e-08
1.2237e-12
1.18182e-05
1.45459e-05
-8.80548e-08
-2.57712e-18
1.04432e-19
2.66868e-20
0.00109896
0.0335643
0.102872
0.263378
0.24454
0.221565
0.172344
0.439141
0.0816721
-4.23337e-19
-2.53125e-09
-3.91661e-11
4.79491e-24
4.7352e-06
0.000102704
3.35396e-05
-1.15743e-19
-4.10393e-21
-2.14388e-21
-5.66172e-21
0.00160825
0.16691
0.350411
0.337703
0.268069
0.134022
0.433913
0.169734
0.0953145
0.144566
0.118898
0.0380991
3.60151e-06
0.000104057
0.000135584
7.03961e-05
-9.0982e-22
5.68028e-06
1.44232e-05
0.000495045
0.171193
0.337189
0.373667
0.338591
0.220508
0.420694
0.594626
0.588443
0.722258
0.771637
0.647865
0.228953
2.60665e-05
0.000140327
0.000246548
0.000201851
0.000262764
8.07672e-05
-5.50951e-19
0.0610093
0.145012
0.260423
0.20201
0.745607
0.433828
0.699554
0.964232
0.999997
0.993216
0.972311
0.884543
0.295438
0.000123367
0.00023906
0.000262698
0.000375572
0.000870414
0.0419788
0.0742991
0.073051
0.105559
0.113398
0.761685
0.463755
7.65963e-19
1.27899e-17
5.28516e-17
1.3135e-16
1.40212e-14
6.10014e-13
6.60549e-12
2.98492e-11
1.16487e-10
4.46606e-10
1.34432e-09
3.38636e-09
1.20546e-08
3.92907e-08
5.65398e-08
1.43258e-08
-2.41009e-10
-1.02248e-09
4.85115e-21
0.00138028
0.260743
0.679575
0.736087
9.76435e-21
9.70915e-20
2.88054e-18
2.14547e-16
8.47835e-15
1.56464e-13
2.55432e-12
3.1757e-11
1.80778e-10
6.7903e-10
1.99439e-09
5.99408e-09
9.59818e-09
6.99718e-09
4.90738e-09
3.40035e-09
-4.22187e-20
7.33344e-19
0.0954019
0.567727
0.753665
0.999995
1
1.01597e-21
3.55317e-21
2.94553e-19
1.60163e-17
6.7434e-15
2.18464e-12
3.83292e-11
3.60687e-10
2.09312e-09
9.24455e-09
2.30541e-08
3.75743e-08
3.21796e-08
4.69577e-09
4.19733e-09
3.76803e-09
0.205551
0.596242
0.846548
0.999072
0.998296
0.999999
1
1.0279e-21
2.59894e-20
3.36839e-19
7.14169e-18
5.97029e-16
1.85241e-12
1.77406e-10
2.19169e-09
1.31496e-08
5.66226e-08
9.57254e-08
7.202e-08
3.4219e-08
0.00682255
0.29338
0.583446
0.958647
0.987692
0.985572
0.999991
0.999993
0.999994
0.999998
9.07358e-21
1.52386e-19
2.77766e-18
4.67063e-17
9.24062e-14
3.57535e-11
4.28798e-10
2.93389e-09
1.13915e-08
2.08723e-08
2.05673e-08
0.00129349
0.294697
0.647035
0.961458
0.966459
0.990371
0.999935
0.999934
0.9999
0.999953
1
1
3.45963e-20
7.09545e-19
1.14061e-17
2.98299e-16
3.81382e-13
3.07693e-11
1.89703e-10
6.22317e-10
3.64537e-10
5.65578e-10
0.193599
0.623572
0.936474
0.978349
0.999438
0.999999
0.999998
0.999872
0.999935
1
0.999998
1
1
5.90838e-20
1.11726e-18
1.62507e-17
1.15615e-15
5.96811e-13
1.15698e-11
2.79767e-11
2.3306e-11
0.0355376
0.516255
0.822072
0.994439
0.999992
1
1
0.999998
0.999996
0.999985
0.999998
1
1
1
0.999415
4.57689e-20
1.04934e-18
1.48722e-17
4.19622e-15
3.96803e-13
1.90807e-12
1.61407e-12
0.199365
0.713557
0.978505
0.99819
0.999999
0.999999
0.999999
1
1
1
1
1
0.958005
0.916509
0.736106
0.537221
4.51718e-20
4.52927e-19
4.14797e-19
3.10018e-15
4.98042e-14
4.91238e-18
0.178184
0.861747
0.996945
0.999823
0.999978
0.999986
0.999995
0.999999
0.991236
0.859746
0.752025
0.539191
0.292637
0.213861
0.161294
0.0450809
0.00821591
1.08331e-15
2.06233e-13
9.98081e-13
-1.79269e-12
8.83635e-19
1.07821e-13
0.25844
0.998487
0.99934
0.999663
0.999979
0.846451
0.612999
0.401155
0.217423
0.106763
0.0534684
0.0154269
1.5952e-07
5.0653e-07
3.86624e-07
7.29614e-09
1.15018e-06
5.21397e-16
4.98646e-16
4.43383e-10
9.77635e-09
6.19584e-08
6.38841e-05
0.0414518
0.325462
0.478882
0.461415
0.291367
0.108355
0.0199771
1.53722e-08
6.42375e-13
2.46498e-08
4.55815e-07
3.37399e-07
2.03263e-07
9.18126e-08
7.24053e-08
7.13928e-08
9.86155e-08
2.50929e-15
3.82735e-12
5.89263e-10
1.46475e-08
1.98215e-07
2.09901e-06
-3.92781e-14
1.71997e-06
0.000355208
0.000215582
2.40273e-15
-1.48962e-10
1.48959e-10
8.29967e-10
3.3155e-20
5.54169e-13
4.19168e-10
2.91526e-08
3.36909e-08
9.35568e-08
8.63773e-08
7.47218e-08
1.12056e-09
1.60118e-14
1.27474e-12
1.91314e-10
1.01208e-08
1.34158e-07
8.78177e-07
5.57002e-09
3.19634e-09
1.90498e-08
-2.53771e-11
-4.47839e-11
-1.80182e-10
9.74604e-08
1.48726e-06
1.62057e-06
9.66277e-07
4.98602e-17
7.48654e-14
2.54374e-12
2.21199e-07
3.07151e-08
3.91831e-09
1.22658e-09
2.4976e-15
2.54981e-13
2.32774e-11
2.48456e-09
5.07501e-08
4.00762e-07
3.48291e-07
1.95025e-08
2.14823e-08
5.12527e-09
6.67466e-09
2.60978e-08
1.00438e-07
4.25357e-07
5.10927e-07
9.69723e-07
9.66874e-05
0.00016813
6.89897e-05
2.82333e-08
3.01876e-08
7.66428e-08
2.70603e-08
2.93253e-16
6.50007e-14
8.82238e-12
3.16197e-10
1.03662e-08
1.27874e-07
3.75565e-07
4.83086e-08
4.38836e-08
1.3398e-08
1.00997e-08
2.62781e-08
6.47767e-08
1.56024e-07
2.35387e-07
4.32941e-07
2.44035e-05
0.000194688
0.000210654
0.000195186
1.64295e-05
7.81165e-08
1.75511e-07
3.64871e-17
1.31547e-14
2.82147e-12
5.02955e-11
1.53018e-09
2.62428e-08
1.56213e-07
4.05237e-08
4.3645e-08
1.64511e-08
9.79967e-09
1.85966e-08
4.00072e-08
8.85442e-08
1.9689e-07
4.48873e-07
4.05388e-07
1.0962e-05
0.000117934
0.000217053
0.000214973
3.00836e-05
8.1494e-07
4.42085e-18
1.81978e-15
6.4449e-13
1.47423e-11
2.23271e-10
3.93872e-09
3.74488e-08
2.2077e-08
2.94881e-08
1.39336e-08
8.69384e-09
1.34457e-08
2.4693e-08
4.30335e-08
9.58464e-08
2.53785e-07
1.87043e-07
2.43957e-07
3.17503e-07
2.85058e-05
9.19202e-05
5.91037e-05
3.67739e-06
3.99344e-19
1.8906e-16
1.07942e-13
4.19613e-12
4.57648e-11
6.02099e-10
6.37387e-09
9.65423e-09
1.51772e-08
8.54613e-09
6.14923e-09
9.0139e-09
1.527e-08
2.2773e-08
4.37012e-08
8.49938e-08
6.93184e-08
1.96427e-08
2.14504e-08
3.16055e-07
3.46972e-07
1.83716e-07
1.50749e-07
2.63912e-20
1.5139e-17
1.33139e-14
8.61129e-13
9.62489e-12
1.02468e-10
9.33878e-10
2.96519e-09
6.18311e-09
4.14831e-09
3.53737e-09
5.32222e-09
8.78469e-09
1.25434e-08
2.04435e-08
3.1528e-08
2.39558e-08
8.93592e-09
7.496e-09
2.32634e-08
2.23409e-08
1.10477e-08
1.47546e-08
6.57519e-23
1.35102e-19
2.29519e-16
5.32051e-14
8.44908e-13
1.75603e-11
1.43115e-10
6.22545e-10
1.68023e-09
1.397e-09
1.63678e-09
2.73047e-09
4.56704e-09
6.79943e-09
1.02832e-08
1.22098e-08
8.88842e-09
4.86561e-09
4.86483e-09
7.52354e-09
8.58739e-09
9.78068e-09
1.36438e-08
6.911e-24
2.36472e-20
4.42965e-17
9.63246e-15
1.60887e-13
9.66594e-13
2.082e-11
1.21011e-10
3.66347e-10
3.89908e-10
6.71656e-10
1.23515e-09
2.15896e-09
3.45345e-09
5.12975e-09
5.48471e-09
4.28333e-09
3.13455e-09
3.6344e-09
5.0206e-09
6.89181e-09
8.08736e-09
9.94682e-09
1.87461e-24
2.85364e-21
7.12304e-18
1.16033e-15
2.227e-14
2.79234e-13
3.22452e-12
1.79893e-11
6.13683e-11
9.80029e-11
2.07663e-10
5.19733e-10
9.4617e-10
1.60683e-09
2.35597e-09
2.51932e-09
2.21134e-09
1.95409e-09
2.52598e-09
3.57154e-09
4.75179e-09
5.80543e-09
7.58474e-09
1.0704e-24
2.90797e-22
9.35698e-19
1.73466e-16
4.64278e-15
5.53618e-14
5.56361e-13
2.61108e-12
1.18283e-11
3.00133e-11
7.36292e-11
1.65589e-10
3.89577e-10
6.92584e-10
1.00379e-09
1.11711e-09
1.03647e-09
1.14259e-09
1.61779e-09
2.28581e-09
3.03816e-09
3.65867e-09
4.255e-09
6.76563e-25
2.09022e-23
6.36479e-20
1.50763e-17
6.78398e-16
8.74097e-15
8.404e-14
4.88877e-13
2.55065e-12
8.13765e-12
2.27589e-11
5.68507e-11
1.22481e-10
2.25285e-10
3.53159e-10
4.19448e-10
4.9533e-10
6.22206e-10
9.2596e-10
1.29062e-09
1.66159e-09
1.92756e-09
2.30364e-09
3.96791e-25
5.50218e-24
2.70039e-21
9.59512e-19
7.78576e-17
1.18402e-15
1.26502e-14
8.21725e-14
4.70814e-13
1.81758e-12
5.70665e-12
1.64497e-11
3.87171e-11
7.78113e-11
1.14569e-10
1.66896e-10
2.22672e-10
3.05993e-10
4.63266e-10
6.29543e-10
7.90189e-10
9.25248e-10
9.75474e-10
2.10428e-25
2.88057e-24
9.89792e-23
5.87018e-20
7.7599e-18
1.34584e-16
1.64139e-15
1.25617e-14
7.76551e-14
3.45503e-13
1.20836e-12
3.91586e-12
1.03949e-11
2.27785e-11
3.82895e-11
6.12664e-11
9.04724e-11
1.31879e-10
2.0116e-10
2.62413e-10
3.16329e-10
3.35004e-10
3.67575e-10
1.01013e-25
1.45054e-24
1.57897e-23
3.82952e-21
6.90217e-19
1.31579e-17
1.69595e-16
1.63338e-15
1.10525e-14
5.56394e-14
2.19209e-13
8.08827e-13
2.38453e-12
5.82003e-12
1.12985e-11
2.01929e-11
3.22775e-11
4.93142e-11
6.73643e-11
9.23459e-11
1.07563e-10
1.16612e-10
1.08106e-10
4.3991e-26
6.57074e-25
6.6205e-24
2.67934e-22
5.27629e-20
1.09609e-18
1.51543e-17
1.80041e-16
1.35251e-15
7.71401e-15
3.47693e-14
1.47072e-13
4.87393e-13
1.34163e-12
2.98171e-12
5.85414e-12
9.82993e-12
1.52531e-11
2.10716e-11
2.72348e-11
3.1266e-11
2.80651e-11
2.75401e-11
1.74042e-26
2.68079e-25
2.7349e-24
3.07611e-23
3.38945e-21
7.73325e-20
1.19048e-18
1.71237e-17
1.44032e-16
9.38775e-16
4.90265e-15
2.37856e-14
8.90758e-14
2.77546e-13
6.94045e-13
1.45204e-12
2.52136e-12
3.93229e-12
5.35915e-12
6.66091e-12
6.74311e-12
6.90101e-12
5.13967e-12
6.24876e-27
9.88531e-26
1.02438e-24
8.15197e-24
2.10827e-22
4.78341e-21
8.32644e-20
1.43978e-18
1.35852e-17
1.01876e-16
6.20088e-16
3.43064e-15
1.45071e-14
5.07177e-14
1.38744e-13
3.04304e-13
5.42325e-13
8.45645e-13
1.12776e-12
1.35666e-12
1.42022e-12
9.97561e-13
8.08641e-13
2.0338e-27
3.30625e-26
3.48929e-25
2.74301e-24
2.41328e-23
3.26547e-22
5.65895e-21
1.11207e-19
1.16053e-18
9.97927e-18
7.05139e-17
4.40045e-16
2.0907e-15
8.04324e-15
2.35558e-14
5.37472e-14
9.78642e-14
1.50504e-13
2.02439e-13
2.29023e-13
2.0479e-13
1.74894e-13
1.05803e-13
6.01451e-28
1.00852e-26
1.09405e-25
8.94139e-25
6.33447e-24
4.77361e-23
5.37111e-22
8.97475e-21
9.50954e-20
9.04272e-19
7.25671e-18
5.02049e-17
2.64832e-16
1.09791e-15
3.40017e-15
8.02922e-15
1.48848e-14
2.28716e-14
2.66106e-14
3.26562e-14
3.07835e-14
1.76094e-14
1.74881e-14
1.62695e-28
2.83008e-27
3.1788e-26
2.80219e-25
2.04722e-24
1.43825e-23
1.17009e-22
1.13253e-21
9.4427e-21
8.43375e-20
7.06185e-19
5.18187e-18
2.99686e-17
1.33104e-16
4.31907e-16
1.04987e-15
1.96046e-15
2.99235e-15
3.68719e-15
3.3457e-15
2.74103e-15
3.35783e-15
6.61681e-15
4.06402e-29
7.57393e-28
8.85079e-27
7.61392e-26
6.4757e-25
4.90125e-24
3.90022e-23
2.77755e-22
1.72087e-21
1.13775e-20
7.91925e-20
5.37066e-19
2.91674e-18
1.14066e-17
3.85731e-17
9.58749e-17
2.10359e-16
3.27787e-16
3.87731e-16
4.45329e-16
5.81865e-16
1.08764e-15
3.63638e-15
9.69222e-30
1.6962e-28
2.02104e-27
2.0267e-26
1.85784e-25
1.53369e-24
1.24914e-23
8.18156e-23
4.70046e-22
2.53992e-21
1.33221e-20
6.97437e-20
3.18784e-19
1.21242e-18
4.16699e-18
1.06921e-17
1.89925e-17
3.35076e-17
5.5269e-17
1.01104e-16
1.60055e-16
4.05001e-16
1.76566e-15
1.88116e-30
3.65068e-29
4.51909e-28
5.09123e-27
4.90883e-26
4.39049e-25
3.72375e-24
2.40939e-23
1.37992e-22
7.42398e-22
3.44056e-21
1.49387e-20
5.82526e-20
2.07253e-19
6.44914e-19
1.63986e-18
3.63392e-18
6.45836e-18
1.19843e-17
2.7998e-17
6.32457e-17
1.87279e-16
7.58353e-16
4.04739e-31
8.20738e-30
1.10948e-28
1.307e-27
1.34814e-26
1.26711e-25
1.01266e-24
6.64239e-24
3.82535e-23
2.0279e-22
9.12351e-22
3.5657e-21
1.28438e-20
4.29867e-20
1.22732e-19
3.06338e-19
6.80049e-19
1.43081e-18
3.0922e-18
8.10424e-18
2.12819e-17
8.05236e-17
3.20048e-16
7.70861e-32
1.83174e-30
2.73256e-29
3.34109e-28
3.61042e-27
3.41736e-26
2.59047e-25
1.71493e-24
9.91454e-24
5.12417e-23
2.28197e-22
8.7823e-22
3.07301e-21
9.72271e-21
2.66602e-20
6.55729e-20
1.466e-19
3.32958e-19
7.99662e-19
2.33185e-18
7.46924e-18
2.81709e-17
1.34833e-16
1.43196e-32
3.89658e-31
6.25133e-30
7.88498e-29
8.70225e-28
8.0438e-27
6.07456e-26
4.03023e-25
2.32586e-24
1.18572e-23
5.22318e-23
2.02185e-22
6.96824e-22
2.10888e-21
5.65081e-21
1.37065e-20
3.16345e-20
7.44271e-20
1.9604e-19
6.4291e-19
2.25848e-18
1.06473e-17
6.1086e-17
2.7071e-33
7.84033e-32
1.31297e-30
1.69062e-29
1.88033e-28
1.69332e-27
1.2822e-26
8.49803e-26
4.88223e-25
2.47063e-24
1.07443e-23
4.14081e-23
1.38094e-22
4.14794e-22
1.09721e-21
2.64792e-21
6.33616e-21
1.55012e-20
4.63126e-20
1.80313e-19
8.68902e-19
5.1565e-18
3.17011e-17
4.96623e-34
1.49506e-32
2.55564e-31
3.32325e-30
3.6756e-29
3.27825e-28
2.46343e-27
1.62852e-26
9.30239e-26
4.67551e-25
2.00564e-24
7.65689e-24
2.45238e-23
7.45e-23
1.96144e-22
4.76753e-22
1.19191e-21
3.20204e-21
1.17046e-20
5.88798e-20
3.67671e-19
2.29825e-18
1.57493e-17
8.58172e-35
2.70807e-33
4.64897e-32
6.05935e-31
6.61036e-30
5.90859e-29
4.37432e-28
2.87839e-27
1.6322e-26
8.13388e-26
3.43914e-25
1.29984e-24
4.07181e-24
1.23885e-23
3.26699e-23
8.11192e-23
2.16165e-22
6.94654e-22
3.32276e-21
2.15381e-20
1.43426e-19
8.89368e-19
5.81784e-18
0.662652
0.741511
0.874963
0.99945
1
1
1
1
1
1
1
1
1
1
1
1
1
1
1
1
1
1
1
1
0.999531
1
1
1
0.726954
0.823248
0.724546
0.650354
0.0284905
0.024212
0.0109347
0.00648758
7.48714e-08
8.58357e-08
8.97433e-08
1.38265e-07
2.70583e-07
4.30523e-07
7.03035e-07
9.49151e-07
6.31729e-08
8.76316e-08
1.22218e-06
1.97762e-06
1.20432e-09
1.28877e-08
4.86115e-08
3.54041e-07
3.24673e-09
3.1516e-09
2.35522e-09
1.49289e-09
6.11009e-08
3.85991e-08
1.91474e-08
5.50487e-09
6.03447e-08
1.72341e-07
9.3149e-08
3.46547e-08
3.11049e-07
3.80425e-07
2.54145e-07
6.10844e-08
3.41145e-07
3.23085e-07
1.43558e-07
4.08667e-08
1.83401e-08
1.72263e-08
1.50115e-08
1.46763e-08
1.51498e-08
1.73106e-08
1.87314e-08
1.87785e-08
1.29018e-08
1.60669e-08
1.62657e-08
1.58806e-08
8.32523e-09
8.38695e-09
1.01002e-08
9.78536e-09
4.70771e-09
5.21917e-09
5.28258e-09
5.14913e-09
2.40761e-09
2.44457e-09
2.45721e-09
2.31284e-09
9.87535e-10
9.85588e-10
9.30563e-10
8.47786e-10
3.66346e-10
3.40046e-10
3.12247e-10
2.69145e-10
1.00976e-10
9.38876e-11
7.49842e-11
6.12433e-11
2.56472e-11
2.06909e-11
1.73087e-11
1.32991e-11
4.2672e-12
3.6019e-12
2.43734e-12
1.79793e-12
6.77095e-13
4.45872e-13
3.23681e-13
2.23905e-13
7.88076e-14
6.13701e-14
5.27622e-14
5.2234e-14
1.77254e-14
1.93193e-14
2.47234e-14
3.25602e-14
8.99546e-15
1.28539e-14
1.7812e-14
2.59083e-14
5.18706e-15
7.27473e-15
1.18174e-14
2.09641e-14
2.64164e-15
4.10792e-15
7.47477e-15
1.47276e-14
1.21053e-15
2.24625e-15
5.609e-15
1.47899e-14
5.49718e-16
1.10982e-15
4.02776e-15
1.26178e-14
3.24089e-16
9.81172e-16
3.34793e-15
9.30011e-15
1.85212e-16
6.32699e-16
2.40211e-15
7.49479e-15
1.30936e-16
4.81089e-16
1.54322e-15
4.82879e-15
6.79195e-17
2.67958e-16
8.68036e-16
2.51492e-15
3.12822e-17
9.67489e-17
2.78156e-16
6.95138e-16
0.999431
1
1
1
0.999593
0.995074
0.9631
0.432763
0.000169408
0.000263893
0.000267127
0.0636283
0.239868
0.255953
0.188319
0.145201
0.186496
0.812185
0.477515
1
1
1
1
0.999999
0.999999
0.999883
0.99134
0.484378
0.000262333
0.000271216
0.0188651
0.191752
0.251322
0.230161
0.148833
0.275331
0.813586
0.493917
1
1
1
1
1
1
1
0.999997
0.994174
0.573837
0.0574428
0.00997982
0.0518685
0.0611212
0.111412
0.244228
0.451409
0.898177
0.669987
1
1
1
0.999999
0.999999
1
1
1
1
0.999152
0.84327
0.563203
0.45239
0.541723
0.713664
0.860654
0.979186
0.978659
0.828708
1
1
1
0.999999
0.999999
0.999999
1
1
1
1
0.999911
0.998739
0.997406
0.993635
0.986351
0.981359
0.979749
0.978957
0.769687
1
1
1
1
0.999999
0.999999
1
1
1
1
0.999998
0.999996
0.996882
0.991662
0.990936
0.988086
0.968319
0.876959
0.583534
1
1
1
1
1
1
1
1
1
1
0.999999
0.99999
0.999067
0.965446
0.838286
0.614575
0.392663
0.287437
0.281965
0.644255
0.669829
0.708433
0.755359
0.803732
0.84526
0.873012
0.884915
0.885821
0.87244
0.818744
0.710178
0.507162
0.275214
0.0938419
0.000493848
4.01945e-06
0.0886845
0.195983
0.00439744
0.00575603
0.0174667
0.0371512
0.0647109
0.0950667
0.117804
0.126021
0.124684
0.103375
0.0498986
2.15147e-07
3.17134e-07
4.39792e-07
1.31563e-06
2.1458e-06
8.12051e-05
0.0484668
0.100753
1.91348e-07
2.54032e-07
2.78956e-07
2.19243e-07
1.505e-07
1.14475e-07
1.18122e-07
1.28175e-07
1.6759e-07
2.4287e-07
3.20282e-07
4.50098e-07
0.000265677
0.00071674
0.00032226
8.48197e-05
0.000176901
7.09012e-07
7.37586e-07
1.09311e-06
1.16768e-06
1.03315e-06
7.67557e-07
4.64291e-07
3.02261e-07
2.70959e-07
5.32303e-07
8.946e-07
8.46768e-07
1.97313e-06
0.000378799
0.00177743
0.0017138
0.00127734
4.6238e-07
1.54708e-07
1.93261e-06
5.19362e-06
1.97337e-06
1.97577e-06
1.97041e-06
1.66516e-06
9.98045e-07
6.76375e-07
5.3398e-07
1.07527e-06
2.76377e-06
2.76711e-06
1.52212e-06
0.000414972
0.00137601
0.00126007
0.000104186
1.97925e-07
7.19193e-07
7.26707e-06
8.31855e-06
8.89049e-07
1.70408e-06
1.83048e-06
1.83735e-06
1.78061e-06
1.09193e-06
3.53855e-07
5.80859e-07
6.68087e-06
7.57864e-06
5.90294e-06
2.49802e-09
4.28076e-09
4.0742e-09
4.52159e-09
7.60413e-07
1.7882e-06
1.06086e-06
4.02061e-06
1.51552e-09
4.01023e-09
1.97631e-07
6.49459e-07
7.558e-07
5.63954e-07
1.88702e-07
2.72368e-07
9.74748e-07
2.2397e-06
1.76335e-09
3.03826e-09
4.77062e-09
6.22162e-09
2.24034e-07
1.70516e-06
1.82775e-06
2.57978e-07
6.52285e-07
1.93763e-09
1.33165e-09
1.10543e-09
1.24709e-09
1.13508e-09
1.10633e-09
5.6057e-08
7.03075e-08
1.02057e-09
7.15803e-10
9.48923e-10
5.79242e-09
8.55688e-09
1.51107e-08
7.95726e-08
2.17264e-07
5.93007e-07
2.19551e-07
9.30911e-07
1.40051e-08
1.44909e-09
1.50687e-09
1.38724e-09
1.43055e-09
2.8621e-09
1.19405e-08
3.21887e-08
2.30103e-09
3.27167e-09
5.69405e-09
1.06149e-08
1.14921e-08
1.10131e-08
8.9905e-09
5.61505e-09
5.60651e-09
2.47159e-08
1.75278e-06
2.27085e-08
2.14376e-09
2.25184e-09
1.80261e-09
1.74474e-09
1.79776e-09
1.83378e-09
2.45441e-09
3.20951e-09
3.98251e-09
5.9023e-09
9.61604e-09
9.56004e-09
9.54871e-09
8.67467e-09
6.42286e-09
5.38663e-09
1.67765e-08
1.7606e-06
1.76959e-08
7.46867e-09
2.82616e-09
1.61634e-09
1.40513e-09
1.74741e-09
1.84771e-09
2.19302e-09
3.24282e-09
3.33759e-09
3.88604e-09
5.97402e-09
6.29742e-09
6.71508e-09
7.12972e-09
6.97983e-09
5.1225e-09
1.79716e-08
1.68791e-06
1.14207e-08
6.08492e-09
2.80948e-09
1.66392e-09
1.0544e-09
9.21407e-10
1.02746e-09
1.74124e-09
2.28119e-09
2.47571e-09
2.61539e-09
3.16257e-09
3.69717e-09
4.42554e-09
5.44059e-09
5.99943e-09
4.68599e-09
8.62921e-08
1.07399e-06
1.50856e-08
8.76087e-09
3.76158e-09
1.52494e-09
8.96988e-10
7.39392e-10
7.09564e-10
8.47273e-10
1.27691e-09
1.60631e-09
1.7661e-09
1.91731e-09
2.32916e-09
3.08817e-09
4.28576e-09
4.81678e-09
4.19213e-09
1.94535e-07
1.4759e-06
1.31984e-08
9.50787e-09
3.49684e-09
1.0648e-09
6.44419e-10
5.03184e-10
4.51202e-10
4.67292e-10
6.26845e-10
9.05736e-10
1.11656e-09
1.29588e-09
1.68295e-09
2.41734e-09
3.65738e-09
4.09656e-09
3.94032e-09
5.10976e-07
1.57058e-06
7.90216e-09
5.62741e-09
2.89667e-09
1.01333e-09
5.14942e-10
3.3595e-10
2.76924e-10
2.71034e-10
3.33248e-10
5.04285e-10
6.97324e-10
9.11299e-10
1.3237e-09
2.07949e-09
3.38813e-09
3.92278e-09
4.02213e-09
4.98023e-07
1.56203e-06
4.11367e-09
2.81731e-09
1.47005e-09
6.77496e-10
3.38781e-10
2.02981e-10
1.58451e-10
1.55653e-10
1.97675e-10
3.17754e-10
4.75707e-10
7.17105e-10
1.17035e-09
1.98321e-09
3.39799e-09
4.27136e-09
4.16977e-09
2.38866e-07
8.64532e-07
1.72653e-09
1.13271e-09
6.00222e-10
3.07096e-10
1.6242e-10
9.95156e-11
8.13735e-11
8.88404e-11
1.36388e-10
2.33958e-10
3.88019e-10
6.69782e-10
1.18858e-09
2.09391e-09
3.65e-09
5.02932e-09
6.20311e-09
5.11522e-09
1.10077e-07
5.98361e-10
3.76225e-10
1.97264e-10
1.05701e-10
5.82579e-11
4.2001e-11
4.19756e-11
6.28762e-11
1.14253e-10
2.13028e-10
3.97716e-10
7.43655e-10
1.35513e-09
2.40446e-09
4.09381e-09
5.98512e-09
8.58666e-09
1.1295e-08
7.70937e-09
1.70858e-10
1.01638e-10
5.20852e-11
2.95356e-11
1.98764e-11
1.97705e-11
3.1017e-11
5.99979e-11
1.23462e-10
2.47317e-10
4.84147e-10
9.20893e-10
1.66001e-09
2.89062e-09
4.64517e-09
6.93773e-09
1.33367e-08
1.16904e-08
8.49272e-09
3.79702e-11
1.97561e-11
1.14086e-11
7.82967e-12
8.87801e-12
1.61294e-11
3.5159e-11
7.41819e-11
1.62407e-10
3.25697e-10
6.37419e-10
1.19885e-09
2.102e-09
3.46337e-09
5.25097e-09
7.9107e-09
1.74391e-08
2.20324e-08
9.13958e-09
7.4788e-12
3.81014e-12
2.79233e-12
4.00025e-12
9.05595e-12
2.14241e-11
4.86602e-11
1.06213e-10
2.22518e-10
4.3638e-10
8.47252e-10
1.5873e-09
2.65842e-09
4.13569e-09
5.7716e-09
9.35089e-09
3.50671e-08
2.51629e-08
1.22907e-08
9.79932e-13
8.57399e-13
1.82603e-12
5.08809e-12
1.31441e-11
3.14984e-11
7.01827e-11
1.49855e-10
3.07792e-10
6.09095e-10
1.14462e-09
2.04809e-09
3.36396e-09
4.6835e-09
6.54882e-09
1.61942e-08
3.82749e-08
6.40801e-08
1.51843e-08
2.0409e-13
7.27088e-13
2.64376e-12
7.64406e-12
1.90746e-11
4.39274e-11
9.68728e-11
2.04772e-10
4.15249e-10
8.18164e-10
1.52572e-09
2.6747e-09
4.1096e-09
5.3747e-09
9.78903e-09
3.36489e-08
1.05411e-07
7.10584e-08
1.86481e-08
1.41407e-13
9.86544e-13
3.69848e-12
1.02791e-11
2.45671e-11
5.60431e-11
1.19893e-10
2.61289e-10
5.32802e-10
1.05896e-09
1.98798e-09
3.3982e-09
4.80998e-09
6.08545e-09
1.8086e-08
7.00419e-08
1.23541e-07
9.62935e-08
1.6555e-08
1.65047e-13
1.23379e-12
4.40603e-12
1.18032e-11
2.77436e-11
6.41033e-11
1.43228e-10
3.08543e-10
6.42689e-10
1.28585e-09
2.42565e-09
4.01573e-09
5.13099e-09
7.49226e-09
3.12408e-08
1.18195e-07
1.30445e-07
9.51993e-08
1.70229e-08
1.49832e-13
1.35664e-12
4.5054e-12
1.16454e-11
2.84151e-11
6.7044e-11
1.53122e-10
3.37916e-10
7.21923e-10
1.46701e-09
2.7641e-09
4.41184e-09
5.2544e-09
1.08053e-08
4.966e-08
1.18136e-07
1.29003e-07
8.43072e-08
1.02437e-08
1.55791e-13
1.22406e-12
3.74887e-12
1.00876e-11
2.59587e-11
6.41742e-11
1.52721e-10
3.47905e-10
7.65649e-10
1.56864e-09
2.98576e-09
4.72009e-09
6.41528e-09
1.64607e-08
4.54388e-08
8.62851e-08
1.21535e-07
3.79383e-08
6.45347e-09
1.82935e-13
9.08122e-13
2.79117e-12
7.99921e-12
2.18406e-11
5.70193e-11
1.4148e-10
3.33673e-10
7.63674e-10
1.62416e-09
2.99366e-09
4.86604e-09
7.70244e-09
1.46948e-08
3.03952e-08
5.42239e-08
2.78621e-08
1.29361e-08
3.08807e-09
1.3072e-13
6.00084e-13
1.95325e-12
6.03522e-12
1.75162e-11
4.78488e-11
1.22256e-10
2.9791e-10
7.00598e-10
1.51524e-09
2.79213e-09
4.73608e-09
8.35702e-09
1.06468e-08
1.28467e-08
2.00406e-08
7.2219e-09
3.84634e-09
1.04667e-09
8.96294e-14
3.72906e-13
1.3437e-12
4.3863e-12
1.33491e-11
3.6966e-11
9.62039e-11
2.41851e-10
5.71316e-10
1.25085e-09
2.33133e-09
3.98155e-09
6.92413e-09
7.05489e-09
3.83602e-09
1.87096e-09
4.88965e-10
2.82731e-10
3.78651e-10
6.02738e-14
2.38668e-13
8.9587e-13
3.04252e-12
9.24729e-12
2.65782e-11
6.95578e-11
1.71863e-10
3.99907e-10
8.77493e-10
1.64858e-09
2.63022e-09
3.99203e-09
4.205e-09
2.901e-09
1.04854e-09
3.85598e-10
2.17723e-10
1.09532e-10
3.39584e-14
1.44838e-13
5.51063e-13
1.87055e-12
5.71524e-12
1.63312e-11
4.26477e-11
1.02241e-10
2.31908e-10
4.97261e-10
9.20784e-10
1.39828e-09
1.73287e-09
2.09541e-09
1.86583e-09
8.26414e-10
3.70211e-10
1.36839e-10
6.03564e-11
1.85276e-14
7.30345e-14
2.66487e-13
8.81467e-13
2.64327e-12
7.37185e-12
1.90879e-11
4.67084e-11
1.03505e-10
2.12829e-10
3.90834e-10
6.14524e-10
7.15158e-10
8.58308e-10
7.06937e-10
3.46354e-10
1.11332e-10
4.61058e-11
2.96558e-11
7.3661e-15
2.79873e-14
9.82379e-14
3.12324e-13
9.08924e-13
2.5077e-12
6.49824e-12
1.55091e-11
3.44136e-11
6.85408e-11
1.18921e-10
1.80759e-10
2.24684e-10
2.34171e-10
1.70081e-10
6.75573e-11
2.11525e-11
1.39494e-11
8.43754e-12
1.61286e-15
5.73264e-15
1.92903e-14
5.92438e-14
1.68457e-13
4.72013e-13
1.15713e-12
2.77206e-12
5.95141e-12
1.16857e-11
1.98921e-11
2.90362e-11
3.44478e-11
2.79231e-11
1.89089e-11
6.65195e-12
4.40542e-12
1.33838e-12
1.06101e-12
)
;

boundaryField
{
    leftWall
    {
        type            alphaContactAngle;
        contactAngleProperties 
        {
            mercury         
            {
                theta0          90;
            }
            air             
            {
                theta0          90;
            }
            water           
            {
                theta0          90;
            }
        }
        value           nonuniform List<scalar> 
50
(
4.11965e-18
6.22568e-17
8.31225e-17
6.65713e-17
5.29076e-16
2.95899e-16
8.64093e-17
7.04457e-18
7.65963e-19
9.76435e-21
1.01597e-21
1.0279e-21
9.07358e-21
3.45963e-20
5.90838e-20
4.57689e-20
4.51718e-20
1.08331e-15
5.21397e-16
2.50929e-15
1.60118e-14
2.4976e-15
2.93253e-16
3.64871e-17
4.42085e-18
3.99344e-19
2.63912e-20
6.57519e-23
6.911e-24
1.87461e-24
1.0704e-24
6.76563e-25
3.96791e-25
2.10428e-25
1.01013e-25
4.3991e-26
1.74042e-26
6.24876e-27
2.0338e-27
6.01451e-28
1.62695e-28
4.06402e-29
9.69222e-30
1.88116e-30
4.04739e-31
7.70861e-32
1.43196e-32
2.7071e-33
4.96623e-34
8.58172e-35
)
;
    }
    rightWall
    {
        type            alphaContactAngle;
        contactAngleProperties 
        {
            mercury         
            {
                theta0          90;
            }
            air             
            {
                theta0          90;
            }
            water           
            {
                theta0          90;
            }
        }
        value           nonuniform List<scalar> 
50
(
0.159034
0.31094
0.320483
0.439141
0.433913
0.420694
0.433828
0.463755
0.477515
0.493917
0.669987
0.828708
0.769687
0.583534
0.281965
0.195983
0.100753
7.37586e-07
5.19362e-06
8.31855e-06
4.02061e-06
6.52285e-07
9.30911e-07
1.75278e-06
1.7606e-06
1.68791e-06
1.07399e-06
1.4759e-06
1.57058e-06
1.56203e-06
8.64532e-07
1.10077e-07
7.70937e-09
8.49272e-09
9.13958e-09
1.22907e-08
1.51843e-08
1.86481e-08
1.6555e-08
1.70229e-08
1.02437e-08
6.45347e-09
3.08807e-09
1.04667e-09
3.78651e-10
1.09532e-10
6.03564e-11
2.96558e-11
8.43754e-12
1.06101e-12
)
;
    }
    lowerWall
    {
        type            alphaContactAngle;
        contactAngleProperties 
        {
            mercury         
            {
                theta0          90;
            }
            air             
            {
                theta0          90;
            }
            water           
            {
                theta0          90;
            }
        }
        value           nonuniform List<scalar> 
62
(
4.11965e-18
4.22986e-16
8.28075e-15
1.80777e-13
5.48255e-13
1.38533e-12
3.213e-12
6.98274e-12
1.45917e-11
2.97351e-11
5.94378e-11
1.13067e-10
2.18666e-10
4.06829e-10
7.93742e-10
1.49498e-09
2.72203e-09
4.81278e-09
7.95644e-09
3.41298e-08
0.000151129
0.00056701
0.00056862
0.00056862
0.000565786
4.20387e-05
2.26543e-06
1.87943e-05
4.26399e-05
0.00595998
0.360056
0.662652
0.741511
0.874963
0.99945
0.949237
0.949434
0.949485
0.911681
0.0816721
0.169734
0.594626
0.699554
0.949237
0.936849
0.911007
0.866517
0.713584
0.736468
0.824479
0.920106
0.920096
0.863157
0.565806
0.546405
0.628895
0.535851
0.0818193
0.0675578
0.0769226
0.132711
0.159034
)
;
    }
    atmosphere
    {
        type            inletOutlet;
        inletValue      uniform 0;
        value           nonuniform List<scalar> 
46
(
8.58172e-35
2.70807e-33
4.64897e-32
6.05935e-31
6.61036e-30
5.90859e-29
4.37432e-28
2.87839e-27
1.6322e-26
8.13388e-26
3.43914e-25
1.29984e-24
4.07181e-24
1.23885e-23
3.26699e-23
8.11191e-23
2.16165e-22
6.94653e-22
3.32276e-21
2.15381e-20
1.43426e-19
8.89368e-19
0
0
0
0
0
0
0
0
0
0
0
0
0
0
0
0
0
0
0
0
0
0
0
0
)
;
    }
    defaultFaces
    {
        type            empty;
    }
}


// ************************************************************************* //
