/*--------------------------------*- C++ -*----------------------------------*\
  =========                 |
  \\      /  F ield         | OpenFOAM: The Open Source CFD Toolbox
   \\    /   O peration     | Website:  https://openfoam.org
    \\  /    A nd           | Version:  13
     \\/     M anipulation  |
\*---------------------------------------------------------------------------*/
FoamFile
{
    format      ascii;
    class       volScalarField;
    location    "1";
    object      alpha.mercury;
}
// * * * * * * * * * * * * * * * * * * * * * * * * * * * * * * * * * * * * * //

dimensions      [];

internalField   nonuniform List<scalar> 
2268
(
1
1
1
1
1
1
1
1
1
1
1
1
1
1
1
1
1
1
1
1
0.999849
0.999433
0.999431
1
1
1
1
1
1
1
1
1
1
1
1
1
1
1
1
1
1
1
1
0.999998
0.999854
0.999434
1
1
1
1
1
1
1
1
1
1
1
1
1
1
1
1
1
1
1
1
1
1
0.999958
1
1
1
1
1
1
1
1
1
1
1
1
1
1
1
1
1
1
1
1
1
0.999999
0.999998
1
1
1
1
1
1
1
1
1
1
1
1
1
1
1
1
0.999821
0.999319
0.998818
0.998208
0.996494
0.990899
0.986191
1
1
1
1
1
1
1
0.993982
0.956366
0.899303
0.836491
0.776704
0.72417
0.679158
0.635153
0.593701
0.561611
0.539215
0.524675
0.51053
0.480753
0.436801
0.420107
1
1
1
1
1
0.92159
0.695531
0.441983
0.264891
0.158621
0.092574
0.0510134
0.0245903
0.00690862
3.63928e-21
-2.02294e-14
-4.30584e-13
-5.97642e-30
1.69589e-24
9.07368e-12
5.21643e-07
-0.000331823
0.00810078
1
1
1
0.901267
0.498184
0.146647
0.0166032
4.67021e-24
3.66185e-25
7.51306e-24
1.96083e-23
5.00917e-23
2.03791e-23
9.27919e-24
-9.03631e-17
9.03639e-17
-1.6949e-12
7.44122e-12
1.59662e-08
3.31035e-05
0.0125237
0.0529922
0.0527006
0.0367153
0.0360489
0.0363351
0.0796804
0.19248
0.214689
0.175316
0.079893
0.0798977
0.135221
0.417999
0.412792
0.291411
0.293484
0.65763
0.688737
0.688681
0.687376
0.688938
0.036447
0.0677152
0.104555
0.149337
0.26115
0.377191
0.377508
0.35571
0.218738
0.437675
0.790374
0.769898
0.544997
0.399409
0.478987
0.669915
0.681083
0.668057
0.688938
0.0354993
0.113742
0.112093
0.0754071
0.0276043
0.0513965
0.189102
0.356669
0.499273
0.606773
0.795739
0.86509
0.861138
0.72313
0.377352
0.366644
0.431577
0.647048
0.679483
0.0350148
0.0321405
0.0116308
0.000146644
0.000188544
0.000159998
0.000724242
0.0694438
0.240196
0.310813
0.443091
0.85654
0.863847
0.847708
0.368971
0.209185
0.291877
0.664911
0.537368
0.0371556
0.00552115
1.64178e-08
1.32306e-08
3.52627e-06
1.35847e-05
6.79974e-05
0.000231694
0.000262973
0.00136031
0.037248
0.484848
0.747836
0.713929
0.335469
0.206292
0.253458
0.659777
0.182516
0.00838785
0.00150515
1.38368e-08
6.63584e-07
1.22283e-08
-8.44697e-10
1.18205e-21
2.98022e-05
0.000185106
0.000237068
0.000238389
0.0228639
0.367374
0.68944
0.552536
0.246474
0.359287
0.557608
0.0561731
1.61742e-07
1.59912e-07
5.14166e-07
1.40868e-06
4.19181e-07
3.96371e-08
-4.80767e-13
1.00914e-22
5.49111e-06
5.2644e-05
7.0199e-06
0.0102583
0.442531
0.675905
0.664328
0.546766
0.547604
0.0316824
0.0385525
0.000714309
2.51147e-07
7.93812e-07
1.30508e-06
3.43134e-07
1.32153e-07
1.45511e-08
-1.88983e-24
1.33575e-12
6.59343e-08
-7.07029e-08
0.0184049
0.336231
0.42596
0.404517
0.415912
0.442658
0.0254658
0.0244722
0.992262
0.748072
0.397917
0.101749
0.00464426
5.53336e-09
-1.24141e-12
1.91009e-13
1.47598e-12
4.09474e-12
7.40878e-12
8.44812e-12
8.1095e-12
5.15811e-12
4.14761e-12
1.28967e-11
6.73113e-11
1.92688e-10
-2.59971e-13
0.00531187
0.0512663
0.0545145
0.0335853
0.297446
0.043227
1.26853e-08
4.89759e-09
1.35479e-09
4.99157e-09
3.10652e-10
2.32923e-13
1.12058e-11
2.17389e-11
3.16192e-11
3.57366e-11
3.16705e-11
2.39817e-11
1.98794e-11
4.13209e-11
1.22944e-10
1.30433e-10
7.27932e-07
1.07571e-05
2.63537e-10
5.35753e-10
4.51364e-10
6.21552e-09
6.19348e-09
1.09902e-08
3.68606e-09
3.76402e-09
1.13229e-09
1.59119e-11
1.14755e-11
2.78228e-11
4.69118e-11
5.96883e-11
5.85768e-11
5.17972e-11
5.00572e-11
8.59697e-11
1.31821e-09
6.53029e-09
9.94048e-09
1.14927e-08
5.23667e-10
6.88407e-09
5.43391e-09
3.18917e-09
4.24718e-09
4.53326e-09
7.77213e-09
2.75752e-09
1.14314e-09
2.12818e-10
1.47305e-12
2.0595e-12
2.05032e-12
1.95086e-12
2.31027e-12
2.33327e-12
7.86637e-11
2.41289e-09
7.59487e-09
8.94664e-09
8.93498e-09
5.71987e-09
9.36259e-10
5.15012e-10
6.32512e-10
4.63008e-10
5.24681e-10
2.21421e-09
3.88813e-09
3.04984e-09
1.39715e-09
4.51905e-10
6.84044e-11
5.83271e-13
5.38185e-13
5.54754e-13
1.84329e-12
3.08433e-10
2.633e-09
4.99152e-09
5.34456e-09
5.36311e-09
3.78444e-09
2.16352e-09
9.94343e-10
4.25158e-10
4.15822e-10
5.50314e-10
7.31954e-10
8.92874e-10
1.68214e-09
2.01888e-09
1.37524e-09
7.80122e-10
1.89868e-10
1.96325e-11
4.03851e-13
4.57319e-13
4.7725e-11
9.87559e-10
3.1933e-09
4.13153e-09
4.16595e-09
2.60447e-09
1.02317e-09
4.78283e-10
3.13262e-10
2.77305e-10
2.82434e-10
3.18222e-10
4.02309e-10
5.27591e-10
6.87225e-10
8.67671e-10
8.76359e-10
6.93297e-10
4.13215e-10
9.53822e-11
8.45777e-12
1.45811e-12
1.07458e-10
1.00642e-09
2.28241e-09
2.71119e-09
2.45966e-09
1.0518e-09
3.48918e-10
1.61863e-10
1.42581e-10
1.3842e-10
1.55487e-10
1.63374e-10
1.61748e-10
1.38454e-10
1.04143e-10
6.49457e-11
3.09645e-10
3.02809e-10
2.58927e-10
1.73955e-10
3.89996e-11
9.92915e-12
1.01909e-10
7.30939e-10
1.41995e-09
1.64407e-09
1.17341e-09
5.2504e-10
3.09362e-10
1.49313e-10
8.82987e-11
7.68474e-11
8.10656e-11
8.4393e-11
6.83569e-11
4.1007e-11
2.6039e-11
2.13691e-11
2.14552e-11
2.85062e-11
2.70721e-11
3.03926e-11
3.47218e-11
1.02207e-11
6.73235e-11
5.38527e-10
1.01441e-09
1.04509e-09
7.01301e-10
3.97505e-10
2.17714e-10
7.69228e-11
6.28145e-11
4.57531e-11
3.90789e-11
3.48261e-11
2.79578e-11
1.83966e-11
1.13732e-11
8.30887e-12
7.66239e-12
7.87823e-12
5.64841e-13
5.32416e-13
9.66892e-13
2.01432e-12
1.10825e-11
2.89654e-10
9.58257e-10
1.12411e-09
7.17776e-10
2.99019e-10
1.10365e-10
7.33133e-11
3.01428e-11
1.77368e-11
1.51545e-11
1.34715e-11
1.0986e-11
8.58105e-12
6.5691e-12
5.26963e-12
4.58843e-12
3.97163e-12
3.57492e-12
3.68741e-14
1.40362e-15
3.36925e-14
1.01725e-12
2.77182e-11
3.555e-10
1.00157e-09
1.14005e-09
8.47062e-10
2.69965e-10
8.99876e-11
4.17272e-11
2.07327e-11
1.30429e-11
1.04244e-11
9.63411e-12
7.73177e-12
5.86955e-12
4.91702e-12
4.36917e-12
3.66776e-12
3.05285e-12
2.21173e-12
4.6266e-16
5.70822e-16
4.87217e-14
1.24308e-12
2.20365e-11
2.0449e-10
8.14925e-10
9.96974e-10
9.00383e-10
5.16324e-10
3.33102e-10
2.59372e-10
1.92113e-10
1.41063e-10
5.45979e-11
1.99379e-11
9.88978e-12
7.07529e-12
5.24771e-12
4.5003e-12
3.86125e-12
3.22689e-12
2.47803e-12
2.58924e-17
2.72335e-16
1.92617e-14
7.27897e-13
7.81124e-12
6.09731e-11
3.33387e-10
6.0957e-10
6.45264e-10
5.34079e-10
4.44856e-10
4.24485e-10
4.47077e-10
4.47692e-10
4.22548e-10
2.87301e-10
1.11325e-10
3.35968e-11
1.53294e-11
1.01221e-11
7.61658e-12
5.15692e-12
3.1629e-12
9.01447e-18
5.20881e-17
5.93381e-15
2.49869e-13
3.46274e-12
2.08895e-11
9.10585e-11
2.37075e-10
3.70586e-10
4.26459e-10
3.89005e-10
3.71042e-10
3.88956e-10
4.24881e-10
4.94141e-10
5.09371e-10
4.95466e-10
3.58619e-10
1.39969e-10
5.06495e-11
2.78433e-11
1.88447e-11
1.15642e-11
2.79937e-18
1.01656e-17
2.63489e-15
6.16832e-14
1.14525e-12
8.15632e-12
3.1445e-11
5.53917e-11
1.39134e-10
2.00202e-10
1.85074e-10
1.52958e-10
1.77844e-10
2.24394e-10
2.85446e-10
3.84061e-10
4.70015e-10
4.82965e-10
4.49988e-10
2.58831e-10
9.36765e-11
4.7176e-11
2.80924e-11
7.07208e-19
1.76036e-18
7.11273e-16
1.55445e-14
3.10485e-13
2.7281e-12
1.38696e-11
2.67429e-11
5.48045e-11
7.22727e-11
4.63769e-11
5.47518e-11
7.079e-11
8.75344e-11
8.80104e-11
9.10856e-11
1.7186e-10
2.76826e-10
3.69771e-10
3.57055e-10
2.17856e-10
8.78056e-11
5.363e-11
1.40693e-19
2.15432e-19
1.26875e-16
3.71204e-15
7.13066e-14
7.70535e-13
4.72515e-12
1.29705e-11
2.39507e-11
3.92039e-11
2.51006e-11
1.95801e-11
2.5757e-11
3.10222e-11
2.79522e-11
1.94388e-11
3.19995e-11
6.82839e-11
9.74877e-11
1.66062e-10
1.56462e-10
9.92587e-11
4.32691e-11
2.0621e-20
1.81678e-20
1.51281e-17
7.44139e-16
1.41147e-14
1.85477e-13
1.38152e-12
5.05787e-12
8.47564e-12
1.60201e-11
1.10452e-11
7.35669e-12
8.87219e-12
9.98497e-12
9.01172e-12
6.11992e-12
8.18584e-12
1.61155e-11
2.32677e-11
2.963e-11
3.57689e-11
3.06831e-11
2.03614e-11
2.04512e-21
1.1164e-21
1.25513e-18
1.12478e-16
2.26026e-15
3.3528e-14
2.9681e-13
1.40215e-12
2.86633e-12
5.20186e-12
3.7706e-12
2.56739e-12
2.89885e-12
3.0787e-12
2.80824e-12
2.27672e-12
2.6263e-12
4.26445e-12
6.80805e-12
8.01737e-12
8.71137e-12
6.79992e-12
4.58414e-12
1.00216e-23
5.58665e-24
7.28295e-21
3.66844e-18
9.85954e-17
4.65522e-15
4.99116e-14
2.66469e-13
7.32326e-13
1.24083e-12
9.89996e-13
7.9083e-13
8.88784e-13
9.44213e-13
9.0013e-13
8.66764e-13
9.37001e-13
1.42047e-12
2.40845e-12
2.94874e-12
2.98064e-12
2.40579e-12
1.65124e-12
9.60214e-25
1.01177e-24
1.15926e-21
5.66027e-19
1.42343e-17
1.3005e-16
6.18517e-15
4.46679e-14
1.51594e-13
2.2146e-13
2.20705e-13
2.13639e-13
2.57183e-13
2.94644e-13
3.08909e-13
3.52042e-13
3.85643e-13
5.51049e-13
9.80588e-13
1.3e-12
1.38681e-12
1.26842e-12
9.71777e-13
8.99737e-26
1.5888e-25
1.85897e-22
4.70511e-20
7.31898e-19
2.57056e-17
6.72456e-16
5.41208e-15
2.16539e-14
2.99726e-14
3.53831e-14
5.33975e-14
7.28872e-14
9.42356e-14
1.12343e-13
1.39566e-13
1.64098e-13
2.19706e-13
4.09358e-13
5.69662e-13
6.26027e-13
5.90444e-13
5.18115e-13
8.43261e-27
2.45856e-26
2.45382e-23
6.49258e-21
1.2537e-19
2.69417e-18
7.64943e-17
5.01148e-16
2.84248e-15
4.8959e-15
6.6656e-15
1.10381e-14
2.09802e-14
3.09177e-14
4.10289e-14
5.43592e-14
5.89235e-14
8.96214e-14
1.67018e-13
2.3586e-13
2.66415e-13
2.60943e-13
2.2772e-13
1.64984e-29
3.08242e-27
1.69005e-24
4.9622e-22
1.58256e-20
2.3863e-19
5.30911e-18
5.56225e-17
3.81301e-16
7.78294e-16
1.36224e-15
2.7203e-15
4.96389e-15
8.00281e-15
1.23178e-14
1.65886e-14
2.12749e-14
3.44941e-14
6.4453e-14
9.09881e-14
1.03769e-13
1.00103e-13
9.50763e-14
-2.41094e-28
3.00286e-28
7.62696e-26
2.4472e-23
1.50374e-21
2.53656e-20
4.14114e-19
4.53717e-18
3.67169e-17
9.91366e-17
2.41067e-16
6.21507e-16
1.25492e-15
2.268e-15
3.25545e-15
5.11946e-15
7.05608e-15
1.22875e-14
2.30009e-14
3.20499e-14
3.66636e-14
3.70527e-14
3.37596e-14
-8.69221e-29
-5.20878e-30
3.14027e-27
1.04873e-24
1.24832e-22
2.37549e-21
3.73102e-20
4.05211e-19
3.33208e-18
1.23476e-17
3.83421e-17
1.14743e-16
2.70595e-16
5.30457e-16
8.51645e-16
1.38318e-15
2.12256e-15
3.98679e-15
7.48547e-15
1.00854e-14
1.13859e-14
1.06027e-14
1.02166e-14
-2.04815e-29
-1.17325e-29
2.22643e-28
5.06796e-26
9.82971e-24
2.03012e-22
3.08737e-21
3.53753e-20
2.94116e-19
1.40096e-18
5.2333e-18
1.79768e-17
4.68935e-17
1.01291e-16
1.83542e-16
3.27932e-16
5.78087e-16
1.16974e-15
1.8853e-15
2.76401e-15
3.07191e-15
3.04255e-15
2.48785e-15
-3.77289e-30
-3.3421e-30
2.19513e-29
2.70199e-27
6.95585e-25
1.50759e-23
2.30158e-22
2.86258e-21
2.48578e-20
1.39901e-19
6.05054e-19
2.37076e-18
6.81603e-18
1.64971e-17
3.37863e-17
6.98137e-17
1.38211e-16
2.87431e-16
4.71411e-16
6.48643e-16
7.19378e-16
5.78948e-16
5.10748e-16
-5.77779e-31
-6.40959e-31
1.97519e-30
1.29569e-28
4.0955e-26
9.38814e-25
1.5077e-23
2.05902e-22
1.92071e-21
1.21377e-20
5.90733e-20
2.63159e-19
8.3509e-19
2.32241e-18
5.52305e-18
1.30979e-17
2.82137e-17
5.91349e-17
9.58709e-17
1.26806e-16
1.2168e-16
1.18271e-16
7.68222e-17
-7.59448e-32
-9.72775e-32
1.47786e-31
5.21189e-30
1.92882e-27
4.88163e-26
8.36958e-25
1.27297e-23
1.29953e-22
9.06422e-22
4.87642e-21
2.47302e-20
8.72507e-20
2.86507e-19
7.96418e-19
2.11679e-18
4.83368e-18
1.01368e-17
1.60664e-17
2.05749e-17
2.07961e-17
1.25601e-17
9.14479e-18
-8.74282e-33
-1.2389e-32
8.41264e-33
1.94016e-31
7.24837e-29
2.12808e-27
3.91408e-26
6.67732e-25
7.53296e-24
5.80362e-23
3.42882e-22
1.99e-21
7.9074e-21
3.11528e-20
9.98329e-20
2.89854e-19
6.89895e-19
1.42212e-18
2.29079e-18
2.73134e-18
2.25782e-18
1.73284e-18
8.39466e-19
-8.94489e-34
-1.36517e-33
2.5001e-34
7.70487e-33
2.2097e-30
7.82875e-29
1.56141e-27
2.99096e-26
3.7398e-25
3.20456e-24
2.08536e-23
1.393e-22
6.32605e-22
2.97474e-21
1.07479e-20
3.33569e-20
8.19591e-20
1.69474e-19
2.2712e-19
2.97529e-19
2.59502e-19
1.02347e-19
6.33248e-20
-8.22918e-35
-1.32751e-34
-1.68521e-35
3.46036e-34
5.55655e-32
2.43968e-30
5.44365e-29
1.16902e-27
1.61498e-26
1.54951e-25
1.12126e-24
8.62067e-24
4.54022e-23
2.51783e-22
1.00503e-21
3.28108e-21
8.21589e-21
1.68259e-20
2.36684e-20
2.01256e-20
1.09997e-20
9.11487e-21
3.1044e-21
-6.8763e-36
-1.15605e-35
-3.91247e-36
1.55336e-35
1.16182e-33
6.46698e-32
1.70417e-30
4.10567e-29
6.22134e-28
6.6942e-27
5.44586e-26
4.76444e-25
2.7022e-24
1.4331e-23
6.15344e-23
2.06411e-22
6.1194e-22
1.2375e-21
1.50735e-21
1.28356e-21
1.09506e-21
4.7654e-22
1.06838e-22
-5.26552e-37
-9.12478e-37
-4.38713e-37
5.65202e-37
2.03526e-35
1.46583e-33
4.91144e-32
1.31734e-30
2.16314e-29
2.57227e-28
2.34909e-27
2.2733e-26
1.31774e-25
7.1649e-25
3.52552e-24
1.26178e-23
2.65412e-23
5.46342e-23
8.08618e-23
9.52646e-23
5.54208e-23
1.67435e-23
1.60672e-24
-3.72508e-38
-6.59624e-38
-3.77977e-38
1.51947e-38
3.00907e-37
2.80384e-35
1.28487e-33
3.72179e-32
6.52209e-31
8.40384e-30
8.60926e-29
9.08054e-28
6.08495e-27
4.21962e-26
2.2339e-25
8.16525e-25
2.1866e-24
3.81994e-24
4.77159e-24
4.52838e-24
2.0457e-24
3.34314e-25
6.72154e-26
-2.45276e-39
-4.40795e-39
-2.7725e-39
1.96735e-40
3.63621e-39
4.24177e-37
2.82374e-35
8.78258e-34
1.64244e-32
2.40658e-31
2.87345e-30
3.30581e-29
2.73904e-28
2.22322e-27
1.1977e-26
4.36822e-26
1.24378e-25
1.92193e-25
2.06835e-25
1.58962e-25
5.10859e-26
9.48467e-27
1.776e-26
-1.51348e-40
-2.74597e-40
-1.80974e-40
-1.98587e-41
3.09995e-41
4.81397e-39
5.49409e-37
1.86961e-35
3.80488e-34
7.21074e-33
1.00597e-31
1.16718e-30
1.06326e-29
9.69016e-29
5.19496e-28
1.90302e-27
5.53957e-27
8.83878e-27
8.26783e-27
4.82219e-27
1.34933e-27
1.54892e-27
7.17317e-27
-8.80726e-42
-1.60679e-41
-1.07809e-41
-2.44092e-42
-5.60114e-44
5.35449e-41
1.11687e-38
4.18998e-37
9.24119e-36
2.23615e-34
3.40189e-33
3.71234e-32
3.59215e-31
3.65466e-30
1.95958e-29
7.40966e-29
2.0427e-28
3.55118e-28
2.91443e-28
1.54604e-28
1.32255e-28
5.43988e-28
3.19766e-27
-4.86146e-43
-8.89008e-43
-5.95908e-43
-1.7612e-43
-1.31729e-44
1.17322e-42
2.31137e-40
9.60043e-39
2.29317e-37
6.12195e-36
1.01183e-34
1.15634e-33
1.26474e-32
1.27635e-31
7.10986e-31
2.80623e-30
7.18596e-30
1.24645e-29
9.87817e-30
1.09926e-29
4.30101e-29
2.62775e-28
1.6196e-27
-2.55809e-44
-4.67629e-44
-3.09167e-44
-1.01657e-44
3.11627e-45
1.43464e-43
6.80831e-42
2.60994e-40
6.40118e-39
1.64787e-37
2.98349e-36
4.08028e-35
4.80925e-34
4.35964e-33
2.55115e-32
1.02795e-31
2.57194e-31
4.44314e-31
6.51544e-31
2.77671e-30
1.82214e-29
1.15388e-28
7.82578e-28
-1.28753e-45
-2.3484e-45
-1.51755e-45
-4.88838e-46
1.11973e-45
3.03707e-44
6.59402e-43
1.48887e-41
2.89255e-40
5.97648e-39
1.03296e-37
1.51737e-36
1.75658e-35
1.47927e-34
9.01209e-34
3.76269e-33
1.08925e-32
2.99015e-32
1.42739e-31
1.02687e-30
7.08302e-30
4.38902e-29
2.83157e-28
-0.000146288
0.000158091
0.000376779
0.000549699
2.68045e-09
1.06176e-09
1.0285e-09
1.11734e-09
2.95517e-09
1.5615e-09
1.23803e-09
9.78401e-10
6.45289e-10
7.20023e-10
7.72714e-10
1.06052e-09
1.11002e-09
1.13879e-09
1.29851e-09
1.54602e-09
8.6114e-10
8.66748e-10
8.38402e-10
9.03557e-10
4.82383e-11
4.28354e-11
4.02365e-11
4.01941e-11
2.84764e-11
3.47323e-11
3.8197e-11
4.01392e-11
1.0448e-11
1.35564e-11
1.57886e-11
1.74207e-11
3.40863e-12
3.41727e-12
3.55089e-12
3.98237e-12
1.93455e-12
1.76418e-12
1.59906e-12
1.46669e-12
2.04916e-12
1.7044e-12
1.48818e-12
1.36461e-12
2.31737e-12
2.20407e-12
1.84132e-12
1.58673e-12
6.3643e-12
4.45679e-12
3.15401e-12
2.11778e-12
1.90558e-11
1.53439e-11
1.10662e-11
7.71727e-12
3.0796e-11
2.41428e-11
1.89902e-11
1.40865e-11
2.82194e-11
2.50902e-11
2.10861e-11
1.66816e-11
1.26085e-11
8.70516e-12
7.19272e-12
6.21775e-12
3.53324e-12
3.18302e-12
2.7401e-12
2.391e-12
1.33916e-12
1.27392e-12
1.24246e-12
1.18885e-12
8.07871e-13
7.69684e-13
7.28271e-13
7.02849e-13
4.56963e-13
4.139e-13
3.7656e-13
3.58098e-13
2.04282e-13
1.94793e-13
1.79522e-13
1.68442e-13
8.92988e-14
7.98256e-14
7.42074e-14
6.68416e-14
2.94783e-14
2.7577e-14
2.45644e-14
2.1405e-14
9.55298e-15
8.05012e-15
6.98896e-15
5.78672e-15
2.1749e-15
1.91714e-15
1.40268e-15
1.08359e-15
4.49294e-16
3.29447e-16
2.58706e-16
1.86376e-16
5.90141e-17
4.65944e-17
2.78222e-17
1.86511e-17
7.10577e-18
3.98141e-18
2.49999e-18
1.37492e-18
5.03686e-19
2.889e-19
1.57014e-19
9.12333e-20
2.63648e-20
8.36238e-21
2.9576e-21
1.29869e-21
4.13973e-22
1.51316e-22
6.00281e-23
1.74358e-23
4.10129e-24
1.47175e-24
1.32403e-24
1.5908e-24
1.59309e-25
2.63919e-25
4.40488e-25
8.50143e-25
7.25455e-26
1.26124e-25
3.16854e-25
8.46911e-25
2.99077e-26
6.07809e-26
2.23701e-25
7.05623e-25
1.73872e-26
5.2916e-26
1.80485e-25
5.00181e-25
9.70356e-27
3.30262e-26
1.24426e-25
3.84273e-25
6.63462e-27
2.41295e-26
7.62949e-26
2.34444e-25
3.32982e-27
1.29185e-26
4.10245e-26
1.16499e-25
1.49775e-27
4.56249e-27
1.2914e-26
3.16559e-26
0.00043157
8.98098e-08
1.26827e-07
1.3111e-07
2.52937e-07
6.0889e-07
2.74898e-07
5.64044e-12
2.58761e-08
2.14223e-07
1.15105e-06
0.0428757
0.152273
0.158474
0.191121
0.224837
0.148059
0.0282549
0.0154628
8.87523e-10
4.96759e-09
1.57973e-09
4.55462e-08
5.43292e-07
6.41885e-07
6.2832e-07
1.6898e-07
1.89499e-07
8.45971e-05
0.000322079
0.00501508
0.0441436
0.12922
0.193818
0.176091
0.0398411
0.0137633
0.0113654
8.70683e-10
8.32179e-10
9.05604e-10
9.18334e-10
2.74547e-08
2.19938e-07
4.68576e-07
3.24358e-07
1.0277e-08
4.59226e-06
0.000432594
0.00218091
0.00989552
0.0218459
0.0313968
0.00437544
5.0929e-06
-1.11231e-05
0.000823445
1.56663e-09
3.3069e-09
9.91627e-09
1.44515e-08
1.44273e-08
3.65312e-08
9.16878e-08
1.16938e-07
9.61413e-08
1.03178e-07
1.86679e-05
0.000510905
0.000927003
8.98312e-07
4.65074e-06
4.00205e-06
5.36037e-06
0.000893964
0.000890553
3.47906e-09
6.6792e-09
2.40437e-08
3.31275e-08
3.3521e-08
3.30736e-08
2.40068e-08
2.02852e-08
2.62422e-08
1.72985e-07
8.30612e-07
8.72594e-07
8.81537e-07
4.17663e-06
7.83373e-05
6.32446e-05
1.24534e-05
0.000242972
0.000891107
1.74272e-09
2.43142e-09
3.84566e-09
1.29189e-08
2.61737e-08
2.89632e-08
2.12596e-08
1.7762e-08
1.70019e-08
1.64517e-08
1.59762e-08
3.56133e-06
0.000117148
0.00015219
0.000165769
8.70672e-05
1.58451e-05
1.69426e-05
0.000860821
4.05669e-11
4.04275e-11
3.96395e-11
3.90872e-11
3.96395e-11
4.04266e-11
7.20715e-09
3.3893e-08
4.15273e-08
3.98909e-08
3.77233e-07
8.4591e-06
9.16242e-06
-3.79346e-27
-4.16363e-18
4.20984e-16
9.0451e-07
0.000103208
0.00101332
4.08566e-11
4.08548e-11
3.93763e-11
3.91952e-11
1.74522e-10
1.03692e-09
1.85264e-09
2.04035e-09
2.3661e-09
1.84283e-09
9.53686e-10
4.46157e-14
7.15603e-17
3.87508e-08
9.58907e-08
9.43373e-08
8.47727e-08
0.000187681
0.000836658
1.86193e-11
1.91604e-11
1.79621e-11
1.39697e-11
7.94482e-12
2.153e-12
-2.61279e-15
-2.21142e-15
-2.15952e-15
-1.4308e-15
-4.33855e-16
9.26538e-10
2.67282e-08
1.01008e-07
1.14454e-07
4.66162e-07
1.46476e-06
2.40283e-14
3.07341e-16
4.19695e-12
4.22477e-12
4.06767e-12
3.79704e-12
3.44208e-12
2.93765e-12
2.25857e-12
1.63302e-12
1.23988e-12
9.34634e-13
6.40385e-13
1.64085e-14
1.62152e-15
-3.31705e-16
5.19654e-31
2.10279e-17
1.34561e-08
1.78498e-15
1.6665e-15
1.32138e-12
1.18067e-12
1.11147e-12
1.08617e-12
1.2621e-12
1.36805e-12
1.37042e-12
1.27939e-12
1.0307e-12
7.42696e-13
4.69769e-13
2.55883e-13
1.38855e-13
9.9935e-14
5.91298e-14
3.1157e-14
1.67761e-14
7.98612e-15
5.03533e-15
1.26932e-12
1.10136e-12
8.6448e-13
7.19301e-13
6.48342e-13
5.80108e-13
5.16927e-13
4.18474e-13
3.56173e-13
3.05569e-13
2.64406e-13
2.21714e-13
1.76769e-13
1.36322e-13
9.86277e-14
6.19938e-14
4.20799e-14
2.37729e-14
6.47315e-15
1.22995e-12
9.09454e-13
7.55284e-13
6.81969e-13
6.3238e-13
5.80807e-13
5.20862e-13
4.35608e-13
3.68104e-13
3.16907e-13
2.77567e-13
2.32639e-13
1.83099e-13
1.49356e-13
1.19931e-13
9.15817e-14
6.50882e-14
3.83519e-14
8.04372e-15
1.45488e-12
8.30139e-13
5.65718e-13
5.12966e-13
4.72719e-13
4.25528e-13
3.97601e-13
3.63747e-13
3.02534e-13
2.31193e-13
1.853e-13
1.61182e-13
1.48474e-13
1.38089e-13
1.171e-13
9.56147e-14
7.43429e-14
4.67973e-14
1.10457e-14
3.85861e-12
8.55343e-13
3.50117e-13
2.39993e-13
2.09294e-13
2.14352e-13
1.9585e-13
1.62547e-13
1.36734e-13
1.14636e-13
9.11696e-14
7.57443e-14
6.93222e-14
7.16827e-14
8.32642e-14
8.73759e-14
7.55098e-14
5.04514e-14
1.25715e-14
8.55332e-12
2.27288e-12
6.11182e-13
2.03582e-13
1.10411e-13
8.82026e-14
9.7331e-14
9.29518e-14
7.22063e-14
6.02165e-14
5.13492e-14
3.60498e-14
3.61917e-14
3.81051e-14
5.46699e-14
6.67087e-14
7.15239e-14
5.11671e-14
1.33805e-14
9.80257e-12
3.34193e-12
1.13759e-12
3.14215e-13
1.12039e-13
5.92712e-14
3.72177e-14
3.37656e-14
2.8441e-14
2.64083e-14
2.80646e-14
2.29052e-14
2.1944e-14
2.65742e-14
3.93241e-14
5.08129e-14
6.10755e-14
5.0894e-14
1.38829e-14
4.9135e-12
3.21893e-12
1.43157e-12
4.7247e-13
1.51282e-13
6.66681e-14
3.27226e-14
2.03505e-14
1.62793e-14
1.82397e-14
2.02953e-14
1.73445e-14
1.70357e-14
1.93925e-14
2.78575e-14
3.44566e-14
5.15709e-14
4.74053e-14
1.4051e-14
1.99715e-12
1.46955e-12
8.24286e-13
4.64544e-13
1.84224e-13
7.88408e-14
3.42438e-14
1.58992e-14
1.15024e-14
1.18819e-14
1.21331e-14
1.083e-14
1.03954e-14
1.2293e-14
1.9124e-14
2.84814e-14
4.29092e-14
4.03275e-14
1.24939e-14
1.01361e-12
7.30887e-13
4.73401e-13
2.6654e-13
1.27362e-13
6.32708e-14
3.00488e-14
1.39956e-14
7.74304e-15
6.30761e-15
6.09604e-15
5.77677e-15
5.72245e-15
7.31323e-15
1.29349e-14
2.18017e-14
3.52384e-14
3.2368e-14
1.00656e-14
5.94048e-13
4.54635e-13
2.61418e-13
1.21671e-13
6.75846e-14
3.56792e-14
1.77252e-14
8.56095e-15
4.42817e-15
3.00845e-15
2.82733e-15
2.81197e-15
3.01947e-15
4.42202e-15
9.07431e-15
1.68801e-14
2.85362e-14
2.53195e-14
8.76375e-15
2.93979e-13
2.19759e-13
1.35677e-13
6.06745e-14
3.05019e-14
1.53974e-14
7.72388e-15
3.82726e-15
2.00016e-15
1.28329e-15
1.22194e-15
1.30688e-15
1.59164e-15
2.83274e-15
6.65247e-15
1.35877e-14
2.46236e-14
1.9393e-14
7.3524e-15
1.32064e-13
9.28177e-14
5.29941e-14
2.58826e-14
1.24485e-14
5.8442e-15
2.80852e-15
1.40462e-15
7.52974e-16
5.04237e-16
5.17148e-16
6.06491e-16
8.79255e-16
1.94016e-15
4.8919e-15
8.65975e-15
1.71976e-14
1.59902e-14
4.75524e-15
4.85311e-14
3.19852e-14
1.74051e-14
8.7781e-15
4.11124e-15
1.81695e-15
8.3608e-16
4.26323e-16
2.22454e-16
1.91111e-16
2.21264e-16
2.83692e-16
4.49054e-16
1.03298e-15
2.82381e-15
5.78983e-15
1.19695e-14
1.10005e-14
3.82759e-15
1.45533e-14
8.94623e-15
4.55092e-15
2.25933e-15
9.89918e-16
4.31099e-16
2.0329e-16
8.61475e-17
6.39056e-17
7.19064e-17
7.59001e-17
7.50938e-17
1.73858e-16
6.7674e-16
2.08814e-15
4.27094e-15
7.03756e-15
8.44949e-15
2.51471e-15
3.48074e-15
1.97093e-15
9.32496e-16
4.54375e-16
1.96137e-16
8.24526e-17
2.32599e-17
1.78864e-17
1.59965e-17
1.35217e-17
1.14236e-17
2.15124e-17
1.08994e-16
5.11783e-16
1.52169e-15
3.01883e-15
3.97743e-15
4.18234e-15
1.7237e-15
6.20034e-16
2.91245e-16
1.4688e-16
6.61741e-17
2.62168e-17
6.1446e-18
2.92575e-18
2.31505e-18
1.88469e-18
1.57886e-18
1.88793e-18
1.01558e-17
7.73312e-17
3.53612e-16
1.00066e-15
1.89308e-15
2.31275e-15
1.97182e-15
7.25495e-16
9.4338e-17
4.0308e-17
1.80577e-17
7.40609e-18
1.11655e-18
3.93147e-19
2.87341e-19
2.26577e-19
1.8581e-19
1.93736e-19
4.0367e-19
5.94077e-18
4.80226e-17
2.09835e-16
5.57991e-16
1.05606e-15
1.18691e-15
8.94225e-16
3.48602e-16
8.15986e-18
3.56614e-18
1.19741e-18
1.30765e-19
4.9613e-20
3.71102e-20
2.92632e-20
2.4602e-20
3.02582e-20
5.23293e-20
1.63341e-19
3.11725e-18
2.51507e-17
9.69067e-17
2.72788e-16
4.97998e-16
5.38792e-16
3.25575e-16
1.09292e-16
5.92541e-19
1.55297e-19
1.6264e-20
2.52373e-21
2.26202e-21
3.28722e-21
5.85948e-21
1.14229e-20
2.28607e-20
4.72364e-20
1.16412e-19
1.37264e-18
1.01986e-17
3.9818e-17
1.15008e-16
1.98552e-16
2.08667e-16
1.22776e-16
2.58089e-17
2.12762e-20
2.00529e-21
5.26421e-22
7.37706e-22
1.44099e-21
3.15152e-21
6.71192e-21
1.45164e-20
2.92317e-20
5.71196e-20
1.1622e-19
5.85688e-19
3.83785e-18
1.4169e-17
4.06095e-17
6.6473e-17
6.81605e-17
3.55133e-17
7.47244e-18
3.76604e-22
1.51233e-22
2.84995e-22
6.93891e-22
1.62601e-21
3.76704e-21
8.41021e-21
1.79283e-20
3.65099e-20
7.05124e-20
1.30953e-19
3.18053e-19
1.42356e-18
4.89128e-18
1.24229e-17
1.96804e-17
2.47367e-17
9.44361e-18
2.57752e-18
1.54765e-23
8.20811e-23
2.70835e-22
7.05064e-22
1.72789e-21
4.08305e-21
9.29789e-21
2.02511e-20
4.19381e-20
8.15877e-20
1.48802e-19
2.68044e-19
6.71125e-19
1.78458e-18
3.64435e-18
6.03925e-18
7.25771e-18
3.63356e-18
8.44216e-19
9.48714e-24
7.48064e-23
2.30714e-22
6.24402e-22
1.61264e-21
3.98765e-21
9.4138e-21
2.10077e-20
4.43624e-20
8.68922e-20
1.60882e-19
2.71695e-19
4.58557e-19
8.15007e-19
1.43987e-18
2.50767e-18
2.13626e-18
1.02491e-18
2.49793e-19
1.09999e-23
5.52474e-23
1.70881e-22
4.91633e-22
1.34449e-21
3.50097e-21
8.58809e-21
1.97025e-20
4.27752e-20
8.55942e-20
1.5621e-19
2.58746e-19
3.7864e-19
5.84981e-19
9.83823e-19
1.24321e-18
9.442e-19
3.89046e-19
1.01332e-19
7.6717e-24
3.54456e-23
1.15493e-22
3.56627e-22
1.03165e-21
2.79826e-21
7.01962e-21
1.65576e-20
3.67182e-20
7.4659e-20
1.36454e-19
2.2139e-19
3.04847e-19
4.59101e-19
6.04746e-19
6.12022e-19
4.09016e-19
1.53258e-19
3.99912e-20
5.0488e-24
2.09304e-23
7.4937e-23
2.42267e-22
7.29324e-22
1.9799e-21
5.03792e-21
1.22153e-20
2.72098e-20
5.57991e-20
1.01589e-19
1.62159e-19
2.30661e-19
3.12383e-19
2.94757e-19
2.37599e-19
1.23406e-19
4.93304e-20
1.86503e-20
3.22649e-24
1.25939e-23
4.64494e-23
1.54686e-22
4.58742e-22
1.28486e-21
3.25497e-21
7.70241e-21
1.69281e-20
3.46704e-20
6.21139e-20
9.64955e-20
1.32944e-19
1.58337e-19
1.15681e-19
7.10159e-20
3.30334e-20
1.99986e-20
7.28851e-21
1.71078e-24
7.13924e-24
2.64444e-23
8.71851e-23
2.57628e-22
7.08616e-22
1.7708e-21
4.02823e-21
8.6114e-21
1.72372e-20
2.99307e-20
4.42092e-20
5.67042e-20
6.05652e-20
4.08114e-20
1.98514e-20
1.15461e-20
6.03469e-21
3.53049e-21
8.7992e-25
3.35902e-24
1.18354e-23
3.77267e-23
1.08467e-22
2.88234e-22
7.07194e-22
1.63349e-21
3.39436e-21
6.51281e-21
1.1091e-20
1.6266e-20
1.83141e-20
1.84835e-20
1.12353e-20
6.48026e-21
3.06412e-21
2.10856e-21
1.62948e-21
3.32223e-25
1.21915e-24
4.12253e-24
1.25722e-23
3.4885e-23
9.11842e-23
2.22645e-22
4.97474e-22
1.02856e-21
1.89128e-21
3.00373e-21
4.12774e-21
4.5406e-21
4.04398e-21
2.3013e-21
1.48793e-21
7.00461e-22
6.31213e-22
4.61875e-22
7.16773e-26
2.4606e-25
7.95274e-25
2.3342e-24
6.2947e-24
1.66122e-23
3.81315e-23
8.50639e-23
1.68957e-22
3.03607e-22
4.69523e-22
6.10988e-22
6.2879e-22
4.38567e-22
2.53891e-22
1.85107e-22
1.44796e-22
6.13902e-23
5.95877e-23
)
;

boundaryField
{
    leftWall
    {
        type            alphaContactAngle;
        contactAngleProperties 
        {
            air             
            {
                theta0          90;
            }
            water           
            {
                theta0          90;
            }
            oil             
            {
                theta0          90;
            }
        }
        value           nonuniform List<scalar> 
50
(
1
1
1
1
1
1
1
1
0.992262
0.297446
6.21552e-09
4.24718e-09
2.21421e-09
1.68214e-09
8.67671e-10
3.09645e-10
2.85062e-11
5.64841e-13
3.68741e-14
4.6266e-16
2.58924e-17
9.01447e-18
2.79937e-18
7.07208e-19
1.40693e-19
2.0621e-20
2.04512e-21
1.00216e-23
9.60214e-25
8.99737e-26
8.43261e-27
1.64984e-29
-2.41094e-28
-8.69221e-29
-2.04815e-29
-3.77289e-30
-5.77779e-31
-7.59448e-32
-8.74282e-33
-8.94489e-34
-8.22918e-35
-6.8763e-36
-5.26552e-37
-3.72508e-38
-2.45276e-39
-1.51348e-40
-8.80726e-42
-4.86146e-43
-2.55809e-44
-1.28753e-45
)
;
    }
    rightWall
    {
        type            alphaContactAngle;
        contactAngleProperties 
        {
            air             
            {
                theta0          90;
            }
            water           
            {
                theta0          90;
            }
            oil             
            {
                theta0          90;
            }
        }
        value           nonuniform List<scalar> 
50
(
0.688938
0.688938
0.679483
0.537368
0.182516
0.0561731
0.0385525
0.0244722
0.0154628
0.0113654
0.000823445
0.000890553
0.000891107
0.000860821
0.00101332
0.000836658
3.07341e-16
1.6665e-15
5.03533e-15
6.47315e-15
8.04372e-15
1.10457e-14
1.25715e-14
1.33805e-14
1.38829e-14
1.4051e-14
1.24939e-14
1.00656e-14
8.76375e-15
7.3524e-15
4.75524e-15
3.82759e-15
2.51471e-15
1.7237e-15
7.25495e-16
3.48602e-16
1.09292e-16
2.58089e-17
7.47244e-18
2.57752e-18
8.44216e-19
2.49793e-19
1.01332e-19
3.99912e-20
1.86503e-20
7.28851e-21
3.53049e-21
1.62948e-21
4.61875e-22
5.95877e-23
)
;
    }
    lowerWall
    {
        type            alphaContactAngle;
        contactAngleProperties 
        {
            air             
            {
                theta0          90;
            }
            water           
            {
                theta0          90;
            }
            oil             
            {
                theta0          90;
            }
        }
        value           nonuniform List<scalar> 
62
(
1
1
1
1
1
1
1
1
1
1
1
1
1
1
1
1
1
1
1
1
0.999849
0.999433
0.999431
0.999431
0.999434
0.999958
0.999998
0.986191
0.420107
0.00810078
0.0527006
-0.000146288
0.000158091
0.000376779
0.000549699
0.0367153
0.036447
0.0354993
0.0350148
0.0371556
0.00838785
1.61742e-07
0.000714309
0.0367153
0.0360489
0.0363351
0.0796804
0.19248
0.214689
0.175316
0.079893
0.0798977
0.135221
0.417999
0.412792
0.291411
0.293484
0.65763
0.688737
0.688681
0.687376
0.688938
)
;
    }
    atmosphere
    {
        type            inletOutlet;
        inletValue      uniform 0;
        value           nonuniform List<scalar> 
46
(
-1.28753e-45
-2.3484e-45
-1.51755e-45
-4.88838e-46
1.11973e-45
3.03707e-44
6.59402e-43
1.48887e-41
2.89255e-40
5.97648e-39
1.03296e-37
1.51737e-36
1.75658e-35
1.47927e-34
9.01209e-34
3.76269e-33
1.08925e-32
2.99015e-32
1.42739e-31
1.02687e-30
7.08302e-30
4.38902e-29
0
0
0
0
0
0
0
0
0
0
0
0
0
0
0
0
0
0
0
0
0
0
0
0
)
;
    }
    defaultFaces
    {
        type            empty;
    }
}


// ************************************************************************* //
