/*--------------------------------*- C++ -*----------------------------------*\
  =========                 |
  \\      /  F ield         | OpenFOAM: The Open Source CFD Toolbox
   \\    /   O peration     | Website:  https://openfoam.org
    \\  /    A nd           | Version:  13
     \\/     M anipulation  |
\*---------------------------------------------------------------------------*/
FoamFile
{
    format      ascii;
    class       volScalarField;
    location    "1";
    object      alpha.air;
}
// * * * * * * * * * * * * * * * * * * * * * * * * * * * * * * * * * * * * * //

dimensions      [];

internalField   nonuniform List<scalar> 
2268
(
1.58956e-14
1.61389e-14
3.66445e-15
1.84128e-15
5.84755e-16
1.67108e-16
1.46263e-16
2.96462e-16
5.24207e-16
6.86486e-16
6.60625e-16
4.35024e-16
3.20142e-16
2.50317e-16
2.50715e-16
2.64424e-16
3.07178e-16
7.90912e-16
2.82252e-15
2.71264e-15
3.60981e-15
1.10367e-15
6.57436e-16
6.80532e-14
4.62197e-14
1.12192e-14
5.85992e-15
3.7513e-15
3.04797e-15
3.69588e-15
6.65471e-15
9.74536e-15
1.05436e-14
8.24797e-15
6.01005e-15
4.71991e-15
4.64923e-15
4.92326e-15
5.55343e-15
5.66552e-15
1.66537e-14
6.28732e-14
1.56568e-13
3.83658e-13
2.23612e-13
3.75313e-14
2.31705e-13
1.2003e-13
3.51691e-14
2.07726e-14
1.74657e-14
2.16016e-14
3.82813e-14
6.97107e-14
9.46958e-14
9.64935e-14
7.99418e-14
5.21992e-14
4.47155e-14
4.70242e-14
4.90893e-14
6.53522e-14
4.33743e-14
1.2572e-13
5.99875e-13
1.65204e-12
2.63629e-12
3.90993e-12
1.75238e-12
1.40969e-12
7.63285e-13
2.14798e-13
1.41792e-13
1.44378e-13
1.94267e-13
3.55361e-13
5.65413e-13
5.72232e-13
4.41409e-13
3.09468e-13
2.58854e-13
3.32604e-13
4.6739e-13
4.61427e-13
6.14167e-13
1.10484e-13
3.80049e-13
1.54334e-12
4.82406e-12
6.67898e-12
9.73301e-12
1.60929e-11
4.77263e-12
3.27151e-12
2.36492e-12
2.29594e-12
2.32107e-12
2.85716e-12
3.16769e-12
3.05683e-12
2.07581e-12
1.5481e-12
1.28236e-12
1.46276e-12
3.47305e-12
8.5413e-12
1.09997e-11
8.64486e-13
6.41412e-14
6.12303e-14
6.41056e-14
6.11611e-14
6.41393e-14
6.15953e-14
6.46079e-14
8.68715e-12
8.05977e-12
9.12406e-12
1.01939e-11
1.13073e-11
1.22699e-11
1.20838e-11
1.14351e-11
1.46843e-11
2.10084e-11
3.1517e-11
5.12008e-11
1.11204e-10
2.34553e-10
3.56808e-10
8.17965e-10
6.87845e-09
7.07284e-08
5.5264e-07
8.08655e-06
0.000152257
0.000971163
0.00416762
1.66104e-11
1.75193e-11
2.02976e-11
2.25931e-11
2.66119e-11
3.45629e-11
4.87153e-11
7.81466e-11
1.13054e-10
1.50132e-10
2.06005e-10
3.09704e-10
5.00806e-10
9.30627e-10
2.90111e-09
1.69603e-08
1.43422e-07
1.29896e-06
1.20094e-05
0.000191156
0.0025812
0.0370976
0.131954
2.42881e-11
2.8478e-11
3.50405e-11
4.92949e-11
7.20949e-11
1.09242e-10
1.65654e-10
2.12492e-10
2.5194e-10
3.0236e-10
3.89125e-10
5.72046e-10
8.04945e-10
2.23095e-09
9.54614e-09
5.17709e-08
4.91027e-07
4.10329e-06
4.21972e-06
7.89186e-05
0.0631744
0.234309
0.233482
0.0140476
0.0271016
0.0526575
0.0508843
0.0371518
0.0143961
0.000204857
5.57964e-07
6.09147e-06
0.00162183
0.016194
0.0408
0.0796849
0.170655
0.260541
0.187952
0.111261
0.0583853
0.0507355
0.0141069
0.0688442
0.10926
0.10985
0.0948604
0.026968
0.00709565
1.39424e-07
8.4926e-06
0.000272799
0.00276413
0.00607932
0.0156058
0.107477
0.311564
0.235676
0.103893
1.44565e-06
8.63098e-05
0.0150137
0.0471067
0.0360589
0.0381278
0.0152724
0.00903986
0.00164898
4.37626e-09
1.44788e-06
9.4747e-05
0.00130169
0.00263703
0.00187887
0.0423532
0.353165
0.51613
0.290126
1.34003e-05
1.49067e-06
0.024969
0.0232883
0.000369381
0.000118335
7.93122e-05
9.31057e-05
-1.64074e-06
6.71098e-10
3.16849e-07
9.88624e-05
0.000192407
3.23401e-06
0.00283763
0.0254323
0.365204
0.517504
0.439328
0.000444036
0.0193778
0.137242
0.114845
0.0488495
0.0100308
0.000296862
0.000246325
9.41516e-05
1.33978e-09
3.24483e-06
3.69555e-05
1.57887e-05
1.52807e-06
0.000152566
0.0220135
0.311796
0.453496
0.451157
0.00653927
0.344354
0.405374
0.405374
0.289376
0.122996
0.0384288
0.00440035
0.000160359
9.90215e-05
8.97835e-06
2.81384e-05
2.20923e-05
2.11645e-06
6.0466e-05
0.0250807
0.107998
0.375291
0.277784
0.0130978
0.46726
0.405374
0.38616
0.266453
0.130254
0.0655467
0.0351301
0.00349212
0.000124207
1.31733e-05
1.08505e-05
1.22166e-05
2.13527e-05
0.042993
0.188097
0.18836
0.190362
0.201359
0.01557
0.47601
0.299731
0.0357681
1.74114e-06
0.00678269
0.0276884
0.0362722
0.0177793
0.000855208
2.66072e-05
2.60553e-06
2.71079e-06
0.00781394
0.284567
0.49741
0.519436
0.465603
0.264479
0.00916539
0.476478
5.3808e-11
7.38361e-11
1.10575e-10
1.62883e-10
2.28378e-10
2.85034e-10
3.22543e-10
3.51208e-10
3.9852e-10
4.51702e-10
5.82748e-10
1.07808e-09
2.6709e-09
4.94203e-09
1.94115e-08
6.67856e-08
8.74769e-08
2.48697e-06
0.00146354
0.0821531
0.254764
0.226868
0.176949
1.75759e-10
2.22025e-10
3.14531e-10
4.35742e-10
5.69341e-10
6.60516e-10
6.9638e-10
7.28927e-10
7.52022e-10
7.49169e-10
1.0031e-09
3.71831e-09
9.20741e-09
1.56128e-08
1.75342e-08
2.86144e-05
0.00202362
0.067916
0.317326
0.341138
0.246335
4.81393e-06
1.88373e-08
4.3342e-10
4.51774e-10
5.51397e-10
6.37574e-10
6.99048e-10
7.91912e-10
1.00582e-09
1.27211e-09
1.27043e-09
1.085e-09
1.31562e-09
2.96145e-09
4.21511e-09
1.17903e-06
0.00920795
0.200831
0.377442
0.378049
0.14904
0.000616105
0.00169573
6.15362e-07
4.43973e-07
5.5784e-10
5.72198e-10
5.90559e-10
6.28582e-10
6.31952e-10
5.9107e-10
4.97452e-10
2.85059e-10
6.28732e-11
-5.15158e-13
7.36404e-14
2.53629e-07
0.0402549
0.369085
0.458692
0.410452
0.0335832
0.0123083
0.0144278
9.24313e-06
5.60409e-06
5.97793e-06
2.01558e-06
5.60476e-10
5.46459e-10
5.40579e-10
4.73156e-10
3.99831e-10
2.82693e-10
1.29096e-10
7.69768e-11
5.02101e-11
1.22987e-08
0.0937877
0.420705
0.425392
0.348767
0.0385421
0.0335411
0.00962945
6.28473e-05
6.4157e-05
9.98827e-05
4.72584e-05
-3.29405e-10
3.25511e-09
3.9436e-10
3.66849e-10
3.36024e-10
2.39397e-10
1.32067e-10
8.58615e-11
-9.12922e-12
2.62814e-09
0.0323013
0.343748
0.388278
0.359092
0.0635258
0.0216506
0.000561547
1.40155e-06
1.59953e-06
0.000128169
6.51196e-05
2.93677e-08
1.78349e-06
2.43618e-08
2.67633e-09
1.22025e-11
7.95466e-12
1.06562e-11
7.8568e-12
1.1475e-11
1.32898e-11
3.84211e-06
0.065189
0.295338
0.323688
0.177928
0.00556145
8.22062e-06
3.29994e-07
2.86373e-07
2.18286e-06
4.47879e-06
1.47808e-05
2.34787e-06
1.53199e-08
2.93367e-08
5.47846e-09
0.00058493
7.35607e-09
1.81696e-08
1.89659e-08
1.05409e-11
1.32898e-11
1.50523e-05
0.027907
0.23702
0.229609
0.0214953
0.00181038
1.01526e-06
2.67668e-07
9.74923e-08
2.42845e-09
9.70491e-13
8.05869e-09
4.73596e-08
2.10936e-08
0.0419955
0.0834907
0.263894
0.462779
0.387031
0.32396
0.240829
0.171471
0.147894
0.245891
0.368487
0.0870554
0.00250749
2.2268e-05
2.3026e-05
3.4874e-08
7.10797e-24
3.48736e-08
0.00876391
0.140254
0.247975
0.460809
0.707363
0.786139
0.838706
0.954919
0.991784
0.989946
0.977692
0.949762
0.912904
0.895962
0.931292
0.731579
0.00151067
0.000171858
1.8354e-05
2.07206e-05
0.153544
0.386999
0.598845
0.782577
0.893237
0.946532
0.984573
1
0.999999
1
1
0.999999
1
1
1
1
1
0.999936
0.958548
0.674538
0.521053
0.538548
0.708627
0.891645
0.980023
1
1
1
0.999999
1
1
1
1
1
1
1
1
1
1
1
0.999998
1
0.999997
0.999645
0.999784
0.999997
1
1
1
1
1
0.999999
0.999999
0.999999
1
1
1
1
1
1
1
1
1
0.999999
1
1
1
1
1
1
1
0.999999
0.999998
0.999999
1
0.999999
0.999998
0.999997
0.999999
1
1
1
1
1
1
1
1
1
1
1
1
1
1
1
1
0.999999
0.999999
0.999903
0.999832
0.99993
0.999997
0.999997
0.999996
0.999998
1
1
1
1
1
1
1
1
1
1
1
1
1
1
1
1
0.999976
0.999805
0.999789
0.999805
0.999981
0.999995
0.999995
1
1
1
1
1
1
1
1
1
1
1
1
1
1
1
1
1
0.999989
0.999882
0.999783
0.999785
0.99997
0.999996
1
1
1
1
1
1
1
1
1
1
1
1
1
1
1
1
1
1
1
0.999971
0.999908
0.999941
0.999996
1
1
1
1
1
1
1
1
1
1
1
1
1
1
1
1
1
1
1
1
1
1
1
1
1
1
1
1
1
1
1
1
1
1
1
1
1
1
1
1
1
1
1
1
1
1
1
1
1
1
1
1
1
1
1
1
1
1
1
1
1
1
1
1
1
1
1
1
1
1
1
1
1
1
1
1
1
1
1
1
1
1
1
1
1
1
1
1
1
1
1
1
1
1
1
1
1
1
1
1
1
1
1
1
1
1
1
1
1
1
1
1
1
1
1
1
1
1
1
1
1
1
1
1
1
1
1
1
1
1
1
1
1
1
1
1
1
1
1
1
1
1
1
1
1
1
1
1
1
1
1
1
1
1
1
1
1
1
1
1
1
1
1
1
1
1
1
1
1
1
1
1
1
1
1
1
1
1
1
1
1
1
1
1
1
1
1
1
1
1
1
1
1
1
1
1
1
1
1
1
1
1
1
1
1
1
1
1
1
1
1
1
1
1
1
1
1
1
1
1
1
1
1
1
1
1
1
1
1
1
1
1
1
1
1
1
1
1
1
1
1
1
1
1
1
1
1
1
1
1
1
1
1
1
1
1
1
1
1
1
1
1
1
1
1
1
1
1
1
1
1
1
1
1
1
1
1
1
1
1
1
1
1
1
1
1
1
1
1
1
1
1
1
1
1
1
1
1
1
1
1
1
1
1
1
1
1
1
1
1
1
1
1
1
1
1
1
1
1
1
1
1
1
1
1
1
1
1
1
1
1
1
1
1
1
1
1
1
1
1
1
1
1
1
1
1
1
1
1
1
1
1
1
1
1
1
1
1
1
1
1
1
1
1
1
1
1
1
1
1
1
1
1
1
1
1
1
1
1
1
1
1
1
1
1
1
1
1
1
1
1
1
1
1
1
1
1
1
1
1
1
1
1
1
1
1
1
1
1
1
1
1
1
1
1
1
1
1
1
1
1
1
1
1
1
1
1
1
1
1
1
1
1
1
1
1
1
1
1
1
1
1
1
1
1
1
1
1
1
1
1
1
1
1
1
1
1
1
1
1
1
1
1
1
1
1
1
1
1
1
1
1
1
1
1
1
1
1
1
1
1
1
1
1
1
1
1
1
1
1
1
1
1
1
1
1
1
1
1
1
1
1
1
1
1
1
1
1
1
1
1
1
1
1
1
1
1
1
1
1
1
1
1
1
1
1
1
1
1
1
1
1
1
1
1
1
1
1
1
1
1
1
1
1
1
1
1
1
1
1
1
1
1
1
1
1
1
1
1
1
1
1
1
1
1
1
1
1
1
1
1
1
1
1
1
0.206219
0.208098
0.12466
-8.25682e-10
1.50306e-08
2.61994e-09
2.87745e-09
4.98576e-09
2.61086e-09
3.27409e-09
6.94763e-09
6.15871e-09
2.18962e-09
3.86945e-09
4.26085e-09
4.03218e-09
6.79704e-09
9.11315e-09
1.33111e-08
1.01737e-08
5.43691e-08
2.2588e-08
1.65425e-08
1.41608e-08
0.000468674
1.23507e-08
2.52315e-09
3.22047e-09
0.273046
0.176752
0.275454
0.349646
0.97151
0.975788
0.989065
0.993512
1
1
1
1
1
1
0.999999
0.999999
1
1
0.999999
0.999998
1
1
1
1
0.999999
1
1
1
0.999995
0.999995
0.999995
0.999998
0.999996
0.999995
0.999995
0.999995
1
0.999999
0.999998
0.999997
1
1
1
1
1
1
1
1
1
1
1
1
1
1
1
1
1
1
1
1
1
1
1
1
1
1
1
1
1
1
1
1
1
1
1
1
1
1
1
1
1
1
1
1
1
1
1
1
1
1
1
1
1
1
1
1
1
1
1
1
1
1
1
1
1
1
1
1
1
1
1
1
1
1
1
1
1
1
1
1
1
1
1
1
1
1
1
1
1
1
1
1
1
1
1
1
1
1
1
1
0.000137269
0
2.60418e-26
1.34431e-08
0.000407083
0.00492566
0.00852326
0.00553126
0.000372448
4.05639e-06
3.05569e-06
0.0387223
0.458036
0.572446
0.573376
0.433417
0.0820539
0.000239138
0.472879
6.82493e-09
2.3429e-09
1.64289e-09
1.59068e-09
1.56857e-09
7.16812e-08
0.00011616
0.00162288
0.00105895
0.000110458
9.44954e-06
0.0109264
0.195812
0.261856
0.120596
-2.77339e-05
2.13077e-05
9.46743e-06
0.459902
4.52466e-09
3.27037e-09
1.78138e-08
3.7824e-08
3.20735e-08
1.54678e-08
1.39562e-08
1.86426e-06
0.000151607
0.000123933
0.000688255
0.00372596
0.00823224
5.74892e-06
2.57089e-05
0.00029195
0.00112929
0.00100692
0.294843
3.1743e-09
3.23431e-09
3.72487e-08
6.85005e-07
1.01583e-06
1.92121e-07
1.65951e-08
1.69386e-08
1.86281e-08
3.56724e-06
0.000258662
0.00109689
0.000853553
0.00121886
0.00526287
0.0144393
0.017553
0.00586776
0.16154
9.12453e-09
1.0395e-08
3.67631e-07
1.01266e-06
1.02222e-06
1.01766e-06
2.61237e-07
1.68587e-08
1.68822e-08
2.03595e-08
8.77252e-05
0.00126053
0.00259324
0.00636051
0.0135702
0.0185782
0.020239
0.0207996
0.229348
1.1127e-08
9.0467e-09
1.65206e-08
2.37235e-07
8.98761e-07
1.02045e-06
3.72811e-07
3.88412e-08
7.44596e-08
3.10709e-07
9.394e-07
1.96597e-08
0.00300105
0.00818573
0.00889776
0.0117718
0.0316462
0.123025
0.415605
2.62566e-09
3.40991e-09
2.79977e-09
3.34123e-09
5.24025e-09
9.93851e-09
2.06475e-08
2.53951e-08
8.23272e-08
1.04237e-07
1.68576e-08
1.83753e-08
0.000922859
0.0345545
0.161714
0.385346
0.607301
0.71246
0.717022
0.355745
0.330171
0.291567
0.244641
0.196268
0.15474
0.126988
0.115085
0.114179
0.12756
0.181256
0.289822
0.492838
0.724786
0.906158
0.999506
0.999996
0.911128
0.803181
0.995603
0.994244
0.982533
0.962849
0.935289
0.904933
0.882196
0.873979
0.875316
0.896625
0.950101
1
1
0.999999
0.999999
0.999997
0.999917
0.951533
0.899247
1
1
1
1
1
1
1
1
1
1
1
1
0.999734
0.999283
0.999678
0.999915
0.999823
0.999999
0.999999
0.999999
0.999999
0.999999
0.999999
1
1
1
0.999999
0.999999
0.999999
0.999998
0.999621
0.998223
0.998286
0.998723
1
1
0.999998
0.999995
0.999998
0.999998
0.999998
0.999998
0.999999
0.999999
0.999999
0.999999
0.999997
0.999997
0.999998
0.999585
0.998624
0.99874
0.999896
1
0.999999
0.999993
0.999992
0.999999
0.999998
0.999998
0.999998
0.999998
0.999999
1
0.999999
0.999993
0.999992
0.999994
1
1
1
1
0.999999
0.999998
0.999999
0.999996
1
1
1
0.999999
0.999999
0.999999
1
1
0.999999
0.999998
1
1
1
1
1
0.999998
0.999998
1
0.999999
1
1
1
1
1
1
1
1
1
1
1
1
1
1
1
1
0.999999
1
0.999999
0.999996
1
1
1
1
1
1
1
1
1
1
1
1
1
1
1
1
1
0.999998
0.999999
0.999999
1
1
1
1
1
1
1
1
1
1
1
1
1
1
1
1
0.999998
1
1
1
1
1
1
1
1
1
1
1
1
1
1
1
1
1
1
0.999998
1
1
1
1
1
1
1
1
1
1
1
1
1
1
1
1
1
1
0.999999
1
1
1
1
1
1
1
1
1
1
1
1
1
1
1
1
1
1
0.999999
1
1
1
1
1
1
1
1
1
1
1
1
1
1
1
1
1
0.999999
0.999998
1
1
1
1
1
1
1
1
1
1
1
1
1
1
1
1
1
1
0.999998
1
1
1
1
1
1
1
1
1
1
1
1
1
1
1
1
1
1
0.999999
1
1
1
1
1
1
1
1
1
1
1
1
1
1
1
1
1
1
1
1
1
1
1
1
1
1
1
1
1
1
1
1
1
1
1
1
1
1
1
1
1
1
1
1
1
1
1
1
1
1
1
1
1
1
1
1
1
1
1
1
1
1
1
1
1
1
1
1
1
1
1
1
1
1
1
1
1
1
1
1
1
1
1
1
1
1
1
1
1
1
1
1
1
1
1
1
1
1
1
1
1
1
1
1
1
1
1
1
1
1
1
1
1
1
1
1
1
1
1
1
1
1
1
1
1
1
1
1
1
1
1
1
1
1
1
1
1
1
1
1
1
1
1
1
1
1
1
1
1
1
1
1
1
1
1
1
1
1
1
1
1
1
1
1
1
1
1
1
1
1
1
1
1
1
1
1
1
1
1
1
1
1
1
1
1
1
1
1
1
1
1
1
1
1
1
1
1
1
1
1
1
1
1
1
1
1
1
1
1
1
1
1
1
1
1
1
1
1
1
1
1
1
1
1
1
1
1
1
1
1
1
1
1
1
1
1
1
1
1
1
1
1
1
1
1
1
1
1
1
1
1
1
1
1
1
1
1
1
1
1
1
1
1
1
1
1
1
1
1
1
1
1
1
1
1
1
1
1
1
1
1
1
1
1
1
1
1
1
1
1
1
1
1
1
1
1
1
1
1
1
1
1
1
1
1
1
1
1
1
1
1
1
1
1
1
1
1
1
1
1
1
1
1
1
1
1
1
1
1
1
1
1
1
1
1
1
1
1
1
1
1
1
1
1
1
1
1
1
1
1
1
1
1
1
1
1
1
1
1
1
1
)
;

boundaryField
{
    leftWall
    {
        type            alphaContactAngle;
        contactAngleProperties 
        {
            mercury         
            {
                theta0          90;
            }
            water           
            {
                theta0          90;
            }
            oil             
            {
                theta0          90;
            }
        }
        value           nonuniform List<scalar> 
50
(
1.58956e-14
6.80532e-14
2.31705e-13
1.40969e-12
4.77263e-12
8.68715e-12
1.66104e-11
2.42881e-11
5.3808e-11
1.75759e-10
4.3342e-10
5.5784e-10
5.60476e-10
3.9436e-10
1.22025e-11
7.35607e-09
0.387031
0.989946
1
1
1
1
1
1
1
1
1
1
1
1
1
1
1
1
1
1
1
1
1
1
1
1
1
1
1
1
1
1
1
1
)
;
    }
    rightWall
    {
        type            alphaContactAngle;
        contactAngleProperties 
        {
            mercury         
            {
                theta0          90;
            }
            water           
            {
                theta0          90;
            }
            oil             
            {
                theta0          90;
            }
        }
        value           nonuniform List<scalar> 
50
(
0.0507355
8.63098e-05
1.49067e-06
0.0193778
0.344354
0.46726
0.47601
0.476478
0.472879
0.459902
0.294843
0.16154
0.229348
0.415605
0.717022
0.803181
0.899247
0.999999
0.999995
0.999992
0.999996
0.999999
0.999999
0.999998
0.999998
0.999998
0.999999
0.999999
0.999998
0.999998
0.999999
1
1
1
1
1
1
1
1
1
1
1
1
1
1
1
1
1
1
1
)
;
    }
    lowerWall
    {
        type            alphaContactAngle;
        contactAngleProperties 
        {
            mercury         
            {
                theta0          90;
            }
            water           
            {
                theta0          90;
            }
            oil             
            {
                theta0          90;
            }
        }
        value           nonuniform List<scalar> 
62
(
1.58956e-14
1.61389e-14
3.66445e-15
1.84128e-15
5.84755e-16
1.67108e-16
1.46263e-16
2.96462e-16
5.24207e-16
6.86486e-16
6.60625e-16
4.35024e-16
3.20142e-16
2.50317e-16
2.50715e-16
2.64424e-16
3.07178e-16
7.90912e-16
2.82252e-15
2.71264e-15
3.60981e-15
1.10367e-15
6.57436e-16
6.57436e-16
3.75313e-14
1.75238e-12
1.60929e-11
6.46079e-14
0.00416762
0.131954
0.233482
0.206219
0.208098
0.12466
-8.25682e-10
0.0140476
0.0141069
0.0150137
0.024969
0.137242
0.405374
0.405374
0.299731
0.0140476
0.0271016
0.0526575
0.0508843
0.0371518
0.0143961
0.000204857
5.57964e-07
6.09147e-06
0.00162183
0.016194
0.0408
0.0796849
0.170655
0.260541
0.187952
0.111261
0.0583853
0.0507355
)
;
    }
    atmosphere
    {
        type            inletOutlet;
        inletValue      uniform 1;
        value           nonuniform List<scalar> 
46
(
1
1
1
1
1
1
1
1
1
1
1
1
1
1
1
1
1
1
1
1
1
1
1
1
1
1
1
1
1
1
1
1
1
1
1
1
1
1
1
1
1
1
1
1
1
1
)
;
    }
    defaultFaces
    {
        type            empty;
    }
}


// ************************************************************************* //
