/*--------------------------------*- C++ -*----------------------------------*\
  =========                 |
  \\      /  F ield         | OpenFOAM: The Open Source CFD Toolbox
   \\    /   O peration     | Website:  https://openfoam.org
    \\  /    A nd           | Version:  13
     \\/     M anipulation  |
\*---------------------------------------------------------------------------*/
FoamFile
{
    format      ascii;
    class       volScalarField;
    location    "1";
    object      alphas;
}
// * * * * * * * * * * * * * * * * * * * * * * * * * * * * * * * * * * * * * //

dimensions      [];

internalField   nonuniform List<scalar> 
2268
(
2
2
2
2
2
2
2
2
2
2
2
2
2
2
2
2
2
2
2
2
1.99985
1.99943
1.99943
2
2
2
2
2
2
2
2
2
2
2
2
2
2
2
2
2
2
2
2
2
1.99985
1.99943
2
2
2
2
2
2
2
2
2
2
2
2
2
2
2
2
2
2
2
2
2
2
1.99996
2
2
2
2
2
2
2
2
2
2
2
2
2
2
2
2
2
2
2
2
2
2
2
2
2
2
2
2
2
2
2
2
2
2
2
2
2
2
2
1.99964
1.99864
1.99764
1.99642
1.99299
1.98181
1.9724
2
2
2
2
2
2
2
1.98796
1.91273
1.79861
1.67298
1.55341
1.44834
1.35832
1.27031
1.1874
1.12323
1.07844
1.04936
1.02109
0.96197
0.876529
0.85276
2
2
2
2
2
1.84318
1.39106
0.883966
0.529783
0.317242
0.185148
0.102027
0.0491807
0.0138173
1.20517e-07
1.96361e-06
5.90049e-06
1.10401e-05
4.32052e-05
0.000579452
0.00774976
0.110633
0.418023
2
2
2
1.80253
0.996368
0.293294
0.0332064
6.63034e-10
8.78284e-10
1.43658e-09
3.31943e-09
1.02358e-08
3.50022e-08
1.16289e-07
3.06656e-07
6.20247e-07
2.05044e-06
1.42851e-05
1.48059e-05
0.000305444
0.215403
0.958711
1.1659
1.06481
1.09025
1.14165
1.17853
1.21
1.20903
1.17573
1.07989
1.07991
1.13846
1.45039
1.49439
1.45077
1.63478
2.1787
2.00889
1.78807
1.68262
1.68912
1.06465
1.19735
1.01618
0.933015
0.883745
0.917838
1.01235
1.24774
1.21876
1.43822
1.7959
1.78206
1.57621
1.61436
2.09634
2.11402
1.77071
1.61297
1.68908
1.06552
0.807676
0.332363
0.265198
0.101026
0.129912
0.383152
0.760372
1.25151
1.4474
1.64804
1.8462
1.8649
1.80607
2.07878
2.35434
1.93851
1.60426
1.67945
1.05662
0.310006
0.0243698
0.000648336
0.000615024
0.00061113
0.00145811
0.138887
0.480392
0.621923
0.886758
1.71419
1.76977
1.87459
2.09693
2.21542
2.1233
1.5035
1.57201
0.56771
0.355576
0.146549
0.0300926
0.000897639
0.000770879
0.000521153
0.000496932
0.000535681
0.00283148
0.0745433
0.9697
1.49774
1.66081
1.95674
2.11078
2.12846
1.47319
1.832
1.40263
1.31445
1.01269
0.487888
0.153386
0.0132046
0.000585133
0.000492253
0.000467543
0.000558551
0.000548735
0.0457485
0.735425
1.62532
1.76625
1.99249
1.89052
1.37502
1.93482
1.81075
1.74692
1.52162
1.1624
0.844506
0.334344
0.0105024
0.000512949
0.00029705
0.00033969
0.000313454
0.0206615
1.01404
1.97711
2.03875
1.92504
1.9013
0.855681
1.93896
1.60018
1.07154
1
1.01357
1.05538
0.99336
0.348776
0.00268899
0.000318882
0.000270647
0.000383563
0.061122
1.56814
2.41845
2.44039
2.33419
1.79215
0.840113
1.94213
1.98452
1.49614
0.795835
0.203497
0.00928851
1.19224e-08
9.71752e-10
1.08386e-09
1.315e-09
1.8099e-09
3.10739e-09
6.63749e-09
2.00835e-08
5.41271e-08
1.14783e-07
2.14708e-07
2.62324e-07
7.46027e-06
0.00439062
0.258463
1.12757
1.46921
1.3341
0.594892
0.0864539
2.63141e-08
1.11024e-08
4.4176e-09
1.19648e-08
2.713e-09
2.21901e-09
2.45925e-09
2.97001e-09
5.06694e-09
1.72205e-08
3.72838e-08
5.38836e-08
5.75498e-08
8.58466e-05
0.00607086
0.203748
1.04738
1.59116
1.49267
1.00001
1
1.37313e-08
1.37423e-08
2.36345e-08
9.28484e-09
9.62518e-09
4.6425e-09
3.08761e-09
4.19998e-09
5.96004e-09
1.25934e-08
2.71204e-08
4.65758e-08
4.49286e-08
3.54188e-06
0.0276239
0.602494
1.33788
1.73039
1.29367
1.00092
1.00338
1
1
1.01679e-08
1.07831e-08
1.73159e-08
7.4008e-09
4.18213e-09
2.2007e-09
1.67271e-09
3.05098e-09
1.33424e-08
5.6625e-08
9.57302e-08
8.32913e-07
0.120765
1.11408
1.66946
1.8148
1.0594
1.02462
1.02886
1.00002
1.00001
1.00001
1
6.10985e-09
9.41564e-09
7.72141e-09
4.21377e-09
2.1034e-09
1.02064e-09
8.17253e-10
3.16589e-09
1.15432e-08
5.7772e-08
0.281363
1.26341
1.57087
1.69334
1.07708
1.06708
1.01926
1.00012
1.00013
1.0002
1.00009
1
1
4.54736e-09
5.13831e-09
3.75856e-09
2.27844e-09
7.76319e-10
3.27619e-10
1.63123e-10
8.50765e-09
0.096904
1.03124
1.35843
1.70085
1.12705
1.0433
1.00112
1
1
1.00026
1.00013
1
1
1
1
1.77195e-09
1.77658e-09
1.41856e-09
8.50001e-10
2.25786e-10
6.83549e-11
1.15263e-05
0.195567
0.921552
1.48732
1.35586
1.01112
1.00002
1
1
1
1.00001
1.00003
1
1
1
1
1.00117
2.26875e-08
5.51143e-08
5.74155e-08
3.79537e-10
1.18265e-10
4.51569e-05
0.0837209
0.910424
1.40238
1.04299
1.00362
1
1
1
1
1
1
1
1
1.08399
1.16698
1.52779
1.92556
1.16109
0.971879
0.722486
0.514414
0.443681
0.737674
1.28365
1.12291
1.00447
0.99989
1.00005
0.999986
0.999995
0.999999
1.01753
1.28051
1.49595
1.92162
2.41473
2.57228
2.67741
2.90984
2.98357
2.96984
2.93308
2.84929
2.73871
2.68789
2.79388
2.45318
1.00302
0.999856
0.999718
1.00004
1.30708
1.774
2.19769
2.56515
2.78647
2.89306
2.96915
3
3
3
3
3
3
3
3
3
3
2.99987
2.9171
2.34908
2.04204
2.07706
2.41725
2.78329
2.96005
3
3
3
3
3
3
3
3
3
3
3
3
3
3
3
3
3
2.99999
2.99929
2.99957
2.99999
3
3
3
3
3
3
3
3
3
3
3
3
3
3
3
3
3
3
3
3
3
3
3
3
3
3
3
3
3
3
2.99999
2.99999
3
3
3
3
3
3
3
3
3
3
3
3
3
3
3
3
3
3
3
2.99981
2.99966
2.99986
2.99999
2.99999
2.99999
2.99999
3
3
3
3
3
3
3
3
3
3
3
3
3
3
3
3
2.99995
2.99961
2.99958
2.99961
2.99996
2.99999
2.99998
3
3
3
3
3
3
3
3
3
3
3
3
3
3
3
3
3
2.99998
2.99976
2.99957
2.99957
2.99994
2.99999
3
3
3
3
3
3
3
3
3
3
3
3
3
3
3
3
3
3
3
2.99994
2.99982
2.99988
2.99999
3
3
3
3
3
3
3
3
3
3
3
3
3
3
3
3
3
3
3
3
3
3
3
3
3
3
3
3
3
3
3
3
3
3
3
3
3
3
3
3
3
3
3
3
3
3
3
3
3
3
3
3
3
3
3
3
3
3
3
3
3
3
3
3
3
3
3
3
3
3
3
3
3
3
3
3
3
3
3
3
3
3
3
3
3
3
3
3
3
3
3
3
3
3
3
3
3
3
3
3
3
3
3
3
3
3
3
3
3
3
3
3
3
3
3
3
3
3
3
3
3
3
3
3
3
3
3
3
3
3
3
3
3
3
3
3
3
3
3
3
3
3
3
3
3
3
3
3
3
3
3
3
3
3
3
3
3
3
3
3
3
3
3
3
3
3
3
3
3
3
3
3
3
3
3
3
3
3
3
3
3
3
3
3
3
3
3
3
3
3
3
3
3
3
3
3
3
3
3
3
3
3
3
3
3
3
3
3
3
3
3
3
3
3
3
3
3
3
3
3
3
3
3
3
3
3
3
3
3
3
3
3
3
3
3
3
3
3
3
3
3
3
3
3
3
3
3
3
3
3
3
3
3
3
3
3
3
3
3
3
3
3
3
3
3
3
3
3
3
3
3
3
3
3
3
3
3
3
3
3
3
3
3
3
3
3
3
3
3
3
3
3
3
3
3
3
3
3
3
3
3
3
3
3
3
3
3
3
3
3
3
3
3
3
3
3
3
3
3
3
3
3
3
3
3
3
3
3
3
3
3
3
3
3
3
3
3
3
3
3
3
3
3
3
3
3
3
3
3
3
3
3
3
3
3
3
3
3
3
3
3
3
3
3
3
3
3
3
3
3
3
3
3
3
3
3
3
3
3
3
3
3
3
3
3
3
3
3
3
3
3
3
3
3
3
3
3
3
3
3
3
3
3
3
3
3
3
3
3
3
3
3
3
3
3
3
3
3
3
3
3
3
3
3
3
3
3
3
3
3
3
3
3
3
3
3
3
3
3
3
3
3
3
3
3
3
3
3
3
3
3
3
3
3
3
3
3
3
3
3
3
3
3
3
3
3
3
3
3
3
3
3
3
3
3
3
3
3
3
3
3
3
3
3
3
3
3
3
3
3
3
3
3
3
3
3
3
3
3
3
3
3
3
3
3
3
3
3
3
3
3
3
3
3
3
3
3
3
3
3
3
3
3
3
3
3
3
3
3
3
3
3
3
3
3
3
3
3
3
3
3
3
3
3
3
3
3
3
3
3
3
3
3
3
3
3
3
3
3
3
3
3
3
3
3
3
3
3
3
3
3
3
3
3
3
1.28102
1.36612
1.2497
1.00055
1
1
1
1
1
1
1
1
1
1
1
1
1
1
1
1
1
1
1
1
1.00094
1
1
1
1.54609
1.3535
1.55091
1.69929
2.94302
2.95158
2.97813
2.98702
3
3
3
3
3
3
3
3
3
3
3
3
3
3
3
3
3
3
3
3
2.99998
2.99999
2.99999
2.99999
2.99999
2.99998
2.99998
2.99999
3
3
2.99999
2.99999
3
3
3
3
3
3
3
3
3
3
3
3
3
3
3
3
3
3
3
3
3
3
3
3
3
3
3
3
3
3
3
3
3
3
3
3
3
3
3
3
3
3
3
3
3
3
3
3
3
3
3
3
3
3
3
3
3
3
3
3
3
3
3
3
3
3
3
3
3
3
3
3
3
3
3
3
3
3
3
3
3
3
3
3
3
3
3
3
3
3
3
3
3
3
3
3
3
3
3
3
1.00071
1
1
1
1.00081
1.00985
0.98867
0.449357
0.0012868
0.00027649
0.000278596
0.265547
1.91852
2.29024
2.29069
1.89512
0.728775
0.869412
1.92708
1
1
1
1
1
1
1.00023
0.996209
0.487555
0.000762902
0.000943723
0.0616745
0.867476
1.29533
0.979585
0.500932
0.355077
0.841141
1.89635
1
1
1
1
1
1
1
1
0.994628
0.574218
0.0603728
0.0255195
0.0963563
0.10483
0.174283
0.253855
0.454808
0.901175
1.55616
1
1
1
1
1
1
1
1
1
0.999162
0.844084
0.567516
0.456804
0.545381
0.729462
0.90398
1.03186
0.99805
1.31511
1
1
1
1
1
1
1
1
1
1
1.00018
1.00252
1.00519
1.01273
1.02722
1.03722
1.04049
1.04184
1.45951
1
1
1
1
1
1
1
1
1
1
1
1
1.00612
1.01652
1.01796
1.02358
1.06329
1.24607
1.83207
1
1
1
1
1
1
1
1
1
1
1
1.00001
1.00185
1.06911
1.32343
1.77061
2.21457
2.42502
2.43506
1.71149
1.66034
1.58313
1.48928
1.39254
1.30948
1.25398
1.23017
1.22836
1.25512
1.36251
1.57964
1.98568
2.44957
2.81232
2.99901
2.99999
2.82244
2.6072
2.99121
2.98849
2.96507
2.9257
2.87058
2.80987
2.76439
2.74796
2.75063
2.79325
2.9002
3
3
3
3
3
2.99984
2.90307
2.79849
3
3
3
3
3
3
3
3
3
3
3
3
2.99947
2.99857
2.99936
2.99983
2.99965
3
3
3
3
3
3
3
3
3
3
3
3
3
2.99924
2.99645
2.99657
2.99745
3
3
3
2.99999
3
3
3
3
3
3
3
3
2.99999
2.99999
3
2.99917
2.99725
2.99748
2.99979
3
3
2.99999
2.99998
3
3
3
3
3
3
3
3
2.99999
2.99998
2.99999
3
3
3
3
3
3
3
2.99999
3
3
3
3
3
3
3
3
3
3
3
3
3
3
3
3
3
3
3
3
3
3
3
3
3
3
3
3
3
3
3
3
3
3
3
3
3
3
2.99999
3
3
3
3
3
3
3
3
3
3
3
3
3
3
3
3
3
3
3
3
3
3
3
3
3
3
3
3
3
3
3
3
3
3
3
3
3
3
3
3
3
3
3
3
3
3
3
3
3
3
3
3
3
3
3
3
3
3
3
3
3
3
3
3
3
3
3
3
3
3
3
3
3
3
3
3
3
3
3
3
3
3
3
3
3
3
3
3
3
3
3
3
3
3
3
3
3
3
3
3
3
3
3
3
3
3
3
3
3
3
3
3
3
3
3
3
3
3
3
3
3
3
3
3
3
3
3
3
3
3
3
3
3
3
3
3
3
3
3
3
3
3
3
3
3
3
3
3
3
3
3
3
3
3
3
3
3
3
3
3
3
3
3
3
3
3
3
3
3
3
3
3
3
3
3
3
3
3
3
3
3
3
3
3
3
3
3
3
3
3
3
3
3
3
3
3
3
3
3
3
3
3
3
3
3
3
3
3
3
3
3
3
3
3
3
3
3
3
3
3
3
3
3
3
3
3
3
3
3
3
3
3
3
3
3
3
3
3
3
3
3
3
3
3
3
3
3
3
3
3
3
3
3
3
3
3
3
3
3
3
3
3
3
3
3
3
3
3
3
3
3
3
3
3
3
3
3
3
3
3
3
3
3
3
3
3
3
3
3
3
3
3
3
3
3
3
3
3
3
3
3
3
3
3
3
3
3
3
3
3
3
3
3
3
3
3
3
3
3
3
3
3
3
3
3
3
3
3
3
3
3
3
3
3
3
3
3
3
3
3
3
3
3
3
3
3
3
3
3
3
3
3
3
3
3
3
3
3
3
3
3
3
3
3
3
3
3
3
3
3
3
3
3
3
3
3
3
3
3
3
3
3
3
3
3
3
3
3
3
3
3
3
3
3
3
3
3
3
3
3
3
3
3
3
3
3
3
3
3
3
3
3
3
3
3
3
3
3
3
3
3
3
3
3
3
3
3
3
3
3
3
3
3
3
3
3
3
3
3
3
3
3
3
3
3
3
3
3
3
3
3
3
3
3
3
3
3
3
3
3
3
3
3
3
3
3
3
3
3
3
3
3
3
3
3
3
3
3
3
3
3
3
3
3
3
3
3
3
3
3
3
3
3
3
3
3
3
3
3
3
3
3
3
3
3
3
3
3
3
3
3
3
)
;

boundaryField
{
    leftWall
    {
        type            calculated;
        value           nonuniform List<scalar> 
50
(
2
2
2
2
2
2
2
2
1.98452
0.594892
1.37313e-08
1.01679e-08
6.10985e-09
4.54736e-09
1.77195e-09
2.26875e-08
1.16109
2.96984
3
3
3
3
3
3
3
3
3
3
3
3
3
3
3
3
3
3
3
3
3
3
3
3
3
3
3
3
3
3
3
3
)
;
    }
    rightWall
    {
        type            calculated;
        value           nonuniform List<scalar> 
50
(
1.68912
1.68908
1.67945
1.57201
1.832
1.93482
1.93896
1.94213
1.92708
1.89635
1.55616
1.31511
1.45951
1.83207
2.43506
2.6072
2.79849
3
2.99999
2.99998
2.99999
3
3
3
3
3
3
3
3
3
3
3
3
3
3
3
3
3
3
3
3
3
3
3
3
3
3
3
3
3
)
;
    }
    lowerWall
    {
        type            calculated;
        value           nonuniform List<scalar> 
62
(
2
2
2
2
2
2
2
2
2
2
2
2
2
2
2
2
2
2
2
2
1.99985
1.99943
1.99943
1.99943
1.99943
1.99996
2
1.9724
0.85276
0.418023
1.1659
1.28102
1.36612
1.2497
1.00055
1.06481
1.06465
1.06552
1.05662
0.56771
1.40263
1.81075
1.60018
1.06481
1.09025
1.14165
1.17853
1.21
1.20903
1.17573
1.07989
1.07991
1.13846
1.45039
1.49439
1.45077
1.63478
2.1787
2.00889
1.78807
1.68262
1.68912
)
;
    }
    atmosphere
    {
        type            calculated;
        value           nonuniform List<scalar> 
46
(
3
3
3
3
3
3
3
3
3
3
3
3
3
3
3
3
3
3
3
3
3
3
3
3
3
3
3
3
3
3
3
3
3
3
3
3
3
3
3
3
3
3
3
3
3
3
)
;
    }
    defaultFaces
    {
        type            empty;
    }
}


// ************************************************************************* //
