/*--------------------------------*- C++ -*----------------------------------*\
  =========                 |
  \\      /  F ield         | OpenFOAM: The Open Source CFD Toolbox
   \\    /   O peration     | Website:  https://openfoam.org
    \\  /    A nd           | Version:  13
     \\/     M anipulation  |
\*---------------------------------------------------------------------------*/
FoamFile
{
    format      ascii;
    class       volScalarField;
    location    "1";
    object      alpha.water;
}
// * * * * * * * * * * * * * * * * * * * * * * * * * * * * * * * * * * * * * //

dimensions      [];

internalField   nonuniform List<scalar> 
2268
(
1.39382e-11
2.70985e-11
2.92798e-11
2.78773e-11
2.7481e-11
2.98543e-11
3.63195e-11
4.84509e-11
6.33377e-11
8.00104e-11
9.82598e-11
1.17731e-10
1.44491e-10
1.78024e-10
2.33004e-10
3.11852e-10
4.27723e-10
6.26958e-10
1.0032e-09
1.51437e-09
2.20203e-09
2.55327e-09
2.61594e-09
3.07104e-11
6.35397e-11
8.74354e-11
1.03941e-10
1.14415e-10
1.27057e-10
1.57485e-10
2.07642e-10
2.58082e-10
2.99023e-10
3.32328e-10
3.82807e-10
4.1481e-10
4.43479e-10
4.69092e-10
5.30377e-10
7.14427e-10
1.14576e-09
1.8639e-09
2.70809e-09
3.37203e-09
3.28302e-09
2.67974e-09
3.53435e-11
9.02327e-11
1.61975e-10
2.5799e-10
3.68192e-10
4.90125e-10
6.15859e-10
7.47551e-10
9.39945e-10
1.17352e-09
1.45746e-09
1.44598e-09
1.43786e-09
1.24612e-09
8.42828e-10
6.3315e-10
7.52844e-10
1.32635e-09
2.32379e-09
3.12055e-09
4.08212e-09
3.89268e-09
3.97325e-09
2.9659e-11
8.58599e-11
1.71246e-10
3.00726e-10
4.89912e-10
7.44941e-10
1.11018e-09
1.79075e-09
2.49139e-09
3.37933e-09
3.81632e-09
3.59006e-09
3.2086e-09
2.738e-09
1.34517e-09
3.1904e-10
1.98202e-10
1.95083e-10
2.75009e-08
2.95814e-08
1.10219e-09
9.32869e-10
1.13383e-09
3.27993e-11
8.08693e-11
1.33438e-10
2.0267e-10
3.3839e-10
1.81647e-09
6.40403e-09
1.63185e-08
1.64654e-08
1.32465e-08
8.9717e-09
2.40218e-09
-2.10448e-11
-4.45255e-12
1.64507e-19
-2.53207e-12
0.000177807
0.000678067
0.0011788
0.00179016
0.00350303
0.00908708
0.0137905
2.92339e-11
5.67895e-11
6.53788e-11
6.87794e-11
4.41025e-11
6.12688e-11
3.35111e-11
0.00601775
0.0436338
0.100697
0.163509
0.223296
0.27583
0.320842
0.364847
0.406297
0.438383
0.460778
0.475317
0.489455
0.519087
0.562213
0.575683
1.36894e-11
2.88136e-11
1.0305e-11
1.68163e-11
1.0305e-11
0.0784097
0.304469
0.558017
0.735109
0.841379
0.907426
0.948987
0.97541
0.993091
1
0.999998
0.999994
0.999992
0.999981
0.999803
0.997413
0.96323
0.853985
8.59663e-12
7.66547e-12
9.71469e-12
0.0987331
0.501816
0.853353
0.983397
1
1
1
1
1
1
1
1
0.999999
0.999999
0.999994
0.999994
0.999885
0.92347
0.562899
0.353762
2.4114e-07
1.10897e-07
1.09483e-07
0.00291816
0.056784
0.0344473
1.09416e-20
-1.00239e-17
-1.91801e-16
6.45284e-26
6.98342e-08
3.44667e-06
9.06635e-06
9.41926e-06
1.02918e-05
0.0557532
0.123135
0.121528
0.101292
1.17691e-05
0.00805339
0.306896
0.436021
0.567126
0.513289
0.379345
0.107971
-3.35675e-12
-7.29019e-11
-2.0633e-10
9.27293e-25
1.23007e-07
1.56129e-07
0.00577729
0.0272446
0.11816
0.0550922
3.54376e-05
2.09929e-06
0.40028
0.851848
0.886465
0.957123
0.939564
0.809249
0.596296
0.247762
0.159564
0.150304
0.0241616
1.15381e-07
0.0017679
0.00489916
0.0445688
0.0733232
0.0428196
3.27949e-05
0.0283351
0.768711
0.988
0.999735
0.999732
0.999735
0.999263
0.930556
0.759804
0.689088
0.556717
0.142357
0.0997514
0.0239871
0.00244719
0.0287713
0.04723
0.162301
0.00411303
0.74393
0.879634
0.95115
0.989969
0.9997
0.999735
0.999735
0.999735
0.999734
0.998603
0.962736
0.515151
0.250403
0.097148
0.00232373
0.00250871
0.0273157
0.199662
0.0392181
0.416505
0.497807
0.566058
0.758105
0.923472
0.995596
0.999736
0.999736
0.999736
0.999735
0.999734
0.97712
0.63207
0.114286
0.00227727
0.00456831
0.0243386
0.208786
0.0558732
4.80356e-09
0.0253968
0.0112887
0.0981077
0.286588
0.735917
0.996482
0.999735
0.999735
0.999735
0.999718
0.98964
0.514476
0.0749891
0.00229943
0.00244932
0.0490269
0.207141
0.0516093
-1.90587e-16
4.45552e-18
1.75997e-18
3.3882e-18
6.01197e-19
0.0791848
0.686782
0.999021
0.999734
0.999735
0.999622
0.972911
0.337224
0.00233088
0.00299541
0.012926
0.179464
0.203684
0.0352948
0.00773794
0.251928
0.602083
0.898251
0.995356
1
1
1
1
1
1
1
1
1
1
1
1
0.999998
0.998536
0.911155
0.433227
0.0390424
0.0533787
0.702554
0.956773
1
1
1
1
1
1
1
1
1
1
1
1
1
0.999971
0.997976
0.932084
0.587271
0.091125
-9.98357e-25
-1.0213e-15
-1.99687e-12
1
1
1
1
1
1
1
1
1
1
1
1
1
0.999999
0.990792
0.799169
0.417007
0.0257085
0.00441223
0.000312188
8.25269e-06
1.02152e-15
4.41331e-10
1
1
1
1
1
1
1
1
1
1
1
1
0.959745
0.624093
0.247928
0.00610229
0.00777006
-6.23845e-11
3.18542e-08
1.2751e-11
1.17999e-06
2.64038e-10
2.61394e-10
1
1
1
1
1
1
1
1
1
1
0.906212
0.578002
0.279911
0.00419777
-3.28482e-19
-5.40487e-21
6.08469e-19
2.38461e-06
2.30666e-06
2.78399e-10
2.75308e-10
2.7365e-10
3.13365e-10
1
1
1
1
1
1
1
1
0.967699
0.656252
0.418122
0.0173368
-1.40796e-18
-1.28973e-20
-9.45314e-24
2.3397e-10
3.14242e-08
1.9966e-07
3.60679e-07
4.65646e-09
8.86787e-11
2.06801e-10
1.93514e-10
1
1
1
1
1
1
0.999996
0.934811
0.669124
0.160057
4.7882e-13
-1.20699e-12
-3.93771e-10
-6.15905e-10
-3.08962e-10
-5.03414e-11
5.72262e-10
6.06117e-09
9.45449e-11
1.67113e-09
9.28399e-11
7.84079e-11
5.92724e-11
1
1
1
1
1
0.999985
0.972093
0.563615
0.0568342
-1.48834e-20
-1.3829e-11
1.35059e-07
4.02219e-07
5.1263e-07
2.66837e-07
1.53263e-07
5.16486e-08
7.964e-09
2.7415e-11
6.3282e-11
8.15384e-11
6.08417e-11
5.12234e-11
0.612969
0.67604
0.759171
0.828529
0.852106
0.754109
0.453329
0.0511978
0.000547944
0.000154827
-1.36709e-06
1.44393e-05
4.62111e-06
8.40397e-07
7.46311e-09
9.73309e-08
1.4849e-09
1.49479e-09
7.59939e-10
9.55665e-10
5.26647e-10
1.94925e-10
1.49932e-10
0.010054
0.0223083
0.0502379
0.0870957
0.104038
0.0687078
0.00998091
1.924e-06
0.000487849
0.000319124
-5.13492e-11
4.57126e-06
2.36294e-06
1.29479e-09
1.58559e-08
9.31542e-08
3.76782e-08
1.4875e-09
3.69272e-09
5.2831e-09
2.69286e-09
9.46301e-10
4.35597e-10
3.18024e-09
2.75467e-09
3.30051e-09
1.34202e-07
2.29e-10
3.38052e-10
2.28954e-10
3.33681e-10
6.49117e-05
3.72431e-05
5.75789e-06
6.83395e-10
2.07234e-08
6.27079e-09
1.89309e-07
2.32721e-07
1.97845e-07
6.03701e-08
3.61672e-09
1.30148e-08
4.27231e-09
9.36221e-10
6.24798e-10
1.00774e-08
1.04282e-08
4.45172e-09
-1.21917e-09
3.59551e-09
4.76594e-09
3.17436e-07
8.82557e-07
2.13481e-08
2.59826e-07
2.62843e-06
7.36337e-10
1.38845e-09
1.31553e-08
5.662e-08
9.91009e-08
5.71781e-07
9.14904e-07
6.07943e-07
8.80838e-08
6.21052e-09
4.97226e-09
2.21883e-09
1.54431e-08
1.28755e-08
1.61661e-08
1.12165e-08
1.71908e-09
2.90843e-09
7.39527e-08
1.14165e-07
2.3499e-09
2.85978e-08
3.91385e-08
5.17739e-09
1.09108e-09
9.80584e-09
2.3746e-08
6.39555e-08
4.00582e-07
9.90246e-07
1.91584e-06
2.6664e-06
6.81159e-07
5.24388e-09
3.37585e-08
1.4667e-08
9.08747e-09
1.11718e-08
1.01419e-08
6.91946e-09
7.06381e-10
6.44676e-10
5.10085e-10
1.80593e-09
1.70131e-09
7.36267e-09
2.96493e-09
1.43563e-09
2.05734e-09
5.6901e-09
1.8981e-08
6.11074e-08
1.62587e-07
1.43293e-06
2.91876e-06
3.27767e-06
4.28609e-06
2.40541e-06
1.18532e-08
5.84227e-09
5.7407e-09
6.14382e-09
6.36819e-09
2.84637e-09
1.96068e-09
1.78569e-09
3.27373e-09
3.36876e-09
2.81217e-09
2.10255e-09
1.5902e-09
1.04202e-09
1.14711e-09
2.70471e-09
1.68844e-08
4.98632e-08
9.11871e-08
1.4778e-07
2.38201e-06
4.45717e-06
4.95654e-06
8.67425e-09
3.7043e-09
2.69601e-09
2.90009e-09
4.24025e-09
3.25784e-09
3.18049e-09
2.54714e-09
3.17157e-09
3.82855e-09
3.63455e-09
2.66292e-09
1.82919e-09
1.00679e-09
5.12632e-10
4.22255e-10
7.10213e-10
1.43543e-08
4.22341e-08
3.80812e-08
2.07336e-08
2.13063e-07
3.06312e-06
5.30275e-09
2.14663e-09
1.26129e-09
1.15753e-09
2.15924e-09
2.34203e-09
2.6493e-09
2.22637e-09
2.58254e-09
3.38778e-09
3.35989e-09
2.70219e-09
1.79306e-09
9.65406e-10
4.01326e-10
3.26897e-10
2.71389e-10
1.98058e-09
5.60929e-09
1.55981e-08
1.07725e-08
2.00564e-09
2.00371e-09
3.14853e-09
1.19295e-09
6.17196e-10
4.23489e-10
8.75187e-10
1.27254e-09
1.71454e-09
1.59681e-09
1.84663e-09
2.4781e-09
2.50469e-09
2.14676e-09
1.49028e-09
8.10832e-10
3.09567e-10
2.20931e-10
2.04175e-10
4.57015e-10
1.05875e-09
1.10092e-09
6.04002e-10
1.97911e-10
5.73944e-09
1.59938e-09
6.0765e-10
2.72924e-10
1.43708e-10
2.65602e-10
4.58765e-10
7.42371e-10
8.23541e-10
1.12663e-09
1.49646e-09
1.53286e-09
1.37136e-09
1.01576e-09
5.86127e-10
2.26632e-10
1.34828e-10
1.32319e-10
2.1625e-10
3.85406e-10
3.88469e-10
3.23295e-10
2.05579e-10
9.41057e-10
7.33056e-10
2.89525e-10
1.16347e-10
4.67356e-11
4.37051e-11
1.35357e-10
2.5838e-10
3.01945e-10
4.66463e-10
6.68326e-10
7.46067e-10
6.99002e-10
5.54942e-10
3.48378e-10
1.43975e-10
8.08753e-11
7.96078e-11
1.26716e-10
2.06041e-10
2.50472e-10
2.62554e-10
2.44979e-10
3.40424e-10
3.39423e-10
1.42823e-10
5.9147e-11
2.34384e-11
1.49013e-11
1.56725e-11
5.839e-11
9.13688e-11
1.6367e-10
2.38133e-10
3.04382e-10
2.92187e-10
2.48028e-10
1.69034e-10
7.62711e-11
4.48744e-11
4.56153e-11
7.39232e-11
1.20936e-10
1.60727e-10
1.85555e-10
1.91614e-10
2.10723e-10
1.44055e-10
6.37627e-11
2.71096e-11
1.11062e-11
5.85199e-12
5.82575e-12
1.26925e-11
1.9445e-11
4.15194e-11
6.68624e-11
8.98755e-11
1.05876e-10
9.45979e-11
6.75226e-11
3.34475e-11
2.31112e-11
2.67949e-11
4.12528e-11
6.96255e-11
9.67e-11
1.15389e-10
1.24171e-10
1.37275e-10
5.42125e-11
2.46709e-11
1.06772e-11
4.53907e-12
2.32714e-12
1.85212e-12
2.8406e-12
4.2377e-12
1.09296e-11
2.00493e-11
2.78918e-11
2.96568e-11
3.05049e-11
2.34238e-11
1.29742e-11
1.16507e-11
1.45793e-11
2.31296e-11
3.91799e-11
5.5066e-11
6.7669e-11
7.44642e-11
7.94308e-11
1.68529e-11
8.09504e-12
3.58001e-12
1.57073e-12
7.9011e-13
5.49146e-13
5.85611e-13
9.42808e-13
2.56227e-12
5.00358e-12
7.41496e-12
8.22165e-12
7.48777e-12
5.71263e-12
4.41055e-12
5.08179e-12
7.71037e-12
1.24619e-11
2.0952e-11
2.94244e-11
3.63255e-11
4.00635e-11
4.49544e-11
4.37131e-12
2.2819e-12
1.03617e-12
4.6822e-13
2.34411e-13
1.48995e-13
1.2232e-13
1.75279e-13
4.7203e-13
9.90624e-13
1.57416e-12
1.90082e-12
1.78437e-12
1.55894e-12
1.50159e-12
2.29109e-12
3.77474e-12
6.20445e-12
1.03349e-11
1.43807e-11
1.78565e-11
2.03995e-11
2.19138e-11
9.61339e-13
5.53968e-13
2.5895e-13
1.20152e-13
6.02749e-14
3.60034e-14
2.45119e-14
2.86824e-14
7.28483e-14
1.62949e-13
2.75108e-13
3.51692e-13
3.72826e-13
3.99357e-13
5.40291e-13
9.52291e-13
1.66309e-12
2.77496e-12
4.62882e-12
6.30331e-12
7.72156e-12
8.46753e-12
9.53401e-12
1.83403e-13
1.16495e-13
5.60358e-14
2.65854e-14
1.33783e-14
7.65682e-15
4.58463e-15
4.14816e-15
9.458e-15
2.21269e-14
3.9917e-14
5.59243e-14
6.98084e-14
1.01594e-13
1.81701e-13
3.54436e-13
6.45557e-13
1.11102e-12
1.66203e-12
2.4271e-12
2.94662e-12
3.38733e-12
3.48872e-12
3.08991e-14
2.13073e-14
1.05267e-14
5.08821e-15
2.56782e-15
1.42397e-15
7.80224e-16
5.48565e-16
1.04458e-15
2.5198e-15
4.97001e-15
8.14905e-15
1.33073e-14
2.62958e-14
5.61795e-14
1.15961e-13
2.16682e-13
3.75626e-13
5.70913e-13
8.02644e-13
9.76211e-13
9.91406e-13
1.13934e-12
4.62372e-15
3.39826e-15
1.72143e-15
8.45848e-16
4.27737e-16
2.31171e-16
1.19014e-16
6.78541e-17
1.01323e-16
2.51861e-16
5.71554e-16
1.20141e-15
2.67789e-15
6.5841e-15
1.54689e-14
3.27699e-14
6.22375e-14
1.07901e-13
1.63107e-13
2.23709e-13
2.46649e-13
2.83862e-13
2.60315e-13
6.13757e-16
4.7427e-16
2.46133e-16
1.22716e-16
6.20471e-17
3.27895e-17
1.61181e-17
7.91219e-18
9.29749e-18
2.46046e-17
6.90164e-17
1.93634e-16
5.48544e-16
1.51294e-15
3.70306e-15
7.94377e-15
1.52088e-14
2.62098e-14
3.90195e-14
5.22586e-14
6.01662e-14
5.01102e-14
4.9024e-14
7.2391e-17
5.82978e-17
3.09726e-17
1.56195e-17
7.86854e-18
4.07338e-18
1.92738e-18
8.67293e-19
9.19956e-19
2.7847e-18
9.73581e-18
3.34818e-17
1.07366e-16
3.08937e-16
7.66007e-16
1.64867e-15
3.15192e-15
5.28924e-15
8.01427e-15
1.00358e-14
1.01695e-14
9.79199e-15
6.72591e-15
7.65364e-18
6.3746e-18
3.45776e-18
1.75459e-18
8.77042e-19
4.4462e-19
2.03096e-19
8.93507e-20
1.0945e-19
3.91738e-19
1.54725e-18
5.75221e-18
1.9178e-17
5.53976e-17
1.37066e-16
2.92909e-16
5.53113e-16
9.15351e-16
1.19359e-15
1.5952e-15
1.66147e-15
9.89522e-16
8.03942e-16
7.35381e-19
6.27683e-19
3.45352e-19
1.76233e-19
8.65553e-20
4.28196e-20
1.88979e-20
8.77219e-21
1.50501e-20
5.99378e-20
2.43539e-19
9.09094e-19
3.09328e-18
8.95538e-18
2.18134e-17
4.56683e-17
8.33025e-17
1.33101e-16
1.77452e-16
1.67213e-16
1.29992e-16
1.26121e-16
6.69073e-17
6.51174e-20
5.66333e-20
3.12664e-20
1.47927e-20
7.58025e-21
3.6595e-21
1.56282e-21
8.4303e-22
2.10899e-21
8.74906e-21
3.52413e-20
1.28689e-19
4.00735e-19
9.9192e-19
2.39287e-18
4.8444e-18
9.72241e-18
1.48878e-17
1.71067e-17
1.69804e-17
1.62282e-17
9.47183e-18
3.63255e-18
5.4563e-21
4.42507e-21
2.40917e-21
1.02737e-21
5.68788e-22
2.65817e-22
1.09993e-22
7.60497e-23
2.55641e-22
1.08697e-21
4.30216e-21
1.5256e-20
4.49947e-20
1.12682e-19
2.69908e-19
5.28761e-19
7.5232e-19
1.1114e-18
1.4569e-18
1.68277e-18
1.12913e-18
4.84615e-19
1.05309e-19
3.31998e-22
2.82715e-22
1.47309e-22
6.50598e-23
3.47376e-23
1.55037e-23
6.29959e-24
6.46161e-24
2.69549e-23
1.25189e-22
4.88746e-22
1.69771e-21
4.98441e-21
1.3095e-20
2.94742e-20
5.47474e-20
8.91461e-20
1.08675e-19
1.18487e-19
1.15853e-19
6.35948e-20
1.66982e-20
2.40086e-21
2.50804e-23
1.68515e-23
7.94594e-24
3.8051e-24
1.77826e-24
7.48519e-25
3.19441e-25
5.6525e-25
2.72042e-24
1.36446e-23
5.22229e-23
1.67873e-22
4.80907e-22
1.29269e-21
2.68123e-21
4.67403e-21
7.29779e-21
8.22957e-21
7.85156e-21
6.05223e-21
2.54315e-21
5.17459e-22
2.76616e-23
1.92084e-24
1.11208e-24
4.59595e-25
2.07776e-25
8.81591e-26
3.39155e-26
1.72935e-26
5.31921e-26
2.74532e-25
1.33434e-24
4.98922e-24
1.47346e-23
4.13386e-23
1.09739e-22
2.12515e-22
3.49503e-22
4.81993e-22
5.54245e-22
4.69375e-22
2.86389e-22
9.53428e-23
1.00319e-23
3.17674e-25
1.10642e-25
7.48144e-26
2.80631e-26
1.19719e-26
4.83545e-27
1.62132e-27
1.12408e-27
5.18851e-27
2.72988e-26
1.21491e-25
4.44357e-25
1.29979e-24
3.58636e-24
8.70381e-24
1.59528e-23
2.47303e-23
2.95489e-23
3.25244e-23
2.40604e-23
1.23492e-23
2.89578e-24
2.64642e-25
3.43794e-27
6.00338e-27
4.64944e-27
1.69671e-27
7.21006e-28
2.76881e-28
7.90817e-29
8.52099e-29
4.88211e-28
2.53514e-27
1.05223e-26
3.74764e-26
1.11458e-25
2.96172e-25
6.49171e-25
1.12168e-24
1.61953e-24
1.74539e-24
1.6862e-24
1.0795e-24
4.58105e-25
7.66223e-26
2.0269e-27
4.04476e-28
3.34218e-28
2.6856e-28
1.01692e-28
4.03456e-29
1.42443e-29
3.38692e-30
6.73866e-30
4.18301e-29
2.10963e-28
8.37393e-28
2.88711e-27
8.49313e-27
2.13123e-26
4.39007e-26
7.09559e-26
9.47957e-26
9.51275e-26
7.89938e-26
4.36914e-26
1.43628e-26
1.69196e-27
4.52998e-29
1.63015e-28
1.94041e-29
1.46821e-29
5.86121e-30
2.04223e-30
6.07827e-31
1.08315e-31
5.13925e-31
3.22647e-30
1.57238e-29
6.02623e-29
2.00527e-28
5.71745e-28
1.33482e-27
2.66937e-27
4.02685e-27
4.98308e-27
4.69713e-27
3.39078e-27
1.6437e-27
4.40743e-28
3.83784e-29
9.80676e-30
5.82766e-29
0.131276
0.0502328
4.10917e-10
4.24314e-10
6.21453e-10
5.03348e-10
2.35952e-09
2.77033e-09
2.11643e-09
2.20736e-09
2.1562e-09
1.9813e-09
3.87164e-10
3.64265e-10
2.76994e-10
2.39812e-10
3.08891e-10
2.88784e-10
2.85441e-10
2.84166e-10
1.50635e-10
1.47327e-10
1.45391e-10
1.44543e-10
5.26737e-11
5.04856e-11
4.95144e-11
4.98403e-11
4.81599e-11
4.63323e-11
4.45723e-11
4.28292e-11
1.52089e-10
1.55156e-10
1.55992e-10
1.48886e-10
4.18488e-10
4.3457e-10
4.23694e-10
4.01004e-10
8.23245e-10
8.76949e-10
9.14859e-10
9.04442e-10
1.29459e-09
1.17496e-09
1.46783e-09
1.70624e-09
7.54144e-09
1.00754e-08
3.15387e-09
6.45866e-09
5.92734e-07
2.48222e-07
2.9897e-07
9.72618e-08
4.98547e-06
4.95928e-06
4.67766e-06
2.2749e-06
4.07534e-06
4.97574e-06
4.9618e-06
4.90789e-06
2.24986e-08
7.46405e-07
2.13309e-06
2.67666e-06
7.16166e-09
1.51178e-09
1.46287e-09
1.51043e-09
2.08922e-09
2.40103e-09
1.92479e-09
1.55903e-09
4.11564e-10
5.10277e-10
6.18731e-10
5.51725e-10
2.2979e-10
2.44872e-10
2.50651e-10
3.40704e-10
1.43387e-10
1.46941e-10
1.52566e-10
1.63229e-10
8.28244e-11
8.61873e-11
8.83597e-11
9.55452e-11
4.64753e-11
4.71463e-11
4.90579e-11
5.30387e-11
2.24661e-11
2.33678e-11
2.48879e-11
2.74189e-11
1.03898e-11
1.08559e-11
1.14422e-11
1.20182e-11
3.63337e-12
3.86845e-12
3.88375e-12
3.91165e-12
1.18413e-12
1.1387e-12
1.09898e-12
1.0421e-12
2.46519e-13
2.33215e-13
1.99448e-13
1.75331e-13
4.49864e-14
3.50044e-14
2.87054e-14
2.2444e-14
5.31043e-15
4.12731e-15
3.20239e-15
2.68812e-15
5.40983e-16
3.30237e-16
2.22565e-16
1.65055e-16
2.7704e-17
1.78837e-17
1.17713e-17
7.42321e-18
1.10715e-18
5.50715e-19
3.37076e-19
1.9848e-19
1.83842e-20
9.83298e-21
5.1542e-21
2.50813e-21
4.41937e-23
7.98292e-23
6.1276e-23
2.5939e-23
2.71192e-27
2.64485e-25
2.75671e-25
2.82801e-25
2.69887e-27
1.22034e-26
3.98061e-26
1.07272e-25
2.68872e-27
7.07661e-27
2.62774e-26
8.1537e-26
1.39429e-27
5.04663e-27
1.60306e-26
4.95492e-26
6.90793e-28
2.69052e-27
8.58218e-27
2.44768e-26
3.09084e-28
9.44285e-28
2.68152e-27
6.59245e-27
7.80757e-10
1.90204e-09
2.25161e-09
1.57621e-09
6.93221e-10
7.93642e-10
0.0283768
0.561705
0.999458
0.999732
0.999729
0.854774
0.149823
0.0131274
0.0471835
0.196546
0.583392
0.159321
0.0341433
3.6314e-09
6.02814e-09
9.53739e-09
1.55782e-08
2.55562e-08
8.15086e-08
4.18987e-09
0.00703697
0.514563
0.999543
0.999397
0.965193
0.568292
0.357602
0.455425
0.675104
0.684807
0.172641
0.0348156
1.95615e-09
2.08607e-09
1.13854e-08
4.02195e-08
4.29266e-08
3.83511e-08
3.72038e-09
1.25496e-06
0.00567475
0.426034
0.941436
0.984113
0.930004
0.917027
0.857165
0.751104
0.547456
0.100827
0.0343459
2.07495e-10
1.74243e-10
1.69582e-10
1.72491e-10
1.02086e-09
3.95406e-09
4.11508e-09
4.31377e-09
3.17135e-09
0.000844777
0.156452
0.435189
0.54583
0.457058
0.281069
0.124902
0.00325591
0.0145794
0.00886135
2.82451e-10
2.85849e-10
3.33635e-10
4.31147e-10
4.99786e-10
5.68545e-10
4.27641e-09
2.2886e-08
6.34383e-08
1.73563e-07
1.80014e-07
-3.03191e-11
3.35922e-21
-1.67631e-14
1.78279e-26
1.09672e-13
8.5177e-11
7.91289e-19
7.31607e-05
1.51351e-10
1.71116e-10
2.18377e-10
3.62933e-10
5.78618e-10
7.38134e-10
1.0276e-09
2.38739e-09
4.2501e-09
3.72653e-08
6.56136e-07
5.42174e-09
5.42534e-08
2.03786e-17
9.98198e-13
5.4791e-05
1.85649e-05
2.03798e-24
1.80571e-21
5.17106e-11
5.93141e-11
8.32706e-11
1.25919e-10
2.17796e-10
4.28467e-10
6.00262e-10
6.25361e-10
7.31756e-10
2.17857e-08
3.70062e-07
1.03186e-06
6.40549e-07
1.45501e-13
1.33301e-10
7.86043e-05
3.49469e-05
1.3567e-12
3.09092e-19
3.95782e-11
3.50548e-11
3.16653e-11
2.94431e-11
2.8269e-11
5.00449e-11
2.40484e-10
6.00495e-10
6.97327e-10
3.89508e-10
4.50329e-12
4.95281e-12
4.50375e-12
3.4711e-11
1.1855e-10
3.81092e-10
1.11107e-10
3.19904e-09
4.46047e-11
1.24404e-10
8.54259e-11
5.55906e-11
3.63555e-11
2.34214e-11
1.587e-11
9.06431e-12
4.92239e-12
4.6035e-12
4.50328e-12
4.49257e-12
6.11461e-12
1.0905e-11
1.61843e-11
1.38478e-11
1.66197e-11
1.16557e-10
1.79035e-10
1.81237e-10
3.53484e-10
2.56299e-10
1.79086e-10
1.13083e-10
6.50169e-11
3.50571e-11
1.71618e-11
8.07053e-12
5.72671e-12
5.02429e-12
4.88394e-12
3.92291e-12
3.05102e-12
2.73617e-12
7.83984e-12
2.51755e-11
3.0199e-11
1.38988e-11
1.76802e-11
8.30696e-10
7.02192e-10
5.12473e-10
2.38047e-10
1.57442e-10
1.05796e-10
6.22292e-11
2.1709e-11
1.19701e-11
9.35514e-12
4.89649e-12
3.3431e-12
2.66383e-12
1.90284e-12
8.24877e-13
3.70693e-13
1.68017e-13
3.00675e-14
1.84316e-14
1.8119e-09
1.8166e-09
1.0842e-09
3.56216e-10
2.46335e-10
1.78692e-10
1.21443e-10
4.80538e-11
3.10614e-11
2.64813e-11
1.68666e-11
1.08263e-11
6.25662e-12
3.68546e-12
2.1685e-12
1.00381e-12
5.63164e-13
1.82952e-13
3.25256e-14
2.68474e-09
2.59143e-09
2.57551e-09
9.60262e-10
4.98601e-10
3.16941e-10
2.37875e-10
1.66052e-10
1.08381e-10
6.2206e-11
3.41271e-11
1.92117e-11
8.86915e-12
5.47096e-12
3.4928e-12
2.0498e-12
1.06771e-12
3.48219e-13
4.35246e-14
1.13667e-08
3.87977e-09
4.89381e-09
3.70855e-09
2.00926e-09
8.587e-10
4.59661e-10
3.05747e-10
2.13455e-10
1.07962e-10
5.84831e-11
3.02796e-11
1.61149e-11
8.04551e-12
5.1404e-12
2.90749e-12
1.49689e-12
4.87181e-13
6.8989e-14
3.3521e-07
5.06668e-09
4.95764e-09
6.13563e-09
4.76612e-09
2.46675e-09
8.10516e-10
4.15512e-10
2.69756e-10
1.65098e-10
9.68324e-11
5.02799e-11
2.26104e-11
1.06728e-11
5.80166e-12
3.47197e-12
1.84917e-12
6.11789e-13
8.90084e-14
4.27738e-06
2.32534e-07
8.91627e-09
2.45549e-08
1.06473e-08
6.39897e-09
1.87849e-09
6.4538e-10
3.85522e-10
2.14436e-10
1.20887e-10
6.65159e-11
3.16621e-11
1.3867e-11
6.28281e-12
3.60646e-12
2.12788e-12
7.33948e-13
1.04473e-13
1.44672e-06
8.44146e-07
5.37629e-08
4.80045e-08
1.67423e-08
9.03853e-09
4.31121e-09
1.47838e-09
4.70402e-10
2.16245e-10
1.24633e-10
7.53508e-11
3.69935e-11
1.67596e-11
6.48207e-12
3.36032e-12
2.11465e-12
8.39743e-13
1.17421e-13
2.00597e-09
2.14192e-09
1.28691e-07
6.81193e-08
2.11099e-08
1.16319e-08
5.98095e-09
2.58202e-09
6.61027e-10
2.46753e-10
1.12891e-10
7.1511e-11
3.98986e-11
1.76511e-11
6.55414e-12
2.8552e-12
1.94541e-12
8.78011e-13
1.26119e-13
2.96525e-09
8.62338e-09
2.82219e-08
2.25921e-08
1.7358e-08
1.16676e-08
6.74212e-09
3.10766e-09
1.12272e-09
3.25582e-10
9.27522e-11
5.53488e-11
3.46527e-11
1.70555e-11
6.49113e-12
2.68091e-12
1.67215e-12
8.79064e-13
1.31756e-13
2.54134e-09
8.40435e-09
7.97478e-09
7.74601e-09
8.78746e-09
7.39177e-09
4.9435e-09
2.78329e-09
1.20529e-09
3.59419e-10
7.7689e-11
3.65838e-11
2.46414e-11
1.38995e-11
5.82806e-12
2.38833e-12
1.38087e-12
7.41998e-13
1.31467e-13
5.70699e-10
1.59772e-09
4.77493e-09
5.75069e-09
5.20558e-09
4.04677e-09
2.76744e-09
1.70139e-09
8.95765e-10
3.18622e-10
5.80589e-11
2.18517e-11
1.51218e-11
9.51843e-12
4.52646e-12
2.0279e-12
1.08705e-12
5.44898e-13
1.18108e-13
2.99491e-10
6.69768e-10
1.58468e-09
2.32779e-09
2.15419e-09
1.74185e-09
1.23631e-09
7.98615e-10
4.69253e-10
1.92881e-10
3.61314e-11
1.23102e-11
8.43026e-12
5.75391e-12
3.04848e-12
1.59257e-12
9.08384e-13
3.73052e-13
9.64555e-14
1.66278e-10
3.22586e-10
5.00357e-10
6.91088e-10
7.01897e-10
5.99507e-10
4.57578e-10
3.2049e-10
2.02269e-10
8.20071e-11
1.77385e-11
6.48192e-12
4.46228e-12
3.21167e-12
1.74924e-12
7.02474e-13
4.87317e-13
2.92205e-13
5.37143e-14
8.71242e-11
1.43817e-10
1.7643e-10
2.08309e-10
2.05543e-10
1.801e-10
1.45768e-10
1.11575e-10
6.95284e-11
2.64968e-11
7.44199e-12
3.16971e-12
1.89276e-12
8.90414e-13
3.82275e-13
2.24465e-13
2.45952e-13
1.71074e-13
4.32883e-14
3.95941e-11
5.12803e-11
5.28646e-11
5.51434e-11
5.21594e-11
4.90657e-11
4.28364e-11
3.26104e-11
1.92637e-11
8.30626e-12
2.59378e-12
7.313e-13
2.96578e-13
1.56465e-13
1.08529e-13
9.88215e-14
1.07775e-13
1.14058e-13
2.70749e-14
1.45878e-11
1.48865e-11
1.41545e-11
1.36871e-11
1.3118e-11
1.19381e-11
1.08308e-11
8.27576e-12
4.2419e-12
1.45291e-12
3.21478e-13
8.90721e-14
4.54442e-14
3.6281e-14
4.24938e-14
5.05459e-14
4.92611e-14
4.44496e-14
1.68658e-14
3.80946e-12
3.42384e-12
3.17847e-12
2.99689e-12
2.9174e-12
2.72561e-12
1.84049e-12
1.00921e-12
4.2285e-13
1.16552e-13
2.54105e-14
9.33647e-15
8.80964e-15
1.21574e-14
1.84683e-14
2.49291e-14
2.52098e-14
1.84918e-14
6.1029e-15
8.93341e-13
7.25082e-13
6.30315e-13
5.91356e-13
4.55168e-13
3.1065e-13
1.87209e-13
9.07723e-14
3.05599e-14
6.6858e-15
1.42675e-15
1.40277e-15
2.28996e-15
4.51971e-15
8.03502e-15
1.16164e-14
1.16704e-14
7.78548e-15
2.77948e-15
1.3148e-13
1.06947e-13
8.98633e-14
6.10685e-14
4.26285e-14
2.90896e-14
1.69953e-14
7.09908e-15
1.56865e-15
1.5707e-16
1.22208e-16
2.59937e-16
6.98081e-16
1.59903e-15
3.24987e-15
4.87617e-15
4.865e-15
2.62785e-15
8.18913e-16
1.69491e-14
1.10214e-14
6.07535e-15
3.35881e-15
1.49621e-15
4.34523e-16
7.59239e-17
6.72781e-18
1.25378e-18
3.66071e-18
1.60936e-17
6.11169e-17
1.96213e-16
5.09468e-16
1.15167e-15
1.74856e-15
1.73919e-15
9.50343e-16
1.86279e-16
1.67841e-15
7.62758e-16
2.58916e-16
4.22656e-17
1.90882e-18
1.58057e-20
3.35841e-21
4.96889e-21
6.93899e-20
5.96611e-19
2.65025e-18
1.10486e-17
4.72647e-17
1.40908e-16
3.52179e-16
5.33108e-16
5.29269e-16
2.62028e-16
5.09163e-17
1.05837e-16
3.98237e-17
7.91051e-18
5.40283e-19
8.63795e-21
1.65688e-21
2.492e-21
4.78381e-21
1.5133e-20
5.92634e-20
2.32052e-19
1.52415e-18
1.09222e-17
3.76776e-17
9.20454e-17
1.41897e-16
1.76755e-16
6.34174e-17
1.5381e-17
3.82574e-18
1.19264e-18
2.39149e-19
1.89683e-20
9.47185e-22
1.14838e-21
2.34528e-21
5.13715e-21
1.11234e-20
2.33268e-20
4.86069e-20
2.19216e-19
2.40966e-18
9.0178e-18
2.04333e-17
3.66907e-17
4.56777e-17
2.11274e-17
3.99955e-18
8.17414e-20
1.90323e-20
2.04578e-21
3.08173e-22
4.40292e-22
9.70693e-22
2.30032e-21
5.25904e-21
1.14044e-20
2.30649e-20
4.3976e-20
8.61859e-20
4.22886e-19
1.71796e-18
4.96368e-18
1.18064e-17
9.76389e-18
4.16009e-18
5.96297e-19
7.99205e-22
1.0751e-22
6.26044e-23
1.20433e-22
3.139e-22
8.26771e-22
2.07019e-21
4.87023e-21
1.08956e-20
2.23412e-20
4.16718e-20
6.60773e-20
1.04942e-19
5.69601e-19
2.50442e-18
4.22205e-18
3.10882e-18
8.76322e-19
1.00387e-19
6.07306e-24
8.67241e-24
2.58936e-23
8.05758e-23
2.36394e-22
6.52467e-22
1.67084e-21
4.04119e-21
9.22612e-21
1.93169e-20
3.63379e-20
5.77295e-20
7.79618e-20
3.47614e-19
1.09335e-18
1.3887e-18
7.82145e-19
1.74618e-19
1.64536e-20
1.12681e-24
4.57992e-24
1.65553e-23
5.41479e-23
1.6532e-22
4.5614e-22
1.18364e-21
2.93901e-21
6.72674e-21
1.41719e-20
2.64545e-20
4.26656e-20
5.9559e-20
1.77912e-19
3.19676e-19
2.88224e-19
1.13307e-19
1.93648e-20
4.47519e-21
6.94542e-25
2.73393e-24
1.01818e-23
3.42875e-23
1.02992e-22
2.92971e-22
7.55434e-22
1.82479e-21
4.10615e-21
8.61899e-21
1.57668e-20
2.47712e-20
3.38802e-20
7.63243e-20
6.38098e-20
3.87573e-20
1.09094e-20
4.53224e-21
1.48017e-21
3.6614e-25
1.54073e-24
5.7583e-24
1.91747e-23
5.73183e-23
1.59831e-22
4.05554e-22
9.38255e-22
2.0442e-21
4.17785e-21
7.376e-21
1.10018e-20
1.44576e-20
2.15908e-20
1.42062e-20
5.55311e-21
2.60964e-21
1.27977e-21
7.35149e-22
1.87188e-25
7.19528e-25
2.55429e-24
8.20976e-24
2.38349e-23
6.40674e-23
1.59242e-22
3.73386e-22
7.88005e-22
1.53672e-21
2.65406e-21
3.93386e-21
4.48134e-21
5.0872e-21
2.74673e-21
1.41067e-21
6.4425e-22
4.46068e-22
3.36701e-22
7.0106e-26
2.58646e-25
8.79924e-25
2.70235e-24
7.56022e-24
1.99548e-23
4.92814e-23
1.11528e-22
2.3374e-22
4.35369e-22
6.99624e-22
9.70407e-22
1.07437e-21
9.68117e-22
4.85111e-22
3.08648e-22
1.48027e-22
1.33302e-22
9.51594e-23
1.49672e-26
5.15704e-26
1.67503e-25
4.94614e-25
1.34356e-24
3.5767e-24
8.28645e-24
1.86895e-23
3.75546e-23
6.82791e-23
1.06704e-22
1.39794e-22
1.43981e-22
9.88822e-23
5.14923e-23
3.84565e-23
3.06008e-23
1.29064e-23
1.22885e-23
)
;

boundaryField
{
    leftWall
    {
        type            alphaContactAngle;
        contactAngleProperties 
        {
            mercury         
            {
                theta0          90;
            }
            air             
            {
                theta0          90;
            }
            oil             
            {
                theta0          90;
            }
        }
        value           nonuniform List<scalar> 
50
(
1.39382e-11
3.07104e-11
3.53435e-11
2.9659e-11
3.27993e-11
2.92339e-11
1.36894e-11
8.59663e-12
0.00773794
0.702554
1
1
1
1
1
1
0.612969
0.010054
3.18024e-09
1.00774e-08
1.54431e-08
1.4667e-08
1.18532e-08
8.67425e-09
5.30275e-09
3.14853e-09
1.59938e-09
7.33056e-10
3.39423e-10
1.44055e-10
5.42125e-11
1.68529e-11
4.37131e-12
9.61339e-13
1.83403e-13
3.08991e-14
4.62372e-15
6.13757e-16
7.2391e-17
7.65364e-18
7.35381e-19
6.51174e-20
5.4563e-21
3.31998e-22
2.50804e-23
1.92084e-24
1.10642e-25
6.00338e-27
3.34218e-28
1.94041e-29
)
;
    }
    rightWall
    {
        type            alphaContactAngle;
        contactAngleProperties 
        {
            mercury         
            {
                theta0          90;
            }
            air             
            {
                theta0          90;
            }
            oil             
            {
                theta0          90;
            }
        }
        value           nonuniform List<scalar> 
50
(
0.101292
3.54376e-05
3.27949e-05
0.00411303
0.0392181
0.0558732
0.0516093
0.0352948
0.0341433
0.0348156
0.0343459
0.00886135
7.31607e-05
1.80571e-21
3.09092e-19
4.46047e-11
1.81237e-10
1.76802e-11
1.84316e-14
3.25256e-14
4.35246e-14
6.8989e-14
8.90084e-14
1.04473e-13
1.17421e-13
1.26119e-13
1.31756e-13
1.31467e-13
1.18108e-13
9.64555e-14
5.37143e-14
4.32883e-14
2.70749e-14
1.68658e-14
6.1029e-15
2.77948e-15
8.18913e-16
1.86279e-16
5.09163e-17
1.5381e-17
3.99955e-18
5.96297e-19
1.00387e-19
1.64536e-20
4.47519e-21
1.48017e-21
7.35149e-22
3.36701e-22
9.51594e-23
1.22885e-23
)
;
    }
    lowerWall
    {
        type            alphaContactAngle;
        contactAngleProperties 
        {
            mercury         
            {
                theta0          90;
            }
            air             
            {
                theta0          90;
            }
            oil             
            {
                theta0          90;
            }
        }
        value           nonuniform List<scalar> 
62
(
1.39382e-11
2.70985e-11
2.92798e-11
2.78773e-11
2.7481e-11
2.98543e-11
3.63195e-11
4.84509e-11
6.33377e-11
8.00104e-11
9.82598e-11
1.17731e-10
1.44491e-10
1.78024e-10
2.33004e-10
3.11852e-10
4.27723e-10
6.26958e-10
1.0032e-09
1.51437e-09
2.20203e-09
2.55327e-09
2.61594e-09
2.61594e-09
2.67974e-09
3.97325e-09
1.13383e-09
0.0137905
0.575683
0.853985
0.353762
0.131276
0.0502328
4.10917e-10
4.24314e-10
2.4114e-07
1.17691e-05
2.09929e-06
0.0283351
0.74393
0.416505
4.80356e-09
-1.90587e-16
2.4114e-07
1.10897e-07
1.09483e-07
0.00291816
0.056784
0.0344473
1.09416e-20
-1.00239e-17
-1.91801e-16
6.45284e-26
6.98342e-08
3.44667e-06
9.06635e-06
9.41926e-06
1.02918e-05
0.0557532
0.123135
0.121528
0.101292
)
;
    }
    atmosphere
    {
        type            inletOutlet;
        inletValue      uniform 0;
        value           nonuniform List<scalar> 
46
(
1.94041e-29
1.46821e-29
5.86121e-30
2.04223e-30
6.07827e-31
1.08315e-31
5.13925e-31
3.22647e-30
1.57238e-29
6.02623e-29
2.00527e-28
5.71745e-28
1.33482e-27
2.66937e-27
4.02685e-27
4.98308e-27
4.69713e-27
3.39078e-27
1.6437e-27
4.40743e-28
3.83784e-29
9.80676e-30
0
0
0
0
0
0
0
0
0
0
0
0
0
0
0
0
0
0
0
0
0
0
0
0
)
;
    }
    defaultFaces
    {
        type            empty;
    }
}


// ************************************************************************* //
