/*--------------------------------*- C++ -*----------------------------------*\
  =========                 |
  \\      /  F ield         | OpenFOAM: The Open Source CFD Toolbox
   \\    /   O peration     | Website:  https://openfoam.org
    \\  /    A nd           | Version:  13
     \\/     M anipulation  |
\*---------------------------------------------------------------------------*/
FoamFile
{
    format      ascii;
    class       volScalarField;
    location    "1";
    object      epsilon;
}
// * * * * * * * * * * * * * * * * * * * * * * * * * * * * * * * * * * * * * //

dimensions      [0 2 -3 0 0 0 0];

internalField   nonuniform List<scalar> 
2268
(
0.0120544
0.0469819
0.0777224
0.111442
0.151946
0.199831
0.255448
0.322007
0.398492
0.487215
0.589125
0.7024
0.821856
0.938754
1.04158
1.11756
1.15377
1.13756
1.05674
0.90071
0.662465
0.362972
0.0560005
0.023274
0.039276
0.0526838
0.0646496
0.079006
0.0971826
0.120229
0.149712
0.185491
0.228204
0.278013
0.333936
0.393592
0.453145
0.507546
0.551014
0.577462
0.580774
0.554968
0.494486
0.395192
0.259891
0.110067
0.041825
0.0408585
0.0484948
0.0559372
0.0660817
0.0802954
0.0996506
0.125349
0.157756
0.197111
0.242919
0.293704
0.347058
0.399781
0.448069
0.487769
0.514585
0.524219
0.512368
0.474552
0.40603
0.304867
0.206186
0.0596814
0.0433251
0.0476006
0.0535973
0.0629379
0.0769077
0.0967893
0.123909
0.158873
0.201509
0.250576
0.303872
0.358614
0.411715
0.459962
0.50012
0.529026
0.543668
0.541117
0.51808
0.469716
0.390521
0.327131
0.0751687
0.0458357
0.0478748
0.0535272
0.0632756
0.0784334
0.100646
0.131527
0.17178
0.22061
0.275808
0.334313
0.392908
0.448584
0.49863
0.5406
0.572346
0.592129
0.598679
0.590841
0.565728
0.517031
0.500858
0.0873621
0.0481065
0.0487146
0.0546018
0.0654403
0.0827295
0.108602
0.145026
0.192636
0.249653
0.312623
0.377553
0.440879
0.499799
0.552179
0.596379
0.631269
0.656494
0.672906
0.682981
0.689918
0.697724
0.790578
0.0955539
0.0499208
0.0498184
0.0563796
0.0688609
0.0891259
0.119907
0.163537
0.220361
0.287109
0.358797
0.430539
0.498632
0.56069
0.615295
0.661642
0.699639
0.730392
0.757264
0.787858
0.836799
0.945646
1.33885
0.0991044
0.0510065
0.0509843
0.0587071
0.0733853
0.0974771
0.134487
0.187033
0.254806
0.332335
0.41297
0.491204
0.563545
0.628253
0.684688
0.732787
0.773393
0.808875
0.844819
0.893739
0.983212
1.22693
2.43875
0.365022
1.01435
1.53986
1.64072
1.69803
1.58564
1.41237
1.21778
1.06473
1.01165
0.937569
0.694254
0.496449
0.334483
0.228731
0.217957
0.270882
0.351228
0.263767
0.297509
0.609096
0.801426
0.860877
0.880474
0.855559
0.82186
0.767229
0.717868
0.661849
0.551723
0.431082
0.331296
0.255779
0.212368
0.188273
0.199744
0.259136
0.210361
0.369632
0.58793
0.70569
0.74384
0.752811
0.736547
0.708917
0.670198
0.631675
0.591404
0.514944
0.411476
0.324839
0.258532
0.210217
0.197628
0.220685
0.289619
0.266577
0.534636
0.661715
0.718266
0.726526
0.719868
0.698496
0.669182
0.635035
0.603445
0.575694
0.513787
0.414611
0.333511
0.273317
0.229862
0.211304
0.247208
0.300553
0.326255
0.860733
0.797041
0.766019
0.737385
0.712594
0.683147
0.650463
0.617314
0.589161
0.566663
0.511619
0.418915
0.342411
0.290844
0.2656
0.263262
0.299602
0.313476
0.400428
1.31763
0.942006
0.817865
0.754704
0.713252
0.675734
0.639269
0.604807
0.574976
0.548225
0.497979
0.418669
0.349004
0.309256
0.302949
0.330863
0.359093
0.331929
0.463674
1.94275
1.05574
0.856793
0.769142
0.714664
0.670246
0.630253
0.593563
0.560169
0.52749
0.479076
0.412067
0.354574
0.327501
0.336553
0.373454
0.388632
0.346066
0.48755
3.17923
1.13308
0.875944
0.775574
0.713132
0.663973
0.621292
0.582638
0.546533
0.510261
0.46393
0.406761
0.360495
0.343785
0.363135
0.398396
0.391235
0.355566
0.497198
0.0967669
0.0512275
0.0528922
0.0633389
0.0825093
0.113991
0.163099
0.23246
0.319033
0.413545
0.50719
0.594157
0.671713
0.739277
0.797273
0.846502
0.88891
0.928145
0.971613
1.03354
1.13536
1.33184
1.77648
0.0963798
0.0512367
0.0557448
0.0703499
0.099002
0.148539
0.225537
0.328497
0.446144
0.563376
0.669933
0.761682
0.83838
0.90192
0.954371
0.997113
1.03254
1.0637
1.0965
1.13926
1.19299
1.25263
1.32604
0.0970775
0.0500267
0.0563684
0.0783526
0.123631
0.204058
0.323989
0.469476
0.616357
0.747649
0.855602
0.940717
1.00632
1.05705
1.0956
1.12286
1.14018
1.1496
1.15193
1.15307
1.15245
1.14009
1.1174
0.087878
0.0489458
0.0590834
0.0928832
0.165898
0.294669
0.471518
0.660527
0.826818
0.9566
1.05123
1.11769
1.16179
1.18979
1.20418
1.20306
1.18689
1.16521
1.14154
1.11546
1.08447
1.04491
0.99896
0.0831915
0.0501739
0.0663179
0.119771
0.238083
0.435171
0.673955
0.894168
1.06137
1.17283
1.23958
1.27563
1.28677
1.27778
1.25453
1.22276
1.18589
1.14707
1.1083
1.06777
1.02344
0.974836
0.923952
0.0847358
0.0543228
0.0808359
0.167749
0.355508
0.636274
0.928714
1.15738
1.30138
1.37531
1.39869
1.38841
1.35611
1.31267
1.26645
1.2191
1.17167
1.12419
1.0769
1.02868
0.978668
0.927537
0.877027
0.0920208
0.0624435
0.107582
0.248556
0.530442
0.898194
1.22416
1.4316
1.52409
1.53663
1.50284
1.44741
1.3876
1.32824
1.27143
1.21653
1.16313
1.11062
1.05867
1.00664
0.954381
0.902973
0.853836
0.108466
0.0780785
0.154563
0.372861
0.763704
1.2092
1.53872
1.68436
1.69573
1.63818
1.56104
1.48364
1.41188
1.34548
1.28372
1.22515
1.16866
1.11343
1.05899
1.00515
0.95215
0.900978
0.852698
0.149497
0.108852
0.233754
0.548979
1.05368
1.56436
1.84415
1.86902
1.79765
1.70041
1.60497
1.51885
1.44237
1.37335
1.30958
1.24929
1.19127
1.13469
1.07905
1.02432
0.970826
0.919511
0.87171
0.232696
0.160736
0.355759
0.775833
1.40213
1.98115
2.08271
1.97481
1.86458
1.75346
1.65165
1.56253
1.48463
1.41489
1.35044
1.28932
1.23041
1.17301
1.11687
1.06135
1.0062
0.953375
0.904944
0.259618
0.216352
0.471886
0.974022
1.69045
2.19848
2.15975
2.04581
1.9391
1.81634
1.70773
1.61617
1.53769
1.46801
1.40346
1.34201
1.28222
1.22325
1.16531
1.10814
1.05198
0.997875
0.947468
0.301702
0.234735
0.466481
0.939821
1.56377
1.96571
2.08973
2.11433
2.0637
1.892
1.76666
1.67269
1.5951
1.52645
1.4627
1.40122
1.34073
1.281
1.22219
1.16423
1.10736
1.05197
0.999164
0.371099
0.237195
0.419316
0.80043
1.30483
1.6919
1.88062
2.02902
2.02861
1.90018
1.79974
1.71999
1.65021
1.58614
1.52498
1.46483
1.40489
1.34525
1.28626
1.22798
1.1701
1.11282
1.05693
0.382847
0.228065
0.368862
0.665666
1.06669
1.41326
1.62733
1.77106
1.81805
1.79363
1.75795
1.71486
1.66682
1.61667
1.56492
1.51117
1.45526
1.3984
1.34148
1.28437
1.22641
1.16735
1.10858
0.360803
0.207242
0.313775
0.54188
0.8596
1.16187
1.37265
1.51728
1.59483
1.62336
1.63239
1.62749
1.61086
1.585
1.55182
1.51233
1.4674
1.41869
1.36778
1.3151
1.26012
1.20224
1.14296
0.319284
0.179342
0.258616
0.433489
0.683181
0.937289
1.13122
1.26917
1.36008
1.41421
1.45006
1.47319
1.48446
1.48459
1.47446
1.45492
1.42715
1.39275
1.35309
1.30905
1.26091
1.20836
1.15238
0.271666
0.150703
0.208319
0.339684
0.532461
0.741109
0.913726
1.04155
1.13304
1.19633
1.24381
1.28177
1.31124
1.33173
1.34261
1.34358
1.3351
1.31826
1.29406
1.26315
1.22582
1.18229
1.13342
0.229729
0.125927
0.165598
0.261311
0.405954
0.572332
0.721828
0.838773
0.926379
0.991105
1.0419
1.08499
1.12258
1.15443
1.17946
1.19654
1.20504
1.20503
1.19685
1.18078
1.15688
1.12527
1.08677
0.196171
0.106386
0.131842
0.199175
0.303942
0.43164
0.556337
0.661113
0.74355
0.807197
0.858304
0.902341
0.942235
0.978651
1.0109
1.03775
1.05802
1.07093
1.07607
1.07325
1.06229
1.0432
1.0167
0.171349
0.0922149
0.106895
0.152693
0.225972
0.319936
0.419175
0.50955
0.58533
0.64683
0.697573
0.741617
0.781838
0.819497
0.854541
0.886099
0.912988
0.93409
0.948521
0.955653
0.955084
0.946706
0.931013
0.154202
0.0827027
0.0895298
0.119764
0.169612
0.236193
0.31147
0.38573
0.452739
0.510548
0.560234
0.604122
0.644358
0.682231
0.718063
0.751399
0.78132
0.806743
0.826653
0.840225
0.846892
0.84642
0.839038
0.143009
0.0767327
0.0780236
0.0974467
0.130796
0.176775
0.231681
0.289868
0.346401
0.398548
0.445744
0.488746
0.528684
0.566421
0.602279
0.636017
0.666969
0.694235
0.716876
0.734064
0.745195
0.74997
0.748482
0.135961
0.0731276
0.0706316
0.0827496
0.104947
0.136382
0.175503
0.219467
0.265124
0.310068
0.353057
0.393813
0.432555
0.469562
0.504896
0.538305
0.569239
0.596957
0.620652
0.639586
0.653198
0.661187
0.663569
0.131512
0.0708897
0.0658762
0.0731434
0.087976
0.109569
0.137279
0.169842
0.205557
0.242778
0.280287
0.317371
0.353673
0.388979
0.423034
0.455445
0.485656
0.512998
0.536769
0.556325
0.571174
0.581041
0.585922
0.128531
0.0693153
0.0626678
0.0667442
0.0767522
0.0918146
0.111611
0.135639
0.163101
0.193062
0.224632
0.25708
0.289831
0.322392
0.354275
0.384936
0.413764
0.440102
0.4633
0.482782
0.49811
0.509038
0.515554
0.126304
0.0679918
0.0602998
0.0622802
0.0691156
0.0798495
0.0942468
0.112122
0.133156
0.156891
0.182791
0.210293
0.238839
0.267866
0.296788
0.324982
0.351795
0.376568
0.398677
0.417584
0.432886
0.444353
0.45196
0.124435
0.0667292
0.0583717
0.0589632
0.0636849
0.071516
0.0822192
0.0957192
0.111914
0.130617
0.151544
0.174331
0.198539
0.223661
0.249131
0.274333
0.298623
0.32136
0.341949
0.359879
0.374768
0.386389
0.394693
0.122748
0.065475
0.0566899
0.0563432
0.0596266
0.0654706
0.0736087
0.0839878
0.0965884
0.111353
0.128152
0.146771
0.166903
0.18815
0.21003
0.231998
0.253468
0.273852
0.292599
0.309234
0.323392
0.334844
0.343514
0.121186
0.0642449
0.0551819
0.054184
0.0564614
0.0609093
0.0672269
0.0753497
0.0852783
0.097007
0.110486
0.125597
0.142139
0.159823
0.178271
0.197036
0.215623
0.233522
0.250246
0.265366
0.278543
0.28955
0.298285
0.119762
0.0630814
0.0538365
0.0523727
0.0539246
0.0573627
0.0623554
0.0688165
0.0767408
0.0861368
0.0969895
0.109236
0.122749
0.137325
0.152684
0.168479
0.184313
0.199766
0.214427
0.227923
0.23995
0.250288
0.25882
0.11851
0.0620313
0.0526684
0.0508626
0.0518753
0.0545613
0.058564
0.063775
0.0701753
0.0777707
0.0865586
0.0965047
0.107527
0.119487
0.132181
0.145349
0.158686
0.171858
0.184532
0.196395
0.207182
0.216692
0.224802
0.117481
0.061139
0.0517017
0.0496394
0.0502405
0.0523502
0.0555935
0.0598433
0.0650656
0.0712582
0.0784199
0.0865302
0.0955355
0.105339
0.115796
0.126716
0.137868
0.148995
0.159834
0.170132
0.179663
0.188252
0.195779
0.116727
0.0604454
0.0509625
0.0487044
0.048983
0.050639
0.0532844
0.0567781
0.0610732
0.0661588
0.0720311
0.0786754
0.0860548
0.0941011
0.102711
0.111744
0.12103
0.130374
0.139572
0.148422
0.15674
0.164376
0.17122
0.116313
0.0599906
0.050477
0.0480647
0.048083
0.0493711
0.0515332
0.0544178
0.0579687
0.0621674
0.0670062
0.0724729
0.0785402
0.0851587
0.0922534
0.0997222
0.107439
0.115256
0.123019
0.130569
0.137757
0.144459
0.150581
0.116299
0.0598141
0.0502699
0.0477282
0.047527
0.0485063
0.0502656
0.0526473
0.0555883
0.0590643
0.0630642
0.0675761
0.0725786
0.0780347
0.0838892
0.0900672
0.096475
0.103004
0.109536
0.115947
0.122121
0.127951
0.133356
0.116752
0.0599543
0.0503626
0.0476987
0.0473001
0.0480081
0.0494204
0.0513756
0.0538061
0.0566832
0.059993
0.063723
0.0678552
0.0723612
0.0771997
0.0823154
0.0876403
0.0930947
0.0985909
0.104036
0.109335
0.1144
0.119159
0.117719
0.0604414
0.0507669
0.0479703
0.0473788
0.0478353
0.0489374
0.0505214
0.0525164
0.0548903
0.0576263
0.060711
0.0641284
0.0678559
0.0718623
0.0761077
0.0805444
0.0851173
0.0897659
0.094423
0.0990148
0.103463
0.107695
0.119221
0.0612881
0.0514765
0.0485186
0.0477236
0.047935
0.0487506
0.050005
0.051624
0.053572
0.0558293
0.0583811
0.0612124
0.0643044
0.0676339
0.0711737
0.0748936
0.0787618
0.0827449
0.0868041
0.0908861
0.0949145
0.0987974
0.121216
0.062472
0.0524526
0.0492903
0.0482707
0.0482363
0.0487836
0.0497441
0.0510394
0.0526298
0.0544922
0.05661
0.0589679
0.0615502
0.06434
0.0673207
0.0704788
0.0738063
0.0773014
0.0809625
0.0847685
0.0886457
0.0924466
0.123579
0.0639152
0.0536045
0.0501887
0.0489241
0.0486471
0.0489487
0.0496543
0.05068
0.0519809
0.05353
0.0553082
0.0572999
0.0594908
0.0618691
0.0644276
0.0671678
0.0701066
0.0732804
0.0767434
0.0805419
0.0846446
0.08882
0.126058
0.0654424
0.0547562
0.0510539
0.0495458
0.0490506
0.049147
0.0496517
0.0504733
0.0515616
0.0528854
0.0544233
0.0561585
0.0580781
0.0601734
0.062444
0.064904
0.0675927
0.0705877
0.0740197
0.0780733
0.0829274
0.0884624
0.12819
0.0666475
0.0555842
0.0516393
0.0499508
0.0493086
0.0492765
0.0496615
0.0503664
0.0513366
0.052538
0.0539474
0.0555475
0.0573254
0.0592743
0.0613972
0.0637152
0.0662809
0.0692012
0.0726766
0.0770825
0.0831776
0.092849
3.08511
3.10902
3.61457
4.66186
1.41491
1.43047
1.42604
1.37173
1.09414
1.07231
1.0417
1.00036
0.95757
0.930096
0.901255
0.871188
0.880917
0.85409
0.828092
0.803106
0.835935
0.810833
0.787168
0.765095
0.815023
0.791437
0.769386
0.749053
0.815042
0.792359
0.771258
0.751762
0.834948
0.812653
0.791588
0.771508
0.868168
0.845716
0.824319
0.804062
0.908567
0.884998
0.862992
0.842218
0.958795
0.93434
0.911039
0.888811
1.01399
0.987738
0.962525
0.938341
1.0634
1.03557
1.00882
0.98304
1.09728
1.06888
1.0414
1.01475
1.10878
1.08128
1.05436
1.02798
1.0945
1.06941
1.04444
1.01964
1.05456
1.03309
1.01123
0.98915
0.992424
0.975208
0.957151
0.938414
0.91449
0.901815
0.887932
0.872996
0.829014
0.820481
0.810542
0.79933
0.743171
0.737944
0.731297
0.723321
0.661463
0.658711
0.654616
0.64924
0.586062
0.585043
0.582839
0.579474
0.51728
0.517516
0.516749
0.514954
0.454861
0.456068
0.456399
0.455844
0.39847
0.40042
0.40161
0.402052
0.34791
0.350406
0.352256
0.353483
0.303064
0.305919
0.308243
0.310056
0.263758
0.266796
0.269422
0.271631
0.229709
0.23279
0.235548
0.237975
0.200493
0.203502
0.206256
0.208749
0.175631
0.178473
0.181117
0.183555
0.154624
0.157236
0.159696
0.161994
0.137007
0.139363
0.1416
0.143708
0.122421
0.124522
0.126527
0.128426
0.110617
0.112491
0.114281
0.115977
0.10147
0.103167
0.104779
0.106296
0.0949978
0.0965814
0.0980578
0.0994191
0.0913997
0.0929234
0.094281
0.0954786
0.0911684
0.0925939
0.0937458
0.0946799
0.0952387
0.0961766
0.0967793
0.0971895
1.59434
1.06033
0.870642
0.771959
0.704874
0.651875
0.607057
0.567032
0.529191
0.491255
0.449292
0.404831
0.370719
0.361827
0.381732
0.403004
0.379761
0.363947
0.528633
1.12262
0.932973
0.819539
0.742985
0.684582
0.636514
0.595444
0.559065
0.5251
0.491457
0.45633
0.420821
0.39289
0.380387
0.380811
0.379082
0.36127
0.375168
0.554335
0.92845
0.836653
0.76508
0.709572
0.665012
0.627983
0.596509
0.568591
0.541954
0.514753
0.48628
0.457385
0.431649
0.411458
0.39475
0.375732
0.360549
0.395239
0.586705
0.828257
0.770102
0.720923
0.681366
0.650262
0.625903
0.606647
0.590555
0.575078
0.55743
0.536038
0.511625
0.484715
0.454526
0.421575
0.387914
0.367924
0.406252
0.655308
0.769555
0.726116
0.689659
0.6612
0.640579
0.62698
0.618825
0.614025
0.609916
0.603253
0.590989
0.570747
0.539332
0.497763
0.449619
0.401605
0.36949
0.398306
0.704651
0.736178
0.700298
0.671072
0.649381
0.635317
0.62836
0.627238
0.629753
0.632968
0.633197
0.626083
0.607013
0.572899
0.52375
0.465201
0.407505
0.362608
0.360984
0.652059
0.722614
0.690496
0.66476
0.646109
0.634609
0.629733
0.630259
0.63415
0.63843
0.639138
0.631838
0.612553
0.578283
0.528098
0.466353
0.408739
0.360758
0.315841
0.480294
0.726284
0.695449
0.670716
0.652587
0.641005
0.635382
0.634519
0.636468
0.638408
0.636934
0.628682
0.61097
0.580219
0.530837
0.469192
0.429179
0.393515
0.28302
0.316588
0.745219
0.713928
0.688831
0.670121
0.65764
0.650871
0.648832
0.649677
0.650349
0.647741
0.641483
0.634257
0.611533
0.551088
0.482404
0.476632
0.377522
0.297213
0.307833
0.775971
0.742638
0.715794
0.695407
0.681602
0.674145
0.672197
0.673589
0.673687
0.666537
0.64987
0.628824
0.586528
0.521823
0.467774
0.442298
0.393378
0.370939
0.449353
0.813677
0.777698
0.746422
0.720008
0.698346
0.681077
0.667381
0.655481
0.642108
0.623352
0.598791
0.569916
0.53595
0.501052
0.484228
0.503562
0.531165
0.473608
0.590717
0.858066
0.818519
0.782378
0.749299
0.719044
0.691294
0.665639
0.641432
0.61755
0.592523
0.566083
0.539387
0.514067
0.496943
0.499058
0.52614
0.550196
0.530298
0.69342
0.904323
0.860098
0.818794
0.780105
0.743724
0.709302
0.676553
0.645254
0.615204
0.586181
0.558083
0.531594
0.509414
0.497587
0.500322
0.515678
0.530933
0.545756
0.781148
0.945657
0.896434
0.850211
0.806783
0.765775
0.726826
0.689689
0.654262
0.620568
0.588627
0.558462
0.530811
0.508474
0.494888
0.491254
0.49616
0.50894
0.551576
0.870113
0.974874
0.921898
0.871912
0.82485
0.78038
0.738173
0.697995
0.659749
0.623464
0.58924
0.557287
0.52843
0.504519
0.487571
0.478503
0.478465
0.49338
0.555876
0.953924
0.987131
0.932329
0.880257
0.830991
0.784329
0.74003
0.697904
0.657865
0.619943
0.584284
0.551225
0.521518
0.496468
0.477489
0.465951
0.464726
0.48303
0.559475
1.02872
0.979712
0.925504
0.873402
0.823658
0.77629
0.731218
0.688356
0.647672
0.609237
0.573247
0.540093
0.510466
0.485391
0.466123
0.454429
0.454165
0.476149
0.563024
1.09401
0.952158
0.901209
0.851308
0.802979
0.75656
0.712185
0.669922
0.629852
0.592118
0.556976
0.524844
0.496369
0.472452
0.454321
0.443984
0.445817
0.471636
0.567881
1.1536
0.90618
0.861018
0.815451
0.77044
0.72662
0.684404
0.644068
0.605838
0.569961
0.536752
0.506656
0.480284
0.458477
0.44245
0.434316
0.438626
0.467708
0.570754
1.19875
0.846492
0.808391
0.768573
0.728278
0.688412
0.649624
0.612389
0.577083
0.544052
0.513674
0.486404
0.462828
0.443732
0.430295
0.424611
0.431233
0.46265
0.569573
1.22375
0.778657
0.747826
0.714347
0.679555
0.644511
0.610029
0.576737
0.54513
0.515642
0.488695
0.46475
0.44436
0.428256
0.417546
0.41424
0.422773
0.455536
0.56369
1.22923
0.707906
0.683775
0.656509
0.627392
0.597518
0.567779
0.538886
0.511411
0.485842
0.462626
0.442219
0.425135
0.412039
0.403949
0.402748
0.41268
0.445836
0.552904
1.21639
0.638208
0.619825
0.598196
0.574473
0.549693
0.524742
0.500349
0.477116
0.455549
0.436099
0.4192
0.405321
0.395054
0.389311
0.389827
0.400603
0.433273
0.537246
1.18667
0.57196
0.558341
0.541611
0.522763
0.50273
0.482334
0.462275
0.443141
0.425428
0.409569
0.395965
0.385031
0.37728
0.373514
0.375302
0.38637
0.417766
0.516924
1.14175
0.510264
0.500581
0.48804
0.473486
0.457727
0.441496
0.425434
0.410088
0.395924
0.38334
0.372696
0.364347
0.358725
0.356517
0.359123
0.369967
0.39941
0.492324
1.08358
0.453453
0.447059
0.438099
0.42728
0.41529
0.402766
0.390277
0.378316
0.367305
0.357602
0.349516
0.343343
0.339434
0.338362
0.341352
0.351519
0.378453
0.463984
1.01441
0.401549
0.397923
0.392017
0.384416
0.375695
0.366399
0.357024
0.348004
0.339713
0.332463
0.326513
0.322099
0.319493
0.319158
0.322151
0.331266
0.355268
0.432588
0.936687
0.354501
0.353177
0.34984
0.344963
0.339023
0.332478
0.325752
0.319222
0.313212
0.307988
0.30376
0.300706
0.299024
0.299076
0.301756
0.309539
0.330333
0.398921
0.853053
0.312239
0.312764
0.311523
0.30889
0.305252
0.300988
0.296455
0.291975
0.287823
0.284219
0.281326
0.27927
0.278181
0.278331
0.280463
0.286741
0.304202
0.363857
0.766228
0.274636
0.276565
0.276956
0.276097
0.274296
0.27186
0.269085
0.266238
0.263548
0.261191
0.259286
0.257912
0.257144
0.257173
0.258609
0.263319
0.277481
0.328322
0.678993
0.241481
0.244388
0.245969
0.24644
0.246036
0.245002
0.243576
0.241977
0.240388
0.238944
0.237727
0.236774
0.236114
0.235879
0.236562
0.239759
0.250819
0.29329
0.594102
0.212478
0.215981
0.218353
0.219746
0.220336
0.220314
0.219867
0.219168
0.218361
0.217542
0.21676
0.21602
0.215324
0.214757
0.214723
0.216582
0.224902
0.259769
0.514275
0.187286
0.191063
0.19388
0.195839
0.19707
0.197715
0.19792
0.197819
0.197518
0.197083
0.196535
0.195862
0.195046
0.194156
0.193537
0.194348
0.200461
0.228815
0.442146
0.165563
0.16936
0.172342
0.174574
0.176147
0.177168
0.177749
0.17799
0.177969
0.177726
0.177266
0.176567
0.175616
0.174485
0.173498
0.17367
0.178281
0.201538
0.380285
0.147014
0.150648
0.153582
0.155855
0.157532
0.158695
0.159429
0.159811
0.159895
0.159708
0.159243
0.158484
0.15744
0.156215
0.155155
0.155203
0.15919
0.179116
0.331153
0.131419
0.134775
0.137512
0.139657
0.14126
0.142388
0.143111
0.143488
0.14356
0.143343
0.142835
0.142035
0.140989
0.139865
0.139079
0.139599
0.144012
0.162762
0.297134
0.118651
0.121664
0.124109
0.126012
0.127421
0.128397
0.129002
0.129287
0.129284
0.129008
0.128466
0.127682
0.126754
0.125934
0.125767
0.127382
0.133435
0.153683
0.280712
0.108668
0.111308
0.113402
0.114993
0.116138
0.1169
0.117337
0.117494
0.117404
0.117082
0.116549
0.115857
0.115156
0.114796
0.115508
0.118759
0.127789
0.153055
0.28546
0.101504
0.103738
0.105438
0.106678
0.10753
0.10806
0.108324
0.108364
0.108211
0.107884
0.107414
0.106876
0.106459
0.1066
0.108241
0.113393
0.126685
0.162018
0.319231
0.0972371
0.0989971
0.100257
0.101126
0.101686
0.101999
0.102118
0.102078
0.101905
0.101622
0.101261
0.100902
0.100743
0.101254
0.103525
0.110194
0.128289
0.181041
0.405101
0.0959553
0.0971111
0.0978771
0.0983697
0.0986601
0.0987974
0.0988177
0.098747
0.0986041
0.0984059
0.0981787
0.0979847
0.0979796
0.0985521
0.100707
0.107287
0.127824
0.205103
0.63054
0.0976795
0.0980676
0.0983031
0.0984411
0.0985096
0.098527
0.0985066
0.0984585
0.0983901
0.0983082
0.0982236
0.0981604
0.0981798
0.0984429
0.0994188
0.102741
0.11595
0.196981
1.47295
)
;

boundaryField
{
    leftWall
    {
        type            epsilonWallFunction;
        value           nonuniform List<scalar> 
50
(
0.0120544
0.023274
0.041825
0.0596814
0.0751687
0.0873621
0.0955539
0.0991044
0.0967669
0.0963798
0.0970775
0.087878
0.0831915
0.0847358
0.0920208
0.108466
0.149497
0.232696
0.259618
0.301702
0.371099
0.382847
0.360803
0.319284
0.271666
0.229729
0.196171
0.171349
0.154202
0.143009
0.135961
0.131512
0.128531
0.126304
0.124435
0.122748
0.121186
0.119762
0.11851
0.117481
0.116727
0.116313
0.116299
0.116752
0.117719
0.119221
0.121216
0.123579
0.126058
0.12819
)
;
    }
    rightWall
    {
        type            epsilonWallFunction;
        value           nonuniform List<scalar> 
50
(
0.263767
0.210361
0.266577
0.326255
0.400428
0.463674
0.48755
0.497198
0.528633
0.554335
0.586705
0.655308
0.704651
0.652059
0.480294
0.316588
0.307833
0.449353
0.590717
0.69342
0.781148
0.870113
0.953924
1.02872
1.09401
1.1536
1.19875
1.22375
1.22923
1.21639
1.18667
1.14175
1.08358
1.01441
0.936687
0.853053
0.766228
0.678993
0.594102
0.514275
0.442146
0.380285
0.331153
0.297134
0.280712
0.28546
0.319231
0.405101
0.63054
1.47295
)
;
    }
    lowerWall
    {
        type            epsilonWallFunction;
        value           nonuniform List<scalar> 
62
(
0.0120544
0.0469819
0.0777224
0.111442
0.151946
0.199831
0.255448
0.322007
0.398492
0.487215
0.589125
0.7024
0.821856
0.938754
1.04158
1.11756
1.15377
1.13756
1.05674
0.90071
0.662465
0.362972
0.0560005
0.0560005
0.110067
0.206186
0.327131
0.500858
0.790578
1.33885
2.43875
3.08511
3.10902
3.61457
4.66186
0.365022
0.297509
0.369632
0.534636
0.860733
1.31763
1.94275
3.17923
0.365022
1.01435
1.53986
1.64072
1.69803
1.58564
1.41237
1.21778
1.06473
1.01165
0.937569
0.694254
0.496449
0.334483
0.228731
0.217957
0.270882
0.351228
0.263767
)
;
    }
    atmosphere
    {
        type            inletOutlet;
        inletValue      uniform 0.1;
        value           nonuniform List<scalar> 
46
(
0.12819
0.0666475
0.0555842
0.0516393
0.0499508
0.0493086
0.0492765
0.0496615
0.0503664
0.0513366
0.052538
0.0539474
0.0555475
0.0573254
0.0592743
0.0613972
0.0637152
0.0662809
0.0692012
0.0726766
0.0770825
0.0831776
0.1
0.1
0.1
0.1
0.1
0.1
0.1
0.1
0.1
0.1
0.1
0.1
0.1
0.1
0.1
0.1
0.1
0.1
0.1
0.1
0.1
0.1
0.1
0.1
)
;
    }
    defaultFaces
    {
        type            empty;
    }
}


// ************************************************************************* //
