/*--------------------------------*- C++ -*----------------------------------*\
  =========                 |
  \\      /  F ield         | OpenFOAM: The Open Source CFD Toolbox
   \\    /   O peration     | Website:  https://openfoam.org
    \\  /    A nd           | Version:  13
     \\/     M anipulation  |
\*---------------------------------------------------------------------------*/
FoamFile
{
    format      ascii;
    class       volScalarField;
    location    "1";
    object      k;
}
// * * * * * * * * * * * * * * * * * * * * * * * * * * * * * * * * * * * * * //

dimensions      [0 2 -2 0 0 0 0];

internalField   nonuniform List<scalar> 
2268
(
0.00199657
0.00496843
0.00696338
0.0088739
0.010928
0.013128
0.0154702
0.0180585
0.0208321
0.0238365
0.027059
0.0304064
0.0337153
0.0367667
0.0393128
0.0411045
0.0418954
0.0414251
0.0393835
0.0353738
0.028813
0.0193036
0.00560198
0.00513561
0.0116868
0.0155125
0.0191719
0.0232426
0.0277694
0.0327498
0.0382512
0.044382
0.0511862
0.058541
0.0661621
0.0736442
0.0805065
0.0862372
0.0903227
0.0922438
0.091439
0.0872423
0.0788225
0.0651844
0.0452401
0.0144065
0.00758507
0.0161853
0.0209082
0.0253187
0.0302191
0.0357643
0.0420507
0.0492192
0.0573884
0.0665125
0.0763229
0.0863666
0.0960845
0.104875
0.112133
0.117267
0.119674
0.118691
0.113511
0.103095
0.0861211
0.060995
0.021813
0.00960035
0.0195381
0.0248725
0.0298439
0.035384
0.0417486
0.0491476
0.0577962
0.0678059
0.0790042
0.0909408
0.102986
0.114453
0.124673
0.133013
0.13887
0.141631
0.140607
0.134934
0.123436
0.104421
0.0753998
0.0295964
0.0111796
0.0221281
0.0280133
0.0335323
0.0397136
0.0469123
0.0554658
0.0656654
0.0775954
0.090904
0.104916
0.118817
0.131818
0.143222
0.152419
0.158839
0.161904
0.16095
0.155121
0.14317
0.123043
0.0910126
0.0392391
0.0123402
0.0241165
0.030585
0.0366937
0.0435737
0.0516947
0.0615363
0.073464
0.0874981
0.103034
0.119128
0.134786
0.149155
0.161556
0.17144
0.178307
0.181646
0.180866
0.175179
0.16339
0.143229
0.109721
0.0530418
0.0130825
0.0255796
0.0327107
0.0394879
0.0471603
0.0563353
0.0676502
0.0815373
0.097901
0.115789
0.133955
0.151253
0.166813
0.180026
0.19044
0.197651
0.201239
0.20072
0.195446
0.184426
0.165506
0.133298
0.0751011
0.0133912
0.0265436
0.034462
0.0420372
0.0506201
0.0610001
0.0740141
0.0901303
0.109056
0.129367
0.149521
0.168285
0.184841
0.198691
0.2095
0.216953
0.220738
0.220484
0.215711
0.205772
0.189069
0.161207
0.11184
0.0193534
0.038075
0.0502334
0.052161
0.0532744
0.0508716
0.0468659
0.0423706
0.0389293
0.0377703
0.0358802
0.0293555
0.0233669
0.0179398
0.0141104
0.0138914
0.0162086
0.0193107
0.0154315
0.0298628
0.0775814
0.103169
0.111749
0.114237
0.111822
0.103588
0.0941263
0.0865088
0.0840224
0.078414
0.0656866
0.0534951
0.0418904
0.0319316
0.0283686
0.0320215
0.0394291
0.0236144
0.0343538
0.0951687
0.128118
0.140854
0.144479
0.141802
0.133373
0.123066
0.113434
0.108118
0.100558
0.0853801
0.0710849
0.0576461
0.0434515
0.0377076
0.0429949
0.0521027
0.0277396
0.0436965
0.111653
0.149055
0.16285
0.166092
0.162453
0.153861
0.143291
0.133029
0.125994
0.116334
0.0997072
0.0844626
0.070633
0.056408
0.0477888
0.0543455
0.0602549
0.0319744
0.0595973
0.133712
0.169706
0.181723
0.18329
0.178432
0.169378
0.158509
0.147784
0.13931
0.128045
0.111015
0.0954976
0.0824209
0.0714181
0.0646376
0.0696922
0.0670431
0.036708
0.0793136
0.159873
0.189897
0.198349
0.197577
0.191366
0.181671
0.1703
0.158714
0.148301
0.136074
0.120047
0.105089
0.0937422
0.0864386
0.0847362
0.0859277
0.0738988
0.0402923
0.102754
0.18644
0.208328
0.212692
0.209554
0.201977
0.191579
0.179644
0.16715
0.155072
0.142036
0.127159
0.113913
0.104719
0.100567
0.100672
0.0976144
0.0796318
0.0413527
0.143138
0.210025
0.223928
0.22471
0.219481
0.210698
0.199664
0.18728
0.174205
0.161185
0.147797
0.133936
0.122369
0.115099
0.113209
0.113106
0.104662
0.0841572
0.0418614
0.0132049
0.0273509
0.0367931
0.0458675
0.0561034
0.0685907
0.0846857
0.104765
0.127842
0.15179
0.174732
0.195423
0.213196
0.22775
0.238922
0.246526
0.250413
0.250415
0.246374
0.238255
0.225248
0.204929
0.169616
0.0132024
0.0284914
0.0394567
0.0501149
0.06323
0.0804615
0.103077
0.130347
0.159699
0.188178
0.213815
0.235731
0.253706
0.267875
0.278387
0.285231
0.288509
0.288353
0.285202
0.279802
0.272044
0.261412
0.249944
0.0135284
0.0286609
0.0403972
0.0536042
0.0713733
0.0959824
0.127663
0.163223
0.198132
0.229462
0.25582
0.277113
0.293701
0.306209
0.31496
0.320018
0.321539
0.319917
0.315515
0.309723
0.303271
0.295452
0.28796
0.0127005
0.0281703
0.0415139
0.0584014
0.0830071
0.11777
0.160124
0.203394
0.241947
0.273631
0.298495
0.317412
0.331114
0.340502
0.346006
0.347418
0.34497
0.340453
0.334928
0.328848
0.322356
0.315237
0.308122
0.0122016
0.0282128
0.0438985
0.0660303
0.100342
0.147677
0.200337
0.248748
0.288004
0.317641
0.338973
0.353826
0.362936
0.367016
0.367148
0.364459
0.359838
0.354104
0.348016
0.341612
0.334751
0.327385
0.319765
0.0123028
0.0293663
0.0483492
0.0780757
0.125335
0.186132
0.246703
0.296615
0.333226
0.358231
0.373877
0.382255
0.385049
0.384049
0.38095
0.376355
0.370805
0.364593
0.358037
0.351106
0.343671
0.335762
0.327543
0.0130037
0.0321026
0.0558687
0.0961263
0.158676
0.231674
0.296549
0.343948
0.374299
0.391429
0.399264
0.401108
0.3998
0.396483
0.391976
0.386566
0.380509
0.373942
0.366964
0.359518
0.351528
0.343094
0.33437
0.0145812
0.0372989
0.0677987
0.121062
0.198968
0.281375
0.346309
0.386254
0.406586
0.414468
0.416149
0.414694
0.411559
0.407259
0.402176
0.396454
0.390183
0.383396
0.376108
0.36829
0.359921
0.351114
0.342023
0.0181137
0.0463
0.0859266
0.153146
0.244595
0.333416
0.391913
0.417572
0.427467
0.429832
0.428716
0.425871
0.422042
0.41748
0.412306
0.406571
0.400298
0.393476
0.386082
0.378101
0.369539
0.360525
0.351319
0.0244125
0.0593596
0.111187
0.190816
0.294003
0.38783
0.425815
0.436095
0.440856
0.441074
0.438934
0.435685
0.431802
0.427385
0.422417
0.416882
0.410783
0.404107
0.396855
0.388904
0.380164
0.370964
0.361734
0.0265638
0.0719599
0.134289
0.222596
0.333412
0.416263
0.437395
0.446472
0.451582
0.450295
0.447415
0.444126
0.440536
0.43655
0.432007
0.426871
0.421076
0.414555
0.407374
0.399484
0.390905
0.381814
0.372558
0.0286866
0.0762077
0.135742
0.220256
0.318808
0.388225
0.426827
0.452045
0.46452
0.457726
0.45324
0.450205
0.447299
0.444016
0.440151
0.435565
0.430199
0.424084
0.417282
0.409794
0.401652
0.392915
0.383804
0.0326175
0.0777768
0.128919
0.200809
0.284407
0.35147
0.396259
0.435558
0.453824
0.452949
0.452491
0.452127
0.45101
0.449084
0.446306
0.442625
0.438041
0.432629
0.426493
0.419665
0.412091
0.403786
0.39488
0.0335881
0.0763828
0.120829
0.180618
0.250591
0.311844
0.357819
0.39504
0.418439
0.430667
0.439066
0.444207
0.446775
0.447547
0.446875
0.444892
0.441664
0.437437
0.432398
0.426551
0.419773
0.411982
0.403404
0.0325045
0.072244
0.110898
0.160701
0.219433
0.274203
0.317753
0.35331
0.379456
0.39794
0.412188
0.422783
0.430187
0.434978
0.437625
0.438403
0.437509
0.435235
0.431862
0.427473
0.421962
0.41517
0.407323
0.0301183
0.0661803
0.0998613
0.141823
0.191235
0.239091
0.278775
0.311472
0.337794
0.358603
0.376012
0.39042
0.401952
0.410821
0.417268
0.421496
0.423726
0.424223
0.423216
0.420839
0.417107
0.411914
0.405373
0.027158
0.059405
0.0886841
0.123959
0.165447
0.206926
0.242629
0.272306
0.29707
0.317743
0.335776
0.351798
0.365833
0.377789
0.387599
0.395218
0.400748
0.404371
0.406242
0.406449
0.404998
0.401872
0.397162
0.0243084
0.0527825
0.0781095
0.10756
0.142094
0.177696
0.209643
0.236648
0.259473
0.278997
0.296377
0.312366
0.32715
0.340611
0.352534
0.36272
0.371059
0.377556
0.382254
0.385176
0.386286
0.385553
0.383072
0.0218363
0.046954
0.0688327
0.0932623
0.121655
0.151741
0.179992
0.204619
0.225721
0.243979
0.260344
0.275587
0.29007
0.303807
0.316611
0.328228
0.33843
0.347062
0.354034
0.359282
0.362737
0.364349
0.364192
0.0198693
0.0422298
0.0612489
0.0815239
0.104656
0.129636
0.154137
0.176402
0.195974
0.21316
0.228634
0.24307
0.256905
0.270285
0.283133
0.295239
0.306352
0.316241
0.324723
0.331653
0.33692
0.340457
0.342298
0.0184217
0.0386754
0.0554318
0.0724365
0.0912906
0.11178
0.132595
0.152362
0.170382
0.1866
0.201372
0.215177
0.228408
0.24127
0.253778
0.265805
0.277138
0.287543
0.296803
0.304732
0.311187
0.316078
0.319392
0.0174267
0.0361764
0.0512072
0.065746
0.0813059
0.0981037
0.11555
0.132764
0.149088
0.164263
0.178368
0.191661
0.204412
0.216802
0.228882
0.240586
0.251758
0.262198
0.271699
0.280071
0.287163
0.292873
0.297163
0.0167757
0.0345183
0.0482627
0.0609932
0.0741222
0.0880658
0.10267
0.117477
0.132017
0.145992
0.159319
0.172071
0.184378
0.196345
0.208009
0.219325
0.230178
0.240406
0.249832
0.258285
0.26562
0.271737
0.276587
0.0163556
0.0334607
0.0462514
0.0576684
0.0690437
0.0808717
0.0932301
0.105947
0.118758
0.131428
0.143825
0.155909
0.167699
0.179217
0.190458
0.20137
0.21185
0.221766
0.230965
0.2393
0.246645
0.252907
0.258036
0.0160735
0.0327889
0.044863
0.0553174
0.0654307
0.0757192
0.0863717
0.0973835
0.108645
0.120018
0.131385
0.142667
0.153818
0.1648
0.175564
0.186035
0.196111
0.205669
0.214575
0.2227
0.229934
0.236194
0.241434
0.0158658
0.0323413
0.043859
0.05359
0.0627805
0.0719458
0.0813217
0.0909902
0.100941
0.111117
0.121441
0.131841
0.142247
0.152592
0.162796
0.172766
0.182392
0.191554
0.200128
0.207995
0.215056
0.221235
0.226491
0.0156953
0.0320122
0.043078
0.0522443
0.0607393
0.0690688
0.0774838
0.0861068
0.094983
0.104109
0.11345
0.122955
0.132561
0.142192
0.151759
0.161159
0.17028
0.179
0.187201
0.194771
0.201615
0.207663
0.212874
0.015544
0.0317429
0.0424248
0.0511303
0.0590797
0.0667667
0.074443
0.0822466
0.0902498
0.0984811
0.106937
0.11559
0.124392
0.133274
0.142154
0.150929
0.159491
0.167721
0.175503
0.182733
0.189318
0.195188
0.2003
0.0154053
0.0315067
0.0418515
0.0501659
0.057668
0.064841
0.071931
0.0790793
0.086369
0.0938452
0.101524
0.109395
0.117428
0.125568
0.133744
0.141864
0.149827
0.157523
0.164844
0.171687
0.177964
0.183605
0.188564
0.0152792
0.0312968
0.0413412
0.0493137
0.0564348
0.0631792
0.0697861
0.0763945
0.0830904
0.0899256
0.0969263
0.104096
0.111416
0.118847
0.126331
0.133791
0.141136
0.14827
0.155091
0.161504
0.167425
0.172783
0.177529
0.0151683
0.0311171
0.0408942
0.0485636
0.0553508
0.0617244
0.0679181
0.0740668
0.0802555
0.0865381
0.0929454
0.0994881
0.106158
0.112927
0.11975
0.126564
0.133292
0.13985
0.146146
0.152095
0.157615
0.162639
0.167116
0.0150767
0.0309763
0.0405196
0.0479202
0.0544099
0.0604543
0.0662827
0.0720271
0.0777704
0.0835661
0.089447
0.0954278
0.101507
0.107665
0.113867
0.120062
0.126187
0.132169
0.13793
0.143389
0.148475
0.153122
0.157278
0.015009
0.0308849
0.0402296
0.0473942
0.0536176
0.0593646
0.0648626
0.0702417
0.0755833
0.0809405
0.0863465
0.0918181
0.0973576
0.102952
0.108575
0.114186
0.119732
0.125152
0.130377
0.135337
0.139967
0.144204
0.148002
0.0149705
0.0308538
0.0400363
0.046997
0.0529829
0.0584593
0.0636538
0.0686965
0.0736685
0.078623
0.0835934
0.088598
0.0936418
0.0987164
0.103801
0.108864
0.11386
0.118739
0.123441
0.127905
0.13207
0.135883
0.139298
0.0149664
0.0308932
0.0399496
0.0467375
0.0525126
0.0577424
0.0626563
0.0673858
0.0720135
0.0765932
0.0811594
0.0857316
0.0903167
0.0949097
0.0994949
0.104046
0.108526
0.112893
0.117095
0.121078
0.124788
0.128176
0.1312
0.015002
0.0310107
0.0399749
0.0466183
0.0522071
0.0572125
0.0618668
0.0663044
0.0706102
0.0748398
0.0790292
0.0831994
0.0873593
0.0915067
0.0956296
0.0997069
0.103709
0.107599
0.111333
0.114865
0.118144
0.121127
0.123776
0.015081
0.0312096
0.0401111
0.0466341
0.0520581
0.0568595
0.0612747
0.0654417
0.0694484
0.0733529
0.0771931
0.0809919
0.0847601
0.0884983
0.0921979
0.0958423
0.0994078
0.102864
0.106174
0.109296
0.112187
0.114802
0.117111
0.0152044
0.0314864
0.0403475
0.0467686
0.0520459
0.0566625
0.0608597
0.0647797
0.0685134
0.0721214
0.075644
0.0791058
0.0825199
0.0858894
0.089209
0.0924664
0.0956434
0.0987159
0.101655
0.104424
0.106983
0.109288
0.111308
0.0153682
0.031826
0.0406606
0.0469928
0.0521386
0.0565895
0.0605926
0.0642934
0.0677858
0.0711329
0.0743765
0.0775436
0.0806489
0.083698
0.0866888
0.0896129
0.0924572
0.0952048
0.0978339
0.100317
0.102616
0.104684
0.106483
0.015561
0.0321977
0.0410106
0.0472626
0.052292
0.0565997
0.0604376
0.0639543
0.0672459
0.0703768
0.0733907
0.0763158
0.0791687
0.0819569
0.0846807
0.0873354
0.0899123
0.0924009
0.0947881
0.0970564
0.0991765
0.101099
0.102773
0.0157616
0.032549
0.041337
0.047518
0.0524513
0.0566458
0.0603569
0.0637352
0.0668776
0.0698496
0.0726956
0.0754449
0.0781153
0.0807156
0.0832478
0.0857095
0.0880954
0.0903994
0.0926161
0.0947406
0.0967621
0.0986502
0.100357
0.0159321
0.0327986
0.0415547
0.047683
0.052554
0.0566799
0.0603172
0.063617
0.0666765
0.0695613
0.0723162
0.074971
0.077544
0.0800446
0.0824757
0.0848357
0.0871205
0.0893258
0.0914497
0.0934953
0.0954753
0.0974216
0.0994765
0.131505
0.132497
0.146574
0.173548
0.245627
0.246525
0.249972
0.254789
0.284433
0.28311
0.2823
0.281604
0.303113
0.300161
0.297342
0.294548
0.313545
0.309616
0.305742
0.301917
0.320568
0.31609
0.311652
0.307294
0.326978
0.322204
0.317464
0.312822
0.334331
0.329405
0.324532
0.319741
0.343643
0.338703
0.333749
0.328742
0.354157
0.349266
0.344338
0.339403
0.364852
0.359931
0.355091
0.350277
0.376332
0.371575
0.366812
0.362046
0.387557
0.382864
0.378144
0.373411
0.396324
0.391769
0.387199
0.382609
0.400768
0.396517
0.392236
0.387912
0.399718
0.395988
0.39218
0.388288
0.392751
0.389743
0.386591
0.383305
0.380148
0.378012
0.375664
0.373124
0.362857
0.361663
0.360194
0.35847
0.342435
0.342172
0.341587
0.340699
0.320718
0.321258
0.321458
0.321335
0.299305
0.300451
0.301268
0.301766
0.279229
0.280792
0.282048
0.283006
0.260977
0.262788
0.264328
0.265597
0.244537
0.246488
0.248203
0.24967
0.229676
0.231704
0.233515
0.235101
0.216086
0.218145
0.22
0.22165
0.203494
0.205545
0.207406
0.209076
0.191695
0.193702
0.195533
0.197189
0.18055
0.182479
0.18425
0.185859
0.169981
0.171804
0.173483
0.175013
0.159947
0.161639
0.1632
0.164623
0.150444
0.151985
0.153405
0.154701
0.141495
0.14287
0.144137
0.145289
0.133145
0.134352
0.135459
0.136463
0.125473
0.126515
0.127467
0.128324
0.118577
0.119467
0.120275
0.120996
0.112572
0.11333
0.114011
0.114611
0.107582
0.108229
0.108801
0.109295
0.103738
0.104287
0.104757
0.105148
0.101181
0.101614
0.101957
0.102222
0.100012
0.10023
0.100371
0.100462
0.221657
0.240592
0.243915
0.240125
0.23227
0.221983
0.210251
0.197556
0.184225
0.170781
0.157509
0.145006
0.134842
0.128822
0.127296
0.124279
0.110201
0.0885758
0.0435632
0.261226
0.263731
0.260461
0.253433
0.244029
0.233185
0.221553
0.209473
0.197111
0.184717
0.172612
0.161302
0.151723
0.14441
0.138454
0.12997
0.114224
0.0931822
0.0446976
0.280344
0.276507
0.270246
0.262169
0.252901
0.243012
0.232845
0.222488
0.211881
0.201059
0.190239
0.179659
0.169499
0.159385
0.14864
0.135273
0.118359
0.0977397
0.0464081
0.290427
0.283775
0.276248
0.268172
0.259879
0.251657
0.243637
0.235706
0.227543
0.218747
0.209106
0.198651
0.18691
0.173269
0.157791
0.14028
0.121493
0.100718
0.0498854
0.296415
0.288435
0.280409
0.272629
0.26535
0.258691
0.252595
0.246815
0.240859
0.234059
0.225711
0.215076
0.201104
0.18384
0.164002
0.142511
0.120718
0.0985742
0.05247
0.301082
0.292427
0.284149
0.276538
0.2698
0.263998
0.258981
0.254336
0.249454
0.243485
0.235367
0.22394
0.208345
0.188388
0.165206
0.140546
0.115384
0.0889841
0.0496593
0.306216
0.297143
0.28861
0.280888
0.274124
0.268308
0.263225
0.25843
0.253228
0.246673
0.237699
0.225323
0.208727
0.187504
0.162284
0.135888
0.107945
0.0736025
0.040489
0.312887
0.303505
0.294714
0.286735
0.279653
0.273399
0.267717
0.262136
0.25595
0.248311
0.238399
0.225533
0.208699
0.186442
0.159638
0.133974
0.103645
0.057528
0.0307686
0.321583
0.311974
0.303039
0.294911
0.287619
0.281078
0.275043
0.26902
0.262193
0.253749
0.243563
0.232138
0.215828
0.189781
0.159405
0.136297
0.0922258
0.0544993
0.0311872
0.331986
0.322156
0.313095
0.304863
0.297533
0.291053
0.285171
0.279258
0.272069
0.262087
0.248774
0.233399
0.212009
0.184028
0.155732
0.13041
0.0991957
0.068705
0.040025
0.343138
0.33326
0.323723
0.314607
0.305913
0.297549
0.289272
0.280557
0.270483
0.257996
0.242967
0.225749
0.205883
0.183671
0.162819
0.146765
0.129861
0.0939762
0.0477072
0.354974
0.345084
0.3352
0.325251
0.315184
0.304912
0.294305
0.283142
0.271053
0.257572
0.242556
0.226151
0.20841
0.190348
0.17395
0.159967
0.141767
0.107761
0.0528603
0.366311
0.356325
0.346171
0.335772
0.325051
0.313916
0.302276
0.290043
0.277106
0.263326
0.248572
0.232835
0.216437
0.200354
0.184966
0.168944
0.14757
0.113564
0.0571139
0.375544
0.365476
0.355184
0.344615
0.333678
0.322284
0.310367
0.297882
0.2848
0.271056
0.256545
0.241271
0.22564
0.21003
0.194006
0.175947
0.152683
0.11883
0.0612495
0.381073
0.371201
0.361037
0.350562
0.339701
0.328378
0.316535
0.304141
0.291178
0.277613
0.263395
0.248559
0.233291
0.217619
0.200941
0.181936
0.158191
0.124628
0.0650354
0.381935
0.3726
0.362872
0.352765
0.342232
0.331218
0.319676
0.307579
0.294916
0.281674
0.267839
0.253435
0.238511
0.222925
0.206117
0.186989
0.163439
0.130203
0.0683327
0.377725
0.369302
0.36034
0.350884
0.34093
0.33045
0.31942
0.307824
0.29566
0.28293
0.26964
0.255802
0.241388
0.226197
0.209718
0.190963
0.167905
0.134996
0.0711562
0.368592
0.361449
0.353571
0.345049
0.335928
0.326217
0.315919
0.305038
0.293587
0.281583
0.269041
0.25596
0.242276
0.227767
0.211937
0.193814
0.171356
0.138744
0.0736978
0.355195
0.349622
0.343096
0.335762
0.327707
0.318984
0.309627
0.299665
0.28913
0.278051
0.266446
0.254307
0.241544
0.227921
0.212943
0.195629
0.173841
0.141564
0.0755755
0.338748
0.334835
0.329793
0.323796
0.316966
0.309392
0.301138
0.292258
0.282798
0.272798
0.262277
0.251214
0.239501
0.226883
0.212843
0.196364
0.17523
0.143283
0.0766018
0.320622
0.318282
0.314707
0.310076
0.30453
0.29818
0.291113
0.283401
0.275103
0.266261
0.256893
0.246963
0.236345
0.224758
0.211657
0.195981
0.175462
0.143866
0.0768183
0.302094
0.301105
0.298852
0.2955
0.291191
0.286045
0.280161
0.273619
0.266486
0.258804
0.25058
0.241765
0.232209
0.221609
0.209387
0.19445
0.174502
0.143305
0.0762771
0.284125
0.284202
0.283049
0.280806
0.277604
0.27356
0.268775
0.263332
0.257295
0.2507
0.243545
0.235761
0.227178
0.217469
0.20603
0.19175
0.172335
0.141612
0.0750291
0.267272
0.268135
0.267838
0.266496
0.264223
0.261127
0.257303
0.252829
0.247763
0.242133
0.235921
0.229041
0.221304
0.21236
0.201592
0.187882
0.16897
0.138812
0.073127
0.251715
0.253131
0.253469
0.252823
0.251291
0.248968
0.245939
0.242276
0.238026
0.233207
0.227785
0.221659
0.214622
0.206308
0.196092
0.182872
0.164445
0.134959
0.0706282
0.237377
0.239173
0.239967
0.239839
0.238873
0.237153
0.234753
0.231736
0.228139
0.223968
0.219178
0.213651
0.207166
0.199349
0.189578
0.176777
0.158829
0.130127
0.0675983
0.224062
0.226109
0.227222
0.227469
0.226921
0.225653
0.223729
0.221204
0.218107
0.214431
0.21012
0.205046
0.198979
0.191541
0.182121
0.169686
0.152224
0.12442
0.0641104
0.21155
0.213753
0.215079
0.215585
0.215335
0.214391
0.212814
0.210647
0.207912
0.204596
0.200633
0.195887
0.190123
0.182966
0.173827
0.161721
0.144762
0.117962
0.060247
0.199662
0.201941
0.203392
0.204063
0.20401
0.203287
0.201946
0.200027
0.197543
0.194475
0.190752
0.186232
0.180683
0.173737
0.16483
0.153037
0.136607
0.110908
0.0560992
0.188274
0.190555
0.192054
0.19281
0.19287
0.192281
0.19109
0.189329
0.187007
0.184101
0.180536
0.17617
0.170774
0.163994
0.155296
0.14382
0.127954
0.103436
0.0517698
0.177318
0.179532
0.181009
0.181779
0.181881
0.181356
0.180244
0.178572
0.176347
0.173541
0.170078
0.16582
0.160544
0.153914
0.145428
0.134292
0.119031
0.0957541
0.0473742
0.166771
0.168857
0.17025
0.170972
0.171056
0.170538
0.169451
0.167819
0.165646
0.162902
0.159512
0.155344
0.150183
0.143713
0.135467
0.124712
0.110106
0.0881055
0.0430458
0.156655
0.158558
0.159814
0.160439
0.160458
0.159902
0.158803
0.15718
0.155035
0.152339
0.149019
0.144948
0.139925
0.133654
0.1257
0.115389
0.101488
0.0807741
0.0389396
0.147023
0.148706
0.149785
0.150274
0.150195
0.149575
0.148442
0.146816
0.144698
0.142058
0.13883
0.134892
0.130058
0.124051
0.116467
0.106677
0.09354
0.074089
0.0352398
0.137965
0.139404
0.140284
0.140616
0.140421
0.139727
0.138559
0.136939
0.134866
0.132316
0.129225
0.125482
0.120913
0.115262
0.10815
0.0989815
0.0866682
0.0684256
0.0321613
0.129597
0.130787
0.131462
0.131634
0.131325
0.130565
0.129381
0.127795
0.12581
0.123403
0.120519
0.117055
0.112851
0.107672
0.101156
0.0927256
0.0813072
0.0641895
0.0299468
0.122055
0.123007
0.123486
0.123512
0.123109
0.122312
0.12115
0.119647
0.117808
0.115617
0.113023
0.109937
0.106213
0.101633
0.0958554
0.0883045
0.0778763
0.0617977
0.0288582
0.115478
0.116213
0.11652
0.116428
0.115968
0.115179
0.114093
0.112735
0.111113
0.109215
0.106999
0.104389
0.101256
0.0974047
0.0925138
0.0860118
0.0767302
0.0616701
0.0292007
0.109989
0.11053
0.110695
0.110524
0.110057
0.109333
0.108385
0.107238
0.105902
0.104368
0.102605
0.100549
0.0980969
0.095082
0.0912217
0.0859742
0.0781208
0.0642864
0.0314684
0.105675
0.106035
0.106089
0.105886
0.105468
0.104871
0.104125
0.103249
0.102255
0.101137
0.0998735
0.0984179
0.0966955
0.0945839
0.0918683
0.088105
0.0821563
0.0703202
0.0368854
0.102554
0.10274
0.10272
0.10254
0.102232
0.101824
0.101334
0.100778
0.100163
0.0994871
0.0987367
0.0978863
0.0968932
0.0956898
0.0941594
0.0920528
0.0886314
0.0807122
0.0495656
0.100558
0.100588
0.100549
0.100459
0.100329
0.100168
0.0999838
0.0997819
0.099565
0.0993328
0.0990819
0.0988046
0.0984895
0.0981207
0.0976782
0.097138
0.09646
0.0953563
0.0875646
)
;

boundaryField
{
    leftWall
    {
        type            kqRWallFunction;
        value           nonuniform List<scalar> 
50
(
0.00199657
0.00513561
0.00758507
0.00960035
0.0111796
0.0123402
0.0130825
0.0133912
0.0132049
0.0132024
0.0135284
0.0127005
0.0122016
0.0123028
0.0130037
0.0145812
0.0181137
0.0244125
0.0265638
0.0286866
0.0326175
0.0335881
0.0325045
0.0301183
0.027158
0.0243084
0.0218363
0.0198693
0.0184217
0.0174267
0.0167757
0.0163556
0.0160735
0.0158658
0.0156953
0.015544
0.0154053
0.0152792
0.0151683
0.0150767
0.015009
0.0149705
0.0149664
0.015002
0.015081
0.0152044
0.0153682
0.015561
0.0157616
0.0159321
)
;
    }
    rightWall
    {
        type            kqRWallFunction;
        value           nonuniform List<scalar> 
50
(
0.0154315
0.0236144
0.0277396
0.0319744
0.036708
0.0402923
0.0413527
0.0418614
0.0435632
0.0446976
0.0464081
0.0498854
0.05247
0.0496593
0.040489
0.0307686
0.0311872
0.040025
0.0477072
0.0528603
0.0571139
0.0612495
0.0650354
0.0683327
0.0711562
0.0736978
0.0755755
0.0766018
0.0768183
0.0762771
0.0750291
0.073127
0.0706282
0.0675983
0.0641104
0.060247
0.0560992
0.0517698
0.0473742
0.0430458
0.0389396
0.0352398
0.0321613
0.0299468
0.0288582
0.0292007
0.0314684
0.0368854
0.0495656
0.0875646
)
;
    }
    lowerWall
    {
        type            kqRWallFunction;
        value           nonuniform List<scalar> 
62
(
0.00199657
0.00496843
0.00696338
0.0088739
0.010928
0.013128
0.0154702
0.0180585
0.0208321
0.0238365
0.027059
0.0304064
0.0337153
0.0367667
0.0393128
0.0411045
0.0418954
0.0414251
0.0393835
0.0353738
0.028813
0.0193036
0.00560198
0.00560198
0.0144065
0.021813
0.0295964
0.0392391
0.0530418
0.0751011
0.11184
0.131505
0.132497
0.146574
0.173548
0.0193534
0.0298628
0.0343538
0.0436965
0.0595973
0.0793136
0.102754
0.143138
0.0193534
0.038075
0.0502334
0.052161
0.0532744
0.0508716
0.0468659
0.0423706
0.0389293
0.0377703
0.0358802
0.0293555
0.0233669
0.0179398
0.0141104
0.0138914
0.0162086
0.0193107
0.0154315
)
;
    }
    atmosphere
    {
        type            inletOutlet;
        inletValue      uniform 0.1;
        value           nonuniform List<scalar> 
46
(
0.0159321
0.0327986
0.0415547
0.047683
0.052554
0.0566799
0.0603172
0.063617
0.0666765
0.0695613
0.0723162
0.074971
0.077544
0.0800446
0.0824757
0.0848357
0.0871205
0.0893258
0.0914497
0.0934953
0.0954753
0.0974216
0.1
0.1
0.1
0.1
0.1
0.1
0.1
0.1
0.1
0.1
0.1
0.1
0.1
0.1
0.1
0.1
0.1
0.1
0.1
0.1
0.1
0.1
0.1
0.1
)
;
    }
    defaultFaces
    {
        type            empty;
    }
}


// ************************************************************************* //
