/*--------------------------------*- C++ -*----------------------------------*\
  =========                 |
  \\      /  F ield         | OpenFOAM: The Open Source CFD Toolbox
   \\    /   O peration     | Website:  https://openfoam.org
    \\  /    A nd           | Version:  13
     \\/     M anipulation  |
\*---------------------------------------------------------------------------*/
FoamFile
{
    format      ascii;
    class       volScalarField;
    location    "1";
    object      nut;
}
// * * * * * * * * * * * * * * * * * * * * * * * * * * * * * * * * * * * * * //

dimensions      [0 2 -1 0 0 0 0];

internalField   nonuniform List<scalar> 
2268
(
2.97622e-05
4.72879e-05
5.61482e-05
6.35951e-05
7.07347e-05
7.76206e-05
8.43198e-05
9.11468e-05
9.80145e-05
0.000104956
0.000111856
0.000118465
0.000124481
0.000129598
0.000133542
0.000136066
0.000136917
0.000135768
0.0001321
0.000125032
0.000112786
9.23942e-05
5.04351e-05
0.000101989
0.000312972
0.000411082
0.000511691
0.000615394
0.000714145
0.00080288
0.000879582
0.000955725
0.0010333
0.00110942
0.00117977
0.00124015
0.00128726
0.00131873
0.00133252
0.00132615
0.00129568
0.00123432
0.00113081
0.000967658
0.000708758
0.000169708
0.000123802
0.000577035
0.0008113
0.0010314
0.00124372
0.00143367
0.00159701
0.00173937
0.00187891
0.00201994
0.0021582
0.00228573
0.00239412
0.00247606
0.00252562
0.00253737
0.00250488
0.00241859
0.00226325
0.00201575
0.00164401
0.0010983
0.000207688
0.000138988
0.000792994
0.00116968
0.00149559
0.00179037
0.00203966
0.00224606
0.00242626
0.00260452
0.00278771
0.00297044
0.00314129
0.00328756
0.00339773
0.00346184
0.00347046
0.00341258
0.00327282
0.00302828
0.00264685
0.00208921
0.0013102
0.000240989
0.000149645
0.000961451
0.00147525
0.00189058
0.00224329
0.00252532
0.00275104
0.00295052
0.00315458
0.00337119
0.00359185
0.00380053
0.00398016
0.00411549
0.00419318
0.00420033
0.00412189
0.00393738
0.00361732
0.00312233
0.00240852
0.00144188
0.000276673
0.00015688
0.0010881
0.00172823
0.00221931
0.00261123
0.00290719
0.0031381
0.00334923
0.00357687
0.00382706
0.00408553
0.00433069
0.00454149
0.00469997
0.00479057
0.00479798
0.00470416
0.00448461
0.00410443
0.00351789
0.00267612
0.00155287
0.000320283
0.000161203
0.00117963
0.001933
0.00248913
0.00290685
0.00320479
0.00343507
0.00365879
0.00391454
0.0042027
0.00450105
0.00478234
0.00502254
0.00520225
0.00530491
0.00531393
0.00520948
0.00496444
0.00453993
0.00388541
0.00294612
0.00169107
0.000379142
0.000162851
0.00124319
0.00209647
0.00270906
0.00314252
0.00343558
0.003666
0.003909
0.00420079
0.00453223
0.00487223
0.00518885
0.00545647
0.00565542
0.00576922
0.00578093
0.00567019
0.00540896
0.00495704
0.0042639
0.00327216
0.0019063
0.000461604
9.23501e-05
0.000128627
0.000147485
0.000149245
0.00015043
0.000146889
0.000139961
0.000132679
0.000128101
0.000126915
0.00012358
0.000111712
9.89849e-05
8.65967e-05
7.83421e-05
7.96829e-05
8.72875e-05
9.55535e-05
8.12534e-05
0.000269775
0.000889349
0.0011953
0.00130554
0.00133395
0.00131538
0.00117507
0.0010393
0.00093825
0.000960006
0.00100302
0.000900818
0.000777418
0.000617458
0.000432108
0.000384708
0.000462011
0.000539945
0.000238577
0.000287357
0.00138645
0.00209339
0.00240049
0.00249557
0.00245702
0.0022583
0.00203385
0.0018333
0.00177893
0.00176731
0.00159445
0.0014
0.00115683
0.000808321
0.000647518
0.000753884
0.000843599
0.000259788
0.000321423
0.00169555
0.00278389
0.00328524
0.00344895
0.00340045
0.00318388
0.00290992
0.00263937
0.00248172
0.0023707
0.00215802
0.00192513
0.00164282
0.00124582
0.000972719
0.00107524
0.00108719
0.000282027
0.000371388
0.00201884
0.00338374
0.00403058
0.00424307
0.00419443
0.0039695
0.00366305
0.0033363
0.00308237
0.00288419
0.00264777
0.00239707
0.00210212
0.00172835
0.00142832
0.00145904
0.00129046
0.000302857
0.00042968
0.00244196
0.00396824
0.00469166
0.00492576
0.00487746
0.00464653
0.00431575
0.00394297
0.00361051
0.00334641
0.00309792
0.00284793
0.00255737
0.00221967
0.00195313
0.00185056
0.00148072
0.000315118
0.000489132
0.00296321
0.00455893
0.00529344
0.00553012
0.00547788
0.00524108
0.00489329
0.00448887
0.00410292
0.00378996
0.00353159
0.00329367
0.00301354
0.00270461
0.00244245
0.00220664
0.00164913
0.000315668
0.000580005
0.00350367
0.00515207
0.00585953
0.0060795
0.00601746
0.00577493
0.00541783
0.00499745
0.00458246
0.00423761
0.00396914
0.00373839
0.00346817
0.00317643
0.00288999
0.00251989
0.00179269
0.000317205
0.000162176
0.00131426
0.00230347
0.00298938
0.00343335
0.00371452
0.00395742
0.00424939
0.00461053
0.00501427
0.00541773
0.00578486
0.00608996
0.0063147
0.0064439
0.0064616
0.0063489
0.00608064
0.0056226
0.00494306
0.00402187
0.00283791
0.00145753
0.000162767
0.0014259
0.0025135
0.00321302
0.0036345
0.00392265
0.00423987
0.0046549
0.00514483
0.00565692
0.00614169
0.00656603
0.00690974
0.00716042
0.0073084
0.00734328
0.00725531
0.00703509
0.0066763
0.00618474
0.00558322
0.0049099
0.00424004
0.000169673
0.00147782
0.00260562
0.00330055
0.0037084
0.00406323
0.00452733
0.00510732
0.00573215
0.00633819
0.00688398
0.00734677
0.00771469
0.00798328
0.00814893
0.0082085
0.00816088
0.00801256
0.00777779
0.00748747
0.00718258
0.00689094
0.00667878
0.000165196
0.00145918
0.00262522
0.00330485
0.00373793
0.00423623
0.00489392
0.00563675
0.00637193
0.00704436
0.00762814
0.00811277
0.00849318
0.00877028
0.00894789
0.00902943
0.00902388
0.00895266
0.00884407
0.00872534
0.00862379
0.00855925
0.0085534
0.000161062
0.00142777
0.00261524
0.00327626
0.00380609
0.00451034
0.00535965
0.00622792
0.00703355
0.00774252
0.00834257
0.00883279
0.00921304
0.00948762
0.00967041
0.00977684
0.00982678
0.00983819
0.00983527
0.00983629
0.00985423
0.00989528
0.00995989
0.000160762
0.00142875
0.00260266
0.0032705
0.00397682
0.00490051
0.00589808
0.0068415
0.00767919
0.0083979
0.00899453
0.00947177
0.0098397
0.0101126
0.0103131
0.0104568
0.0105615
0.0106419
0.0107133
0.0107855
0.0108616
0.0109389
0.0110094
0.000165383
0.00148537
0.00261121
0.00334583
0.00427197
0.0053781
0.00646545
0.00743715
0.00827314
0.00897386
0.00954664
0.010004
0.0103672
0.0106516
0.0108761
0.0110552
0.0112033
0.0113314
0.0114479
0.0115561
0.011653
0.0117326
0.0117848
0.000176415
0.00160363
0.00267657
0.00353765
0.00466533
0.00589273
0.0070147
0.00797174
0.00877385
0.00943762
0.00998447
0.010432
0.0107972
0.0110945
0.0113398
0.0115462
0.0117244
0.0118816
0.012022
0.0121449
0.0122448
0.0123147
0.0123469
0.000197526
0.00177243
0.00284275
0.003845
0.00511011
0.00639554
0.00749595
0.00839639
0.00914836
0.00977878
0.0103066
0.0107469
0.0111142
0.0114218
0.0116829
0.0119083
0.0121059
0.0122801
0.0124325
0.012561
0.0126597
0.0127221
0.0127431
0.000230504
0.00197293
0.0031275
0.00422382
0.00554827
0.00683294
0.00783529
0.00866722
0.00938113
0.00998551
0.0104984
0.0109335
0.011303
0.0116188
0.0118919
0.0121313
0.012343
0.0125295
0.0126912
0.0128253
0.0129271
0.012991
0.0130137
0.000244618
0.00215408
0.00343941
0.00457833
0.00591836
0.0070934
0.00797233
0.00876935
0.00946492
0.0100471
0.0105498
0.0109842
0.0113589
0.0116838
0.0119681
0.0122202
0.0124452
0.0126443
0.012817
0.0129612
0.0130731
0.0131483
0.0131845
0.000245484
0.0022267
0.00355496
0.0046457
0.00584961
0.00690066
0.00784613
0.00869829
0.00941032
0.00996626
0.0104652
0.0109056
0.0112889
0.011624
0.0119204
0.0121855
0.0124234
0.0126356
0.0128222
0.0129817
0.0131115
0.013208
0.0132686
0.000258021
0.00229529
0.00356725
0.00453404
0.00557915
0.00657119
0.0075145
0.0084149
0.0091373
0.00971728
0.0102389
0.0106964
0.0110937
0.0114434
0.0117556
0.0120372
0.0122922
0.0125219
0.0127273
0.012908
0.0130619
0.0131861
0.0132778
0.000265209
0.00230238
0.00356221
0.00441071
0.00529828
0.00619292
0.007081
0.00793033
0.00866764
0.00930663
0.00986953
0.0103558
0.0107779
0.0111506
0.0114848
0.011788
0.0120639
0.0123152
0.0125437
0.0127495
0.012931
0.0130857
0.0132116
0.000263547
0.00226657
0.00352756
0.0042892
0.00504137
0.00582411
0.00662007
0.00740437
0.00812551
0.00877938
0.00936717
0.0098846
0.0103395
0.0107435
0.0111072
0.0114378
0.01174
0.0120172
0.0122721
0.0125056
0.0127167
0.0129034
0.0130644
0.000255697
0.00219795
0.00347041
0.00417596
0.00481771
0.00548903
0.00618306
0.00687957
0.00755061
0.0081838
0.00877523
0.00931205
0.00979536
0.0102315
0.0106277
0.0109898
0.0113225
0.0116294
0.0119135
0.0121763
0.012418
0.0126374
0.0128339
0.000244344
0.0021075
0.00339786
0.00407118
0.00462673
0.00519984
0.00579847
0.00640734
0.00700992
0.00759523
0.00815806
0.00869002
0.009186
0.00964552
0.0100706
0.0104629
0.0108261
0.0111635
0.0114778
0.0117706
0.0120426
0.012294
0.0125253
0.000231494
0.00199115
0.00331585
0.00398462
0.00447625
0.00496533
0.00547984
0.00600901
0.00654093
0.0070684
0.00758766
0.00809361
0.00858068
0.00904467
0.00948334
0.00989594
0.0102831
0.0106465
0.0109877
0.0113081
0.0116084
0.0118893
0.0121525
0.000218759
0.0018651
0.0032343
0.00393025
0.00438243
0.00480096
0.00524094
0.00569981
0.00616705
0.00663695
0.00710714
0.0075751
0.00803691
0.00848807
0.00892452
0.00934332
0.00974285
0.0101227
0.0104831
0.0108247
0.0111477
0.0114528
0.0117412
0.00020736
0.00174052
0.0031585
0.00391735
0.00436233
0.0047275
0.00510107
0.00549618
0.00590524
0.00632213
0.00674425
0.00717012
0.00759749
0.00802303
0.00844286
0.00885334
0.00925163
0.00963588
0.0100051
0.0103588
0.0106968
0.0110192
0.0113265
0.000198067
0.00162777
0.00308883
0.00394303
0.00442219
0.00476107
0.0050802
0.00541643
0.00577086
0.00613806
0.00651435
0.00689779
0.00728681
0.00767922
0.00807216
0.00846246
0.00884717
0.00922388
0.00959082
0.0099468
0.010291
0.010623
0.0109423
0.000191121
0.00153501
0.00302467
0.00399221
0.00454876
0.00489996
0.00518667
0.00547271
0.00577495
0.00609311
0.00642379
0.00676437
0.00711312
0.00746842
0.00782834
0.00819057
0.00855269
0.0089124
0.00926773
0.00961712
0.00995933
0.0102934
0.0106182
0.00018629
0.00146643
0.00296802
0.00404613
0.00471163
0.00511799
0.00540564
0.00565955
0.00591634
0.00618645
0.00647044
0.00676658
0.00707323
0.00738903
0.00771264
0.00804248
0.00837673
0.00871349
0.0090509
0.00938729
0.00972118
0.0100512
0.0103758
0.000183067
0.00142144
0.00292256
0.00409206
0.0048767
0.00537213
0.00569836
0.00594809
0.00617497
0.00640342
0.00664213
0.00689317
0.00715649
0.00743147
0.00771733
0.00801298
0.0083171
0.00862811
0.00894432
0.00926404
0.00958561
0.00990736
0.0102274
0.000180907
0.00139594
0.00289052
0.00412622
0.00502012
0.00562008
0.00601558
0.0062926
0.00651339
0.00671491
0.00691608
0.00712558
0.00734704
0.00758184
0.00783023
0.00809179
0.00836556
0.0086502
0.00894412
0.00924556
0.00955267
0.00986349
0.0101757
0.000179371
0.00138452
0.00287107
0.00415011
0.00513234
0.0058342
0.00631522
0.00664573
0.00688687
0.00708275
0.00726137
0.00743903
0.00762475
0.00782326
0.00803681
0.00826608
0.00851072
0.00876968
0.0090414
0.00932402
0.00961546
0.00991338
0.0102151
0.000178172
0.00138216
0.00286123
0.00416619
0.0052137
0.00600349
0.0065719
0.00697137
0.00725519
0.00746822
0.00764382
0.0078048
0.00796581
0.00813582
0.00831995
0.00852067
0.00873867
0.00897342
0.00922354
0.00948708
0.00976171
0.0100447
0.010333
0.000177156
0.00138503
0.00285744
0.00417597
0.0052684
0.00612796
0.0067758
0.00724873
0.00758945
0.00783876
0.0080311
0.00819302
0.00834374
0.00849634
0.00865916
0.00883702
0.00903212
0.00924482
0.00947415
0.00971825
0.00997459
0.0102401
0.0105114
0.000176251
0.00139062
0.00285673
0.00418011
0.00530105
0.0062124
0.00692679
0.0074694
0.00787263
0.00817079
0.00839595
0.00857547
0.00873108
0.00887896
0.00903041
0.00919266
0.00936973
0.00956321
0.00977283
0.00999702
0.0102332
0.0104782
0.0107282
0.000175439
0.00139747
0.00285715
0.004179
0.00531557
0.00626269
0.0070292
0.00763263
0.00809688
0.0084493
0.00871768
0.00892774
0.00910159
0.00925701
0.00940738
0.009562
0.00972668
0.00990435
0.0100957
0.0102996
0.0105138
0.0107351
0.0109594
0.000174727
0.00140485
0.0028577
0.00417318
0.00531531
0.00628452
0.00708897
0.00774175
0.00826054
0.00866644
0.0089823
0.00923074
0.00943252
0.0096055
0.00976398
0.00991861
0.0100766
0.0102422
0.0104171
0.0106008
0.0107916
0.0109863
0.0111809
0.000174137
0.00141248
0.00285804
0.00416345
0.00530327
0.00628315
0.00711245
0.00780224
0.00836604
0.00881999
0.00918222
0.00947163
0.00970658
0.00990373
0.0100772
0.0102382
0.0103947
0.0105519
0.0107124
0.0108766
0.0110431
0.0112092
0.0113713
0.00017369
0.00142027
0.00285814
0.00415073
0.00528217
0.00626344
0.0071061
0.00782081
0.00841868
0.00891224
0.00931562
0.00964407
0.00991305
0.0101372
0.0103297
0.0105013
0.0106604
0.0108125
0.0109609
0.0111066
0.0112489
0.0113858
0.0115138
0.000173416
0.00142816
0.00285797
0.00413578
0.0052544
0.00622984
0.00707628
0.00780495
0.00842583
0.00894909
0.00938579
0.00974798
0.0100482
0.0102989
0.0105115
0.0106959
0.0108599
0.0110094
0.0111477
0.0112765
0.0113956
0.0115034
0.0115974
0.000173341
0.00143603
0.00285732
0.00411906
0.0052219
0.00618634
0.00702911
0.00776252
0.00839629
0.0089392
0.00940021
0.00978884
0.0101151
0.0103891
0.0106203
0.0108175
0.0109875
0.0111358
0.0112658
0.0113791
0.0114762
0.011556
0.011617
0.000173491
0.00144359
0.00285568
0.00410061
0.00518608
0.00613634
0.0069703
0.00770141
0.00833961
0.0088931
0.00936952
0.00977658
0.0101223
0.0104146
0.0106613
0.0108696
0.0110452
0.0111926
0.011315
0.0114139
0.0114897
0.0115424
0.0115715
0.000173882
0.00145039
0.00285227
0.00408016
0.00514796
0.00608274
0.00690501
0.00762915
0.00826555
0.00882229
0.00930635
0.0097243
0.0100827
0.0103878
0.0106459
0.0108625
0.011042
0.0111879
0.0113023
0.0113861
0.01144
0.0114647
0.0114616
0.000174514
0.00145583
0.00284621
0.00405736
0.00510838
0.00602811
0.0068379
0.00755278
0.00818354
0.00873842
0.0092242
0.00964688
0.010012
0.0103248
0.01059
0.0108116
0.0109928
0.0111353
0.0112397
0.0113059
0.0113338
0.0113254
0.0112862
0.000175358
0.00145922
0.00283677
0.00403221
0.00506847
0.00597504
0.00677341
0.00747883
0.00810242
0.00865269
0.0091365
0.00955963
0.00992713
0.0102434
0.0105121
0.0107358
0.0109161
0.0110527
0.0111438
0.0111868
0.0111799
0.0111261
0.0110385
0.000176349
0.00145978
0.00282379
0.00400564
0.00503026
0.00592672
0.00671609
0.00741354
0.00803041
0.00857548
0.00905581
0.00947724
0.00984456
0.0101616
0.0104313
0.0106549
0.0108323
0.0109607
0.0110348
0.0110471
0.010991
0.0108678
0.0107027
0.000177367
0.00145699
0.00280858
0.00398042
0.00499744
0.00588754
0.00667113
0.0073632
0.0079752
0.00851616
0.00899338
0.00941278
0.0097791
0.0100959
0.0103653
0.0105879
0.0107616
0.0108811
0.0109367
0.0109136
0.0107932
0.0105619
0.0102466
0.000178212
0.00145268
0.00279596
0.00396268
0.00497635
0.00586377
0.00664486
0.00733447
0.00794413
0.00848303
0.00895861
0.00937689
0.00974259
0.0100591
0.0103283
0.01055
0.0107211
0.0108345
0.0108766
0.010825
0.0106431
0.0102694
0.00959194
0.000504499
0.000508196
0.000534934
0.000581464
0.00383765
0.0038237
0.00394358
0.00425926
0.00665475
0.00672713
0.00688526
0.00713453
0.00863537
0.00871811
0.00882892
0.00896278
0.010044
0.0101015
0.0101595
0.0102151
0.0110639
0.01109
0.0111049
0.011108
0.0118062
0.0118056
0.0117893
0.0117578
0.0123429
0.0123248
0.0122901
0.0122394
0.0127291
0.012705
0.0126644
0.012607
0.0130026
0.0129817
0.0129454
0.0128939
0.0131862
0.0131746
0.0131496
0.0131111
0.0132941
0.0132993
0.0132921
0.0132728
0.0133315
0.0133564
0.0133704
0.0133738
0.0132938
0.013339
0.0133751
0.0134024
0.0131738
0.0132385
0.0132959
0.013346
0.012969
0.0130517
0.0131287
0.0131997
0.0126842
0.0127836
0.0128784
0.0129684
0.0123332
0.0124484
0.0125601
0.0126674
0.0119403
0.0120713
0.0121993
0.0123241
0.0115404
0.0116846
0.0118267
0.0119667
0.0111668
0.0113209
0.011474
0.011626
0.0108488
0.0110095
0.01117
0.0113306
0.0106086
0.0107725
0.0109371
0.0111027
0.0104593
0.0106235
0.010789
0.010956
0.0104041
0.010566
0.0107294
0.0108945
0.0104374
0.0105945
0.0107529
0.0109128
0.0105464
0.0106959
0.0108464
0.0109975
0.0107122
0.0108513
0.0109907
0.0111297
0.0109126
0.0110383
0.0111632
0.0112867
0.0111233
0.0112328
0.0113403
0.0114453
0.0113206
0.0114115
0.0114994
0.0115838
0.0114841
0.0115549
0.0116218
0.0116842
0.0115982
0.0116485
0.011694
0.0117344
0.0116532
0.0116835
0.0117084
0.0117276
0.0116453
0.0116568
0.0116626
0.0116625
0.0115741
0.0115685
0.0115572
0.01154
0.0114398
0.0114188
0.0113925
0.0113609
0.0112398
0.0112044
0.011165
0.0111218
0.0109649
0.0109153
0.0108649
0.0108136
0.0105967
0.0105337
0.0104758
0.0104217
0.0101065
0.0100361
0.00997985
0.00993289
0.00945215
0.00940095
0.00936863
0.00934601
0.00277347
0.0049132
0.00615006
0.0067224
0.00688836
0.00680326
0.00655374
0.00619467
0.00577198
0.00534334
0.00496963
0.0046746
0.00441415
0.00412781
0.00382044
0.00344929
0.00287808
0.00194015
0.000323093
0.0054707
0.00670957
0.00745005
0.00778015
0.00782887
0.00768841
0.00741917
0.00706376
0.00665922
0.0062484
0.0058763
0.00556447
0.00527321
0.00493411
0.00453047
0.00401047
0.00325032
0.00208297
0.000324369
0.00761847
0.00822452
0.00859123
0.00871786
0.00865597
0.00846353
0.00818012
0.00783534
0.00745527
0.00706793
0.00669818
0.00635125
0.00599025
0.00555665
0.0050372
0.00438319
0.00349688
0.00217533
0.000330378
0.00916542
0.00941116
0.00952688
0.00949921
0.00934755
0.00910654
0.00880631
0.0084669
0.00810291
0.00772569
0.00734141
0.00694182
0.00648665
0.00594466
0.00531533
0.0045656
0.00361064
0.00224728
0.000341778
0.0102755
0.0103118
0.0102611
0.010117
0.00989254
0.00960616
0.00927946
0.00892894
0.00856049
0.00817324
0.00775835
0.00729426
0.0067488
0.00611084
0.00538388
0.00455132
0.00354962
0.00219559
0.000351634
0.0110823
0.0109899
0.0108284
0.0105987
0.0103118
0.00998239
0.00962376
0.0092446
0.00884794
0.00842652
0.00796349
0.00743545
0.00681917
0.00609852
0.00528021
0.00436259
0.00330443
0.00197415
0.000340374
0.0116786
0.0115083
0.0112772
0.0109901
0.0106569
0.0102885
0.00989415
0.00947843
0.00903964
0.00856821
0.00804809
0.00745953
0.00678043
0.0059917
0.00508253
0.00406592
0.0029069
0.00154368
0.000307191
0.0121314
0.0119209
0.0116548
0.0113388
0.0109805
0.0105877
0.010166
0.0097167
0.00923535
0.00871246
0.00813619
0.00749278
0.00675602
0.00589344
0.00488837
0.00376397
0.00245686
0.00105241
0.00026913
0.0124894
0.0122694
0.0119985
0.0116807
0.0113211
0.0109245
0.0104933
0.0100257
0.00951345
0.00894644
0.00832302
0.0076466
0.00685547
0.005882
0.00474061
0.0035078
0.00202771
0.000899408
0.000284367
0.0127831
0.0125776
0.0123256
0.0120285
0.0116891
0.0113093
0.0108882
0.0104198
0.00988874
0.00927492
0.00857092
0.00779673
0.00689704
0.00584097
0.0046662
0.00346056
0.00225122
0.00114529
0.000320862
0.0130235
0.0128528
0.0126358
0.0123721
0.0120606
0.0116994
0.0112845
0.0108075
0.0102545
0.00961028
0.00887284
0.00804793
0.00711804
0.00605954
0.00492723
0.00384976
0.0028574
0.00167826
0.000346761
0.0132164
0.0130937
0.0129251
0.0127065
0.0124341
0.012104
0.0117111
0.0112487
0.0107073
0.0100771
0.00935377
0.00853374
0.0076043
0.00656193
0.00545686
0.00437727
0.00328758
0.0019708
0.000362665
0.0133542
0.0132858
0.0131719
0.0130071
0.012786
0.0125037
0.0121548
0.0117337
0.0112335
0.0106463
0.00996434
0.0091782
0.00827625
0.00726055
0.0061543
0.00498139
0.00369147
0.0021268
0.000375832
0.0134224
0.0134104
0.0133544
0.0132481
0.0130857
0.0128615
0.0125701
0.0122062
0.0117634
0.0112337
0.0106066
0.00986991
0.00901168
0.00802232
0.00689549
0.00561543
0.00412246
0.00230404
0.000388036
0.0134063
0.0134517
0.0134546
0.013409
0.0133085
0.0131472
0.0129192
0.0126187
0.012239
0.0117714
0.0112041
0.0105224
0.0097087
0.00874178
0.00759444
0.00622632
0.00456484
0.00251475
0.000399051
0.0132998
0.0134017
0.013463
0.0134778
0.0134396
0.013342
0.0131785
0.0129426
0.0126267
0.0122211
0.0117128
0.0110843
0.0103126
0.00936697
0.00820597
0.00677136
0.00497716
0.0027271
0.000408511
0.0131068
0.0132626
0.0133799
0.0134531
0.0134756
0.0134403
0.01334
0.0131672
0.0129134
0.0125678
0.0121156
0.0115368
0.0108039
0.0098791
0.0087106
0.00722653
0.00532875
0.00291313
0.000416529
0.0128418
0.013047
0.0132163
0.0133444
0.0134243
0.0134482
0.0134082
0.0132957
0.0131011
0.012812
0.0124122
0.0118791
0.0111816
0.0102769
0.00910517
0.00758324
0.00560316
0.00305081
0.000423735
0.0125303
0.012777
0.012992
0.0131694
0.0133017
0.0133803
0.0133964
0.0133401
0.0132003
0.0129633
0.012611
0.0121188
0.0114529
0.0105669
0.00939644
0.00785261
0.00581529
0.00316008
0.00042882
0.0122003
0.012482
0.0127362
0.0129565
0.0131347
0.0132617
0.0133274
0.013321
0.0132299
0.0130388
0.0127282
0.0122718
0.0116342
0.0107666
0.0096022
0.00804734
0.00597319
0.003244
0.000431546
0.0118818
0.0121918
0.0124781
0.0127337
0.0129501
0.0131175
0.0132248
0.01326
0.0132094
0.0130563
0.01278
0.012353
0.011739
0.0108885
0.0097332
0.00817642
0.00608257
0.00330459
0.000432055
0.0116025
0.0119334
0.0122438
0.0125262
0.0127717
0.0129698
0.0131087
0.0131755
0.0131552
0.0130303
0.0127791
0.0123737
0.0117778
0.0109418
0.00979732
0.008246
0.00614709
0.00334286
0.000430486
0.0113841
0.0117281
0.0120538
0.0123534
0.0126175
0.0128352
0.0129941
0.0130805
0.0130788
0.0129708
0.0127344
0.012342
0.0117577
0.010933
0.00980013
0.00826035
0.0061692
0.00335944
0.000426946
0.0112405
0.0115891
0.0119207
0.012227
0.0124983
0.0127233
0.0128894
0.0129824
0.0129864
0.0128832
0.0126508
0.0122623
0.0116831
0.0108663
0.00974555
0.00822258
0.00615075
0.00335482
0.000421529
0.0111754
0.0115202
0.0118478
0.0121498
0.0124162
0.0126358
0.0127957
0.0128821
0.0128789
0.0127685
0.0125296
0.0121367
0.0115566
0.0107447
0.00963653
0.00813527
0.00609345
0.00332961
0.00041432
0.0111838
0.011516
0.0118297
0.0121163
0.0123659
0.0125674
0.0127084
0.0127754
0.0127531
0.0126246
0.01237
0.0119653
0.0113795
0.0105703
0.00947577
0.00800098
0.00599916
0.00328455
0.000405415
0.0112522
0.0115633
0.0118533
0.0121139
0.0123355
0.0125074
0.012618
0.0126545
0.0126028
0.0124473
0.0121696
0.0117478
0.0111531
0.0103457
0.00926628
0.00782271
0.00587018
0.00322067
0.000394916
0.0113619
0.0116433
0.0119006
0.0121257
0.0123095
0.0124421
0.0125128
0.01251
0.0124212
0.0122322
0.0119266
0.0114845
0.0108794
0.0100741
0.00901202
0.00760433
0.0057095
0.00313936
0.000382946
0.0114907
0.0117348
0.0119515
0.012133
0.0122712
0.012357
0.012381
0.0123331
0.0122023
0.0119762
0.0116404
0.0111771
0.010562
0.00976033
0.00871842
0.00735101
0.00552111
0.00304255
0.000369656
0.0116163
0.0118165
0.0119862
0.0121183
0.0122054
0.0122397
0.0122132
0.0121173
0.0119426
0.0116788
0.0113133
0.0108301
0.0102072
0.00941177
0.00839305
0.00706969
0.00531029
0.00293281
0.000355246
0.0117183
0.0118699
0.0119885
0.0120676
0.0121009
0.012082
0.0120041
0.0118603
0.011643
0.0113435
0.0109512
0.0104516
0.00982443
0.00903872
0.00804623
0.00676964
0.00508401
0.00281358
0.000339989
0.0117807
0.0118813
0.0119469
0.0119722
0.0119518
0.0118807
0.0117536
0.011565
0.0113091
0.0109787
0.0105646
0.0100539
0.00942735
0.00865538
0.00769179
0.00646309
0.00485143
0.00268944
0.000324272
0.011793
0.0118425
0.0118561
0.0118293
0.0117582
0.0116389
0.0114675
0.01124
0.010952
0.0105977
0.0101692
0.00965424
0.00903433
0.00828046
0.00734768
0.0061658
0.00462428
0.00256628
0.000308646
0.0117503
0.0117513
0.0117163
0.0116421
0.011526
0.0113651
0.0111571
0.0108992
0.0105882
0.0102193
0.00978546
0.00927481
0.00866861
0.00793747
0.00703643
0.00589744
0.00441705
0.00245128
0.000293901
0.0116526
0.0116099
0.0115323
0.011418
0.0112652
0.0110723
0.010838
0.0105606
0.0102379
0.00986599
0.00943791
0.00894168
0.00835747
0.0076541
0.00678471
0.00568133
0.00424665
0.00235258
0.000281112
0.0115021
0.0114225
0.011311
0.0111664
0.010988
0.0107751
0.0105272
0.0102437
0.00992286
0.00956131
0.009152
0.00868208
0.00812963
0.00745995
0.0066216
0.00554319
0.00413144
0.00227834
0.000271638
0.0113001
0.0111928
0.011058
0.0108955
0.0107049
0.0104863
0.0102399
0.00996534
0.00966164
0.00932544
0.00894935
0.00851918
0.0080101
0.00738199
0.00657518
0.00550936
0.00409057
0.00223647
0.000267005
0.0110443
0.01092
0.0107752
0.0106092
0.0104219
0.0102136
0.00998459
0.00973516
0.00946436
0.00916887
0.00884093
0.008465
0.00801308
0.00743833
0.00666875
0.0056065
0.00414649
0.00223638
0.000268834
0.0107266
0.010599
0.0104593
0.0103057
0.0101379
0.00995586
0.00976022
0.00955115
0.00932784
0.00908705
0.008821
0.00851372
0.00813527
0.00763276
0.00691906
0.00586669
0.00433562
0.00229571
0.000279181
0.010336
0.0102216
0.0101034
0.00997832
0.00984526
0.00970416
0.00955538
0.00939909
0.00923456
0.00905896
0.00886542
0.00863952
0.00835292
0.00795182
0.00733714
0.00633995
0.00473515
0.00245824
0.000302266
0.00986463
0.00978251
0.00970218
0.00961976
0.00953402
0.00944481
0.00935231
0.00925664
0.00915725
0.00905222
0.00893682
0.00880092
0.0086237
0.00836195
0.00792338
0.00710837
0.00553103
0.00285857
0.000350664
0.00931696
0.00928562
0.00925621
0.00922664
0.00919634
0.00916526
0.00913349
0.00910108
0.00906785
0.00903313
0.00899529
0.00895078
0.00889202
0.00880197
0.00863712
0.00826568
0.00722216
0.00415447
0.000468502
)
;

boundaryField
{
    leftWall
    {
        type            nutkWallFunction;
        Cmu             0.09;
        kappa           0.41;
        E               9.8;
        value           nonuniform List<scalar> 
50
(
3.3225e-06
1.01182e-05
1.20827e-05
1.34505e-05
1.44162e-05
1.50794e-05
1.54859e-05
1.56513e-05
1.5558e-05
1.66738e-05
1.90129e-05
1.84651e-05
1.81254e-05
1.81949e-05
1.8668e-05
1.96836e-05
2.17714e-05
2.64105e-05
2.43959e-05
2.56696e-05
2.78939e-05
2.84193e-05
2.78321e-05
2.64986e-05
2.47581e-05
2.29778e-05
2.13347e-05
1.99501e-05
1.88806e-05
1.81175e-05
1.76047e-05
1.72678e-05
1.70387e-05
1.68687e-05
1.67281e-05
1.66026e-05
1.6487e-05
1.63813e-05
1.62879e-05
1.62106e-05
1.61532e-05
1.61206e-05
1.61171e-05
1.61473e-05
1.62142e-05
1.63184e-05
1.64559e-05
1.66167e-05
1.67828e-05
1.69231e-05
)
;
    }
    rightWall
    {
        type            nutkWallFunction;
        Cmu             0.09;
        kappa           0.41;
        E               9.8;
        value           nonuniform List<scalar> 
50
(
8.54696e-06
2.25516e-05
2.42805e-05
2.61e-05
2.86744e-05
3.14816e-05
3.24091e-05
3.32049e-05
3.43933e-05
3.51407e-05
3.68334e-05
3.80542e-05
3.8943e-05
3.79899e-05
3.46105e-05
3.05904e-05
3.13149e-05
3.59984e-05
3.99022e-05
4.23248e-05
4.42078e-05
4.59665e-05
4.75272e-05
4.88466e-05
4.99466e-05
5.09157e-05
5.16185e-05
5.2e-05
5.20802e-05
5.18801e-05
5.14141e-05
5.06962e-05
4.97387e-05
4.85522e-05
4.71486e-05
4.55428e-05
4.37527e-05
4.18028e-05
3.97265e-05
3.75728e-05
3.54134e-05
3.33546e-05
3.15462e-05
3.0184e-05
2.94934e-05
2.97122e-05
3.11258e-05
3.42846e-05
4.07745e-05
5.58964e-05
)
;
    }
    lowerWall
    {
        type            nutkWallFunction;
        Cmu             0.09;
        kappa           0.41;
        E               9.8;
        value           nonuniform List<scalar> 
62
(
3.3225e-06
5.03827e-06
5.87566e-06
6.56123e-06
7.21326e-06
7.841e-06
8.44898e-06
9.06498e-06
9.67372e-06
1.02852e-05
1.0896e-05
1.14898e-05
1.20428e-05
1.25271e-05
1.29148e-05
1.31794e-05
1.32943e-05
1.32261e-05
1.29253e-05
1.23089e-05
1.12119e-05
9.34426e-06
5.32152e-06
5.32152e-06
1.61813e-05
1.95483e-05
2.24672e-05
2.55714e-05
3.07573e-05
4.1351e-05
4.69694e-05
5.417e-05
5.43184e-05
5.6829e-05
6.13326e-05
1.07198e-05
2.86072e-05
3.05202e-05
3.40928e-05
3.98116e-05
4.63926e-05
5.30755e-05
6.15466e-05
1.07198e-05
1.46412e-05
1.66041e-05
1.63409e-05
1.5843e-05
1.54299e-05
1.49997e-05
1.48942e-05
1.43294e-05
1.3774e-05
1.27501e-05
1.1632e-05
1.06247e-05
9.37613e-06
8.13133e-06
8.09969e-06
8.72994e-06
9.46947e-06
8.54696e-06
)
;
    }
    atmosphere
    {
        type            calculated;
        value           nonuniform List<scalar> 
46
(
0.000178212
0.00145268
0.00279596
0.00396268
0.00497635
0.00586377
0.00664486
0.00733447
0.00794413
0.00848303
0.00895861
0.00937689
0.00974259
0.0100591
0.0103283
0.01055
0.0107211
0.0108345
0.0108766
0.010825
0.0106431
0.0102694
0.009
0.009
0.009
0.009
0.009
0.009
0.009
0.009
0.009
0.009
0.009
0.009
0.009
0.009
0.009
0.009
0.009
0.009
0.009
0.009
0.009
0.009
0.009
0.009
)
;
    }
    defaultFaces
    {
        type            empty;
    }
}


// ************************************************************************* //
