/*--------------------------------*- C++ -*----------------------------------*\
  =========                 |
  \\      /  F ield         | OpenFOAM: The Open Source CFD Toolbox
   \\    /   O peration     | Website:  https://openfoam.org
    \\  /    A nd           | Version:  13
     \\/     M anipulation  |
\*---------------------------------------------------------------------------*/
FoamFile
{
    format      ascii;
    class       volScalarField;
    location    "1";
    object      p;
}
// * * * * * * * * * * * * * * * * * * * * * * * * * * * * * * * * * * * * * //

dimensions      [1 -1 -2 0 0 0 0];

internalField   nonuniform List<scalar> 
2268
(
7622.4
7465.8
7255.87
6990.45
6715.26
6452.3
6211.26
5995.92
5806.72
5642.88
5501.75
5380.18
5275.05
5183.48
5103.12
5032.32
4969.5
4912.46
4857.71
4800.9
4739.19
4683.18
4651
6857.43
6706.74
6494.84
6220.92
5935.24
5661.38
5410.01
5185.28
4988.82
4819.25
4673.84
4549.37
4442.52
4350.19
4269.81
4199.57
4137.71
4081.99
4029.23
3976.16
3920.95
3875.9
3852.49
6108.18
5947.48
5732.31
5450.79
5155.33
4870.9
4609.14
4375.09
4170.72
3994.89
3844.65
3716.75
3607.82
3514.68
3434.45
3365.52
3305.94
3253.68
3205.82
3159.6
3112.99
3077.81
3050.09
5377.69
5192.53
4968.5
4677.61
4372.22
4078.33
3806.97
3563.95
3352.1
3170.76
3016.45
2885.83
2775.52
2682.15
2602.83
2535.82
2479.58
2432.5
2391.76
2353.95
2315.2
2285.9
2243.64
4664.77
4448.83
4209.93
3905.94
3589.12
3285.12
3003.07
2750.19
2531.55
2347.4
2192.47
2062.54
1953.75
1862.47
1785.52
1720.55
1667.04
1624.51
1590.6
1561.59
1530.51
1503.38
1439.28
3971.17
3723.16
3464.43
3141.29
2807.24
2487.72
2190.64
1931.64
1726.71
1570.23
1446.61
1346.22
1262.97
1192.69
1133.75
1084.14
1041.55
1006.46
979.195
961.902
949.705
932.137
863.673
3303.03
3022.67
2736.3
2380.83
2009.74
1695.2
1469.94
1312.72
1202.92
1122.27
1057.29
1001.35
951.034
904.973
864.211
827.125
792.682
761.726
736.89
726.291
730.194
721.072
652.399
2671.3
2351.72
2011.24
1640.31
1366.61
1201.2
1121.43
1078.66
1042.82
1006.5
968.942
930.332
891.154
852.235
814.121
776.853
741.811
709.909
684.411
673.409
677.528
658.837
583.317
967.595
1001.67
1068.69
1127.27
1242.69
1386.37
1538.36
1707.44
1865.42
2153.08
2684.34
3238.25
3492.19
3565.85
3488.49
3338.74
3446.96
3863.13
3763.35
904.514
921.238
969.794
991.409
1020.48
1118.51
1293.29
1532.74
1744.39
1934.19
2270.35
2808.27
3163.73
3276.38
3033.14
2773.97
2771.92
3124.76
2999.51
840.787
826.5
844.69
850.794
853.555
892.509
1000.9
1188.32
1437.65
1568.54
1798.63
2270.2
2653.7
2840.01
2663.6
2347.2
2263.42
2475.16
2248.5
777.59
748.154
747.692
761.067
779.495
804.811
847.421
921.171
1045.37
1140.49
1283.27
1682
2091.76
2332.01
2336.08
2097.74
1946.02
1879.54
1536.79
702.719
688.735
684.572
697.846
716.814
741.675
775.631
810.731
855.119
902.672
947.749
1157.24
1579.51
1883.17
2041.35
1908.5
1704.54
1321.48
1038.59
638.781
634.766
629.529
637.274
653.353
678.719
711.947
744.206
779.901
811.716
822.106
883.907
1187.7
1470.05
1684.13
1668.84
1411.68
842.909
786.574
604.698
598.93
590.717
590.422
598.315
616.088
647.16
681.28
716.485
746.134
753.329
779.477
912.044
1075.44
1234.32
1279.31
1019.04
636.928
661.313
583.64
566.79
557.99
555.264
558.416
566.395
584.653
616.299
652.252
679.946
686.355
688.772
695.711
777.825
889.772
918.399
721.605
594.936
590.962
1767.24
1513.04
1296.28
1120
1055.27
1028.12
1003.86
977.325
947.286
913.574
877.047
838.791
799.82
761.158
723.424
687.068
652.979
621.632
594.606
579.397
574.481
559.305
528.262
961.129
857.679
874.601
889.855
894.774
887.397
871.299
847.83
818.697
785.34
749.142
711.3
672.598
634.299
597.464
560.926
528.464
506.489
494.593
485.265
474.918
466.07
455.243
704.142
719.223
743.23
758.181
764.711
760.327
745.775
722.699
693.302
659.496
622.789
584.691
545.187
504.801
473.057
451.215
438.945
431.971
430.201
424.708
411.919
399.24
389.159
614.386
619.24
632.065
642.798
647.077
641.777
626.483
602.293
571.265
535.818
496.9
457.163
424.449
400.267
389.289
382.248
377.361
370.557
361.67
352.942
342.155
330.59
319.956
514.348
518.641
526.571
533.897
536.292
529.686
512.636
485.971
451.748
413.945
381.438
356.877
345.749
338.716
330.99
319.989
308.16
299.707
290.18
280.312
269.632
258.573
248.556
407.965
412.682
419.964
427.294
429.853
422.597
403.439
374.263
341.724
316.219
303.871
296.776
287.248
276.171
263.101
251.411
238.887
227.769
216.886
206.151
194.997
184.02
175.471
293.553
300.015
310.459
321.5
327.024
321.22
302.603
276.587
259.904
253.706
245.914
235.832
220.629
207.702
194.053
180.874
167.247
153.862
141.239
129.692
117.921
105.869
98.4328
167.06
176.696
194.202
212.783
224.757
224.257
216.025
205.908
201.196
195.356
182.079
167.685
152.582
138.44
123.877
108.743
93.6659
77.6014
62.5463
52.9473
44.9942
33.8061
28.3239
47.2873
56.0013
73.1212
92.7194
108.412
116.88
133.382
146.372
142.818
130.05
115.612
99.4357
82.8177
67.6295
53.2805
40.6797
30.8181
20.5724
13.0377
10.6386
8.60614
5.59706
4.79511
5.17799
6.19839
9.25965
13.635
18.21
21.6664
43.735
69.0466
76.1324
66.5421
52.5404
37.2106
24.9714
16.8345
10.8861
7.34596
5.51057
4.34755
4.01447
4.04277
4.04652
4.07405
4.06216
4.16418
4.14654
4.25422
4.33512
4.67556
5.20959
7.03728
17.2908
25.5554
20.4201
12.6443
6.84158
4.33126
3.75953
3.76077
3.79922
3.84323
3.89215
3.91952
3.92676
3.9315
3.93972
3.94454
3.91968
3.85992
3.77349
3.68987
3.61729
3.57643
3.53778
3.73215
3.85947
3.25275
3.27697
3.43196
3.53992
3.58651
3.61055
3.64486
3.68456
3.72285
3.7469
3.76
3.77201
3.77765
3.78958
3.71664
3.68244
3.64425
3.59894
3.52926
3.41093
3.25929
3.2561
3.23633
3.20121
3.24982
3.32469
3.39022
3.43551
3.46675
3.49711
3.52965
3.56053
3.58509
3.60075
3.6133
3.62262
3.62727
3.54793
3.53264
3.5214
3.50246
3.46126
3.38169
3.27502
3.21634
3.18211
3.16698
3.18512
3.22224
3.26362
3.2995
3.32967
3.35665
3.38266
3.41
3.43288
3.45235
3.46572
3.475
3.48234
3.40685
3.39467
3.38424
3.36656
3.33384
3.28247
3.21198
3.17325
3.13514
3.10305
3.10065
3.11873
3.14485
3.17209
3.19769
3.22178
3.24282
3.26233
3.28318
3.30417
3.32184
3.33341
3.34214
3.25172
3.24206
3.23193
3.21559
3.18931
3.15275
3.10868
3.0759
3.04427
3.01624
3.00783
3.01524
3.03139
3.05102
3.07142
3.09179
3.11076
3.12614
3.14111
3.15827
3.17718
3.19203
3.20399
3.10317
3.09692
3.08845
3.07476
3.05418
3.02643
2.99382
2.96623
2.94132
2.92041
2.91125
2.91335
2.92292
2.93657
2.95202
2.96809
2.98412
2.99912
3.01225
3.02456
3.03849
3.05445
3.06893
2.96395
2.96058
2.95447
2.94385
2.92827
2.90756
2.88328
2.86065
2.8406
2.82421
2.81523
2.81403
2.81887
2.82774
2.83891
2.85126
2.86411
2.87695
2.88944
2.90137
2.91311
2.92635
2.94001
2.83137
2.83033
2.82664
2.81894
2.80751
2.79249
2.77481
2.75718
2.74111
2.7277
2.7191
2.71595
2.71758
2.72285
2.73059
2.73988
2.75002
2.76058
2.77135
2.78221
2.79334
2.80507
2.81681
2.70349
2.70431
2.70275
2.6976
2.68945
2.67876
2.66608
2.65283
2.64026
2.62939
2.62161
2.61761
2.61728
2.62002
2.62512
2.63188
2.63976
2.64833
2.65738
2.66681
2.67664
2.6869
2.69717
2.57899
2.58119
2.58137
2.57834
2.57272
2.56518
2.55617
2.54644
2.53689
2.52834
2.52174
2.51771
2.51638
2.51753
2.52075
2.52557
2.53159
2.53848
2.546
2.55402
2.56248
2.5713
2.58031
2.45678
2.45991
2.46144
2.46013
2.45644
2.45118
2.44479
2.43777
2.4307
2.4242
2.41891
2.41536
2.41375
2.41405
2.41608
2.41955
2.42417
2.42969
2.43592
2.44271
2.44995
2.45754
2.46539
2.33602
2.33967
2.34218
2.34224
2.34009
2.33649
2.33198
2.32696
2.32183
2.31704
2.31303
2.31019
2.30875
2.30876
2.31015
2.31277
2.31642
2.32093
2.32614
2.33192
2.33815
2.34472
2.35156
2.21609
2.21997
2.22313
2.22425
2.22332
2.22102
2.2179
2.21434
2.21069
2.20725
2.20436
2.20229
2.20124
2.20129
2.20243
2.20458
2.20762
2.21144
2.21589
2.22088
2.22629
2.23203
2.23805
2.09658
2.10049
2.10403
2.10591
2.10596
2.10472
2.10269
2.10025
2.0977
2.09532
2.09334
2.09198
2.09138
2.09163
2.09275
2.09468
2.09737
2.10072
2.10463
2.10902
2.11379
2.11886
2.1242
1.97726
1.98106
1.98476
1.98714
1.98796
1.98759
1.98645
1.9849
1.98323
1.98167
1.98042
1.97965
1.97947
1.97997
1.98115
1.98301
1.98549
1.98853
1.99206
1.99599
2.00026
2.00479
2.00955
1.85798
1.86158
1.86528
1.86796
1.86933
1.86966
1.86927
1.86846
1.8675
1.86659
1.86592
1.86563
1.86581
1.86653
1.86781
1.86964
1.87199
1.87482
1.87805
1.88163
1.88548
1.88956
1.89384
1.73867
1.74201
1.7456
1.74841
1.75015
1.75101
1.75123
1.75104
1.75067
1.7503
1.7501
1.75019
1.75065
1.75156
1.75292
1.75473
1.75699
1.75963
1.76263
1.7659
1.7694
1.7731
1.77696
1.61927
1.62233
1.62573
1.62854
1.6305
1.63174
1.63242
1.63274
1.63286
1.63294
1.63313
1.63353
1.63422
1.63526
1.63668
1.63848
1.64063
1.64312
1.64589
1.6489
1.65209
1.65544
1.65892
1.49977
1.50255
1.50569
1.50842
1.51047
1.51195
1.51298
1.51368
1.5142
1.51465
1.51515
1.51581
1.51668
1.51783
1.51928
1.52104
1.5231
1.52543
1.528
1.53076
1.53366
1.5367
1.53984
1.38017
1.38265
1.38552
1.38809
1.39014
1.39174
1.39299
1.39398
1.39479
1.39553
1.3963
1.39716
1.39818
1.39941
1.40088
1.40259
1.40455
1.40673
1.4091
1.41163
1.41427
1.41701
1.41984
1.26044
1.26264
1.26522
1.26759
1.26957
1.27121
1.27258
1.27374
1.27476
1.27572
1.27668
1.2777
1.27883
1.28012
1.2816
1.28326
1.28512
1.28716
1.28935
1.29166
1.29406
1.29654
1.29907
1.14061
1.14253
1.14482
1.14696
1.14881
1.15041
1.15182
1.15307
1.15422
1.15532
1.15641
1.15754
1.15875
1.16009
1.16155
1.16317
1.16494
1.16684
1.16887
1.17098
1.17316
1.17538
1.17764
1.02066
1.02233
1.02433
1.02623
1.02791
1.02942
1.03079
1.03206
1.03326
1.03442
1.03559
1.03678
1.03804
1.03939
1.04084
1.04241
1.04409
1.04587
1.04775
1.04969
1.05166
1.05366
1.05566
0.900612
0.902048
0.903761
0.905407
0.906898
0.908273
0.909561
0.910785
0.911968
0.913136
0.914313
0.915523
0.916788
0.918123
0.919542
0.921051
0.922649
0.924328
0.926071
0.927854
0.929652
0.931444
0.933195
0.780475
0.781689
0.783128
0.784521
0.785805
0.787015
0.788175
0.789303
0.790415
0.791532
0.79267
0.793846
0.795075
0.796369
0.797735
0.799177
0.800693
0.802273
0.803902
0.805552
0.807198
0.808807
0.810325
0.660264
0.66127
0.662445
0.663588
0.664656
0.665678
0.666677
0.667668
0.668664
0.669681
0.670732
0.671829
0.672983
0.674202
0.675491
0.676852
0.678282
0.67977
0.6813
0.682845
0.68437
0.685824
0.687124
0.540002
0.540811
0.541735
0.542632
0.543476
0.544295
0.545108
0.54593
0.546773
0.54765
0.548571
0.549548
0.550588
0.551698
0.552882
0.554143
0.555478
0.556877
0.558325
0.559792
0.561239
0.562592
0.563675
0.419721
0.420341
0.421027
0.421683
0.422298
0.4229
0.423508
0.424136
0.424796
0.425499
0.426256
0.427075
0.427964
0.428931
0.42998
0.431117
0.432341
0.433649
0.435027
0.436449
0.437886
0.439239
0.44009
0.299468
0.299898
0.300345
0.300748
0.301115
0.301477
0.301854
0.302259
0.302705
0.303203
0.303762
0.304392
0.3051
0.305897
0.30679
0.30779
0.308908
0.310149
0.311512
0.312997
0.314647
0.316316
0.316786
0.17931
0.179503
0.179655
0.179743
0.179802
0.179868
0.179962
0.180097
0.180287
0.180541
0.180871
0.181287
0.1818
0.182424
0.183175
0.184073
0.185148
0.186433
0.187959
0.189824
0.192354
0.19541
0.195191
0.0593923
0.0593441
0.0592181
0.0590437
0.058862
0.0586997
0.0585714
0.0584871
0.058456
0.0584864
0.0585869
0.0587667
0.0590365
0.0594096
0.0599038
0.0605436
0.0613647
0.0624163
0.0637654
0.0656138
0.0687631
0.0742849
0.0749418
527.527
523.544
519.471
517.516
456.699
452.797
445.741
440.088
383.958
379.632
374.439
370.055
313.216
308.806
304.451
300.822
242.252
238.298
234.548
231.389
170.909
167.612
164.09
160.952
98.7406
96.7116
91.8757
87.6872
34.4015
35.0142
29.4816
25.4085
5.10376
4.93592
4.29014
4.07652
4.05477
4.0535
4.01972
4.0032
3.93624
3.92621
3.93484
3.93746
3.7777
3.76956
3.768
3.7716
3.62473
3.62095
3.61871
3.61882
3.48613
3.48763
3.48848
3.48842
3.34859
3.35228
3.35501
3.35641
3.21169
3.21624
3.22005
3.22273
3.07775
3.08282
3.08721
3.0907
2.94876
2.95396
2.95856
2.96249
2.82472
2.82968
2.83421
2.83822
2.70446
2.70909
2.71332
2.71716
2.58705
2.59134
2.59522
2.59877
2.47151
2.47546
2.47899
2.48222
2.35703
2.36059
2.36379
2.36669
2.24287
2.24599
2.24885
2.25144
2.12841
2.1311
2.13363
2.13593
2.01322
2.01553
2.01774
2.01977
1.89704
1.899
1.90094
1.90272
1.77974
1.78143
1.78311
1.78467
1.66136
1.66281
1.66429
1.66566
1.54199
1.54324
1.54453
1.54573
1.42174
1.42283
1.42396
1.42502
1.30074
1.3017
1.3027
1.30363
1.17912
1.17996
1.18084
1.18166
1.05696
1.0577
1.05847
1.05918
0.934324
0.934979
0.935644
0.936255
0.811287
0.811848
0.812404
0.812911
0.687903
0.688351
0.688792
0.689185
0.564235
0.564539
0.564832
0.565092
0.440329
0.440427
0.440537
0.440631
0.316243
0.315972
0.315833
0.315732
0.192154
0.190896
0.190375
0.190121
0.0692788
0.066812
0.0654335
0.0645489
516.937
507.152
502.62
501.982
504.26
508.297
514.985
528.095
551.196
572.808
572.868
547.506
533.548
582.192
650.606
647.208
530.419
502.214
503.645
436.457
431.458
429.568
429.717
431.426
433.8
435.087
432.968
433.271
438.787
432.414
398.727
372.786
389.983
414.601
403.869
367.217
374.306
386.524
364.94
360.492
358.782
358.593
359.424
360.406
359.983
355.61
344.796
332.221
317.151
292.216
266.538
250.079
241.379
240.773
258.137
278.837
293.569
295.913
291.436
289.352
288.669
288.768
288.819
287.432
282.9
273.01
255.426
233.389
210.57
188.78
173.928
168.619
173.81
183.34
198.186
213.869
226.798
222.445
220.149
219.191
218.912
218.558
217.063
212.997
205.098
192.237
173.816
152.418
133.981
122.182
116.868
117.344
121.185
123.537
132.301
156.229
152.095
149.818
148.761
148.365
147.955
146.641
143.373
137.27
127.509
113.854
98.0018
83.161
72.337
66.4669
64.8596
63.3089
57.427
63.8364
83.4684
80.6105
78.9899
78.152
77.7277
77.1492
75.7602
73.0726
68.6168
61.5878
51.9412
41.8195
33.3895
28.0969
25.7167
23.4299
20.5576
20.7922
28.0385
23.8876
23.5044
23.2544
22.9895
22.5988
21.8429
20.4933
18.6757
16.7634
14.5762
12.322
11.0358
10.3863
8.66556
6.57487
4.92004
5.71215
8.77586
12.5609
4.11497
4.22961
4.37209
4.52216
4.62918
4.60434
4.36167
3.99309
3.74858
3.62864
3.6155
3.70041
3.9018
4.2064
4.5525
4.69546
4.83364
5.46919
7.01517
4.01351
4.03875
4.03014
4.00389
3.9571
3.89609
3.83169
3.77728
3.74857
3.81331
4.09474
4.2979
4.34365
4.37093
4.39843
4.44591
4.39725
4.19452
4.05993
3.93187
3.93527
3.95653
3.98277
4.00905
4.03152
4.04937
4.06306
4.07374
4.09198
4.12522
4.11958
4.1287
4.16074
4.20134
4.24163
4.22633
4.11309
4.06197
3.77857
3.78754
3.79973
3.8125
3.82572
3.83757
3.84771
3.85685
3.86822
3.88786
3.90984
3.90307
3.91376
3.94525
3.99623
4.04919
4.04347
3.98397
3.94457
3.62577
3.63623
3.64676
3.65755
3.66804
3.67746
3.68583
3.69401
3.70414
3.72046
3.7414
3.74966
3.75605
3.78926
3.84071
3.87757
3.87821
3.84764
3.82235
3.48962
3.49797
3.50862
3.52023
3.53166
3.54233
3.55224
3.56199
3.57287
3.58679
3.60338
3.61756
3.63361
3.66058
3.69362
3.71774
3.72057
3.705
3.68957
3.35889
3.36704
3.37719
3.38849
3.39997
3.41116
3.422
3.43286
3.44448
3.45771
3.47218
3.48617
3.50143
3.52227
3.54542
3.5625
3.56686
3.55969
3.55212
3.2273
3.23627
3.24635
3.25728
3.26846
3.27961
3.29063
3.30174
3.31338
3.32591
3.33904
3.35203
3.36584
3.38228
3.39935
3.41247
3.41793
3.41611
3.41457
3.09665
3.10638
3.1166
3.1273
3.13817
3.14906
3.15992
3.17084
3.18207
3.19378
3.20581
3.21784
3.23026
3.24372
3.25709
3.26793
3.27428
3.27629
3.27961
2.96912
2.97891
2.989
2.99938
3.00986
3.02036
3.03084
3.04134
3.05198
3.06285
3.07387
3.08492
3.09612
3.10762
3.11877
3.12837
3.13564
3.14088
3.14824
2.84489
2.85433
2.86404
2.87395
2.88392
2.89389
2.90383
2.91374
2.92368
2.93372
2.94381
2.95391
2.96404
2.97422
2.98409
2.99317
3.00148
3.00966
3.02049
2.72353
2.73244
2.74167
2.75102
2.76037
2.7697
2.77896
2.78818
2.79737
2.80657
2.81579
2.82501
2.83424
2.8435
2.85266
2.86168
2.87111
2.88188
2.89564
2.6046
2.61284
2.62147
2.63017
2.63882
2.64742
2.65596
2.66442
2.67284
2.68124
2.68965
2.69808
2.70657
2.71517
2.72394
2.7331
2.74358
2.75654
2.77266
2.48744
2.49495
2.50289
2.51087
2.51877
2.52661
2.53439
2.54209
2.54975
2.55739
2.56505
2.57279
2.58066
2.58877
2.59729
2.60663
2.61798
2.63267
2.65056
2.37131
2.37809
2.38531
2.39254
2.39968
2.40676
2.41377
2.42073
2.42766
2.43459
2.44158
2.4487
2.45604
2.46374
2.47207
2.48155
2.49352
2.50943
2.52845
2.25553
2.26164
2.26813
2.27461
2.28101
2.28735
2.29364
2.2999
2.30614
2.31243
2.31881
2.32538
2.33224
2.33959
2.34772
2.3572
2.3695
2.38612
2.40566
2.13955
2.14505
2.15085
2.15662
2.16232
2.16797
2.17359
2.17919
2.18482
2.19052
2.19635
2.20243
2.20886
2.21586
2.22373
2.23309
2.2454
2.2622
2.28167
2.02297
2.02793
2.03308
2.0382
2.04326
2.04829
2.0533
2.05832
2.06339
2.06856
2.0739
2.07952
2.08554
2.09217
2.09973
2.10879
2.12083
2.13731
2.15616
1.90556
1.91002
1.91459
1.91913
1.92362
1.92809
1.93256
1.93706
1.94163
1.94632
1.95121
1.9564
1.96202
1.96826
1.97542
1.98406
1.99556
2.01128
2.02903
1.78721
1.79123
1.79528
1.7993
1.8033
1.80728
1.81127
1.8153
1.81941
1.82367
1.82814
1.83292
1.83812
1.84394
1.85063
1.85872
1.86946
1.88408
1.90035
1.66792
1.67154
1.67513
1.67871
1.68226
1.6858
1.68936
1.69297
1.69668
1.70053
1.70459
1.70895
1.71373
1.71909
1.72527
1.73272
1.74256
1.7558
1.77031
1.54776
1.55101
1.55421
1.55738
1.56054
1.56369
1.56687
1.57009
1.57341
1.57686
1.58053
1.58448
1.58882
1.5937
1.59933
1.60608
1.61491
1.62663
1.6392
1.42683
1.42974
1.43258
1.4354
1.4382
1.441
1.44381
1.44667
1.44962
1.4527
1.45596
1.45949
1.46339
1.46777
1.47282
1.47887
1.48666
1.49679
1.50737
1.30524
1.30783
1.31035
1.31284
1.31531
1.31778
1.32025
1.32277
1.32535
1.32805
1.33092
1.33403
1.33747
1.34134
1.34582
1.35117
1.35795
1.36652
1.37515
1.18308
1.18536
1.18758
1.18977
1.19193
1.19408
1.19623
1.19841
1.20064
1.20297
1.20545
1.20814
1.21112
1.21449
1.21841
1.22308
1.22891
1.23603
1.24286
1.06041
1.06241
1.06434
1.06624
1.06811
1.06995
1.07179
1.07364
1.07553
1.0775
1.07959
1.08187
1.0844
1.08729
1.09066
1.0947
1.09966
1.10548
1.11072
0.937302
0.939006
0.940662
0.942282
0.943864
0.945414
0.946945
0.948478
0.950039
0.951661
0.953384
0.955262
0.957366
0.95979
0.962648
0.96608
0.970252
0.974931
0.97888
0.813772
0.81519
0.81657
0.817911
0.819209
0.820468
0.821702
0.822929
0.824174
0.825468
0.826845
0.828354
0.830058
0.832041
0.834407
0.83727
0.840715
0.844409
0.847383
0.689843
0.690967
0.692065
0.693123
0.694135
0.695107
0.69605
0.696984
0.697931
0.698918
0.699979
0.701151
0.70249
0.704064
0.705963
0.708277
0.711034
0.713868
0.716228
0.565524
0.566333
0.567136
0.567903
0.568628
0.569314
0.569975
0.570628
0.571295
0.572001
0.572776
0.573649
0.574661
0.575863
0.577321
0.579101
0.581193
0.583262
0.585371
0.440802
0.441273
0.441767
0.442239
0.442676
0.443083
0.443471
0.443858
0.444266
0.444718
0.445239
0.445851
0.446581
0.447455
0.448511
0.449781
0.451222
0.452565
0.454655
0.315626
0.315752
0.315945
0.316133
0.316297
0.316441
0.316576
0.31672
0.316896
0.317124
0.317426
0.31782
0.318317
0.318925
0.319647
0.320443
0.321138
0.321608
0.323708
0.189889
0.189716
0.189637
0.189569
0.189485
0.189389
0.189295
0.18922
0.189188
0.189217
0.189328
0.189533
0.189835
0.19023
0.190691
0.19102
0.190491
0.189212
0.192474
0.0636282
0.0630309
0.0626375
0.0622733
0.0619049
0.0615352
0.0611783
0.0608524
0.0605757
0.0603652
0.0602343
0.0601909
0.0602325
0.0603382
0.0604525
0.0602944
0.0583571
0.0530286
0.0646624
)
;

boundaryField
{
    leftWall
    {
        type            calculated;
        value           nonuniform List<scalar> 
50
(
7622.4
6857.43
6108.18
5377.69
4664.77
3971.17
3303.03
2671.3
1767.24
961.129
704.142
614.386
514.348
407.965
293.553
167.06
47.2873
5.17799
4.16418
3.91968
3.71664
3.54793
3.40685
3.25172
3.10317
2.96395
2.83137
2.70349
2.57899
2.45678
2.33602
2.21609
2.09658
1.97726
1.85798
1.73867
1.61927
1.49977
1.38017
1.26044
1.14061
1.02066
0.900612
0.780475
0.660264
0.540002
0.419721
0.299468
0.17931
0.0593923
)
;
    }
    rightWall
    {
        type            calculated;
        value           nonuniform List<scalar> 
50
(
3763.35
2999.51
2248.5
1536.79
1038.59
786.574
661.313
590.962
503.645
386.524
293.569
213.869
132.301
63.8364
28.0385
12.5609
7.01517
4.05993
4.06197
3.94457
3.82235
3.68957
3.55212
3.41457
3.27961
3.14824
3.02049
2.89564
2.77266
2.65056
2.52845
2.40566
2.28167
2.15616
2.02903
1.90035
1.77031
1.6392
1.50737
1.37515
1.24286
1.11072
0.97888
0.847383
0.716228
0.585371
0.454655
0.323708
0.192474
0.0646624
)
;
    }
    lowerWall
    {
        type            calculated;
        value           nonuniform List<scalar> 
62
(
8020.55
7863.95
7654.02
7388.6
7113.41
6850.45
6609.41
6394.07
6204.87
6041.03
5899.9
5778.33
5673.2
5581.63
5501.27
5430.47
5367.65
5310.61
5255.86
5199.05
5137.28
5081.11
5048.93
4651
3852.49
3050.09
2243.64
1439.28
863.673
652.399
583.317
556.373
550.043
547.183
549.263
967.595
904.514
840.787
777.59
702.719
638.781
604.698
583.64
996.181
1029.8
1096.57
1171.84
1331.5
1483.7
1620.29
1752.79
1910.77
2219.61
2859.1
3410.65
3617.47
3690.59
3751.54
3615.6
3725.91
4142.34
4042.97
)
;
    }
    atmosphere
    {
        type            calculated;
        value           nonuniform List<scalar> 
46
(
0
0
0
0
0
0
0
0
0
0
0
0
0
0
0
0
0
0
0
0
0
0
-5.36076e-06
-4.1683e-05
-9.34457e-05
-0.000171204
-0.000274157
-0.000498796
-0.000892749
-0.0013591
-0.00187382
-0.00241389
-0.00295716
-0.00348302
-0.0039731
-0.0044119
-0.00478707
-0.00508963
-0.00531441
-0.00546132
-0.00553785
-0.0055624
-0.00556735
-0.00559804
-0.00559059
-0.00155823
)
;
    }
    defaultFaces
    {
        type            empty;
    }
}


// ************************************************************************* //
