/*--------------------------------*- C++ -*----------------------------------*\
  =========                 |
  \\      /  F ield         | OpenFOAM: The Open Source CFD Toolbox
   \\    /   O peration     | Website:  https://openfoam.org
    \\  /    A nd           | Version:  13
     \\/     M anipulation  |
\*---------------------------------------------------------------------------*/
FoamFile
{
    format      ascii;
    class       volScalarField;
    location    "1";
    object      p_rgh;
}
// * * * * * * * * * * * * * * * * * * * * * * * * * * * * * * * * * * * * * //

dimensions      [1 -1 -2 0 0 0 0];

internalField   nonuniform List<scalar> 
2268
(
8020.55
7863.95
7654.02
7388.6
7113.41
6850.45
6609.41
6394.07
6204.87
6041.03
5899.9
5778.33
5673.2
5581.63
5501.27
5430.47
5367.65
5310.61
5255.86
5199.05
5137.28
5081.11
5048.93
8051.88
7901.19
7689.29
7415.36
7129.69
6855.83
6604.46
6379.73
6183.27
6013.7
5868.29
5743.82
5636.97
5544.64
5464.26
5394.02
5332.16
5276.44
5223.68
5170.61
5115.4
5070.18
5046.28
8098.93
7938.23
7723.06
7441.54
7146.08
6861.65
6599.89
6365.84
6161.47
5985.64
5835.4
5707.5
5598.57
5505.43
5425.2
5356.27
5296.69
5244.42
5196.57
5150.35
5103.74
5068.56
5040.76
8164.74
7979.58
7755.55
7464.66
7159.27
6865.38
6594.02
6351
6139.15
5957.81
5803.5
5672.88
5562.56
5469.2
5389.88
5322.87
5266.63
5219.55
5178.81
5141
5102.25
5072.95
5030.69
8248.12
8032.18
7793.27
7489.29
7172.47
6868.47
6586.42
6333.54
6114.9
5930.74
5775.82
5645.89
5537.09
5445.82
5368.87
5303.9
5249.8
5205.6
5170.03
5138.99
5102.22
5056.52
4976.8
8350.81
8102.81
7844.07
7520.94
7186.89
6867.37
6570.29
6286.88
5929.38
5541.46
5163.08
4820.2
4523.88
4271.03
4033.6
3815.87
3643.12
3517.2
3430.96
3356.29
3223.27
3027.17
2889.97
8478.98
8198.62
7912.25
7556.78
7185.69
6495.31
5186.46
3813.89
2855.22
2265.18
1883.62
1628.45
1451.49
1320.67
1246.79
1209.71
1175.26
1144.31
1119.47
1108.8
1111.79
1087.88
1022.24
8643.54
8323.96
7983.49
7066.48
4563.41
2453.71
1654.7
1520.1
1484.26
1447.94
1410.38
1371.77
1332.59
1293.68
1255.56
1218.29
1183.25
1151.35
1125.85
1115
1160.19
1256.97
1133.8
996.181
1029.8
1096.57
1171.84
1331.5
1483.7
1620.29
1752.79
1910.77
2219.61
2859.1
3410.65
3617.47
3690.59
3751.54
3615.6
3725.91
4142.34
4042.97
989.962
1040.6
1142.94
1221.74
1385.89
1618.01
1788.12
1990.82
2040.15
2481.78
3223.54
3737.76
3834.1
3775.23
3614.8
3579.54
3600.15
3939.8
3836.14
981.317
1144.13
1193.19
1131.36
1049.35
1133.08
1496.44
1989.56
2486.65
2817.14
3408.73
4003.89
4378.09
4296.97
3435.05
3089.08
3148.5
3792.39
3624.76
974.926
1014.21
983.641
967.427
985.971
1011.21
1055.29
1306.41
1871.33
2148.7
2632.88
4098.66
4523.35
4710.16
3392.13
2711.98
2792.13
3783.87
3080.55
1043.75
941.533
936.51
960.056
981.612
1006.52
1040.68
1076.36
1120.86
1172.04
1336.22
3031.07
4325.8
4489.26
3290.56
2693.22
2655.62
3756.33
1760.55
837.953
818.068
836.269
901.978
958.481
1001.02
1035.6
1068
1104.36
1136.39
1146.79
1300.36
3001.36
4554.27
4159.39
2810.39
3048.01
3388.32
1118.93
718.601
721.359
733.302
775.62
831.917
941.447
1028.4
1063.79
1099.04
1128.93
1135.89
1211.21
3399.41
4614.32
4701.54
4160.16
3910.89
1022.8
963.773
742.444
779.632
778.714
774.498
773.039
796.604
953.044
1057.34
1093.63
1121.33
1127.71
1228.37
2862.02
3339.41
3323.33
3431.54
3469.64
1005.06
855.267
8932.8
7046.48
4489.35
2333.54
1619.78
1561.58
1537.32
1510.79
1480.75
1447.04
1410.51
1372.26
1333.29
1294.63
1256.89
1220.54
1186.45
1155.1
1127.29
1104.22
1245.28
1154.97
995.566
4074.43
1873.07
1533.26
1548.52
1553.44
1546.06
1529.96
1506.49
1477.36
1444
1407.8
1369.96
1331.26
1292.96
1256.13
1219.57
1185.79
1120.46
913.041
732.576
723.286
795.4
784.574
1488
1503.08
1527.09
1542.04
1548.57
1544.18
1529.63
1506.55
1477.16
1443.35
1406.65
1368.55
1329.04
1288.66
1249.7
1077.81
846.675
686.104
765.563
816.518
803.187
791.168
781.087
1523.44
1528.29
1541.12
1551.85
1556.13
1550.83
1535.53
1511.34
1480.32
1444.87
1405.95
1366.21
1296.94
971.035
748.433
653.36
820.184
819.499
809.651
807.463
796.678
785.113
774.481
1548.59
1552.89
1560.82
1568.14
1570.54
1563.93
1546.88
1520.22
1485.99
1448.19
1318.78
955.777
788.08
678.014
828.221
819.801
820.313
816.798
807.27
797.383
786.73
775.696
765.679
1567.41
1572.12
1579.4
1586.73
1589.29
1582.04
1562.88
1533.7
1463.75
1077.5
901.342
678.791
830.214
843.365
842.496
831.13
818.606
807.415
796.569
785.87
774.715
763.74
755.191
1578.19
1584.65
1595.09
1606.13
1611.66
1605.85
1587.23
1477.56
1142.69
791.336
774.173
874.584
862.94
850.019
836.369
823.19
809.561
796.169
783.555
772.009
760.238
748.186
740.375
1576.89
1586.52
1604.03
1622.61
1634.59
1634.06
1586.55
1141.38
784.643
885.148
885.72
872.598
857.497
843.355
828.792
813.658
798.58
782.516
767.461
728.318
691.172
553.07
407.671
988.803
1094.24
1238.84
1364.79
1416.64
1274.83
966.576
886.496
908.829
897.663
883.105
866.958
850.333
835.142
814.079
700.76
608.387
435.115
238.726
175.986
133.689
41.663
12.6233
23.5133
44.8581
94.2423
159.748
192.423
137.282
276.054
897.906
906.504
896.901
882.632
740.12
534.473
350.831
192.67
97.4541
51.4667
18.7881
5.67483
5.70342
5.70707
5.73428
5.72333
5.9496
5.93195
6.03964
6.12078
6.46102
7.05193
45.753
309.037
454.103
433.356
274.025
105.163
23.9147
5.54496
5.54652
5.58507
5.6294
5.67797
5.70512
5.71228
5.71699
5.7252
5.73004
5.8303
5.77055
5.6841
5.60049
5.52809
5.48905
5.44902
5.64611
6.10879
5.3694
5.1926
5.34257
5.45053
5.49714
5.52126
5.55565
5.59626
5.63523
5.6587
5.67087
5.68271
5.68834
5.70019
5.75247
5.71827
5.68009
5.63478
5.5652
5.44763
5.29526
5.29215
5.27217
5.23709
5.28571
5.36051
5.42613
5.47285
5.50426
5.53403
5.56627
5.59834
5.62479
5.64219
5.65052
5.65844
5.66314
5.70896
5.69365
5.68242
5.66348
5.62233
5.54312
5.4364
5.37736
5.34315
5.328
5.34615
5.38328
5.42474
5.46097
5.49124
5.51875
5.64806
5.75266
5.67137
5.61967
5.63382
5.64533
5.64856
5.69307
5.68087
5.67044
5.65277
5.62006
5.56881
5.49861
5.4595
5.42139
5.38927
5.38686
5.40496
5.43112
5.45847
5.48416
5.50848
5.5569
5.77075
5.80991
5.81338
5.63222
5.62987
5.63985
5.66313
5.65345
5.64332
5.62698
5.60071
5.56417
5.52026
5.48734
5.45572
5.42765
5.41924
5.42666
5.44283
5.46252
5.48305
5.50372
5.52264
5.55076
5.69451
5.83093
5.8473
5.64013
5.62374
5.63976
5.63351
5.62503
5.61134
5.59076
5.56302
5.53045
5.50284
5.47795
5.45702
5.44785
5.44996
5.45954
5.47321
5.48872
5.50499
5.52094
5.53602
5.54925
5.59726
5.69145
5.66585
5.61017
5.62573
5.62236
5.61624
5.60562
5.59005
5.56934
5.54507
5.52244
5.5024
5.486
5.47702
5.47582
5.48067
5.48954
5.50075
5.51315
5.52598
5.53876
5.55125
5.56356
5.57535
5.58837
5.602
5.61835
5.6173
5.61361
5.60591
5.59448
5.57946
5.56178
5.54415
5.52809
5.51468
5.50608
5.50293
5.50457
5.50983
5.51759
5.52689
5.53703
5.54756
5.55833
5.56922
5.58035
5.59205
5.6038
5.61566
5.61647
5.61491
5.60976
5.60162
5.59093
5.57825
5.56499
5.55243
5.54156
5.53378
5.52978
5.52945
5.53219
5.53729
5.54406
5.55193
5.5605
5.56955
5.57899
5.58882
5.59908
5.60935
5.61635
5.61855
5.61873
5.6157
5.61008
5.60254
5.59353
5.5838
5.57425
5.5657
5.5591
5.55507
5.55374
5.5549
5.55811
5.56294
5.56896
5.57584
5.58337
5.59139
5.59985
5.60867
5.61768
5.61934
5.62246
5.62399
5.62268
5.619
5.61373
5.60734
5.60032
5.59326
5.58675
5.58147
5.57791
5.5763
5.57661
5.57864
5.58211
5.58673
5.59225
5.59848
5.60527
5.61251
5.62011
5.62795
5.62377
5.62742
5.62993
5.62999
5.62783
5.62424
5.61973
5.6147
5.60958
5.60478
5.60078
5.59794
5.59649
5.59651
5.5979
5.60052
5.60417
5.60868
5.61389
5.61967
5.6259
5.63247
5.63931
5.62903
5.63291
5.63607
5.63719
5.63626
5.63396
5.63084
5.62728
5.62363
5.62019
5.6173
5.61523
5.61418
5.61423
5.61537
5.61752
5.62057
5.62438
5.62883
5.63382
5.63923
5.64498
5.65099
5.63472
5.63863
5.64216
5.64404
5.6441
5.64286
5.64082
5.63838
5.63584
5.63346
5.63148
5.63012
5.62952
5.62977
5.63088
5.63282
5.6355
5.63885
5.64277
5.64716
5.65193
5.657
5.66233
5.64059
5.64439
5.64809
5.65047
5.65129
5.65092
5.64978
5.64823
5.64656
5.645
5.64375
5.64298
5.6428
5.6433
5.64448
5.64634
5.64882
5.65186
5.65539
5.65932
5.66359
5.66812
5.67288
5.64651
5.6501
5.6538
5.65649
5.65785
5.65818
5.65779
5.65699
5.65602
5.65512
5.65445
5.65415
5.65433
5.65505
5.65633
5.65816
5.66052
5.66334
5.66658
5.67015
5.674
5.67808
5.68237
5.65239
5.65573
5.65932
5.66213
5.66387
5.66473
5.66494
5.66476
5.66439
5.66402
5.66382
5.66391
5.66437
5.66527
5.66664
5.66845
5.67071
5.67335
5.67635
5.67962
5.68312
5.68682
5.69068
5.65819
5.66125
5.66464
5.66745
5.66941
5.67065
5.67134
5.67165
5.67177
5.67186
5.67204
5.67244
5.67314
5.67418
5.67559
5.67739
5.67955
5.68203
5.6848
5.68781
5.69101
5.69435
5.69783
5.66388
5.66665
5.6698
5.67253
5.67458
5.67606
5.67709
5.67779
5.6783
5.67876
5.67926
5.67992
5.68079
5.68194
5.68339
5.68515
5.68721
5.68954
5.6921
5.69486
5.69777
5.70081
5.70394
5.66947
5.67195
5.67482
5.67739
5.67944
5.68105
5.6823
5.68328
5.68409
5.68484
5.6856
5.68646
5.68748
5.68871
5.69018
5.69189
5.69385
5.69603
5.6984
5.70093
5.70358
5.70632
5.70914
5.67494
5.67714
5.67972
5.68209
5.68406
5.68571
5.68708
5.68824
5.68926
5.69022
5.69117
5.69219
5.69333
5.69462
5.6961
5.69776
5.69962
5.70165
5.70385
5.70616
5.70856
5.71103
5.71356
5.6803
5.68222
5.68451
5.68665
5.6885
5.69011
5.69151
5.69277
5.69391
5.69501
5.6961
5.69723
5.69845
5.69978
5.70125
5.70286
5.70463
5.70653
5.70856
5.71067
5.71285
5.71507
5.71733
5.68555
5.68722
5.68922
5.69111
5.6928
5.69431
5.69568
5.69695
5.69815
5.69931
5.70047
5.70167
5.70293
5.70428
5.70573
5.70729
5.70897
5.71076
5.71263
5.71457
5.71655
5.71854
5.72054
5.69069
5.69213
5.69384
5.69549
5.69698
5.69835
5.69964
5.70087
5.70205
5.70322
5.70439
5.7056
5.70687
5.7082
5.70962
5.71113
5.71273
5.71441
5.71615
5.71794
5.71973
5.72153
5.72328
5.69575
5.69696
5.6984
5.6998
5.70108
5.70229
5.70345
5.70458
5.70569
5.70681
5.70795
5.70912
5.71035
5.71164
5.71301
5.71445
5.71597
5.71755
5.71918
5.72083
5.72247
5.72408
5.7256
5.70073
5.70174
5.70292
5.70406
5.70513
5.70615
5.70715
5.70814
5.70913
5.71015
5.7112
5.7123
5.71345
5.71467
5.71596
5.71732
5.71875
5.72024
5.72177
5.72332
5.72484
5.72629
5.72759
5.70567
5.70648
5.7074
5.7083
5.70914
5.70996
5.71077
5.71159
5.71244
5.71331
5.71424
5.71521
5.71625
5.71736
5.71855
5.71981
5.72114
5.72254
5.72399
5.72546
5.7269
5.72826
5.72934
5.71058
5.7112
5.71189
5.71254
5.71316
5.71376
5.71437
5.71499
5.71565
5.71636
5.71711
5.71793
5.71882
5.71979
5.72084
5.72198
5.7232
5.72451
5.72589
5.72731
5.72875
5.7301
5.73095
5.71552
5.71595
5.7164
5.7168
5.71717
5.71753
5.71791
5.71831
5.71876
5.71926
5.71982
5.72045
5.72115
5.72195
5.72284
5.72384
5.72496
5.7262
5.72757
5.72905
5.7307
5.73237
5.73284
5.72056
5.72075
5.7209
5.72099
5.72105
5.72112
5.72121
5.72135
5.72153
5.72179
5.72212
5.72254
5.72305
5.72367
5.72442
5.72532
5.7264
5.72768
5.72921
5.73107
5.7336
5.73666
5.73644
5.72584
5.72579
5.72566
5.72549
5.7253
5.72514
5.72501
5.72493
5.7249
5.72493
5.72503
5.72521
5.72548
5.72585
5.72635
5.72699
5.72781
5.72886
5.73021
5.73206
5.73521
5.74073
5.74138
773.364
749.379
755.639
788.07
786.029
782.128
775.071
769.419
775.886
771.56
766.367
761.983
767.742
763.332
758.976
755.348
759.375
755.421
751.67
748.512
750.628
747.332
743.81
740.672
740.757
739.029
734.193
730.004
547.227
615.583
540.613
484.345
28.4618
25.0168
14.2009
10.5809
5.71505
5.71379
5.68001
5.66353
5.72189
5.71201
5.72088
5.72372
5.68837
5.68025
5.67977
5.6841
5.66055
5.65679
5.65457
5.655
5.64841
5.64917
5.65012
5.64963
5.64624
5.64984
5.65191
5.6478
5.63297
5.63982
5.6435
5.64598
5.61478
5.62178
5.62952
5.63414
5.61101
5.61617
5.62053
5.62432
5.61172
5.61668
5.6212
5.62521
5.61665
5.62128
5.62551
5.62936
5.62442
5.62872
5.63261
5.63616
5.63407
5.63802
5.64156
5.64478
5.64479
5.64835
5.65154
5.65444
5.65581
5.65894
5.66179
5.66439
5.66654
5.66924
5.67177
5.67407
5.67655
5.67886
5.68107
5.6831
5.68556
5.68753
5.68946
5.69124
5.69346
5.69515
5.69683
5.69839
5.70027
5.70172
5.7032
5.70457
5.7061
5.70735
5.70864
5.70984
5.71104
5.71214
5.71327
5.71433
5.71524
5.7162
5.71719
5.71813
5.71881
5.71965
5.72053
5.72135
5.72185
5.72259
5.72336
5.72407
5.72441
5.72506
5.72572
5.72634
5.72656
5.72712
5.72768
5.72819
5.72837
5.72882
5.72926
5.72965
5.7299
5.7302
5.7305
5.73076
5.73119
5.73129
5.7314
5.73149
5.7323
5.73203
5.73189
5.73179
5.7334
5.73214
5.73162
5.73137
5.73572
5.73325
5.73188
5.73099
786.634
773.886
769.355
768.717
770.887
773.724
787.021
943.181
1084.42
1106.2
1106.27
1329.94
1776.7
1801.52
2105.69
2413.73
1960.01
1007.77
761.081
765.787
760.788
758.899
759.048
760.762
763.136
764.385
764.085
931.717
1097.99
1093.64
1085.37
1203.74
1859.94
2517.57
2466.7
1263.97
878.602
673.698
756.868
752.42
750.71
750.522
751.353
752.336
751.915
747.542
738.889
891.122
1082.2
1090.66
1120.8
1224.52
1289.9
971.652
864.239
709.775
592.042
750.438
745.962
743.878
743.194
743.293
743.345
741.958
737.426
727.536
710.335
759.13
868.453
901.991
835.655
748.565
678.604
631.447
667.265
609.693
743.92
739.567
737.271
736.313
736.034
735.681
734.186
730.12
722.221
709.362
690.904
668.902
649.778
636.078
628.043
625.73
628.031
633.199
543.106
735.949
731.815
729.538
728.481
728.085
727.675
726.361
723.093
716.99
707.229
693.574
677.775
662.914
649.62
643.543
639.116
624.97
566.226
416.108
725.785
722.928
721.307
720.469
720.045
719.466
718.077
715.39
710.935
703.906
694.265
684.279
675.269
648.264
564.37
418.778
273.612
208.127
227.682
478.534
496.142
523.05
555.798
589.438
617.897
636.071
642.628
641.352
629.752
589.722
512.059
368.587
203.69
74.0047
6.67909
7.12642
76.1551
167.802
9.01833
10.1736
19.2862
34.5141
55.7312
78.9583
96.1317
102.057
100.789
84.3463
43.3717
5.23561
5.43762
5.74386
6.09091
6.24181
6.46128
44.1287
85.7246
5.67389
5.69917
5.69059
5.66429
5.61744
5.5564
5.492
5.4376
5.40893
5.47373
5.75523
5.95849
6.22397
6.62493
6.32563
6.1764
6.20432
5.85532
5.72076
5.71825
5.72172
5.74287
5.76887
5.79488
5.8172
5.83502
5.84895
5.85995
5.87814
5.91239
6.24248
7.49766
7.47302
7.12477
6.02746
6.01188
5.90023
5.85201
5.69106
5.70003
5.71222
5.7247
5.73727
5.74882
5.75882
5.76848
5.78146
5.8011
5.8219
6.2093
7.13624
7.0572
6.00616
5.95999
5.95476
5.90151
5.86311
5.66248
5.67377
5.68443
5.69522
5.70565
5.71437
5.72199
5.7304
5.74673
5.76396
5.7832
5.78546
5.79186
5.82506
5.87652
5.91414
5.91583
5.88452
5.86223
5.65064
5.65898
5.66984
5.68193
5.69348
5.70394
5.71344
5.72328
5.73492
5.7502
5.76438
5.77856
5.79461
5.82158
5.85486
5.88057
5.88354
5.86627
5.85127
5.64585
5.65325
5.6634
5.67469
5.68617
5.69736
5.70826
5.71913
5.73067
5.7439
5.75837
5.77236
5.78763
5.80848
5.8317
5.84894
5.85373
5.84614
5.83937
5.649
5.64821
5.65776
5.66872
5.67988
5.69101
5.70203
5.71317
5.72477
5.7373
5.75044
5.76343
5.77724
5.79367
5.81075
5.82386
5.82932
5.82752
5.82806
5.63692
5.6451
5.65332
5.664
5.67479
5.68567
5.69651
5.70743
5.71866
5.73037
5.74239
5.75443
5.76685
5.78031
5.79368
5.80452
5.81086
5.81289
5.81841
5.63092
5.6407
5.65112
5.66134
5.67169
5.68217
5.69263
5.70312
5.71376
5.72463
5.73565
5.7467
5.75791
5.76941
5.78055
5.79016
5.79742
5.80267
5.81225
5.63188
5.64133
5.65109
5.66099
5.67094
5.6809
5.69082
5.70072
5.71066
5.72069
5.73078
5.74088
5.75102
5.76119
5.77106
5.78015
5.78846
5.79674
5.80896
5.63573
5.64464
5.65386
5.66321
5.67256
5.68188
5.69114
5.70035
5.70953
5.71873
5.72795
5.73717
5.74641
5.75566
5.76483
5.77385
5.78328
5.79433
5.80995
5.64198
5.65021
5.65885
5.66754
5.6762
5.68479
5.69332
5.70179
5.7102
5.7186
5.72701
5.73544
5.74393
5.75253
5.7613
5.77047
5.78094
5.79467
5.8124
5.65001
5.65751
5.66545
5.67343
5.68133
5.68917
5.69694
5.70465
5.7123
5.71994
5.72761
5.73534
5.74321
5.75132
5.75985
5.76919
5.78054
5.79601
5.81558
5.65906
5.66585
5.67306
5.68029
5.68743
5.69451
5.70152
5.70848
5.71541
5.72234
5.72933
5.73645
5.74378
5.75149
5.75983
5.7693
5.78127
5.79757
5.81762
5.66848
5.67459
5.68108
5.68756
5.69395
5.70029
5.70658
5.71284
5.71908
5.72537
5.73175
5.73832
5.74519
5.75254
5.76067
5.77015
5.78245
5.79907
5.81879
5.67769
5.68319
5.68898
5.69475
5.70045
5.70611
5.71172
5.71733
5.72295
5.72865
5.73449
5.74056
5.747
5.754
5.76188
5.77123
5.78355
5.80035
5.81982
5.6863
5.69126
5.69641
5.70153
5.70659
5.71162
5.71663
5.72165
5.72672
5.73189
5.73723
5.74285
5.74888
5.75551
5.76306
5.77214
5.78419
5.80066
5.81951
5.69409
5.69855
5.70311
5.70765
5.71215
5.71662
5.72109
5.72559
5.73015
5.73485
5.73974
5.74493
5.75055
5.75679
5.76395
5.7726
5.78411
5.79985
5.81757
5.70093
5.70495
5.709
5.71302
5.71702
5.721
5.72499
5.72902
5.73313
5.73739
5.74186
5.74664
5.75184
5.75766
5.76436
5.77246
5.78325
5.79785
5.81409
5.70683
5.71045
5.71405
5.71762
5.72117
5.72472
5.72828
5.73189
5.73559
5.73944
5.74351
5.74787
5.75266
5.75802
5.7642
5.77167
5.78155
5.79485
5.80925
5.71187
5.71512
5.71832
5.72149
5.72465
5.7278
5.73098
5.7342
5.73752
5.74097
5.74464
5.74859
5.75294
5.75782
5.76345
5.77026
5.77924
5.79089
5.80335
5.71613
5.71904
5.72188
5.7247
5.72751
5.7303
5.73312
5.73598
5.73892
5.742
5.74527
5.7488
5.7527
5.75708
5.76216
5.76832
5.77623
5.7863
5.7967
5.71974
5.72233
5.72484
5.72734
5.72981
5.73228
5.73475
5.73726
5.73985
5.74255
5.74543
5.74854
5.75197
5.75586
5.76039
5.76592
5.77274
5.78123
5.78968
5.72277
5.72505
5.72727
5.72946
5.73163
5.73378
5.73593
5.7381
5.74034
5.74267
5.74515
5.74784
5.75082
5.75421
5.75822
5.76304
5.7689
5.77592
5.78257
5.7253
5.72729
5.72922
5.73113
5.733
5.73484
5.73668
5.73853
5.74042
5.74239
5.74449
5.74676
5.7493
5.75221
5.75566
5.75978
5.76483
5.77045
5.77562
5.72738
5.72909
5.73074
5.73236
5.73395
5.7355
5.73703
5.73856
5.74012
5.74175
5.74347
5.74535
5.74747
5.74991
5.7528
5.75629
5.7604
5.76504
5.76897
5.72905
5.73047
5.73185
5.73319
5.73448
5.73574
5.73698
5.73821
5.73945
5.74075
5.74213
5.74364
5.74535
5.74734
5.74971
5.7526
5.75601
5.75969
5.76266
5.73031
5.73144
5.73253
5.73359
5.7346
5.73558
5.73652
5.73745
5.7384
5.73939
5.74045
5.74163
5.74298
5.74455
5.74644
5.74875
5.75151
5.75434
5.7567
5.73119
5.732
5.7328
5.73357
5.73429
5.73498
5.73564
5.73629
5.73696
5.73767
5.73844
5.73932
5.74034
5.74154
5.74299
5.74477
5.74686
5.74893
5.75104
5.73166
5.73213
5.73263
5.7331
5.73354
5.73394
5.73433
5.73472
5.73513
5.73558
5.7361
5.73671
5.73744
5.73832
5.73937
5.74064
5.74208
5.74342
5.74551
5.73168
5.73181
5.732
5.73219
5.73235
5.73249
5.73263
5.73277
5.73295
5.73318
5.73348
5.73388
5.73437
5.73498
5.7357
5.7365
5.73719
5.73766
5.73976
5.73114
5.73096
5.73089
5.73082
5.73073
5.73064
5.73054
5.73047
5.73044
5.73047
5.73058
5.73078
5.73108
5.73148
5.73194
5.73227
5.73174
5.73046
5.73372
5.73007
5.72947
5.72908
5.72872
5.72835
5.72798
5.72762
5.7273
5.72702
5.72681
5.72668
5.72663
5.72668
5.72678
5.7269
5.72674
5.7248
5.71947
5.73111
)
;

boundaryField
{
    leftWall
    {
        type            fixedFluxPressure;
        gradient        uniform 0;
        value           nonuniform List<scalar> 
50
(
8020.55
8051.88
8098.93
8164.74
8248.12
8350.81
8478.98
8643.54
8932.8
4074.43
1488
1523.44
1548.59
1567.41
1578.19
1576.89
988.803
23.5133
5.9496
5.8303
5.75247
5.70896
5.69307
5.66313
5.63976
5.62573
5.61835
5.61566
5.61635
5.61934
5.62377
5.62903
5.63472
5.64059
5.64651
5.65239
5.65819
5.66388
5.66947
5.67494
5.6803
5.68555
5.69069
5.69575
5.70073
5.70567
5.71058
5.71552
5.72056
5.72584
)
;
    }
    rightWall
    {
        type            fixedFluxPressure;
        gradient        uniform 0;
        value           nonuniform List<scalar> 
50
(
4042.97
3836.14
3624.76
3080.55
1760.55
1118.93
963.773
855.267
761.081
673.698
592.042
609.693
543.106
416.108
227.682
167.802
85.7246
5.72076
5.85201
5.86311
5.86223
5.85127
5.83937
5.82806
5.81841
5.81225
5.80896
5.80995
5.8124
5.81558
5.81762
5.81879
5.81982
5.81951
5.81757
5.81409
5.80925
5.80335
5.7967
5.78968
5.78257
5.77562
5.76897
5.76266
5.7567
5.75104
5.74551
5.73976
5.73372
5.73111
)
;
    }
    lowerWall
    {
        type            fixedFluxPressure;
        gradient        uniform 0;
        value           nonuniform List<scalar> 
62
(
8020.55
7863.95
7654.02
7388.6
7113.41
6850.45
6609.41
6394.07
6204.87
6041.03
5899.9
5778.33
5673.2
5581.63
5501.27
5430.47
5367.65
5310.61
5255.86
5199.05
5137.28
5081.11
5048.93
5048.93
5046.28
5040.76
5030.69
4976.8
2889.97
1022.24
1133.8
773.364
749.379
755.639
788.07
996.181
989.962
981.317
974.926
1043.75
837.953
718.601
742.444
996.181
1029.8
1096.57
1171.84
1331.5
1483.7
1620.29
1752.79
1910.77
2219.61
2859.1
3410.65
3617.47
3690.59
3751.54
3615.6
3725.91
4142.34
4042.97
)
;
    }
    atmosphere
    {
        type            prghTotalPressure;
        rho             rho;
        psi             none;
        gamma           1;
        p0              uniform 0;
        value           nonuniform List<scalar> 
46
(
5.72904
5.72904
5.72904
5.72904
5.72904
5.72904
5.72904
5.72904
5.72904
5.72904
5.72904
5.72904
5.72904
5.72904
5.72904
5.72904
5.72904
5.72904
5.72904
5.72904
5.72904
5.72904
5.72903
5.729
5.72895
5.72887
5.72877
5.72854
5.72815
5.72768
5.72717
5.72663
5.72608
5.72556
5.72507
5.72463
5.72425
5.72395
5.72373
5.72358
5.7235
5.72348
5.72347
5.72344
5.72345
5.72748
)
;
        rho             rho;
    }
    defaultFaces
    {
        type            empty;
    }
}


// ************************************************************************* //
