/*--------------------------------*- C++ -*----------------------------------*\
  =========                 |
  \\      /  F ield         | OpenFOAM: The Open Source CFD Toolbox
   \\    /   O peration     | Website:  https://openfoam.org
    \\  /    A nd           | Version:  13
     \\/     M anipulation  |
\*---------------------------------------------------------------------------*/
FoamFile
{
    format      ascii;
    class       surfaceScalarField;
    location    "1";
    object      phi;
}
// * * * * * * * * * * * * * * * * * * * * * * * * * * * * * * * * * * * * * //

dimensions      [0 3 -1 0 0 0 0];

internalField   nonuniform List<scalar> 
4432
(
-6.59948e-07
6.59954e-07
-4.6255e-06
3.96556e-06
-8.52475e-06
3.89926e-06
-1.14381e-05
2.91333e-06
-1.32615e-05
1.82341e-06
-1.41199e-05
8.58454e-07
-1.4245e-05
1.25101e-07
-1.38771e-05
-3.67931e-07
-1.31814e-05
-6.95619e-07
-1.22617e-05
-9.19708e-07
-1.1201e-05
-1.0607e-06
-1.00626e-05
-1.13841e-06
-8.88681e-06
-1.17581e-06
-7.69807e-06
-1.18874e-06
-6.5117e-06
-1.18637e-06
-5.33091e-06
-1.1808e-06
-4.14092e-06
-1.19e-06
-2.90836e-06
-1.23258e-06
-1.59773e-06
-1.31063e-06
-2.20344e-07
-1.3774e-06
1.08319e-06
-1.30354e-06
1.78768e-06
-7.04496e-07
1.78767e-06
-2.2093e-06
2.86924e-06
-5.80205e-06
7.55831e-06
-8.99071e-06
7.08792e-06
-1.13076e-05
5.23023e-06
-1.27227e-05
3.23851e-06
-1.33809e-05
1.5167e-06
-1.34801e-05
2.2423e-07
-1.3189e-05
-6.59022e-07
-1.26161e-05
-1.26844e-06
-1.18373e-05
-1.69852e-06
-1.09208e-05
-1.97718e-06
-9.92376e-06
-2.13548e-06
-8.88779e-06
-2.21178e-06
-7.84282e-06
-2.23371e-06
-6.80993e-06
-2.21927e-06
-5.79896e-06
-2.19178e-06
-4.8037e-06
-2.18527e-06
-3.80134e-06
-2.23495e-06
-2.76324e-06
-2.34875e-06
-1.67684e-06
-2.4638e-06
-5.94996e-07
-2.38539e-06
2.68779e-07
-1.56828e-06
2.05645e-06
-3.22739e-06
6.09663e-06
-6.34438e-06
1.06753e-05
-8.92621e-06
9.66976e-06
-1.08145e-05
7.11852e-06
-1.20055e-05
4.42948e-06
-1.26047e-05
2.11589e-06
-1.27505e-05
3.70047e-07
-1.25595e-05
-8.49963e-07
-1.21044e-05
-1.72356e-06
-1.14429e-05
-2.36003e-06
-1.06385e-05
-2.78162e-06
-9.74834e-06
-3.02561e-06
-8.81671e-06
-3.14342e-06
-7.87724e-06
-3.1732e-06
-6.95619e-06
-3.14033e-06
-6.06912e-06
-3.07886e-06
-5.21753e-06
-3.03687e-06
-4.38722e-06
-3.06528e-06
-3.55267e-06
-3.18331e-06
-2.68605e-06
-3.33044e-06
-1.77901e-06
-3.29244e-06
-8.25839e-07
-2.52146e-06
1.2306e-06
-3.66471e-06
9.76133e-06
-6.38787e-06
1.33985e-05
-8.51972e-06
1.18016e-05
-1.01236e-05
8.72236e-06
-1.12093e-05
5.51526e-06
-1.18252e-05
2.7318e-06
-1.20583e-05
6.03127e-07
-1.19826e-05
-9.25682e-07
-1.1644e-05
-2.06218e-06
-1.10884e-05
-2.91565e-06
-1.03799e-05
-3.49013e-06
-9.57898e-06
-3.8265e-06
-8.7333e-06
-3.98911e-06
-7.88028e-06
-4.02623e-06
-7.04984e-06
-3.97078e-06
-6.26335e-06
-3.86536e-06
-5.53024e-06
-3.76998e-06
-4.84526e-06
-3.75026e-06
-4.18559e-06
-3.84299e-06
-3.50326e-06
-4.01277e-06
-2.73582e-06
-4.05989e-06
-1.74477e-06
-3.51251e-06
-5.14175e-07
-3.61708e-06
1.33784e-05
-5.98659e-06
1.5768e-05
-7.80458e-06
1.36196e-05
-9.24338e-06
1.01612e-05
-1.03168e-05
6.58872e-06
-1.10137e-05
3.42864e-06
-1.13706e-05
9.60013e-07
-1.14253e-05
-8.70932e-07
-1.12043e-05
-2.28324e-06
-1.0747e-05
-3.37288e-06
-1.01234e-05
-4.11375e-06
-9.39941e-06
-4.55049e-06
-8.62595e-06
-4.76257e-06
-7.84492e-06
-4.80725e-06
-7.09045e-06
-4.72526e-06
-6.38655e-06
-4.56926e-06
-5.74905e-06
-4.40748e-06
-5.18511e-06
-4.3142e-06
-4.67958e-06
-4.34852e-06
-4.16014e-06
-4.53221e-06
-3.49756e-06
-4.72247e-06
-2.54793e-06
-4.46213e-06
-3.06211e-06
-3.1486e-06
1.6527e-05
-5.16575e-06
1.77852e-05
-6.7816e-06
1.52355e-05
-8.16377e-06
1.15434e-05
-9.3127e-06
7.73765e-06
-1.01503e-05
4.26622e-06
-1.06651e-05
1.47482e-06
-1.08694e-05
-6.66602e-07
-1.07595e-05
-2.39318e-06
-1.03827e-05
-3.74961e-06
-9.82563e-06
-4.67084e-06
-9.16223e-06
-5.21388e-06
-8.45119e-06
-5.4736e-06
-7.73992e-06
-5.51852e-06
-7.05794e-06
-5.40723e-06
-6.42672e-06
-5.20047e-06
-5.87806e-06
-4.95614e-06
-5.43693e-06
-4.75532e-06
-5.11082e-06
-4.67463e-06
-4.79526e-06
-4.84775e-06
-4.19014e-06
-5.32759e-06
-3.22122e-06
-5.43104e-06
-6.28333e-06
-2.2944e-06
1.88215e-05
-3.95276e-06
1.94435e-05
-5.4792e-06
1.67619e-05
-6.86589e-06
1.29301e-05
-8.17329e-06
9.04506e-06
-9.22714e-06
5.32008e-06
-9.8761e-06
2.12379e-06
-1.01169e-05
-4.25747e-07
-1.0016e-05
-2.49406e-06
-9.66308e-06
-4.10256e-06
-9.15157e-06
-5.18234e-06
-8.55655e-06
-5.80888e-06
-7.93526e-06
-6.09488e-06
-7.34312e-06
-6.11063e-06
-6.80662e-06
-5.94371e-06
-6.3413e-06
-5.66576e-06
-5.98552e-06
-5.3119e-06
-5.80076e-06
-4.94006e-06
-5.87691e-06
-4.59846e-06
-6.08839e-06
-4.63626e-06
-5.61731e-06
-5.79866e-06
-3.74565e-06
-7.30268e-06
-1.0029e-05
-1.15509e-06
1.99766e-05
-2.38996e-06
2.06784e-05
-3.90214e-06
1.82741e-05
-5.36695e-06
1.43949e-05
-6.70793e-06
1.03861e-05
-7.96245e-06
6.57462e-06
-8.84062e-06
3.00197e-06
-9.05609e-06
-2.10262e-07
-8.80176e-06
-2.74838e-06
-8.34285e-06
-4.56146e-06
-7.84179e-06
-5.68338e-06
-7.40372e-06
-6.24694e-06
-7.09313e-06
-6.40544e-06
-6.93326e-06
-6.27048e-06
-6.9034e-06
-5.97355e-06
-7.0277e-06
-5.54144e-06
-7.33278e-06
-5.0068e-06
-7.91925e-06
-4.35357e-06
-8.97031e-06
-3.54738e-06
-1.03387e-05
-3.26786e-06
-1.03734e-05
-5.76397e-06
-8.9006e-06
-8.77545e-06
-1.89296e-05
-1.41689e-05
1.41689e-05
-9.3393e-06
-4.82961e-06
-2.47631e-06
-6.86297e-06
1.38134e-07
-2.61442e-06
2.0543e-06
-1.91615e-06
1.54168e-06
5.1265e-07
-4.00724e-06
5.54896e-06
-1.31763e-05
9.16912e-06
-2.43338e-05
1.11577e-05
-2.95229e-05
5.18911e-06
-2.68136e-05
-2.70924e-06
-2.53529e-05
-1.46067e-06
-2.52091e-05
-1.43773e-07
-2.75961e-05
2.38696e-06
-3.42137e-05
6.61766e-06
-3.75038e-05
3.29011e-06
-3.38937e-05
-3.61013e-06
-1.86234e-05
-1.52703e-05
-1.86234e-05
-5.31492e-06
1.94838e-05
5.95774e-07
-1.07403e-05
3.71082e-06
-9.97802e-06
4.64437e-06
-3.54795e-06
3.81573e-06
-1.0875e-06
1.98183e-06
2.34657e-06
-1.31103e-06
8.84186e-06
-6.17588e-06
1.4034e-05
-1.2092e-05
1.70739e-05
-1.72608e-05
1.03579e-05
-2.10198e-05
1.04985e-06
-2.2212e-05
-2.68495e-07
-2.08247e-05
-1.53103e-06
-1.86976e-05
2.59864e-07
-2.32975e-05
1.12176e-05
-2.83664e-05
8.35912e-06
-2.48076e-05
-7.16899e-06
-1.03862e-05
-2.96917e-05
-2.90096e-05
2.56059e-06
1.69233e-05
4.41064e-06
-1.25903e-05
4.70923e-06
-1.02766e-05
4.37003e-06
-3.20873e-06
2.42376e-06
8.58809e-07
-2.12222e-07
4.98258e-06
-2.6632e-06
1.12929e-05
-5.67669e-06
1.70475e-05
-9.28795e-06
2.06851e-05
-1.49451e-05
1.60151e-05
-2.05028e-05
6.60757e-06
-2.21611e-05
1.38978e-06
-2.06433e-05
-3.04881e-06
-1.67321e-05
-3.65129e-06
-1.5207e-05
9.69244e-06
-1.84991e-05
1.16512e-05
-1.48452e-05
-1.08229e-05
-3.057e-06
-4.14799e-05
-3.20666e-05
8.64034e-06
8.28295e-06
5.86564e-06
-9.81563e-06
3.70915e-06
-8.12008e-06
2.21062e-06
-1.71017e-06
1.88166e-07
2.8813e-06
-2.29337e-06
7.46417e-06
-4.74011e-06
1.37396e-05
-7.07188e-06
1.93793e-05
-9.86899e-06
2.34823e-05
-1.5538e-05
2.16841e-05
-2.18252e-05
1.28948e-05
-2.34608e-05
3.02542e-06
-2.21189e-05
-4.39072e-06
-1.83562e-05
-7.41393e-06
-1.20346e-05
3.37087e-06
-9.01388e-06
8.63056e-06
-4.13402e-06
-1.57027e-05
3.04963e-06
-4.86635e-05
-2.90169e-05
8.94545e-06
-6.62457e-07
5.06514e-06
-5.93527e-06
1.83561e-06
-4.89051e-06
-1.63631e-07
2.89095e-07
-2.29832e-06
5.01601e-06
-4.72051e-06
9.88638e-06
-6.89922e-06
1.59184e-05
-8.96522e-06
2.14453e-05
-1.17399e-05
2.6257e-05
-1.70667e-05
2.70108e-05
-2.34235e-05
1.92516e-05
-2.51871e-05
4.78902e-06
-2.39027e-05
-5.67507e-06
-2.07169e-05
-1.05997e-05
-1.29428e-05
-4.40324e-06
-4.01047e-06
-3.0179e-07
3.81956e-06
-2.35328e-05
7.7676e-06
-5.26115e-05
-2.12494e-05
5.31298e-06
-5.97533e-06
2.30877e-06
-2.93099e-06
-7.07822e-07
-1.87387e-06
-2.72742e-06
2.30874e-06
-4.84114e-06
7.12977e-06
-7.18864e-06
1.22339e-05
-9.40856e-06
1.81383e-05
-1.16871e-05
2.37239e-05
-1.43626e-05
2.89325e-05
-1.83702e-05
3.10185e-05
-2.32564e-05
2.41378e-05
-2.66624e-05
8.19505e-06
-2.45752e-05
-7.76229e-06
-2.12477e-05
-1.39272e-05
-1.45194e-05
-1.11315e-05
-3.13223e-06
-1.1689e-05
6.67306e-06
-3.33381e-05
8.87478e-06
-5.48132e-05
-1.23745e-05
-9.28408e-07
-5.04677e-06
-2.39966e-06
-1.45965e-06
-4.23333e-06
-4.01281e-08
-5.70793e-06
3.7834e-06
-7.4917e-06
8.9136e-06
-9.68028e-06
1.44225e-05
-1.18673e-05
2.03254e-05
-1.407e-05
2.59265e-05
-1.62986e-05
3.11612e-05
-1.90981e-05
3.3818e-05
-2.29664e-05
2.80063e-05
-2.55554e-05
1.07841e-05
-2.35127e-05
-9.80503e-06
-2.02665e-05
-1.71734e-05
-1.37473e-05
-1.76507e-05
-3.06102e-06
-2.23752e-05
6.77592e-06
-4.3175e-05
4.8808e-06
-5.2918e-05
-7.49367e-06
-7.3612e-06
2.31452e-06
-7.76807e-06
-1.05272e-06
-8.38736e-06
5.79223e-07
-9.14533e-06
4.54142e-06
-1.02913e-05
1.00596e-05
-1.20463e-05
1.61775e-05
-1.40519e-05
2.23311e-05
-1.59522e-05
2.78269e-05
-1.75414e-05
3.27504e-05
-1.91201e-05
3.53967e-05
-2.13528e-05
3.02391e-05
-2.23191e-05
1.17504e-05
-2.15638e-05
-1.05604e-05
-1.86217e-05
-2.01156e-05
-1.18213e-05
-2.44511e-05
-1.82681e-06
-3.23697e-05
5.53812e-06
-5.05399e-05
3.16655e-06
-5.05464e-05
-4.32703e-06
3.94617e-07
1.9582e-05
2.3363e-07
2.08394e-05
-2.32037e-06
2.08281e-05
-7.28516e-06
1.93597e-05
-1.20087e-05
1.51096e-05
-1.47621e-05
9.32805e-06
-1.57444e-05
3.98428e-06
-1.56003e-05
-3.54283e-07
-1.5078e-05
-3.27069e-06
-1.46626e-05
-4.97679e-06
-1.4561e-05
-5.785e-06
-1.48471e-05
-5.96081e-06
-1.55541e-05
-5.69843e-06
-1.66769e-05
-5.14767e-06
-1.81459e-05
-4.50457e-06
-2.00009e-05
-3.6864e-06
-2.22486e-05
-2.75914e-06
-2.48476e-05
-1.75453e-06
-2.83883e-05
-6.73089e-09
-3.24977e-05
8.41555e-07
-3.45624e-05
-3.69918e-06
-3.57753e-05
-7.56259e-06
-9.75142e-06
-4.49534e-05
3.93491e-08
1.95427e-05
-5.92059e-06
2.67994e-05
-1.09007e-05
2.58083e-05
-1.36756e-05
2.21346e-05
-1.49114e-05
1.63455e-05
-1.52891e-05
9.70577e-06
-1.52845e-05
3.97965e-06
-1.54488e-05
-1.89873e-07
-1.59705e-05
-2.74904e-06
-1.69078e-05
-4.03939e-06
-1.82705e-05
-4.42234e-06
-2.00349e-05
-4.19639e-06
-2.22469e-05
-3.48642e-06
-2.49234e-05
-2.47112e-06
-2.77882e-05
-1.63982e-06
-3.09706e-05
-5.03875e-07
-3.48324e-05
1.10264e-06
-3.90015e-05
2.41459e-06
-4.29377e-05
3.92956e-06
-4.66873e-05
4.59121e-06
-5.17526e-05
1.36625e-06
-5.65719e-05
-2.74328e-06
-4.66956e-06
-6.16537e-05
-1.03354e-05
2.98781e-05
-1.29321e-05
2.93961e-05
-1.45861e-05
2.74623e-05
-1.52029e-05
2.27514e-05
-1.5335e-05
1.64776e-05
-1.56978e-05
1.00686e-05
-1.65859e-05
4.86768e-06
-1.80815e-05
1.30579e-06
-2.00729e-05
-7.57684e-07
-2.24416e-05
-1.67066e-06
-2.51795e-05
-1.6844e-06
-2.81981e-05
-1.17786e-06
-3.13974e-05
-2.87093e-07
-3.54687e-05
1.60023e-06
-4.00289e-05
2.92044e-06
-4.51518e-05
4.61903e-06
-5.08643e-05
6.81514e-06
-5.79008e-05
9.45122e-06
-6.33442e-05
9.373e-06
-6.64653e-05
7.71238e-06
-6.93083e-05
4.20924e-06
-7.2076e-05
2.44955e-08
-3.29874e-06
-7.34468e-05
-6.88282e-06
3.67609e-05
-1.0696e-05
3.32092e-05
-1.25826e-05
2.93489e-05
-1.38584e-05
2.40272e-05
-1.52335e-05
1.78526e-05
-1.71905e-05
1.20256e-05
-1.98029e-05
7.48009e-06
-2.28948e-05
4.39765e-06
-2.62929e-05
2.64039e-06
-2.98308e-05
1.86715e-06
-3.35604e-05
2.04522e-06
-3.79689e-05
3.2307e-06
-4.24681e-05
4.21212e-06
-4.83769e-05
7.50903e-06
-5.56551e-05
1.01987e-05
-6.38898e-05
1.28538e-05
-7.02768e-05
1.32022e-05
-7.45971e-05
1.37716e-05
-7.77465e-05
1.25224e-05
-7.98361e-05
9.802e-06
-8.15227e-05
5.89596e-06
-8.29227e-05
1.42439e-06
-2.79501e-06
-8.34263e-05
-4.10192e-06
4.08629e-05
-7.61345e-06
3.67208e-05
-1.05101e-05
3.22456e-05
-1.34027e-05
2.69199e-05
-1.67714e-05
2.12213e-05
-2.07514e-05
1.60056e-05
-2.51147e-05
1.18434e-05
-2.95592e-05
8.84213e-06
-3.39301e-05
7.01127e-06
-3.86794e-05
6.61639e-06
-4.35653e-05
6.93105e-06
-5.03686e-05
1.0034e-05
-5.83533e-05
1.21969e-05
-6.65303e-05
1.5686e-05
-7.31234e-05
1.67918e-05
-7.81042e-05
1.78347e-05
-8.23921e-05
1.74901e-05
-8.53312e-05
1.67107e-05
-8.74634e-05
1.46546e-05
-8.89576e-05
1.12963e-05
-9.01032e-05
7.04156e-06
-9.10365e-05
2.35774e-06
-2.42918e-06
-9.14024e-05
-2.8989e-06
4.37619e-05
-6.55803e-06
4.038e-05
-1.05731e-05
3.62607e-05
-1.53158e-05
3.16627e-05
-2.08336e-05
2.67392e-05
-2.67253e-05
2.18974e-05
-3.2544e-05
1.76621e-05
-3.80249e-05
1.4323e-05
-4.35157e-05
1.25021e-05
-5.03627e-05
1.34633e-05
-5.85217e-05
1.509e-05
-6.67787e-05
1.8291e-05
-7.39767e-05
1.93949e-05
-7.91036e-05
2.08129e-05
-8.35136e-05
2.12018e-05
-8.69318e-05
2.12529e-05
-8.98103e-05
2.03686e-05
-9.19082e-05
1.88085e-05
-9.34192e-05
1.61656e-05
-9.44922e-05
1.23693e-05
-9.53834e-05
7.93284e-06
-9.63099e-05
3.28419e-06
-1.84154e-06
-9.68975e-05
-3.35899e-06
4.71209e-05
-7.76207e-06
4.47832e-05
-1.30907e-05
4.15895e-05
-1.97803e-05
3.83525e-05
-2.7374e-05
3.4333e-05
-3.49991e-05
2.95226e-05
-4.20498e-05
2.47129e-05
-4.91972e-05
2.14704e-05
-5.72728e-05
2.05777e-05
-6.55591e-05
2.17497e-05
-7.33769e-05
2.29078e-05
-7.88044e-05
2.37185e-05
-8.34113e-05
2.40019e-05
-8.69219e-05
2.43234e-05
-8.9815e-05
2.40949e-05
-9.20138e-05
2.34518e-05
-9.37229e-05
2.20777e-05
-9.5022e-05
2.01076e-05
-9.60375e-05
1.71811e-05
-9.67016e-05
1.30334e-05
-9.71965e-05
8.42771e-06
-9.82276e-05
4.31539e-06
-4.84819e-07
-9.95843e-05
-5.42387e-06
5.25449e-05
-1.08171e-05
5.01764e-05
-1.74126e-05
4.8185e-05
-2.58338e-05
4.67738e-05
-3.52156e-05
4.37149e-05
-4.4908e-05
3.9215e-05
-5.41842e-05
3.39893e-05
-6.35317e-05
3.08179e-05
-7.22914e-05
2.93376e-05
-7.85083e-05
2.79666e-05
-8.29387e-05
2.73382e-05
-8.63524e-05
2.71322e-05
-8.92558e-05
2.69053e-05
-9.14298e-05
2.64975e-05
-9.30192e-05
2.56844e-05
-9.41589e-05
2.45915e-05
-9.47663e-05
2.26851e-05
-9.5188e-05
2.05294e-05
-9.58125e-05
1.78056e-05
-9.60653e-05
1.32862e-05
-9.59776e-05
8.34013e-06
-9.68236e-05
5.1615e-06
2.22775e-06
-9.95363e-05
-9.49665e-06
6.20417e-05
-1.52318e-05
5.59113e-05
-2.2446e-05
5.53988e-05
-3.18224e-05
5.61497e-05
-4.28512e-05
5.47434e-05
-5.71874e-05
5.35511e-05
-7.1275e-05
4.80768e-05
-7.97255e-05
3.92685e-05
-8.42776e-05
3.38898e-05
-8.70709e-05
3.07599e-05
-8.89427e-05
2.921e-05
-9.05459e-05
2.87354e-05
-9.20931e-05
2.84525e-05
-9.32785e-05
2.76829e-05
-9.40184e-05
2.64243e-05
-9.44239e-05
2.49969e-05
-9.40502e-05
2.23114e-05
-9.31975e-05
1.96766e-05
-9.30401e-05
1.76482e-05
-9.26223e-05
1.28684e-05
-9.14793e-05
7.19719e-06
-9.16186e-05
5.30102e-06
3.6271e-06
-9.30179e-05
-1.73003e-05
7.93452e-05
-2.06861e-05
5.92973e-05
-2.79348e-05
6.26468e-05
-3.65239e-05
6.4738e-05
-4.84191e-05
6.66382e-05
-7.62319e-05
8.13633e-05
-9.04769e-05
6.23211e-05
-9.16657e-05
4.04568e-05
-9.14175e-05
3.36414e-05
-9.16745e-05
3.10167e-05
-9.17692e-05
2.93048e-05
-9.19582e-05
2.89245e-05
-9.22913e-05
2.87855e-05
-9.23881e-05
2.77797e-05
-9.24163e-05
2.64524e-05
-9.22688e-05
2.48492e-05
-9.15582e-05
2.16008e-05
-9.04713e-05
1.85898e-05
-8.90095e-05
1.61864e-05
-8.81416e-05
1.20003e-05
-8.94675e-05
8.52286e-06
-8.92321e-05
5.06574e-06
1.79363e-06
-8.73993e-05
-5.23813e-06
8.45898e-05
-1.86682e-05
7.27299e-05
-2.95338e-05
7.35123e-05
-4.24131e-05
7.76168e-05
-6.41058e-05
8.83319e-05
-8.53679e-05
0.000102625
-9.26679e-05
6.96193e-05
-9.07336e-05
3.85219e-05
-9.10001e-05
3.39077e-05
-9.15816e-05
3.15982e-05
-9.11365e-05
2.88597e-05
-9.06421e-05
2.84302e-05
-9.08069e-05
2.89504e-05
-9.13198e-05
2.82926e-05
-9.12845e-05
2.64171e-05
-9.10298e-05
2.45943e-05
-9.18016e-05
2.23724e-05
-9.30117e-05
1.97998e-05
-9.30246e-05
1.61991e-05
-9.30289e-05
1.20042e-05
-9.31452e-05
8.63898e-06
-9.28194e-05
4.7394e-06
1.52253e-06
-9.25487e-05
4.34658e-06
8.02451e-05
-4.12898e-06
8.12076e-05
-1.47535e-05
8.41391e-05
-2.75336e-05
9.03999e-05
-4.0967e-05
0.000101769
-4.77948e-05
0.000109457
-5.65384e-05
7.83624e-05
-7.27206e-05
5.47028e-05
-8.84464e-05
4.96332e-05
-9.16043e-05
3.47561e-05
-9.24717e-05
2.97272e-05
-9.34832e-05
2.94421e-05
-9.42582e-05
2.97254e-05
-9.47862e-05
2.88205e-05
-9.50104e-05
2.66412e-05
-9.46029e-05
2.41867e-05
-9.39437e-05
2.17132e-05
-9.29081e-05
1.8764e-05
-9.19043e-05
1.51952e-05
-9.11187e-05
1.12186e-05
-9.02625e-05
7.78266e-06
-8.99058e-05
4.38236e-06
2.9211e-07
-8.86751e-05
-2.0259e-06
8.22692e-05
-5.21348e-06
8.43946e-05
-1.00304e-05
8.89565e-05
-1.67647e-05
9.71352e-05
-2.21639e-05
0.00010717
-2.22718e-05
0.000109567
-3.34298e-05
8.95219e-05
-5.02296e-05
7.15029e-05
-6.24952e-05
6.18991e-05
-7.46068e-05
4.68678e-05
-8.1672e-05
3.67926e-05
-8.51129e-05
3.2883e-05
-8.66135e-05
3.12259e-05
-8.71337e-05
2.93407e-05
-8.72517e-05
2.67591e-05
-8.70096e-05
2.39446e-05
-8.61891e-05
2.08927e-05
-8.49904e-05
1.75652e-05
-8.36551e-05
1.38599e-05
-8.25225e-05
1.0086e-05
-8.13274e-05
6.58752e-06
-7.9992e-05
3.0472e-06
-1.05126e-06
-7.86486e-05
-2.18316e-06
8.44469e-05
-3.72628e-06
8.59338e-05
-5.72473e-06
9.09521e-05
-7.83192e-06
9.92401e-05
-8.90543e-06
0.000108241
-9.98408e-06
0.000110644
-1.73451e-05
9.68832e-05
-2.86977e-05
8.28556e-05
-3.9022e-05
7.22233e-05
-4.93687e-05
5.72144e-05
-5.84882e-05
4.5912e-05
-6.47415e-05
3.91361e-05
-6.83033e-05
3.47876e-05
-7.01893e-05
3.12265e-05
-7.11782e-05
2.77479e-05
-7.15533e-05
2.43195e-05
-7.1401e-05
2.07403e-05
-7.06452e-05
1.68093e-05
-6.96766e-05
1.28913e-05
-6.85716e-05
8.98089e-06
-6.74279e-05
5.44382e-06
-6.62092e-05
1.8284e-06
-2.30438e-06
-6.4956e-05
-1.69021e-06
8.61335e-05
-2.27358e-06
8.65142e-05
-2.03807e-06
9.0714e-05
-9.32855e-07
9.81324e-05
1.1883e-06
0.000106118
2.77511e-06
0.000109056
-1.75285e-06
0.00010141
-9.08814e-06
9.01899e-05
-1.63288e-05
7.94633e-05
-2.51419e-05
6.60269e-05
-3.36337e-05
5.44035e-05
-4.03045e-05
4.58066e-05
-4.4983e-05
3.94659e-05
-4.81025e-05
3.43459e-05
-5.01757e-05
2.98209e-05
-5.14544e-05
2.5598e-05
-5.21269e-05
2.14126e-05
-5.23016e-05
1.69838e-05
-5.20323e-05
1.26219e-05
-5.14451e-05
8.3935e-06
-5.06374e-05
4.63594e-06
-4.98097e-05
1.00069e-06
-3.12566e-06
-4.89885e-05
-6.09493e-07
8.67406e-05
-3.29683e-07
8.62325e-05
1.1624e-06
8.92204e-05
4.07205e-06
9.52212e-05
8.12819e-06
0.00010206
1.16969e-05
0.000105485
1.14686e-05
0.000101637
8.24704e-06
9.34104e-05
3.90222e-06
8.38073e-05
-2.3605e-06
7.22891e-05
-9.22022e-06
6.12628e-05
-1.53935e-05
5.19796e-05
-2.0353e-05
4.44251e-05
-2.41363e-05
3.8129e-05
-2.69684e-05
3.26529e-05
-2.90475e-05
2.76769e-05
-3.0542e-05
2.29069e-05
-3.16762e-05
1.81179e-05
-3.23627e-05
1.33083e-05
-3.26639e-05
8.69453e-06
-3.25117e-05
4.48352e-06
-3.21941e-05
6.82882e-07
-3.45886e-06
-3.1861e-05
6.36831e-07
8.6103e-05
1.75473e-06
8.5114e-05
4.02672e-06
8.69477e-05
7.90432e-06
9.13429e-05
1.31826e-05
9.67811e-05
1.84714e-05
0.000100196
2.13832e-05
9.87243e-05
2.16666e-05
9.31262e-05
2.01633e-05
8.531e-05
1.67336e-05
7.57183e-05
1.21431e-05
6.58529e-05
7.34175e-06
5.67807e-05
2.93959e-06
4.88271e-05
-8.30041e-07
4.18984e-05
-3.94667e-06
3.57694e-05
-6.47023e-06
3.02003e-05
-8.52325e-06
2.49598e-05
-1.02555e-05
1.985e-05
-1.17596e-05
1.48122e-05
-1.29787e-05
9.91341e-06
-1.3777e-05
5.28157e-06
-1.41381e-05
1.04376e-06
-3.25365e-06
-1.43434e-05
1.95519e-06
8.41479e-05
3.8041e-06
8.32651e-05
6.62411e-06
8.41277e-05
1.09605e-05
8.70064e-05
1.6789e-05
9.09524e-05
2.30906e-05
9.38937e-05
2.81118e-05
9.37027e-05
3.10875e-05
9.01502e-05
3.21849e-05
8.42123e-05
3.13995e-05
7.65033e-05
2.91811e-05
6.80711e-05
2.61823e-05
5.97793e-05
2.29457e-05
5.20636e-05
1.98067e-05
4.50372e-05
1.69299e-05
3.8646e-05
1.43691e-05
3.2761e-05
1.21053e-05
2.72235e-05
1.00655e-05
2.18896e-05
8.1825e-06
1.6695e-05
6.46131e-06
1.16344e-05
4.9562e-06
6.78642e-06
3.82052e-06
2.17926e-06
-2.40451e-06
2.97122e-06
3.02313e-06
8.11252e-05
5.65532e-06
8.06333e-05
8.92669e-06
8.08566e-05
1.34408e-05
8.24924e-05
1.93405e-05
8.50527e-05
2.59954e-05
8.72388e-05
3.21591e-05
8.7539e-05
3.69455e-05
8.53636e-05
4.01108e-05
8.10469e-05
4.15575e-05
7.50564e-05
4.1509e-05
6.81194e-05
4.0382e-05
6.09062e-05
3.85976e-05
5.38477e-05
3.64853e-05
4.71495e-05
3.42662e-05
4.0865e-05
3.20693e-05
3.49577e-05
2.9948e-05
2.93446e-05
2.79022e-05
2.39352e-05
2.59247e-05
1.86724e-05
2.40134e-05
1.35455e-05
2.22245e-05
8.57504e-06
2.06394e-05
3.76412e-06
-1.02406e-06
1.92589e-05
3.8776e-06
7.72482e-05
7.1909e-06
7.73204e-05
1.08465e-05
7.72012e-05
1.54063e-05
7.79328e-05
2.11099e-05
7.93493e-05
2.76459e-05
8.07029e-05
3.41931e-05
8.09917e-05
3.99576e-05
7.9599e-05
4.45047e-05
7.64997e-05
4.7618e-05
7.19431e-05
4.93416e-05
6.63957e-05
4.9903e-05
6.03447e-05
4.95911e-05
5.41595e-05
4.86759e-05
4.80646e-05
4.7374e-05
4.21668e-05
4.58409e-05
3.64907e-05
4.41744e-05
3.1011e-05
4.24255e-05
2.56839e-05
4.06231e-05
2.04747e-05
3.87986e-05
1.53697e-05
3.69992e-05
1.03743e-05
3.52851e-05
5.47807e-06
6.02644e-07
3.36583e-05
4.45412e-06
7.27944e-05
8.31743e-06
7.34574e-05
1.2289e-05
7.32298e-05
1.68415e-05
7.33805e-05
2.22415e-05
7.39494e-05
2.83925e-05
7.45518e-05
3.48076e-05
7.45767e-05
4.08786e-05
7.3528e-05
4.61447e-05
7.12336e-05
5.03196e-05
6.7768e-05
5.3322e-05
6.33932e-05
5.52334e-05
5.84332e-05
5.62216e-05
5.31711e-05
5.64778e-05
4.78082e-05
5.61797e-05
4.24647e-05
5.54741e-05
3.71961e-05
5.44711e-05
3.20139e-05
5.32474e-05
2.69075e-05
5.18581e-05
2.18638e-05
5.03505e-05
1.68772e-05
4.8775e-05
1.19496e-05
4.71778e-05
7.07502e-06
2.21984e-06
4.55606e-05
4.75013e-06
6.80445e-05
8.99475e-06
6.92129e-05
1.31974e-05
6.90273e-05
1.77165e-05
6.88615e-05
2.27967e-05
6.88692e-05
2.84602e-05
6.88883e-05
3.44562e-05
6.85806e-05
4.03763e-05
6.76077e-05
4.58301e-05
6.57797e-05
5.05254e-05
6.30726e-05
5.43125e-05
5.96059e-05
5.71734e-05
5.55722e-05
5.9178e-05
5.11663e-05
6.04403e-05
4.65458e-05
6.10858e-05
4.18191e-05
6.1232e-05
3.70497e-05
6.09787e-05
3.22671e-05
6.04052e-05
2.74809e-05
5.9575e-05
2.26938e-05
5.85421e-05
1.79099e-05
5.73553e-05
1.31362e-05
5.60536e-05
8.37675e-06
3.6263e-06
5.4647e-05
4.80438e-06
6.32401e-05
9.24506e-06
6.47722e-05
1.35732e-05
6.46991e-05
1.80307e-05
6.4404e-05
2.28127e-05
6.40872e-05
2.79895e-05
6.37114e-05
3.34571e-05
6.31129e-05
3.89739e-05
6.20909e-05
4.42565e-05
6.0497e-05
4.90552e-05
5.82738e-05
5.32032e-05
5.54578e-05
5.66268e-05
5.21484e-05
5.93277e-05
4.84652e-05
6.13559e-05
4.45175e-05
6.27852e-05
4.03896e-05
6.36965e-05
3.61383e-05
6.41663e-05
3.17972e-05
6.4262e-05
2.73851e-05
6.40415e-05
2.29142e-05
6.35551e-05
1.83961e-05
6.28466e-05
1.38445e-05
6.19502e-05
9.27295e-06
4.69545e-06
6.0881e-05
4.67269e-06
5.85673e-05
9.1352e-06
6.03096e-05
1.34746e-05
6.03596e-05
1.78305e-05
6.00479e-05
2.23396e-05
5.95779e-05
2.70777e-05
5.89731e-05
3.20189e-05
5.81716e-05
3.70379e-05
5.70717e-05
4.19541e-05
5.55807e-05
4.65822e-05
5.36456e-05
5.07736e-05
5.12663e-05
5.44363e-05
4.84855e-05
5.7533e-05
4.53684e-05
6.00684e-05
4.1982e-05
6.2074e-05
3.83839e-05
6.3595e-05
3.46171e-05
6.4681e-05
3.0711e-05
6.53802e-05
2.66858e-05
6.57369e-05
2.25574e-05
6.5791e-05
1.83418e-05
6.55779e-05
1.40575e-05
6.51256e-05
9.72523e-06
5.36985e-06
6.44511e-05
4.41398e-06
5.4153e-05
8.75404e-06
5.59692e-05
1.2996e-05
5.61174e-05
1.72013e-05
5.58424e-05
2.14519e-05
5.53272e-05
2.58076e-05
5.46172e-05
3.02754e-05
5.37036e-05
3.47998e-05
5.25472e-05
3.92784e-05
5.11019e-05
4.35894e-05
4.93345e-05
4.76196e-05
4.72359e-05
5.12835e-05
4.48215e-05
5.45294e-05
4.21223e-05
5.73361e-05
3.91751e-05
5.97055e-05
3.60144e-05
6.16543e-05
3.26682e-05
6.32071e-05
2.9158e-05
6.43918e-05
2.5501e-05
6.52361e-05
2.17129e-05
6.5767e-05
1.78108e-05
6.60088e-05
1.38155e-05
6.59827e-05
9.75115e-06
5.64811e-06
6.57044e-05
4.07801e-06
5.00746e-05
8.19006e-06
5.18568e-05
1.22445e-05
5.20627e-05
1.62495e-05
5.18371e-05
2.02426e-05
5.13339e-05
2.4261e-05
5.05987e-05
2.83188e-05
4.96455e-05
3.23963e-05
4.84695e-05
3.64414e-05
4.70566e-05
4.03821e-05
4.53936e-05
4.41423e-05
4.34756e-05
4.76553e-05
4.13082e-05
5.08716e-05
3.89059e-05
5.376e-05
3.62865e-05
5.63058e-05
3.34685e-05
5.85063e-05
3.04676e-05
6.03669e-05
2.72973e-05
6.18977e-05
2.39701e-05
6.31112e-05
2.04992e-05
6.4021e-05
1.69009e-05
6.46407e-05
1.31956e-05
6.49836e-05
9.40821e-06
5.56958e-06
6.50621e-05
3.70333e-06
4.63707e-05
7.51893e-06
4.80408e-05
1.13197e-05
4.82616e-05
1.50813e-05
4.80752e-05
1.88095e-05
4.76054e-05
2.25196e-05
4.68883e-05
2.62213e-05
4.59437e-05
2.99088e-05
4.47818e-05
3.35582e-05
4.34071e-05
3.71307e-05
4.18209e-05
4.05802e-05
4.00259e-05
4.3861e-05
3.80273e-05
4.69338e-05
3.58329e-05
4.97682e-05
3.3452e-05
5.23431e-05
3.08933e-05
5.46456e-05
2.8165e-05
5.66685e-05
2.52743e-05
5.84091e-05
2.22294e-05
5.98675e-05
1.90406e-05
6.10463e-05
1.5722e-05
6.19495e-05
1.22923e-05
6.25827e-05
8.77481e-06
5.19867e-06
6.29536e-05
3.317e-06
4.30531e-05
6.79853e-06
4.45587e-05
1.03033e-05
4.47564e-05
1.37895e-05
4.45887e-05
1.72425e-05
4.41521e-05
2.06603e-05
4.34702e-05
2.40441e-05
4.25597e-05
2.73909e-05
4.14349e-05
3.06896e-05
4.01082e-05
3.39207e-05
3.85897e-05
3.70584e-05
3.6888e-05
4.00747e-05
3.50108e-05
4.29421e-05
3.29654e-05
4.56361e-05
3.07578e-05
4.81364e-05
2.8393e-05
5.04261e-05
2.58751e-05
5.2492e-05
2.32082e-05
5.43237e-05
2.03976e-05
5.59132e-05
1.7451e-05
5.72547e-05
1.43804e-05
5.83449e-05
1.1202e-05
5.91829e-05
7.93681e-06
4.6104e-06
5.97711e-05
2.93747e-06
4.01151e-05
6.07012e-06
4.14256e-05
9.25636e-06
4.15698e-05
1.24469e-05
4.13978e-05
1.56158e-05
4.09829e-05
1.87491e-05
4.03367e-05
2.18395e-05
3.9469e-05
2.48818e-05
3.83924e-05
2.7869e-05
3.71208e-05
3.0791e-05
3.56676e-05
3.3634e-05
3.40448e-05
3.63819e-05
3.22628e-05
3.90175e-05
3.03297e-05
4.15234e-05
2.82517e-05
4.38828e-05
2.60334e-05
4.60799e-05
2.3678e-05
4.80997e-05
2.11883e-05
4.99286e-05
1.85686e-05
5.15541e-05
1.58254e-05
5.29656e-05
1.29688e-05
5.41546e-05
1.0013e-05
5.51153e-05
6.97602e-06
3.88045e-06
5.58452e-05
2.57628e-06
3.75382e-05
5.36132e-06
3.86401e-05
8.2215e-06
3.87092e-05
1.11067e-05
3.85122e-05
1.3986e-05
3.81033e-05
1.68385e-05
3.7484e-05
1.96503e-05
3.66569e-05
2.24124e-05
3.56301e-05
2.51175e-05
3.44154e-05
2.77588e-05
3.30261e-05
3.03285e-05
3.1475e-05
3.28175e-05
2.97736e-05
3.52156e-05
2.79314e-05
3.75116e-05
2.59557e-05
3.9693e-05
2.38519e-05
4.17468e-05
2.16241e-05
4.36593e-05
1.92757e-05
4.54166e-05
1.68112e-05
4.7005e-05
1.42369e-05
4.84117e-05
1.15621e-05
4.96253e-05
8.7993e-06
5.06365e-05
5.96479e-06
3.07793e-06
5.14389e-05
2.24034e-06
3.52974e-05
4.68957e-06
3.61904e-05
7.22702e-06
3.61714e-05
9.80584e-06
3.59331e-05
1.23944e-05
3.55146e-05
1.49685e-05
3.49096e-05
1.75105e-05
3.41147e-05
2.00076e-05
3.31329e-05
2.24507e-05
3.19722e-05
2.48329e-05
3.06437e-05
2.71486e-05
2.91592e-05
2.9392e-05
2.753e-05
3.15571e-05
2.57662e-05
3.36366e-05
2.38761e-05
3.56222e-05
2.18663e-05
3.75039e-05
1.97422e-05
3.92706e-05
1.75089e-05
4.091e-05
1.51717e-05
4.2409e-05
1.27378e-05
4.37547e-05
1.02163e-05
4.49346e-05
7.61934e-06
4.59376e-05
4.96163e-06
2.26098e-06
4.67545e-05
1.93313e-06
3.33637e-05
4.06515e-06
3.4058e-05
6.2907e-06
3.39455e-05
8.56864e-06
3.36549e-05
1.08695e-05
3.32135e-05
1.31688e-05
3.26102e-05
1.54468e-05
3.18365e-05
1.76884e-05
3.08911e-05
1.98824e-05
2.97781e-05
2.20206e-05
2.85053e-05
2.40974e-05
2.70824e-05
2.61078e-05
2.55194e-05
2.80478e-05
2.38262e-05
2.99124e-05
2.20114e-05
3.16961e-05
2.00825e-05
3.33918e-05
1.80464e-05
3.4991e-05
1.59096e-05
3.64837e-05
1.3679e-05
3.78587e-05
1.13627e-05
3.91042e-05
8.97081e-06
4.0208e-05
6.51545e-06
4.11583e-05
4.01136e-06
1.4753e-06
4.19439e-05
1.6559e-06
3.17076e-05
3.49313e-06
3.22205e-05
5.42284e-06
3.20156e-05
7.41071e-06
3.16669e-05
9.43095e-06
3.11931e-05
1.14608e-05
3.05802e-05
1.34803e-05
2.98168e-05
1.54733e-05
2.88981e-05
1.74268e-05
2.78245e-05
1.93314e-05
2.66006e-05
2.11802e-05
2.52335e-05
2.29682e-05
2.37314e-05
2.46915e-05
2.21028e-05
2.63463e-05
2.03564e-05
2.79288e-05
1.85e-05
2.94338e-05
1.65414e-05
3.08552e-05
1.44881e-05
3.21856e-05
1.23486e-05
3.3416e-05
1.01323e-05
3.45365e-05
7.85025e-06
3.55361e-05
5.51589e-06
3.64027e-05
3.14462e-06
7.53958e-07
3.71241e-05
1.40827e-06
3.02989e-05
2.97517e-06
3.06533e-05
4.62855e-06
3.0362e-05
6.34131e-06
2.9954e-05
8.09208e-06
2.94422e-05
9.86074e-06
2.88114e-05
1.16286e-05
2.80489e-05
1.33794e-05
2.71473e-05
1.50994e-05
2.61044e-05
1.67781e-05
2.49218e-05
1.84076e-05
2.3604e-05
1.99818e-05
2.2157e-05
2.14966e-05
2.05881e-05
2.29483e-05
1.89047e-05
2.43336e-05
1.71147e-05
2.56489e-05
1.5226e-05
2.689e-05
1.3247e-05
2.80516e-05
1.1187e-05
2.91273e-05
9.05648e-06
3.01095e-05
6.8681e-06
3.09885e-05
4.63678e-06
3.17531e-05
2.38013e-06
1.17445e-07
3.23896e-05
1.18872e-06
2.91102e-05
2.51034e-06
2.93316e-05
3.90937e-06
2.89629e-05
5.36548e-06
2.84978e-05
6.86175e-06
2.79459e-05
8.38112e-06
2.7292e-05
9.90691e-06
2.6523e-05
1.14237e-05
2.56305e-05
1.29179e-05
2.46101e-05
1.43785e-05
2.34612e-05
1.57965e-05
2.21859e-05
1.71653e-05
2.07882e-05
1.84797e-05
1.92737e-05
1.97357e-05
1.76486e-05
2.09303e-05
1.59201e-05
2.20605e-05
1.40958e-05
2.31234e-05
1.21841e-05
2.41159e-05
1.01945e-05
2.50341e-05
8.13831e-06
2.58727e-05
6.02945e-06
2.66243e-05
3.88522e-06
2.72777e-05
1.72666e-06
-4.23231e-07
2.78184e-05
9.95128e-07
2.81148e-05
2.09654e-06
2.82301e-05
3.26485e-06
2.77945e-05
4.48581e-06
2.72768e-05
5.74633e-06
2.66853e-05
7.03238e-06
2.60059e-05
8.32952e-06
2.52259e-05
9.62383e-06
2.43361e-05
1.09026e-05
2.33314e-05
1.21546e-05
2.22092e-05
1.33708e-05
2.09698e-05
1.45435e-05
1.96155e-05
1.56669e-05
1.81503e-05
1.67364e-05
1.65791e-05
1.77485e-05
1.4908e-05
1.87005e-05
1.31438e-05
1.95906e-05
1.1294e-05
2.04173e-05
9.36782e-06
2.11793e-05
7.37632e-06
2.18745e-05
5.3342e-06
2.24983e-05
3.26141e-06
2.30402e-05
1.18496e-06
-8.64936e-07
2.34819e-05
8.25048e-07
2.72898e-05
1.73119e-06
2.73239e-05
2.69415e-06
2.68315e-05
3.70435e-06
2.62666e-05
4.75167e-06
2.5638e-05
5.82468e-06
2.49329e-05
6.91121e-06
2.41393e-05
7.99912e-06
2.32482e-05
9.07686e-06
2.22536e-05
1.01339e-05
2.11521e-05
1.11609e-05
1.99428e-05
1.21499e-05
1.86265e-05
1.30943e-05
1.72059e-05
1.39887e-05
1.56848e-05
1.48289e-05
1.40678e-05
1.5612e-05
1.23607e-05
1.63363e-05
1.05697e-05
1.7002e-05
8.7022e-06
1.76104e-05
6.76797e-06
1.81636e-05
4.78098e-06
1.86617e-05
2.76336e-06
1.90956e-05
7.50984e-07
-1.20882e-06
1.94396e-05
6.76517e-07
2.66132e-05
1.41321e-06
2.65872e-05
2.19825e-06
2.60465e-05
3.02502e-06
2.54398e-05
3.88539e-06
2.47776e-05
4.77004e-06
2.40483e-05
5.66891e-06
2.32405e-05
6.57167e-06
2.23455e-05
7.46817e-06
2.13572e-05
8.34865e-06
2.02717e-05
9.20406e-06
1.90874e-05
1.00262e-05
1.78044e-05
1.08076e-05
1.64245e-05
1.1542e-05
1.49504e-05
1.22239e-05
1.33859e-05
1.28495e-05
1.17351e-05
1.34166e-05