/*--------------------------------*- C++ -*----------------------------------*\
  =========                 |
  \\      /  F ield         | OpenFOAM: The Open Source CFD Toolbox
   \\    /   O peration     | Website:  https://openfoam.org
    \\  /    A nd           | Version:  13
     \\/     M anipulation  |
\*---------------------------------------------------------------------------*/
FoamFile
{
    format      ascii;
    class       volScalarField;
    location    "1";
    object      rho;
}
// * * * * * * * * * * * * * * * * * * * * * * * * * * * * * * * * * * * * * //

dimensions      [1 -3 0 0 0 0 0];

internalField   nonuniform List<scalar> 
2268
(
13529
13529
13529
13529
13529
13529
13529
13529
13529
13529
13529
13529
13529
13529
13529
13529
13529
13529
13529
13529
13527
13521.6
13521.6
13529
13529
13529
13529
13529
13529
13529
13529
13529
13529
13529
13529
13529
13529
13529
13529
13529
13529
13529
13529
13529
13527.1
13521.6
13529
13529
13529
13529
13529
13529
13529
13529
13529
13529
13529
13529
13529
13529
13529
13529
13529
13529
13529
13529
13529
13529
13528.5
13529
13529
13529
13529
13529
13529
13529
13529
13529
13529
13529
13529
13529
13529
13529
13529
13529
13529
13529
13529
13529
13529
13529
13529
13529
13529
13529
13529
13529
13529
13529
13529
13529
13529
13529
13529
13529
13529
13529
13526.8
13520.5
13514.2
13506.6
13485.1
13415
13356
13529
13529
13529
13529
13529
13529
13529
13453.6
12982.3
12267.4
11480.4
10731.3
10073.1
9509.16
8957.83
8438.48
8036.42
7755.82
7573.65
7396.41
7023.19
6471.7
6259.34
13529
13529
13529
13529
13529
12546.6
9714.31
6537.6
4318.82
2987.36
2159.86
1639.15
1308.09
1086.56
1000
999.999
999.997
999.995
999.984
999.806
997.425
958.78
966.693
13529
13529
13529
12292
7241.75
2837.34
1208.02
1000
1000
1000
1000
1000
1000
1000
1000
1000
999.999
999.995
999.995
1000.33
1093.38
1354.96
1247.01
971.354
956.157
947.134
1514.22
3017.68
3307.22
2784.09
1540.93
1540.98
2260.98
5938.03
5857.91
4257.03
4238.65
8938.25
9407.64
9478.87
9487.45
9501.5
967.835
1351.93
1961.18
2608.91
4138.76
5657.6
5604.68
5188.54
3349.93
6202.34
10796.4
10528
7592.98
5650.27
6588.14
9124.34
9381.07
9231.66
9476.15
955.03
2158.58
2368.39
1906.69
1330.6
1634.92
3367.62
5445.19
7128.9
8485.38
10942.2
11782
11718.8
9901.41
5242.74
5041.74
6014.9
8951.8
9353
957.916
1291.49
1145.35
1001.72
1002.28
1001.91
1009.07
1870.06
4009.41
4894.08
6551.29
11731
11803.5
11544.1
5126.3
2981.62
4107.26
9244.05
7493.75
1287.58
954.445
951.2
989.979
999.748
999.922
1000.71
1002.89
1003.29
1017.01
1466.66
7074.66
10368.7
9839.36
4716.41
2962.74
3590.84
9192.8
2725.77
615.256
566.232
638.63
817.686
942.56
995.602
999.788
1000.21
1002.28
1002.94
1002.96
1286.45
5602.53
9527.34
7646.23
3526.33
5054.7
7862.93
1026.65
297.721
320.006
372.691
484.075
610.592
850.429
996.498
999.806
999.932
1000.55
999.944
1128.46
6501.52
9250
9062.69
7530.05
7558.77
1008.59
790.576
359.741
482.155
500.009
496.632
486.188
521.494
834.519
999.084
999.854
999.867
999.809
1222.35
4907.36
5802.79
5512.76
5693.04
6225.15
929.063
598.733
13432.1
10372.6
5985.51
2274.81
1058.19
1000
1000
1000
1000
1000
1000
1000
1000
1000
1000
1000
1000
999.998
998.538
983.791
1257.43
1116.58
875.975
4726.7
1541.59
1000
1000
1000
1000
1000
1000
1000
1000
1000
1000
1000
1000
1000
999.971
997.978
932.152
635.3
375.475
377.079
499.998
500
1000
1000
1000
1000
1000
1000
1000
1000
1000
1000
1000
1000
1000
999.999
990.801
799.37
520.16
324.208
427.835
499.849
499.158
500
500
1000
1000
1000
1000
1000
1000
1000
1000
1000
1000
1000
1000
959.785
627.873
395.077
298.236
487.127
493.858
492.801
499.995
499.998
499.997
499.999
1000
1000
1000
1000
1000
1000
1000
1000
1000
1000
906.306
579.069
427.685
328.064
480.768
483.263
495.195
499.97
499.969
499.95
499.976
500
500
1000
1000
1000
1000
1000
1000
1000
1000
967.731
656.596
515.31
329.482
468.301
489.196
499.72
499.999
499.999
499.936
499.968
500
499.999
500
500
1000
1000
1000
1000
1000
1000
999.996
934.876
687.188
418.508
411.214
497.225
499.996
500
500
499.999
499.998
499.993
499.999
500
500
500
499.708
1000
1000
1000
1000
1000
999.985
972.121
663.535
413.842
489.274
499.097
500
500
500
500
500
500
500
500
479.044
458.338
368.317
269.073
613.356
676.364
759.412
828.7
852.254
754.355
542.789
482.158
499.023
500.066
499.988
500.007
500.002
500
495.627
430.013
376.26
270.056
147.026
107.717
81.4858
23.4954
5.09974
11.0439
23.286
51.1877
88.0086
104.934
69.6391
139.933
499.247
500.158
500.15
499.99
423.384
306.889
201.176
109.494
54.2749
27.6808
8.69801
1.00008
1.00026
1.0002
1
1.00057
1
1
1
1.00014
1.00003
1.03188
21.6845
163.406
240.027
231.283
146.398
55.0693
10.9686
1.00001
1.00019
1.00024
1.00043
1.00023
1.00011
1.00006
1.00004
1.00004
1.00005
1.00001
1.00001
1
1.00001
1.0001
1.00105
1.00033
1.00175
1.17728
1.10784
1.00263
1
1
1.00002
1.00006
1.0001
1.00057
1.00093
1.00062
1.00013
1.00005
1.00004
1
1.00002
1.00001
1.00002
1.00002
1.00007
1.00044
1.00008
1.00012
1.00002
1.00004
1.00005
1.00001
1.00006
1.00076
1.00084
1.00055
1.0004
1.00099
1.00191
1.00277
1.0007
1.00001
1.00003
1.00001
1.00001
1.00001
1.00001
1.00003
1.0002
1.00018
1.00001
1.00002
1.00001
1.00002
1.00002
1.00006
1.00022
1.00027
1.00051
1.04831
1.08406
1.03586
1.00293
1.00329
1.00432
1.00242
1.00001
1.00001
1.00001
1.00001
1.00001
1.00007
1.00019
1.00003
1.00003
1.00001
1.00001
1.00002
1.00004
1.00008
1.00012
1.00022
1.0122
1.09721
1.10521
1.09755
1.01058
1.00449
1.00504
1.00001
1
1
1
1.00001
1.00002
1.00008
1.00002
1.00003
1.00001
1.00001
1.00001
1.00002
1.00005
1.0001
1.00023
1.00021
1.00549
1.0589
1.10835
1.10729
1.01523
1.00347
1.00001
1
1
1
1
1
1.00002
1.00001
1.00002
1.00001
1.00001
1.00001
1.00001
1.00002
1.00005
1.00013
1.00009
1.00012
1.00017
1.01424
1.04588
1.0295
1.00184
1
1
1
1
1
1
1
1.00001
1.00001
1.00001
1.00001
1.00001
1.00001
1.00001
1.00002
1.00004
1.00003
1.00001
1.00001
1.00016
1.00017
1.00009
1.00008
1
1
1
1
1
1
1
1
1
1
1
1
1.00001
1.00001
1.00001
1.00002
1.00001
1
1
1.00001
1.00001
1.00001
1.00001
1
1
1
1
1
1
1
1
1
1
1
1
1
1
1.00001
1.00001
1
1
1
1
1
1.00001
1.00001
1
1
1
1
1
1
1
1
1
1
1
1
1
1
1
1
1
1
1
1
1
1
1.00001
1
1
1
1
1
1
1
1
1
1
1
1
1
1
1
1
1
1
1
1
1
1
1
1
1
1
1
1
1
1
1
1
1
1
1
1
1
1
1
1
1
1
1
1
1
1
1
1
1
1
1
1
1
1
1
1
1
1
1
1
1
1
1
1
1
1
1
1
1
1
1
1
1
1
1
1
1
1
1
1
1
1
1
1
1
1
1
1
1
1
1
1
1
1
1
1
1
1
1
1
1
1
1
1
1
1
1
1
1
1
1
1
1
1
1
1
1
1
1
1
1
1
1
1
1
1
1
1
1
1
1
1
1
1
1
1
1
1
1
1
1
1
1
1
1
1
1
1
1
1
1
1
1
1
1
1
1
1
1
1
1
1
1
1
1
1
1
1
1
1
1
1
1
1
1
1
1
1
1
1
1
1
1
1
1
1
1
1
1
1
1
1
1
1
1
1
1
1
1
1
1
1
1
1
1
1
1
1
1
1
1
1
1
1
1
1
1
1
1
1
1
1
1
1
1
1
1
1
1
1
1
1
1
1
1
1
1
1
1
1
1
1
1
1
1
1
1
1
1
1
1
1
1
1
1
1
1
1
1
1
1
1
1
1
1
1
1
1
1
1
1
1
1
1
1
1
1
1
1
1
1
1
1
1
1
1
1
1
1
1
1
1
1
1
1
1
1
1
1
1
1
1
1
1
1
1
1
1
1
1
1
1
1
1
1
1
1
1
1
1
1
1
1
1
1
1
1
1
1
1
1
1
1
1
1
1
1
1
1
1
1
1
1
1
1
1
1
1
1
1
1
1
1
1
1
1
1
1
1
1
1
1
1
1
1
1
1
1
1
1
1
1
1
1
1
1
1
1
1
1
1
1
1
1
1
1
1
1
1
1
1
1
1
1
1
1
1
1
1
1
1
1
1
1
1
1
1
1
1
1
1
1
1
1
1
1
1
1
1
1
1
1
1
1
1
1
1
1
1
1
1
1
1
1
1
1
1
1
1
1
1
1
1
1
1
1
1
1
1
1
1
1
1
1
1
1
1
1
1
1
1
1
1
1
1
1
1
1
1
1
1
1
1
1
1
1
1
1
1
1
1
1
1
460.829
423.335
442.704
507.162
500
500
500
500
500
500
500
500
500
500
500
500
500
500
500
500
500
500
500
500
499.766
500
500
500
363.75
411.801
362.549
325.527
15.2167
13.0818
6.4564
4.2373
1.00004
1.00004
1.00005
1.00007
1.00014
1.00022
1.00035
1.00047
1.00003
1.00004
1.00061
1.00099
1.00001
1.00002
1.00003
1.00018
1.00059
1.00025
1.0003
1.0001
1.00501
1.00497
1.00468
1.00228
1.0041
1.00506
1.005
1.00492
1.00018
1.00094
1.00226
1.0027
1.00018
1.00016
1.00007
1.00002
1.00001
1.00001
1.00001
1.00001
1.00001
1.00001
1.00001
1.00001
1.00001
1.00001
1.00001
1.00001
1
1
1.00001
1.00001
1
1
1
1
1
1
1
1
1
1
1
1
1
1
1
1
1
1
1
1
1
1
1
1
1
1
1
1
1
1
1
1
1
1
1
1
1
1
1
1
1
1
1
1
1
1
1
1
1
1
1
1
1
1
1
1
1
1
1
1
1
1
1
1
1
1
1
1
1
1
1
1
1
1
1
1
1
1
1
1
505.554
500.001
500.002
500.002
499.8
497.55
509.939
778.093
999.544
999.867
999.878
1466.69
2330.32
2285.67
2727.6
3311.4
2679.81
947.674
482.57
500
500
500
500.001
500.007
500.008
499.95
502.711
756.755
1000.82
1003.89
1042.49
1261.58
2231.74
3192.79
3131.85
1361.48
765.637
435.997
500
500
500
500
500
500.003
500.006
500.004
502.762
713.015
976.011
1018.61
1089.82
1243.14
1337.64
932.414
773.231
549.766
380.775
500
500
500
500
500
500
500.001
500.002
500.001
500.422
578.34
723.704
784.567
727.932
637.969
555.298
492.939
516.009
435.425
500
500
500
500
500
500
500
500
500
500.002
499.967
499.382
498.717
496.881
494.249
491.553
490.063
492.787
397.202
500
500
500
500
500
500
500
500
500
500
500
500.046
500.029
497.898
497.72
495.288
484.424
438.832
303.829
500
500
500
500
500
500
500
500
500.001
500
500.005
500.111
499.659
482.757
419.305
307.752
196.986
145.827
155.409
322.483
335.244
354.508
377.924
402.062
422.785
436.633
442.573
443.025
436.348
409.553
355.379
254.074
138.332
47.8284
1.24771
1.00315
47.7925
110.114
3.19432
3.87226
9.71586
19.5384
33.2907
48.4383
59.7842
63.8845
63.2175
52.584
25.8994
1.00012
1.00052
1.00159
1.0022
1.00738
1.06034
25.1849
51.2757
1.0001
1.00013
1.00014
1.00011
1.00008
1.00006
1.00006
1.00006
1.00008
1.00012
1.00016
1.00022
1.13257
1.35765
1.16081
1.04233
1.08846
1.00035
1.00037
1.00055
1.00058
1.00052
1.00038
1.00023
1.00015
1.00014
1.00027
1.00045
1.00042
1.00098
1.18902
1.88694
1.85519
1.63739
1.00023
1.00008
1.00096
1.00259
1.00099
1.00099
1.00098
1.00083
1.0005
1.00034
1.00027
1.00054
1.00138
1.00138
1.00076
1.20707
1.68663
1.62877
1.05199
1.0001
1.00036
1.00363
1.00415
1.00045
1.00085
1.00092
1.00092
1.00089
1.00055
1.00018
1.00029
1.00333
1.00378
1.00295
1
1
1
1
1.00038
1.00089
1.00053
1.00201
1.00001
1.00001
1.0001
1.00033
1.00038
1.00028
1.00009
1.00014
1.00049
1.00112
1
1
1
1
1.00011
1.00085
1.00091
1.00013
1.00033
1.00034
1.00001
1.00001
1.00001
1.00001
1
1.00003
1.00004
1
1
1
1
1
1.00001
1.00004
1.00011
1.0003
1.00011
1.00046
1.00428
1.00023
1.00001
1.00003
1.00001
1.00001
1.00001
1.00002
1
1
1
1.00001
1.00001
1.00001
1
1
1
1.00001
1.00087
1.00146
1.00084
1.00005
1.00005
1.00002
1.00001
1.00001
1
1
1
1
1
1
1
1
1
1
1.00001
1.00088
1.00001
1.00001
1.00013
1.00007
1.00002
1.00001
1.00001
1
1
1
1
1
1
1
1
1
1
1.00001
1.00084
1.00001
1.00001
1.00003
1.00002
1.00002
1.00001
1.00001
1
1
1
1
1
1
1
1
1
1
1.00004
1.00054
1.00001
1.00001
1.00001
1.00001
1.00001
1.00001
1.00001
1
1
1
1
1
1
1
1
1
1
1.0001
1.00074
1.00001
1.00001
1.00001
1.00001
1.00001
1
1
1
1
1
1
1
1
1
1
1
1
1.00025
1.00078
1
1
1
1
1
1
1
1
1
1
1
1
1
1
1
1
1
1.00025
1.00078
1
1
1
1
1
1
1
1
1
1
1
1
1
1
1
1
1
1.00012
1.00043
1
1
1
1
1
1
1
1
1
1
1
1
1
1
1
1
1
1
1.00005
1
1
1
1
1
1
1
1
1
1
1
1
1
1
1
1
1
1.00001
1
1
1
1
1
1
1
1
1
1
1
1
1
1
1
1
1
1.00001
1.00001
1
1
1
1
1
1
1
1
1
1
1
1
1
1
1
1
1
1.00001
1.00001
1
1
1
1
1
1
1
1
1
1
1
1
1
1
1
1
1
1.00002
1.00001
1.00001
1
1
1
1
1
1
1
1
1
1
1
1
1
1
1
1.00001
1.00002
1.00003
1.00001
1
1
1
1
1
1
1
1
1
1
1
1
1
1
1
1.00002
1.00005
1.00004
1.00001
1
1
1
1
1
1
1
1
1
1
1
1
1
1
1.00001
1.00003
1.00006
1.00005
1.00001
1
1
1
1
1
1
1
1
1
1
1
1
1
1
1.00002
1.00006
1.00007
1.00005
1.00001
1
1
1
1
1
1
1
1
1
1
1
1
1
1.00001
1.00002
1.00006
1.00006
1.00004
1.00001
1
1
1
1
1
1
1
1
1
1
1
1
1
1.00001
1.00002
1.00004
1.00006
1.00002
1
1
1
1
1
1
1
1
1
1
1
1
1
1
1.00001
1.00002
1.00003
1.00001
1.00001
1
1
1
1
1
1
1
1
1
1
1
1
1
1
1.00001
1.00001
1.00001
1
1
1
1
1
1
1
1
1
1
1
1
1
1
1
1
1
1
1
1
1
1
1
1
1
1
1
1
1
1
1
1
1
1
1
1
1
1
1
1
1
1
1
1
1
1
1
1
1
1
1
1
1
1
1
1
1
1
1
1
1
1
1
1
1
1
1
1
1
1
1
1
1
1
1
1
1
1
1
1
1
1
1
1
1
1
1
1
1
1
1
1
1
1
1
1
1
1
1
1
1
1
1
1
1
1
1
1
1
1
1
1
1
1
1
1
1
)
;

boundaryField
{
    leftWall
    {
        type            calculated;
        value           nonuniform List<scalar> 
50
(
13529
13529
13529
13529
13529
13529
13529
13529
13432.1
4726.7
1000
1000
1000
1000
1000
1000
613.356
11.0439
1
1.00001
1.00002
1.00001
1.00001
1.00001
1.00001
1
1
1
1
1
1
1
1
1
1
1
1
1
1
1
1
1
1
1
1
1
1
1
1
1
)
;
    }
    rightWall
    {
        type            calculated;
        value           nonuniform List<scalar> 
50
(
9501.5
9476.15
9353
7493.75
2725.77
1026.65
790.576
598.733
482.57
435.997
380.775
435.425
397.202
303.829
155.409
110.114
51.2757
1.00037
1.00259
1.00415
1.00201
1.00033
1.00046
1.00087
1.00088
1.00084
1.00054
1.00074
1.00078
1.00078
1.00043
1.00005
1
1
1
1.00001
1.00001
1.00001
1.00001
1.00001
1.00001
1
1
1
1
1
1
1
1
1
)
;
    }
    lowerWall
    {
        type            calculated;
        value           nonuniform List<scalar> 
62
(
13529
13529
13529
13529
13529
13529
13529
13529
13529
13529
13529
13529
13529
13529
13529
13529
13529
13529
13529
13529
13527
13521.6
13521.6
13521.6
13521.6
13528.5
13529
13356
6259.34
966.693
1247.01
460.829
423.335
442.704
507.162
971.354
967.835
955.03
957.916
1287.58
615.256
297.721
359.741
971.354
956.157
947.134
1514.22
3017.68
3307.22
2784.09
1540.93
1540.98
2260.98
5938.03
5857.91
4257.03
4238.65
8938.25
9407.64
9478.87
9487.45
9501.5
)
;
    }
    atmosphere
    {
        type            calculated;
        value           nonuniform List<scalar> 
46
(
1
1
1
1
1
1
1
1
1
1
1
1
1
1
1
1
1
1
1
1
1
1
1
1
1
1
1
1
1
1
1
1
1
1
1
1
1
1
1
1
1
1
1
1
1
1
)
;
    }
    defaultFaces
    {
        type            empty;
    }
}


// ************************************************************************* //
