/*--------------------------------*- C++ -*----------------------------------*\
  =========                 |
  \\      /  F ield         | OpenFOAM: The Open Source CFD Toolbox
   \\    /   O peration     | Website:  https://openfoam.org
    \\  /    A nd           | Version:  13
     \\/     M anipulation  |
\*---------------------------------------------------------------------------*/
FoamFile
{
    format      ascii;
    class       volVectorField;
    location    "1";
    object      U;
}
// * * * * * * * * * * * * * * * * * * * * * * * * * * * * * * * * * * * * * //

dimensions      [0 1 -1 0 0 0 0];

internalField   nonuniform List<vector> 
2268
(
(0.00499891 0.00165692 0)
(-0.025292 0.0162109 0)
(-0.0807845 0.0158298 0)
(-0.118429 0.0116143 0)
(-0.144398 0.007121 0)
(-0.158632 0.00309914 0)
(-0.163433 2.87682e-05 0)
(-0.161475 -0.00209324 0)
(-0.15507 -0.00353606 0)
(-0.145609 -0.00450684 0)
(-0.13412 -0.00510573 0)
(-0.121442 -0.00542501 0)
(-0.108162 -0.00557651 0)
(-0.0946241 -0.00564066 0)
(-0.0810448 -0.00565893 0)
(-0.0675335 -0.00568087 0)
(-0.0540296 -0.00577834 0)
(-0.0402649 -0.00602483 0)
(-0.0258441 -0.00642025 0)
(-0.0104776 -0.0067208 0)
(0.00476038 -0.00634475 0)
(0.0185358 -0.00346769 0)
(0.0205046 0.00701396 0)
(-0.0133152 0.00759913 0)
(-0.0441636 0.0318887 0)
(-0.0887805 0.0308864 0)
(-0.11936 0.0230143 0)
(-0.139878 0.0143576 0)
(-0.150909 0.00674222 0)
(-0.154616 0.00100989 0)
(-0.153098 -0.002871 0)
(-0.147926 -0.00551196 0)
(-0.140008 -0.00734253 0)
(-0.130149 -0.00851708 0)
(-0.119091 -0.00918316 0)
(-0.107398 -0.00951207 0)
(-0.0954582 -0.00962323 0)
(-0.0835574 -0.00958918 0)
(-0.0718819 -0.00951369 0)
(-0.0604622 -0.0095427 0)
(-0.04913 -0.00982455 0)
(-0.0375682 -0.0103727 0)
(-0.0254539 -0.0108391 0)
(-0.0132957 -0.0102339 0)
(-0.000741246 -0.00575436 0)
(0.00644556 0.012194 0)
(-0.0269977 0.023863 0)
(-0.0542221 0.0494509 0)
(-0.090421 0.0456861 0)
(-0.115284 0.0336651 0)
(-0.132342 0.0208239 0)
(-0.142008 0.00976929 0)
(-0.145829 0.00149084 0)
(-0.145281 -0.00420482 0)
(-0.14142 -0.00820513 0)
(-0.134869 -0.0110782 0)
(-0.126321 -0.0129679 0)
(-0.116507 -0.0140582 0)
(-0.106007 -0.0145894 0)
(-0.0952484 -0.0147359 0)
(-0.0845715 -0.0146242 0)
(-0.0742241 -0.0143958 0)
(-0.0643133 -0.0142752 0)
(-0.0547671 -0.0144979 0)
(-0.0453546 -0.0151304 0)
(-0.0357134 -0.015815 0)
(-0.0258814 -0.0154005 0)
(-0.0145735 -0.0108349 0)
(-0.00563878 0.0101809 0)
(-0.0346105 0.0428807 0)
(-0.057469 0.0651627 0)
(-0.0876227 0.0581865 0)
(-0.108314 0.0428445 0)
(-0.123368 0.0267765 0)
(-0.132738 0.0129729 0)
(-0.137307 0.00249881 0)
(-0.138021 -0.00492099 0)
(-0.13553 -0.0103566 0)
(-0.130257 -0.0144114 0)
(-0.122853 -0.0171459 0)
(-0.114086 -0.0187576 0)
(-0.104573 -0.0195501 0)
(-0.0947873 -0.0197595 0)
(-0.0851089 -0.0195283 0)
(-0.0758348 -0.0190788 0)
(-0.0671505 -0.0187022 0)
(-0.0590828 -0.018715 0)
(-0.0515009 -0.0192743 0)
(-0.0440019 -0.0201299 0)
(-0.0361634 -0.0201608 0)
(-0.0256754 -0.016422 0)
(-0.016925 0.00267631 0)
(-0.0369688 0.0625124 0)
(-0.0548745 0.0789176 0)
(-0.0807234 0.0687271 0)
(-0.0986188 0.0510227 0)
(-0.112855 0.0326757 0)
(-0.122819 0.0166147 0)
(-0.128706 0.00418717 0)
(-0.130951 -0.00497458 0)
(-0.129893 -0.0119736 0)
(-0.125843 -0.0172953 0)
(-0.119471 -0.0208746 0)
(-0.111615 -0.0229543 0)
(-0.102946 -0.0239382 0)
(-0.0939647 -0.0241188 0)
(-0.085124 -0.0237097 0)
(-0.0767558 -0.0229679 0)
(-0.0690566 -0.0222495 0)
(-0.0621826 -0.0219255 0)
(-0.0561615 -0.0222433 0)
(-0.0505857 -0.0231485 0)
(-0.0444873 -0.0236844 0)
(-0.0342073 -0.0213516 0)
(-0.0286244 -0.009734 0)
(-0.0347924 0.0807572 0)
(-0.0468799 0.0908009 0)
(-0.0697596 0.0780738 0)
(-0.086096 0.0587785 0)
(-0.100657 0.0389668 0)
(-0.112078 0.0209408 0)
(-0.119828 0.00647979 0)
(-0.123878 -0.0044482 0)
(-0.12423 -0.0129375 0)
(-0.121239 -0.019387 0)
(-0.115701 -0.0236942 0)
(-0.108562 -0.0261857 0)
(-0.100575 -0.02735 0)
(-0.0923582 -0.0275348 0)
(-0.0843451 -0.0270039 0)
(-0.0767725 -0.0260444 0)
(-0.0699675 -0.0250164 0)
(-0.06425 -0.0243376 0)
(-0.0599328 -0.0243469 0)
(-0.0566874 -0.0252153 0)
(-0.0525413 -0.0263752 0)
(-0.0409067 -0.0256114 0)
(-0.0408833 -0.0207289 0)
(-0.0283986 0.0955445 0)
(-0.0337325 0.101014 0)
(-0.0550475 0.0869858 0)
(-0.0710288 0.0664536 0)
(-0.0867776 0.0449537 0)
(-0.100326 0.0248907 0)
(-0.11022 0.00859672 0)
(-0.115171 -0.00367064 0)
(-0.115639 -0.0132212 0)
(-0.112808 -0.0205761 0)
(-0.107674 -0.0255139 0)
(-0.101187 -0.0284018 0)
(-0.0941364 -0.0297867 0)
(-0.0870858 -0.0300282 0)
(-0.0805394 -0.0294032 0)
(-0.074812 -0.028394 0)
(-0.0700114 -0.0271392 0)
(-0.0667881 -0.0260548 0)
(-0.0661312 -0.025538 0)
(-0.0682066 -0.0263372 0)
(-0.0687222 -0.0296621 0)
(-0.0524809 -0.032657 0)
(-0.0579151 -0.0413693 0)
(-0.0185295 0.10589 0)
(-0.016649 0.11014 0)
(-0.0376498 0.0953884 0)
(-0.0536848 0.0734697 0)
(-0.0699745 0.0509998 0)
(-0.084298 0.0299358 0)
(-0.0967689 0.0126473 0)
(-0.103474 -0.00124315 0)
(-0.102717 -0.0133023 0)
(-0.0981625 -0.0231447 0)
(-0.0923324 -0.0299581 0)
(-0.0867575 -0.0339645 0)
(-0.0823681 -0.0357491 0)
(-0.0796631 -0.0357395 0)
(-0.0786343 -0.0346294 0)
(-0.0791171 -0.0325841 0)
(-0.0814567 -0.0299571 0)
(-0.0863542 -0.0269457 0)
(-0.095556 -0.0233879 0)
(-0.109723 -0.0224199 0)
(-0.120203 -0.0333265 0)
(-0.10816 -0.0470414 0)
(-0.1304 -0.0884139 0)
(-0.187946 0.042266 0)
(-0.132471 -0.0217721 0)
(-0.0589147 -0.0370792 0)
(-0.0113472 -0.0156636 0)
(0.0218966 -0.0133785 0)
(0.0288526 0.000163636 0)
(0.00175001 0.0257867 0)
(-0.091553 0.0477834 0)
(-0.236497 0.0482513 0)
(-0.339765 0.013229 0)
(-0.289212 -0.0201565 0)
(-0.287917 -0.00782527 0)
(-0.290956 0.00441198 0)
(-0.280727 0.0147085 0)
(-0.374031 0.0174101 0)
(-0.441209 -0.000436946 0)
(-0.423548 -0.0241041 0)
(-0.295697 -0.0641578 0)
(-0.150658 -0.0911927 0)
(-0.11384 0.0853933 0)
(-0.00793744 -0.0421169 0)
(0.0294658 -0.0432628 0)
(0.0495723 -0.0165984 0)
(0.0508503 -0.00869391 0)
(0.0377994 0.00556473 0)
(0.0082157 0.0343661 0)
(-0.0362282 0.0584165 0)
(-0.10364 0.0767249 0)
(-0.180482 0.0458228 0)
(-0.214845 -0.000706872 0)
(-0.249984 -0.00379178 0)
(-0.252129 -0.00495981 0)
(-0.210224 0.0072606 0)
(-0.233443 0.0503333 0)
(-0.327145 0.0301556 0)
(-0.329213 -0.022808 0)
(-0.192909 -0.10997 0)
(-0.0666306 -0.121135 0)
(-0.00539919 0.101873 0)
(0.0542741 -0.055171 0)
(0.0523531 -0.0502077 0)
(0.0540305 -0.0180384 0)
(0.0405318 -0.00156361 0)
(0.0124299 0.0157218 0)
(-0.0147107 0.0460149 0)
(-0.0444619 0.072241 0)
(-0.0787194 0.0895156 0)
(-0.139423 0.0647101 0)
(-0.207283 0.0197599 0)
(-0.251071 0.00435837 0)
(-0.25216 -0.0102536 0)
(-0.2129 -0.0078539 0)
(-0.166158 0.0544368 0)
(-0.213336 0.0512114 0)
(-0.21419 -0.0445535 0)
(-0.0862024 -0.176572 0)
(-0.0046209 -0.155102 0)
(0.0950984 0.0667065 0)
(0.0847616 -0.0544254 0)
(0.0510778 -0.0460031 0)
(0.0348791 -0.0122783 0)
(0.0152709 0.0095149 0)
(-0.0122755 0.0311589 0)
(-0.0412124 0.0606649 0)
(-0.0674847 0.08641 0)
(-0.0885856 0.102777 0)
(-0.13885 0.0853908 0)
(-0.224641 0.0416259 0)
(-0.263696 0.011833 0)
(-0.267604 -0.0169246 0)
(-0.23557 -0.0245738 0)
(-0.175282 0.0368131 0)
(-0.12225 0.0589782 0)
(-0.0856382 -0.0593862 0)
(0.0095519 -0.223451 0)
(0.0442474 -0.160098 0)
(0.115316 0.00927149 0)
(0.0800262 -0.040251 0)
(0.0347303 -0.0322191 0)
(0.00912358 -0.00333856 0)
(-0.0129436 0.0197234 0)
(-0.0398934 0.0431168 0)
(-0.0669289 0.0739535 0)
(-0.0917182 0.101223 0)
(-0.112298 0.120887 0)
(-0.15449 0.115107 0)
(-0.247174 0.0687757 0)
(-0.28039 0.0168877 0)
(-0.284735 -0.0228826 0)
(-0.259489 -0.0435882 0)
(-0.20434 -0.00331407 0)
(-0.0975075 0.0313038 0)
(0.00754013 -0.0883461 0)
(0.0701697 -0.249301 0)
(0.0839045 -0.138438 0)
(0.0735996 -0.0207363 0)
(0.0444598 -0.0233975 0)
(0.00530968 -0.0173569 0)
(-0.0202698 0.0057085 0)
(-0.0420091 0.0291437 0)
(-0.0683114 0.053983 0)
(-0.0948572 0.0831015 0)
(-0.120556 0.110977 0)
(-0.145536 0.137403 0)
(-0.179639 0.148354 0)
(-0.248062 0.115162 0)
(-0.296108 0.0269421 0)
(-0.293781 -0.0349324 0)
(-0.265402 -0.0607366 0)
(-0.215577 -0.0399806 0)
(-0.107535 -0.0374016 0)
(0.0351444 -0.144702 0)
(0.093674 -0.261956 0)
(0.0994897 -0.0919598 0)
(-0.00705721 -0.0306793 0)
(-0.0180266 -0.00711923 0)
(-0.0397438 -0.00257311 0)
(-0.0563954 0.0152921 0)
(-0.0739077 0.0386247 0)
(-0.0972103 0.0640812 0)
(-0.122605 0.0933627 0)
(-0.148189 0.12077 0)
(-0.172429 0.146776 0)
(-0.197571 0.159752 0)
(-0.242526 0.131195 0)
(-0.292014 0.0496118 0)
(-0.279778 -0.0425619 0)
(-0.255601 -0.0739335 0)
(-0.20498 -0.0674372 0)
(-0.102143 -0.0831802 0)
(0.0282223 -0.185683 0)
(0.0958743 -0.261397 0)
(0.0518766 -0.0309263 0)
(-0.101623 0.00528664 0)
(-0.0841421 -0.00574237 0)
(-0.0921142 0.00281794 0)
(-0.0991746 0.021774 0)
(-0.109373 0.0475033 0)
(-0.126411 0.074745 0)
(-0.148467 0.103249 0)
(-0.171327 0.130622 0)
(-0.191463 0.155704 0)
(-0.207347 0.169058 0)
(-0.230817 0.142663 0)
(-0.258015 0.0557467 0)
(-0.253517 -0.0481292 0)
(-0.237387 -0.0888615 0)
(-0.184313 -0.100295 0)
(-0.080702 -0.130727 0)
(0.0311492 -0.226251 0)
(0.0738712 -0.251255 0)
(0.0190765 -0.0113388 0)
(-0.0095412 0.133913 0)
(0.0102998 0.122389 0)
(-0.00913045 0.10399 0)
(-0.0239997 0.0840054 0)
(-0.0497636 0.0659232 0)
(-0.0734934 0.0479137 0)
(-0.0836699 0.0246158 0)
(-0.0849499 -0.000126588 0)
(-0.0824925 -0.0179472 0)
(-0.0796212 -0.0287241 0)
(-0.0780745 -0.034272 0)
(-0.0784889 -0.0362404 0)
(-0.0811143 -0.0357961 0)
(-0.0860266 -0.0338285 0)
(-0.0930585 -0.0311486 0)
(-0.101909 -0.0276318 0)
(-0.112915 -0.0235643 0)
(-0.126223 -0.0190771 0)
(-0.142292 -0.0132512 0)
(-0.162636 -0.0120603 0)
(-0.179931 -0.028627 0)
(-0.187384 -0.0468419 0)
(-0.219032 -0.0737661 0)
(-0.018752 0.108183 0)
(0.00547567 0.11496 0)
(-0.0469712 0.120789 0)
(-0.0678347 0.118307 0)
(-0.0789046 0.0925468 0)
(-0.0821688 0.0544004 0)
(-0.0823156 0.0214833 0)
(-0.0823052 -0.00289584 0)
(-0.0839973 -0.0182086 0)
(-0.08785 -0.02638 0)
(-0.093974 -0.0294978 0)
(-0.10234 -0.0291784 0)
(-0.112988 -0.0265009 0)
(-0.126054 -0.0219601 0)
(-0.141283 -0.0181819 0)
(-0.157551 -0.0137749 0)
(-0.176461 -0.00817419 0)
(-0.197659 0.000393783 0)
(-0.219412 0.0134114 0)
(-0.239934 0.0189623 0)
(-0.262318 -0.00787551 0)
(-0.291727 -0.0297514 0)
(-0.323866 -0.0366068 0)
(-0.0491892 0.109168 0)
(-0.0559032 0.151836 0)
(-0.0759697 0.148617 0)
(-0.0805631 0.123918 0)
(-0.0819202 0.0889908 0)
(-0.0828394 0.0521554 0)
(-0.0861086 0.0218415 0)
(-0.092613 0.000866103 0)
(-0.102068 -0.0113936 0)
(-0.113814 -0.0170656 0)
(-0.127456 -0.0179387 0)
(-0.142853 -0.0156469 0)
(-0.159886 -0.0118783 0)
(-0.178844 -0.00557197 0)
(-0.202433 -4.29974e-05 0)
(-0.227441 0.0097344 0)
(-0.256608 0.021967 0)
(-0.290193 0.0306733 0)
(-0.327829 0.0338334 0)
(-0.350686 0.033461 0)
(-0.365238 0.0183804 0)
(-0.380141 -0.00399349 0)
(-0.393796 -0.0198325 0)
(-0.026638 0.180054 0)
(-0.0471504 0.17153 0)
(-0.0631253 0.153854 0)
(-0.0705527 0.125235 0)
(-0.0771436 0.0906863 0)
(-0.0860629 0.0572321 0)
(-0.0987604 0.03104 0)
(-0.114458 0.0135021 0)
(-0.131985 0.00347873 0)
(-0.150528 -0.000768923 0)
(-0.170164 -0.00102196 0)
(-0.191617 0.00257613 0)
(-0.216262 0.0082675 0)
(-0.241436 0.0229362 0)
(-0.276138 0.0341297 0)
(-0.320909 0.0446984 0)
(-0.363345 0.0533574 0)
(-0.390927 0.0653848 0)
(-0.410413 0.0616303 0)
(-0.42361 0.0484639 0)
(-0.433544 0.0281124 0)
(-0.44216 0.00467379 0)
(-0.448143 -0.0161562 0)
(-0.0110486 0.212386 0)
(-0.0313596 0.189142 0)
(-0.0485012 0.165281 0)
(-0.0629064 0.13544 0)
(-0.0794552 0.102796 0)
(-0.0999135 0.0730154 0)
(-0.123109 0.0499375 0)
(-0.147145 0.0339016 0)
(-0.171026 0.0240332 0)
(-0.195022 0.0206182 0)
(-0.220769 0.022404 0)
(-0.249106 0.0327938 0)
(-0.28945 0.0416095 0)
(-0.335507 0.0620769 0)
(-0.377881 0.0749473 0)
(-0.407701 0.0871554 0)
(-0.431883 0.085731 0)
(-0.451334 0.0836608 0)
(-0.464731 0.0744052 0)
(-0.47403 0.0575399 0)
(-0.48089 0.0353233 0)
(-0.486679 0.0104002 0)
(-0.490667 -0.0141739 0)
(-0.00450902 0.2301 0)
(-0.0247667 0.207937 0)
(-0.0446701 0.183506 0)
(-0.067156 0.155746 0)
(-0.0953423 0.126623 0)
(-0.127455 0.0996346 0)
(-0.159976 0.077089 0)
(-0.190955 0.0602859 0)
(-0.219323 0.0513701 0)
(-0.249857 0.051267 0)
(-0.289437 0.057251 0)
(-0.336187 0.0773965 0)
(-0.381146 0.0878282 0)
(-0.412739 0.102089 0)
(-0.437369 0.105071 0)
(-0.458437 0.107293 0)
(-0.475237 0.103844 0)
(-0.488516 0.096987 0)
(-0.497999 0.083983 0)
(-0.50464 0.0645421 0)
(-0.509714 0.0407317 0)
(-0.514667 0.0152305 0)
(-0.51923 -0.0115342 0)
(-0.00544646 0.243778 0)
(-0.0285684 0.229846 0)
(-0.053367 0.210118 0)
(-0.0850761 0.188535 0)
(-0.125125 0.164359 0)
(-0.167984 0.138348 0)
(-0.209093 0.113562 0)
(-0.245757 0.0952413 0)
(-0.283398 0.0880001 0)
(-0.328509 0.0962436 0)
(-0.375003 0.104754 0)
(-0.411717 0.116834 0)
(-0.436355 0.120011 0)
(-0.458175 0.123907 0)
(-0.475157 0.124046 0)
(-0.488698 0.122196 0)
(-0.499106 0.115902 0)
(-0.507018 0.105991 0)
(-0.513073 0.090539 0)
(-0.51753 0.0687623 0)
(-0.520346 0.0439236 0)
(-0.523949 0.0196914 0)
(-0.531513 -0.00755449 0)
(-0.0150557 0.255692 0)
(-0.0410229 0.25099 0)
(-0.0720781 0.241533 0)
(-0.112605 0.231115 0)
(-0.162706 0.213205 0)
(-0.216119 0.188064 0)
(-0.267544 0.162277 0)
(-0.315217 0.143639 0)
(-0.365449 0.136045 0)
(-0.409034 0.137233 0)
(-0.435238 0.139176 0)
(-0.455264 0.139915 0)
(-0.472064 0.139583 0)
(-0.485651 0.13887 0)
(-0.495712 0.135787 0)
(-0.502962 0.130519 0)
(-0.50748 0.121124 0)
(-0.51006 0.109179 0)
(-0.51287 0.092432 0)
(-0.514894 0.0688854 0)
(-0.514804 0.0444999 0)
(-0.517375 0.022717 0)
(-0.525998 -0.00348773 0)
(-0.0366786 0.270027 0)
(-0.06079 0.267226 0)
(-0.0968348 0.263165 0)
(-0.142628 0.262533 0)
(-0.197584 0.252525 0)
(-0.266335 0.235872 0)
(-0.346896 0.215245 0)
(-0.411982 0.193029 0)
(-0.445858 0.176968 0)
(-0.46156 0.162829 0)
(-0.472999 0.155614 0)
(-0.482041 0.152461 0)
(-0.490425 0.150287 0)
(-0.497955 0.146273 0)
(-0.503481 0.140169 0)
(-0.506182 0.13271 0)
(-0.506457 0.121718 0)
(-0.503874 0.109587 0)
(-0.499011 0.0954844 0)
(-0.497169 0.0719535 0)
(-0.495311 0.0452579 0)
(-0.491201 0.0297239 0)
(-0.493213 0.0121707 0)
(-0.115051 0.311121 0)
(-0.0819686 0.288485 0)
(-0.126769 0.276114 0)
(-0.168937 0.282 0)
(-0.220803 0.277085 0)
(-0.327788 0.268024 0)
(-0.46976 0.252876 0)
(-0.488069 0.213226 0)
(-0.492968 0.186557 0)
(-0.492202 0.169512 0)
(-0.492843 0.160169 0)
(-0.493544 0.156791 0)
(-0.494444 0.154155 0)
(-0.49585 0.14932 0)
(-0.496614 0.142509 0)
(-0.495874 0.134876 0)
(-0.493736 0.121079 0)
(-0.490364 0.110063 0)
(-0.480878 0.100413 0)
(-0.47205 0.0721654 0)
(-0.474524 0.0423919 0)
(-0.484437 0.0345461 0)
(-0.474327 0.0275857 0)
(-0.0329616 0.589281 0)
(-0.0365792 0.363724 0)
(-0.142262 0.348168 0)
(-0.184473 0.331879 0)
(-0.267431 0.328305 0)
(-0.436526 0.435879 0)
(-0.487928 0.330806 0)
(-0.468853 0.222162 0)
(-0.491088 0.179411 0)
(-0.493125 0.166621 0)
(-0.492615 0.157292 0)
(-0.488916 0.156061 0)
(-0.486072 0.155995 0)
(-0.486956 0.150049 0)
(-0.490668 0.143317 0)
(-0.488921 0.13516 0)
(-0.488213 0.116799 0)
(-0.495929 0.0977515 0)
(-0.501757 0.0798798 0)
(-0.498774 0.0602053 0)
(-0.500252 0.0450334 0)
(-0.499145 0.0202852 0)
(-0.495497 0.0120104 0)
(0.024456 0.379391 0)
(0.0104516 0.432108 0)
(-0.0534826 0.495384 0)
(-0.108412 0.555046 0)
(-0.192024 0.659974 0)
(-0.243781 0.750468 0)
(-0.287008 0.420807 0)
(-0.308428 0.170595 0)
(-0.468357 0.14495 0)
(-0.488547 0.155279 0)
(-0.492337 0.151027 0)
(-0.498367 0.152614 0)
(-0.502765 0.157494 0)
(-0.510481 0.156275 0)
(-0.510551 0.143581 0)
(-0.508803 0.130992 0)
(-0.505919 0.119111 0)
(-0.501254 0.10249 0)
(-0.496371 0.0849016 0)
(-0.491185 0.0625123 0)
(-0.486294 0.0434844 0)
(-0.483863 0.0274462 0)
(-0.478061 0.00211512 0)
(-0.0123029 0.468732 0)
(-0.0171409 0.45392 0)
(-0.0384192 0.472036 0)
(-0.0671801 0.517179 0)
(-0.109865 0.582681 0)
(-0.128312 0.612245 0)
(-0.134598 0.515265 0)
(-0.211636 0.401669 0)
(-0.316956 0.370469 0)
(-0.371642 0.235198 0)
(-0.421905 0.175414 0)
(-0.449573 0.163043 0)
(-0.462375 0.162447 0)
(-0.468048 0.155706 0)
(-0.468648 0.143393 0)
(-0.46829 0.129363 0)
(-0.465271 0.114085 0)
(-0.459443 0.0987128 0)
(-0.452567 0.0788209 0)
(-0.445965 0.0581861 0)
(-0.439868 0.0393871 0)
(-0.432935 0.0197674 0)
(-0.425323 -0.000982532 0)
(-0.0153181 0.453729 0)
(-0.0150246 0.466076 0)
(-0.023628 0.492915 0)
(-0.035295 0.53581 0)
(-0.0464357 0.584018 0)
(-0.0499066 0.596235 0)
(-0.0669109 0.499518 0)
(-0.119857 0.430854 0)
(-0.184613 0.379653 0)
(-0.236844 0.283238 0)
(-0.29159 0.222054 0)
(-0.333923 0.192893 0)
(-0.35965 0.176229 0)
(-0.373362 0.161621 0)
(-0.38033 0.145477 0)
(-0.383859 0.129217 0)
(-0.384476 0.111614 0)
(-0.38154 0.0915958 0)
(-0.376669 0.0712441 0)
(-0.370971 0.051173 0)
(-0.365277 0.0324653 0)
(-0.358747 0.0132129 0)
(-0.351903 -0.00930618 0)
(-0.0122055 0.454404 0)
(-0.0111908 0.461577 0)
(-0.0115771 0.48742 0)
(-0.00870551 0.530548 0)
(-0.000945613 0.576498 0)
(0.0136555 0.59039 0)
(0.00964206 0.538876 0)
(-0.0268825 0.468972 0)
(-0.0691668 0.409642 0)
(-0.110446 0.334148 0)
(-0.158639 0.271876 0)
(-0.200513 0.229037 0)
(-0.230964 0.199368 0)
(-0.251442 0.175508 0)
(-0.264844 0.153866 0)
(-0.273506 0.133291 0)
(-0.278903 0.112647 0)
(-0.281055 0.090089 0)
(-0.280315 0.0675791 0)
(-0.27776 0.0454209 0)
(-0.274059 0.0262064 0)
(-0.269826 0.00704132 0)
(-0.265166 -0.0152252 0)
(-0.00635214 0.467428 0)
(-0.00327053 0.466717 0)
(0.000890801 0.486306 0)
(0.0122791 0.523058 0)
(0.0313357 0.563457 0)
(0.0553389 0.580677 0)
(0.0674736 0.550164 0)
(0.0558768 0.497463 0)
(0.0334896 0.441726 0)
(0.00561292 0.375412 0)
(-0.0308327 0.314076 0)
(-0.0670521 0.264889 0)
(-0.0973098 0.226448 0)
(-0.120695 0.195038 0)
(-0.138218 0.167738 0)
(-0.151053 0.14271 0)
(-0.160432 0.118349 0)
(-0.16776 0.093627 0)
(-0.172523 0.0691434 0)
(-0.175009 0.0452236 0)
(-0.174947 0.0232865 0)
(-0.173905 0.00328131 0)
(-0.17192 -0.0186002 0)
(-0.000245012 0.469227 0)
(0.00587835 0.464075 0)
(0.0136545 0.476696 0)
(0.0298033 0.504741 0)
(0.0550407 0.538062 0)
(0.0860502 0.557089 0)
(0.110642 0.544196 0)
(0.118556 0.507418 0)
(0.114199 0.459956 0)
(0.100934 0.40292 0)
(0.0785557 0.346138 0)
(0.052334 0.295753 0)
(0.027042 0.252957 0)
(0.00490653 0.216505 0)
(-0.0135985 0.184662 0)
(-0.0286411 0.155842 0)
(-0.040656 0.128542 0)
(-0.050719 0.101575 0)
(-0.0594649 0.0748029 0)
(-0.0670869 0.0492814 0)
(-0.0723392 0.0254922 0)
(-0.0750743 0.00372816 0)
(-0.0765262 -0.0190803 0)
(0.00521175 0.461803 0)
(0.015005 0.455851 0)
(0.0261639 0.462596 0)
(0.0449317 0.481887 0)
(0.0727298 0.507123 0)
(0.107222 0.524764 0)
(0.139719 0.521532 0)
(0.161507 0.497825 0)
(0.172081 0.460902 0)
(0.172766 0.414189 0)
(0.164121 0.364542 0)
(0.149353 0.317134 0)
(0.132025 0.274167 0)
(0.114564 0.235855 0)
(0.0982459 0.201538 0)
(0.0836056 0.170247 0)
(0.0707129 0.140887 0)
(0.059284 0.112457 0)
(0.0487916 0.0846823 0)
(0.0389933 0.0575201 0)
(0.0301367 0.0318957 0)
(0.0232047 0.00800053 0)
(0.0180646 -0.0159815 0)
(0.00980667 0.447866 0)
(0.0233118 0.443511 0)
(0.0376402 0.445913 0)
(0.0580023 0.457599 0)
(0.086212 0.474844 0)
(0.121228 0.488876 0)
(0.157295 0.490009 0)
(0.187449 0.475468 0)
(0.208916 0.448309 0)
(0.221255 0.411628 0)
(0.224662 0.370198 0)
(0.220981 0.328145 0)
(0.212669 0.287887 0)
(0.201835 0.250394 0)
(0.189962 0.215747 0)
(0.177972 0.183544 0)
(0.166338 0.153164 0)
(0.155157 0.123974 0)
(0.144371 0.0955609 0)
(0.13388 0.0679448 0)
(0.123836 0.0412553 0)
(0.1148 0.0157072 0)
(0.106859 -0.00972135 0)
(0.0131733 0.428759 0)
(0.0301023 0.427265 0)
(0.0473546 0.427076 0)
(0.0688179 0.432949 0)
(0.096413 0.443243 0)
(0.130068 0.45272 0)
(0.166401 0.454758 0)
(0.200306 0.445832 0)
(0.228382 0.426422 0)
(0.249069 0.398421 0)
(0.261911 0.364998 0)
(0.267724 0.329253 0)
(0.268028 0.293384 0)
(0.264408 0.25862 0)
(0.258199 0.225456 0)
(0.250411 0.193907 0)
(0.241716 0.163716 0)
(0.232492 0.134539 0)
(0.22292 0.106131 0)
(0.213129 0.0783743 0)
(0.203329 0.0513421 0)
(0.193879 0.0249818 0)
(0.184905 -0.00123715 0)
(0.015188 0.405788 0)
(0.0349254 0.40762 0)
(0.0546886 0.406339 0)
(0.0769703 0.408275 0)
(0.103601 0.413178 0)
(0.135033 0.418216 0)
(0.169571 0.419215 0)
(0.203842 0.413085 0)
(0.234768 0.399063 0)
(0.260359 0.377908 0)
(0.279642 0.351506 0)
(0.292679 0.322007 0)
(0.300229 0.29118 0)
(0.303323 0.260207 0)
(0.302989 0.229743 0)
(0.300117 0.200042 0)
(0.2954 0.171098 0)
(0.289332 0.142783 0)
(0.282249 0.114975 0)
(0.274407 0.087623 0)
(0.266065 0.060723 0)
(0.257511 0.0342249 0)
(0.248891 0.00784072 0)
(0.0159979 0.38049 0)
(0.0376542 0.385426 0)
(0.0593116 0.3841 0)
(0.0821558 0.383726 0)
(0.107776 0.384892 0)
(0.1368 0.386273 0)
(0.168581 0.385468 0)
(0.201135 0.380244 0)
(0.232131 0.369506 0)
(0.259673 0.353281 0)
(0.282561 0.33251 0)
(0.300379 0.308535 0)
(0.31332 0.282629 0)
(0.32193 0.255771 0)
(0.326885 0.228601 0)
(0.32886 0.201463 0)
(0.328448 0.174493 0)
(0.32613 0.147704 0)
(0.322283 0.12108 0)
(0.317212 0.0946177 0)
(0.311195 0.0683399 0)
(0.304471 0.0422397 0)
(0.297171 0.0162162 0)
(0.0159021 0.354327 0)
(0.038475 0.361688 0)
(0.0612477 0.36089 0)
(0.0843344 0.359429 0)
(0.108975 0.358303 0)
(0.135756 0.35707 0)
(0.164587 0.354492 0)
(0.194447 0.349175 0)
(0.223804 0.34017 0)
(0.25115 0.327188 0)
(0.27533 0.310574 0)
(0.295705 0.291061 0)
(0.312112 0.269468 0)
(0.324723 0.246507 0)
(0.333898 0.222705 0)
(0.340071 0.198401 0)
(0.343678 0.173779 0)
(0.34511 0.148929 0)
(0.3447 0.1239 0)
(0.342739 0.0987412 0)
(0.339478 0.0735089 0)
(0.335126 0.0482551 0)
(0.329799 0.02301 0)
(0.0151999 0.32848 0)
(0.037758 0.337409 0)
(0.0608292 0.337323 0)
(0.0837675 0.335565 0)
(0.107422 0.333251 0)
(0.132229 0.330397 0)
(0.158329 0.326473 0)
(0.185285 0.320723 0)
(0.21221 0.312504 0)
(0.238058 0.301489 0)
(0.261897 0.287726 0)
(0.283067 0.271553 0)
(0.301234 0.253434 0)
(0.316326 0.233831 0)
(0.328461 0.21312 0)
(0.337861 0.191575 0)
(0.34479 0.169374 0)
(0.349517 0.146628 0)
(0.352293 0.123422 0)
(0.353343 0.0998354 0)
(0.352873 0.0759576 0)
(0.351047 0.0518881 0)
(0.347971 0.0277369 0)
(0.0141413 0.30378 0)
(0.0359406 0.313465 0)
(0.0585722 0.314017 0)
(0.0809413 0.312384 0)
(0.103534 0.309616 0)
(0.126601 0.305931 0)
(0.150328 0.301183 0)
(0.17458 0.295038 0)
(0.198904 0.287145 0)
(0.22266 0.277267 0)
(0.245186 0.265353 0)
(0.265932 0.251531 0)
(0.284528 0.236033 0)
(0.300786 0.219119 0)
(0.314665 0.201028 0)
(0.326225 0.181949 0)
(0.335586 0.162021 0)
(0.342894 0.141346 0)
(0.348302 0.120016 0)
(0.351956 0.0981241 0)
(0.353998 0.0757786 0)
(0.354545 0.0531068 0)
(0.353693 0.0302628 0)
(0.0128999 0.280762 0)
(0.0334204 0.29053 0)
(0.0550345 0.291519 0)
(0.0764453 0.290162 0)
(0.0978511 0.287364 0)
(0.119325 0.283384 0)
(0.141011 0.278266 0)
(0.1629 0.271918 0)
(0.184791 0.264201 0)
(0.206329 0.254996 0)
(0.227098 0.244258 0)
(0.2467 0.232028 0)
(0.264817 0.21841 0)
(0.281233 0.203535 0)
(0.295829 0.187535 0)
(0.308564 0.170523 0)
(0.319452 0.15259 0)
(0.328538 0.133816 0)
(0.335884 0.114281 0)
(0.341563 0.0940779 0)
(0.345647 0.0733189 0)
(0.34821 0.0521417 0)
(0.349325 0.0307143 0)
(0.0115946 0.259714 0)
(0.030517 0.269062 0)
(0.050715 0.270251 0)
(0.0708552 0.269155 0)
(0.0909333 0.266516 0)
(0.110883 0.262561 0)
(0.130775 0.257394 0)
(0.15063 0.251047 0)
(0.170367 0.243511 0)
(0.189811 0.234763 0)
(0.208722 0.224798 0)
(0.226845 0.213639 0)
(0.243946 0.201336 0)
(0.259835 0.187953 0)
(0.274376 0.173552 0)
(0.28748 0.158193 0)
(0.299094 0.141927 0)
(0.309195 0.124808 0)
(0.317778 0.1069 0)
(0.32485 0.0882839 0)
(0.330428 0.0690672 0)
(0.33454 0.0493825 0)
(0.337241 0.029394 0)
(0.0102994 0.240758 0)
(0.0274632 0.249336 0)
(0.0460073 0.250497 0)
(0.0646591 0.249566 0)
(0.0832868 0.247129 0)
(0.101729 0.243345 0)
(0.119985 0.238319 0)
(0.138059 0.232129 0)
(0.155917 0.224828 0)
(0.173475 0.216457 0)
(0.190606 0.207049 0)
(0.207162 0.196639 0)
(0.222989 0.185263 0)
(0.237946 0.172956 0)
(0.251912 0.159751 0)
(0.264787 0.145675 0)
(0.276492 0.130755 0)
(0.286965 0.115024 0)
(0.296155 0.09853 0)
(0.304025 0.0813428 0)
(0.310552 0.0635561 0)
(0.315724 0.0452908 0)
(0.319574 0.0266951 0)
(0.00906275 0.223891 0)
(0.0244196 0.23148 0)
(0.0411967 0.232426 0)
(0.0582309 0.231535 0)
(0.0753207 0.229255 0)
(0.09225 0.225679 0)
(0.108961 0.220879 0)
(0.125428 0.214933 0)
(0.141622 0.207918 0)
(0.157498 0.199903 0)
(0.172992 0.190947 0)
(0.18802 0.1811 0)
(0.202493 0.170404 0)
(0.216315 0.158889 0)
(0.229395 0.146578 0)
(0.241645 0.133487 0)
(0.252981 0.119633 0)
(0.263327 0.105039 0)
(0.272613 0.0897421 0)
(0.280775 0.0738 0)
(0.287761 0.0572941 0)
(0.293536 0.0403297 0)
(0.298109 0.0230367 0)
(0.00791153 0.209038 0)
(0.0214909 0.215522 0)
(0.0364774 0.216111 0)
(0.0518374 0.215138 0)
(0.067341 0.212935 0)
(0.0827486 0.209535 0)
(0.0979646 0.204971 0)
(0.112934 0.1993 0)
(0.127616 0.192595 0)
(0.141974 0.18493 0)
(0.155971 0.176375 0)
(0.169561 0.166992 0)
(0.182692 0.156829 0)
(0.195307 0.145922 0)
(0.20734 0.134297 0)
(0.218725 0.121971 0)
(0.229388 0.108962 0)
(0.239255 0.09529 0)
(0.248253 0.080989 0)
(0.256305 0.0661098 0)
(0.263349 0.0507231 0)
(0.26933 0.0349209 0)
(0.274241 0.0188154 0)
(0.00686103 0.196074 0)
(0.0187409 0.201419 0)
(0.0319744 0.20156 0)
(0.045659 0.200401 0)
(0.0595642 0.198187 0)
(0.0734498 0.194901 0)
(0.0872 0.190538 0)
(0.100737 0.185129 0)
(0.114005 0.178728 0)
(0.126963 0.171403 0)
(0.139579 0.16322 0)
(0.151823 0.154245 0)
(0.163663 0.144531 0)
(0.175065 0.134119 0)
(0.185987 0.123044 0)
(0.196381 0.11133 0)
(0.206188 0.0990004 0)
(0.215346 0.0860802 0)
(0.223786 0.0726048 0)
(0.231437 0.0586232 0)
(0.238228 0.0442003 0)
(0.2441 0.0294185 0)
(0.249033 0.0143774 0)
(0.0059163 0.184849 0)
(0.0162055 0.189087 0)
(0.0277632 0.188729 0)
(0.0398118 0.187311 0)
(0.0521374 0.185005 0)
(0.0645149 0.18176 0)
(0.0768222 0.177544 0)
(0.0889686 0.172357 0)
(0.100885 0.166234 0)
(0.11252 0.159225 0)
(0.123839 0.151389 0)
(0.134813 0.142786 0)
(0.145421 0.13347 0)
(0.155639 0.123486 0)
(0.165439 0.112876 0)
(0.174787 0.101671 0)
(0.183642 0.0899027 0)
(0.191954 0.077605 0)
(0.199666 0.0648181 0)
(0.206714 0.0515933 0)
(0.213032 0.0379946 0)
(0.218561 0.0241005 0)
(0.223269 0.0100032 0)
(0.00507766 0.175201 0)
(0.0138993 0.178408 0)
(0.0238849 0.177543 0)
(0.0343665 0.175821 0)
(0.0451579 0.173361 0)
(0.0560583 0.170092 0)
(0.0669498 0.165959 0)
(0.0777371 0.160943 0)
(0.0883426 0.155056 0)
(0.098707 0.148331 0)
(0.108787 0.140813 0)
(0.118553 0.132553 0)
(0.127981 0.1236 0)
(0.137053 0.114001 0)
(0.145747 0.1038 0)
(0.15404 0.0930364 0)
(0.161903 0.0817484 0)
(0.169299 0.0699777 0)
(0.176184 0.057772 0)
(0.182507 0.0451879 0)
(0.18821 0.0322933 0)
(0.193235 0.0191682 0)
(0.197546 0.00590375 0)
(0.00433975 0.166969 0)
(0.0118241 0.169257 0)
(0.0203558 0.167904 0)
(0.0293616 0.165861 0)
(0.0386873 0.163206 0)
(0.0481609 0.159859 0)
(0.0576755 0.155753 0)
(0.0671381 0.150854 0)
(0.0764684 0.145157 0)
(0.0856017 0.138675 0)
(0.0944887 0.131442 0)
(0.103093 0.123494 0)
(0.111388 0.114876 0)
(0.119353 0.105631 0)
(0.126971 0.0958028 0)
(0.134224 0.0854335 0)
(0.141091 0.0745676 0)
(0.147547 0.0632531 0)
(0.153561 0.0515444 0)
(0.159095 0.0395056 0)
(0.164102 0.0272122 0)
(0.168531 0.0147515 0)
(0.172335 0.00222175 0)
(0.0036949 0.159994 0)
(0.0099705 0.161496 0)
(0.0171761 0.1597 0)
(0.0248139 0.157339 0)
(0.0327632 0.15447 0)
(0.0408812 0.151009 0)
(0.0490752 0.146885 0)
(0.0572597 0.142054 0)
(0.0653565 0.136498 0)
(0.0732994 0.130219 0)
(0.0810348 0.123233 0)
(0.0885214 0.115567 0)
(0.0957279 0.107257 0)
(0.102631 0.0983386 0)
(0.109211 0.0888538 0)
(0.115454 0.0788451 0)
(0.121344 0.0683586 0)
(0.126865 0.0574457 0)
(0.131998 0.0461663 0)
(0.136721 0.0345923 0)
(0.141 0.0228099 0)
(0.14479 0.0109213 0)
(0.14803 -0.000962637 0)
(0.00313184 0.154131 0)
(0.0083258 0.154991 0)
(0.0143367 0.152806 0)
(0.0207279 0.150148 0)
(0.027409 0.147061 0)
(0.0342644 0.143465 0)
(0.0412161 0.139291 0)
(0.0481885 0.13449 0)
(0.0551096 0.129035 0)
(0.0619149 0.122917 0)
(0.0685498 0.116142 0)
(0.0749695 0.108726 0)
(0.0811383 0.100695 0)
(0.0870285 0.0920791 0)
(0.0926188 0.0829141 0)
(0.097893 0.0732394 0)
(0.102839 0.0630992 0)
(0.107448 0.0525447 0)
(0.111714 0.041638 0)
(0.115628 0.030457 0)
(0.119177 0.0191023 0)
(0.122327 0.00769954 0)
(0.125 -0.00361321 0)
(0.00263753 0.149243 0)
(0.00687372 0.149606 0)
(0.011827 0.14709 0)
(0.0171055 0.144163 0)
(0.0226451 0.140868 0)
(0.028353 0.137132 0)
(0.034165 0.132888 0)
(0.0400164 0.128089 0)
(0.045843 0.122701 0)
(0.0515852 0.116709 0)
(0.0571895 0.110111 0)
(0.0626094 0.102914 0)
(0.067806 0.0951354 0)
(0.0727471 0.0867988 0)
(0.0774069 0.0779333 0)
(0.0817664 0.0685725 0)
(0.0858133 0.0587548 0)
(0.0895431 0.0485262 0)
(0.0929596 0.0379449 0)
(0.0960744 0.027091 0)
(0.0989004 0.0160791 0)
(0.101425 0.00507358 0)
(0.103557 -0.00572952 0)
(0.00219609 0.145212 0)
(0.00560614 0.145206 0)
(0.00964538 0.142411 0)
(0.0139588 0.139245 0)
(0.0185013 0.135759 0)
(0.0231989 0.131887 0)
(0.0279991 0.127567 0)
(0.0328479 0.122752 0)
(0.0376899 0.117406 0)
(0.0424712 0.111512 0)
(0.0471413 0.105061 0)
(0.0516535 0.0980553 0)
(0.055966 0.0905055 0)
(0.0600418 0.0824291 0)
(0.0638491 0.0738487 0)
(0.0673626 0.0647905 0)
(0.0705651 0.0552837 0)
(0.0734509 0.045363 0)
(0.0760304 0.0350744 0)
(0.0783343 0.0244882 0)
(0.080417 0.0137267 0)
(0.0823185 0.00301209 0)
(0.0839194 -0.00732745 0)
(0.00179497 0.141921 0)
(0.00453266 0.141651 0)
(0.00781748 0.138621 0)
(0.0113287 0.135249 0)
(0.0150354 0.131594 0)
(0.0188795 0.127598 0)
(0.0228197 0.123203 0)
(0.0268116 0.118362 0)
(0.0308083 0.113042 0)
(0.0347619 0.107224 0)
(0.038625 0.100896 0)
(0.0423512 0.0940574 0)
(0.045896 0.0867167 0)
(0.0492167 0.0788865 0)
(0.0522732 0.0705845 0)
(0.0550292 0.0618294 0)
(0.0574554 0.0526397 0)
(0.0595348 0.0430331 0)
(0.0612709 0.0330305 0)
(0.0627055 0.0226696 0)
(0.0639484 0.0120522 0)
(0.0651577 0.0014766 0)
(0.0661829 -0.0084245 0)
(0.0014509 0.139246 0)
(0.00372529 0.138781 0)
(0.00642881 0.135555 0)
(0.00930878 0.132007 0)
(0.0123496 0.128206 0)
(0.0155111 0.124098 0)
(0.0187623 0.119629 0)
(0.0220672 0.114756 0)
(0.0253853 0.10945 0)
(0.0286736 0.103689 0)
(0.0318873 0.0974652 0)
(0.0349799 0.0907774 0)
(0.0379036 0.0836328 0)