/*--------------------------------*- C++ -*----------------------------------*\
  =========                 |
  \\      /  F ield         | OpenFOAM: The Open Source CFD Toolbox
   \\    /   O peration     | Website:  https://openfoam.org
    \\  /    A nd           | Version:  13
     \\/     M anipulation  |
\*---------------------------------------------------------------------------*/
FoamFile
{
    format      ascii;
    class       volScalarField;
    location    "2.6";
    object      alphas;
}
// * * * * * * * * * * * * * * * * * * * * * * * * * * * * * * * * * * * * * //

dimensions      [];

internalField   nonuniform List<scalar> 
2268
(
2
2
2
2
2
2
2
2
2
2
2
2
2
2
2
2
2
2
2
2
1.99963
1.99943
1.99943
2
2
2
2
2
2
2
2
2
2
2
2
2
2
2
2
2
2
2
2
1.99992
1.9998
1.99976
2
2
2
2
2
2
2
2
2
2
2
2
2
2
2
2
2
2
2
2
2
2
2
2
2
2
2
2
2
2
2
2
2
2
2
2
2
2
2
2
2
2
2
2
2
2
1.9611
1.95651
1.96231
1.97521
1.98838
1.99725
2
2
2
2
2
2
2
2
2
2
2
2
2
2
2
2
2
0.649424
0.679989
0.719985
0.794907
0.903909
1.04071
1.20162
1.36799
1.50657
1.6401
1.76453
1.87133
1.9509
1.99722
2
2
2
2
2
2
2
2
2.00001
5.10249e-08
8.03669e-08
1.89169e-07
2.40551e-06
6.957e-06
4.82294e-06
1.43578e-06
0.0119033
0.0703856
0.155239
0.273173
0.436211
0.655724
0.939294
1.26434
1.55315
1.78566
1.95569
2
2
2
2.00001
2.0005
9.75189e-08
2.36757e-07
8.20993e-07
4.93566e-07
1.35548e-05
7.892e-06
1.79845e-06
8.56703e-07
2.721e-07
7.88553e-08
3.23483e-08
1.89366e-08
1.06238e-08
0.00189458
0.0315005
0.138846
0.333748
0.608619
0.983665
1.32569
1.55884
1.69221
1.79657
1.86757
1.86747
1.86097
1.8861
1.90981
1.92499
1.75818
1.75097
1.74712
1.75594
1.76134
1.74775
1.67918
1.75333
1.73062
1.65569
1.73119
1.77753
1.76764
1.59704
1.6483
1.70949
1.73462
1.78078
1.78528
1.86696
1.85897
1.87896
1.95757
1.91946
1.82839
1.81299
1.91334
1.89482
1.85563
1.7773
1.77719
1.76758
0.9923
0.982691
1.18858
1.33413
1.31768
1.22521
1.28288
1.36153
1.52688
2.13928
2.30341
2.11379
2.01493
2.19782
2.24604
2.01684
1.72342
1.61469
1.58188
0.48537
0.375532
0.511896
0.65237
0.79475
0.718376
0.426968
0.328496
0.318252
1.37423
2.30814
2.42015
2.39993
2.37401
2.34013
2.17018
1.69497
1.53916
1.76102
0.21967
0.225271
0.226939
0.282705
0.499458
0.824626
0.713769
0.523656
0.208131
0.166323
1.36274
2.08639
2.25767
2.20337
1.62094
0.837473
0.744279
0.586879
1.37329
0.233428
0.243934
0.215943
0.223484
0.626395
0.879797
0.928782
0.945001
0.368025
0.0234783
0.0423614
1.53056
2.04443
1.57855
0.273795
0.0148349
0.000235232
0.000252394
1.06813
0.251012
0.254412
0.248397
0.170331
0.776817
1.06681
1.07993
0.879183
0.183643
0.0178241
0.00127687
0.111011
1.99714
1.08849
0.017489
0.000285133
0.000365574
0.00179174
0.750834
0.194134
0.219738
0.238686
0.193451
0.697191
1.15341
1.12407
0.340576
0.00372504
0.00293233
0.00101828
0.0172796
1.13137
0.552861
0.000399307
0.000308183
0.00232402
0.0283315
0.581292
1.16472e-07
1.162e-06
9.55852e-05
0.000269067
0.000121816
3.49364e-06
8.2541e-07
4.7563e-07
3.16348e-07
1.82983e-07
1.24226e-07
9.73872e-08
5.90973e-08
2.46471e-08
2.4096e-08
5.60436e-08
7.76366e-08
1.31276e-07
0.00459264
0.0278086
0.0655306
0.0985702
0.156173
0.0149917
0.00724876
0.00419583
0.00203313
8.5169e-05
7.29683e-07
5.7213e-07
4.25831e-07
2.87392e-07
1.85826e-07
1.29309e-07
5.75787e-08
1.95101e-09
2.37279e-09
3.93702e-09
9.25883e-09
2.43219e-08
3.18148e-08
2.25293e-06
1.10793e-05
4.61762e-05
0.00915737
0.0141812
0.306607
0.0980244
0.00430165
0.000559707
2.58078e-06
1.41831e-06
0.00798003
0.0113234
0.00925309
0.00691911
0.00590415
0.00996228
0.0229138
0.031023
0.0227154
0.00408649
3.15287e-05
9.61032e-05
0.00890548
0.0539274
0.179008
0.27338
0.397236
0.611629
0.528789
0.443743
0.398298
0.333281
0.315907
0.438663
0.475318
0.477858
0.487942
0.504605
0.540033
0.597068
0.625026
0.623323
0.643162
0.680894
0.735458
0.794353
0.840866
0.893549
0.948207
1.17002
1.22893
1.01101
1.00035
0.999752
0.997445
1.21561
1.23368
1.26357
1.30058
1.3195
1.34827
1.27821
1.21728
1.20609
1.24971
1.29751
1.20534
1.05414
1.03963
1.04157
1.01687
1.06953
1.17481
1.01701
0.99967
1.00059
1.0013
1.07591
1.12325
1.03386
1.00001
1.02026
1.032
1.00918
1.00463
1.00177
1.00111
1.00638
1.00588
1
1
1
1
1.00672
1.01049
0.999998
1.00127
0.999275
0.999947
0.999999
1
1
1
1
1
1
1
1
1
1
1
1
1
1
1
0.999999
1
1
0.999998
1.16034
1.09822
1.0612
1.06279
1.06185
1.09321
1.08878
1.06914
1.07464
1.08716
1.10178
1.11781
1.1355
1.15215
1.16832
1.18784
1.20935
1.22641
1.23767
1.24434
1.24654
1.24091
1.2264
2.60015
2.50202
2.35833
2.32014
2.31123
2.28489
2.2984
2.35571
2.40463
2.44142
2.47907
2.52432
2.56814
2.60518
2.6374
2.66781
2.69503
2.7145
2.72754
2.73628
2.73979
2.7359
2.71845
3
3
3
2.99999
3
3
3
3
3
3
3
3
3
3
3
3
3
3
3
3
3
3
3
3
3
3
3
3
3
3
3
3
3
3
3
3
3
3
3
3
3
3
3
3
3
3
3
2.99999
2.99999
3
3
3
3
2.99998
2.99997
2.99999
3
3
3
3
3
3
3
3
3
3
3
3
3
3
2.99998
2.99993
2.99994
3
3
2.99997
2.99972
2.99967
2.9999
3
3
3
3
3
3
3
3
3
3
3
3
3
3
2.99996
2.99988
2.99989
2.99995
3
2.9999
2.99967
2.99967
2.99967
2.99989
2.99999
2.99999
3
3
3
3
3
3
3
3
3
3
3
2.99998
2.99989
2.99989
2.99996
3
2.99999
2.99976
2.99967
2.99967
2.99984
2.99999
2.99999
2.99999
2.99999
3
3
3
3
3
3
3
3
3
2.99999
2.99997
2.99996
3
3
3
2.99999
2.99988
2.99983
2.99997
2.99999
2.99999
2.99999
2.99999
3
3
3
3
3
3
3
3
3
3
3
3
3
3
3
3
3
3
3
3
2.99999
2.99999
3
3
3
3
3
3
3
3
3
3
3
3
3
3
3
3
3
3
3
3
3
3
3
3
3
3
3
3
3
3
3
3
3
3
3
3
3
3
3
3
3
3
3
3
3
3
3
3
3
3
3
3
3
3
3
3
3
3
3
3
3
3
3
3
3
3
3
3
3
3
3
3
3
3
3
3
3
3
3
3
3
3
3
3
3
3
3
3
3
3
3
3
3
3
3
3
3
3
3
3
3
3
3
3
3
3
3
3
3
3
3
3
3
3
3
3
3
3
3
3
3
3
3
3
3
3
3
3
3
3
3
3
3
3
3
3
3
3
3
3
3
3
3
3
3
3
3
3
3
3
3
3
3
3
3
3
3
3
3
3
3
3
3
3
3
3
3
3
3
3
3
3
3
3
3
3
3
3
3
3
3
3
3
3
3
3
3
3
3
3
3
3
3
3
3
3
3
3
3
3
3
3
3
3
3
3
3
3
3
3
3
3
3
3
3
3
3
3
3
3
3
3
3
3
3
3
3
3
3
3
3
3
3
3
3
3
3
3
3
3
3
3
3
3
3
3
3
3
3
3
3
3
3
3
3
3
3
3
3
3
3
3
3
3
3
3
3
3
3
3
3
3
3
3
3
3
3
3
3
3
3
3
3
3
3
3
3
3
3
3
3
3
3
3
3
3
3
3
3
3
3
3
3
3
3
3
3
3
3
3
3
3
3
3
3
3
3
3
3
3
3
3
3
3
3
3
3
3
3
3
3
3
3
3
3
3
3
3
3
3
3
3
3
3
3
3
3
3
3
3
3
3
3
3
3
3
3
3
3
3
3
3
3
3
3
3
3
3
3
3
3
3
3
3
3
3
3
3
3
3
3
3
3
3
3
3
3
3
3
3
3
3
3
3
3
3
3
3
3
3
3
3
3
3
3
3
3
3
3
3
3
3
3
3
3
3
3
3
3
3
3
3
3
3
3
3
3
3
3
3
3
3
3
3
3
3
3
3
3
3
3
3
3
3
3
3
3
3
3
3
3
3
3
3
3
3
3
3
3
3
3
3
3
3
3
3
3
3
3
3
3
3
3
3
3
3
3
3
3
3
3
3
3
3
3
3
3
3
3
3
3
3
3
3
3
3
3
3
3
3
3
3
3
3
3
3
3
3
3
3
3
3
3
3
3
3
3
3
3
3
3
3
3
3
3
3
3
3
3
3
3
3
3
3
3
3
3
3
3
3
3
3
3
3
3
3
3
3
3
3
3
3
3
3
3
3
3
3
3
3
3
3
3
3
3
3
3
3
3
3
3
3
3
3
3
3
3
3
3
3
3
3
3
3
0.166572
0.0718175
0.000234603
0.000223147
0.00831448
0.00292679
0.011191
0.0271864
0.417924
0.292192
0.246594
0.565674
1.25093
1.27818
1.26942
1.20912
1.12851
1.03082
1.00018
1.00024
0.999993
1
0.999995
0.999995
0.999997
0.999998
0.999989
0.999985
1.1882
1.17566
1.16225
1.14987
2.66884
2.65054
2.63221
2.61768
3
3
3
3
3
3
3
3
3
3
3
3
3
3
3
3
3
3
3
3
3
3
3
3
3
3
3
3
3
3
3
3
3
3
3
3
3
3
3
3
3
3
3
3
3
3
3
3
3
3
3
3
3
3
3
3
3
3
3
3
3
3
3
3
3
3
3
3
3
3
3
3
3
3
3
3
3
3
3
3
3
3
3
3
3
3
3
3
3
3
3
3
3
3
3
3
3
3
3
3
3
3
3
3
3
3
3
3
3
3
3
3
3
3
3
3
3
3
3
3
3
3
3
3
3
3
3
3
3
3
3
3
0.0212831
0.2439
0.237265
0.22461
0.692913
1.22674
0.680101
0.0285279
0.00441853
0.00215831
0.001315
0.000917527
0.0272582
0.0131471
0.000290381
0.000307815
0.0165956
0.148717
0.454668
0.0424458
0.45717
0.502267
0.531943
0.791837
1.08049
0.676577
0.333995
0.0764923
0.0309732
0.00657601
0.0064458
0.00550111
0.00591547
0.0264673
0.095548
0.232294
0.469018
0.382552
1.04743
1.10121
0.941151
0.820261
1.1764
1.21505
0.919832
0.930693
0.823067
0.760411
0.711975
0.625451
0.506865
0.519195
0.611145
0.739388
0.831763
1.03328
0.97886
1.19859
1.17987
1.09325
1.02819
1.03588
1.25053
1.33243
1.26395
1.01845
0.999973
1.00001
1.00007
1.00013
1.00018
1.00039
1.00049
1.0006
1.02713
1.03579
1.00089
1.00007
1.00007
1.00007
0.999527
1.03863
1.06935
1.02645
1.00087
1
1.00001
1
1
0.999999
1.00019
1.00044
1.00038
1.00001
0.999863
1
0.999995
1.00008
1.00044
1
1
1
1
1
1
1
1
1
1
1.00001
1.0001
1.00009
1.00001
1.00001
0.999992
0.999998
1
0.999999
1
1
1
1
1
1
1
0.999999
0.999986
0.999982
0.999998
1.00001
1.00001
1.00001
1.00001
1.13886
1.10713
1.08481
1.07062
1.0624
1.06068
1.0646
1.078
1.10256
1.13266
1.15575
1.14038
1.11411
1.09404
1.09713
1.06558
1.00658
0.995612
0.99564
2.61172
2.56826
2.53158
2.51092
2.50581
2.51803
2.55583
2.60732
2.65215
2.67737
2.68443
2.67264
2.61105
2.50506
2.46149
2.38841
2.22261
1.91818
1.73107
3
3
3
3
3
3
2.99999
2.99996
2.99992
2.9999
2.99941
2.9989
2.99887
2.99728
2.99238
2.98623
2.98229
2.97598
2.95154
3
3
3
2.99969
2.99906
2.99876
2.99888
2.99964
2.99989
2.99989
2.99969
2.99868
2.99858
2.99912
2.99999
3
2.99999
2.99999
2.99999
3
3
2.99999
2.99927
2.99805
2.99805
2.99827
2.99986
3
2.99984
2.9984
2.99831
2.99887
2.99965
3
3
3
3
3
3
3
3
2.99999
2.99973
2.99952
3
3
3
2.99998
2.99985
2.99963
2.99996
2.99997
3
3
3
3
3
3
3
3
3
3
3
3
2.99999
3
3
3
2.99999
3
3
3
3
3
3
3
3
3
3
3
3
3
3
3
3
3
3
3
3
3
3
3
3
3
3
3
3
3
3
3
3
3
3
3
3
3
3
3
3
3
3
3
3
3
3
3
3
3
3
3
3
3
3
3
3
3
3
3
3
3
3
3
3
3
3
3
3
3
3
3
3
3
3
3
3
3
3
3
3
3
3
3
3
3
3
3
3
3
3
3
3
3
3
3
3
3
3
3
3
3
3
3
3
3
3
3
3
3
3
3
3
3
3
3
3
3
3
3
3
3
3
3
3
3
3
3
3
3
3
3
3
3
3
3
3
3
3
3
3
3
3
3
3
3
3
3
3
3
3
3
3
3
3
3
3
3
3
3
3
3
3
3
3
3
3
3
3
3
3
3
3
3
3
3
3
3
3
3
3
3
3
3
3
3
3
3
3
3
3
3
3
3
3
3
3
3
3
3
3
3
3
3
3
3
3
3
3
3
3
3
3
3
3
3
3
3
3
3
3
3
3
3
3
3
3
3
3
3
3
3
3
3
3
3
3
3
3
3
3
3
3
3
3
3
3
3
3
3
3
3
3
3
3
3
3
3
3
3
3
3
3
3
3
3
3
3
3
3
3
3
3
3
3
3
3
3
3
3
3
3
3
3
3
3
3
3
3
3
3
3
3
3
3
3
3
3
3
3
3
3
3
3
3
3
3
3
3
3
3
3
3
3
3
3
3
3
3
3
3
3
3
3
3
3
3
3
3
3
3
3
3
3
3
3
3
3
3
3
3
3
3
3
3
3
3
3
3
3
3
3
3
3
3
3
3
3
3
3
3
3
3
3
3
3
3
3
3
3
3
3
3
3
3
3
3
3
3
3
3
3
3
3
3
3
3
3
3
3
3
3
3
3
3
3
3
3
3
3
3
3
3
3
3
3
3
3
3
3
3
3
3
3
3
3
3
3
3
3
3
3
3
3
3
3
3
3
3
3
3
3
3
3
3
3
3
3
3
3
3
3
3
3
3
3
3
3
3
3
3
3
3
3
3
3
3
3
3
3
3
3
3
3
3
3
3
3
3
3
3
3
3
3
3
3
3
3
3
3
3
3
3
3
3
3
3
3
3
3
3
3
3
3
3
3
3
3
3
3
3
3
3
3
3
3
3
3
3
3
3
3
3
3
3
3
3
3
3
3
3
3
3
3
3
3
3
3
3
3
3
3
3
3
3
3
3
3
3
3
)
;

boundaryField
{
    leftWall
    {
        type            calculated;
        value           nonuniform List<scalar> 
50
(
2
2
2
2
1.9611
0.649424
5.10249e-08
9.75189e-08
1.16472e-07
0.0149917
0.306607
0.611629
1.22893
1.01701
1.00127
1.16034
2.60015
3
3
3
3
3
3
3
3
3
3
3
3
3
3
3
3
3
3
3
3
3
3
3
3
3
3
3
3
3
3
3
3
3
)
;
    }
    rightWall
    {
        type            calculated;
        value           nonuniform List<scalar> 
50
(
1.76764
1.76758
1.58188
1.76102
1.37329
1.06813
0.750834
0.581292
0.454668
0.382552
0.97886
1.03579
0.999863
1.00001
1.00001
0.99564
1.73107
2.95154
2.99999
3
3
3
3
3
3
3
3
3
3
3
3
3
3
3
3
3
3
3
3
3
3
3
3
3
3
3
3
3
3
3
)
;
    }
    lowerWall
    {
        type            calculated;
        value           nonuniform List<scalar> 
62
(
2
2
2
2
2
2
2
2
2
2
2
2
2
2
2
2
2
2
2
2
1.99963
1.99943
1.99943
1.99943
1.99976
2
2
2
2.00001
2.0005
1.79657
0.166572
0.0718175
0.000234603
0.000223147
1.86757
1.59704
0.9923
0.48537
0.21967
0.233428
0.251012
0.194134
1.86757
1.86747
1.86097
1.8861
1.90981
1.92499
1.75818
1.75097
1.74712
1.75594
1.76134
1.74775
1.67918
1.75333
1.73062
1.65569
1.73119
1.77753
1.76764
)
;
    }
    atmosphere
    {
        type            calculated;
        value           nonuniform List<scalar> 
46
(
3
3
3
3
3
3
3
3
3
3
3
3
3
3
3
3
3
3
3
3
3
3
3
3
3
3
3
3
3
3
3
3
3
3
3
3
3
3
3
3
3
3
3
3
3
3
)
;
    }
    defaultFaces
    {
        type            empty;
    }
}


// ************************************************************************* //
