/*--------------------------------*- C++ -*----------------------------------*\
  =========                 |
  \\      /  F ield         | OpenFOAM: The Open Source CFD Toolbox
   \\    /   O peration     | Website:  https://openfoam.org
    \\  /    A nd           | Version:  13
     \\/     M anipulation  |
\*---------------------------------------------------------------------------*/
FoamFile
{
    format      ascii;
    class       volScalarField;
    location    "2.6";
    object      alpha.mercury;
}
// * * * * * * * * * * * * * * * * * * * * * * * * * * * * * * * * * * * * * //

dimensions      [];

internalField   nonuniform List<scalar> 
2268
(
1
1
1
1
1
1
1
1
1
1
1
1
1
1
1
1
1
1
1
0.999998
0.999633
0.999433
0.999433
1
1
1
1
1
1
1
1
1
1
1
1
1
1
1
1
1
1
1
0.999999
0.999924
0.999801
0.999764
1
1
1
1
1
1
1
1
1
1
1
1
1
1
1
1
1
1
1
0.999999
1
1
1
1
1
1
1
1
1
1
1
1
1
1
1
1
1
1
1
1
1
1
1
1
1
1
0.980552
0.978256
0.981155
0.987606
0.99419
0.998627
1
1
1
1
1
1
1
1
1
1
1
1
1
1
1
1
1
0.324712
0.339995
0.359992
0.397453
0.451953
0.520354
0.600809
0.683993
0.753286
0.820049
0.882266
0.935664
0.975449
0.998609
1
1
1
1
1
1
1
1
0.999988
1.40261e-22
1.24547e-22
1.05413e-22
-3.76632e-10
-2.95332e-10
-1.01604e-10
-1.25047e-11
0.00595151
0.0351928
0.0776196
0.136586
0.218106
0.327862
0.469647
0.632168
0.776573
0.892832
0.977842
0.999999
0.999999
0.999995
0.999989
0.999444
1.71689e-10
1.35342e-10
8.9559e-11
-9.96551e-10
-1.15446e-09
-6.19381e-10
-1.42779e-10
-5.36001e-12
8.13292e-30
2.53055e-20
5.60259e-20
4.53549e-10
4.89498e-10
0.000947287
0.0157503
0.0694228
0.166874
0.304309
0.491832
0.662845
0.779419
0.845306
0.897222
0.877644
0.877791
0.877779
0.877767
0.8759
0.820021
0.639307
0.643479
0.657072
0.666185
0.645724
0.623547
0.656498
0.751231
0.752529
0.752502
0.75251
0.752475
0.752485
0.603048
0.654134
0.718272
0.766024
0.843291
0.8421
0.824038
0.809971
0.825171
0.825027
0.795702
0.71219
0.73031
0.752407
0.752483
0.752511
0.752475
0.752485
0.75244
0.277781
0.271771
0.325854
0.397015
0.460922
0.605305
0.640521
0.68057
0.678575
0.701978
0.65687
0.644337
0.636672
0.618257
0.62626
0.659427
0.625768
0.571387
0.549535
0.12011
0.130151
0.13157
0.144363
0.1347
0.143777
0.184962
0.155865
0.126671
0.153817
0.258466
0.273164
0.252903
0.227059
0.194579
0.13817
0.147005
0.20368
0.279764
0.0817356
0.089431
0.0919821
0.109314
0.0778992
0.0353855
0.0352889
0.0410083
0.0395838
0.0118034
0.0130378
0.0928339
0.124032
0.0777175
0.0142459
6.36815e-19
1.14621e-32
-3.30709e-11
0.000962634
0.0581291
0.0588756
0.0880029
0.088918
0.107663
0.0573649
0.0502888
0.0546333
0.0518926
0.0117183
1.40148e-05
4.46499e-09
7.58918e-09
0.00108479
1.61088e-09
6.14464e-09
5.90247e-08
9.5258e-09
2.07822e-09
0.0171829
0.0203392
0.0259163
0.0411515
0.0952441
0.0934463
0.0845172
0.0844188
0.0443796
0.00889142
0.000617816
5.37194e-05
3.60617e-08
3.14965e-08
2.48512e-07
5.67838e-06
2.78231e-07
1.45257e-08
2.09399e-09
0.0197772
0.0168938
0.00773212
0.00671226
0.043963
0.0898493
0.0901703
0.0548059
0.000319073
0.00138876
0.00048431
0.000107948
1.06715e-08
9.35094e-07
1.51381e-06
1.08279e-05
7.57496e-06
3.2326e-08
1.90288e-09
3.01752e-10
3.0696e-10
3.29213e-10
3.49234e-10
3.90516e-10
4.31502e-10
4.48223e-10
4.40343e-10
4.34533e-10
4.62478e-10
5.75266e-10
5.17156e-10
5.12368e-10
1.90477e-10
1.26424e-09
3.82277e-09
1.24469e-08
4.4237e-08
0.00229616
0.0139032
0.0327653
0.0490389
0.0771404
3.50387e-10
3.87277e-10
4.90419e-10
6.55299e-10
8.40621e-10
9.60593e-10
9.44311e-10
8.63153e-10
8.23384e-10
9.92781e-10
1.30791e-09
1.2749e-09
8.08475e-10
1.00567e-09
1.69153e-09
4.08217e-09
1.12361e-08
1.43325e-08
1.11757e-06
5.53387e-06
7.69537e-06
-1.19872e-08
1.6369e-08
3.93787e-10
4.51283e-10
5.80254e-10
7.50613e-10
9.36062e-10
1.04127e-09
1.09527e-09
1.10819e-09
1.10077e-09
1.02664e-09
9.00639e-10
7.5866e-10
5.99222e-10
5.44267e-10
5.54077e-10
7.50898e-10
1.99899e-09
5.51022e-09
4.39837e-08
9.50617e-07
2.64125e-06
1.93763e-06
4.84502e-07
4.35373e-10
4.85417e-10
5.81315e-10
6.48717e-10
7.2489e-10
8.0469e-10
8.73278e-10
9.29575e-10
1.00249e-09
1.10499e-09
1.22006e-09
1.28043e-09
1.27456e-09
1.27334e-09
1.34607e-09
1.51178e-09
1.96384e-09
2.99528e-09
3.16626e-09
2.32195e-09
2.3524e-09
3.31491e-08
4.35217e-08
4.64321e-10
5.12073e-10
5.69686e-10
6.29542e-10
7.44963e-10
9.18364e-10
1.06592e-09
1.1957e-09
1.36616e-09
1.58567e-09
1.74272e-09
1.81875e-09
1.85183e-09
1.85941e-09
1.8801e-09
2.45002e-09
3.88739e-09
4.62383e-09
3.10124e-09
2.3524e-09
1.20472e-08
6.24949e-07
2.50781e-06
4.6853e-10
5.07841e-10
5.52634e-10
6.47999e-10
8.34261e-10
1.04514e-09
1.12838e-09
1.19104e-09
1.25105e-09
1.32802e-09
1.39001e-09
1.41252e-09
1.38418e-09
1.33676e-09
1.83519e-09
3.8307e-09
5.0135e-09
4.95449e-09
4.36942e-09
1.17675e-08
3.2752e-08
1.18405e-06
1.30126e-05
4.66013e-10
4.48463e-10
4.01146e-10
4.92248e-10
5.87639e-10
6.21933e-10
5.82876e-10
5.62128e-10
5.95657e-10
6.98151e-10
8.22492e-10
9.516e-10
1.10912e-09
1.27165e-09
1.53183e-09
1.89055e-09
2.86325e-09
3.57116e-09
3.5102e-09
5.82536e-08
3.91837e-07
5.23289e-07
3.74298e-10
4.62566e-10
4.45836e-10
3.51529e-10
2.74641e-10
2.77634e-10
2.32532e-10
1.71991e-10
1.63647e-10
1.79469e-10
2.70937e-10
4.18865e-10
6.15849e-10
8.57753e-10
1.04767e-09
1.19435e-09
2.03545e-09
5.82952e-09
8.27703e-09
7.84286e-09
2.94461e-09
4.20318e-10
4.14335e-10
4.85249e-10
4.39274e-10
4.4585e-10
3.6792e-10
1.96603e-10
1.23246e-10
7.14297e-11
4.27368e-11
3.92409e-11
4.95892e-11
9.31975e-11
1.257e-10
1.36875e-10
1.38686e-10
1.46299e-10
1.97564e-10
2.53618e-10
2.63914e-10
3.17865e-10
3.21454e-10
3.3466e-10
5.9236e-10
1.12661e-09
2.09169e-09
3.29803e-10
4.02894e-10
3.54113e-10
2.07851e-10
9.53631e-11
4.77413e-11
2.63128e-11
2.27598e-11
2.28207e-11
2.45126e-11
2.42896e-11
2.17205e-11
1.92628e-11
1.79527e-11
1.72039e-11
1.78548e-11
1.81755e-11
4.05691e-11
1.77821e-10
4.95052e-10
8.16992e-10
1.4756e-09
2.55843e-09
2.5619e-10
3.3037e-10
2.91327e-10
1.64526e-10
9.28906e-11
6.30301e-11
4.4935e-11
3.28126e-11
2.29648e-11
1.65859e-11
1.37288e-11
1.11216e-11
9.6884e-12
8.95331e-12
8.5523e-12
8.5877e-12
9.80441e-12
4.5433e-11
1.49766e-10
2.66961e-10
5.90032e-10
1.01312e-09
1.64561e-09
2.34549e-10
3.13473e-10
2.56489e-10
1.6847e-10
1.37253e-10
1.18934e-10
9.54764e-11
6.63864e-11
4.39734e-11
2.71781e-11
1.73313e-11
1.16517e-11
9.25447e-12
6.92593e-12
5.12122e-12
4.29125e-12
4.04831e-12
4.81557e-12
6.47066e-12
6.13939e-12
2.59103e-12
1.45066e-12
1.4601e-12
2.29459e-10
3.15087e-10
3.09487e-10
2.23361e-10
1.96271e-10
1.89297e-10
1.68358e-10
1.3063e-10
9.14883e-11
5.78148e-11
2.99338e-11
1.80314e-11
1.1306e-11
7.59967e-12
4.73752e-12
3.45297e-12
2.68964e-12
2.09329e-12
1.74766e-12
1.63989e-12
1.78744e-12
1.93564e-12
1.81559e-12
2.24509e-10
3.32619e-10
3.53954e-10
3.03742e-10
2.76141e-10
2.55612e-10
2.1678e-10
1.85059e-10
1.37382e-10
9.53558e-11
5.90691e-11
2.82872e-11
1.54962e-11
9.80767e-12
6.03972e-12
3.78613e-12
2.64417e-12
1.76801e-12
1.28738e-12
1.09276e-12
1.25269e-12
1.39122e-12
1.42778e-12
2.12842e-10
3.36347e-10
3.86312e-10
3.75686e-10
3.31511e-10
2.93186e-10
2.4949e-10
1.98877e-10
1.6759e-10
1.17913e-10
7.04447e-11
3.87195e-11
2.16975e-11
1.32216e-11
8.34666e-12
4.9566e-12
2.99009e-12
1.77204e-12
1.19428e-12
8.57045e-13
7.294e-13
7.26357e-13
1.05669e-12
1.92705e-10
3.2745e-10
3.87587e-10
3.85759e-10
3.48578e-10
3.0321e-10
2.53833e-10
2.01394e-10
1.60614e-10
1.18231e-10
7.73887e-11
4.38405e-11
2.58395e-11
1.63565e-11
1.0169e-11
5.88923e-12
3.71925e-12
2.05155e-12
1.17692e-12
8.34627e-13
6.40139e-13
5.01409e-13
5.47462e-13
1.67915e-10
3.0126e-10
3.74087e-10
3.72393e-10
3.32688e-10
2.81653e-10
2.32962e-10
1.78425e-10
1.37681e-10
1.00754e-10
6.98191e-11
4.53674e-11
2.63468e-11
1.66561e-11
1.06336e-11
6.26116e-12
3.89724e-12
2.27229e-12
1.26653e-12
8.60313e-13
6.33451e-13
4.30143e-13
3.3052e-13
1.40073e-10
2.62578e-10
3.24114e-10
3.16149e-10
2.83619e-10
2.29112e-10
1.73584e-10
1.42231e-10
1.06447e-10
7.98561e-11
5.63032e-11
3.67732e-11
2.60299e-11
1.5557e-11
9.96727e-12
6.12478e-12
3.69308e-12
2.17822e-12
1.32911e-12
8.43923e-13
6.24629e-13
4.1977e-13
3.01342e-13
1.13846e-10
2.17328e-10
2.70776e-10
2.5484e-10
2.19456e-10
1.83567e-10
1.31841e-10
1.02146e-10
7.78886e-11
5.92609e-11
3.93269e-11
2.58031e-11
1.9425e-11
1.19897e-11
7.76414e-12
5.27254e-12
3.39938e-12
2.01661e-12
1.23729e-12
8.03227e-13
5.83951e-13
3.97484e-13
2.87048e-13
8.96414e-11
1.72317e-10
2.14714e-10
1.98837e-10
1.67978e-10
1.40277e-10
1.03358e-10
7.71793e-11
5.70104e-11
3.72333e-11
2.32467e-11
1.61704e-11
1.196e-11
8.21611e-12
5.47033e-12
3.91456e-12
2.63063e-12
1.78712e-12
1.09961e-12
7.29844e-13
5.26718e-13
3.56396e-13
2.59262e-13
7.13153e-11
1.28369e-10
1.58671e-10
1.45847e-10
1.23017e-10
1.00358e-10
7.49816e-11
5.53951e-11
4.01366e-11
2.37859e-11
1.33454e-11
9.57347e-12
7.0758e-12
5.07668e-12
3.69257e-12
2.72216e-12
1.88055e-12
1.32527e-12
9.26516e-13
6.30269e-13
4.46861e-13
3.03692e-13
2.19307e-13
5.24983e-11
9.28684e-11
1.11702e-10
1.00258e-10
8.40544e-11
6.68475e-11
5.04923e-11
3.73649e-11
2.66327e-11
1.51773e-11
9.00006e-12
5.6611e-12
4.26244e-12
3.18444e-12
2.38071e-12
1.75993e-12
1.26e-12
9.32844e-13
6.83528e-13
4.89177e-13
3.4518e-13
2.37154e-13
1.71859e-13
3.74593e-11
6.06886e-11
7.12054e-11
6.5586e-11
5.49855e-11
4.269e-11
3.2361e-11
2.39242e-11
1.70654e-11
1.0223e-11
5.52143e-12
3.89652e-12
2.75433e-12
1.99854e-12
1.47213e-12
1.07821e-12
7.88598e-13
6.07836e-13
4.56644e-13
3.3702e-13
2.3778e-13
1.67325e-13
1.21504e-13
2.48749e-11
4.13994e-11
4.39591e-11
3.93264e-11
3.31467e-11
2.65313e-11
2.05614e-11
1.50035e-11
1.04946e-11
6.63905e-12
4.10673e-12
2.6831e-12
1.78644e-12
1.2335e-12
8.70263e-13
6.22129e-13
4.5694e-13
3.59788e-13
2.75611e-13
2.0692e-13
1.49894e-13
1.04732e-13
7.54184e-14
1.70118e-11
2.68044e-11
2.73248e-11
2.40918e-11
1.95183e-11
1.56217e-11
1.21593e-11
9.16906e-12
6.46656e-12
4.33636e-12
2.81441e-12
1.78763e-12
1.14918e-12
7.48371e-13
4.94256e-13
3.42654e-13
2.52183e-13
1.92636e-13
1.47329e-13
1.11611e-13
7.8453e-14
5.71023e-14
4.15801e-14
1.08456e-11
1.65653e-11
1.6459e-11
1.40763e-11
1.15548e-11
9.1561e-12
6.96116e-12
5.22161e-12
3.79263e-12
2.64215e-12
1.78702e-12
1.15212e-12
7.16951e-13
4.45187e-13
2.71359e-13
1.79929e-13
1.2561e-13
9.24969e-14
6.80908e-14
5.06602e-14
3.75221e-14
2.70669e-14
1.92406e-14
7.22447e-12
1.02309e-11
9.60136e-12
7.89699e-12
6.37597e-12
5.03881e-12
3.91019e-12
2.91185e-12
2.14696e-12
1.55719e-12
1.0799e-12
6.97633e-13
4.37975e-13
2.63807e-13
1.52978e-13
9.28042e-14
5.89378e-14
4.08591e-14
2.80505e-14
2.07055e-14
1.49828e-14
1.06053e-14
7.72433e-15
4.41542e-12
5.97909e-12
5.41117e-12
4.29982e-12
3.33863e-12
2.58117e-12
1.94958e-12
1.45268e-12
1.10197e-12
8.17103e-13
5.82224e-13
3.88189e-13
2.41828e-13
1.44038e-13
8.12708e-14
4.63015e-14
2.73258e-14
1.741e-14
1.08588e-14
7.49111e-15
5.4053e-15
3.68047e-15
2.60432e-15
2.81423e-12
3.54489e-12
2.96235e-12
2.24019e-12
1.64815e-12
1.20235e-12
8.9034e-13
6.5856e-13
4.94144e-13
3.72971e-13
2.70473e-13
1.85227e-13
1.173e-13
7.0872e-14
4.03439e-14
2.16719e-14
1.21147e-14
6.91581e-15
3.87714e-15
2.53896e-15
1.63865e-15
1.05499e-15
7.58176e-16
1.62641e-12
1.95217e-12
1.5364e-12
1.08857e-12
7.51053e-13
5.22836e-13
3.68902e-13
2.67456e-13
2.00122e-13
1.51673e-13
1.11279e-13
7.6445e-14
4.96922e-14
2.99232e-14
1.73049e-14
9.37519e-15
4.78897e-15
2.60321e-15
1.29753e-15
7.5918e-16
4.76023e-16
2.88738e-16
1.96409e-16
9.4907e-13
1.01041e-12
7.38427e-13
4.85532e-13
3.12308e-13
2.08079e-13
1.3998e-13
9.83572e-14
7.06499e-14
5.34056e-14
3.94764e-14
2.73749e-14
1.78042e-14
1.10116e-14
6.34705e-15
3.40135e-15
1.70158e-15
8.71436e-16
4.02993e-16
2.18259e-16
1.16767e-16
6.89295e-17
4.51348e-17
4.95701e-13
4.87692e-13
3.26384e-13
1.98488e-13
1.19033e-13
7.33084e-14
4.6842e-14
3.14297e-14
2.24904e-14
1.64258e-14
1.20677e-14
8.64208e-15
5.67002e-15
3.45144e-15
1.94135e-15
1.06846e-15
5.17442e-16
2.57035e-16
1.08269e-16
5.35891e-17
2.86996e-17
1.49583e-17
9.07182e-18
2.3833e-13
2.06684e-13
1.28203e-13
7.24752e-14
4.01151e-14
2.33078e-14
1.41494e-14
9.22864e-15
6.26395e-15
4.58925e-15
3.37893e-15
2.40029e-15
1.57358e-15
9.46798e-16
5.35767e-16
2.74457e-16
1.32042e-16
6.24298e-17
2.45854e-17
1.16415e-17
5.43796e-18
2.81941e-18
1.58443e-18
1.0359e-13
7.7704e-14
4.41728e-14
2.3177e-14
1.19384e-14
6.26861e-15
3.77129e-15
2.45583e-15
1.66035e-15
1.19248e-15
8.66932e-16
6.14574e-16
3.86711e-16
2.27626e-16
1.20444e-16
6.24208e-17
2.86198e-17
1.25944e-17
4.9824e-18
2.09673e-18
9.49965e-19
4.55517e-19
2.34119e-19
3.5714e-14
2.44486e-14
1.28988e-14
6.38512e-15
3.1564e-15
1.6551e-15
9.68517e-16
5.88426e-16
3.94726e-16
2.75901e-16
1.97913e-16
1.33358e-16
8.2866e-17
4.72295e-17
2.49711e-17
1.20634e-17
5.37171e-18
2.21553e-18
8.27238e-19
3.2508e-19
1.39299e-19
6.3426e-20
3.00061e-20
1.12239e-14
7.17846e-15
3.57446e-15
1.69778e-15
7.52417e-16
3.70702e-16
2.10886e-16
1.30899e-16
8.45247e-17
5.76786e-17
4.0034e-17
2.70351e-17
1.60486e-17
9.11248e-18
4.69467e-18
2.18726e-18
9.15014e-19
3.41122e-19
1.26216e-19
4.31514e-20
1.72851e-20
7.39803e-21
3.17857e-21
2.71531e-15
1.59106e-15
7.47146e-16
3.36922e-16
1.58487e-16
7.95304e-17
4.35061e-17
2.60446e-17
1.65428e-17
1.11333e-17
7.66588e-18
5.10901e-18
3.10137e-18
1.66336e-18
8.13697e-19
3.54557e-19
1.36984e-19
4.78058e-20
1.62147e-20
5.1773e-21
1.95393e-21
7.3717e-22
2.83748e-22
4.9956e-16
2.66226e-16
1.25588e-16
6.04389e-17
2.9496e-17
1.46057e-17
7.91326e-18
4.8263e-18
3.15813e-18
2.15193e-18
1.47454e-18
9.46067e-19
5.38952e-19
2.74263e-19
1.25413e-19
5.05762e-20
1.79966e-20
5.75701e-21
1.77401e-21
5.61875e-22
1.85415e-22
6.22397e-23
2.26718e-23
6.04255e-17
3.061e-17
1.64075e-17
8.95985e-18
4.59199e-18
2.3797e-18
1.34433e-18
8.36939e-19
5.58044e-19
3.81541e-19
2.56141e-19
1.60688e-19
8.88975e-20
4.29331e-20
1.79759e-20
6.57876e-21
2.12804e-21
6.28076e-22
1.78226e-22
5.12568e-23
1.51341e-23
4.48127e-24
1.43407e-24
3.09227e-18
1.81555e-18
1.52238e-18
1.08867e-18
6.44028e-19
3.6003e-19
2.1776e-19
1.42985e-19
9.86513e-20
6.89393e-20
4.52205e-20
2.73987e-20
1.41241e-20
6.25095e-21
2.37399e-21
7.8804e-22
2.32383e-22
6.19739e-23
1.56149e-23
3.92273e-24
9.89936e-25
2.63509e-25
2.03108e-26
8.04789e-21
2.85377e-20
8.81057e-20
1.07502e-19
7.6704e-20
4.88664e-20
2.97658e-20
2.11395e-20
1.59778e-20
1.12436e-20
7.68016e-21
4.31882e-21
2.10621e-21
8.60211e-22
2.96687e-22
8.70146e-23
2.21453e-23
5.25712e-24
1.21859e-24
2.66118e-25
6.25443e-26
4.13259e-27
1.77842e-28
1.13119e-26
9.64797e-23
3.18286e-21
8.94744e-21
7.76438e-21
4.99139e-21
3.84759e-21
3.05463e-21
2.31722e-21
1.78986e-21
1.22056e-21
6.91651e-22
3.20112e-22
1.20462e-22
3.56382e-23
9.17186e-24
1.98388e-24
4.09975e-25
8.32658e-26
1.56334e-26
2.28555e-27
4.50686e-29
4.33259e-29
0.0824796
0.0355804
2.42184e-06
2.45905e-06
-2.5411e-23
2.64158e-08
1.99756e-05
3.91895e-06
1.73496e-06
3.23494e-06
7.51483e-05
0.000598079
2.00071e-08
0.000119444
0.000129086
0.000561974
1.21182e-06
0.000144545
0.000243148
0.000242711
1.55698e-05
9.64845e-06
1.96358e-07
6.69476e-10
3.89883e-10
3.50226e-10
3.52871e-10
6.4375e-10
8.72425e-10
1.07303e-09
1.92163e-09
2.44228e-09
2.97735e-09
3.3582e-09
5.00103e-09
6.72851e-09
3.38479e-09
3.46828e-09
3.30346e-09
4.23414e-09
1.81556e-09
1.81015e-09
1.65688e-09
4.37969e-09
1.45028e-12
1.42568e-12
1.43519e-12
1.35321e-12
1.53501e-12
1.54645e-12
1.63195e-12
1.83094e-12
1.60532e-12
2.16995e-12
3.04322e-12
4.74233e-12
1.65088e-12
2.80097e-12
4.73117e-12
8.67765e-12
1.28843e-12
2.57016e-12
4.87119e-12
9.42948e-12
3.09375e-13
9.13127e-13
2.81524e-12
6.39696e-12
2.21309e-13
2.06065e-13
3.60793e-13
1.61816e-12
2.08388e-13
1.68845e-13
1.44746e-13
1.21224e-13
1.95482e-13
1.6428e-13
1.38193e-13
1.20046e-13
1.72054e-13
1.40108e-13
1.27425e-13
1.18424e-13
1.35612e-13
1.14548e-13
9.75914e-14
8.79656e-14
9.95957e-14
8.24454e-14
7.1422e-14
6.20681e-14
6.33403e-14
5.26151e-14
4.57795e-14
3.98457e-14
3.54762e-14
2.89384e-14
2.44977e-14
2.21914e-14
1.62286e-14
1.35035e-14
1.1682e-14
1.04183e-14
6.57628e-15
5.44005e-15
4.63731e-15
3.96567e-15
2.18347e-15
1.68263e-15
1.4958e-15
1.33449e-15
6.53509e-16
5.1514e-16
4.41796e-16
3.65842e-16
1.56987e-16
1.24888e-16
1.04783e-16
9.20923e-17
3.55827e-17
2.84551e-17
2.3998e-17
1.93133e-17
6.93124e-18
5.05276e-18
4.40191e-18
3.54199e-18
1.1889e-18
8.94116e-19
6.92936e-19
5.23116e-19
1.60594e-19
1.22086e-19
9.38983e-20
6.65526e-20
2.0342e-20
1.42681e-20
9.81413e-21
6.64225e-21
2.00682e-21
1.34694e-21
9.02627e-22
5.09143e-22
1.68486e-22
1.01519e-22
6.99538e-23
2.21425e-23
1.05661e-23
3.32075e-24
1.27926e-24
1.93644e-25
1.22023e-25
2.80177e-26
9.91767e-27
4.8769e-27
1.92371e-28
5.26968e-28
1.43664e-27
4.50902e-27
1.90852e-28
4.86716e-28
1.68054e-27
5.39643e-27
1.13582e-28
3.89225e-28
1.32054e-27
3.98394e-27
0.0070005
0.0182456
0.0171351
0.00230912
0.0149702
0.0558434
0.0329849
5.03603e-05
4.83636e-05
5.37375e-05
0.000117609
0.000128329
6.15445e-05
2.31849e-05
4.20811e-06
2.77401e-05
0.000394669
0.000967169
1.90433e-09
5.05299e-06
0.0131111
0.00892554
0.00193874
0.0175922
0.0217584
0.00517676
8.02165e-05
4.66716e-05
2.6319e-05
3.1154e-05
6.54459e-05
6.62691e-05
4.15268e-05
6.7415e-06
3.55202e-05
0.000842806
0.00538064
0.00256986
0.000667118
0.000902141
0.000479403
0.00174373
0.00599633
0.00145631
0.000153037
0.000158819
0.000159746
4.44753e-05
1.36465e-06
3.93877e-06
5.50118e-06
8.93007e-07
1.45751e-05
5.85393e-05
0.000778822
0.0065855
0.00656528
0.000671369
0.000166644
5.08832e-05
0.000534682
7.7622e-07
7.12707e-07
2.48491e-05
0.000133287
0.000119466
1.74001e-05
1.113e-06
8.49788e-07
2.76108e-07
9.30165e-08
3.59381e-05
6.73378e-05
5.81704e-05
0.00259251
0.00521624
0.000218536
3.14775e-05
3.66831e-06
8.51377e-07
7.24207e-07
9.58935e-07
2.76373e-06
7.8444e-06
4.00252e-06
2.3945e-06
2.34516e-06
1.25214e-06
9.14052e-08
4.17858e-08
7.14888e-06
1.9828e-05
2.19748e-05
4.29564e-05
1.63042e-05
2.80708e-09
3.75856e-09
1.02797e-08
8.95063e-07
1.36667e-06
1.10195e-06
3.27177e-08
1.82054e-09
2.15106e-09
1.87284e-09
1.25429e-07
9.04492e-08
4.17753e-08
4.17857e-08
4.17753e-08
5.68152e-08
1.43534e-07
4.73519e-06
1.60889e-05
3.22026e-09
4.32659e-08
1.04395e-07
2.52517e-07
4.22423e-07
3.02371e-07
1.27083e-07
4.7894e-08
1.78002e-08
2.76317e-09
1.21093e-08
1.01883e-07
2.01749e-06
5.4262e-06
9.56097e-07
8.19727e-07
4.11602e-06
5.43114e-06
1.01805e-05
1.82718e-08
1.15694e-07
1.44231e-07
1.4466e-07
1.04103e-07
2.57874e-08
2.20327e-08
4.06032e-08
4.6141e-08
9.17661e-11
2.54235e-10
9.65009e-11
3.10016e-07
3.07742e-07
0.000469887
0.00172923
0.0024203
0.00206728
0.000713616
1.02491e-08
1.28168e-08
2.33367e-08
2.70423e-08
2.80741e-08
1.03565e-07
5.50261e-07
5.51653e-07
4.67244e-08
1.01534e-05
1.02024e-05
9.85301e-07
3.07741e-07
3.62024e-07
0.00141511
0.00272959
0.00272469
0.0027296
0.00187446
8.15348e-09
1.15056e-08
1.81388e-08
3.4572e-08
7.54566e-08
4.9538e-07
1.51955e-06
3.97861e-06
7.99084e-06
8.18491e-06
6.55591e-05
7.74319e-05
7.39092e-05
0.000160867
0.000558458
0.00106722
0.00175083
0.00159961
0.00103285
1.07648e-08
1.58472e-08
1.68024e-08
9.90583e-09
3.4514e-11
1.35137e-07
1.84131e-07
4.57307e-06
7.91174e-06
8.34937e-06
1.21329e-05
2.35742e-05
2.37478e-05
3.82492e-05
5.3592e-09
2.76101e-07
1.20416e-05
5.5136e-06
2.53861e-06
1.3861e-12
1.36868e-12
8.59159e-10
2.23958e-11
4.24091e-11
1.73559e-12
2.92731e-13
-2.3898e-11
1.01545e-07
5.66597e-07
7.43281e-08
3.71014e-06
3.5686e-06
2.4471e-23
-2.58498e-28
-1.81799e-24
2.92386e-23
8.12616e-16
-4.11165e-11
2.14537e-12
2.70568e-12
9.68582e-12
1.31827e-10
4.40489e-10
9.64863e-10
2.63632e-09
1.01379e-08
2.78061e-08
5.30694e-08
7.09611e-08
3.30317e-07
1.66581e-09
1.54883e-09
3.69373e-09
8.12897e-09
6.29145e-09
2.86842e-09
5.98744e-10
7.53807e-12
2.1242e-11
1.33742e-10
3.80957e-10
8.54391e-10
1.90234e-09
5.53215e-09
1.08939e-08
1.79325e-08
2.69704e-08
2.86673e-08
1.15169e-08
3.1826e-09
2.83798e-09
5.82536e-09
1.1188e-08
1.07094e-08
4.1049e-09
1.0992e-09
1.50059e-11
4.45269e-11
1.49925e-10
3.62371e-10
7.60592e-10
1.34609e-09
2.23635e-09
3.40107e-09
3.43159e-09
2.92763e-09
2.81932e-09
1.67811e-09
1.81303e-09
2.09468e-09
3.8619e-09
6.81792e-09
6.73622e-09
2.2824e-09
9.27126e-10
1.67562e-11
4.35629e-11
9.05476e-11
1.88466e-10
3.26272e-10
5.59863e-10
9.06492e-10
2.6209e-09
3.72669e-09
3.70523e-09
2.78917e-09
1.40664e-09
1.14779e-09
1.10027e-09
1.62312e-09
2.52944e-09
2.4944e-09
7.98589e-10
4.48856e-10
1.41078e-11
3.49489e-11
7.41479e-11
1.45301e-10
2.5671e-10
3.87618e-10
5.02747e-10
9.54736e-10
1.8193e-09
2.46619e-09
2.45804e-09
1.454e-09
8.88333e-10
6.46445e-10
5.36699e-10
6.4292e-10
5.78782e-10
1.8776e-10
8.63171e-11
8.92494e-12
2.40246e-11
4.86906e-11
9.16874e-11
1.62291e-10
2.7123e-10
4.0684e-10
5.3754e-10
7.08324e-10
8.62938e-10
9.79611e-10
8.92803e-10
5.35007e-10
3.69601e-10
2.00003e-10
1.36377e-10
9.54227e-11
1.58893e-11
9.6545e-12
2.91184e-12
1.2598e-11
2.56807e-11
4.22557e-11
6.65497e-11
1.47366e-10
2.48123e-10
3.06249e-10
3.46023e-10
3.67264e-10
3.45104e-10
3.19982e-10
2.36223e-10
1.52656e-10
6.6696e-11
2.1969e-11
6.86509e-12
2.03363e-12
3.48782e-13
5.39835e-13
3.76274e-12
1.20682e-11
2.40957e-11
4.14665e-11
6.47354e-11
9.3178e-11
1.23254e-10
1.45131e-10
1.60226e-10
1.49313e-10
1.28144e-10
9.43504e-11
5.40583e-11
1.36333e-11
4.22844e-12
9.04391e-13
1.15438e-13
2.81792e-14
1.48427e-13
6.76068e-13
3.04387e-12
7.87994e-12
1.44329e-11
2.27954e-11
3.23893e-11
4.18287e-11
5.014e-11
5.67002e-11
5.83916e-11
5.20279e-11
3.58647e-11
1.70601e-11
4.27308e-12
6.34131e-13
7.59199e-14
1.56828e-14
2.42653e-15
8.41532e-14
1.66892e-13
5.45074e-13
1.53882e-12
3.44501e-12
5.97225e-12
8.67792e-12
1.13638e-11
1.3567e-11
1.57082e-11
1.69573e-11
1.52544e-11
1.01751e-11
4.25459e-12
8.37957e-13
1.16117e-13
1.22127e-14
2.31485e-15
2.04065e-16
5.42269e-14
6.22709e-14
1.16017e-13
2.60148e-13
5.83941e-13
1.16656e-12
1.91183e-12
2.52602e-12
2.99796e-12
3.503e-12
3.91204e-12
3.72056e-12
2.44973e-12
9.32073e-13
1.70449e-13
2.10247e-14
1.88869e-15
2.77598e-16
4.20413e-17
3.22564e-14
2.93282e-14
3.39845e-14
4.92334e-14
8.14376e-14
1.45747e-13
2.60281e-13
3.9375e-13
4.8853e-13
5.98612e-13
6.8993e-13
6.97162e-13
4.83395e-13
1.82334e-13
2.77905e-14
1.8772e-15
2.45026e-16
7.1005e-17
2.39815e-17
1.69713e-14
1.39016e-14
1.25131e-14
1.20401e-14
1.33382e-14
1.80044e-14
3.0638e-14
4.78208e-14
6.27321e-14
7.90906e-14
9.72013e-14
1.04433e-13
7.9032e-14
3.17744e-14
5.45076e-15
2.45452e-16
5.18101e-17
3.76083e-17
1.87297e-17
7.64115e-15
5.88106e-15
4.56247e-15
3.69979e-15
3.12068e-15
2.8972e-15
3.24087e-15
4.27685e-15
5.62758e-15
7.97581e-15
1.04988e-14
1.20774e-14
1.02441e-14
4.56186e-15
7.06319e-16
3.87095e-17
1.96999e-17
2.57132e-17
1.23818e-17
2.91589e-15
2.15366e-15
1.59099e-15
1.16091e-15
8.3919e-16
6.08423e-16
4.57154e-16
3.78523e-16
4.60123e-16
6.68047e-16
9.67195e-16
1.19546e-15
1.14311e-15
5.88471e-16
7.75103e-17
7.97753e-18
1.06755e-17
1.55345e-17
9.40581e-18
9.36815e-16
6.47143e-16
4.65726e-16
3.21527e-16
2.24785e-16
1.59368e-16
8.37052e-17
4.37095e-17
4.12006e-17
5.49189e-17
8.0222e-17
1.06525e-16
9.06535e-17
2.8432e-17
6.46673e-18
3.58008e-18
5.78445e-18
1.1198e-17
6.00303e-18
2.5311e-16
1.70395e-16
1.10345e-16
7.12909e-17
4.96338e-17
2.8246e-17
1.27721e-17
7.43253e-18
5.31089e-18
4.90373e-18
6.46421e-18
5.6275e-18
1.52298e-18
6.88689e-19
8.66711e-19
1.5747e-18
3.20664e-18
7.01257e-18
4.30894e-18
6.0229e-17
3.80967e-17
2.26461e-17
1.45913e-17
8.77427e-18
3.01748e-18
1.06751e-18
7.62664e-19
6.55133e-19
5.48183e-19
3.54318e-19
1.21294e-19
1.11747e-19
1.6879e-19
3.71993e-19
8.75475e-19
2.00198e-18
5.34666e-18
2.42607e-18
1.20056e-17
6.83024e-18
3.85709e-18
2.44298e-18
8.58824e-19
1.58487e-19
4.80208e-20
4.72942e-20
5.16961e-20
4.61305e-20
2.58596e-20
3.57916e-20
6.75242e-20
1.37117e-19
2.82737e-19
6.40787e-19
1.59194e-18
3.08812e-18
1.64423e-18
2.04148e-18
1.0925e-18
6.57853e-19
2.44227e-19
4.49025e-20
3.50009e-21
1.86953e-21
3.0224e-21
5.37712e-21
7.23312e-21
1.5071e-20
3.22232e-20
6.72694e-20
1.33745e-19
2.52291e-19
5.4976e-19
1.25697e-18
2.28828e-18
8.28041e-19
2.80247e-19
1.58097e-19
6.08546e-20
1.09129e-20
7.35488e-22
2.39887e-22
4.30175e-22
1.08156e-21
2.61652e-21
6.42156e-21
1.5134e-20
3.33075e-20
6.84316e-20
1.30734e-19
2.32433e-19
4.79042e-19
1.002e-18
1.21767e-18
5.34074e-19
3.30275e-20
1.66484e-20
3.34728e-21
1.91392e-22
6.75805e-23
1.33814e-22
3.66055e-22
9.97791e-22
2.59686e-21
6.48698e-21
1.54236e-20
3.39656e-20
6.83818e-20
1.23259e-19
2.14859e-19
4.30895e-19
7.26958e-19
8.76499e-19
2.37277e-19
3.38663e-21
7.84729e-22
6.43777e-23
1.82858e-23
3.98046e-23
1.18659e-22
3.50524e-22
9.75252e-22
2.55606e-21
6.31239e-21
1.48622e-20
3.2435e-20
6.35129e-20
1.14391e-19
2.03525e-19
3.57264e-19
5.42198e-19
4.20945e-19
1.43749e-19
2.07248e-22
1.63623e-23
3.95924e-24
1.05678e-23
3.49772e-23
1.1306e-22
3.34383e-22
9.22635e-22
2.44272e-21
6.04255e-21
1.42187e-20
3.07204e-20
5.96945e-20
1.06282e-19
1.76739e-19
2.72851e-19
3.59986e-19
2.87094e-19
5.55041e-20
1.96942e-24
6.76326e-25
2.34663e-24
9.2963e-24
3.17199e-23
1.01597e-22
2.98947e-22
8.27972e-22
2.15915e-21
5.32794e-21
1.24435e-20
2.66044e-20
5.10999e-20
9.02834e-20
1.42719e-19
2.02653e-19
2.28678e-19
1.22081e-19
3.17928e-20
8.74485e-26
4.63011e-25
2.07187e-24
7.99652e-24
2.70552e-23
8.39107e-23
2.46741e-22
6.71843e-22
1.7412e-21
4.28684e-21
9.91166e-21
2.1119e-20
4.02811e-20
6.91397e-20
1.05519e-19
1.34564e-19
1.20392e-19
7.06226e-20
1.29578e-20
7.10299e-26
3.95528e-25
1.68718e-24
6.1319e-24
2.02269e-23
6.16819e-23
1.77364e-22
4.80843e-22
1.24007e-21
3.04765e-21
7.06431e-21
1.48967e-20
2.82193e-20
4.8221e-20
6.67279e-20
8.12361e-20
6.23807e-20
2.46196e-20
7.50773e-21
6.22429e-26
2.9925e-25
1.14621e-24
3.83758e-24
1.20963e-23
3.54819e-23
1.01661e-22
2.82427e-22
7.39257e-22
1.85014e-21
4.30254e-21
9.16898e-21
1.77852e-20
2.92813e-20
3.75198e-20
4.24063e-20
2.53791e-20
1.19566e-20
3.76436e-21
4.11776e-26
1.67531e-25
5.75903e-25
1.79259e-24
5.49542e-24
1.64933e-23
4.78689e-23
1.34301e-22
3.61845e-22
9.39583e-22
2.26279e-21
4.92605e-21
9.33223e-21
1.56397e-20
1.91192e-20
1.83447e-20
8.77478e-21
4.58909e-21
1.2987e-21
1.49531e-26
5.00841e-26
1.5104e-25
4.43281e-25
1.4687e-24
4.77799e-24
1.5074e-23
4.435e-23
1.26433e-22
3.37256e-22
8.42093e-22
1.91799e-21
3.69792e-21
6.03972e-21
6.84255e-21
5.3927e-21
2.45368e-21
9.31165e-22
6.5399e-23
)
;

boundaryField
{
    leftWall
    {
        type            alphaContactAngle;
        contactAngleProperties 
        {
            air             
            {
                theta0          90;
            }
            water           
            {
                theta0          90;
            }
            oil             
            {
                theta0          90;
            }
        }
        value           nonuniform List<scalar> 
50
(
1
1
1
1
0.980552
0.324712
1.40261e-22
1.71689e-10
3.01752e-10
3.50387e-10
3.93787e-10
4.35373e-10
4.64321e-10
4.6853e-10
4.66013e-10
4.62566e-10
4.39274e-10
3.29803e-10
2.5619e-10
2.34549e-10
2.29459e-10
2.24509e-10
2.12842e-10
1.92705e-10
1.67915e-10
1.40073e-10
1.13846e-10
8.96414e-11
7.13153e-11
5.24983e-11
3.74593e-11
2.48749e-11
1.70118e-11
1.08456e-11
7.22447e-12
4.41542e-12
2.81423e-12
1.62641e-12
9.4907e-13
4.95701e-13
2.3833e-13
1.0359e-13
3.5714e-14
1.12239e-14
2.71531e-15
4.9956e-16
6.04255e-17
3.09227e-18
8.04789e-21
1.13119e-26
)
;
    }
    rightWall
    {
        type            alphaContactAngle;
        contactAngleProperties 
        {
            air             
            {
                theta0          90;
            }
            water           
            {
                theta0          90;
            }
            oil             
            {
                theta0          90;
            }
        }
        value           nonuniform List<scalar> 
50
(
0.752485
0.75244
0.549535
0.279764
0.000962634
2.07822e-09
2.09399e-09
1.90288e-09
1.90433e-09
0.00256986
0.00656528
0.00521624
1.63042e-05
1.60889e-05
1.01805e-05
0.000713616
0.00187446
0.00103285
2.53861e-06
-4.11165e-11
5.98744e-10
1.0992e-09
9.27126e-10
4.48856e-10
8.63171e-11
9.6545e-12
3.48782e-13
2.81792e-14
2.42653e-15
2.04065e-16
4.20413e-17
2.39815e-17
1.87297e-17
1.23818e-17
9.40581e-18
6.00303e-18
4.30894e-18
2.42607e-18
1.64423e-18
8.28041e-19
5.34074e-19
2.37277e-19
1.43749e-19
5.55041e-20
3.17928e-20
1.29578e-20
7.50773e-21
3.76436e-21
1.2987e-21
6.5399e-23
)
;
    }
    lowerWall
    {
        type            alphaContactAngle;
        contactAngleProperties 
        {
            air             
            {
                theta0          90;
            }
            water           
            {
                theta0          90;
            }
            oil             
            {
                theta0          90;
            }
        }
        value           nonuniform List<scalar> 
62
(
1
1
1
1
1
1
1
1
1
1
1
1
1
1
1
1
1
1
1
0.999998
0.999633
0.999433
0.999433
0.999433
0.999764
1
1
1
0.999988
0.999444
0.897222
0.0824796
0.0355804
2.42184e-06
2.45905e-06
0.877644
0.603048
0.277781
0.12011
0.0817356
0.0581291
0.0171829
0.0197772
0.877644
0.877791
0.877779
0.877767
0.8759
0.820021
0.639307
0.643479
0.657072
0.666185
0.645724
0.623547
0.656498
0.751231
0.752529
0.752502
0.75251
0.752475
0.752485
)
;
    }
    atmosphere
    {
        type            inletOutlet;
        inletValue      uniform 0;
        value           nonuniform List<scalar> 
46
(
0
0
0
8.94744e-21
7.76438e-21
4.99139e-21
3.84759e-21
3.05463e-21
2.31722e-21
1.78986e-21
1.22056e-21
0
0
0
0
0
0
0
0
0
0
0
0
0
0
0
0
0
0
0
0
0
4.77799e-24
1.5074e-23
4.435e-23
1.26433e-22
3.37256e-22
8.42093e-22
1.91799e-21
3.69792e-21
6.03972e-21
6.84255e-21
0
2.45368e-21
0
0
)
;
    }
    defaultFaces
    {
        type            empty;
    }
}


// ************************************************************************* //
