/*--------------------------------*- C++ -*----------------------------------*\
  =========                 |
  \\      /  F ield         | OpenFOAM: The Open Source CFD Toolbox
   \\    /   O peration     | Website:  https://openfoam.org
    \\  /    A nd           | Version:  13
     \\/     M anipulation  |
\*---------------------------------------------------------------------------*/
FoamFile
{
    format      ascii;
    class       volScalarField;
    location    "2.6";
    object      alpha.water;
}
// * * * * * * * * * * * * * * * * * * * * * * * * * * * * * * * * * * * * * //

dimensions      [];

internalField   nonuniform List<scalar> 
2268
(
1.01037e-10
1.26741e-10
1.48398e-10
1.53968e-10
1.59822e-10
1.66191e-10
1.73774e-10
1.81201e-10
1.87402e-10
1.92395e-10
1.97675e-10
2.0229e-10
2.09055e-10
2.21537e-10
2.53416e-10
3.08783e-10
3.9104e-10
4.93741e-10
7.21747e-10
1.40235e-09
2.48161e-09
2.77872e-09
2.77878e-09
2.26792e-10
3.03825e-10
2.91684e-10
2.76025e-10
2.83656e-10
3.02096e-10
3.30121e-10
3.69706e-10
4.13652e-10
4.6476e-10
5.02362e-10
5.39204e-10
5.54777e-10
5.59262e-10
5.60725e-10
5.68652e-10
5.82973e-10
6.48467e-10
8.31157e-10
1.26556e-09
2.27657e-09
2.69321e-09
2.4315e-09
2.27906e-10
2.90587e-10
2.75919e-10
2.59887e-10
2.75369e-10
3.0244e-10
3.40272e-10
3.99825e-10
4.92666e-10
6.0607e-10
7.18097e-10
8.49586e-10
9.70232e-10
1.03418e-09
1.03582e-09
9.44925e-10
8.95788e-10
9.22061e-10
1.10487e-09
1.41256e-09
1.98674e-09
2.4855e-09
1.71136e-09
1.64208e-10
3.94028e-07
3.17626e-07
2.75919e-07
2.42256e-07
2.08495e-07
1.67433e-10
1.9428e-10
2.44979e-10
3.29844e-10
4.60777e-10
6.45447e-10
8.8234e-10
1.11508e-09
1.20728e-09
1.06182e-09
7.96598e-10
8.54776e-10
1.05145e-09
1.26601e-09
1.77938e-09
2.00055e-09
1.40319e-09
0.0194477
0.0217444
0.0188451
0.0123935
0.00580976
0.00137312
3.02681e-11
-3.95576e-13
3.04315e-11
-5.98219e-14
2.92257e-11
2.09597e-09
2.01718e-09
3.67757e-09
1.66362e-09
5.85717e-10
3.13121e-10
2.90459e-10
4.7629e-10
7.20218e-10
9.17565e-10
1.2052e-09
5.37416e-10
0.675288
0.660005
0.640008
0.602546
0.548046
0.479646
0.399191
0.316007
0.246714
0.179951
0.117734
0.0643364
0.0245506
0.00139053
7.65269e-09
1.63375e-10
7.13284e-11
7.60241e-11
9.85112e-11
1.21912e-10
1.69074e-10
2.26403e-10
8.06833e-11
1
1
1
0.999999
0.999998
0.999998
1
0.994048
0.964807
0.92238
0.863414
0.781894
0.672138
0.530353
0.367832
0.223427
0.107168
0.0221574
-1.03382e-20
5.48201e-22
1.10454e-21
7.36419e-21
-3.63735e-20
1
1
1
1
0.999995
0.999997
0.999999
1
1
1
1
1
1
0.999053
0.98425
0.930577
0.833126
0.695691
0.508167
0.337154
0.220581
0.154151
0.102046
0.0107673
0.0112736
0.0376633
0.0538567
0.0465337
0.015422
0.000737604
0.000827415
0.000772281
0.00092903
0.00409786
0.0174038
0.119365
0.124194
0.124408
0.124477
0.04886
0.0024318
0.0120501
0.0117439
0.0108585
0.0154367
0.0413614
0.0799061
0.0945735
0.024105
0.0175405
0.0486922
0.0237028
0.000736555
0.00844845
0.0496406
0.0702581
0.0757499
0.0447634
0.00456444
0.0024428
0.0120304
0.317825
0.322525
0.172655
0.0992819
0.159348
0.380146
0.357684
0.319086
0.26485
0.0529141
0.000716794
0.000699379
0.000976768
0.000683318
0.000682114
0.000684107
0.000675589
0.000681215
0.00068255
0.661856
0.781672
0.660249
0.543741
0.390213
0.426195
0.758041
0.828977
0.845237
0.490247
0.097979
0.000695519
0.000698339
0.000690244
0.00217781
0.0233752
0.0792521
0.114274
0.0112965
0.889118
0.889693
0.889343
0.86348
0.618682
0.218495
0.321637
0.525672
0.843128
0.940624
0.532532
0.154098
0.0137109
0.0221273
0.237456
0.525309
0.666859
0.770392
0.295492
0.889195
0.891425
0.894272
0.887436
0.50316
0.19273
0.178716
0.179916
0.709876
0.988268
0.985875
0.442136
0.103213
0.256271
0.726214
0.985174
0.999775
0.999755
0.584249
0.885339
0.889197
0.89664
0.895861
0.340423
0.118349
0.118117
0.3244
0.890989
0.991095
0.999368
0.948507
0.150382
0.430405
0.982521
0.99978
0.999763
0.998216
0.709351
0.895925
0.897409
0.897944
0.898124
0.419756
0.118118
0.206623
0.832697
0.998516
0.998558
0.999499
0.986397
0.448642
0.649633
0.999751
0.999779
0.999108
0.973287
0.623608
1
1
0.999968
0.99991
0.999959
0.999999
1
1
1
1
1
1
1
1
1
1
1
1
0.997704
0.986096
0.967235
0.950796
0.922222
0.995003
0.997584
0.998601
0.999322
0.999972
1
1
1
1
1
1
1
1
1
1
1
1
1
0.999999
0.999994
0.999982
0.996948
0.995273
0.897798
0.967325
0.998437
0.999813
0.999998
1
0.99734
0.996226
0.996916
0.997694
0.998032
0.996679
0.992362
0.989659
0.992428
0.998638
0.999989
0.999968
0.997031
0.982024
0.93788
0.88881
0.809347
0.63527
0.554229
0.556266
0.601709
0.666721
0.781552
0.809516
0.794404
0.776385
0.761927
0.744294
0.707423
0.679047
0.6799
0.682995
0.662373
0.616077
0.552922
0.501733
0.456408
0.374087
0.198438
0.0576127
0.00559693
0.000110043
9.4984e-05
0.000256905
0.0317731
0.0983625
0.134216
0.103786
0.0707332
0.0526191
0.0237511
0.00830273
0.00753803
0.00708488
0.00618941
0.00770761
0.00591749
-2.35888e-20
4.27566e-26
6.85075e-26
-1.09504e-13
-8.80507e-26
-4.52101e-23
4.73176e-05
0.000330233
9.83991e-08
-4.34074e-15
-3.6575e-07
-2.41454e-07
-2.4574e-09
-6.34641e-28
1.14678e-20
-1.71851e-22
-4.61435e-20
-9.08378e-14
-4.849e-13
-3.52733e-13
-2.09133e-14
2.38877e-16
1.92249e-11
8.9432e-09
2.42829e-08
6.14872e-08
1.25052e-06
1.66389e-06
1.47179e-05
4.69245e-05
0.00072478
5.17767e-05
6.06955e-07
1.68061e-08
2.5078e-08
6.8006e-09
4.7659e-09
3.94555e-09
2.93909e-09
7.22538e-09
1.61824e-08
2.59436e-08
2.95251e-08
2.34152e-08
2.74681e-08
5.7167e-08
1.17527e-07
3.64278e-07
5.79113e-07
5.06523e-07
7.76524e-07
1.56969e-06
3.13913e-05
0.000720971
0.000138569
2.0501e-07
2.28643e-07
2.68127e-07
1.19897e-07
4.95012e-08
1.04887e-08
1.22745e-09
2.22307e-09
8.55759e-08
1.8649e-07
1.73834e-07
1.01329e-07
1.22692e-07
2.50612e-07
2.50627e-07
1.657e-07
3.30776e-08
1.62805e-08
2.02412e-07
1.70164e-06
7.36288e-06
0.000221419
9.82394e-05
1.69603e-07
1.67919e-07
2.68169e-07
2.68127e-07
1.96284e-07
1.22745e-09
1.22746e-09
1.01851e-08
1.50225e-07
1.99541e-07
1.99674e-07
1.84014e-07
3.90942e-08
4.65901e-10
4.66821e-10
4.65901e-10
4.66821e-10
1.55285e-08
2.21007e-07
5.13956e-07
1.47348e-07
1.3761e-07
1.35507e-07
2.01998e-06
5.26936e-08
1.46905e-07
1.68083e-07
8.79194e-08
2.51634e-08
1.32537e-08
1.58475e-08
2.83484e-08
3.34451e-08
2.65857e-08
9.32768e-09
3.44229e-09
3.45583e-09
2.32375e-09
1.3425e-09
5.96504e-10
1.05972e-10
-2.96041e-11
-5.30983e-11
2.18259e-07
8.02016e-07
9.99224e-07
5.86056e-07
3.72911e-09
3.46673e-08
3.83006e-08
1.09867e-08
5.91607e-09
5.86192e-09
6.02455e-09
6.40491e-09
6.33295e-09
7.18398e-09
7.75244e-09
8.04914e-09
5.71757e-09
2.63737e-09
2.10317e-09
1.83588e-09
1.90519e-09
2.32193e-09
3.67801e-09
4.02116e-07
2.18617e-06
3.70948e-06
1.28921e-06
1.5387e-10
1.23907e-09
1.89634e-09
3.83837e-07
7.09663e-07
6.07548e-07
1.61957e-07
9.99851e-08
1.1047e-07
1.08037e-07
1.34422e-07
8.0341e-08
5.2155e-09
5.35835e-09
4.94956e-09
3.57506e-09
2.10155e-09
3.11744e-10
1.2243e-10
4.94618e-07
2.80379e-06
4.66294e-06
2.93123e-06
7.82159e-11
7.16886e-11
2.28891e-18
7.30528e-07
2.84007e-06
3.16942e-06
1.59901e-06
3.35981e-07
4.09003e-07
4.31014e-07
3.83179e-07
1.59836e-07
2.69186e-08
9.48899e-09
7.61012e-09
5.87424e-09
3.7005e-09
1.3652e-09
4.09563e-10
8.25808e-08
1.21686e-06
4.64697e-06
4.27225e-06
7.01041e-07
-3.48515e-14
5.04232e-08
7.80202e-07
1.85651e-06
3.17766e-06
3.18197e-06
3.17784e-06
1.94617e-06
1.40117e-06
9.76266e-07
2.70863e-07
6.67201e-08
1.36763e-08
1.16716e-08
1.0793e-08
9.88304e-09
5.55466e-09
3.2245e-09
2.29301e-08
1.98302e-07
2.11729e-06
3.45232e-06
5.73606e-07
4.30599e-12
8.95684e-11
1.05748e-08
5.37913e-07
1.83093e-06
3.19319e-06
3.16662e-06
3.16776e-06
3.1423e-06
2.53906e-06
2.96061e-07
1.32175e-08
1.26383e-08
1.47611e-08
1.65539e-08
1.72979e-08
1.30408e-08
9.07105e-09
1.72839e-08
1.85581e-08
8.66668e-08
2.83183e-07
1.11647e-07
3.53192e-09
9.62861e-11
1.68379e-10
1.71315e-10
3.37337e-08
1.52179e-06
2.65985e-06
3.15628e-06
3.11676e-06
2.41258e-06
2.11818e-07
9.21892e-08
1.25095e-08
1.25372e-08
2.16088e-08
2.1617e-08
1.77535e-08
1.29221e-08
1.93399e-08
1.66168e-08
1.56578e-08
7.21634e-09
9.5451e-09
3.88639e-09
4.1763e-10
2.62285e-10
3.69772e-10
2.22996e-09
9.08947e-09
1.80479e-07
1.41386e-06
2.10322e-06
2.25117e-07
1.08101e-07
1.20337e-07
6.23822e-08
1.23766e-08
1.31893e-08
2.0992e-08
1.62507e-08
1.25136e-08
2.04681e-08
1.7308e-08
2.3418e-08
6.91729e-09
3.48905e-09
2.1581e-09
5.3104e-10
4.42388e-10
6.35639e-10
1.13606e-09
9.53833e-09
9.37271e-08
2.72934e-07
1.26791e-09
1.78219e-08
5.65607e-08
6.61666e-08
5.10825e-08
1.48626e-08
9.7266e-09
1.28945e-08
1.19412e-08
9.93789e-09
2.04475e-08
1.38624e-08
2.04251e-08
7.42093e-09
3.4865e-09
2.15512e-09
7.4659e-10
7.63382e-10
1.139e-09
1.40378e-09
2.11803e-09
1.25709e-08
2.72529e-08
1.29903e-09
1.14762e-08
2.89685e-08
3.35967e-08
2.71939e-08
1.4565e-08
8.33899e-09
8.57758e-09
8.11626e-09
7.21498e-09
1.914e-08
1.07383e-08
1.35205e-08
6.30464e-09
3.57437e-09
2.31589e-09
1.36735e-09
1.29208e-09
1.36308e-09
1.53061e-09
2.01905e-09
4.35119e-09
1.23853e-09
1.23212e-09
3.35614e-09
1.13942e-08
1.46187e-08
1.37225e-08
8.98136e-09
5.8431e-09
5.16695e-09
4.76312e-09
4.48547e-09
1.78929e-08
8.23189e-09
8.02124e-09
4.80136e-09
3.20639e-09
2.25706e-09
1.71862e-09
1.44066e-09
1.29267e-09
1.34123e-09
1.54706e-09
2.03964e-09
1.51677e-09
1.22677e-09
2.00821e-09
4.74759e-09
6.73466e-09
6.3971e-09
5.13005e-09
3.57689e-09
2.86159e-09
2.4841e-09
2.38944e-09
1.77761e-08
6.57754e-09
5.11971e-09
3.60351e-09
2.73244e-09
2.09903e-09
1.67784e-09
1.40058e-09
1.18619e-09
1.0508e-09
1.07274e-09
1.07113e-09
9.15107e-10
8.42384e-10
1.10626e-09
1.95267e-09
2.98393e-09
2.88674e-09
2.36973e-09
1.79195e-09
1.32759e-09
1.11919e-09
1.07837e-09
1.79335e-08
5.54059e-09
3.36696e-09
2.83153e-09
2.3633e-09
1.91808e-09
1.56771e-09
1.29413e-09
1.07744e-09
8.61533e-10
6.98706e-10
6.09776e-10
5.0794e-10
4.74911e-10
5.7427e-10
8.29822e-10
1.17529e-09
1.16733e-09
9.57311e-10
7.2811e-10
5.22808e-10
4.33531e-10
4.20883e-10
1.79335e-08
5.3089e-09
2.48152e-09
2.3375e-09
2.07307e-09
1.72653e-09
1.42271e-09
1.14701e-09
9.14749e-10
7.01265e-10
5.33704e-10
4.05461e-10
3.08358e-10
2.66501e-10
2.74399e-10
3.25022e-10
4.11807e-10
4.05995e-10
3.36849e-10
2.5688e-10
1.89033e-10
1.49681e-10
1.39318e-10
1.79335e-08
5.78176e-09
2.18905e-09
2.12995e-09
1.84579e-09
1.51456e-09
1.21761e-09
9.65146e-10
7.50959e-10
5.71031e-10
4.23695e-10
3.03798e-10
2.17138e-10
1.63159e-10
1.37989e-10
1.29053e-10
1.32757e-10
1.23238e-10
1.02005e-10
7.8823e-11
5.60658e-11
4.58157e-11
4.32564e-11
1.76725e-08
7.38591e-09
2.32389e-09
2.05808e-09
1.67429e-09
1.30073e-09
9.90134e-10
7.57708e-10
5.76639e-10
4.33354e-10
3.22548e-10
2.32151e-10
1.61704e-10
1.11678e-10
7.72399e-11
5.83083e-11
4.65489e-11
3.77686e-11
2.93243e-11
2.24739e-11
1.73776e-11
1.42882e-11
1.26017e-11
1.66901e-08
7.49072e-09
3.08606e-09
2.06158e-09
1.4989e-09
1.08353e-09
7.86571e-10
5.68533e-10
4.17535e-10
3.09444e-10
2.29019e-10
1.64322e-10
1.16141e-10
7.8763e-11
5.08555e-11
3.29495e-11
2.1422e-11
1.4636e-11
9.77611e-12
7.3017e-12
5.65799e-12
4.5266e-12
4.02303e-12
1.46883e-08
7.06006e-09
3.50289e-09
2.02078e-09
1.31898e-09
8.82972e-10
5.91522e-10
3.98858e-10
2.82082e-10
2.01791e-10
1.46074e-10
1.04768e-10
7.32234e-11
4.98306e-11
3.20685e-11
1.99375e-11
1.20367e-11
7.37956e-12
4.21932e-12
2.79123e-12
2.07546e-12
1.59761e-12
1.33403e-12
1.31108e-08
6.48781e-09
3.35612e-09
1.87844e-09
1.13646e-09
6.9506e-10
4.31089e-10
2.71115e-10
1.76037e-10
1.19098e-10
8.24775e-11
5.79823e-11
4.00375e-11
2.73493e-11
1.79264e-11
1.09654e-11
6.55791e-12
3.75936e-12
1.95838e-12
1.18254e-12
7.53322e-13
5.26908e-13
4.3612e-13
1.10175e-08
5.70997e-09
3.01957e-09
1.6388e-09
9.29386e-10
5.31762e-10
3.01653e-10
1.73955e-10
1.04946e-10
6.559e-11
4.27291e-11
2.83435e-11
1.92098e-11
1.27803e-11
8.41851e-12
5.25533e-12
3.01999e-12
1.72774e-12
8.37027e-13
4.53101e-13
2.73004e-13
1.75086e-13
1.34053e-13
9.29435e-09
4.74675e-09
2.49952e-09
1.31511e-09
7.05798e-10
3.81906e-10
1.99503e-10
1.06369e-10
5.76513e-11
3.32663e-11
1.99546e-11
1.24358e-11
7.97978e-12
5.24112e-12
3.37578e-12
2.08713e-12
1.19925e-12
6.68106e-13
3.16247e-13
1.6281e-13
8.37378e-14
5.13904e-14
3.74599e-14
7.19313e-09
3.68396e-09
1.88474e-09
9.57517e-10
4.90266e-10
2.47075e-10
1.20519e-10
5.92952e-11
2.99199e-11
1.53558e-11
8.33507e-12
4.95564e-12
3.00698e-12
1.86436e-12
1.14621e-12
7.15433e-13
4.00318e-13
2.20445e-13
9.84652e-14
4.77994e-14
2.50559e-14
1.36661e-14
9.26865e-15
5.1636e-09
2.53882e-09
1.25593e-09
6.18581e-10
2.99344e-10
1.42169e-10
6.47964e-11
2.99472e-11
1.36182e-11
6.45554e-12
3.22709e-12
1.73939e-12
9.97485e-13
5.85845e-13
3.51019e-13
2.02266e-13
1.11662e-13
5.91453e-14
2.52309e-14
1.20284e-14
5.68959e-15
3.15576e-15
2.01307e-15
3.34147e-09
1.53968e-09
7.21736e-10
3.37683e-10
1.55702e-10
6.87169e-11
3.04441e-11
1.33983e-11
5.70658e-12
2.50643e-12
1.12482e-12
5.6954e-13
2.92438e-13
1.62384e-13
8.89938e-14
5.10015e-14
2.66596e-14
1.31617e-14
5.6757e-15
2.48408e-15
1.18133e-15
6.27853e-16
3.74058e-16
1.74182e-09
7.84836e-10
3.51272e-10
1.56866e-10
6.97806e-11
3.00279e-11
1.28151e-11
5.06588e-12
2.07058e-12
8.33848e-13
3.50867e-13
1.52978e-13
7.52987e-14
3.89366e-14
2.08276e-14
1.09572e-14
5.50886e-15
2.54751e-15
1.04763e-15
4.411e-16
2.07255e-16
1.08479e-16
6.06422e-17
8.15339e-10
3.56986e-10
1.53102e-10
6.56692e-11
2.63911e-11
1.07622e-11
4.40919e-12
1.72191e-12
6.49074e-13
2.42258e-13
9.23611e-14
3.89801e-14
1.70209e-14
8.5585e-15
4.39327e-15
2.20916e-15
1.03438e-15
4.33102e-16
1.77426e-16
6.79828e-17
3.11719e-17
1.57988e-17
8.1487e-18
2.95488e-10
1.24195e-10
5.01491e-11
2.03111e-11
8.4441e-12
3.44434e-12
1.33677e-12
4.93256e-13
1.75792e-13
6.19582e-14
2.21901e-14
8.72562e-15
3.81696e-15
1.75349e-15
8.49346e-16
3.97874e-16
1.7181e-16
6.74969e-17
2.57688e-17
9.58215e-18
4.29084e-18
1.9727e-18
9.24991e-19
8.06496e-11
3.21752e-11
1.29317e-11
5.431e-12
2.28228e-12
9.02416e-13
3.41334e-13
1.24576e-13
4.37161e-14
1.4887e-14
5.10099e-15
1.86633e-15
7.45968e-16
3.23923e-16
1.45954e-16
6.3308e-17
2.52398e-17
9.17685e-18
3.27482e-18
1.24335e-18
5.06681e-19
2.11213e-19
9.43353e-20
1.42771e-11
5.75525e-12
2.54854e-12
1.16494e-12
5.02443e-13
2.05432e-13
7.86326e-14
2.80584e-14
9.50082e-15
3.09107e-15
1.00221e-15
3.49014e-16
1.34497e-16
5.58315e-17
2.32427e-17
9.21741e-18
3.37021e-18
1.14987e-18
3.90111e-19
1.40226e-19
5.2721e-20
1.95505e-20
7.4771e-21
1.0668e-12
5.21175e-13
3.35684e-13
1.9299e-13
9.38674e-14
4.05092e-14
1.60984e-14
5.82065e-15
1.95775e-15
6.2601e-16
1.93407e-16
6.40462e-17
2.31232e-17
8.90944e-18
3.41366e-18
1.24499e-18
4.21582e-19
1.33272e-19
4.18876e-20
1.36664e-20
4.46515e-21
1.47085e-21
1.58271e-22
5.62563e-15
1.19955e-14
2.48715e-14
2.39695e-14
1.40032e-14
6.78227e-15
2.64499e-15
1.00213e-15
3.53118e-16
1.09929e-16
3.41356e-17
1.07123e-17
3.69207e-18
1.33849e-18
4.7528e-19
1.5632e-19
4.68062e-20
1.38017e-20
4.20304e-21
1.22609e-21
3.72592e-22
3.5487e-23
9.34447e-25
1.04762e-20
6.36354e-17
1.15865e-15
2.43199e-15
1.73541e-15
8.45979e-16
3.96871e-16
1.58011e-16
5.56805e-17
1.83254e-17
5.58118e-18
1.78969e-18
5.94863e-19
2.03092e-19
6.36378e-20
1.89562e-20
5.07816e-21
1.40502e-21
3.98838e-22
1.01767e-22
1.84632e-23
4.95879e-25
4.68656e-27
0.91691
0.964106
0.999903
0.999924
0.997151
0.997795
0.996263
0.990937
0.751994
0.755845
0.789747
0.69694
0.0277901
0.000337265
7.80271e-05
0.00236713
-7.85066e-23
2.0293e-10
7.25478e-05
7.58034e-06
2.28425e-05
9.90678e-06
9.03581e-06
1.48879e-05
2.81199e-06
2.66372e-06
1.05741e-05
1.50938e-05
2.6934e-06
2.56519e-06
5.35828e-08
9.66059e-08
6.84715e-07
3.88622e-10
5.65768e-10
3.88621e-10
2.87647e-10
2.79443e-09
5.03184e-09
7.19388e-09
4.03811e-09
3.68067e-09
2.58812e-09
8.03142e-09
1.23079e-10
9.23726e-11
5.36859e-11
5.20076e-11
2.18966e-10
1.48301e-10
9.19882e-11
7.19374e-11
8.81049e-10
5.9091e-10
4.1256e-10
2.80887e-10
3.46264e-09
1.75229e-09
1.42609e-09
9.03329e-10
9.20483e-09
4.79743e-09
3.93338e-09
2.46096e-09
9.37568e-09
8.29608e-09
6.1756e-09
4.64723e-09
7.40358e-09
6.37385e-09
6.44029e-09
6.07967e-09
5.87475e-09
4.93876e-09
4.75902e-09
4.39711e-09
3.96783e-09
3.58224e-09
3.26397e-09
3.09329e-09
2.26436e-09
2.02621e-09
2.04155e-09
1.90928e-09
1.04884e-09
1.04068e-09
1.069e-09
1.03149e-09
4.19885e-10
4.3095e-10
4.67252e-10
4.69955e-10
1.41981e-10
1.36172e-10
1.66335e-10
1.72393e-10
4.2923e-11
4.12557e-11
4.43254e-11
5.04416e-11
1.22807e-11
1.15455e-11
1.2569e-11
1.34203e-11
3.82718e-12
3.56438e-12
3.46926e-12
3.41773e-12
1.23491e-12
1.04192e-12
1.03496e-12
1.02792e-12
4.05736e-13
3.53586e-13
3.30597e-13
3.01272e-13
1.16382e-13
1.0102e-13
9.21127e-14
8.83328e-14
3.20939e-14
2.80859e-14
2.55581e-14
2.24178e-14
7.68025e-15
6.11311e-15
5.75414e-15
5.04026e-15
1.6454e-15
1.35411e-15
1.13945e-15
9.38213e-16
2.8311e-16
2.34553e-16
1.95108e-16
1.50726e-16
4.5577e-17
3.50241e-17
2.60384e-17
1.9441e-17
5.7699e-18
4.25088e-18
3.10433e-18
1.94314e-18
6.18029e-19
4.15778e-19
3.05041e-19
1.1518e-19
5.09025e-20
1.94811e-20
7.53945e-21
1.33598e-21
1.04283e-21
2.22132e-22
6.30107e-23
6.14403e-24
-3.00106e-41
6.257e-25
8.02453e-26
2.84162e-27
5.313e-43
8.00391e-29
3.29737e-28
1.08815e-27
-4.47515e-46
7.37253e-29
2.73016e-28
8.28142e-28
0.985754
0.849115
0.886207
0.896614
0.625244
0.190777
0.639085
0.990474
0.998511
0.999263
0.999502
0.999405
0.973443
0.98692
0.999759
0.99976
0.994222
0.897868
0.651522
0.957586
0.739784
0.796665
0.79473
0.587431
0.302944
0.690275
0.877286
0.941891
0.970257
0.994753
0.995428
0.995863
0.994668
0.973812
0.904528
0.786456
0.65565
0.690445
0.308655
0.255537
0.415392
0.496355
0.18122
0.148084
0.441996
0.42094
0.254482
0.239729
0.288255
0.376124
0.494896
0.48204
0.389156
0.26071
0.181171
0.0943255
0.148035
7.43064e-06
7.19027e-06
0.00474359
0.00997981
0.00105572
0.0191125
0.0292719
0.00917846
-2.23123e-19
4.4603e-05
-2.63055e-11
3.74936e-22
-6.78828e-14
-4.55484e-26
-2.0563e-08
-1.11466e-09
-4.82134e-11
7.95765e-20
1.69547e-23
7.51146e-06
6.95281e-06
3.8906e-06
2.64848e-06
0.000977792
2.8622e-07
-2.21813e-14
-4.05202e-14
-7.65203e-13
1.53837e-24
9.98641e-08
2.16157e-08
2.32954e-09
8.81239e-07
5.42804e-07
3.77713e-08
2.15196e-06
3.15626e-05
0.000153772
1.56969e-05
1.33087e-05
3.25151e-06
8.17554e-06
2.72931e-05
1.24288e-06
7.45631e-09
1.31255e-08
7.80221e-09
5.0298e-13
1.11122e-07
1.24227e-07
1.40988e-09
6.89515e-08
1.64627e-09
2.51679e-09
3.93408e-08
1.10232e-05
8.16995e-06
7.75997e-06
1.95836e-06
2.22991e-07
1.20631e-06
6.36242e-07
8.43949e-08
2.76645e-08
1.5716e-08
9.53379e-09
1.22337e-08
1.18136e-07
1.18246e-06
1.63157e-05
2.36984e-05
4.15287e-06
1.87557e-06
1.23133e-07
1.95775e-07
8.16909e-07
1.85195e-07
3.64344e-07
7.6637e-08
7.34532e-09
8.05139e-09
3.74939e-09
3.31774e-09
2.38918e-08
1.57243e-08
3.0734e-09
1.60273e-09
1.15916e-07
2.22625e-06
2.01059e-06
0.00255198
0.0069179
0.00768373
0.00645535
0.0050734
5.80514e-10
3.88621e-10
1.38129e-08
2.81564e-08
4.06184e-08
2.42107e-07
1.60929e-06
1.42691e-06
1.49117e-08
3.64448e-05
3.68647e-05
2.02884e-07
2.22336e-07
0.000229634
0.0068695
0.00967357
0.00965082
0.0096736
0.00965086
1.86536e-08
2.96226e-08
5.43121e-08
1.187e-07
2.20635e-07
1.22903e-06
3.76112e-06
1.12492e-05
2.44595e-05
2.75423e-05
0.000173286
0.000341212
0.000325036
0.000851677
0.00235336
0.00423307
0.00531998
0.00472905
0.0048017
2.68583e-08
4.45362e-08
5.25949e-08
3.4465e-08
2.63091e-11
2.99016e-07
-3.67141e-12
9.8676e-06
3.24004e-05
3.50062e-05
4.5274e-05
8.08472e-05
0.000103865
0.00013881
1.45248e-08
1.06998e-06
-1.15594e-12
-8.71017e-12
1.3215e-06
5.24317e-11
5.09061e-11
2.65979e-09
1.60246e-11
2.01958e-11
9.15046e-13
4.63851e-11
-2.0337e-11
6.26119e-07
2.70442e-06
5.69563e-08
1.27767e-05
1.52601e-05
9.16573e-22
-2.35453e-12
4.24971e-23
-1.12641e-14
-1.30674e-19
-3.96512e-10
6.2405e-11
5.67981e-11
5.8475e-11
8.84842e-11
1.87969e-10
4.2699e-10
1.56623e-09
8.5489e-09
2.66035e-08
3.61067e-08
4.87094e-08
9.68699e-07
8.7874e-10
1.82905e-09
6.09646e-09
1.77888e-08
1.95013e-08
1.2553e-08
6.40872e-09
1.62336e-10
9.58735e-11
1.06711e-10
1.7218e-10
3.46093e-10
9.38169e-10
3.77904e-09
9.21538e-09
1.76403e-08
2.70315e-08
2.21169e-08
1.59677e-08
9.92484e-10
4.12135e-09
1.12035e-08
2.68977e-08
2.8697e-08
1.72758e-08
1.30754e-08
3.67018e-10
1.11149e-10
1.16296e-10
1.61192e-10
2.64896e-10
4.4427e-10
7.35144e-10
1.18862e-09
1.50906e-09
2.47435e-09
2.55381e-09
9.59275e-10
7.84676e-10
2.54428e-09
6.97625e-09
1.47162e-08
1.71548e-08
9.99719e-09
1.03336e-08
9.35376e-10
1.25883e-10
1.14152e-10
1.20062e-10
1.48457e-10
2.13907e-10
3.44437e-10
8.60673e-10
1.19115e-09
1.23305e-09
8.71955e-10
5.41482e-10
4.56364e-10
7.7954e-10
2.46604e-09
4.93729e-09
5.81791e-09
3.48105e-09
4.85853e-09
2.40324e-09
4.23311e-10
1.49893e-10
1.33136e-10
1.35267e-10
1.58916e-10
1.92021e-10
2.97619e-10
3.98665e-10
4.70767e-10
4.71566e-10
3.31221e-10
2.60864e-10
2.65041e-10
5.15693e-10
1.04281e-09
1.2162e-09
7.45017e-10
8.30733e-10
4.05857e-09
1.54111e-09
4.59692e-10
2.25535e-10
1.5136e-10
1.47011e-10
1.52646e-10
1.76004e-10
2.00107e-10
2.07931e-10
2.11142e-10
1.76433e-10
1.31646e-10
1.07094e-10
9.75888e-11
1.48797e-10
1.67109e-10
5.32278e-11
9.25299e-11
4.15076e-09
2.63581e-09
1.13114e-09
5.72622e-10
2.8711e-10
1.80359e-10
1.36143e-10
1.21987e-10
1.17257e-10
1.07991e-10
9.10421e-11
7.80509e-11
5.85502e-11
4.01092e-11
2.17782e-11
1.24374e-11
8.31837e-12
6.97517e-12
3.84147e-12
2.90142e-09
2.50757e-09
1.52286e-09
9.16091e-10
5.51171e-10
3.05217e-10
1.67208e-10
1.01253e-10
7.08593e-11
5.61801e-11
4.55882e-11
3.81849e-11
2.66512e-11
1.50369e-11
4.05937e-12
1.97873e-12
9.79141e-13
4.07817e-13
3.66457e-13
1.77559e-09
1.60731e-09
1.40411e-09
9.68502e-10
6.47954e-10
3.98317e-10
2.29776e-10
1.18196e-10
5.81362e-11
3.56863e-11
2.71895e-11
1.95805e-11
1.13629e-11
5.05631e-12
1.35383e-12
3.02064e-13
8.30373e-14
4.53735e-14
3.49398e-14
9.77432e-10
9.14289e-10
8.13561e-10
7.12612e-10
5.81378e-10
3.9132e-10
2.52805e-10
1.41232e-10
6.78883e-11
3.2249e-11
1.84464e-11
9.08595e-12
3.9789e-12
1.46348e-12
3.47022e-13
8.40363e-14
1.47933e-14
5.97503e-15
2.91807e-15
4.57987e-10
4.45901e-10
4.09796e-10
3.59802e-10
3.13791e-10
2.71095e-10
2.02454e-10
1.2919e-10
7.16752e-11
3.35697e-11
1.34958e-11
4.84381e-12
1.60326e-12
4.84406e-13
1.24909e-13
3.07204e-14
3.22775e-15
1.13408e-15
4.30776e-16
1.70493e-10
1.70268e-10
1.69521e-10
1.55398e-10
1.37734e-10
1.18955e-10
1.02445e-10
8.12388e-11
5.23425e-11
2.77817e-11
1.16198e-11
3.67473e-12
9.13607e-13
2.0938e-13
4.82759e-14
6.20328e-15
8.62544e-16
5.03694e-16
1.90545e-16
4.97103e-11
5.23011e-11
5.35603e-11
5.10332e-11
4.7511e-11
4.21006e-11
3.83724e-11
3.32953e-11
2.54173e-11
1.6098e-11
8.05999e-12
2.7269e-12
5.99856e-13
1.03428e-13
2.00812e-14
1.57493e-15
3.75861e-16
3.2179e-16
1.43234e-16
1.2789e-11
1.31935e-11
1.31727e-11
1.3155e-11
1.24706e-11
1.16338e-11
1.09566e-11
1.01999e-11
8.66041e-12
6.72084e-12
4.03846e-12
1.57851e-12
3.51571e-13
4.87776e-14
5.18436e-15
3.33605e-16
1.83555e-16
2.08576e-16
9.13269e-17
3.26019e-12
3.17717e-12
3.07402e-12
2.91046e-12
2.74888e-12
2.61028e-12
2.5258e-12
2.39614e-12
2.29303e-12
2.02525e-12
1.43613e-12
6.63115e-13
1.67469e-13
2.13217e-14
1.07614e-15
8.33814e-17
8.96117e-17
1.16865e-16
6.81406e-17
9.04796e-13
8.0195e-13
7.33635e-13
6.43941e-13
5.75233e-13
5.22632e-13
4.75123e-13
4.63802e-13
4.84023e-13
4.78265e-13
3.83736e-13
2.1087e-13
4.71186e-14
3.57227e-15
1.71813e-16
3.42983e-17
4.2665e-17
8.17933e-17
4.17386e-17
2.55939e-13
2.15413e-13
1.74253e-13
1.3962e-13
1.16512e-13
8.9538e-14
7.47647e-14
7.67751e-14
8.27853e-14
8.60361e-14
7.7489e-14
3.43359e-14
4.94091e-15
2.72428e-16
1.69519e-17
1.2521e-17
2.0527e-17
4.83611e-17
2.90269e-17
6.98322e-14
5.43719e-14
4.02628e-14
3.14904e-14
2.29765e-14
1.20656e-14
7.97717e-15
8.55187e-15
9.90116e-15
1.12775e-14
8.01466e-15
2.37802e-15
3.5367e-16
1.39715e-17
2.23953e-18
4.15993e-18
1.08517e-17
3.55061e-17
1.52759e-17
1.66207e-14
1.15831e-14
8.16673e-15
6.15626e-15
3.18662e-15
1.0684e-15
4.99961e-16
5.89266e-16
7.67222e-16
8.38741e-16
4.00928e-16
1.37686e-16
1.54591e-17
4.44134e-19
5.07074e-19
2.05085e-18
7.82093e-18
1.86852e-17
9.84589e-18
3.45378e-15
2.25731e-15
1.61689e-15
8.3649e-16
2.7416e-16
4.55039e-17
1.65788e-17
2.67526e-17
4.66778e-17
2.11406e-17
1.22108e-17
4.19537e-18
4.1676e-19
9.09118e-20
2.77173e-19
1.4722e-18
5.59413e-18
1.30408e-17
4.42098e-18
5.91101e-16
3.94522e-16
2.00086e-16
6.03361e-17
8.95513e-18
5.22232e-19
3.42191e-19
9.28072e-19
4.80181e-19
3.96665e-19
2.3614e-19
5.87753e-20
2.53117e-20
4.91268e-20
1.95987e-19
1.1215e-18
4.0004e-18
5.96098e-18
2.64154e-18
8.79016e-17
5.2086e-17
1.52229e-17
1.74975e-18
7.15386e-20
3.96814e-21
6.70382e-21
5.17665e-21
6.38653e-21
7.10406e-21
6.89556e-21
9.56387e-21
1.73595e-20
4.05715e-20
1.64922e-19
9.23642e-19
2.45318e-18
3.9355e-18
9.75918e-19
1.14966e-17
3.5656e-18
4.42895e-19
1.31026e-20
1.39022e-22
1.09795e-22
1.43168e-22
3.07138e-22
6.9836e-22
1.58878e-21
3.6847e-21
8.14032e-21
1.59487e-20
3.74985e-20
1.55085e-19
6.64962e-19
1.5701e-18
1.50001e-18
5.28839e-19
9.12e-19
9.97884e-20
2.09137e-21
1.46901e-23
1.35663e-23
2.89203e-23
7.89128e-23
2.18286e-22
5.80533e-22
1.46777e-21
3.54007e-21
7.79133e-21
1.51919e-20
3.51166e-20
1.26348e-19
4.19665e-19
8.86725e-19
8.99059e-19
1.5109e-19
1.28985e-20
2.52405e-22
2.31202e-24
2.60607e-24
7.2288e-24
2.29174e-23
6.81633e-23
1.919e-22
5.10155e-22
1.28835e-21
3.08454e-21
6.72542e-21
1.30035e-20
2.96107e-20
9.5145e-20
2.73551e-19
4.95664e-19
2.7923e-19
7.11205e-20
7.58241e-23
7.05953e-25
5.60705e-25
1.76452e-24
5.96381e-24
1.87082e-23
5.58099e-23
1.54539e-22
4.08651e-22
1.02962e-21
2.43925e-21
5.30502e-21
1.02211e-20
2.2412e-20
6.56309e-20
1.65893e-19
2.16078e-19
1.3705e-19
1.9119e-20
2.12134e-25
9.50262e-26
3.63896e-25
1.32985e-24
4.42936e-24
1.36684e-23
3.98638e-23
1.0988e-22
2.88995e-22
7.26526e-22
1.72463e-21
3.71214e-21
7.13773e-21
1.55755e-20
3.81406e-20
9.48227e-20
9.02188e-20
3.43615e-20
8.99303e-21
1.32749e-26
6.35668e-26
2.45038e-25
8.2638e-25
2.62924e-24
7.80286e-24
2.26802e-23
6.40798e-23
1.70988e-22
4.37564e-22
1.0413e-21
2.26492e-21
4.49698e-21
9.52837e-21
2.02944e-20
4.50987e-20
2.98543e-20
1.32831e-20
3.6872e-21
8.64536e-27
3.53576e-26
1.22222e-25
3.83026e-25
1.18545e-24
3.60124e-24
1.06066e-23
3.02653e-23
8.3111e-23
2.20601e-22
5.4357e-22
1.20827e-21
2.36574e-21
5.12735e-21
9.94371e-21
1.72585e-20
8.29658e-21
4.23042e-21
1.04367e-21
3.11969e-27
1.04894e-26
3.17836e-26
9.3885e-26
3.14574e-25
1.03708e-24
3.32284e-24
9.9467e-24
2.89024e-23
7.87671e-23
2.01132e-22
4.67853e-22
9.35502e-22
1.95598e-21
3.34515e-21
4.4523e-21
2.01697e-21
7.28705e-22
4.3728e-23
)
;

boundaryField
{
    leftWall
    {
        type            alphaContactAngle;
        contactAngleProperties 
        {
            mercury         
            {
                theta0          90;
            }
            air             
            {
                theta0          90;
            }
            oil             
            {
                theta0          90;
            }
        }
        value           nonuniform List<scalar> 
50
(
1.01037e-10
2.26792e-10
2.27906e-10
1.64208e-10
0.0194477
0.675288
1
1
1
0.995003
0.897798
0.63527
0.00559693
4.73176e-05
4.69245e-05
3.13913e-05
7.36288e-06
1.47348e-07
2.18259e-07
4.02116e-07
4.94618e-07
8.25808e-08
2.29301e-08
1.72839e-08
1.93399e-08
2.04681e-08
2.04475e-08
1.914e-08
1.78929e-08
1.77761e-08
1.79335e-08
1.79335e-08
1.79335e-08
1.76725e-08
1.66901e-08
1.46883e-08
1.31108e-08
1.10175e-08
9.29435e-09
7.19313e-09
5.1636e-09
3.34147e-09
1.74182e-09
8.15339e-10
2.95488e-10
8.06496e-11
1.42771e-11
1.0668e-12
5.62563e-15
1.04762e-20
)
;
    }
    rightWall
    {
        type            alphaContactAngle;
        contactAngleProperties 
        {
            mercury         
            {
                theta0          90;
            }
            air             
            {
                theta0          90;
            }
            oil             
            {
                theta0          90;
            }
        }
        value           nonuniform List<scalar> 
50
(
0.0120501
0.0120304
0.00068255
0.0112965
0.295492
0.584249
0.709351
0.623608
0.651522
0.690445
0.148035
1.69547e-23
0.000153772
8.16995e-06
8.16909e-07
0.0050734
0.00965086
0.0048017
1.3215e-06
-3.96512e-10
6.40872e-09
1.30754e-08
1.03336e-08
4.85853e-09
8.30733e-10
9.25299e-11
3.84147e-12
3.66457e-13
3.49398e-14
2.91807e-15
4.30776e-16
1.90545e-16
1.43234e-16
9.13269e-17
6.81406e-17
4.17386e-17
2.90269e-17
1.52759e-17
9.84589e-18
4.42098e-18
2.64154e-18
9.75918e-19
5.28839e-19
1.5109e-19
7.11205e-20
1.9119e-20
8.99303e-21
3.6872e-21
1.04367e-21
4.3728e-23
)
;
    }
    lowerWall
    {
        type            alphaContactAngle;
        contactAngleProperties 
        {
            mercury         
            {
                theta0          90;
            }
            air             
            {
                theta0          90;
            }
            oil             
            {
                theta0          90;
            }
        }
        value           nonuniform List<scalar> 
62
(
1.01037e-10
1.26741e-10
1.48398e-10
1.53968e-10
1.59822e-10
1.66191e-10
1.73774e-10
1.81201e-10
1.87402e-10
1.92395e-10
1.97675e-10
2.0229e-10
2.09055e-10
2.21537e-10
2.53416e-10
3.08783e-10
3.9104e-10
4.93741e-10
7.21747e-10
1.40235e-09
2.48161e-09
2.77872e-09
2.77878e-09
2.77878e-09
2.4315e-09
1.71136e-09
1.40319e-09
5.37416e-10
8.06833e-11
-3.63735e-20
0.102046
0.91691
0.964106
0.999903
0.999924
0.0107673
0.0117439
0.317825
0.661856
0.889118
0.889195
0.885339
0.895925
0.0107673
0.0112736
0.0376633
0.0538567
0.0465337
0.015422
0.000737604
0.000827415
0.000772281
0.00092903
0.00409786
0.0174038
0.119365
0.124194
0.124408
0.124477
0.04886
0.0024318
0.0120501
)
;
    }
    atmosphere
    {
        type            inletOutlet;
        inletValue      uniform 0;
        value           nonuniform List<scalar> 
46
(
0
0
0
2.43199e-15
1.73541e-15
8.45979e-16
3.96871e-16
1.58011e-16
5.56805e-17
1.83254e-17
5.58117e-18
0
0
0
0
0
0
0
0
0
0
0
0
0
0
0
0
0
0
0
0
0
1.03708e-24
3.32284e-24
9.94669e-24
2.89024e-23
7.8767e-23
2.01131e-22
4.67853e-22
9.35501e-22
1.95598e-21
3.34515e-21
0
2.01697e-21
0
0
)
;
    }
    defaultFaces
    {
        type            empty;
    }
}

