/*--------------------------------*- C++ -*----------------------------------*\
  =========                 |
  \\      /  F ield         | OpenFOAM: The Open Source CFD Toolbox
   \\    /   O peration     | Website:  https://openfoam.org
    \\  /    A nd           | Version:  13
     \\/     M anipulation  |
\*---------------------------------------------------------------------------*/
FoamFile
{
    format      ascii;
    class       volScalarField;
    location    "2.6";
    object      alpha.oil;
}
// * * * * * * * * * * * * * * * * * * * * * * * * * * * * * * * * * * * * * //

dimensions      [];

internalField   nonuniform List<scalar> 
2268
(
1.87845e-14
1.08875e-13
4.75855e-13
1.52759e-12
3.78196e-12
7.86265e-12
1.5164e-11
2.75384e-11
4.90509e-11
8.68954e-11
1.53375e-10
2.7102e-10
4.83436e-10
8.23574e-10
1.65897e-09
3.30462e-09
6.42083e-09
8.62501e-09
1.71442e-08
2.4761e-06
0.000367311
0.000567034
0.0005671
1.72514e-14
1.3253e-13
3.12691e-13
1.57721e-12
3.90371e-12
8.40965e-12
1.66707e-11
3.23298e-11
5.74078e-11
1.06822e-10
1.77242e-10
3.41758e-10
6.1375e-10
1.05771e-09
2.08537e-09
4.11757e-09
8.20771e-09
1.0096e-08
1.06708e-08
6.44206e-07
7.58205e-05
0.000198887
0.000236148
6.56189e-14
6.00769e-13
5.39236e-13
1.40254e-12
3.55663e-12
7.31087e-12
1.46388e-11
2.92929e-11
5.8268e-11
1.12759e-10
1.97681e-10
3.67144e-10
6.45557e-10
1.10363e-09
1.98553e-09
3.56118e-09
6.23642e-09
8.31036e-09
1.08586e-08
6.13044e-07
6.52276e-08
2.20395e-08
3.30193e-08
5.48115e-12
5.77968e-12
6.00684e-12
4.94984e-12
5.30686e-12
7.38461e-12
1.32504e-11
2.59287e-11
5.1412e-11
1.09819e-10
2.23279e-10
4.33938e-10
7.27886e-10
1.22365e-09
2.41239e-09
4.09584e-09
6.31064e-09
7.74989e-09
8.75956e-09
1.85198e-07
3.4159e-08
2.55276e-08
1.17779e-07
2.26265e-10
2.31317e-10
1.8391e-10
1.26845e-10
7.9568e-11
4.99555e-11
3.00245e-11
2.69061e-11
3.79108e-11
6.80907e-11
1.38699e-10
3.08522e-10
7.10172e-10
1.52344e-09
2.67443e-09
5.00215e-09
1.02244e-08
8.04878e-09
8.41956e-09
2.75426e-08
1.52246e-08
1.29253e-08
2.09262e-08
2.25226e-09
2.04182e-09
1.63486e-09
1.20144e-09
8.80056e-10
6.4578e-10
4.39691e-10
2.41045e-10
1.08104e-10
7.74193e-11
8.91274e-11
1.60656e-10
4.02202e-10
1.16092e-09
2.50396e-09
3.6629e-09
6.58807e-09
6.0659e-08
6.38852e-08
2.60484e-08
6.96275e-08
2.02835e-08
6.90767e-07
3.51786e-09
3.37822e-09
2.88649e-09
2.25367e-09
1.7676e-09
1.48432e-09
1.28016e-09
9.98304e-10
5.88733e-10
2.84125e-10
1.58803e-10
1.51563e-10
2.09993e-10
5.71836e-10
1.35104e-09
1.12458e-09
6.08688e-10
1.26907e-07
1.02072e-06
9.04836e-07
3.98746e-07
2.19127e-08
2.6849e-05
3.65957e-09
3.65943e-09
3.34714e-09
2.68474e-09
2.14235e-09
1.71594e-09
1.64695e-09
1.44004e-09
1.04469e-09
6.73892e-10
4.03637e-10
2.62883e-10
2.39523e-10
3.55148e-10
5.94819e-10
5.93287e-10
5.92833e-10
2.21482e-07
1.31513e-06
1.31907e-06
5.39466e-09
1.78098e-05
3.39479e-05
0.111242
0.110459
0.0741287
0.0372815
0.0373467
0.104362
0.300151
0.301534
0.296748
0.287544
0.29032
0.288244
0.153112
0.0614304
0.0718146
0.109188
0.184859
0.231349
0.221863
0.382341
0.332494
0.262966
0.187634
0.0681039
0.0444478
0.118344
0.139221
0.0748951
0.073149
0.141314
0.217039
0.153891
0.0617385
0.0627242
0.128783
0.228267
0.2315
0.221946
0.388222
0.388981
0.483803
0.485504
0.37168
0.0145256
0.00177155
0.000320505
5.31682e-08
5.74666e-08
0.0187829
0.119887
0.172733
0.0909355
0.0628292
0.160839
0.324392
0.405941
0.433268
0.204476
0.0746508
0.187893
0.286022
0.449955
0.429631
0.056974
0.0143529
0.0096826
0.000604365
0.0697289
0.152301
0.172534
0.198432
0.229379
0.310762
0.460132
0.457171
0.462665
0.0156204
0.00810908
0.00652464
0.00876991
0.283298
0.742251
0.643015
0.42916
0.11145
9.37932e-21
0.0133113
0.17924
0.288582
0.326268
0.326222
0.2933
0.127572
0.0509723
0.369636
0.0204286
0.0114583
0.00661854
0.0126456
0.37823
0.742325
0.74239
0.730309
0.225226
-5.07452e-20
-1.63416e-12
0.0715154
0.322968
0.325778
0.273782
0.0148221
0.000220184
0.000241694
0.0895606
0.0378949
0.0288291
0.0178836
0.050467
0.553335
0.74235
0.740602
0.531599
0.0495051
2.27641e-20
-1.07129e-11
0.0217076
0.275858
0.310147
0.0174741
0.000185225
0.000172614
0.00178027
0.0605561
0.0491576
0.0355703
0.0298752
0.0527331
0.499788
0.701193
0.582948
0.0532639
0.000204151
2.0783e-06
3.11906e-09
0.0117106
0.261354
0.24912
0.000172583
0.000172686
0.000172534
0.0259037
0.273942
2.50803e-09
2.6433e-09
2.57558e-09
2.34294e-09
2.00378e-09
2.02451e-09
2.25315e-09
1.9645e-09
1.54035e-09
1.12962e-09
7.07773e-10
4.37396e-10
3.4316e-10
4.09744e-10
5.30353e-10
8.52302e-10
1.25381e-09
2.75663e-08
3.12401e-07
2.31126e-07
0
1.92204e-06
1.05827e-05
2.95176e-10
2.99182e-10
3.26827e-10
3.96489e-10
3.26891e-08
5.51096e-09
4.4704e-09
2.94464e-09
1.94752e-09
1.83616e-09
1.38659e-09
6.09449e-10
3.43875e-10
3.61433e-10
5.53955e-10
1.09449e-09
1.84981e-09
3.14992e-09
1.78617e-08
9.16995e-09
-4.00161e-11
-1.62338e-08
-2.84694e-07
9.63914e-20
-2.57144e-19
0.00019369
5.49555e-15
1.06058e-06
4.31256e-19
1.40174e-20
-9.77844e-21
2.58494e-28
-2.58494e-28
5.16988e-28
1.29247e-27
-3.87741e-28
5.10595e-28
-1.22145e-27
1.16461e-28
-5.09119e-27
4.94861e-12
9.13983e-12
2.69013e-11
0.00367405
0.030094
0.0873612
0.241281
0.404262
0.443729
0.398288
0.333279
0.169719
0.0663948
0.0707346
0.0964941
0.113138
0.131256
0.168849
0.182895
0.167637
0.163847
0.184859
0.235438
0.302889
0.350224
0.394955
0.492094
0.72824
0.828572
0.87714
0.994332
0.999684
0.999738
0.953618
0.744651
0.681835
0.712537
0.743613
0.761322
0.790236
0.848442
0.880054
0.886328
0.86586
0.839681
0.888454
0.972932
0.980183
0.979217
0.991564
0.965237
0.912595
0.991425
0.99967
0.999705
0.999348
0.962046
0.938374
0.98307
0.999995
0.989868
0.983999
0.995412
0.997685
0.999114
0.999447
0.996809
0.997062
1
1
1
1
0.99664
0.994751
0.999972
0.999296
0.999275
0.999949
0.999999
1
1
1
1
1
0.999999
1
1
1
1
1
1
1
1
1
0.999999
0.999999
0.999999
0.999998
0.919784
0.949807
0.969194
0.968603
0.969074
0.953397
0.955611
0.96543
0.96268
0.95642
0.949112
0.941094
0.93225
0.923924
0.91584
0.906081
0.895325
0.886795
0.881165
0.87783
0.876732
0.879544
0.886796
0.199914
0.248658
0.32069
0.339929
0.344383
0.357555
0.3508
0.322146
0.297685
0.279292
0.260465
0.237841
0.215931
0.197411
0.181301
0.166096
0.152486
0.142748
0.136232
0.131862
0.130105
0.132047
0.140774
1.19785e-07
1.15731e-07
4.73015e-08
3.17971e-08
3.07504e-08
3.09506e-08
2.61025e-08
2.13446e-08
1.57916e-08
2.23629e-07
1.24502e-07
1.51062e-07
2.43243e-08
-1.43579e-11
2.26685e-17
2.13272e-17
1.04847e-16
2.31709e-16
2.21489e-16
9.51773e-17
4.33587e-25
1.03152e-26
-1.71173e-09
7.29944e-07
1.90481e-07
1.22252e-07
1.39966e-07
4.67109e-07
1.9354e-07
2.55705e-08
1.587e-08
1.35465e-08
1.58093e-08
1.63767e-08
2.32634e-08
2.67052e-08
2.27593e-08
2.16403e-08
2.43432e-08
3.92153e-08
4.2761e-08
3.96053e-08
4.93606e-08
5.42981e-08
8.65551e-08
1.63967e-07
1.52079e-06
1.59286e-06
5.85311e-07
1.3374e-07
2.4296e-07
3.88481e-07
2.38914e-06
8.1001e-06
1.14615e-05
2.7102e-06
3.35943e-11
1.01153e-07
4.43362e-08
3.87473e-08
8.4598e-08
1.86899e-07
2.37117e-07
1.99055e-07
1.82675e-07
1.24743e-07
1.27452e-07
1.58834e-07
1.94989e-07
1.71601e-06
5.80035e-06
2.65932e-05
2.47084e-05
2.33161e-07
5.66952e-07
1.47467e-05
0.000139588
0.000159836
4.65745e-05
-8.67068e-16
3.72508e-09
3.50836e-10
2.44189e-09
8.12079e-08
2.72078e-07
2.69847e-07
2.23108e-07
1.98982e-07
1.12621e-07
1.15015e-07
9.09393e-08
1.21411e-07
1.80049e-06
1.66344e-05
5.17469e-05
5.08009e-05
2.22715e-05
3.40237e-07
4.88477e-05
0.000163518
0.000163145
0.000160122
4.86384e-05
6.8549e-16
3.34718e-11
7.28343e-11
1.0887e-07
2.71706e-07
2.72236e-07
2.61191e-07
2.34085e-07
1.1359e-07
1.04715e-07
6.851e-08
7.37374e-08
1.5199e-06
9.41449e-06
5.02485e-05
5.00056e-05
1.78065e-05
1.8436e-07
5.67197e-06
0.00011885
0.000163219
0.00016192
7.76942e-05
5.22751e-16
3.32529e-09
7.31876e-09
7.10715e-09
1.05253e-07
2.72426e-07
2.66192e-07
2.43263e-07
1.16392e-07
1.082e-07
5.2042e-08
4.72801e-08
1.11107e-06
3.40322e-06
1.46621e-05
2.05079e-05
1.74162e-06
1.42274e-07
3.36006e-07
5.87201e-06
5.88223e-05
8.46839e-05
1.23334e-05
6.85368e-16
3.64797e-08
3.90271e-08
7.21657e-09
6.27052e-09
9.39584e-08
2.02333e-07
2.03676e-07
1.13183e-07
9.7441e-08
4.7036e-08
3.64303e-08
9.11253e-07
1.49069e-06
5.43957e-07
2.83439e-07
2.75909e-07
1.0126e-07
1.09109e-07
3.03475e-07
4.63599e-07
1.63538e-07
1.71184e-07
2.77125e-07
5.24313e-07
1.60022e-07
2.25442e-08
6.24434e-09
1.41261e-08
8.20544e-08
1.18695e-07
1.00224e-07
6.6694e-08
4.17902e-08
3.20233e-08
6.83073e-07
8.22176e-07
2.85674e-07
9.76409e-08
9.54428e-08
8.54147e-08
9.57601e-08
1.18096e-07
1.194e-07
1.62457e-07
1.81399e-07
5.2128e-07
8.33155e-07
7.1148e-07
4.62635e-08
6.27051e-09
6.33952e-09
2.96756e-08
5.85331e-08
5.68668e-08
3.8968e-08
3.05197e-08
2.30514e-08
4.42669e-07
5.59535e-07
2.78951e-07
1.01905e-07
8.13693e-08
8.32194e-08
8.85741e-08
9.79556e-08
5.43338e-08
3.9576e-08
9.10658e-08
5.58137e-07
8.306e-07
6.38403e-07
1.01061e-07
1.41752e-08
7.36932e-09
1.29615e-08
2.37233e-08
2.69255e-08
2.17456e-08
1.73714e-08
1.35759e-08
2.48029e-07
3.8571e-07
2.18223e-07
9.93535e-08
7.61302e-08
7.14791e-08
6.92137e-08
6.54578e-08
3.99036e-08
3.1051e-08
5.3593e-08
2.64861e-07
5.62655e-07
2.56873e-07
6.98212e-08
2.32075e-08
1.05712e-08
9.36077e-09
1.15259e-08
1.32917e-08
1.14009e-08
9.16604e-09
7.65423e-09
1.61868e-07
2.30772e-07
1.49985e-07
8.58227e-08
6.52971e-08
5.45166e-08
4.82115e-08
4.05229e-08
2.92646e-08
2.98689e-08
4.60643e-08
9.43164e-08
1.07839e-07
6.9535e-08
3.84428e-08
1.8997e-08
1.0296e-08
8.61909e-09
8.15474e-09
8.12904e-09
7.28288e-09
5.75038e-09
4.75774e-09
8.36386e-08
1.52153e-07
1.10886e-07
7.18315e-08
5.40112e-08
4.04032e-08
3.28744e-08
2.61318e-08
2.11704e-08
2.2619e-08
3.0649e-08
3.69912e-08
2.75078e-08
2.26232e-08
1.7366e-08
1.17859e-08
8.3427e-09
6.94756e-09
6.03915e-09
5.47345e-09
4.79105e-09
3.97113e-09
3.30431e-09
5.81641e-08
8.48083e-08
7.9994e-08
6.22099e-08
4.58931e-08
3.17632e-08
2.37601e-08
1.81666e-08
1.48861e-08
1.50118e-08
1.69647e-08
1.64244e-08
1.2864e-08
1.04105e-08
8.42879e-09
6.95238e-09
5.71533e-09
4.84624e-09
4.06095e-09
3.58798e-09
3.10348e-09
2.67367e-09
2.27682e-09
4.16375e-08
7.32928e-08
6.51068e-08
5.19576e-08
3.85518e-08
2.60538e-08
1.89537e-08
1.34948e-08
1.03882e-08
9.10682e-09
8.60033e-09
7.45353e-09
5.96142e-09
4.96387e-09
4.355e-09
3.91346e-09
3.37245e-09
2.91314e-09
2.45363e-09
2.15918e-09
1.91807e-09
1.63803e-09
1.38983e-09
3.53262e-08
5.7927e-08
5.4515e-08
4.37318e-08
3.10317e-08
2.15131e-08
1.47223e-08
1.00967e-08
7.17398e-09
5.60609e-09
4.62277e-09
3.71164e-09
3.05939e-09
2.63138e-09
2.35216e-09
2.11012e-09
1.84218e-09
1.57038e-09
1.33649e-09
1.17138e-09
9.94479e-10
8.75633e-10
7.60858e-10
2.49978e-08
4.07946e-08
4.11237e-08
3.26922e-08
2.46353e-08
1.72453e-08
1.13275e-08
7.38268e-09
4.84218e-09
3.34756e-09
2.49787e-09
1.94031e-09
1.58225e-09
1.36399e-09
1.19452e-09
1.06712e-09
9.22355e-10
7.83753e-10
6.59866e-10
5.66521e-10
4.9171e-10
4.24908e-10
3.53548e-10
1.91715e-08
2.92687e-08
2.85351e-08
2.23665e-08
1.71266e-08
1.24345e-08
8.54456e-09
5.36472e-09
3.35751e-09
2.16743e-09
1.47706e-09
1.05178e-09
8.23368e-10
6.85752e-10
5.86753e-10
5.06812e-10
4.29638e-10
3.66327e-10
3.02795e-10
2.58737e-10
2.17819e-10
1.7842e-10
1.50236e-10
1.25228e-08
1.91143e-08
1.87154e-08
1.47671e-08
1.10488e-08
8.12794e-09
5.58276e-09
3.48974e-09
2.17398e-09
1.33832e-09
8.49462e-10
5.63285e-10
3.99736e-10
3.10235e-10
2.5639e-10
2.17921e-10
1.85953e-10
1.58899e-10
1.29881e-10
1.07531e-10
8.95581e-11
7.07846e-11
5.6725e-11
9.09793e-09
1.32345e-08
1.19221e-08
9.16746e-09
6.57764e-09
4.65216e-09
3.24041e-09
2.0678e-09
1.25434e-09
7.54117e-10
4.54566e-10
2.82615e-10
1.84732e-10
1.32721e-10
1.0301e-10
8.44355e-11
7.17616e-11
6.01602e-11
4.87929e-11
4.04781e-11
3.17383e-11
2.38091e-11
1.92655e-11
5.79834e-09
8.21685e-09
7.07861e-09
5.17308e-09
3.51533e-09
2.41552e-09
1.64578e-09
1.0567e-09
6.47947e-10
3.8237e-10
2.23732e-10
1.30325e-10
8.03696e-11
5.25885e-11
3.81861e-11
2.97854e-11
2.42147e-11
2.0441e-11
1.65153e-11
1.33391e-11
1.0434e-11
7.66689e-12
5.89074e-12
3.82338e-09
4.74499e-09
3.81723e-09
2.62251e-09
1.67795e-09
1.11396e-09
7.36374e-10
4.7197e-10
2.83894e-10
1.6769e-10
9.56281e-11
5.39531e-11
3.11303e-11
1.93571e-11
1.29843e-11
9.4912e-12
7.47066e-12
6.15548e-12
4.96075e-12
3.97997e-12
2.90842e-12
2.11255e-12
1.59618e-12
2.22064e-09
2.53044e-09
1.86551e-09
1.20091e-09
7.24314e-10
4.46138e-10
2.8328e-10
1.78016e-10
1.09232e-10
6.27689e-11
3.4897e-11
1.97473e-11
1.0996e-11
6.37182e-12
3.95024e-12
2.80321e-12
2.10784e-12
1.71133e-12
1.32978e-12
1.03346e-12
7.82829e-13
5.25382e-13
3.7551e-13
1.18559e-09
1.1684e-09
8.02156e-10
4.86493e-10
2.74085e-10
1.59194e-10
9.62282e-11
5.9588e-11
3.54596e-11
2.05289e-11
1.1383e-11
6.19708e-12
3.37246e-12
1.87038e-12
1.11823e-12
7.25318e-13
5.30067e-13
4.1718e-13
3.11517e-13
2.40054e-13
1.64905e-13
1.15284e-13
7.73027e-14
5.69825e-10
4.76942e-10
3.00164e-10
1.70725e-10
9.07235e-11
4.78623e-11
2.84663e-11
1.76246e-11
1.05324e-11
6.0591e-12
3.26951e-12
1.77455e-12
9.01988e-13
4.82717e-13
2.66619e-13
1.7288e-13
1.20597e-13
8.97527e-14
6.63331e-14
4.81091e-14
3.31364e-14
2.14801e-14
1.34613e-14
2.17278e-10
1.63161e-10
9.51168e-11
5.14164e-11
2.65431e-11
1.39152e-11
7.97468e-12
4.58562e-12
2.73487e-12
1.53765e-12
8.25441e-13
4.13813e-13
2.09119e-13
1.07207e-13
5.91676e-14
3.59777e-14
2.47433e-14
1.78667e-14
1.27004e-14
8.66057e-15
5.69263e-15
3.52794e-15
2.0644e-15
7.49983e-11
5.17756e-11
2.83593e-11
1.47383e-11
6.90314e-12
3.41148e-12
1.87894e-12
1.09103e-12
6.2566e-13
3.4414e-13
1.77615e-13
9.00953e-14
4.25181e-14
2.18806e-14
1.19765e-14
7.23913e-15
4.78652e-15
3.26652e-15
2.25706e-15
1.4264e-15
8.68687e-16
4.98921e-16
2.70118e-16
1.99206e-11
1.24313e-11
6.36713e-12
3.14491e-12
1.56822e-12
7.8867e-13
4.13382e-13
2.29161e-13
1.28549e-13
6.96637e-14
3.54321e-14
1.75702e-14
8.60328e-15
4.21041e-15
2.25679e-15
1.33387e-15
8.5724e-16
5.63662e-16
3.62342e-16
2.11373e-16
1.19045e-16
6.14744e-17
3.37003e-17
4.00495e-12
2.24367e-12
1.14431e-12
6.01969e-13
3.11354e-13
1.5439e-13
7.94911e-14
4.43354e-14
2.53586e-14
1.38021e-14
6.96473e-15
3.32839e-15
1.5422e-15
7.37152e-16
3.85318e-16
2.23719e-16
1.40906e-16
8.86385e-17
5.26902e-17
2.87171e-17
1.43372e-17
7.15701e-18
6.06801e-18
5.27873e-13
2.78924e-13
1.60134e-13
9.46846e-14
5.15008e-14
2.6744e-14
1.41918e-14
7.95094e-15
4.57043e-15
2.46499e-15
1.21116e-15
5.66353e-16
2.59688e-16
1.2261e-16
6.23696e-17
3.56862e-17
2.19586e-17
1.304e-17
7.03792e-18
3.45468e-18
1.63847e-18
1.07148e-18
2.72323e-18
2.93331e-14
1.7942e-14
1.58869e-14
1.22123e-14
7.63941e-15
4.25818e-15
2.3871e-15
1.38822e-15
8.14972e-16
4.43166e-16
2.11749e-16
9.62596e-17
4.22652e-17
1.92237e-17
9.64219e-18
5.52935e-18
3.3223e-18
1.79697e-18
8.55187e-19
3.81356e-19
2.14824e-19
3.74469e-19
2.05732e-18
8.92853e-17
3.09749e-16
9.85575e-16
1.28218e-15
9.60704e-16
6.0383e-16
3.357e-16
2.08018e-16
1.31951e-16
7.11204e-17
3.50862e-17
1.51308e-17
6.48988e-18
2.90836e-18
1.46783e-18
8.31127e-19
4.57485e-19
2.29157e-19
1.02693e-19
4.90476e-20
5.94425e-20
2.35776e-19
1.51085e-18
1.40458e-22
1.18379e-18
3.88736e-17
1.14684e-16
1.03173e-16
6.46402e-17
4.43253e-17
3.01389e-17
1.89991e-17
1.10597e-17
5.44414e-18
2.41327e-18
1.023e-18
4.59765e-19
2.26727e-19
1.2709e-19
6.56143e-20
3.00075e-20
1.31714e-20
9.40924e-21
2.48133e-20
1.14256e-19
7.89525e-19
0.00010945
0.000141481
2.76209e-05
1.50705e-06
0.000116727
0.00184444
-3.15594e-19
1.3612e-09
0.163046
0.220135
0.192045
0.171454
0.832849
0.860343
0.865106
0.891607
0.935746
0.984518
0.999682
0.999747
0.999962
0.99998
0.999989
0.99998
0.999997
0.999997
0.999989
0.999985
0.905897
0.912166
0.918873
0.925062
0.16558
0.174731
0.183893
0.191162
1.20135e-08
4.36325e-09
-1.05879e-24
-1.43403e-09
1.94326e-07
1.92903e-07
1.88216e-07
1.88008e-07
2.3422e-07
2.41664e-07
2.6028e-07
2.60204e-07
1.54767e-07
1.93971e-07
1.71295e-07
1.79796e-07
8.52403e-08
1.16547e-07
1.22464e-07
1.39958e-07
5.31774e-08
6.88396e-08
7.35869e-08
8.12378e-08
3.03292e-08
3.71448e-08
3.95982e-08
4.29039e-08
1.84912e-08
1.50844e-08
2.03788e-08
2.22619e-08
1.31315e-08
9.73199e-09
1.00761e-08
1.01139e-08
8.68667e-09
6.04659e-09
6.00657e-09
5.41515e-09
5.64868e-09
4.24084e-09
3.44644e-09
3.08509e-09
3.93441e-09
2.86881e-09
2.6601e-09
2.1968e-09
2.76352e-09
2.38742e-09
2.03177e-09
1.76233e-09
2.0087e-09
1.72468e-09
1.55924e-09
1.37413e-09
1.26412e-09
1.1041e-09
1.02304e-09
9.29672e-10
7.00701e-10
6.06838e-10
5.46963e-10
5.27836e-10
3.22594e-10
2.84217e-10
2.65232e-10
2.51648e-10
1.37073e-10
1.21718e-10
1.1014e-10
1.0031e-10
5.07278e-11
4.15183e-11
3.90379e-11
3.67643e-11
1.7513e-11
1.4717e-11
1.32288e-11
1.15133e-11
5.00691e-12
4.20641e-12
3.68561e-12
3.37523e-12
1.34719e-12
1.14098e-12
9.99004e-13
8.36667e-13
3.09101e-13
2.39151e-13
2.16592e-13
1.81333e-13
6.2875e-14
5.03554e-14
4.07944e-14
3.21714e-14
1.01472e-14
8.22862e-15
6.64619e-15
4.97648e-15
1.5516e-15
1.17936e-15
8.72498e-16
6.5952e-16
1.96028e-16
1.51475e-16
1.22861e-16
1.07163e-16
2.67259e-17
2.51713e-17
3.01051e-17
4.71349e-17
7.15207e-18
1.02736e-17
1.93538e-17
4.62531e-17
4.37696e-18
8.32771e-18
2.15517e-17
6.42806e-17
3.6883e-18
8.92861e-18
2.8991e-17
9.38013e-17
3.12461e-18
9.9274e-18
3.53731e-17
1.15442e-16
2.33354e-18
8.20893e-18
2.82154e-17
8.65348e-17
0.00722667
0.0952548
0.04349
0.0416199
0.208193
0.572542
0.18483
-5.01117e-20
1.64047e-19
4.57169e-20
3.129e-05
0.000370217
0.0261763
0.0130342
0.000213705
0.000192566
0.000172614
0.0783557
0.295383
0.0423951
0.155183
0.0494059
0.0409641
0.214139
0.49446
0.123711
0.0170331
0.048894
0.0291146
0.00456691
0.00360194
0.00342224
0.00501889
0.0260447
0.0954161
0.203747
0.279326
0.271772
0.512966
0.565641
0.406096
0.344466
0.636973
0.669622
0.377013
0.403165
0.706663
0.760179
0.71163
0.623087
0.504221
0.517342
0.610687
0.739211
0.811972
0.838577
0.785235
0.90036
0.909969
0.946233
0.970669
0.980475
0.846068
0.789866
0.854191
0.990716
0.999938
0.999993
0.999962
0.999934
0.999911
0.999788
0.99972
0.999668
0.985139
0.979498
0.999437
0.999939
0.99996
0.999963
0.99877
0.980683
0.965323
0.986769
0.999562
0.999997
0.999996
0.999998
1
0.999999
0.999898
0.999768
0.999797
0.999925
0.99983
0.999975
0.999983
0.999954
0.999767
0.999956
0.999998
1
1
1
1
0.999999
1
1
1
0.999995
0.99995
0.999955
0.999976
0.999976
0.999992
0.999998
0.999999
0.999999
0.999999
1
1
1
1
1
1
0.999999
0.999982
0.999971
0.999994
0.999994
0.999994
0.999994
0.999989
0.930571
0.946436
0.957597
0.964689
0.968802
0.969658
0.967698
0.960999
0.948721
0.933669
0.922124
0.92981
0.942943
0.952977
0.947372
0.955969
0.983972
0.991477
0.994213
0.194138
0.215872
0.234211
0.24454
0.247096
0.240987
0.222081
0.196338
0.173923
0.161257
0.157727
0.163678
0.194474
0.247127
0.258244
0.289918
0.372855
0.525034
0.619052
-6.23047e-10
2.8629e-16
2.80381e-08
1.07595e-07
-1.6177e-22
-1.01591e-21
-7.56536e-22
-2.91935e-09
2.19065e-12
2.29228e-06
1.5713e-11
2.82178e-11
3.90106e-05
-1.50112e-21
-2.23673e-18
-4.5263e-11
3.68554e-17
0.00411786
0.0165087
1.68139e-07
1.91945e-07
9.83392e-07
0.000156217
0.000468637
0.000618559
0.000557849
0.000160733
1.30505e-21
8.25156e-23
8.13449e-05
0.000526177
0.000540338
0.00021318
5.38331e-06
3.46837e-07
9.03582e-10
8.77952e-10
3.87013e-06
2.70905e-07
5.20612e-07
5.21043e-06
0.000362879
0.000976825
0.000976841
0.000864115
7.18041e-05
1.35525e-22
7.64728e-05
0.000801477
0.000824828
0.000542397
0.000175235
6.99052e-07
2.53813e-07
2.17244e-07
1.29343e-07
1.24276e-07
2.14383e-07
3.43436e-07
7.27047e-07
5.39461e-06
0.000136206
0.000238229
3.35258e-07
4.72859e-07
5.26121e-07
1.16745e-05
7.48255e-05
0.00018121
2.19336e-05
1.60219e-05
5.95652e-07
3.85292e-07
3.70386e-07
2.96209e-07
1.56398e-07
1.47099e-07
1.57904e-07
1.67147e-07
1.29302e-07
1.30741e-07
1.45857e-07
5.42097e-07
2.60844e-06
2.17665e-06
3.84408e-07
1.6222e-06
3.9266e-06
7.25914e-07
9.08371e-07
3.29374e-07
3.87085e-07
3.96618e-07
3.93836e-07
3.42749e-07
8.75965e-08
1.018e-07
1.11097e-07
1.28961e-07
1.55043e-07
1.75816e-07
1.782e-07
2.12745e-07
3.07861e-07
3.46136e-07
3.23816e-07
2.5971e-07
2.26799e-07
1.81516e-07
2.49247e-07
2.86322e-07
3.11751e-07
3.51942e-07
3.54933e-07
4.76218e-08
6.84107e-08
8.38925e-08
1.56e-07
2.17616e-07
2.62035e-07
2.42836e-07
1.86799e-07
1.86561e-07
2.37448e-07
3.05864e-07
2.95732e-07
2.3624e-07
1.67309e-07
1.4523e-07
1.57381e-07
1.76707e-07
2.06119e-07
2.32567e-07
2.50908e-08
3.29654e-08
4.60896e-08
7.29351e-08
1.31756e-07
1.9283e-07
2.16939e-07
1.80376e-07
1.27795e-07
1.11153e-07
1.46816e-07
1.84873e-07
1.64469e-07
1.02136e-07
6.79042e-08
6.76246e-08
7.37615e-08
8.64635e-08
5.51382e-08
1.19139e-08
1.51894e-08
1.82609e-08
2.28323e-08
3.21822e-08
4.72259e-08
6.29459e-08
6.87596e-08
5.21344e-08
4.11479e-08
4.60609e-08
5.97725e-08
6.41413e-08
4.80887e-08
3.34358e-08
3.08156e-08
3.01029e-08
1.80303e-08
1.86701e-08
5.17468e-09
6.5109e-09
8.92635e-09
1.0574e-08
1.13573e-08
1.07426e-08
9.78407e-09
1.09053e-08
1.39952e-08
1.76363e-08
1.91811e-08
1.95175e-08
2.03165e-08
1.93412e-08
1.76488e-08
1.5322e-08
1.40023e-08
1.46333e-08
1.5207e-08
2.78631e-09
2.7382e-09
3.8586e-09
5.11213e-09
6.4193e-09
7.54574e-09
8.16633e-09
8.75783e-09
9.57748e-09
1.06212e-08
1.10664e-08
1.04846e-08
9.80701e-09
1.0025e-08
9.94819e-09
1.2497e-08
1.34722e-08
1.7003e-08
1.85015e-08
1.84916e-09
1.61692e-09
1.62135e-09
2.11063e-09
2.68195e-09
3.27698e-09
3.91946e-09
4.50332e-09
5.04077e-09
5.3939e-09
5.58405e-09
5.62905e-09
5.70289e-09
6.21867e-09
7.64949e-09
1.06136e-08
1.4229e-08
2.20261e-08
3.12855e-08
1.44616e-09
1.18867e-09
1.04594e-09
9.98471e-10
1.04761e-09
1.27408e-09
1.53174e-09
1.82089e-09
2.06454e-09
2.28562e-09
2.47912e-09
2.73134e-09
3.21385e-09
4.12407e-09
5.50793e-09
1.00137e-08
1.80568e-08
3.76514e-08
3.71041e-08
1.12694e-09
9.07458e-10
7.45019e-10
6.24476e-10
5.62051e-10
5.49397e-10
6.12406e-10
7.25473e-10
8.60615e-10
1.03557e-09
1.26546e-09
1.59279e-09
2.12025e-09
3.02485e-09
4.70333e-09
8.93339e-09
2.06249e-08
4.81324e-08
7.70466e-08
7.68867e-10
6.19422e-10
5.11298e-10
4.06913e-10
3.29097e-10
2.81254e-10
2.6397e-10
2.92625e-10
3.6929e-10
5.0386e-10
7.03709e-10
1.00996e-09
1.52974e-09
2.42974e-09
3.98971e-09
9.41484e-09
2.41489e-08
7.89891e-08
8.3037e-08
4.37227e-10
3.62445e-10
3.00009e-10
2.349e-10
1.85795e-10
1.48696e-10
1.36568e-10
1.47517e-10
1.93498e-10
2.88775e-10
4.56816e-10
7.35569e-10
1.22337e-09
2.05513e-09
3.71408e-09
8.99129e-09
2.72978e-08
7.94894e-08
8.28735e-08
2.05928e-10
1.72425e-10
1.3973e-10
1.1244e-10
8.81051e-11
7.15443e-11
6.8451e-11
8.17259e-11
1.18499e-10
1.95846e-10
3.38808e-10
6.00406e-10
1.06312e-09
1.89224e-09
3.45831e-09
8.89245e-09
2.98307e-08
9.11341e-08
7.80082e-08
8.27552e-11
6.80067e-11
5.47916e-11
4.31052e-11
3.43214e-11
3.01957e-11
3.34753e-11
4.78461e-11
8.09234e-11
1.49218e-10
2.81245e-10
5.31453e-10
9.83571e-10
1.77576e-09
3.43835e-09
9.03596e-09
3.41768e-08
9.11922e-08
5.36324e-08
2.88428e-11
2.23286e-11
1.77865e-11
1.37606e-11
1.16588e-11
1.22069e-11
1.74515e-11
3.06505e-11
6.21923e-11
1.24576e-10
2.51021e-10
4.99821e-10
9.54748e-10
1.77357e-09
3.35492e-09
9.47288e-09
3.77184e-08
9.59198e-08
4.08808e-08
8.79188e-12
6.59302e-12
4.83491e-12
3.80175e-12
3.8147e-12
5.68377e-12
1.10225e-11
2.33324e-11
5.20516e-11
1.12356e-10
2.38065e-10
4.96188e-10
9.80784e-10
1.82663e-09
3.43813e-09
9.68592e-09
4.31534e-08
9.59706e-08
3.81145e-08
2.41286e-12
1.69887e-12
1.2098e-12
1.12304e-12
1.65296e-12
3.55986e-12
8.32112e-12
2.00234e-11
4.62868e-11
1.06924e-10
2.37969e-10
5.12887e-10
1.04013e-09
1.94011e-09
3.58956e-09
1.01615e-08
4.48921e-08
9.55998e-08
2.06413e-08
5.63905e-13
3.64623e-13
2.92542e-13
4.32853e-13
1.03836e-12
2.75227e-12
7.19335e-12
1.80448e-11
4.42288e-11
1.06621e-10
2.4758e-10
5.43592e-10
1.12307e-09
2.13709e-09
3.87584e-09
1.03638e-08
4.3856e-08
5.88246e-08
1.59604e-08
1.14047e-13
7.63178e-14
9.77427e-14
2.63561e-13
8.23148e-13
2.37682e-12
6.56075e-12
1.72085e-11
4.33749e-11
1.10321e-10
2.63376e-10
5.90113e-10
1.23808e-09
2.3749e-09
4.22388e-09
1.1454e-08
3.33245e-08
4.41593e-08
5.99328e-09
1.94384e-14
1.9192e-14
5.56947e-14
2.13347e-13
7.16276e-13
2.16373e-12
6.21246e-12
1.70714e-11
4.51539e-11
1.1583e-10
2.84453e-10
6.45769e-10
1.35055e-09
2.59831e-09
4.5116e-09
1.16335e-08
2.61899e-08
5.80897e-09
4.73261e-09
3.69081e-15
1.03502e-14
4.8231e-14
1.97227e-13
6.68601e-13
2.10624e-12
6.28753e-12
1.76514e-11
4.7386e-11
1.22851e-10
3.04505e-10
6.9132e-10
1.45369e-09
2.71813e-09
4.70009e-09
1.11329e-08
1.41349e-08
1.07768e-08
1.95803e-09
1.45668e-15
9.47195e-15
4.71199e-14
1.89325e-13
6.608e-13
2.11639e-12
6.40607e-12
1.83461e-11
4.98953e-11
1.29452e-10
3.19035e-10
7.22022e-10
1.49022e-09
2.75877e-09
4.74428e-09
9.07021e-09
9.94107e-09
3.68857e-09
1.54539e-09
1.25848e-15
9.37651e-15
4.55673e-14
1.87156e-13
6.52206e-13
2.15312e-12
6.50603e-12
1.84262e-11
5.04847e-11
1.30634e-10
3.20775e-10
7.14502e-10
1.46059e-09
2.65164e-09
4.2491e-09
6.93407e-09
5.32397e-09
3.21693e-09
6.24901e-10
1.32779e-15
9.35838e-15
4.4485e-14
1.81877e-13
6.33438e-13
2.07228e-12
6.24221e-12
1.77501e-11
4.79021e-11
1.23285e-10
2.99654e-10
6.58993e-10
1.32231e-09
2.36772e-09
3.54078e-09
5.01418e-09
3.67e-09
1.09761e-09
4.14309e-10
1.40789e-15
9.2461e-15
4.22292e-14
1.66728e-13
5.7771e-13
1.83679e-12
5.54303e-12
1.55322e-11
4.16164e-11
1.06674e-10
2.56111e-10
5.59778e-10
1.10672e-09
1.90275e-09
2.73992e-09
3.06476e-09
1.85717e-09
7.46174e-10
1.82089e-10
1.48138e-15
8.3263e-15
3.63741e-14
1.35962e-13
4.6138e-13
1.44578e-12
4.2768e-12
1.19613e-11
3.19084e-11
8.15331e-11
1.96009e-10
4.23443e-10
8.22044e-10
1.3992e-09
1.80859e-09
1.88528e-09
1.03942e-09
2.67879e-10
1.13325e-10
1.33664e-15
6.58421e-15
2.60334e-14
9.01822e-14
2.93841e-13
8.89314e-13
2.62677e-12
7.53358e-12
2.0412e-11
5.30362e-11
1.28049e-10
2.79393e-10
5.48681e-10
8.98363e-10
1.09126e-09
1.03618e-09
4.50231e-10
1.50128e-10
5.75731e-11
9.09551e-16
3.81719e-15
1.36081e-14
4.40125e-14
1.39938e-13
4.35044e-13
1.30448e-12
3.79359e-12
1.06026e-11
2.85751e-11
7.1301e-11
1.59176e-10
3.03936e-10
5.07968e-10
6.02411e-10
4.78758e-10
1.7702e-10
6.45308e-11
1.97381e-11
3.34521e-16
1.16016e-15
3.64127e-15
1.11535e-14
3.84727e-14
1.30174e-13
4.25145e-13
1.29835e-12
3.8457e-12
1.06747e-11
2.76693e-11
6.47323e-11
1.25364e-10
2.05127e-10
2.29748e-10
1.50721e-10
5.38265e-11
1.38959e-11
9.11782e-13
)
;

boundaryField
{
    leftWall
    {
        type            alphaContactAngle;
        contactAngleProperties 
        {
            mercury         
            {
                theta0          90;
            }
            air             
            {
                theta0          90;
            }
            water           
            {
                theta0          90;
            }
        }
        value           nonuniform List<scalar> 
50
(
1.87845e-14
1.72514e-14
6.56189e-14
5.48115e-12
2.26265e-10
2.25226e-09
3.51786e-09
3.65957e-09
2.50803e-09
2.95176e-10
9.63914e-20
0.241281
0.87714
0.991425
0.999296
0.919784
0.199914
1.19785e-07
7.29944e-07
1.52079e-06
1.71601e-06
1.80049e-06
1.5199e-06
1.11107e-06
9.11253e-07
6.83073e-07
4.42669e-07
2.48029e-07
1.61868e-07
8.36386e-08
5.81641e-08
4.16375e-08
3.53262e-08
2.49978e-08
1.91715e-08
1.25228e-08
9.09793e-09
5.79834e-09
3.82338e-09
2.22064e-09
1.18559e-09
5.69825e-10
2.17278e-10
7.49983e-11
1.99206e-11
4.00495e-12
5.27873e-13
2.93331e-14
8.92853e-17
1.40458e-22
)
;
    }
    rightWall
    {
        type            alphaContactAngle;
        contactAngleProperties 
        {
            mercury         
            {
                theta0          90;
            }
            air             
            {
                theta0          90;
            }
            water           
            {
                theta0          90;
            }
        }
        value           nonuniform List<scalar> 
50
(
0.221863
0.221946
0.433268
0.462665
0.369636
0.0895606
0.0605561
0.273942
0.295383
0.271772
0.785235
0.979498
0.99983
0.999976
0.999989
0.994213
0.619052
0.0165087
3.87013e-06
1.24276e-07
1.56398e-07
3.42749e-07
3.54933e-07
2.32567e-07
5.51382e-08
1.86701e-08
1.5207e-08
1.85015e-08
3.12855e-08
3.71041e-08
7.70466e-08
8.3037e-08
8.28735e-08
7.80082e-08
5.36324e-08
4.08808e-08
3.81145e-08
2.06413e-08
1.59604e-08
5.99328e-09
4.73261e-09
1.95803e-09
1.54539e-09
6.24901e-10
4.14309e-10
1.82089e-10
1.13325e-10
5.75731e-11
1.97381e-11
9.11782e-13
)
;
    }
    lowerWall
    {
        type            alphaContactAngle;
        contactAngleProperties 
        {
            mercury         
            {
                theta0          90;
            }
            air             
            {
                theta0          90;
            }
            water           
            {
                theta0          90;
            }
        }
        value           nonuniform List<scalar> 
62
(
1.87845e-14
1.08875e-13
4.75855e-13
1.52759e-12
3.78196e-12
7.86265e-12
1.5164e-11
2.75384e-11
4.90509e-11
8.68954e-11
1.53375e-10
2.7102e-10
4.83436e-10
8.23574e-10
1.65897e-09
3.30462e-09
6.42083e-09
8.62501e-09
1.71442e-08
2.4761e-06
0.000367311
0.000567034
0.0005671
0.0005671
0.000236148
3.30193e-08
1.17779e-07
2.09262e-08
6.90767e-07
2.6849e-05
3.39479e-05
0.00010945
0.000141481
2.76209e-05
1.50705e-06
0.111242
0.382341
0.388222
0.204476
0.0156204
0.0204286
0.0378949
0.0491576
0.111242
0.110459
0.0741287
0.0372815
0.0373467
0.104362
0.300151
0.301534
0.296748
0.287544
0.29032
0.288244
0.153112
0.0614304
0.0718146
0.109188
0.184859
0.231349
0.221863
)
;
    }
    atmosphere
    {
        type            inletOutlet;
        inletValue      uniform 0;
        value           nonuniform List<scalar> 
46
(
0
0
0
1.14683e-16
1.03173e-16
6.46402e-17
4.43253e-17
3.01389e-17
1.89991e-17
1.10597e-17
5.44414e-18
0
0
0
0
0
0
0
0
0
0
0
0
0
0
0
0
0
0
0
0
0
1.30174e-13
4.25145e-13
1.29835e-12
3.84569e-12
1.06747e-11
2.76693e-11
6.47322e-11
1.25364e-10
2.05127e-10
2.29748e-10
0
5.38264e-11
0
0
)
;
    }
    defaultFaces
    {
        type            empty;
    }
}


// ************************************************************************* //
