/*--------------------------------*- C++ -*----------------------------------*\
  =========                 |
  \\      /  F ield         | OpenFOAM: The Open Source CFD Toolbox
   \\    /   O peration     | Website:  https://openfoam.org
    \\  /    A nd           | Version:  13
     \\/     M anipulation  |
\*---------------------------------------------------------------------------*/
FoamFile
{
    format      ascii;
    class       volScalarField;
    location    "2.6";
    object      epsilon;
}
// * * * * * * * * * * * * * * * * * * * * * * * * * * * * * * * * * * * * * //

dimensions      [0 2 -3 0 0 0 0];

internalField   nonuniform List<scalar> 
2268
(
0.00268314
0.014115
0.0293504
0.0451406
0.0604238
0.0746912
0.0877637
0.0994272
0.109514
0.11787
0.124327
0.128741
0.130997
0.13102
0.128749
0.12421
0.117382
0.108262
0.0966376
0.081999
0.0629596
0.0378256
0.0096951
0.00488532
0.00937166
0.0153185
0.0214978
0.0275886
0.0334455
0.0389504
0.0439886
0.0484573
0.0522615
0.0553163
0.0575684
0.0589839
0.05956
0.0593641
0.0584638
0.0568012
0.0542768
0.0506584
0.0454358
0.0377793
0.0273938
0.0186258
0.00837649
0.0102028
0.0142233
0.0184667
0.022697
0.0268101
0.0307193
0.0343417
0.0376008
0.0404268
0.0427646
0.0445756
0.0458432
0.046576
0.0468266
0.0466431
0.0459919
0.0447927
0.0428752
0.0399247
0.0355734
0.0303273
0.0325277
0.0122288
0.0120067
0.015091
0.0184946
0.0219284
0.0252921
0.0285101
0.0315136
0.0342405
0.0366357
0.0386556
0.0402705
0.04147
0.0422655
0.0426954
0.0427942
0.0425476
0.0419074
0.0407798
0.0390376
0.0367171
0.0351046
0.0475254
0.0166118
0.0144054
0.016782
0.0196393
0.0225873
0.0255066
0.0283192
0.0309605
0.0333754
0.0355175
0.0373486
0.0388442
0.0399969
0.0408177
0.0413357
0.0415795
0.0415536
0.0412466
0.0406458
0.0398085
0.039174
0.0409699
0.06408
0.0218108
0.0173793
0.0190352
0.0214188
0.0239915
0.0265894
0.0291187
0.0315108
0.0337124
0.0356802
0.0373796
0.0387889
0.0399022
0.0407295
0.0412936
0.0416235
0.041744
0.0416828
0.0415077
0.0414598
0.0424303
0.0480881
0.0849592
0.0282785
0.0209862
0.0217603
0.0236453
0.0258729
0.0282032
0.0305123
0.0327177
0.0347586
0.0365941
0.0381919
0.0395319
0.0406092
0.0414331
0.0420222
0.0424095
0.042642
0.0427857
0.0429832
0.0436486
0.0461782
0.0566607
0.120483
0.0362839
0.0251889
0.0248654
0.0261687
0.0280206
0.0300841
0.0321929
0.0342447
0.0361696
0.0379188
0.0394537
0.0407534
0.0418141
0.0426452
0.0432596
0.0436926
0.0440188
0.0443415
0.0448647
0.0461339
0.0499419
0.0656215
0.215854
0.00881161
0.0369712
0.0586693
0.0753814
0.0891454
0.0996033
0.0962667
0.102785
0.111998
0.108735
0.0991079
0.0841419
0.0745921
0.071204
0.05817
0.0478721
0.0358815
0.0206875
0.00437504
0.0147617
0.0275803
0.0375203
0.0439188
0.0477626
0.0497104
0.0495339
0.0507291
0.0520339
0.0501938
0.0464686
0.0419768
0.0375021
0.0338597
0.0291023
0.0246149
0.0198159
0.0139211
0.00716203
0.0240795
0.0277259
0.0351228
0.0398445
0.0427653
0.0437847
0.0433347
0.0433872
0.043315
0.041502
0.0384339
0.0351722
0.0315675
0.0281825
0.0248842
0.0218786
0.0190496
0.0160392
0.0134519
0.0303461
0.0300239
0.0361243
0.0395359
0.0416194
0.0427385
0.0420401
0.0416718
0.0412018
0.0394567
0.0365388
0.0335968
0.0302515
0.0270356
0.0243491
0.0222373
0.02096
0.0207518
0.0225702
0.0345977
0.0343855
0.0390266
0.0407526
0.04129
0.0419454
0.0414796
0.0409363
0.040151
0.0384724
0.0359544
0.0334172
0.0305056
0.0272753
0.0249506
0.0236937
0.0234374
0.025228
0.0416319
0.0420368
0.0415875
0.0437253
0.0433829
0.0420411
0.0414614
0.0408048
0.0400669
0.0390695
0.037422
0.0352848
0.0332483
0.0314725
0.027776
0.0258826
0.0248825
0.0243746
0.025619
0.0488485
0.0595697
0.0523224
0.0495885
0.0468499
0.0437119
0.0417981
0.0405473
0.0395586
0.038516
0.0369028
0.0350049
0.0331677
0.0315144
0.028438
0.0265506
0.0252739
0.0243342
0.0245634
0.04594
0.102791
0.0664847
0.0549353
0.0497694
0.0456267
0.0426445
0.0408394
0.0396377
0.0384967
0.0368641
0.0350913
0.0333695
0.0315854
0.0289907
0.0270624
0.0256332
0.0245122
0.0241259
0.0402362
0.0481725
0.031925
0.0300112
0.030377
0.0315983
0.0332095
0.0349807
0.0367839
0.0385405
0.0401768
0.041639
0.0428988
0.0439503
0.044805
0.0454828
0.0460297
0.0465418
0.0471577
0.0481447
0.05012
0.0546803
0.0669062
0.107508
0.067661
0.0420481
0.0377722
0.036875
0.0372687
0.0382767
0.0395896
0.0410471
0.0425422
0.0439785
0.045279
0.0464008
0.047335
0.0481034
0.0487535
0.0493583
0.0500192
0.0508706
0.0521182
0.054136
0.0575908
0.0639191
0.0762103
0.088423
0.052728
0.0457963
0.0436663
0.0432914
0.0437397
0.0446239
0.0457526
0.0469962
0.0482411
0.0493916
0.0503915
0.0512295
0.0519355
0.0525669
0.0532032
0.0539376
0.0548697
0.0561147
0.0578104
0.0601716
0.0635115
0.0681016
0.110413
0.0634896
0.0538713
0.0505145
0.0493499
0.0492147
0.0496603
0.0504376
0.0514043
0.0524369
0.0534287
0.0543134
0.0550757
0.0557465
0.0563814
0.0570589
0.0578476
0.0587793
0.0598661
0.0611439
0.062606
0.0642236
0.0658666
0.132941
0.0733106
0.061659
0.0572376
0.0552756
0.0545019
0.0544265
0.0547683
0.0553838
0.0561445
0.056937
0.0576852
0.0583612
0.0589863
0.0596038
0.0602706
0.0609986
0.0617459
0.0625106
0.0632556
0.0638892
0.0643402
0.0645087
0.152154
0.0821241
0.0689395
0.0636783
0.0609586
0.0594731
0.0587513
0.0585335
0.0586835
0.0590766
0.0595974
0.0601581
0.060709
0.0612464
0.061792
0.0623665
0.062936
0.0634409
0.0638587
0.0641436
0.0642326
0.064111
0.0637907
0.162922
0.0889911
0.0755171
0.0697413
0.0663182
0.0640593
0.0626014
0.0617414
0.0613439
0.0612951
0.0614816
0.0618004
0.062181
0.0625913
0.0630239
0.0634668
0.0638713
0.0641849
0.0643765
0.0644182
0.0642934
0.0640244
0.0636577
0.169773
0.0945833
0.081306
0.0751615
0.0711041
0.0681112
0.0659298
0.064429
0.0634898
0.0630009
0.0628436
0.062905
0.0630979
0.0633652
0.0636705
0.0639799
0.0642497
0.0644398
0.0645229
0.0644842
0.0643272
0.0640788
0.0637833
0.17845
0.100921
0.0865166
0.0795878
0.074897
0.0713077
0.0685434
0.0665192
0.065144
0.0642981
0.0638524
0.0636904
0.0637163
0.0638543
0.0640474
0.06425
0.0644215
0.0645284
0.0645486
0.0644757
0.0643216
0.0641163
0.0639158
0.184143
0.111572
0.0916463
0.0829366
0.0773827
0.0733151
0.0701953
0.0678817
0.066276
0.0652256
0.064593
0.0642786
0.0641902
0.0642346
0.0643373
0.0644495
0.0645343
0.0645589
0.0645037
0.0643737
0.0641951
0.0640045
0.0638657
0.203223
0.117669
0.0958396
0.0850154
0.0781033
0.0733264
0.0700061
0.067722
0.0662059
0.0651898
0.0645421
0.0642038
0.0640935
0.0641014
0.0641393
0.0641656
0.0641597
0.0641024
0.0639788
0.0637968
0.0635795
0.0633332
0.0631509
0.23552
0.113971
0.0929978
0.0826451
0.075625
0.0708573
0.067635
0.0655552
0.0642657
0.063436
0.0629173
0.0626542
0.0625729
0.0625825
0.0626181
0.0626424
0.0626346
0.0625777
0.062461
0.062287
0.0620696
0.0618213
0.0616012
0.250151
0.109468
0.0855654
0.0761356
0.0705945
0.0668921
0.0643038
0.0626037
0.0615921
0.0610187
0.0607037
0.06057
0.0605641
0.0606216
0.0606911
0.0607408
0.0607527
0.0607127
0.0606127
0.0604533
0.0602439
0.0599977
0.0597602
0.232891
0.101211
0.0783715
0.0699277
0.0654708
0.0626256
0.0606742
0.0594122
0.0587085
0.0583902
0.0582857
0.0582992
0.0583896
0.0585141
0.0586348
0.0587267
0.0587733
0.0587627
0.0586881
0.0585493
0.0583536
0.0581141
0.0578567
0.199696
0.0901901
0.0710933
0.064047
0.060489
0.0583455
0.0569665
0.0561392
0.0557525
0.0556764
0.0557699
0.0559329
0.0561303
0.0563363
0.0565246
0.0566753
0.0567734
0.0568081
0.0567734
0.0566687
0.0564993
0.0562754
0.0560103
0.170273
0.0791966
0.0638389
0.0583383
0.0556704
0.0541612
0.053282
0.0528489
0.0527632
0.0529124
0.0531828
0.053487
0.0537961
0.0540941
0.0543628
0.0545855
0.0547492
0.0548443
0.0548654
0.0548116
0.0546863
0.0544975
0.054253
0.143773
0.069013
0.0569504
0.0528833
0.0510522
0.0501215
0.0496814
0.0495883
0.0497628
0.0501124
0.0505372
0.0509724
0.0513936
0.0517891
0.0521447
0.0524469
0.0526848
0.0528503
0.0529388
0.0529495
0.0528846
0.0527518
0.0525573
0.120549
0.0600983
0.050768
0.0478834
0.046754
0.0463121
0.0462374
0.0464202
0.0467999
0.0473092
0.047864
0.0484153
0.0489416
0.049431
0.0498719
0.0502537
0.0505675
0.0508069
0.0509683
0.0510514
0.0510586
0.0509978
0.0508758
0.101511
0.0527569
0.0455362
0.0435225
0.042908
0.0428288
0.0430268
0.0434132
0.0439407
0.0445612
0.045214
0.0458574
0.0464705
0.0470408
0.0475577
0.0480123
0.0483974
0.0487081
0.0489419
0.0490996
0.0491838
0.0492035
0.0491661
0.0871829
0.0471018
0.0413347
0.0398775
0.0395838
0.0397327
0.0401038
0.0406186
0.0412372
0.0419231
0.0426385
0.0433436
0.0440187
0.0446503
0.0452279
0.0457433
0.0461905
0.0465653
0.0468664
0.0470953
0.0472554
0.0473564
0.0474061
0.0778407
0.0430756
0.0380853
0.0369048
0.0367657
0.0370264
0.0374837
0.0380613
0.0387218
0.0394363
0.0401776
0.0409147
0.0416259
0.0422971
0.0429176
0.0434792
0.0439762
0.0444052
0.0447652
0.0450584
0.0452885
0.0454657
0.0455976
0.071632
0.0401048
0.0355283
0.0344591
0.0343693
0.0346629
0.0351444
0.0357369
0.0364031
0.0371178
0.0378584
0.0386028
0.0393275
0.0400186
0.040665
0.0412583
0.0417927
0.0422649
0.042674
0.0430224
0.043314
0.0435588
0.0437644
0.067315
0.0377649
0.0334104
0.032373
0.0322812
0.0325678
0.0330411
0.0336229
0.0342747
0.0349724
0.0356965
0.0364299
0.0371519
0.0378482
0.0385068
0.0391193
0.03968
0.0401852
0.0406341
0.0410285
0.0413724
0.0416753
0.0419437
0.0640543
0.035769
0.0315445
0.0305111
0.030402
0.0306694
0.0311241
0.0316867
0.0323177
0.0329933
0.0336958
0.03441
0.0351208
0.0358121
0.0364735
0.0370965
0.0376751
0.0382056
0.0386865
0.0391194
0.0395073
0.039859
0.0401806
0.0612615
0.0339375
0.0298146
0.0287854
0.0286633
0.0289152
0.0293542
0.0299003
0.0305134
0.0311698
0.0318528
0.0325489
0.0332457
0.0339293
0.0345897
0.0352188
0.0358106
0.0363612
0.036869
0.0373346
0.0377607
0.0381539
0.0385195
0.058575
0.0321755
0.0281634
0.027152
0.027029
0.0272758
0.0277082
0.028246
0.0288488
0.0294932
0.0301633
0.0308468
0.0315332
0.0322114
0.032872
0.0335076
0.0341122
0.034682
0.0352149
0.0357109
0.0361713
0.0366014
0.0370055
0.0558306
0.0304497
0.0265747
0.0255989
0.025489
0.0257423
0.0261781
0.0267172
0.027319
0.0279603
0.0286259
0.0293047
0.029988
0.0306669
0.0313328
0.0319792
0.0326004
0.0331923
0.0337523
0.0342795
0.0347742
0.03524
0.0356795
0.0529928
0.028764
0.0250563
0.0241338
0.0240498
0.0243199
0.0247684
0.0253172
0.0259264
0.0265732
0.0272432
0.0279265
0.0286158
0.0293041
0.0299838
0.0306489
0.0312939
0.0319144
0.0325069
0.0330696
0.0336015
0.0341044
0.034579
0.050109
0.0271432
0.0236289
0.022775
0.0227277
0.0230229
0.0234912
0.0240564
0.0246797
0.0253394
0.0260221
0.0267195
0.0274254
0.0281339
0.0288387
0.0295338
0.0302134
0.0308724
0.0315064
0.0321118
0.0326863
0.0332299
0.0337413
0.0472586
0.0256212
0.0223193
0.0215461
0.0215439
0.0218704
0.0223632
0.0229493
0.0235916
0.0242703
0.0249738
0.0256951
0.0264294
0.0271718
0.0279163
0.0286563
0.0293851
0.0300963
0.0307836
0.0314418
0.0320669
0.0326566
0.0332081
0.0445328
0.0242359
0.0211571
0.0204733
0.0205223
0.0208839
0.0214036
0.0220127
0.0226773
0.0233802
0.0241126
0.0248694
0.025647
0.0264407
0.0272438
0.0280484
0.0288455
0.0296263
0.0303821
0.0311057
0.0317907
0.0324332
0.0330284
0.0420073
0.0230237
0.0201731
0.0195851
0.0196891
0.0200869
0.0206331
0.0212649
0.0219534
0.0226858
0.023457
0.0242646
0.0251055
0.0259743
0.0268618
0.0277568
0.0286467
0.0295189
0.0303616
0.0311647
0.03192
0.0326217
0.0332636
0.0397391
0.0220187
0.0194012
0.018915
0.0190758
0.0195073
0.0200754
0.0207262
0.0214386
0.0222069
0.0230311
0.0239117
0.0248453
0.0258229
0.0268305
0.0278504
0.0288643
0.0298542
0.0308044
0.0317021
0.0325374
0.0333031
0.0339924
0.0377617
0.0212569
0.0188881
0.0185135
0.0187292
0.019184
0.019761
0.0204205
0.0211547
0.0219681
0.0228678
0.0238564
0.0249271
0.0260633
0.0272406
0.0284312
0.0296075
0.0307453
0.0318246
0.0328306
0.0337526
0.0345837
0.0353168
0.0361143
0.0208024
0.0187271
0.0184791
0.0187343
0.0191812
0.0197343
0.0203797
0.0211293
0.0220025
0.0230149
0.0241681
0.0254454
0.0268135
0.0282296
0.0296495
0.0310336
0.0323506
0.0335778
0.0347004
0.0357096
0.0366004
0.0373676
0.0349283
0.0208395
0.0191619
0.0190393
0.0192643
0.0196136
0.0200653
0.0206468
0.0213978
0.0223562
0.0235449
0.0249567
0.0265497
0.0282576
0.0300061
0.0317267
0.033366
0.0348881
0.0362721
0.0375081
0.0385932
0.0395275
0.0403096
0.0347444
0.0220104
0.0208822
0.0207375
0.0206735
0.0206834
0.0208582
0.0212762
0.0220031
0.0230928
0.0245697
0.0263987
0.0284786
0.0306818
0.032884
0.0349833
0.0369155
0.0386498
0.0401774
0.0415022
0.0426332
0.04358
0.0443466
0.0377353
0.0265491
0.0257492
0.0247679
0.0236113
0.0226991
0.0222411
0.0223188
0.0229855
0.0242949
0.026261
0.028781
0.0316142
0.0345276
0.0373267
0.0398695
0.0420972
0.0440084
0.0456266
0.0469823
0.0481042
0.0490146
0.0497242
0.0532837
0.0411711
0.0377655
0.0331371
0.0289543
0.0259814
0.0242957
0.0237765
0.0243545
0.0260528
0.0288726
0.0325728
0.0365588
0.0404552
0.0439904
0.0469825
0.0494284
0.0514058
0.0530018
0.0542881
0.0553178
0.0561265
0.0567305
0.119526
0.0797832
0.0614097
0.0472407
0.0370355
0.0304957
0.0268893
0.0255197
0.0260311
0.0284112
0.0327272
0.0385279
0.0442129
0.0494087
0.0537474
0.0570441
0.0594842
0.0613093
0.0627014
0.0637778
0.0646115
0.0652457
0.0656981
0.363306
0.151166
0.0926204
0.0641101
0.0461653
0.0353054
0.0294831
0.0272041
0.0277521
0.0311912
0.0379912
0.0476964
0.0556367
0.0627236
0.0676845
0.0708056
0.0727942
0.0741363
0.075096
0.0758083
0.0763437
0.0767396
0.0770114
1.58045
0.208008
0.109367
0.0754468
0.0524956
0.0385758
0.0311829
0.0282953
0.0289743
0.0335533
0.0435482
0.0599134
0.0700642
0.0828133
0.0870977
0.0888441
0.0896947
0.090189
0.0905177
0.0907531
0.0909261
0.0910507
0.0911331
0.357843
0.287209
0.244188
0.219287
0.0947969
0.0978413
0.0964907
0.0929075
0.0715391
0.0726376
0.0725971
0.0717249
0.0664864
0.0664846
0.0660991
0.0654647
0.0642584
0.0639728
0.0636057
0.0632068
0.0634215
0.0631644
0.062911
0.0626698
0.0633642
0.0631876
0.0630332
0.0629008
0.0635815
0.063477
0.063412
0.0633911
0.0638397
0.0638297
0.0638709
0.0639687
0.0638953
0.0639811
0.064148
0.0643947
0.0631612
0.0632688
0.063484
0.0637193
0.0615565
0.0615821
0.0616718
0.0617662
0.0596367
0.0595825
0.0595513
0.0595155
0.0576693
0.0575504
0.0574376
0.057321
0.0557841
0.0556254
0.0554623
0.0552952
0.0540215
0.0538483
0.0536623
0.05347
0.0523516
0.0521862
0.052001
0.0518077
0.0507179
0.0505762
0.0504101
0.0502346
0.0490683
0.0489601
0.0488239
0.048678
0.0473715
0.0473003
0.0471996
0.0470884
0.0456238
0.0455896
0.0455245
0.0454489
0.0438447
0.0438444
0.0438135
0.0437713
0.0420709
0.0421007
0.0421004
0.0420888
0.0403467
0.0404026
0.0404303
0.0404458
0.0387202
0.0387996
0.0388516
0.0388911
0.0372358
0.0373361
0.0374106
0.0374717
0.0359356
0.0360551
0.0361503
0.0362318
0.0348595
0.0349971
0.0351121
0.0352126
0.0340469
0.0342027
0.0343364
0.034455
0.0335396
0.0337133
0.0338657
0.0340016
0.0333869
0.0335787
0.0337488
0.0339011
0.0336488
0.0338577
0.0340445
0.0342113
0.0344024
0.0346266
0.034827
0.0350046
0.0357462
0.0359816
0.0361907
0.0363735
0.0378069
0.0380465
0.0382564
0.0384359
0.0407435
0.0409768
0.0411766
0.041341
0.044754
0.0449674
0.045143
0.0452779
0.0500794
0.0502573
0.0503938
0.0504844
0.0570085
0.0571374
0.0572231
0.0572591
0.0658835
0.0659588
0.0659917
0.0659752
0.0771097
0.0771424
0.0771403
0.0770935
0.0911587
0.0911645
0.0911563
0.0911297
0.117788
0.0780566
0.0602986
0.0522697
0.0477572
0.0443207
0.0419296
0.0403969
0.0390044
0.0373535
0.0356734
0.0340883
0.032331
0.0300101
0.0281013
0.0266546
0.0255515
0.0248045
0.0314079
0.0821787
0.0695727
0.0594001
0.0527984
0.0487893
0.0462357
0.0439275
0.0420998
0.0405395
0.0389622
0.0373369
0.0357308
0.0338694
0.0318282
0.0302531
0.0291777
0.0282599
0.0268268
0.0305689
0.0690291
0.0637616
0.0581455
0.0534495
0.0498711
0.0474111
0.045404
0.0437358
0.0422877
0.0408568
0.0393153
0.0376749
0.0358215
0.0340456
0.032804
0.0319132
0.0308397
0.0298259
0.038367
0.0641578
0.0614748
0.0579721
0.0544907
0.0514495
0.0489788
0.0469799
0.0453413
0.0439467
0.042612
0.0411842
0.0396671
0.0380672
0.0366326
0.0355418
0.0344559
0.0331377
0.0333819
0.0529091
0.0624985
0.0609418
0.0586019
0.0560132
0.0535644
0.0512897
0.0491557
0.0473114
0.0457459
0.0443169
0.0428986
0.0415025
0.0401712
0.0389845
0.0378724
0.0365528
0.035397
0.037653
0.0724426
0.0622549
0.0613252
0.0598194
0.0579804
0.0560435
0.054005
0.0518516
0.0497811
0.0479273
0.0462708
0.0447353
0.0433154
0.0420318
0.040872
0.0396856
0.03835
0.037681
0.0417771
0.0857119
0.062692
0.062229
0.0613706
0.0601607
0.0586649
0.0568502
0.0547307
0.0525171
0.0504242
0.0485245
0.0467966
0.0452342
0.0438261
0.0425317
0.0412396
0.0399834
0.0397679
0.0447887
0.0910501
0.06341
0.0633933
0.0630961
0.0624328
0.0613308
0.0596968
0.0575885
0.0552719
0.0530206
0.0509431
0.0490357
0.0473112
0.0457214
0.0441831
0.0426595
0.0413523
0.0412702
0.046346
0.0905706
0.0642174
0.064667
0.0649155
0.0647912
0.0640659
0.0625261
0.0603045
0.057831
0.0554982
0.0533683
0.0513377
0.049486
0.047757
0.0459351
0.044034
0.0424363
0.0421086
0.0468114
0.0876425
0.0649278
0.0659159
0.0667416
0.0672294
0.0669084
0.0652451
0.0625952
0.059832
0.0575728
0.0555986
0.0533734
0.0512865
0.0496235
0.0477124
0.0452699
0.0432183
0.042638
0.0479964
0.102831
0.0641022
0.0648005
0.0656068
0.0663941
0.0664317
0.0649694
0.0624224
0.0599572
0.0580175
0.0561351
0.0538144
0.0513751
0.0492936
0.0473532
0.0454088
0.0435232
0.0427807
0.0481004
0.110298
0.0618934
0.0621629
0.0625243
0.0628167
0.0625552
0.0614501
0.0597652
0.0581314
0.0566346
0.0551084
0.053239
0.0510361
0.0490027
0.0470511
0.0451666
0.0435808
0.042596
0.0457219
0.0943275
0.0594358
0.0593895
0.0594147
0.0593479
0.0588368
0.0577695
0.0564435
0.0552329
0.054167
0.0529889
0.0513201
0.0493341
0.0476071
0.0461437
0.0448379
0.0430381
0.041173
0.0419239
0.0725303
0.0571125
0.0568451
0.0566042
0.0562627
0.0555984
0.0545449
0.0533201
0.0522035
0.051228
0.050157
0.0487175
0.047028
0.0456354
0.0445342
0.0432806
0.0415831
0.0395248
0.0395322
0.0595238
0.0550042
0.0545832
0.0541537
0.05364
0.052912
0.0519068
0.0507385
0.0495863
0.0485027
0.0473804
0.0460896
0.0447279
0.0435681
0.0426004
0.0415711
0.0402086
0.0387209
0.0388478
0.0528502
0.0531366
0.0526308
0.0520999
0.051505
0.0507692
0.049835
0.0487382
0.0475809
0.0464254
0.045271
0.0440941
0.0429602
0.0419824
0.0411549
0.0403557
0.0395093
0.0388412
0.0395609
0.0515481
0.0514705
0.0509406
0.0503762
0.0497625
0.0490521
0.0481953
0.0471905
0.046088
0.0449502
0.0438233
0.0427387
0.0417459
0.0408952
0.0401938
0.0396301
0.0392506
0.0393147
0.0408793
0.0534802
0.0499241
0.0494159
0.048863
0.0482652
0.047594
0.0468094
0.0458965
0.0448799
0.0438101
0.042743
0.0417271
0.0408059
0.0400138
0.0393787
0.0389506
0.0388534
0.0394185
0.0418644
0.0566362
0.0484134
0.0479542
0.0474377
0.0468716
0.0462404
0.0455149
0.0446791
0.0437444
0.0427478
0.0417383
0.0407628
0.0398613
0.0390694
0.0384336
0.0380405
0.0380696
0.0389529
0.0422313
0.0600841
0.0468779
0.0464802
0.0460109
0.0454816
0.0448861
0.044205
0.0434257
0.0425537
0.0416144
0.0406464
0.0396887
0.0387788
0.037958
0.037288
0.0368817
0.0369643
0.0380711
0.0420742
0.0632838
0.0452932
0.0449584
0.0445387
0.0440469
0.043483
0.0428354
0.0420962
0.0412684
0.0403699
0.0394302
0.038481
0.0375583
0.0367087
0.0360067
0.0355853
0.035707
0.0369913
0.0415722
0.0659655
0.0436666
0.0433912
0.0430197
0.0425648
0.0420308
0.0414118
0.0407039
0.03991
0.0390437
0.0381284
0.0371907
0.036266
0.0354056
0.0346933
0.0342773
0.0344466
0.0358809
0.0409166
0.0679156
0.0420298
0.0418076
0.0414817
0.0410639
0.0405607
0.0399703
0.0392921
0.0385298
0.0376952
0.0368079
0.0358917
0.0349821
0.0341338
0.0334367
0.0330491
0.0332779
0.0348412
0.0402302
0.0692493
0.0404268
0.0402524
0.0399695
0.0395895
0.0391197
0.0385609
0.0379151
0.0371871
0.0363882
0.0355358
0.0346527
0.0337744
0.0329577
0.0322961
0.0319534
0.0322475
0.0339248
0.0395822
0.0701176
0.0389074
0.0387752
0.0385337
0.0381923
0.0377588
0.0372356
0.0366263
0.0359372
0.0351791
0.0343687
0.0335279
0.0326927
0.0319203
0.0313057
0.0310154
0.0313729
0.0331454
0.0390045
0.0706902
0.0375199
0.0374261
0.0372247
0.0369223
0.0365271
0.0360427
0.0354737
0.034827
0.0341141
0.0333502
0.0325575
0.0317713
0.0310491
0.0304858
0.0302486
0.0306652
0.0325134
0.0385263
0.0710965
0.0363099
0.0362517
0.0360883
0.0358248
0.0354689
0.0350249
0.0344981
0.033896
0.0332301
0.0325146
0.0317717
0.0310362
0.0303648
0.0298515
0.0296635
0.0301311
0.0320407
0.038175
0.0714746
0.0353186
0.0352948
0.0351669
0.0349409
0.0346237
0.0342199
0.0337354
0.0331778
0.0325582
0.0318906
0.0311964
0.03051
0.0298869
0.0294199
0.0292757
0.0297869
0.0317491
0.0379918
0.0719389
0.0345875
0.0345958
0.0345011
0.0343097
0.0340286
0.0336626
0.0332179
0.0327026
0.0321269
0.0315045
0.0308566
0.0302166
0.0296386
0.0292142
0.0291094
0.0296595
0.0316707
0.0380186
0.0726335
0.0341594
0.0341974
0.034132
0.0339704
0.0337202
0.0333867
0.0329769
0.0324992
0.0319634
0.0313829
0.0307786
0.0301829
0.0296483
0.0292651
0.0291988
0.0297878
0.0318529
0.0383281
0.073724
0.0340823
0.0341456
0.0341034
0.0339643
0.0337366
0.0334274
0.0330447
0.0325974
0.0320955
0.0315531
0.0309904
0.030439
0.0299499
0.0296115
0.0295887
0.0302236
0.0323564
0.0389949
0.0753219
0.0344124
0.0344942
0.0344656
0.0343372
0.0341194
0.0338215
0.0334538
0.0330262
0.0325506
0.0320419
0.0315208
0.0310179
0.0305826
0.0303012
0.030337
0.0310359
0.0332613
0.0401132
0.0775682
0.0352197
0.0353086
0.0352785
0.0351429
0.0349151
0.0346082
0.0342364
0.0338128
0.0333525
0.0328729
0.0323956
0.0319513
0.031588
0.0313892
0.0315156
0.0323148
0.0346759
0.0418144
0.080752
0.0365923
0.0366706
0.0366159
0.0364452
0.0361762
0.0358287
0.0354226
0.0349786
0.0345175
0.0340606
0.0336323
0.0332645
0.0330051
0.0329353
0.0332116
0.0341803
0.0367543
0.0442874
0.0851523
0.0386433
0.0386842
0.0385705
0.038322
0.0379628
0.0375233
0.037036
0.0365338
0.036047
0.0356031
0.0352313
0.0349675
0.0348625
0.0349983
0.035528
0.0367925
0.0397233
0.0478426
0.0913774
0.0415161
0.0414829
0.0412605
0.0408694
0.0403429
0.0397299
0.0390871
0.0384688
0.0379185
0.0374722
0.0371659
0.0370437
0.0371668
0.037627
0.0385817
0.040368
0.0439268
0.0529731
0.100228
0.0453953
0.0452415
0.0448421
0.0442117
0.0433973
0.0424791
0.0415646
0.0407432
0.0400746
0.0396021
0.0393696
0.0394359
0.039886
0.0408428
0.0424949
0.0451964
0.0499037
0.0605776
0.113458
0.0505182
0.0501936
0.0495306
0.0485205
0.0472276
0.04579
0.0444228
0.0432726
0.0424112
0.0418796
0.0417263
0.0420323
0.0429285
0.0446115
0.0473638
0.0516351
0.05848
0.0723205
0.134501
0.0571929
0.0566613
0.0556438
0.0540604
0.0519886
0.049664
0.0475628
0.0459135
0.0447691
0.0441394
0.0440647
0.0446547
0.0461181
0.0487932
0.0531815
0.0600135
0.070744
0.0914172
0.172377
0.0658195
0.0651009
0.0636871
0.0612996
0.0579535
0.05406
0.0507974
0.048445
0.0469311
0.0461686
0.0461637
0.0470567
0.0491688
0.053072
0.0596817
0.070303
0.0873049
0.12317
0.253886
0.0769055
0.0761551
0.0745168
0.0712164
0.0655892
0.0587679
0.0537721
0.0505499
0.0486315
0.0477268
0.047774
0.0489393
0.0516751
0.0568777
0.0661251
0.0816212
0.105329
0.170231
0.4817
0.0910349
0.0906401
0.0895501
0.0862674
0.0747935
0.0628278
0.0558041
0.0518122
0.0495904
0.0485851
0.0486595
0.0499936
0.0531469
0.0593459
0.0711112
0.092683
0.113102
0.194091
1.45662
)
;

boundaryField
{
    leftWall
    {
        type            epsilonWallFunction;
        value           nonuniform List<scalar> 
50
(
0.00268314
0.00488532
0.00837649
0.0122288
0.0166118
0.0218108
0.0282785
0.0362839
0.0481725
0.067661
0.088423
0.110413
0.132941
0.152154
0.162922
0.169773
0.17845
0.184143
0.203223
0.23552
0.250151
0.232891
0.199696
0.170273
0.143773
0.120549
0.101511
0.0871829
0.0778407
0.071632
0.067315
0.0640543
0.0612615
0.058575
0.0558306
0.0529928
0.050109
0.0472586
0.0445328
0.0420073
0.0397391
0.0377617
0.0361143
0.0349283
0.0347444
0.0377353
0.0532837
0.119526
0.363306
1.58045
)
;
    }
    rightWall
    {
        type            epsilonWallFunction;
        value           nonuniform List<scalar> 
50
(
0.00437504
0.00716203
0.0134519
0.0225702
0.0416319
0.0488485
0.04594
0.0402362
0.0314079
0.0305689
0.038367
0.0529091
0.0724426
0.0857119
0.0910501
0.0905706
0.0876425
0.102831
0.110298
0.0943275
0.0725303
0.0595238
0.0528502
0.0515481
0.0534802
0.0566362
0.0600841
0.0632838
0.0659655
0.0679156
0.0692493
0.0701176
0.0706902
0.0710965
0.0714746
0.0719389
0.0726335
0.073724
0.0753219
0.0775682
0.080752
0.0851523
0.0913774
0.100228
0.113458
0.134501
0.172377
0.253886
0.4817
1.45662
)
;
    }
    lowerWall
    {
        type            epsilonWallFunction;
        value           nonuniform List<scalar> 
62
(
0.00268314
0.014115
0.0293504
0.0451406
0.0604238
0.0746912
0.0877637
0.0994272
0.109514
0.11787
0.124327
0.128741
0.130997
0.13102
0.128749
0.12421
0.117382
0.108262
0.0966376
0.081999
0.0629596
0.0378256
0.0096951
0.0096951
0.0186258
0.0325277
0.0475254
0.06408
0.0849592
0.120483
0.215854
0.357843
0.287209
0.244188
0.219287
0.00881161
0.0147617
0.0240795
0.0303461
0.0345977
0.0420368
0.0595697
0.102791
0.00881161
0.0369712
0.0586693
0.0753814
0.0891454
0.0996033
0.0962667
0.102785
0.111998
0.108735
0.0991079
0.0841419
0.0745921
0.071204
0.05817
0.0478721
0.0358815
0.0206875
0.00437504
)
;
    }
    atmosphere
    {
        type            inletOutlet;
        inletValue      uniform 0.1;
        value           nonuniform List<scalar> 
46
(
0.1
0.1
0.1
0.0754468
0.0524956
0.0385758
0.0311829
0.0282953
0.0289743
0.0335533
0.0435482
0.0599134
0.0700642
0.1
0.1
0.1
0.1
0.1
0.1
0.1
0.1
0.1
0.1
0.1
0.1
0.1
0.1
0.1
0.1
0.1
0.1
0.0747935
0.0628278
0.0558041
0.0518122
0.0495904
0.0485851
0.0486595
0.0499936
0.0531469
0.0593459
0.0711112
0.1
0.1
0.1
0.1
)
;
    }
    defaultFaces
    {
        type            empty;
    }
}


// ************************************************************************* //
