/*--------------------------------*- C++ -*----------------------------------*\
  =========                 |
  \\      /  F ield         | OpenFOAM: The Open Source CFD Toolbox
   \\    /   O peration     | Website:  https://openfoam.org
    \\  /    A nd           | Version:  13
     \\/     M anipulation  |
\*---------------------------------------------------------------------------*/
FoamFile
{
    format      ascii;
    class       volScalarField;
    location    "2.6";
    object      k;
}
// * * * * * * * * * * * * * * * * * * * * * * * * * * * * * * * * * * * * * //

dimensions      [0 2 -2 0 0 0 0];

internalField   nonuniform List<scalar> 
2268
(
0.000737953
0.0022352
0.00364451
0.00485356
0.00588877
0.00677614
0.00753607
0.0081796
0.00871362
0.00914249
0.00946677
0.00968633
0.00979989
0.00980358
0.00969125
0.00946017
0.00910618
0.00862233
0.00798914
0.00715207
0.00598495
0.00425831
0.00175377
0.00180717
0.00527759
0.00819344
0.0107164
0.0128916
0.0147691
0.016383
0.0177548
0.018899
0.019825
0.0205378
0.0210372
0.021323
0.0213907
0.0212278
0.02083
0.0201891
0.0192821
0.0180487
0.0163669
0.0139954
0.0104677
0.00441484
0.00258645
0.0071561
0.0108004
0.0139238
0.0166138
0.0189321
0.020923
0.0226157
0.0240302
0.0251805
0.0260722
0.0267082
0.0270903
0.027217
0.0270807
0.0266765
0.0259917
0.0249927
0.0235975
0.0216437
0.018815
0.0144735
0.00637754
0.00333309
0.00877009
0.0129652
0.0164883
0.0195021
0.0220917
0.0243123
0.0261999
0.0277797
0.0290689
0.0300747
0.0308024
0.0312559
0.0314362
0.0313389
0.0309595
0.0302846
0.0292752
0.0278399
0.0257957
0.0227767
0.017977
0.00819632
0.00409141
0.0103536
0.0150212
0.0188513
0.0221003
0.0248817
0.0272621
0.0292845
0.0309792
0.0323655
0.033453
0.0342491
0.0347597
0.0349879
0.0349314
0.0345873
0.0339441
0.0329634
0.0315535
0.029525
0.0264772
0.021408
0.0100055
0.00490892
0.0120022
0.0170784
0.0211533
0.0245828
0.0275083
0.0300071
0.0321287
0.0339083
0.0353662
0.0365154
0.0373651
0.037923
0.0381942
0.0381782
0.037875
0.0372779
0.0363541
0.0350194
0.033094
0.0301678
0.0250558
0.0121317
0.00582887
0.0137705
0.0191779
0.0234443
0.0270142
0.0300522
0.0326441
0.0348439
0.0366889
0.0382022
0.0393997
0.0402927
0.040891
0.041202
0.0412267
0.0409688
0.0404296
0.0395857
0.0383679
0.0366234
0.0339843
0.029247
0.0154826
0.00686631
0.0156504
0.0213196
0.0257201
0.0293819
0.0324952
0.0351537
0.0374154
0.0393199
0.0408896
0.0421382
0.0430782
0.043722
0.0440791
0.0441511
0.0439446
0.0434733
0.0427272
0.0416583
0.0401593
0.0379695
0.0342336
0.0230196
0.0016607
0.00421772
0.00572864
0.00679647
0.00764208
0.00823335
0.0080496
0.00843064
0.00886633
0.00865671
0.00811484
0.00727263
0.00672471
0.00650635
0.00567613
0.00499675
0.00412333
0.00285954
0.0010077
0.00406677
0.00926274
0.0124307
0.014816
0.0166283
0.0175723
0.0178041
0.0182823
0.0185626
0.0180456
0.0171631
0.0160359
0.0148513
0.0137455
0.0123114
0.0108893
0.00911222
0.00657243
0.00249596
0.0055978
0.0121562
0.0163271
0.0193966
0.0215245
0.0226573
0.0230578
0.0234746
0.0235777
0.0228599
0.0217816
0.0205852
0.0190543
0.0174613
0.0158076
0.0141127
0.0120643
0.00914149
0.00381384
0.00651397
0.0142106
0.019192
0.0226764
0.0249444
0.0263321
0.0268453
0.0272319
0.027229
0.0263882
0.0251582
0.0238501
0.0221004
0.0202376
0.018499
0.0167448
0.0147557
0.0120379
0.00541283
0.00706251
0.0159368
0.0216243
0.0253731
0.0275787
0.0290158
0.0297277
0.0301032
0.0299626
0.0290362
0.0277999
0.0264806
0.0246938
0.0226034
0.0208406
0.0191932
0.017204
0.0144729
0.00816324
0.00794292
0.0175412
0.0239107
0.0279153
0.0300093
0.0312348
0.0319595
0.0322644
0.0319949
0.0310123
0.029803
0.0285298
0.0270687
0.0246145
0.0229218
0.0211595
0.0187385
0.0153003
0.00902562
0.00989518
0.0193301
0.0261246
0.0303847
0.0324096
0.033419
0.0339784
0.0341677
0.0338369
0.0328284
0.0316129
0.0302774
0.0287038
0.0264352
0.0246146
0.022513
0.0196321
0.0153474
0.00869023
0.0141418
0.0221715
0.0284157
0.0326302
0.0347167
0.0355629
0.035973
0.0360639
0.0356563
0.0346045
0.0333529
0.0319436
0.0301852
0.0280415
0.026051
0.0236814
0.020433
0.015337
0.00799618
0.00828405
0.0185722
0.0246706
0.0292344
0.0329767
0.0361448
0.0388517
0.0411664
0.0431367
0.0447785
0.0461005
0.0471138
0.0478322
0.04827
0.0484374
0.0483495
0.0480295
0.047484
0.046703
0.0456571
0.0442825
0.0424366
0.0395463
0.0103563
0.0226427
0.0293291
0.0341091
0.0379267
0.0411073
0.0438048
0.0461119
0.0480813
0.0497308
0.051064
0.052089
0.0528225
0.0532905
0.0535247
0.0535613
0.0534344
0.0531651
0.0527615
0.0522239
0.0514868
0.050488
0.0490632
0.0123428
0.0264285
0.0337968
0.0388563
0.0427776
0.0459761
0.0486551
0.0509344
0.052878
0.0545106
0.0558358
0.0568614
0.0576083
0.058112
0.058415
0.058562
0.0585917
0.0585268
0.0583668
0.0580712
0.0575924
0.0568744
0.0558312
0.0142797
0.0301207
0.0380748
0.043369
0.0473654
0.0505651
0.0532193
0.0554508
0.057343
0.0589336
0.0602332
0.0612528
0.0620169
0.0625662
0.0629458
0.0632047
0.0633757
0.0634558
0.0634058
0.063195
0.0627591
0.0620337
0.0609716
0.0161209
0.0338031
0.0421229
0.047569
0.051597
0.0547675
0.0573565
0.059497
0.0612955
0.0628065
0.064052
0.0650479
0.065818
0.0664015
0.0668399
0.0671742
0.0674112
0.0675096
0.0674474
0.0671838
0.0666531
0.0658233
0.0647007
0.0175937
0.036804
0.0456663
0.051325
0.0553963
0.0585026
0.060963
0.062953
0.0646013
0.0659819
0.067132
0.0680726
0.0688227
0.0694117
0.0698722
0.0702281
0.0704626
0.0705326
0.070418
0.0700894
0.0695159
0.0687128
0.0677393
0.0185014
0.0390423
0.0485659
0.0545415
0.0586869
0.0617086
0.0640093
0.0658172
0.0672811
0.068498
0.0695221
0.0703778
0.0710808
0.0716499
0.0721048
0.0724535
0.0726712
0.0727275
0.072605
0.0722914
0.0717892
0.0711358
0.0703957
0.0191648
0.0407182
0.0508851
0.0571817
0.0614094
0.0643586
0.066506
0.068137
0.0694255
0.0704859
0.0713832
0.0721479
0.0727949
0.0733341
0.0737716
0.0741043
0.0743135
0.0743809
0.074295
0.0740543
0.0736743
0.0731917
0.0726588
0.0198905
0.0419939
0.0527843
0.0593003
0.0635544
0.06643
0.068448
0.0699351
0.0710901
0.0720334
0.0728339
0.0735281
0.0741324
0.0746498
0.0750769
0.075404
0.0756176
0.0757055
0.0756611
0.0754895
0.0752106
0.0748592
0.074488
0.019951
0.0426057
0.0544904
0.0610698
0.0651757
0.0679221
0.0698295
0.071225
0.0723135
0.0731997
0.0739488
0.0746086
0.0751996
0.0757154
0.0761425
0.0764696
0.0766869
0.0767839
0.0767563
0.0766164
0.0763923
0.0761194
0.0758504
0.0212687
0.043375
0.0558317
0.0624871
0.0661733
0.0685519
0.0702852
0.0716432
0.0727598
0.0736714
0.0744363
0.075119
0.0757412
0.0762831
0.0767206
0.0770454
0.0772585
0.0773575
0.0773414
0.0772239
0.0770294
0.0767698
0.0765122
0.0234061
0.0457194
0.0566519
0.0624688
0.0657071
0.0678324
0.0694305
0.0707733
0.0719459
0.0729362
0.0737786
0.0745278
0.0752011
0.0757849
0.0762645
0.0766348
0.0768951
0.0770436
0.077081
0.077016
0.0768649
0.0766411
0.0763871
0.0244934
0.0457712
0.0549658
0.0602959
0.0636751
0.0660209
0.0677669
0.0692083
0.0704819
0.0716022
0.0725713
0.0734212
0.0741738
0.0748253
0.0753678
0.0757978
0.0761152
0.0763191
0.0764105
0.0763956
0.0762859
0.0760937
0.0758515
0.0234963
0.0442343
0.0526436
0.0576987
0.0611698
0.0637017
0.0656457
0.0672572
0.0686789
0.0699511
0.0710672
0.0720376
0.0728863
0.0736196
0.0742359
0.0747347
0.0751158
0.0753787
0.0755248
0.0755584
0.0754888
0.0753272
0.0750927
0.0213224
0.0414869
0.0497796
0.0548114
0.0583733
0.0610722
0.0632249
0.0650412
0.0666452
0.0680833
0.069354
0.0704565
0.0714141
0.0722414
0.0729431
0.0735206
0.0739741
0.0743037
0.0745105
0.0745984
0.0745742
0.0744472
0.0742273
0.0192482
0.0382489
0.0465121
0.0516546
0.0553684
0.0582525
0.060613
0.062639
0.0644376
0.066047
0.0674705
0.0687078
0.0697825
0.0707138
0.0715101
0.072175
0.0727094
0.0731143
0.0733911
0.0735431
0.0735756
0.0734961
0.0733107
0.0172472
0.0349197
0.0430907
0.0483598
0.0522536
0.0553359
0.0579005
0.0601237
0.0621046
0.0638783
0.0654463
0.0668168
0.0680123
0.069053
0.0699495
0.0707069
0.0713281
0.0718148
0.0721693
0.0723949
0.0724961
0.0724799
0.0723513
0.0153686
0.0317635
0.03977
0.0451221
0.0491734
0.0524368
0.0551835
0.0575771
0.059711
0.0616252
0.0633234
0.0648182
0.0661305
0.0672788
0.0682745
0.0691248
0.0698341
0.0704055
0.0708422
0.0711481
0.0713276
0.0713881
0.0713351
0.0137166
0.0289709
0.0367597
0.042127
0.046278
0.0496733
0.0525583
0.055082
0.0573321
0.0593526
0.0611565
0.0627568
0.0641716
0.0654171
0.0665048
0.0674429
0.068237
0.0688918
0.0694112
0.0698002
0.0700632
0.0702088
0.0702429
0.0123838
0.0266508
0.0341854
0.0394973
0.0436758
0.0471374
0.050103
0.0527067
0.0550305
0.0571203
0.0589995
0.0606789
0.0621745
0.0635003
0.0646672
0.0656833
0.0665553
0.0672883
0.0678874
0.0683581
0.0687056
0.0689388
0.0690643
0.0114639
0.0248232
0.0320787
0.0372743
0.0414124
0.0448752
0.0478633
0.0504964
0.0528518
0.054976
0.0568963
0.0586264
0.0601785
0.0615648
0.0627948
0.0638766
0.0648164
0.0656201
0.0662929
0.0668408
0.0672693
0.0675879
0.067803
0.0108265
0.0234573
0.0304145
0.0354444
0.0394854
0.0428927
0.04585
0.0484684
0.0508187
0.0529466
0.0548796
0.0566342
0.0582197
0.0596469
0.060924
0.062058
0.0630548
0.0639199
0.0646587
0.0652772
0.0657808
0.066179
0.0664781
0.010372
0.0224376
0.0290955
0.0339327
0.0378421
0.0411581
0.0440514
0.0466243
0.0489425
0.0510491
0.0529717
0.0547285
0.0563286
0.0577808
0.0590907
0.0602646
0.0613078
0.0622254
0.0630221
0.0637034
0.0642748
0.0647452
0.0651203
0.0100251
0.0216369
0.0280084
0.0326465
0.0364105
0.0396185
0.0424308
0.0449423
0.047214
0.0492863
0.0511863
0.0529315
0.0545329
0.0559962
0.0573275
0.0585315
0.0596126
0.0605748
0.061422
0.0621591
0.0627908
0.0633255
0.0637681
0.00972788
0.0209474
0.027054
0.0315015
0.0351224
0.0382214
0.0409497
0.0433962
0.0456177
0.0476523
0.0495255
0.0512544
0.0528504
0.0543189
0.055665
0.0568925
0.0580049
0.0590053
0.0598969
0.0606836
0.0613695
0.061961
0.0624625
0.00944162
0.0202955
0.0261622
0.0304368
0.0339272
0.0369261
0.0395772
0.041964
0.0441398
0.0461401
0.0479891
0.0497032
0.0512937
0.0527665
0.0541259
0.0553749
0.0565161
0.0575517
0.0584841
0.0593162
0.0600508
0.0606931
0.0612467
0.00914697
0.0196428
0.0252948
0.0294176
0.032795
0.0357083
0.0382945
0.0406323
0.0427716
0.0447458
0.0465778
0.0482833
0.0498734
0.0513543
0.0527297
0.0540021
0.0551731
0.0562441
0.0572166
0.0580922
0.0588727
0.0595621
0.0601624
0.00883803
0.0189773
0.0244386
0.0284318
0.0317152
0.0345595
0.0370952
0.0393969
0.0415115
0.0434704
0.0452955
0.0470018
0.0486001
0.0500966
0.0514946
0.0527959
0.0540012
0.0551109
0.0561253
0.0570449
0.0578705
0.0586046
0.0592479
0.00851833
0.0183052
0.0235983
0.0274832
0.0306915
0.0334832
0.0359832
0.0382621
0.0403644
0.0423202
0.0441501
0.0458689
0.0474867
0.0490095
0.05044
0.0517789
0.0530261
0.0541805
0.0552412
0.0562075
0.057079
0.0578569
0.0585405
0.00819567
0.0176416
0.0227888
0.0265855
0.0297363
0.0324911
0.0349692
0.0372382
0.0393408
0.0413059
0.0431537
0.0448985
0.0465497
0.0481126
0.0495887
0.0509773
0.0522767
0.0534844
0.0545978
0.0556151
0.0565345
0.057356
0.058078
0.00788014
0.0170059
0.0220293
0.0257574
0.0288674
0.0315996
0.0340686
0.0363397
0.0384548
0.0404424
0.0423226
0.0441093
0.045811
0.0474313
0.0489697
0.0504234
0.0517884
0.0530601
0.0542343
0.0553076
0.0562774
0.0571426
0.0579008
0.00758093
0.0164166
0.0213405
0.0250196
0.028105
0.0308278
0.0332992
0.0355837
0.0377235
0.039748
0.0416778
0.0435263
0.0453
0.0469998
0.0486219
0.0501599
0.0516067
0.052955
0.0541988
0.0553334
0.0563555
0.0572633
0.0580543
0.00730597
0.0158908
0.0207433
0.0243956
0.0274728
0.0301983
0.0326819
0.0349897
0.0371668
0.0392451
0.0412463
0.0431824
0.0450568
0.0468651
0.0485981
0.0502442
0.0517916
0.0532303
0.0545524
0.0557523
0.0568267
0.057774
0.0585916
0.00706096
0.0154466
0.0202664
0.0239193
0.0270046
0.0297413
0.0322426
0.0345812
0.0368087
0.0389617
0.0410634
0.0431232
0.0451376
0.0470935
0.0489724
0.050755
0.0524242
0.0539666
0.0553734
0.0566394
0.0577624
0.0587422
0.0595772
0.00685336
0.0151186
0.0199677
0.0236564
0.0267609
0.0295057
0.032019
0.0343887
0.0366788
0.0389338
0.0411777
0.043413
0.0456233
0.0477797
0.0498493
0.0518017
0.0536136
0.0552697
0.0567623
0.0580889
0.0592506
0.0602499
0.0610877
0.00670392
0.0150068
0.019998
0.0237589
0.0268643
0.0295781
0.0320682
0.0344525
0.0368146
0.0392087
0.0416568
0.0441457
0.0466328
0.0490618
0.0513774
0.053535
0.055506
0.057277
0.0588456
0.0602163
0.0613968
0.0623947
0.0632142
0.00669071
0.0154296
0.0207645
0.0245788
0.0275612
0.0301084
0.0324746
0.034823
0.0372598
0.0398468
0.0425963
0.0454603
0.0483429
0.051141
0.0537672
0.0561606
0.0582926
0.0601604
0.0617761
0.0631575
0.0643231
0.0652882
0.0660612
0.00710464
0.0173359
0.0232825
0.0268603
0.0292946
0.0313238
0.0333415
0.0355479
0.0380543
0.0409189
0.0441291
0.0475654
0.0510173
0.054308
0.0573099
0.0599482
0.0622104
0.064123
0.0657268
0.067062
0.0681621
0.0690516
0.0697437
0.00901823
0.0230065
0.0295695
0.0318338
0.0326724
0.0334701
0.0347416
0.0366359
0.0392072
0.0424881
0.0464292
0.0507745
0.0550441
0.0589713
0.0623905
0.0652283
0.0675278
0.0693795
0.0708725
0.0720774
0.0730446
0.0738072
0.0743814
0.0155239
0.0360418
0.042068
0.0405897
0.0380553
0.0365838
0.0365989
0.0379898
0.0406428
0.0445547
0.0496778
0.0555441
0.0609574
0.0656813
0.0694844
0.0723597
0.0745018
0.0761171
0.0773591
0.0783277
0.0790851
0.0796678
0.0800917
0.0323408
0.0591326
0.0616634
0.0525125
0.0447022
0.040114
0.0385387
0.0393338
0.0421172
0.0469074
0.0538676
0.0624071
0.0692814
0.0751839
0.0791394
0.0816557
0.083302
0.0844399
0.0852685
0.0858932
0.0863701
0.0867295
0.0869839
0.0856279
0.0912218
0.0865065
0.0639188
0.0501425
0.0427261
0.0398669
0.0402207
0.0431515
0.0488176
0.0580094
0.0708264
0.0791017
0.0888337
0.091943
0.0932415
0.0939124
0.0943228
0.094605
0.094812
0.0949676
0.0950829
0.0951628
0.0318864
0.0275529
0.0246547
0.0228592
0.0472226
0.0456817
0.0441255
0.0426306
0.0545884
0.0535248
0.0523422
0.0511233
0.0598167
0.0589153
0.0579358
0.0569542
0.0636747
0.0629692
0.0622638
0.061593
0.0669606
0.0664619
0.065986
0.0655425
0.0698466
0.0695085
0.0691945
0.068907
0.0722777
0.0720516
0.0718545
0.0716905
0.0742527
0.0741252
0.0740301
0.0739705
0.0757199
0.0756741
0.0756757
0.0757235
0.0763904
0.07637
0.0764121
0.0764583
0.0762438
0.0761779
0.0761441
0.076101
0.0756677
0.0755552
0.0754456
0.0753185
0.074877
0.0747262
0.0745653
0.0743857
0.0739959
0.0738231
0.0736315
0.0734201
0.0730874
0.0729105
0.0727076
0.0724829
0.0721597
0.0719955
0.0717994
0.0715799
0.071193
0.0710544
0.0708798
0.0706808
0.0701617
0.0700573
0.0699137
0.0697457
0.0690483
0.0689821
0.0688751
0.0687434
0.0678519
0.0678249
0.0677557
0.067662
0.0665877
0.0665981
0.0665664
0.0665096
0.0652851
0.0653304
0.0653335
0.0653116
0.0639816
0.0640583
0.0640943
0.0641044
0.0627204
0.062826
0.0628914
0.0629307
0.0615435
0.0616754
0.0617681
0.0618339
0.060493
0.0606486
0.0607662
0.0608565
0.0596088
0.0597859
0.0599265
0.0600391
0.0589295
0.0591265
0.0592877
0.0594203
0.0584927
0.0587077
0.0588878
0.0590382
0.0583387
0.0585697
0.0587661
0.0589318
0.0585114
0.0587556
0.0589653
0.0591429
0.0590626
0.0593162
0.0595347
0.0597193
0.0600538
0.0603112
0.0605325
0.0607179
0.0615588
0.0618126
0.0620287
0.0622065
0.0636648
0.0639051
0.0641062
0.0642662
0.0664729
0.0666884
0.0668628
0.0669937
0.0700964
0.0702751
0.0704118
0.0705031
0.0746572
0.0747895
0.0748809
0.0749264
0.0802803
0.0803638
0.0804098
0.0804128
0.0870892
0.0871314
0.0871448
0.0871227
0.0951938
0.0952048
0.0952048
0.0951907
0.0249743
0.0289606
0.0327452
0.0358881
0.037964
0.0388264
0.0390583
0.0389784
0.0384225
0.0373321
0.0360055
0.0345118
0.0326583
0.030453
0.0281834
0.0254883
0.0217606
0.015398
0.00676824
0.0404254
0.0394773
0.039915
0.040986
0.0421503
0.0430275
0.0431592
0.0428291
0.0421168
0.0410028
0.0395884
0.0379444
0.035909
0.0336064
0.0311843
0.0282891
0.0239636
0.0162785
0.00660188
0.0490613
0.0473529
0.0467049
0.0466257
0.0467378
0.046928
0.0468441
0.0464065
0.0456336
0.0445098
0.0430371
0.0412558
0.0391037
0.0367312
0.0342285
0.0311167
0.0262815
0.0183238
0.00763252
0.0553889
0.0538677
0.0528493
0.0521338
0.0515471
0.05103
0.0504891
0.0497906
0.0488842
0.0476982
0.0461851
0.0443663
0.0422341
0.0398838
0.0372566
0.0338309
0.0287913
0.0212234
0.00946306
0.060542
0.0593396
0.0582605
0.057279
0.0563609
0.0554124
0.0543626
0.0532438
0.052033
0.0506441
0.0490153
0.0471554
0.045063
0.0427136
0.0399062
0.0361801
0.0310871
0.0240274
0.0116258
0.0648428
0.063945
0.0630091
0.0620193
0.0609648
0.05976
0.058351
0.0568163
0.0552148
0.0535217
0.0516845
0.049685
0.0474954
0.0450241
0.0420226
0.0381183
0.0330293
0.0261064
0.0129996
0.0684604
0.0678529
0.0671362
0.066263
0.0651861
0.06383
0.0621692
0.0603055
0.0583525
0.0563389
0.0542353
0.0520117
0.0496111
0.0469175
0.0437029
0.039667
0.0345526
0.0275067
0.0135389
0.0714598
0.071152
0.0706958
0.0699944
0.0689596
0.0675013
0.0656333
0.0635042
0.0612699
0.0589807
0.0566135
0.0541444
0.0514868
0.0484944
0.044984
0.0407471
0.0354862
0.0281602
0.013479
0.0739227
0.0739062
0.0737273
0.073249
0.0723054
0.0707474
0.0686437
0.0662502
0.0638028
0.0613223
0.0587239
0.0560253
0.053131
0.0498088
0.0459125
0.0413586
0.035834
0.0282707
0.013191
0.0758695
0.0761733
0.0762962
0.0761064
0.0753006
0.0735439
0.0710437
0.0683294
0.0657758
0.0632318
0.0603567
0.0573687
0.0543752
0.0508519
0.0464946
0.0415836
0.0359021
0.0286137
0.0147571
0.07651
0.0766112
0.0766819
0.076623
0.0759654
0.0742342
0.0716732
0.0689969
0.0664814
0.0638278
0.0607351
0.0573879
0.0540198
0.0503851
0.0462558
0.0414104
0.0357206
0.028477
0.015484
0.0759878
0.0758005
0.0755688
0.0751747
0.0742874
0.0726988
0.0705609
0.068272
0.0658943
0.0633221
0.060358
0.0569926
0.0534858
0.049691
0.0454696
0.0407056
0.0348925
0.0271472
0.0141098
0.0750686
0.0746659
0.0742034
0.073555
0.0724648
0.0708341
0.0688422
0.0667356
0.0645336
0.062071
0.0590923
0.0556863
0.0521662
0.0484527
0.0443492
0.0392595
0.0328678
0.0244382
0.011849
0.0740502
0.0734955
0.0728462
0.0719966
0.070772
0.0691039
0.0671263
0.0650246
0.0628142
0.0603301
0.057371
0.0539837
0.0504787
0.0467745
0.042469
0.0371683
0.0304331
0.0218494
0.0103359
0.0730313
0.0723725
0.0715904
0.0706132
0.0693279
0.0676697
0.065704
0.063547
0.0612231
0.0586407
0.0556837
0.0523792
0.0488624
0.0450508
0.0406571
0.0353004
0.0286561
0.0203442
0.00946916
0.0720708
0.0713596
0.0705105
0.0694779
0.0681864
0.0665756
0.0646566
0.0624892
0.060101
0.057467
0.054538
0.0513163
0.0478267
0.0439865
0.0395877
0.0343623
0.0280117
0.0200303
0.0092382
0.0711749
0.0704598
0.069599
0.0685656
0.0673064
0.0657672
0.0639314
0.0618199
0.0594586
0.0568537
0.0539928
0.0508663
0.0474525
0.0436721
0.0393805
0.0343703
0.0283304
0.0205958
0.00942795
0.0703083
0.069628
0.0687953
0.0677956
0.0665912
0.0651355
0.0634015
0.0613908
0.0591201
0.0566035
0.0538417
0.050822
0.0475092
0.0438343
0.0396849
0.0348803
0.0290871
0.0215099
0.00978814
0.0694227
0.0688021
0.0680216
0.0670744
0.065934
0.0645629
0.0629332
0.0610367
0.0588811
0.0564764
0.0538245
0.0509114
0.0477025
0.0441381
0.0401224
0.0354864
0.0298825
0.0224294
0.0101906
0.0684784
0.0679301
0.0672134
0.0663266
0.0652517
0.0639595
0.0624255
0.0606374
0.0585951
0.056302
0.0537561
0.0509429
0.0478312
0.0443693
0.0404713
0.0359765
0.0305352
0.023215
0.0105742
0.0674571
0.0669839
0.0663344
0.0655094
0.0644977
0.0632771
0.0618271
0.0601344
0.0581936
0.0560023
0.0535542
0.050834
0.0478138
0.0444478
0.0406577
0.0362899
0.0309982
0.0238175
0.0108935
0.0663626
0.0659621
0.0653784
0.0646139
0.0636622
0.0625067
0.0611306
0.0595211
0.0576698
0.0555704
0.0532129
0.0505814
0.0476504
0.0443784
0.0406919
0.0364426
0.0312868
0.0242213
0.0111256
0.0652185
0.064885
0.0643636
0.0636575
0.0627632
0.0616683
0.0603593
0.0588244
0.0570539
0.055039
0.0527674
0.0502227
0.0473806
0.0442021
0.0406167
0.0364795
0.031446
0.0244821
0.0112861
0.0640602
0.0637876
0.0633245
0.0626744
0.0618358
0.0607991
0.0595532
0.0580877
0.0563924
0.0544572
0.0522682
0.0498088
0.0470548
0.0439683
0.0404801
0.0364465
0.0315207
0.0246492
0.011393
0.0629304
0.0627126
0.0623041
0.0617079
0.0609236
0.0599434
0.0587585
0.0573592
0.0557355
0.0538763
0.0517671
0.0493902
0.0467214
0.0437225
0.0403243
0.0363836
0.0315514
0.0247643
0.0114663
0.0618735
0.0617049
0.0613478
0.0608032
0.0600716
0.0591468
0.0580211
0.0566856
0.0551305
0.0533438
0.0513102
0.0490114
0.0464223
0.0435037
0.0401856
0.0363245
0.0315699
0.0248535
0.0115202
0.0609327
0.0608089
0.0604992
0.0600037
0.059323
0.0584519
0.0573834
0.0561091
0.0546192
0.0529007
0.0509377
0.0487109
0.0461938
0.0433458
0.0400956
0.0362993
0.0316056
0.0249446
0.0115699
0.0601482
0.0600655
0.0597991
0.0593496
0.0587172
0.0578972
0.0568832
0.0556669
0.0542379
0.0525826
0.0506843
0.0485223
0.0460683
0.0432799
0.0400844
0.0363369
0.0316862
0.0250598
0.011628
0.0595591
0.0595133
0.0592858
0.058878
0.05829
0.0575172
0.0565535
0.0553908
0.054018
0.0524205
0.0505807
0.0484761
0.0460763
0.0433368
0.0401827
0.0364681
0.0318423
0.0252305
0.01171
0.0592032
0.0591897
0.058996
0.058624
0.0580742
0.0573426
0.0564235
0.0553087
0.0539865
0.0524414
0.0506545
0.0486011
0.0462482
0.043548
0.0404231
0.0367254
0.0321034
0.025476
0.0118324
0.059119
0.0591317
0.0589648
0.0586208
0.058101
0.0574024
0.05652
0.0554458
0.0541677
0.0526697
0.0509312
0.0489249
0.0466141
0.0439469
0.0408412
0.0371449
0.0325039
0.0258265
0.0120111
0.0593468
0.059378
0.059228
0.0589011
0.0583996
0.0577223
0.0568657
0.0558226
0.0545813
0.0531255
0.0514327
0.0494727
0.0472041
0.0445688
0.0414774
0.0377706
0.0330872
0.0263166
0.0122537
0.0599327
0.0599709
0.0598242
0.0594986
0.0589986
0.0583257
0.0574795
0.0564544
0.0552408
0.0538224
0.0521753
0.0502655
0.048046
0.0454501
0.0423772
0.0386547
0.0339077
0.0269985
0.012589
0.0609303
0.0609596
0.0607968
0.06045
0.0599268
0.0592336
0.0583746
0.0573492
0.0561511
0.0547651
0.0531663
0.0513171
0.0491636
0.0466276
0.0435919
0.0398616
0.0350361
0.0279346
0.0130429
0.0624041
0.0624028
0.062197
0.0617967
0.0612138
0.0604628
0.0595569
0.0585044
0.0573044
0.0559447
0.0543999
0.0526295
0.0505723
0.0481365
0.0451811
0.0414749
0.0365701
0.0292182
0.0136687
0.0644319
0.0643723
0.0640875
0.0635877
0.0628911
0.0620256
0.0610215
0.0599024
0.0586759
0.0573336
0.0558512
0.0541868
0.0522742
0.050008
0.0472164
0.0436116
0.038659
0.0309919
0.014534
0.0671084
0.0669584
0.0665489
0.0658856
0.0649953
0.0639279
0.0627486
0.0615055
0.0602176
0.0588799
0.0574699
0.0559484
0.0542508
0.0522652
0.0497883
0.0464481
0.0415511
0.0335149
0.0157822
0.0705493
0.0702778
0.0696912
0.0687782
0.0675739
0.0661678
0.0646968
0.063249
0.0618531
0.0605023
0.059175
0.0578408
0.0564523
0.0549147
0.0530126
0.0502662
0.0456849
0.0372756
0.0176811
0.0748956
0.0744866
0.0736768
0.0724053
0.0707045
0.068733
0.0667941
0.0650339
0.0634736
0.0620882
0.0608509
0.0597492
0.0587816
0.0579255
0.0570277
0.055514
0.0518157
0.0432493
0.0208846
0.0803168
0.0797974
0.0787631
0.0770219
0.0745271
0.0715826
0.0689156
0.0667164
0.0649373
0.0634964
0.0623491
0.0615105
0.0610683
0.0611776
0.0619467
0.0628636
0.0610122
0.0532078
0.0270903
0.0870045
0.0864909
0.0853783
0.0831642
0.0792579
0.0745619
0.0708337
0.0680961
0.0660749
0.0645692
0.0634987
0.0629126
0.0630316
0.0643434
0.0676595
0.0732736
0.0739306
0.0696029
0.0416501
0.095132
0.0948757
0.0941891
0.0921501
0.0846638
0.0770493
0.0721209
0.0689142
0.0667108
0.0651569
0.0641323
0.0637129
0.0642489
0.0666513
0.0731349
0.0883283
0.0894732
0.092794
0.0870159
)
;

boundaryField
{
    leftWall
    {
        type            kqRWallFunction;
        value           nonuniform List<scalar> 
50
(
0.000737953
0.00180717
0.00258645
0.00333309
0.00409141
0.00490892
0.00582887
0.00686631
0.00828405
0.0103563
0.0123428
0.0142797
0.0161209
0.0175937
0.0185014
0.0191648
0.0198905
0.019951
0.0212687
0.0234061
0.0244934
0.0234963
0.0213224
0.0192482
0.0172472
0.0153686
0.0137166
0.0123838
0.0114639
0.0108265
0.010372
0.0100251
0.00972788
0.00944162
0.00914697
0.00883803
0.00851833
0.00819567
0.00788014
0.00758093
0.00730597
0.00706096
0.00685336
0.00670392
0.00669071
0.00710464
0.00901823
0.0155239
0.0323408
0.0856279
)
;
    }
    rightWall
    {
        type            kqRWallFunction;
        value           nonuniform List<scalar> 
50
(
0.0010077
0.00249596
0.00381384
0.00541283
0.00816324
0.00902562
0.00869023
0.00799618
0.00676824
0.00660188
0.00763252
0.00946306
0.0116258
0.0129996
0.0135389
0.013479
0.013191
0.0147571
0.015484
0.0141098
0.011849
0.0103359
0.00946916
0.0092382
0.00942795
0.00978814
0.0101906
0.0105742
0.0108935
0.0111256
0.0112861
0.011393
0.0114663
0.0115202
0.0115699
0.011628
0.01171
0.0118324
0.0120111
0.0122537
0.012589
0.0130429
0.0136687
0.014534
0.0157822
0.0176811
0.0208846
0.0270903
0.0416501
0.0870159
)
;
    }
    lowerWall
    {
        type            kqRWallFunction;
        value           nonuniform List<scalar> 
62
(
0.000737953
0.0022352
0.00364451
0.00485356
0.00588877
0.00677614
0.00753607
0.0081796
0.00871362
0.00914249
0.00946677
0.00968633
0.00979989
0.00980358
0.00969125
0.00946017
0.00910618
0.00862233
0.00798914
0.00715207
0.00598495
0.00425831
0.00175377
0.00175377
0.00441484
0.00637754
0.00819632
0.0100055
0.0121317
0.0154826
0.0230196
0.0318864
0.0275529
0.0246547
0.0228592
0.0016607
0.00406677
0.0055978
0.00651397
0.00706251
0.00794292
0.00989518
0.0141418
0.0016607
0.00421772
0.00572864
0.00679647
0.00764208
0.00823335
0.0080496
0.00843064
0.00886633
0.00865671
0.00811484
0.00727263
0.00672471
0.00650635
0.00567613
0.00499675
0.00412333
0.00285954
0.0010077
)
;
    }
    atmosphere
    {
        type            inletOutlet;
        inletValue      uniform 0.1;
        value           nonuniform List<scalar> 
46
(
0.1
0.1
0.1
0.0639188
0.0501425
0.0427261
0.0398669
0.0402207
0.0431515
0.0488176
0.0580094
0.0708264
0.0791017
0.1
0.1
0.1
0.1
0.1
0.1
0.1
0.1
0.1
0.1
0.1
0.1
0.1
0.1
0.1
0.1
0.1
0.1
0.0846638
0.0770493
0.0721209
0.0689142
0.0667108
0.0651569
0.0641323
0.0637129
0.0642489
0.0666513
0.0731349
0.1
0.1
0.1
0.1
)
;
    }
    defaultFaces
    {
        type            empty;
    }
}


// ************************************************************************* //
