/*--------------------------------*- C++ -*----------------------------------*\
  =========                 |
  \\      /  F ield         | OpenFOAM: The Open Source CFD Toolbox
   \\    /   O peration     | Website:  https://openfoam.org
    \\  /    A nd           | Version:  13
     \\/     M anipulation  |
\*---------------------------------------------------------------------------*/
FoamFile
{
    format      ascii;
    class       volScalarField;
    location    "2.6";
    object      nut;
}
// * * * * * * * * * * * * * * * * * * * * * * * * * * * * * * * * * * * * * //

dimensions      [0 2 -1 0 0 0 0];

internalField   nonuniform List<scalar> 
2268
(
1.82665e-05
3.18562e-05
4.07292e-05
4.69674e-05
5.16516e-05
5.5327e-05
5.82395e-05
6.05622e-05
6.23977e-05
6.38217e-05
6.48754e-05
6.55911e-05
6.59817e-05
6.60199e-05
6.56538e-05
6.4846e-05
6.3579e-05
6.18041e-05
5.94423e-05
5.61432e-05
5.12037e-05
4.31451e-05
2.85519e-05
6.01657e-05
0.000267484
0.000394419
0.000480777
0.000542161
0.000586967
0.000620181
0.00064496
0.000663374
0.000676843
0.000686274
0.000691884
0.000693753
0.000691414
0.000683168
0.000667936
0.00064583
0.000616504
0.000578741
0.000530611
0.000466615
0.000359992
9.41797e-05
7.18765e-05
0.000451726
0.000738115
0.000944865
0.00109449
0.00120322
0.00128257
0.00134043
0.00138217
0.00141156
0.00143058
0.00144024
0.00144077
0.0014314
0.00140951
0.00137313
0.001322
0.00125505
0.00116887
0.001056
0.000895627
0.000621666
0.000112537
8.17618e-05
0.000576538
0.0010025
0.00132297
0.00156098
0.00173667
0.00186593
0.0019604
0.00202841
0.00207585
0.00210588
0.00212043
0.00212017
0.00210435
0.00207028
0.0020158
0.00194004
0.00184056
0.00171054
0.0015341
0.00127162
0.000828538
0.00012722
9.06923e-05
0.000669724
0.00121006
0.00162855
0.00194614
0.00218449
0.00236199
0.00249294
0.00258796
0.00265439
0.00269673
0.00271778
0.00271875
0.00269917
0.00265674
0.00258939
0.00249553
0.00237093
0.00220456
0.00197081
0.00161061
0.00100677
0.000140603
9.9436e-05
0.000745984
0.00137906
0.0018802
0.00226697
0.0025613
0.00278303
0.00294828
0.00306948
0.00315495
0.00321041
0.00323941
0.00324377
0.0032235
0.00317681
0.00310176
0.00299607
0.0028536
0.00265908
0.00237746
0.00193043
0.00117495
0.00015591
0.000108132
0.000813224
0.00152117
0.00209205
0.00253853
0.00288201
0.00314323
0.00333975
0.00348537
0.00358928
0.00365811
0.00369613
0.00370573
0.0036875
0.00364017
0.00356194
0.00344988
0.00329626
0.00308234
0.00276561
0.00225093
0.0013587
0.000179063
0.000116943
0.000875155
0.00164514
0.00227513
0.00277283
0.00315896
0.00345482
0.00367918
0.00384703
0.00396838
0.00405047
0.00409821
0.00411452
0.00410051
0.00405549
0.00397783
0.00386411
0.00370546
0.0034813
0.00314625
0.00259805
0.00160731
0.000220942
2.81688e-05
4.33048e-05
5.03426e-05
5.51499e-05
5.89612e-05
6.12523e-05
6.05781e-05
6.22347e-05
6.31712e-05
6.20265e-05
5.97991e-05
5.65734e-05
5.45628e-05
5.35073e-05
4.98481e-05
4.69391e-05
4.2645e-05
3.55735e-05
2.08891e-05
0.000100834
0.000279977
0.000370653
0.000449834
0.000521017
0.000559051
0.000575943
0.000592989
0.000595979
0.000583895
0.000570528
0.000551339
0.000529318
0.000502202
0.000468734
0.000433556
0.000377118
0.000279269
7.82855e-05
0.00011712
0.00047968
0.000683079
0.000849819
0.00097503
0.00105521
0.00110419
0.00114308
0.00115507
0.00113324
0.00111098
0.00108431
0.00103511
0.000973682
0.000903749
0.000819304
0.000687644
0.000468915
9.73161e-05
0.000125844
0.000605342
0.000917667
0.00117058
0.00134553
0.00146013
0.00154282
0.0016016
0.00161954
0.00158833
0.001559
0.00152379
0.0014531
0.0013634
0.0012649
0.00113481
0.000934911
0.000628474
0.000116831
0.000129752
0.00066477
0.00107837
0.00142179
0.00165785
0.00180645
0.00191747
0.00199232
0.00201236
0.00197229
0.00193454
0.00188855
0.00179903
0.00168586
0.00156669
0.00139927
0.00113656
0.000747261
0.000144059
0.000135074
0.000665882
0.00117678
0.00161662
0.00192789
0.00211776
0.00225284
0.00233831
0.00235813
0.00231305
0.00226555
0.00220328
0.00209531
0.00196316
0.00182698
0.00161942
0.0012965
0.000822396
0.000150088
0.000147933
0.000642725
0.00123869
0.00177355
0.00216268
0.00240476
0.00256264
0.00265603
0.00267536
0.00262835
0.00256946
0.00248751
0.00235294
0.00221162
0.00205377
0.00180484
0.00142547
0.000863028
0.00014795
0.000175105
0.000665444
0.00132284
0.0019254
0.00237739
0.00266915
0.00285179
0.00295311
0.00297229
0.00292351
0.00285305
0.00275208
0.00259624
0.00244111
0.00225696
0.00196904
0.00153294
0.000877486
0.000143018
0.000128212
0.000972382
0.00182523
0.00253213
0.00309737
0.00354056
0.0038836
0.0041464
0.00434529
0.00449165
0.00459361
0.00465687
0.00468512
0.00468027
0.00464256
0.00457075
0.00446083
0.00430313
0.00407739
0.00374325
0.00322756
0.00242247
0.00130922
0.000142664
0.00109737
0.00204959
0.00283955
0.00347367
0.00397325
0.00436219
0.00466214
0.00489074
0.0050612
0.00518293
0.0052627
0.00530516
0.00531331
0.00528865
0.005231
0.00513744
0.00500068
0.00480715
0.00453414
0.00414268
0.00358912
0.00284276
0.000155061
0.0011922
0.00224472
0.00311186
0.00380429
0.00434941
0.00477454
0.00510327
0.00535463
0.00554354
0.00568088
0.00577459
0.00583032
0.00585208
0.00584222
0.00580145
0.00572827
0.00561848
0.00546383
0.00524999
0.00496114
0.00458378
0.00411945
0.000166211
0.00128609
0.00242192
0.00335108
0.00409147
0.00467574
0.00513301
0.0054866
0.00575709
0.00596117
0.00611139
0.00621709
0.00628496
0.00631981
0.0063247
0.00630112
0.00624888
0.00616539
0.00604394
0.00587835
0.00566214
0.00539266
0.00507963
0.000175939
0.00140277
0.0025899
0.00355802
0.00433469
0.00495309
0.00543998
0.00581707
0.00610543
0.00632332
0.00648505
0.00660153
0.00668048
0.0067274
0.00674591
0.00673817
0.00670482
0.00664301
0.00654967
0.00642204
0.00625828
0.00606066
0.0058404
0.000183093
0.00148444
0.00272248
0.00372313
0.00453074
0.00517932
0.00569321
0.00609356
0.00640042
0.00663249
0.00680573
0.00693255
0.00702187
0.00707989
0.0071108
0.00711727
0.00710005
0.00705752
0.00698861
0.00689277
0.00677105
0.00662805
0.00647391
0.000189091
0.00154158
0.002811
0.0038389
0.00467404
0.00534997
0.0058904
0.00631459
0.00664136
0.00688926
0.00707527
0.0072131
0.0073129
0.00738176
0.00742448
0.00744416
0.00744152
0.00741665
0.00736967
0.00730141
0.00721431
0.00711333
0.00700622
0.000194708
0.00157763
0.00286617
0.00391526
0.00477329
0.00547315
0.00603785
0.00648525
0.00683246
0.00709741
0.00729749
0.00744741
0.0075584
0.00763843
0.00769278
0.00772477
0.00773584
0.00772702
0.00769924
0.00765402
0.00759417
0.00752405
0.00744924
0.000199534
0.00157265
0.00289836
0.00397658
0.00485365
0.00556973
0.00615174
0.00661737
0.0069821
0.00726294
0.00747708
0.00763968
0.00776261
0.00785434
0.00792051
0.00796449
0.00798835
0.00799367
0.00798181
0.00795463
0.00791487
0.0078662
0.00781279
0.000194543
0.00146428
0.00291587
0.00404715
0.00494049
0.00566332
0.00625191
0.00672596
0.00710109
0.00739338
0.00761937
0.00779389
0.00792874
0.00803234
0.00811026
0.00816582
0.00820153
0.00821914
0.00822027
0.00820688
0.00818162
0.00814748
0.00810757
0.000200333
0.001439
0.00292725
0.00413357
0.00504589
0.00576794
0.00635089
0.00682124
0.00719663
0.00749308
0.00772626
0.00791009
0.0080555
0.00817018
0.00825928
0.00832595
0.00837283
0.00840181
0.00841454
0.00841293
0.0083992
0.00837513
0.00834305
0.00020935
0.00165062
0.00310598
0.00424963
0.00513809
0.0058443
0.00641464
0.0068766
0.00724896
0.00754733
0.00778634
0.00797864
0.00813402
0.00825954
0.00835965
0.00843774
0.00849621
0.00853682
0.00856108
0.00857052
0.00856681
0.00855122
0.00852497
0.000215842
0.00172242
0.00317782
0.00429765
0.00516906
0.00586448
0.00642749
0.00688587
0.00725894
0.00756191
0.0078083
0.00800991
0.00817577
0.00831213
0.00842343
0.00851285
0.00858262
0.00863434
0.00866932
0.00868879
0.00869396
0.0086857
0.0086648
0.000213348
0.00173994
0.00318256
0.00428475
0.00514363
0.00583168
0.0063922
0.00685242
0.00723083
0.0075421
0.00779864
0.00801123
0.0081884
0.00833621
0.00845892
0.00855955
0.00864021
0.00870239
0.00874724
0.0087758
0.00878899
0.00878748
0.00877172
0.000204901
0.00171753
0.00313701
0.00422167
0.00506985
0.00575338
0.00631538
0.00678193
0.00716994
0.00749294
0.00776221
0.00798761
0.00817734
0.00833733
0.00847174
0.00858353
0.00867476
0.00874689
0.00880102
0.00883808
0.00885883
0.0088638
0.00885322
0.000195828
0.00166255
0.00304993
0.0041163
0.00495612
0.00563876
0.00620574
0.00668184
0.00708256
0.00741978
0.00770369
0.00794341
0.00814676
0.00831956
0.00846596
0.00858891
0.00869054
0.00877235
0.00883549
0.00888083
0.00890905
0.00892061
0.00891565
0.000186211
0.0015902
0.00293436
0.00398009
0.00481349
0.00549836
0.00607314
0.00656077
0.00697566
0.0073283
0.00762784
0.00788277
0.00810043
0.00828646
0.00844503
0.00857918
0.00869116
0.0087826
0.00885469
0.00890835
0.00894422
0.00896274
0.00896402
0.000176339
0.0015109
0.00280391
0.0038268
0.00465463
0.00534344
0.00592744
0.00642739
0.00685658
0.00722461
0.00753983
0.00781005
0.00804208
0.00824137
0.00841209
0.00855741
0.00867972
0.00878078
0.00886191
0.00892405
0.00896787
0.00899379
0.00900197
0.000166809
0.00143182
0.00267074
0.00366987
0.00449214
0.00518504
0.00577812
0.00628984
0.00673242
0.00711485
0.00744483
0.00772956
0.00797537
0.00818747
0.00837004
0.00852632
0.00865885
0.00876952
0.00885974
0.00893054
0.00898258
0.00901633
0.00903195
0.000158313
0.00135714
0.00254453
0.00352086
0.00433718
0.005033
0.00563359
0.0061553
0.00660939
0.00700438
0.00734746
0.00764526
0.00790368
0.00812774
0.00832154
0.00848838
0.00863088
0.00875103
0.00885034
0.00892988
0.00899032
0.00903215
0.00905557
0.000151951
0.00128743
0.00243175
0.00338828
0.00419817
0.0048949
0.00550054
0.00602948
0.00649242
0.0068975
0.00725149
0.00756047
0.00783
0.00806485
0.00826905
0.00844586
0.00859794
0.00872734
0.00883559
0.0089238
0.00899267
0.00904268
0.00907399
0.000147268
0.00123482
0.00234331
0.0032812
0.00408267
0.00477687
0.00538352
0.00591619
0.00638485
0.00679731
0.00715983
0.00747792
0.00775686
0.00800122
0.00821484
0.00840091
0.00856206
0.00870033
0.00881725
0.00891395
0.00899108
0.00904912
0.00908823
0.000143831
0.0011998
0.00228041
0.00320108
0.00399249
0.00468128
0.00528576
0.00581878
0.00628987
0.00670645
0.00707464
0.00739967
0.00768634
0.00793897
0.008161
0.00835556
0.00852518
0.00867185
0.00879706
0.00890188
0.00898695
0.00905273
0.0090993
0.000141212
0.00117795
0.00223819
0.00314382
0.00392458
0.00460611
0.00520604
0.00573688
0.00620788
0.00662628
0.00699799
0.00732799
0.00762071
0.00788008
0.00810945
0.00831169
0.00848915
0.0086437
0.00877669
0.00888915
0.00898168
0.00905468
0.00910823
0.000139024
0.00116365
0.00220941
0.00310265
0.00387335
0.00454705
0.0051413
0.00566852
0.0061379
0.00655657
0.00693031
0.00726388
0.00756141
0.00782652
0.0080623
0.00827138
0.00845591
0.00861759
0.0087577
0.00887716
0.00897652
0.00905609
0.00911591
0.000136969
0.00115217
0.00218729
0.0030707
0.00383272
0.00449915
0.00508774
0.005611
0.0060782
0.00649646
0.00687145
0.00720779
0.00750936
0.00777947
0.00802095
0.00823618
0.00842707
0.00859516
0.00874161
0.00886724
0.00897253
0.0090578
0.00912308
0.000134873
0.00114042
0.00216688
0.00304254
0.00379755
0.00445794
0.0050417
0.00556153
0.00602683
0.00644474
0.00682089
0.00715978
0.00746505
0.00773975
0.00798644
0.00820722
0.00840378
0.00857749
0.00872938
0.0088602
0.00897042
0.00906036
0.00913005
0.000132659
0.00112684
0.00214525
0.00301457
0.00376414
0.00441994
0.00500012
0.0055176
0.00598186
0.0064001
0.0067779
0.0071196
0.00742866
0.00770783
0.00795938
0.00818517
0.00838666
0.00856507
0.00872134
0.0088562
0.00897014
0.00906351
0.00913644
0.000130328
0.00111104
0.0021211
0.00298483
0.00373011
0.00438264
0.00496063
0.00547707
0.00594154
0.00636123
0.0067416
0.00708681
0.00740004
0.00768377
0.00793994
0.00817015
0.0083757
0.0085577
0.00871706
0.00885456
0.00897077
0.00906617
0.00914099
0.000127918
0.00109325
0.00209413
0.00295233
0.00369396
0.00434425
0.0049213
0.00543814
0.00590432
0.0063269
0.00671112
0.00706083
0.00737885
0.00766728
0.00792775
0.00816163
0.00837011
0.00855427
0.00871513
0.00885359
0.00897043
0.00906628
0.00914159
0.000125496
0.00107394
0.00206438
0.00291648
0.00365454
0.00430323
0.00488049
0.00539924
0.00586883
0.00629603
0.00668566
0.00704107
0.00736454
0.00765771
0.0079219
0.00815831
0.00836816
0.00855268
0.0087131
0.00885061
0.00896626
0.00906094
0.00913532
0.00012313
0.0010535
0.00203178
0.0028766
0.00361065
0.0042581
0.00483666
0.00535896
0.00583396
0.00626784
0.0066647
0.00702705
0.00735647
0.00765404
0.00792083
0.00815806
0.00836719
0.00854981
0.00870759
0.0088421
0.00895473
0.00904669
0.00911887
0.000120887
0.00103215
0.00199605
0.00283178
0.00356095
0.00420736
0.0047884
0.00531623
0.00579905
0.00624205
0.0066481
0.00701852
0.00735392
0.00765485
0.00792234
0.00815796
0.00836374
0.00854192
0.00869474
0.00882429
0.00893233
0.00902031
0.00908933
0.000118828
0.0010102
0.00195708
0.00278131
0.00350427
0.00414974
0.00473473
0.00527055
0.00576416
0.0062191
0.00663635
0.00701552
0.0073561
0.00765835
0.00792372
0.00815467
0.00835418
0.00852538
0.00867124
0.00879429
0.00889664
0.00897989
0.00904525
0.00011705
0.0009889
0.00191613
0.0027256
0.00344038
0.00408488
0.00467558
0.00522246
0.00573045
0.00620047
0.00663067
0.00701842
0.00736218
0.0076626
0.00792236
0.00814541
0.00833604
0.00849836
0.00863595
0.00875173
0.00884795
0.00892626
0.00898784
0.000115804
0.000972594
0.00187834
0.00266836
0.00337164
0.00401445
0.00461262
0.00517406
0.00570051
0.00618883
0.0066331
0.00702799
0.00737169
0.00766647
0.0079173
0.00813006
0.00831034
0.00846302
0.00859205
0.00870052
0.0087907
0.00886417
0.00892203
0.000115959
0.000973472
0.00185827
0.00262185
0.00330693
0.00394454
0.00455045
0.00512957
0.00567857
0.00618804
0.00664638
0.00704571
0.00738566
0.00767185
0.00791212
0.00811419
0.00828439
0.00842786
0.00854872
0.00865012
0.00873432
0.00880287
0.00885676
0.000120387
0.0010188
0.0018947
0.00262166
0.00327113
0.00389029
0.00449839
0.00509567
0.00567017
0.00620261
0.00667392
0.00707489
0.00740962
0.00768783
0.00791922
0.00811251
0.00827399
0.00840881
0.00852137
0.00861512
0.00869251
0.00875517
0.00880409
0.00013737
0.00115704
0.0020837
0.00275235
0.00331812
0.00388055
0.00447109
0.00508054
0.00568061
0.00623622
0.00671952
0.00712327
0.00745884
0.00773659
0.00796382
0.00815039
0.00830293
0.00842738
0.00852919
0.00861263
0.00868068
0.00873518
0.00877718
0.000181461
0.00146536
0.00259364
0.00313876
0.00351929
0.00394986
0.00448331
0.0050898
0.00571107
0.00628839
0.00678668
0.0072068
0.00756392
0.0078582
0.00808462
0.00826086
0.00839797
0.00850513
0.00858991
0.00865774
0.00871209
0.008755
0.00878749
0.000259103
0.00208182
0.0036948
0.00387116
0.00389569
0.00410198
0.0045338
0.00511847
0.00575263
0.00634883
0.00687408
0.00734894
0.00776451
0.00811076
0.00832797
0.00847515
0.00857939
0.00865579
0.00871371
0.00875877
0.00879421
0.00882178
0.00884231
0.000417535
0.00360048
0.00615819
0.0048737
0.00431054
0.00425906
0.00458723
0.00514549
0.00578392
0.00639235
0.00695456
0.00753544
0.00803744
0.00857626
0.0087352
0.0088071
0.00884956
0.00887815
0.00889893
0.00891473
0.00892698
0.00893642
0.00894336
0.000255719
0.000237891
0.000224036
0.000214462
0.00211714
0.00191957
0.00181608
0.0017605
0.00374886
0.0035497
0.00339646
0.00327952
0.00484345
0.0046987
0.00457026
0.00445951
0.00567867
0.00557832
0.00548553
0.00540184
0.00636275
0.00629383
0.00622902
0.00616922
0.00692931
0.00688156
0.00683621
0.0067938
0.00739471
0.0073606
0.00732789
0.00729687
0.00777277
0.00774733
0.00772246
0.00769825
0.00807596
0.00805537
0.00803474
0.00801408
0.00831513
0.00829657
0.00827757
0.00825697
0.00849919
0.00848098
0.00846112
0.00843864
0.00864071
0.00862287
0.0086024
0.00857859
0.00874971
0.00873253
0.00871204
0.00868776
0.0088338
0.00881768
0.00879776
0.00877375
0.00889941
0.00888487
0.00886612
0.00884308
0.00895164
0.00893918
0.00892221
0.00890083
0.00899407
0.00898417
0.00896953
0.00895041
0.00902904
0.00902208
0.00901021
0.00899384
0.00905797
0.00905421
0.00904542
0.00903213
0.00908185
0.00908143
0.00907588
0.00906584
0.0091015
0.00910443
0.00910216
0.00909539
0.00911777
0.00912396
0.00912489
0.0091213
0.00913155
0.0091408
0.00914479
0.00914419
0.00914369
0.00915577
0.00916254
0.00916469
0.00915475
0.00916933
0.0091786
0.00918316
0.0091649
0.00918157
0.00919294
0.00919957
0.00917366
0.00919194
0.00920499
0.00921324
0.00917975
0.00919913
0.00921333
0.00922276
0.00918097
0.0092009
0.00921578
0.00922591
0.00917446
0.00919443
0.00920951
0.00921993
0.00915703
0.00917661
0.00919153
0.00920191
0.00912599
0.00914491
0.00915939
0.00916953
0.00908015
0.00909826
0.0091122
0.009122
0.00902094
0.0090382
0.00905157
0.00906101
0.00895328
0.00896965
0.00898238
0.00899137
0.00888587
0.00890113
0.00891295
0.00892121
0.00883029
0.00884394
0.00885435
0.00886137
0.00879925
0.00881056
0.00881889
0.00882404
0.00880408
0.00881232
0.00881802
0.00882089
0.00885243
0.00885724
0.00886022
0.00886111
0.00894668
0.00894818
0.00894898
0.00894895
0.000476571
0.00096705
0.00160041
0.00221765
0.00271611
0.0030612
0.00327453
0.00338487
0.00340644
0.00335797
0.00327066
0.00314465
0.00296899
0.00278122
0.00254392
0.00219358
0.00166789
0.000860278
0.000131267
0.00178975
0.00201604
0.00241394
0.00286347
0.00327733
0.00360377
0.00381639
0.0039214
0.00393799
0.00388352
0.00377782
0.00362657
0.00342643
0.00319355
0.00289298
0.00246847
0.00182884
0.000889004
0.000128321
0.00313825
0.00316502
0.00337638
0.00366057
0.00394212
0.00418049
0.00434969
0.00443162
0.00443199
0.00436405
0.00424
0.00406593
0.0038418
0.00356657
0.00321433
0.00273061
0.00201574
0.00101317
0.000136654
0.00430366
0.00424816
0.00433613
0.00448909
0.00464804
0.00478504
0.00488343
0.00492088
0.00489389
0.00480522
0.0046614
0.00446599
0.00421714
0.00390811
0.00351487
0.00298955
0.00225134
0.0012144
0.000152326
0.00527821
0.00520016
0.00521289
0.00527161
0.0053373
0.00538799
0.00541089
0.00539281
0.00532659
0.00520871
0.00504037
0.00482204
0.00454955
0.00421195
0.00378443
0.003223
0.00245718
0.00137992
0.000167917
0.00607843
0.0060009
0.00597319
0.00597057
0.00596863
0.00595156
0.00590985
0.00583612
0.00572493
0.00557181
0.00537418
0.00512921
0.00483024
0.00446382
0.00400475
0.00340992
0.00260566
0.00146825
0.000177445
0.00672835
0.00665865
0.00660991
0.00656859
0.00651889
0.00645
0.00635567
0.0062324
0.00607746
0.00588706
0.00565708
0.00538242
0.00505436
0.004658
0.00416819
0.00354179
0.0027019
0.00152037
0.000181187
0.00724784
0.00718742
0.00712897
0.00706246
0.00697836
0.00686935
0.00673217
0.00656663
0.00637224
0.00614579
0.00588261
0.0055768
0.00521812
0.00479038
0.00426917
0.00361357
0.00274616
0.00153994
0.000180538
0.00765853
0.00760189
0.00753616
0.00745297
0.00734442
0.00720447
0.00703224
0.00683057
0.0066015
0.00634155
0.00604554
0.00570859
0.00531988
0.00486083
0.00430841
0.00362774
0.00274449
0.00153661
0.000178683
0.00797896
0.00792243
0.00784967
0.00775399
0.0076271
0.00746085
0.00725692
0.00702303
0.00676328
0.00647216
0.00614283
0.00577549
0.00536237
0.00487782
0.00429772
0.00360096
0.00272073
0.00153525
0.000190599
0.00821875
0.00815171
0.0080664
0.00795849
0.00781805
0.00763382
0.00740655
0.00714595
0.00685621
0.00653173
0.00616911
0.00576939
0.00532792
0.004825
0.00424068
0.00354602
0.0026843
0.00151733
0.000195633
0.00839626
0.00831871
0.00822013
0.00809675
0.00793979
0.00774061
0.0074976
0.00721634
0.00690011
0.00654841
0.0061586
0.00572799
0.0052541
0.00472312
0.00411972
0.00342181
0.00257239
0.00145067
0.000189952
0.00853318
0.00844847
0.00834058
0.00820468
0.00803244
0.00781679
0.0075568
0.00725705
0.00691957
0.00654389
0.00612375
0.00565708
0.00514457
0.00457896
0.00394791
0.00322314
0.00236142
0.00128209
0.000174214
0.00864099
0.00855206
0.00843738
0.00829175
0.0081078
0.00787942
0.00760567
0.00728951
0.00693188
0.00653099
0.00608054
0.00557713
0.00502523
0.00442148
0.00375054
0.00299001
0.00210895
0.00108685
0.000161527
0.008727
0.00863635
0.00851772
0.00836615
0.00817531
0.00793974
0.00765752
0.00732945
0.00695515
0.00653194
0.00605473
0.00552053
0.00493201
0.00428778
0.00357869
0.00278922
0.00190867
0.000958865
0.000152693
0.00879768
0.00870779
0.00858843
0.00843502
0.00824208
0.00800459
0.00771968
0.00738618
0.00700245
0.00656538
0.00607101
0.0055168
0.00490361
0.00423117
0.00349508
0.00268972
0.00181814
0.000912748
0.000149006
0.00885805
0.00877124
0.00865414
0.00850262
0.00831184
0.00807713
0.007795
0.00746297
0.00707848
0.00663826
0.00613893
0.00557815
0.00495551
0.00427062
0.00352192
0.00270871
0.00183736
0.000933892
0.000149583
0.00891138
0.00882964
0.00871725
0.00857061
0.0083854
0.00815727
0.00788247
0.00755782
0.00718022
0.00674627
0.00625262
0.00569668
0.00507679
0.00439147
0.00363897
0.00281822
0.00193172
0.000994662
0.000152247
0.00895942
0.00888421
0.00877833
0.00863865
0.00846137
0.00824242
0.00797807
0.00766483
0.00729928
0.00687768
0.00639643
0.00585222
0.00524189
0.00456204
0.00380864
0.00297706
0.00206317
0.00107212
0.000155555
0.00900287
0.00893509
0.00883678
0.00870525
0.00853717
0.00832878
0.00807644
0.00777655
0.00742542
0.00701888
0.00655286
0.00602303
0.00542453
0.00475159
0.00399693
0.00315136
0.00220418
0.00115283
0.000159017
0.009042
0.00898198
0.00889165
0.00876869
0.00861017
0.00841264
0.00817255
0.00788625
0.00754979
0.00715856
0.00670785
0.0061922
0.00560504
0.00493811
0.00418078
0.0033194
0.00233785
0.0012281
0.000161906
0.00907696
0.00902463
0.00894218
0.00882763
0.00867839
0.00849124
0.00826275
0.00798918
0.00766635
0.00728921
0.00685238
0.00634929
0.0057717
0.00510905
0.00434762
0.00346989
0.00245528
0.00129044
0.00016403
0.00910809
0.00906306
0.00898806
0.00888139
0.00874072
0.00856305
0.008345
0.00808277
0.0077719
0.007407
0.006982
0.00648928
0.00591915
0.00525902
0.00449254
0.00359902
0.00255435
0.00134088
0.000165543
0.00913585
0.00909755
0.00902937
0.00892984
0.00879686
0.00862757
0.00841863
0.00816615
0.00786545
0.0075108
0.00709548
0.00661099
0.00604636
0.00538732
0.00461539
0.0037073
0.00263582
0.00138149
0.000166608
0.00916077
0.00912847
0.00906639
0.00897321
0.00884698
0.00868494
0.0084838
0.00823957
0.00794734
0.00760109
0.00719354
0.00671542
0.00615471
0.00549578
0.00471845
0.00379752
0.00270307
0.00141507
0.00016739
0.00918311
0.00915604
0.00909932
0.00901168
0.00889129
0.0087355
0.008541
0.0083037
0.0080185
0.00767911
0.00727779
0.00680459
0.00624664
0.00558724
0.00480485
0.00387255
0.00275884
0.00144298
0.000168002
0.00920278
0.00918011
0.00912798
0.00904513
0.00892979
0.00877936
0.00859053
0.00835913
0.00807983
0.00774615
0.0073499
0.00688061
0.00632471
0.00566462
0.0048777
0.00393571
0.00280587
0.00146695
0.000168559
0.00921902
0.0091999
0.0091516
0.00907286
0.0089619
0.00881614
0.00863226
0.00840597
0.00813182
0.00780305
0.00741114
0.00694516
0.00639097
0.00573026
0.00493954
0.00398945
0.0028461
0.00148768
0.000169155
0.00923039
0.00921397
0.00916877
0.00909351
0.0089864
0.00884484
0.00866542
0.00844377
0.0081743
0.00785004
0.00746214
0.00699925
0.00644675
0.00578578
0.00499213
0.00403557
0.00288133
0.00150695
0.000169909
0.00923471
0.00922023
0.00917753
0.00910526
0.0090016
0.00886389
0.00868866
0.00847143
0.00820653
0.00788675
0.0075029
0.00704327
0.0064928
0.00583216
0.00503658
0.0040751
0.00291203
0.001524
0.000170915
0.00922928
0.00921613
0.0091755
0.00910593
0.00900552
0.00887156
0.00870051
0.00848783
0.0082277
0.00791267
0.00753326
0.00707736
0.00652954
0.00587001
0.00507356
0.0041086
0.0029387
0.00153945
0.00017238
0.00921134
0.00919912
0.00916032
0.00909335
0.00899623
0.00886618
0.0086996
0.00849188
0.00823704
0.00792738
0.00755309
0.00710169
0.00655733
0.0058999
0.00510379
0.004137
0.00296225
0.00155387
0.000174217
0.00917879
0.00916732
0.00913031
0.00906606
0.00897248
0.00884675
0.0086852
0.00848316
0.00823443
0.00793105
0.00756286
0.00711696
0.00657712
0.00592287
0.0051284
0.00416145
0.00298409
0.00156891
0.000176634
0.00913101
0.0091203
0.00908518
0.0090239
0.00893431
0.00881351
0.00865783
0.00846243
0.0082209
0.00792498
0.00756413
0.00712503
0.00659097
0.00594112
0.0051495
0.00418386
0.00300583
0.0015858
0.000179802
0.00906974
0.00905978
0.00902665
0.0089686
0.00888348
0.00876836
0.00861951
0.00843186
0.00819879
0.00791174
0.00755979
0.00712913
0.00660251
0.00595861
0.00517114
0.0042078
0.00303005
0.00160596
0.000184017
0.00899968
0.00899024
0.00895891
0.0089041
0.00882377
0.00871498
0.00857385
0.00839503
0.00817167
0.007895
0.00755375
0.00713371
0.00661703
0.00598167
0.00520053
0.00424042
0.00306206
0.00163187
0.000189681
0.00892865
0.00891897
0.0088887
0.00883662
0.00876081
0.00865859
0.00852563
0.00835632
0.00814368
0.00787879
0.00755028
0.00714374
0.00664102
0.00601938
0.00525001
0.0042961
0.00311369
0.00166881
0.000197579
0.00886707
0.00885585
0.00882521
0.00877442
0.00870172
0.00860529
0.00848013
0.00832026
0.00811867
0.00786656
0.00755283
0.00716354
0.00668128
0.00608377
0.00534014
0.00440401
0.00321203
0.00172914
0.000209188
0.00882699
0.00881277
0.00877986
0.00872778
0.00865423
0.00856114
0.00844212
0.00829053
0.00809936
0.00786022
0.00756285
0.00719513
0.006743
0.00618903
0.00550368
0.00462167
0.00341567
0.0018415
0.000227728
0.00882065
0.00880304
0.00876672
0.0087099
0.00862564
0.00853063
0.00841465
0.00826912
0.00808668
0.00785947
0.00757883
0.00723634
0.00682628
0.0063469
0.00578679
0.00505903
0.00383741
0.00206865
0.000260154
0.00885868
0.00884067
0.00880406
0.00874049
0.00861977
0.00851407
0.0083978
0.00825594
0.00807974
0.00786195
0.00759594
0.00727879
0.00691954
0.00655101
0.00623066
0.00592018
0.0046703
0.00256128
0.000324114
0.00894722
0.00893783
0.00891616
0.00885906
0.00862529
0.00850409
0.00838877
0.00824951
0.00807678
0.0078643
0.00760726
0.00730773
0.00699029
0.00673703
0.00676946
0.00757603
0.00637025
0.00399281
0.000467837
)
;

boundaryField
{
    leftWall
    {
        type            nutkWallFunction;
        Cmu             0.09;
        kappa           0.41;
        E               9.8;
        value           nonuniform List<scalar> 
50
(
2.10156e-06
6.29129e-06
7.40614e-06
8.31185e-06
9.13366e-06
1.05733e-05
1.28398e-05
1.38662e-05
1.51383e-05
1.67973e-05
1.82244e-05
1.94976e-05
2.06236e-05
2.14668e-05
2.19701e-05
2.23338e-05
2.29e-05
2.00109e-05
2.09475e-05
2.23987e-05
2.31074e-05
2.24567e-05
2.09864e-05
1.95016e-05
1.79813e-05
1.64594e-05
1.50307e-05
1.38048e-05
1.29145e-05
1.22732e-05
1.18029e-05
1.1436e-05
1.11158e-05
1.0802e-05
1.04734e-05
1.01222e-05
9.75142e-06
9.36899e-06
8.98661e-06
8.6158e-06
8.26761e-06
7.95096e-06
7.67769e-06
7.47804e-06
7.46027e-06
8.00782e-06
1.03277e-05
1.65859e-05
2.77424e-05
4.92489e-05
)
;
    }
    rightWall
    {
        type            nutkWallFunction;
        Cmu             0.09;
        kappa           0.41;
        E               9.8;
        value           nonuniform List<scalar> 
50
(
2.44377e-06
8.0852e-06
9.90485e-06
1.18177e-05
1.65683e-05
1.73858e-05
1.70792e-05
1.64282e-05
1.51994e-05
1.49869e-05
1.59238e-05
1.76081e-05
1.95386e-05
2.05733e-05
2.09631e-05
2.08934e-05
2.06303e-05
2.18781e-05
1.97121e-05
1.81105e-05
1.5827e-05
1.41571e-05
1.31365e-05
1.2855e-05
1.30851e-05
1.35164e-05
1.39878e-05
1.44274e-05
1.47865e-05
1.50438e-05
1.52199e-05
1.53366e-05
1.5416e-05
1.54743e-05
1.55278e-05
1.55902e-05
1.56781e-05
1.58086e-05
1.59979e-05
1.62522e-05
1.65992e-05
1.70605e-05
1.76818e-05
1.85148e-05
1.9668e-05
2.13273e-05
2.3911e-05
2.83397e-05
3.68523e-05
5.5708e-05
)
;
    }
    lowerWall
    {
        type            nutkWallFunction;
        Cmu             0.09;
        kappa           0.41;
        E               9.8;
        value           nonuniform List<scalar> 
62
(
2.10156e-06
3.49872e-06
4.37436e-06
4.98484e-06
5.44386e-06
5.80319e-06
6.09092e-06
6.3224e-06
6.50703e-06
6.65087e-06
6.7572e-06
6.82807e-06
6.86438e-06
6.86555e-06
6.82965e-06
6.75506e-06
6.63884e-06
6.47591e-06
6.25496e-06
5.94762e-06
5.48423e-06
4.69628e-06
3.13091e-06
3.13091e-06
9.44557e-06
1.1166e-05
1.25165e-05
1.3706e-05
1.49628e-05
1.6721e-05
2.0147e-05
2.67475e-05
2.57358e-05
2.51929e-05
2.43325e-05
3.06437e-06
1.01734e-05
1.22969e-05
1.3886e-05
1.47217e-05
1.57172e-05
1.78627e-05
2.10117e-05
3.06437e-06
4.69345e-06
5.39902e-06
5.83558e-06
6.15325e-06
6.36824e-06
6.3485e-06
6.48349e-06
6.63135e-06
6.55663e-06
6.37053e-06
6.0679e-06
5.865e-06
5.75421e-06
5.40871e-06
5.10865e-06
4.66952e-06
3.94506e-06
2.44377e-06
)
;
    }
    atmosphere
    {
        type            calculated;
        value           nonuniform List<scalar> 
46
(
0.009
0.009
0.009
0.0048737
0.00431054
0.00425906
0.00458723
0.00514549
0.00578392
0.00639235
0.00695456
0.00753544
0.00803744
0.009
0.009
0.009
0.009
0.009
0.009
0.009
0.009
0.009
0.009
0.009
0.009
0.009
0.009
0.009
0.009
0.009
0.009
0.00862529
0.00850409
0.00838877
0.00824951
0.00807678
0.0078643
0.00760726
0.00730773
0.00699029
0.00673703
0.00676946
0.009
0.009
0.009
0.009
)
;
    }
    defaultFaces
    {
        type            empty;
    }
}


// ************************************************************************* //
