/*--------------------------------*- C++ -*----------------------------------*\
  =========                 |
  \\      /  F ield         | OpenFOAM: The Open Source CFD Toolbox
   \\    /   O peration     | Website:  https://openfoam.org
    \\  /    A nd           | Version:  13
     \\/     M anipulation  |
\*---------------------------------------------------------------------------*/
FoamFile
{
    format      ascii;
    class       volScalarField;
    location    "2.6";
    object      p;
}
// * * * * * * * * * * * * * * * * * * * * * * * * * * * * * * * * * * * * * //

dimensions      [1 -1 -2 0 0 0 0];

internalField   nonuniform List<scalar> 
2268
(
4764.99
4775.87
4798.8
4833.49
4877.39
4929.31
4988.57
5054.86
5128.25
5209.26
5298.29
5395.43
5500.09
5611.19
5727.75
5847.63
5968.42
6086.64
6198.52
6297.15
6377.77
6433.73
6462.77
3966.85
3976.64
3997.87
4031.84
4075.71
4128.04
4187.85
4254.66
4328.48
4409.85
4499.2
4596.71
4702.17
4814.71
4932.52
5054.18
5177.25
5298.05
5412.14
5512.48
5592.61
5642.38
5667.44
3166.8
3177.32
3197.07
3229.96
3273.49
3326.06
3386.43
3453.9
3528.29
3610.25
3700.19
3798.5
3904.73
4018.28
4137.5
4261.08
4386.51
4509.86
4625.92
4727.46
4807.25
4851.85
4879.41
2364.62
2376.25
2395.05
2427.09
2470.3
2523.05
2583.97
2652
2726.85
2809.45
2900.14
2999.31
3106.7
3221.65
3342.34
3467.72
3595.45
3721.34
3839.39
3942.54
4023.84
4067.5
4100.36
1567.1
1580.87
1598.28
1628.09
1669.2
1720.54
1781.09
1848.92
1923.27
2006.06
2097.24
2197.6
2306.76
2424.02
2546.61
2674.1
2804.47
2933.41
3053.85
3159.31
3244.16
3289.04
3330.63
1021.37
1030.76
1039.82
1054.12
1073.4
1097.73
1127.17
1162.79
1209.01
1265.31
1332.95
1413.77
1509.7
1621.65
1746.51
1877.91
2013.05
2147.25
2271.09
2379.46
2467.53
2519.37
2568.87
841.731
845.223
847.385
848.462
848.257
847.338
846.24
847.301
855.475
869.402
889.733
918.385
957.512
1009.08
1076
1158.98
1258.47
1370.52
1491.52
1604.26
1695.78
1755.41
1816.12
781.589
785.017
787.501
788.753
788.776
787.923
786.558
784.963
782.668
780.225
777.7
774.894
771.881
769.297
770.827
783.609
809.996
848.433
901.904
958.609
1008.97
1048.06
1099.89
2310.3
2342.29
2407.55
2486.34
2568.14
2610.02
2598.84
2597.75
2593.04
2569.67
2523.45
2470.47
2459.81
2461.82
2449.21
2444.39
2435.34
2428.06
2428.71
1702.76
1721.28
1769.66
1829.78
1885.21
1949.13
1998.63
2001.86
1984.12
1960.48
1935.09
1919.18
1891.51
1852.23
1836.91
1832.82
1825.6
1820.49
1822.41
1317.73
1321.83
1335.49
1357.4
1362.84
1375.17
1405.83
1398.42
1374.76
1349.55
1351.95
1362.07
1336.46
1299.93
1280.53
1265.99
1268.35
1283.19
1294.31
1112.31
1114.84
1116.34
1116.8
1099.18
1055.86
1052.96
1041.14
1027.05
995.308
985.381
993.388
979.933
958.241
946.867
940.611
946.083
955.206
949.761
975.981
974.107
978.398
976.099
975.925
946.602
930.014
923.314
914.216
885.775
858.791
843.156
824.741
827.95
847.202
857.95
855.442
839.053
815.534
862.218
861.014
856.768
850.76
864.16
871.479
862.603
854.813
832.973
817.588
806.892
786.45
760.703
776.338
802.839
807.783
803.568
788.451
778.33
776.045
776.635
761.673
748.573
754.069
780.206
779.976
767.939
747.075
749.145
747.929
745.711
739.246
744.146
749.43
748.485
744.358
732.361
732.433
704.593
708.532
696.076
675.989
666.338
684.44
684.326
675.205
674.16
685.163
689.001
691.7
706.627
701.837
693.493
690.545
687.14
677.521
680.899
686.638
690.051
692.847
694.368
694.676
694.056
692.733
690.932
688.597
685.834
682.678
679.123
675.351
671.8
668.48
664.319
658.164
649.643
639.561
631.478
626.021
620.419
619.649
556.236
560.381
563.766
565.65
566.357
566.071
564.845
562.998
560.728
558.09
555.077
551.68
547.966
544.11
539.967
534.884
528.342
520.386
510.862
499.204
485.514
470.453
455.704
430.936
433.215
435.521
437.245
438.385
438.586
437.269
435.263
432.947
430.367
427.477
424.246
420.731
417.121
413.12
408.258
402.488
395.732
388.131
379.593
370.079
359.919
351.004
320.708
321.659
322.143
322.432
322.341
321.377
320.527
318.713
316.48
314.27
312.021
310.135
308.117
305.533
302.26
298.746
295.627
292.336
288.116
283.844
279.849
276.207
274.267
240.501
240.688
240.777
240.201
238.705
237.504
237.317
236.807
235.741
234.513
233.364
232.216
230.863
228.937
226.62
224.473
222.514
220.685
218.672
216.804
215.753
215.886
217.501
177.55
176.594
177.014
177.206
176.985
177.1
176.911
176.843
176.46
175.685
174.659
172.994
171.095
169.199
167.354
165.333
162.784
160.163
158.253
156.851
156.093
156.609
158.168
111.479
111.729
112.842
113.957
114.996
115.548
115.215
114.767
114.211
113.247
111.791
110.015
108.058
106.055
104.042
101.91
99.6404
97.5427
95.9668
94.8591
94.3182
94.5212
95.3828
46.7971
48.7907
51.1769
52.6216
53.5655
54.2741
54.3603
53.7711
52.7919
51.6202
50.2004
48.5035
46.6915
44.9045
43.1702
41.5073
40.0183
38.8481
37.9543
37.3116
36.9177
36.8561
36.9622
9.94649
11.2348
12.863
13.5489
13.8826
14.3448
14.316
13.6973
13.0259
12.4339
11.8002
11.057
10.3089
9.62796
9.00312
8.44258
7.96824
7.62118
7.37844
7.20529
7.09749
7.0957
7.25999
3.55914
3.5399
3.45109
3.41041
3.40249
3.39724
3.40184
3.41172
3.41071
3.40225
3.393
3.38511
3.37637
3.365
3.35156
3.338
3.32644
3.31479
3.30259
3.28956
3.2745
3.25898
3.22443
3.40615
3.39499
3.37268
3.3473
3.32699
3.31112
3.29991
3.29201
3.2842
3.27526
3.26631
3.25816
3.25056
3.24301
3.23517
3.22681
3.21775
3.20744
3.19569
3.18288
3.16937
3.15749
3.14036
3.26705
3.25363
3.23792
3.22024
3.20482
3.19316
3.18455
3.17809
3.17032
3.16043
3.15008
3.1402
3.13049
3.12052
3.1101
3.09912
3.08733
3.07438
3.06017
3.04516
3.02991
3.01774
3.00638
3.13685
3.12307
3.1094
3.09652
3.0854
3.07634
3.06902
3.06321
3.05545
3.0458
3.03483
3.02361
3.01248
3.00077
2.9883
2.97503
2.96084
2.94547
2.92901
2.91219
2.89601
2.88475
2.8758
3.0136
3.00072
2.98893
2.97871
2.96958
2.96126
2.95324
2.9455
2.9372
2.92852
2.91771
2.90648
2.89508
2.88283
2.86964
2.85552
2.8404
2.8241
2.80679
2.78937
2.77309
2.76286
2.75598
2.89384
2.8835
2.87321
2.86418
2.85581
2.84777
2.8387
2.82907
2.81985
2.8105
2.80038
2.7902
2.77908
2.76682
2.75355
2.73935
2.72417
2.70783
2.69055
2.67328
2.65747
2.64819
2.64239
2.77625
2.76823
2.75948
2.75145
2.7439
2.73601
2.72693
2.71635
2.70586
2.69572
2.68616
2.67654
2.66548
2.65319
2.63994
2.62589
2.61085
2.59469
2.57766
2.5608
2.54553
2.53703
2.53216
2.66032
2.65444
2.64765
2.64073
2.63369
2.62587
2.61705
2.60711
2.59647
2.58595
2.57618
2.56582
2.55441
2.54202
2.52887
2.51497
2.50014
2.48426
2.4676
2.45117
2.43647
2.42863
2.42433
2.54614
2.54206
2.53694
2.53106
2.52446
2.51694
2.50843
2.49898
2.48889
2.47856
2.4681
2.45718
2.44549
2.43309
2.42008
2.40637
2.39181
2.37628
2.36003
2.34411
2.32992
2.32253
2.31882
2.43367
2.43098
2.42707
2.42202
2.41595
2.40884
2.4007
2.39165
2.38191
2.3717
2.36112
2.35002
2.33832
2.32606
2.31325
2.29981
2.28559
2.27048
2.25472
2.23927
2.22563
2.21868
2.21531
2.32275
2.32103
2.31799
2.31362
2.30805
2.30136
2.29363
2.28497
2.27557
2.2656
2.25515
2.24415
2.23263
2.22062
2.20813
2.19505
2.18126
2.16663
2.15138
2.13651
2.12337
2.11681
2.11398
2.21319
2.21208
2.20965
2.20581
2.20071
2.19445
2.18714
2.1789
2.16989
2.16026
2.1501
2.13941
2.12823
2.1166
2.10452
2.0919
2.07861
2.06453
2.04988
2.03556
2.02299
2.01682
2.01418
2.10481
2.10405
2.10204
2.09865
2.09399
2.08816
2.08128
2.07348
2.0649
2.05568
2.04593
2.03568
2.02497
2.01383
2.00226
1.99019
1.97749
1.96403
1.95003
1.93638
1.92439
1.91854
1.91621
1.99748
1.99691
1.9952
1.99219
1.98794
1.98255
1.97613
1.96879
1.96068
1.95193
1.94266
1.93293
1.92275
1.91218
1.90121
1.88977
1.87774
1.865
1.85176
1.83883
1.82758
1.82223
1.81999
1.89109
1.8906
1.88912
1.88645
1.88259
1.87763
1.87168
1.86485
1.85727
1.84905
1.84032
1.83116
1.82159
1.81164
1.80132
1.79057
1.77927
1.76731
1.75492
1.74289
1.73246
1.72777
1.72582
1.78555
1.78511
1.78381
1.78143
1.77794
1.77342
1.76795
1.76165
1.75462
1.74699
1.73887
1.73034
1.72143
1.71216
1.70256
1.69256
1.68205
1.67095
1.65946
1.64832
1.63883
1.63502
1.63274
1.68078
1.68038
1.67925
1.67713
1.674
1.66989
1.66491
1.65915
1.65271
1.6457
1.63822
1.63037
1.62217
1.61365
1.60481
1.59562
1.58596
1.57577
1.56521
1.55504
1.54631
1.54276
1.54174
1.5767
1.57635
1.57537
1.57352
1.57072
1.56703
1.56254
1.55732
1.55148
1.54511
1.53831
1.53116
1.5237
1.51596
1.50794
1.49959
1.49083
1.48159
1.47201
1.46277
1.45493
1.45189
1.45157
1.4732
1.47293
1.47212
1.47052
1.46806
1.46479
1.46078
1.45611
1.45087
1.44515
1.43904
1.43262
1.42592
1.41897
1.41179
1.40432
1.39648
1.38819
1.3796
1.37139
1.36444
1.36198
1.36249
1.37018
1.37001
1.36939
1.36805
1.36594
1.36308
1.35956
1.35544
1.35081
1.34575
1.34034
1.33464
1.32871
1.32257
1.31623
1.30964
1.30273
1.29542
1.28786
1.2806
1.27459
1.27277
1.27362
1.26754
1.26751
1.26709
1.26603
1.26426
1.26183
1.2588
1.25523
1.25121
1.2468
1.24208
1.23711
1.23195
1.22662
1.22112
1.21542
1.20943
1.20311
1.19655
1.19034
1.18521
1.18389
1.18524
1.16516
1.16528
1.16509
1.16432
1.16292
1.16093
1.1584
1.15538
1.15196
1.14819
1.14415
1.1399
1.1355
1.13097
1.12631
1.12149
1.11645
1.11111
1.10561
1.1004
1.09627
1.09558
1.09718
1.06292
1.06321
1.06327
1.06281
1.0618
1.06025
1.05823
1.05577
1.05294
1.0498
1.04643
1.04288
1.03922
1.03547
1.03164
1.0277
1.02359
1.01925
1.0148
1.01072
1.00759
1.00758
1.0099
0.960691
0.961171
0.961483
0.96136
0.960751
0.959677
0.958167
0.95626
0.954013
0.951489
0.948759
0.945895
0.942951
0.93996
0.936933
0.933846
0.930648
0.927306
0.923935
0.920903
0.918828
0.919573
0.922318
0.858333
0.859009
0.859591
0.859817
0.859636
0.859053
0.858074
0.856722
0.855046
0.853114
0.850998
0.848779
0.846512
0.844236
0.841965
0.839686
0.837363
0.834968
0.8326
0.830629
0.829501
0.830829
0.834156
0.755706
0.756582
0.757434
0.758024
0.758302
0.758245
0.75782
0.757028
0.75591
0.75454
0.753002
0.751379
0.749728
0.748097
0.74651
0.744962
0.74343
0.741899
0.740465
0.739398
0.739167
0.741079
0.744645
0.652692
0.65375
0.654855
0.65583
0.656619
0.657143
0.657312
0.657089
0.656512
0.655668
0.654654
0.653556
0.652434
0.651348
0.650336
0.649409
0.648556
0.647766
0.647118
0.646896
0.647396
0.649747
0.653761
0.549198
0.550412
0.551738
0.553127
0.554513
0.555709
0.556526
0.556887
0.556829
0.556458
0.555897
0.555227
0.554507
0.55383
0.553262
0.552824
0.552516
0.552336
0.552357
0.552759
0.553854
0.556535
0.560517
0.445244
0.446583
0.448078
0.449952
0.452075
0.454057
0.455579
0.456526
0.45695
0.456992
0.456795
0.45642
0.455934
0.455508
0.455247
0.455175
0.455294
0.455594
0.456118
0.457043
0.458536
0.461281
0.465203
0.340962
0.342482
0.344169
0.346682
0.349718
0.352559
0.35477
0.356251
0.357107
0.35751
0.357601
0.357352
0.356895
0.356568
0.356523
0.356732
0.357192
0.357868
0.358797
0.360079
0.361909
0.364749
0.368373
0.236636
0.238593
0.240786
0.244246
0.248267
0.251812
0.254493
0.256348
0.257567
0.258356
0.258836
0.258605
0.257946
0.257615
0.257817
0.258244
0.258977
0.259936
0.261128
0.2627
0.264782
0.267694
0.271732
0.132852
0.135713
0.138792
0.144166
0.14877
0.152336
0.154948
0.156872
0.158359
0.159666
0.160993
0.160062
0.158825
0.158454
0.158818
0.159361
0.160197
0.161249
0.162492
0.164027
0.166053
0.168831
0.173368
0.0393822
0.0390876
0.0411697
0.0458873
0.0489311
0.0509665
0.0524034
0.0535478
0.0545671
0.0556702
0.0574203
0.0573347
0.0554066
0.05514
0.0553566
0.0553281
0.0556288
0.0560895
0.0566617
0.0573727
0.0582966
0.0596085
0.0621768
618.565
611.621
606.442
605.554
453.124
457.913
463.951
465.615
349.371
350.781
353.991
356.777
275.526
276.925
278.868
282.176
218.762
219.727
221.108
223.004
159.182
159.675
160.315
161.231
96.348
96.9768
97.5361
98.0605
36.5491
36.4682
36.8462
37.6049
7.58662
7.72269
7.84723
7.94434
3.1508
3.0971
3.05778
3.03631
3.1131
3.07853
3.03489
3.005
2.97267
2.9299
2.87905
2.8481
2.84416
2.80136
2.74859
2.71576
2.72667
2.68416
2.63076
2.59695
2.6139
2.57145
2.51767
2.48373
2.50427
2.46213
2.40859
2.3746
2.39732
2.35577
2.30247
2.26879
2.29248
2.25169
2.19937
2.16616
2.19006
2.1503
2.09884
2.06638
2.08977
2.05129
2.00137
1.9696
1.99129
1.9543
1.90575
1.87511
1.89428
1.85885
1.81253
1.78314
1.79953
1.76591
1.72144
1.69353
1.70689
1.6753
1.63338
1.60663
1.61561
1.58637
1.54672
1.52147
1.52585
1.49842
1.46154
1.43792
1.4374
1.412
1.37714
1.35507
1.34986
1.32666
1.29467
1.27398
1.26281
1.24191
1.21233
1.19349
1.17565
1.15699
1.13073
1.11378
1.08928
1.07293
1.04934
1.03446
1.00363
0.989689
0.969288
0.955901
0.918019
0.906471
0.888495
0.876729
0.831205
0.821813
0.806854
0.796524
0.743228
0.735856
0.723102
0.714289
0.65352
0.647991
0.637759
0.629991
0.561394
0.557469
0.548974
0.542429
0.466343
0.463596
0.457245
0.45183
0.36986
0.368074
0.363062
0.358805
0.27388
0.273153
0.269665
0.265727
0.17845
0.179398
0.176744
0.172219
0.0663251
0.0676162
0.0666813
0.0637024
605.773
603.089
595.678
584.644
574.091
569.888
568.211
572.501
582.305
591.519
597.348
602.724
617.323
613.327
605.204
601.438
599.427
596.229
601.726
464.683
463.919
464.6
465.238
456.77
446.074
449.144
455.183
460.726
466.968
472.462
478.567
486.836
487.179
484.205
482.773
484.087
487.687
493.067
359.579
361.622
363.97
365.939
361.616
358.268
358.398
359.969
362.911
366.322
369.511
373.197
377.665
379.855
381.602
384.927
389.894
395.036
398.002
289.054
292.93
292.93
292.855
294.072
294.098
291.64
292.054
293.797
295.816
297.531
299.118
301.084
303.912
308.08
313.423
318.534
321.934
323.601
226.712
229.638
230.181
230.413
231.592
232.942
232.742
232.419
232.158
233.215
234.78
236.659
239.086
242.164
246.078
250.568
254.488
256.488
257.984
162.953
164.902
165.984
166.802
167.939
169.179
169.551
169.478
169.583
170.535
172.101
174.226
176.961
180.285
184.187
188.447
192.223
194.791
197.166
99.01
100.427
101.647
102.71
103.811
104.86
105.507
105.9
106.444
107.479
109.133
111.622
114.82
118.473
122.569
127.272
131.739
134.991
137.342
39.1505
40.228
41.1899
42.1006
42.8856
43.5108
43.8235
44.1183
44.4522
45.0901
46.3006
48.4146
51.6505
55.6244
60.065
65.039
70.2452
75.1155
77.8045
7.99445
8.28865
8.69242
9.03056
9.24541
9.34143
9.22981
8.97205
8.77437
8.81222
9.15736
9.8126
11.1381
13.2529
15.9695
19.012
22.3568
25.8651
27.8709
3.01959
2.99681
2.99579
3.01767
3.04501
3.05378
3.04627
3.03856
3.05821
3.10527
3.21462
3.32012
3.36626
3.46454
3.78709
4.30023
4.83443
4.72509
4.64905
2.98049
2.97808
2.98065
2.99044
2.99942
2.98706
2.95637
2.91984
2.90145
2.89875
2.91042
2.9148
2.90285
2.88291
2.84407
2.82013
2.80261
2.78834
2.80849
2.83492
2.83787
2.83522
2.82797
2.82203
2.80923
2.79
2.77389
2.7648
2.75779
2.75524
2.74694
2.7272
2.70538
2.69197
2.67903
2.67096
2.67034
2.68312
2.70109
2.70534
2.70032
2.68459
2.66638
2.65401
2.64696
2.64619
2.64087
2.63259
2.62013
2.61217
2.60737
2.59987
2.59116
2.58175
2.57518
2.57195
2.57693
2.58096
2.58625
2.58199
2.5687
2.55284
2.54041
2.53404
2.52901
2.52282
2.51524
2.50651
2.50003
2.49758
2.49411
2.48888
2.4834
2.47888
2.47456
2.47362
2.46795
2.4738
2.47038
2.45873
2.44508
2.43313
2.42413
2.41669
2.40915
2.40152
2.39396
2.38829
2.38533
2.38264
2.38029
2.37759
2.37524
2.37333
2.37187
2.3589
2.36513
2.36216
2.35152
2.33897
2.32711
2.31701
2.30808
2.29971
2.29186
2.28474
2.27935
2.276
2.27375
2.27212
2.2709
2.27028
2.26984
2.2686
2.25346
2.25984
2.25721
2.24711
2.23515
2.22333
2.21256
2.20281
2.19387
2.18579
2.17878
2.17341
2.16986
2.16764
2.16648
2.16618
2.16656
2.16691
2.16582
2.15112
2.15774
2.15539
2.14565
2.13398
2.12214
2.11098
2.10067
2.09127
2.0829
2.07576
2.07022
2.06641
2.06417
2.06329
2.06356
2.06455
2.06535
2.06462
2.05193
2.05859
2.05647
2.047
2.03552
2.02364
2.01221
2.00151
1.99174
1.98305
1.97566
1.96985
1.96577
1.9634
1.96261
1.96311
1.96442
1.96552
1.96519
1.95542
1.9622
1.96025
1.951
1.93967
1.92779
1.91619
1.90523
1.89517
1.88619
1.87853
1.87243
1.86807
1.86549
1.8646
1.86514
1.86652
1.86773
1.86778
1.86172
1.86841
1.86662
1.85756
1.84637
1.83452
1.82283
1.81171
1.80143
1.79223
1.78432
1.77795
1.77331
1.77048
1.76941
1.7698
1.77112
1.77235
1.7725
1.77039
1.77709
1.77541
1.76654
1.75549
1.74371
1.73202
1.72082
1.71041
1.70104
1.69293
1.68632
1.68141
1.67832
1.67698
1.67718
1.67834
1.67955
1.67986
1.68168
1.68806
1.68644
1.67775
1.66688
1.65522
1.64358
1.63237
1.6219
1.61243
1.60416
1.59736
1.59221
1.58884
1.58723
1.58714
1.58811
1.5893
1.58974
1.59504
1.60108
1.59948
1.591
1.58033
1.56884
1.55731
1.54617
1.53571
1.52618
1.51782
1.51086
1.5055
1.50186
1.49995
1.49959
1.50031
1.50138
1.50196
1.51058
1.51581
1.51432
1.50606
1.49563
1.48435
1.473
1.46199
1.45159
1.44207
1.43365
1.42657
1.42102
1.41714
1.41493
1.41422
1.4147
1.41568
1.41627
1.42766
1.43195
1.43067
1.42269
1.41255
1.40154
1.39041
1.37957
1.3693
1.35983
1.35141
1.34424
1.33853
1.3344
1.33188
1.33088
1.33106
1.33185
1.33245
1.34574
1.35008
1.34852
1.3407
1.33087
1.32015
1.30929
1.29868
1.28858
1.27922
1.27083
1.26361
1.25776
1.2534
1.25059
1.24921
1.24909
1.24971
1.25021
1.26496
1.26938
1.26759
1.25996
1.2504
1.24
1.22943
1.21907
1.20917
1.19996
1.19164
1.1844
1.17842
1.17385
1.17072
1.16902
1.16853
1.16887
1.16929
1.1855
1.18953
1.18765
1.18025
1.17098
1.1609
1.15065
1.14056
1.1309
1.12186
1.11363
1.1064
1.10032
1.09553
1.0921
1.08997
1.08912
1.08919
1.0894
1.10657
1.11036
1.10838
1.10122
1.09229
1.08257
1.07266
1.06289
1.0535
1.04467
1.03657
1.02936
1.02319
1.01819
1.01442
1.01192
1.0106
1.01024
1.0103
1.02834
1.03152
1.02941
1.02249
1.0139
1.00458
0.995059
0.985653
0.976579
0.967996
0.960056
0.952904
0.946671
0.941469
0.937379
0.934398
0.932603
0.931852
0.931633
0.949996
0.952578
0.950269
0.943573
0.935359
0.926456
0.917367
0.908378
0.899671
0.891386
0.883653
0.876595
0.870326
0.864945
0.860516
0.857138
0.85482
0.853569
0.853128
0.871332
0.872985
0.870445
0.86397
0.856142
0.847699
0.839085
0.830563
0.822279
0.814346
0.806872
0.799956
0.793691
0.788169
0.78347
0.779627
0.776825
0.775148
0.774413
0.791221
0.792144
0.789349
0.78311
0.775702
0.767761
0.759682
0.751686
0.743887
0.736369
0.729212
0.722492
0.716288
0.710677
0.705727
0.701572
0.698302
0.696158
0.695224
0.709436
0.709439
0.706422
0.700452
0.693506
0.686125
0.678649
0.671252
0.664011
0.656979
0.650204
0.643743
0.637658
0.632029
0.626949
0.622481
0.618876
0.616416
0.615266
0.625002
0.624342
0.621152
0.615521
0.609113
0.602367
0.59558
0.588871
0.582274
0.575805
0.569485
0.563348
0.557456
0.551888
0.546734
0.54218
0.538341
0.535599
0.534373
0.537849
0.536489
0.533242
0.528028
0.522241
0.516233
0.51024
0.504328
0.498477
0.492662
0.486876
0.48114
0.475511
0.470074
0.464979
0.460365
0.456504
0.453671
0.452389
0.447576
0.445892
0.442673
0.437954
0.432888
0.427753
0.422689
0.417697
0.412704
0.407648
0.402495
0.397251
0.39196
0.386726
0.381661
0.377158
0.37342
0.3705
0.369292
0.355167
0.352954
0.349797
0.345594
0.341386
0.337233
0.333246
0.329308
0.325291
0.321117
0.316733
0.312119
0.307308
0.302325
0.297271
0.292751
0.289227
0.286233
0.285019
0.261194
0.258031
0.254827
0.251074
0.247907
0.245311
0.242644
0.239928
0.237044
0.233935
0.230549
0.226836
0.222741
0.218158
0.212997
0.20748
0.204976
0.200198
0.19924
0.164532
0.159592
0.156468
0.153104
0.150892
0.151054
0.150555
0.149254
0.147673
0.145844
0.143752
0.141295
0.138368
0.134697
0.128743
0.122142
0.120028
0.113209
0.112205
0.0577993
0.0546033
0.0529219
0.0509387
0.0499634
0.0507257
0.0513014
0.0511575
0.0507791
0.0502671
0.0496274
0.0488184
0.0477003
0.0461321
0.0428439
0.0398019
0.0388883
0.0329241
0.0350037
)
;

boundaryField
{
    leftWall
    {
        type            calculated;
        value           nonuniform List<scalar> 
50
(
4764.99
3966.85
3166.8
2364.62
1567.1
1021.37
841.731
781.589
686.638
556.236
430.936
320.708
240.501
177.55
111.479
46.7971
9.94649
3.55914
3.40615
3.26705
3.13685
3.0136
2.89384
2.77625
2.66032
2.54614
2.43367
2.32275
2.21319
2.10481
1.99748
1.89109
1.78555
1.68078
1.5767
1.4732
1.37018
1.26754
1.16516
1.06292
0.960691
0.858333
0.755706
0.652692
0.549198
0.445244
0.340962
0.236636
0.132852
0.0393822
)
;
    }
    rightWall
    {
        type            calculated;
        value           nonuniform List<scalar> 
50
(
2428.71
1822.41
1294.31
949.761
815.534
778.33
732.433
680.899
601.726
493.067
398.002
323.601
257.984
197.166
137.342
77.8045
27.8709
4.64905
2.80849
2.68312
2.57693
2.47362
2.37187
2.2686
2.16582
2.06462
1.96519
1.86778
1.7725
1.67986
1.58974
1.50196
1.41627
1.33245
1.25021
1.16929
1.0894
1.0103
0.931633
0.853128
0.774413
0.695224
0.615266
0.534373
0.452389
0.369292
0.285019
0.19924
0.112205
0.0350037
)
;
    }
    lowerWall
    {
        type            calculated;
        value           nonuniform List<scalar> 
62
(
5163.14
5174.02
5196.95
5231.64
5275.54
5327.46
5386.72
5453.01
5526.4
5607.41
5696.44
5793.58
5898.24
6009.34
6125.9
6245.78
6366.57
6484.79
6596.67
6695.3
6775.78
6831.66
6860.7
6462.77
5667.44
4879.41
4100.36
3330.63
2568.87
1816.12
1099.89
745.815
702.108
669.036
668.149
2310.3
1702.76
1317.73
1112.31
975.981
862.218
776.045
704.593
2661.69
2693.74
2759.23
2837.95
2918.8
2938.51
2857.82
2858.41
2859.04
2839.17
2784.94
2723.49
2726.97
2765.48
2753.55
2749.27
2739.11
2731.14
2731.94
)
;
    }
    atmosphere
    {
        type            calculated;
        value           nonuniform List<scalar> 
46
(
-6.52121e-06
0
0
0
0
0
0
0
0
0
0
0
0
0
0
0
0
0
0
0
0
0
0
0
0
0
0
0
0
0
0
0
0
0
0
0
0
0
0
0
0
0
0
-0.000403843
-0.000409517
-0.00150287
)
;
    }
    defaultFaces
    {
        type            empty;
    }
}


// ************************************************************************* //
