/*--------------------------------*- C++ -*----------------------------------*\
  =========                 |
  \\      /  F ield         | OpenFOAM: The Open Source CFD Toolbox
   \\    /   O peration     | Website:  https://openfoam.org
    \\  /    A nd           | Version:  13
     \\/     M anipulation  |
\*---------------------------------------------------------------------------*/
FoamFile
{
    format      ascii;
    class       volScalarField;
    location    "2.6";
    object      p_rgh;
}
// * * * * * * * * * * * * * * * * * * * * * * * * * * * * * * * * * * * * * //

dimensions      [1 -1 -2 0 0 0 0];

internalField   nonuniform List<scalar> 
2268
(
5163.14
5174.02
5196.95
5231.64
5275.54
5327.46
5386.72
5453.01
5526.4
5607.41
5696.44
5793.58
5898.24
6009.34
6125.9
6245.78
6366.57
6484.79
6596.67
6695.3
6775.78
6831.66
6860.7
5161.3
5171.09
5192.32
5226.29
5270.16
5322.49
5382.3
5449.11
5522.93
5604.3
5693.65
5791.16
5896.62
6009.16
6126.97
6248.63
6371.7
6492.5
6606.59
6706.93
6786.97
6836.6
6861.62
5157.55
5168.07
5187.82
5220.71
5264.24
5316.81
5377.18
5444.64
5519.04
5601
5690.94
5789.25
5895.48
6009.03
6128.24
6251.83
6377.26
6500.61
6616.67
6718.21
6798
6842.6
6870.16
5151.67
5163.3
5182.09
5214.14
5257.35
5310.1
5371.01
5439.05
5513.9
5596.5
5687.19
5786.36
5893.75
6008.7
6129.39
6254.77
6382.49
6508.39
6626.44
6729.59
6810.89
6854.55
6887.41
5085.91
5092.06
5119.1
5170.31
5233.27
5299.34
5364.44
5432.27
5506.61
5589.4
5680.59
5780.95
5890.1
6007.37
6129.96
6257.44
6387.82
6516.76
6637.2
6742.66
6827.51
6872.39
6913.97
2662.1
2733.47
2823.64
2989.89
3230.21
3531.97
3887.73
4260.73
4588
4915.09
5235.08
5532.47
5789.77
5995.66
6126.16
6257.56
6392.7
6526.9
6650.74
6759.11
6847.18
6899.02
6948.47
1224.31
1227.8
1229.97
1231.04
1230.84
1229.92
1228.82
1258.41
1406.75
1624.04
1927.02
2346.43
2911.66
3642.85
4488.8
5263.96
5920.72
6440.26
6667.46
6780.2
6871.7
6931.29
6989.19
1223.03
1226.46
1228.94
1230.19
1230.21
1229.36
1228
1226.4
1224.11
1221.67
1219.14
1216.33
1213.32
1215.98
1299.38
1609.01
2174.38
2972.95
4063.57
5066.11
5761.23
6164.49
6503.37
2661.69
2693.74
2759.23
2837.95
2918.8
2938.51
2857.82
2858.41
2859.04
2839.17
2784.94
2723.49
2726.97
2765.48
2753.55
2749.27
2739.11
2731.14
2731.94
2440.98
2518.25
2640.57
2756.69
2902.54
2965.29
2990.26
2977.02
2977.36
2951.26
2891.83
2780.18
2775.01
2759.88
2745.18
2741.3
2734.87
2729.74
2732.02
1946.06
1938.94
2045.19
2198.09
2331.22
2637.18
2733.71
2800.24
2764.61
2754.83
2661.14
2653.74
2616.79
2537.56
2532.03
2590.7
2538.07
2450.64
2420.27
1604.48
1646.3
1638.4
1660.63
1601.34
1588.62
1730.49
1647.8
1555.22
1525.13
1733.22
1770.66
1702.82
1611.76
1513.36
1362.63
1419.58
1593.55
1779.51
1506.44
1531.3
1544.42
1597.68
1456.46
1229.57
1226.81
1266.33
1294.13
1177.22
1048.44
1240.52
1311.19
1155.66
1004.46
1035.98
1049.02
1049.9
946.289
1407.97
1409.31
1532.76
1529.52
1559.8
1305.26
1260.88
1270.55
1326.51
1188.83
1126.11
941.313
846.577
916.915
1082.25
1129.11
1127.25
1112.13
982.067
1210.97
1227.64
1242.3
1313.97
1483.14
1451.18
1404.31
1430.71
1327.13
1174.34
1133.47
1113.03
849.769
968.238
1128.67
1131.05
1126.88
1114.6
1015.49
1229.07
1213.45
1145.27
1124.2
1224.52
1427.99
1442.78
1381.89
1116.9
1134.26
1133.11
1130.37
962.489
1043.65
1134.87
1131.99
1128.27
1112.89
1016.69
1220.1
1223.52
1226.3
1227.79
1228.12
1227.52
1226.2
1224.4
1222.06
1219.3
1216.14
1212.59
1208.82
1205.27
1201.95
1197.79
1191.63
1183.11
1188.38
1257.87
1378.48
1481.57
1668.37
1211.61
1217.45
1221.51
1223.87
1225
1224.73
1223.51
1221.66
1219.39
1216.75
1213.74
1210.34
1206.63
1202.77
1198.63
1193.55
1187
1179.05
1169.53
1157.91
1144.23
1127.11
1111.26
1134.76
1191.48
1218.23
1220.95
1222.24
1222.44
1219.04
1216.16
1214.39
1212.42
1209.79
1205.5
1198.61
1192.88
1191.05
1191.05
1186.34
1179.56
1169.66
1149.38
1106.76
1068.5
1019.74
1007.98
1009.27
1029.5
1050.45
1079.91
1109.03
1086.71
1073.14
1066.23
1058.44
1048.39
1030.08
1008.66
999.93
997.748
985.039
962.819
932.772
903.537
878.394
843.704
787.668
703.351
700
754.999
757.834
757.454
764.718
724.473
728.912
712.807
693.628
682.823
666.77
679.7
693.871
694.715
680.909
666.82
688.184
723.838
725.567
723.201
728.522
715.077
689.551
752.363
756.505
756.563
756.548
734.745
721.166
746.835
756.561
750.319
746.147
751.724
751.375
750.302
748.599
745.227
743.353
742.504
739.883
737.972
736.571
733.871
733.312
738.093
753.405
754.512
755.193
756.274
757.313
757.864
757.532
757.084
756.528
755.564
754.108
752.332
750.375
748.372
746.359
744.227
741.957
739.86
738.284
737.178
736.642
736.848
737.701
695.323
719.41
734.614
735.448
736.723
726.403
728.047
734.366
731.451
725.876
719.315
711.977
703.944
696.299
688.878
680.349
671.294
664.123
659.268
656.279
655.113
657.03
662.24
164.622
203.576
260.19
275.462
279.207
289.759
284.556
261.989
242.581
227.9
212.846
194.773
177.242
162.376
149.411
137.203
126.304
118.498
113.264
109.744
108.29
109.776
116.626
5.21971
5.20045
5.11158
5.07401
5.06282
5.05773
5.06236
5.07211
5.07098
5.06267
5.05335
5.0455
5.03666
5.02526
5.0118
4.99822
4.98667
4.97502
4.96281
4.94979
4.93473
4.91923
4.8847
5.19261
5.18201
5.15999
5.13388
5.11282
5.09677
5.08541
5.07746
5.06963
5.06069
5.05174
5.04361
5.03601
5.02845
5.02062
5.01226
5.00321
4.99289
4.98115
4.96834
4.95484
4.943
4.92597
5.17988
5.16993
5.15617
5.13344
5.11566
5.10415
5.09744
5.09716
5.09321
5.07478
5.061
5.05109
5.04135
5.03137
5.02104
5.01006
4.99817
4.98519
4.97096
4.9559
4.94064
4.9285
4.91718
5.17541
5.17048
5.1817
5.16338
5.12144
5.11272
5.11981
5.2423
5.2594
5.13536
5.07389
5.0601
5.04912
5.03746
5.02496
5.01144
4.99697
4.98152
4.96503
4.94811
4.93193
4.92065
4.91172
5.17672
5.18229
5.21577
5.20371
5.15611
5.12263
5.16702
5.28451
5.27813
5.26904
5.13803
5.07434
5.06028
5.04685
5.03286
5.01739
5.00184
4.98541
4.96806
4.95051
4.93422
4.92394
4.91707
5.18182
5.1809
5.22157
5.21531
5.16364
5.13418
5.13137
5.25088
5.29348
5.2856
5.1825
5.08363
5.07251
5.0602
5.04555
5.02634
5.0107
4.99435
4.97705
4.95964
4.94382
4.93447
4.92865
5.18902
5.18376
5.18873
5.1882
5.15766
5.14759
5.13873
5.1348
5.18803
5.20909
5.11605
5.09433
5.08452
5.07214
5.05715
5.0378
5.02257
5.00634
4.98932
4.97237
4.95708
4.94851
4.94362
5.19811
5.19296
5.18497
5.1777
5.17065
5.16259
5.15377
5.14408
5.13364
5.12274
5.113
5.10321
5.09524
5.08413
5.06604
5.05184
5.03704
5.0211
5.00436
4.98791
4.97319
4.9653
4.96098
5.20888
5.20498
5.19916
5.19299
5.18638
5.17884
5.17033
5.16092
5.15083
5.14055
5.13014
5.1199
5.1091
5.09582
5.08197
5.06831
5.05376
5.03822
5.02193
5.00599
4.99178
4.98437
4.98065
5.22132
5.21878
5.2145
5.20916
5.20305
5.19593
5.1878
5.17876
5.16896
5.15873
5.14823
5.1378
5.12652
5.11392
5.10039
5.08688
5.07266
5.05754
5.04176
5.0263
5.01265
5.00569
5.00232
5.23534
5.23379
5.23052
5.22595
5.22034
5.21364
5.2059
5.19724
5.1878
5.17782
5.16739
5.15671
5.14562
5.13316
5.1204
5.10728
5.09348
5.07884
5.06359
5.04871
5.03557
5.029
5.02617
5.25085
5.24982
5.24726
5.24332
5.23818
5.2319
5.22458
5.21633
5.2073
5.19767
5.18754
5.17692
5.16575
5.15407
5.14194
5.12931
5.11601
5.10192
5.08727
5.07294
5.06037
5.0542
5.05155
5.26755
5.26687
5.26479
5.26133
5.25664
5.25078
5.24389
5.23608
5.22749
5.21828
5.20854
5.1983
5.18756
5.17642
5.16484
5.15277
5.14006
5.1266
5.1126
5.09895
5.08695
5.0811
5.07877
5.28538
5.28481
5.28309
5.28005
5.27577
5.27036
5.26392
5.25657
5.24846
5.23971
5.23044
5.2207
5.21052
5.19994
5.18897
5.17753
5.1655
5.15276
5.13951
5.12659
5.11533
5.10999
5.10774
5.30416
5.30369
5.30218
5.29949
5.2956
5.29063
5.28466
5.27782
5.27023
5.26201
5.25328
5.24412
5.23454
5.22459
5.21427
5.20352
5.19221
5.18026
5.16786
5.15584
5.14541
5.14071
5.13877
5.32381
5.32337
5.32205
5.31965
5.31614
5.3116
5.30612
5.2998
5.29277
5.28514
5.27701
5.26848
5.25957
5.25031
5.2407
5.2307
5.22019
5.20908
5.1976
5.18646
5.17696
5.17316
5.17088
5.34422
5.34381
5.34266
5.34053
5.33738
5.33326
5.32827
5.32249
5.31605
5.30904
5.30156
5.2937
5.2855
5.27698
5.26815
5.25895
5.2493
5.2391
5.22854
5.21837
5.20964
5.20609
5.20507
5.36532
5.36496
5.36397
5.36209
5.35928
5.35559
5.35108
5.34586
5.34001
5.33364
5.32684
5.31969
5.31223
5.30448
5.29646
5.28812
5.27936
5.27011
5.26054
5.25129
5.24346
5.24041
5.2401
5.387
5.38671
5.38589
5.38427
5.3818
5.37853
5.37451
5.36983
5.36459
5.35888
5.35277
5.34634
5.33964
5.3327
5.32551
5.31804
5.3102
5.30191
5.29332
5.28511
5.27816
5.2757
5.27621
5.40916
5.40898
5.40835
5.40699
5.40487
5.40201
5.39848
5.39436
5.38973
5.38466
5.37925
5.37355
5.36762
5.36149
5.35514
5.34855
5.34164
5.33433
5.32677
5.31952
5.3135
5.31168
5.31254
5.43171
5.43165
5.43122
5.43015
5.42838
5.42595
5.42291
5.41934
5.41532
5.41091
5.40619
5.40122
5.39606
5.39072
5.38523
5.37952
5.37354
5.36721
5.36066
5.35444
5.34932
5.348
5.34935
5.45451
5.45462
5.45441
5.45363
5.45223
5.45024
5.4477
5.44469
5.44126
5.4375
5.43346
5.42921
5.4248
5.42027
5.41561
5.4108
5.40575
5.40041
5.39491
5.3897
5.38557
5.38489
5.38648
5.47746
5.47773
5.47778
5.47731
5.4763
5.47475
5.47273
5.47027
5.46743
5.4643
5.46093
5.45738
5.45372
5.44997
5.44614
5.4422
5.43809
5.43375
5.4293
5.42521
5.42209
5.42208
5.4244
5.50041
5.50088
5.50118
5.50106
5.50044
5.49937
5.49786
5.49595
5.4937
5.49118
5.48845
5.48559
5.48264
5.47965
5.47662
5.47354
5.47034
5.467
5.46363
5.4606
5.45852
5.45927
5.46201
5.52324
5.5239
5.52448
5.52471
5.52452
5.52394
5.52296
5.52161
5.51993
5.518
5.51588
5.51367
5.5114
5.50912
5.50685
5.50457
5.50225
5.49986
5.49749
5.49552
5.49439
5.49572
5.49904
5.5458
5.54667
5.54752
5.54811
5.54838
5.54833
5.5479
5.54711
5.54599
5.54462
5.54308
5.54146
5.53981
5.53818
5.53659
5.53504
5.53351
5.53198
5.53055
5.52948
5.52925
5.53116
5.53473
5.56797
5.56903
5.57013
5.57111
5.57189
5.57242
5.57259
5.57236
5.57179
5.57094
5.56993
5.56883
5.56771
5.56662
5.56561
5.56468
5.56383
5.56304
5.56239
5.56217
5.56267
5.56502
5.56904
5.58967
5.59088
5.59221
5.5936
5.59498
5.59618
5.597
5.59736
5.5973
5.59693
5.59637
5.5957
5.59498
5.5943
5.59373
5.59329
5.59299
5.59281
5.59283
5.59323
5.59432
5.597
5.60099
5.61091
5.61225
5.61374
5.61562
5.61774
5.61972
5.62124
5.62219
5.62261
5.62266
5.62246
5.62208
5.6216
5.62117
5.62091
5.62084
5.62096
5.62126
5.62178
5.62271
5.6242
5.62695
5.63087
5.63182
5.63334
5.63503
5.63754
5.64058
5.64342
5.64563
5.64711
5.64797
5.64837
5.64846
5.64821
5.64775
5.64743
5.64738
5.64759
5.64805
5.64873
5.64966
5.65094
5.65277
5.65561
5.65923
5.65269
5.65465
5.65684
5.6603
5.66432
5.66787
5.67055
5.6724
5.67362
5.67441
5.67489
5.67466
5.674
5.67367
5.67387
5.6743
5.67503
5.67599
5.67718
5.67875
5.68084
5.68375
5.68779
5.6741
5.67696
5.68004
5.68541
5.69002
5.69358
5.6962
5.69812
5.69961
5.70091
5.70224
5.70131
5.70007
5.6997
5.70007
5.70061
5.70145
5.7025
5.70374
5.70527
5.7073
5.71008
5.71462
5.70582
5.70553
5.70761
5.71233
5.71537
5.71741
5.71885
5.71999
5.72101
5.72211
5.72386
5.72378
5.72185
5.72158
5.7218
5.72177
5.72207
5.72253
5.7231
5.72382
5.72474
5.72605
5.72862
1703.01
1382.77
1139.88
1139
1109.95
1115.73
1120.33
1118.35
1002.81
1029.58
1049.12
976.721
679.467
669.875
673.862
696.593
702.741
730.882
741.543
743.4
739.151
739.546
740.041
740.956
738.667
739.296
739.86
740.387
675.265
679.595
684.687
689.801
135.953
143.097
150.24
155.905
4.81111
4.7574
4.71808
4.69663
4.89874
4.86417
4.82052
4.7907
4.8835
4.84074
4.78991
4.75896
4.88012
4.83736
4.78457
4.75174
4.88776
4.84528
4.79189
4.7581
4.90016
4.85773
4.80395
4.77001
4.91571
4.87357
4.82003
4.78604
4.93395
4.89239
4.83909
4.80541
4.95429
4.91349
4.86117
4.82796
4.97705
4.9373
4.88583
4.85337
5.00195
4.96347
4.91355
4.88178
5.02866
4.99167
4.94312
4.91247
5.05684
5.02141
4.97509
4.9457
5.08729
5.05366
5.00919
4.98128
5.11983
5.08824
5.04632
5.01957
5.15374
5.1245
5.08485
5.05961
5.18918
5.16175
5.12487
5.10125
5.22592
5.20053
5.16566
5.1436
5.26358
5.24038
5.20839
5.1877
5.30172
5.28082
5.25124
5.2324
5.33976
5.32109
5.29484
5.27789
5.37858
5.36223
5.33865
5.32376
5.41813
5.40419
5.38379
5.3704
5.45771
5.44616
5.42819
5.41642
5.49609
5.4867
5.47174
5.46141
5.53331
5.52594
5.51318
5.50437
5.5688
5.56327
5.55303
5.54527
5.60186
5.59794
5.58944
5.5829
5.63201
5.62926
5.62291
5.61749
5.66072
5.65893
5.65392
5.64966
5.68993
5.68921
5.68572
5.68178
5.7197
5.72065
5.71799
5.71347
5.73277
5.73406
5.73312
5.73015
1184.09
1213.17
1203.74
1090.76
1071.29
1227.51
1196.58
1101.25
1115.33
1124.98
1131.41
1136.9
1144.05
1143.46
1138.63
1135.03
1132.71
1103.1
1028.11
1109.41
1119.19
1085.23
1019.57
1071.09
1002.46
990.792
1039.41
1097.64
1115.86
1129.45
1135.99
1144.49
1144.35
1134.26
1110.29
1076.71
1059.52
1060.26
809.78
793.323
853.962
908.631
817.042
752.374
854.386
849.759
841.074
852.642
874.384
912.272
963.27
960.475
926.144
879.625
858.405
867.52
891.466
706.644
708.672
728
749.713
740.709
696.163
677.733
690.412
745.58
750.568
752.066
753.636
755.583
758.398
762.951
768.649
773.624
801.599
832.973
746.609
747.177
747.338
747.531
749.1
740.11
732.007
742.823
749.111
750.37
751.933
753.798
756.21
759.288
763.248
767.848
771.815
774.206
775.406
742.677
744.627
745.682
746.411
747.687
748.916
749.271
749.198
749.303
750.255
751.822
753.947
756.681
760.005
763.905
768.139
771.92
774.584
777.133
741.332
742.747
743.965
745.032
746.135
747.182
747.826
748.218
748.762
749.796
751.451
753.942
757.182
760.896
764.904
769.602
774.124
777.398
779.83
695.222
707.462
716.276
722.176
725.854
727.08
726.013
721.596
713.293
703.34
696.429
703.95
716.434
727.467
740.511
781.701
820.866
822.553
799.403
158.235
175.177
189.628
197.878
200.051
195.469
180.888
160.911
143.531
134.133
131.776
136.742
161.642
204.441
255.233
314.134
380.87
501.081
557.31
4.68002
4.65733
4.65653
4.67895
4.70729
4.72716
4.74686
4.80679
4.93846
4.9969
6.63466
7.28534
7.25785
10.1503
21.8931
36.9503
54.6408
53.5666
51.1469
4.76636
4.76413
4.76743
4.91533
5.20236
5.32735
5.24323
4.9765
4.93574
4.94827
5.1421
5.88259
5.9285
6.02966
4.63444
4.61443
4.87886
4.70692
4.66102
4.74579
4.74898
4.75083
5.08454
5.66394
5.65115
5.52445
4.75295
4.67922
4.76112
5.432
5.56422
5.27629
4.78305
4.60324
4.58988
4.58178
4.58107
4.59384
4.73711
4.74149
4.73686
4.72587
4.84056
4.93185
4.68317
4.68277
4.67802
4.68179
4.734
4.84313
4.6655
4.652
4.62768
4.61821
4.61157
4.60816
4.61292
4.74211
4.74742
4.74317
4.72985
4.714
4.70163
4.69579
4.69315
4.68673
4.67749
4.67014
4.66563
4.65945
4.65617
4.65043
4.6452
4.64068
4.63614
4.63505
4.75424
4.76011
4.75671
4.74508
4.73147
4.71956
4.71059
4.70323
4.6958
4.6882
4.68062
4.67483
4.67183
4.6691
4.6669
4.66435
4.66203
4.66001
4.65852
4.77035
4.7766
4.77365
4.7631
4.75063
4.73882
4.72872
4.71978
4.71145
4.70365
4.69659
4.69114
4.68771
4.68538
4.68374
4.68257
4.68197
4.68151
4.68029
4.79008
4.79646
4.79386
4.78379
4.7719
4.76016
4.74943
4.73965
4.73068
4.72259
4.71563
4.71027
4.70668
4.70437
4.70317
4.70287
4.70326
4.70361
4.70248
4.81292
4.81954
4.81719
4.80746
4.79581
4.78399
4.77285
4.76256
4.75314
4.74476
4.73763
4.7321
4.72829
4.72602
4.72512
4.72538
4.72637
4.72715
4.72642
4.83891
4.84557
4.84346
4.83398
4.82251
4.81063
4.7992
4.78851
4.77874
4.77006
4.76267
4.75686
4.75278
4.7504
4.74961
4.7501
4.75141
4.75251
4.75218
4.8676
4.87437
4.87243
4.86318
4.85185
4.83997
4.82836
4.81741
4.80735
4.79838
4.79072
4.78461
4.78025
4.77767
4.77678
4.77732
4.77871
4.77991
4.77997
4.89909
4.90577
4.90399
4.89493
4.88373
4.87188
4.8602
4.84907
4.8388
4.8296
4.82169
4.81532
4.81068
4.80785
4.80678
4.80717
4.8085
4.80974
4.80991
4.93295
4.93965
4.93796
4.92909
4.91805
4.90627
4.89457
4.88337
4.87296
4.86359
4.85548
4.84888
4.84397
4.84088
4.83954
4.83975
4.84092
4.84216
4.84247
4.96943
4.97581
4.97419
4.9655
4.95462
4.94297
4.93133
4.92012
4.90965
4.90018
4.89191
4.88511
4.87996
4.87659
4.87499
4.8749
4.87589
4.87713
4.87761
5.00798
5.01402
5.01243
5.00394
4.99327
4.98178
4.97026
4.95911
4.94865
4.93912
4.93076
4.9238
4.91844
4.91481
4.91289
4.91254
4.91329
4.91446
4.91504
5.04872
5.05395
5.05245
5.04419
5.03376
5.02249
5.01114
5.00012
4.98972
4.9802
4.97179
4.96471
4.95916
4.95527
4.95307
4.95237
4.95288
4.95396
4.95455
5.09099
5.09529
5.09401
5.08602
5.07588
5.06487
5.05374
5.0429
5.03263
5.02317
5.01474
5.00758
5.00187
4.99774
4.99522
4.99423
4.99445
4.99535
4.99593
5.13426
5.1386
5.13704
5.12922
5.1194
5.10867
5.09782
5.08721
5.0771
5.06774
5.05935
5.05214
5.04628
5.04193
5.03912
5.03775
5.03768
5.0384
5.03883
5.17868
5.1831
5.1813
5.17368
5.16412
5.15371
5.14315
5.13279
5.12289
5.11368
5.10536
5.09812
5.09215
5.08757
5.08444
5.08276
5.08232
5.08278
5.08309
5.22441
5.22845
5.22656
5.21916
5.20989
5.19982
5.18956
5.17948
5.16981
5.16077
5.15254
5.14531
5.13923
5.13445
5.13102
5.12891
5.12812
5.12829
5.12839
5.27068
5.27447
5.27249
5.26533
5.25639
5.24668
5.23677
5.227
5.21761
5.20878
5.20067
5.19347
5.1873
5.1823
5.17853
5.17605
5.1748
5.17455
5.17445
5.31765
5.32082
5.31872
5.31179
5.3032
5.29388
5.28436
5.27496
5.26588
5.2573
5.24936
5.24221
5.23598
5.23078
5.22669
5.22372
5.222
5.22128
5.22097
5.36449
5.36708
5.36477
5.35807
5.34986
5.34095
5.33186
5.32288
5.31417
5.30588
5.29815
5.29109
5.28483
5.27945
5.27502
5.27166
5.26939
5.26816
5.26764
5.41102
5.41268
5.41014
5.40366
5.39583
5.38739
5.37878
5.37026
5.36197
5.35404
5.34656
5.33965
5.33339
5.32787
5.32317
5.31935
5.31658
5.31485
5.31412
5.45611
5.45703
5.45424
5.448
5.44059
5.43265
5.42457
5.41657
5.40877
5.40126
5.3941
5.38738
5.38118
5.37557
5.37062
5.36648
5.36322
5.36107
5.36011
5.49952
5.49952
5.4965
5.49053
5.48359
5.47621
5.46873
5.46133
5.45409
5.44706
5.44029
5.43383
5.42774
5.42212
5.41704
5.41258
5.40898
5.40651
5.40535
5.54028
5.53962
5.53643
5.5308
5.52439
5.51764
5.51086
5.50415
5.49755
5.49108
5.48476
5.47863
5.47274
5.46717
5.46202
5.45747
5.45363
5.45088
5.44965
5.57832
5.57696
5.57371
5.5685
5.56271
5.5567
5.55071
5.5448
5.53895
5.53313
5.52735
5.52161
5.51598
5.51055
5.50546
5.50085
5.49698
5.49414
5.49286
5.61324
5.61156
5.60834
5.60362
5.59855
5.59342
5.58835
5.58336
5.57837
5.57331
5.56816
5.56292
5.55763
5.5524
5.54733
5.54283
5.53909
5.53617
5.53496
5.64603
5.64381
5.64066
5.63645
5.63224
5.62809
5.62411
5.62017
5.61615
5.61198
5.60759
5.60298
5.59817
5.59319
5.58813
5.58362
5.58009
5.57709
5.57588
5.67725
5.67408
5.67088
5.66713
5.66396
5.66136
5.6587
5.65598
5.6531
5.64999
5.6466
5.64289
5.6388
5.63421
5.62905
5.62354
5.62103
5.61625
5.61529
5.70578
5.70084
5.69772
5.69435
5.69214
5.6923
5.6918
5.6905
5.68892
5.68709
5.685
5.68254
5.67962
5.67595
5.66999
5.66339
5.66128
5.65446
5.65345
5.72424
5.72105
5.71936
5.71738
5.71641
5.71717
5.71774
5.7176
5.71722
5.71671
5.71607
5.71526
5.71414
5.71258
5.70929
5.70625
5.70533
5.69937
5.70145
)
;

boundaryField
{
    leftWall
    {
        type            fixedFluxPressure;
        gradient        uniform 0;
        value           nonuniform List<scalar> 
50
(
5163.14
5161.3
5157.55
5151.67
5085.91
2662.1
1224.31
1223.03
1220.1
1211.61
1134.76
1007.98
700
752.363
753.405
695.323
164.622
5.21971
5.19261
5.17988
5.17541
5.17672
5.18182
5.18902
5.19811
5.20888
5.22132
5.23534
5.25085
5.26755
5.28538
5.30416
5.32381
5.34422
5.36532
5.387
5.40916
5.43171
5.45451
5.47746
5.50041
5.52324
5.5458
5.56797
5.58967
5.61091
5.63182
5.65269
5.6741
5.70582
)
;
    }
    rightWall
    {
        type            fixedFluxPressure;
        gradient        uniform 0;
        value           nonuniform List<scalar> 
50
(
2731.94
2732.02
2420.27
1779.51
946.289
982.067
1015.49
1016.69
1028.11
1060.26
891.466
832.973
775.406
777.133
779.83
799.403
557.31
51.1469
4.66102
4.59384
4.61292
4.63505
4.65852
4.68029
4.70248
4.72642
4.75218
4.77997
4.80991
4.84247
4.87761
4.91504
4.95455
4.99593
5.03883
5.08309
5.12839
5.17445
5.22097
5.26764
5.31412
5.36011
5.40535
5.44965
5.49286
5.53496
5.57588
5.61529
5.65345
5.70145
)
;
    }
    lowerWall
    {
        type            fixedFluxPressure;
        gradient        uniform 0;
        value           nonuniform List<scalar> 
62
(
5163.14
5174.02
5196.95
5231.64
5275.54
5327.46
5386.72
5453.01
5526.4
5607.41
5696.44
5793.58
5898.24
6009.34
6125.9
6245.78
6366.57
6484.79
6596.67
6695.3
6775.78
6831.66
6860.7
6860.7
6861.62
6870.16
6887.41
6913.97
6948.47
6989.19
6503.37
1703.01
1382.77
1139.88
1139
2661.69
2440.98
1946.06
1604.48
1506.44
1407.97
1210.97
1229.07
2661.69
2693.74
2759.23
2837.95
2918.8
2938.51
2857.82
2858.41
2859.04
2839.17
2784.94
2723.49
2726.97
2765.48
2753.55
2749.27
2739.11
2731.14
2731.94
)
;
    }
    atmosphere
    {
        type            prghTotalPressure;
        rho             rho;
        psi             none;
        gamma           1;
        p0              uniform 0;
        value           nonuniform List<scalar> 
46
(
5.72903
5.72904
5.72904
5.72904
5.72904
5.72904
5.72904
5.72904
5.72904
5.72904
5.72904
5.72904
5.72904
5.72904
5.72904
5.72904
5.72904
5.72904
5.72904
5.72904
5.72904
5.72904
5.72904
5.72904
5.72904
5.72904
5.72904
5.72904
5.72904
5.72904
5.72904
5.72904
5.72904
5.72904
5.72904
5.72904
5.72904
5.72904
5.72904
5.72904
5.72904
5.72903
5.72904
5.72863
5.72863
5.72754
)
;
        rho             rho;
    }
    defaultFaces
    {
        type            empty;
    }
}


// ************************************************************************* //
