/*--------------------------------*- C++ -*----------------------------------*\
  =========                 |
  \\      /  F ield         | OpenFOAM: The Open Source CFD Toolbox
   \\    /   O peration     | Website:  https://openfoam.org
    \\  /    A nd           | Version:  13
     \\/     M anipulation  |
\*---------------------------------------------------------------------------*/
FoamFile
{
    format      ascii;
    class       surfaceScalarField;
    location    "2.6";
    object      phi;
}
// * * * * * * * * * * * * * * * * * * * * * * * * * * * * * * * * * * * * * //

dimensions      [0 3 -1 0 0 0 0];

internalField   nonuniform List<scalar> 
4432
(
-8.39924e-07
8.39916e-07
-8.93203e-07
5.32717e-08
-5.88942e-07
-3.04265e-07
-2.26712e-07
-3.6223e-07
9.68062e-08
-3.23518e-07
3.55317e-07
-2.5851e-07
5.51481e-07
-1.96163e-07
6.89782e-07
-1.38301e-07
7.75932e-07
-8.61486e-08
8.21549e-07
-4.56161e-08
8.36017e-07
-1.44685e-08
8.26072e-07
9.94551e-09
7.93441e-07
3.26298e-08
7.28618e-07
6.48217e-08
6.00857e-07
1.27759e-07
3.77329e-07
2.23526e-07
2.82512e-08
3.49075e-07
-4.70384e-07
4.98632e-07
-1.14062e-06
6.70238e-07
-1.92566e-06
7.85039e-07
-2.5664e-06
6.4074e-07
-2.38261e-06
-1.83796e-07
-2.38261e-06
-3.04227e-07
1.14413e-06
-1.80365e-07
-7.06022e-08
3.33447e-08
-5.17984e-07
2.55436e-07
-5.84329e-07
4.52382e-07
-5.2047e-07
6.11053e-07
-4.17184e-07
7.26014e-07
-3.11128e-07
7.93065e-07
-2.05352e-07
8.10989e-07
-1.04074e-07
7.87344e-07
-2.19707e-08
7.31071e-07
4.18059e-08
6.50258e-07
9.07593e-08
5.52689e-07
1.302e-07
4.39903e-07
1.77609e-07
2.94673e-07
2.72991e-07
9.86324e-08
4.19567e-07
-1.59004e-07
6.06712e-07
-4.8534e-07
8.24968e-07
-8.78915e-07
1.06381e-06
-1.29884e-06
1.20497e-06
-1.59415e-06
9.36048e-07
-1.45095e-06
-3.26991e-07
-3.83355e-06
1.28227e-07
1.01589e-06
3.0121e-07
-2.43592e-07
4.31655e-07
-6.48435e-07
5.61805e-07
-7.14484e-07
6.84553e-07
-6.43222e-07
7.86212e-07
-5.18846e-07
8.55122e-07
-3.8004e-07
8.81925e-07
-2.32157e-07
8.60692e-07
-8.28413e-08
7.96309e-07
4.24127e-08
6.96028e-07
1.42087e-07
5.6969e-07
2.17098e-07
4.26904e-07
2.72986e-07
2.75254e-07
3.2926e-07
1.06454e-07
4.41791e-07
-8.39721e-08
6.09994e-07
-2.92457e-07
8.15197e-07
-5.10575e-07
1.04309e-06
-7.29791e-07
1.28303e-06
-9.18045e-07
1.39322e-06
-1.00218e-06
1.02018e-06
-8.56066e-07
-4.73102e-07
-4.68962e-06
5.07224e-07
5.08656e-07
6.58553e-07
-3.94929e-07
7.22951e-07
-7.12837e-07
7.94236e-07
-7.85773e-07
8.72515e-07
-7.21503e-07
9.40096e-07
-5.86429e-07
9.80369e-07
-4.20315e-07
9.80014e-07
-2.31804e-07
9.31634e-07
-3.44626e-08
8.38867e-07
1.35179e-07
7.07237e-07
2.73718e-07
5.4544e-07
3.78897e-07
3.6577e-07
4.52658e-07
1.80476e-07
5.14559e-07
-1.12862e-08
6.33558e-07
-2.03383e-07
8.02097e-07
-3.79932e-07
9.91754e-07
-5.20743e-07
1.18391e-06
-6.16401e-07
1.37869e-06
-6.49977e-07
1.4268e-06
-6.04189e-07
9.74396e-07
-4.3223e-07
-6.45058e-07
-5.12184e-06
7.63528e-07
-2.54868e-07
9.04408e-07
-5.35798e-07
9.3698e-07
-7.45391e-07
9.79383e-07
-8.28156e-07
1.03566e-06
-7.77759e-07
1.08387e-06
-6.34626e-07
1.1059e-06
-4.4233e-07
1.08792e-06
-2.13826e-07
1.02153e-06
3.19334e-08
9.10979e-07
2.45729e-07
7.57911e-07
4.26784e-07
5.70114e-07
5.66692e-07
3.60641e-07
6.62129e-07
1.4728e-07
7.27918e-07
-6.58772e-08
8.46716e-07
-2.61372e-07
9.97594e-07
-4.14143e-07
1.14453e-06
-4.95989e-07
1.26576e-06
-4.9713e-07
1.37984e-06
-4.17556e-07
1.34723e-06
-2.91676e-07
8.48519e-07
-1.02125e-07
-8.34608e-07
-5.22397e-06
8.82336e-07
-1.13723e-06
1.04625e-06
-6.99709e-07
1.11157e-06
-8.10699e-07
1.1667e-06
-8.83262e-07
1.22729e-06
-8.38333e-07
1.27434e-06
-6.81669e-07
1.27961e-06
-4.47584e-07
1.22703e-06
-1.61242e-07
1.14312e-06
1.15848e-07
1.01948e-06
3.69365e-07
8.52353e-07
5.9391e-07
6.47019e-07
7.7202e-07
4.13657e-07
8.95483e-07
1.72406e-07
9.69161e-07
-5.26774e-08
1.07179e-06
-2.44607e-07
1.18952e-06
-3.73874e-07
1.27379e-06
-4.06333e-07
1.29822e-06
-3.35947e-07
1.30946e-06
-1.71306e-07
1.1826e-06
3.2695e-08
6.44521e-07
1.45743e-07
-9.47656e-07
-5.07823e-06
8.88013e-07
-2.02526e-06
1.24308e-06
-1.05479e-06
1.45661e-06
-1.02422e-06
1.57009e-06
-9.96727e-07
1.63266e-06
-9.00886e-07
1.64684e-06
-6.95832e-07
1.58542e-06
-3.86146e-07
1.4533e-06
-2.91152e-08
1.33436e-06
2.34785e-07
1.18775e-06
5.1598e-07
1.00589e-06
7.75765e-07
7.93242e-07
9.84666e-07
5.56425e-07
1.13229e-06
3.01548e-07
1.22403e-06
6.24804e-08
1.31085e-06
-1.24302e-07
1.37629e-06
-2.27238e-07
1.37672e-06
-2.32671e-07
1.30363e-06
-9.46042e-08
1.17137e-06
1.65579e-07
9.22398e-07
4.53455e-07
3.5664e-07
5.41626e-07
-1.03582e-06
-4.53659e-06
9.62112e-07
-2.98741e-06
1.67439e-06
-1.76709e-06
2.16523e-06
-1.51508e-06
2.50172e-06
-1.33323e-06
2.72326e-06
-1.12243e-06
2.84069e-06
-8.13264e-07
2.84129e-06
-3.86748e-07
2.72603e-06
8.61477e-08
2.49628e-06
4.64541e-07
2.21262e-06
7.99639e-07
1.89282e-06
1.09557e-06
1.54384e-06
1.33364e-06
1.16838e-06
1.50776e-06
7.66807e-07
1.6256e-06
4.02492e-07
1.67516e-06
1.84775e-07
1.59399e-06
1.14749e-07
1.44672e-06
1.50517e-07
1.26784e-06
3.57536e-07
9.64329e-07
7.10029e-07
5.69886e-07
1.13196e-06
-6.5299e-08
1.35766e-06
-1.26151e-06
-3.17891e-06
-3.23793e-06
3.23794e-06
-6.69506e-06
3.45712e-06
-9.22879e-06
2.53373e-06
-1.05289e-05
1.3001e-06
-1.00849e-05
-4.4395e-07
-8.37488e-06
-1.71006e-06
-8.25043e-06
-1.24461e-07
-7.44007e-06
-8.10366e-07
-5.59613e-06
-1.84394e-06
-3.72714e-06
-1.869e-06
-2.47028e-06
-1.25687e-06
-2.97339e-06
5.03109e-07
-3.20641e-06
2.33015e-07
-2.03516e-06
-1.17126e-06
-1.63019e-06
-4.04971e-07
-9.92633e-07
-6.37563e-07
-3.75008e-07
-6.17629e-07
2.09424e-07
-5.84436e-07
2.0942e-07
-3.48717e-06
6.72512e-06
-6.43018e-06
6.40012e-06
-8.24986e-06
4.35339e-06
-8.68316e-06
1.7334e-06
-8.88801e-06
-2.39103e-07
-8.49328e-06
-2.1048e-06
-7.32392e-06
-1.29382e-06
-6.0186e-06
-2.11569e-06
-4.90496e-06
-2.95758e-06
-4.10365e-06
-2.67031e-06
-3.4755e-06
-1.88502e-06
-2.5431e-06
-4.29299e-07
-1.77978e-06
-5.30314e-07
-1.70878e-06
-1.24225e-06
-1.67094e-06
-4.42825e-07
-1.40085e-06
-9.07651e-07
-1.14833e-06
-8.70155e-07
-8.53386e-07
-8.79379e-07
-6.43971e-07
-3.4272e-06
1.01523e-05
-5.29438e-06
8.26729e-06
-6.43073e-06
5.48973e-06
-6.42486e-06
1.72751e-06
-6.87835e-06
2.14373e-07
-7.12025e-06
-1.86289e-06
-6.13722e-06
-2.27683e-06
-4.94175e-06
-3.31113e-06
-4.10636e-06
-3.79295e-06
-3.93971e-06
-2.83693e-06
-3.52411e-06
-2.3006e-06
-2.34128e-06
-1.61212e-06
-1.61357e-06
-1.25802e-06
-1.61395e-06
-1.24185e-06
-1.57952e-06
-4.77243e-07
-1.64502e-06
-8.42147e-07
-1.63539e-06
-8.79771e-07
-1.47444e-06
-1.04032e-06
-2.1184e-06
-2.51475e-06
1.26671e-05
-3.33219e-06
9.08473e-06
-3.79277e-06
5.95031e-06
-3.87027e-06
1.80501e-06
-3.94172e-06
2.8582e-07
-5.19829e-06
-6.06322e-07
-4.60794e-06
-2.86717e-06
-3.59269e-06
-4.32635e-06
-2.66056e-06
-4.72506e-06
-2.93313e-06
-2.56435e-06
-2.91337e-06
-2.32034e-06
-1.98957e-06
-2.5359e-06
-1.61317e-06
-1.6344e-06
-1.87633e-06
-9.78673e-07
-1.72886e-06
-6.2471e-07
-1.53719e-06
-1.03383e-06
-8.88672e-07
-1.52829e-06
2.80889e-07
-2.20988e-06
-1.83752e-06
-8.47897e-07
1.3515e-05
-1.4277e-06
9.66456e-06
-1.4012e-06
5.92384e-06
-1.94055e-06
2.34438e-06
-1.43356e-06
-2.21169e-07
-2.17499e-06
1.35114e-07
-2.26936e-06
-2.77279e-06
-1.4022e-06
-5.1935e-06
-3.78382e-07
-5.74886e-06
-5.97052e-07
-2.34565e-06
-1.17886e-06
-1.73852e-06
-1.09881e-06
-2.61594e-06
-2.18807e-06
-5.45132e-07
-3.39773e-06
2.30997e-07
-2.49657e-06
-1.52587e-06
-3.23898e-07
-3.20651e-06
2.48989e-06
-4.34208e-06
6.72653e-06
-6.4465e-06
4.88904e-06
9.98697e-07
1.25163e-05
1.22655e-06
9.43674e-06
7.96476e-07
6.35393e-06
-5.02632e-07
3.6435e-06
-6.11236e-07
-1.12546e-07
-1.25916e-07
-3.50212e-07
1.29198e-07
-3.02793e-06
5.74059e-07
-5.63838e-06
7.07733e-07
-5.88255e-06
4.92008e-07
-2.12996e-06
7.68328e-07
-2.01487e-06
6.55312e-07
-2.50293e-06
-3.27943e-06
3.38959e-06
-4.19265e-06
1.14418e-06
-1.76651e-06
-3.95204e-06
7.48199e-07
-5.72124e-06
3.88326e-06
-7.47717e-06
7.00177e-06
-9.56505e-06
1.18908e-05
3.83355e-06
8.68276e-06
4.74377e-06
8.5265e-06
3.35057e-06
7.74715e-06
1.38432e-06
5.60975e-06
3.31944e-07
9.39836e-07
9.7297e-07
-9.9124e-07
1.36321e-06
-3.41819e-06
1.44699e-06
-5.72219e-06
6.53371e-07
-5.08895e-06
4.96724e-07
-1.97335e-06
4.42113e-07
-1.9603e-06
3.26307e-07
-2.38717e-06
-1.70758e-06
5.42344e-06
-1.82738e-06
1.26392e-06
-5.23272e-07
-5.25618e-06
1.27554e-06
-7.52008e-06
3.35416e-06
-9.55582e-06
4.48188e-06
-1.06928e-05
1.63726e-05
6.69061e-06
1.99214e-06
7.52537e-06
7.69175e-06
6.31115e-06
8.96137e-06
3.82121e-06
8.09969e-06
1.83125e-06
2.92981e-06
1.98362e-06
-1.1436e-06
2.08324e-06
-3.51783e-06
1.45685e-06
-5.09581e-06
4.48631e-07
-4.08074e-06
2.89615e-07
-1.81435e-06
1.23865e-07
-1.79458e-06
-5.98968e-07
-1.66437e-06
-9.11459e-08
4.91558e-06
2.09509e-07
9.63242e-07
6.16756e-07
-5.66345e-06
1.47206e-06
-8.37539e-06
2.27154e-06
-1.03553e-05
2.33836e-06
-1.07596e-05
1.87109e-05
2.08923e-06
-5.07666e-06
4.22998e-06
-3.9079e-06
5.90514e-06
-3.1903e-06
7.11765e-06
-2.5458e-06
7.97288e-06
-1.97771e-06
8.52375e-06
-1.36418e-06
8.78393e-06
-6.46964e-07
8.81262e-06
5.74375e-08
8.64301e-06
6.34144e-07
8.35613e-06
1.08653e-06
8.00127e-06
1.45044e-06
7.578e-06
1.75692e-06
7.05268e-06
2.0331e-06
6.40516e-06
2.27313e-06
5.64901e-06
2.43131e-06
4.8344e-06
2.4086e-06
4.11391e-06
2.1672e-06
3.65226e-06
1.72947e-06
3.58376e-06
1.03281e-06
4.26642e-06
-1.12801e-07
5.95095e-06
-1.74983e-06
8.91728e-06
-4.22781e-06
-9.26761e-06
1.5006e-05
1.57794e-06
-6.65463e-06
3.89579e-06
-6.22575e-06
5.81679e-06
-5.11132e-06
7.22941e-06
-3.95843e-06
8.30048e-06
-3.0488e-06
9.07107e-06
-2.13478e-06
9.5164e-06
-1.0923e-06
9.68496e-06
-1.11138e-07
9.66297e-06
6.56131e-07
9.53592e-06
1.21357e-06
9.36357e-06
1.6228e-06
9.17945e-06
1.94105e-06
9.00757e-06
2.20499e-06
8.91992e-06
2.36079e-06
9.00194e-06
2.34932e-06
9.29358e-06
2.117e-06
9.82942e-06
1.63139e-06
1.07001e-05
8.58845e-07
1.19955e-05
-2.62574e-07
1.36911e-05
-1.80839e-06
1.56643e-05
-3.72301e-06
1.77814e-05
-6.34495e-06
-9.37916e-06
1.7893e-05
1.95437e-06
-8.60899e-06
3.68548e-06
-7.95686e-06
5.14885e-06
-6.57468e-06
6.34269e-06
-5.15227e-06
7.34317e-06
-4.04928e-06
8.14966e-06
-2.94128e-06
8.60944e-06
-1.55209e-06
8.80871e-06
-3.10408e-07
8.82734e-06
6.37499e-07
8.74809e-06
1.29282e-06
8.64715e-06
1.72372e-06
8.59053e-06
1.99767e-06
8.61976e-06
2.17576e-06
8.82187e-06
2.15868e-06
9.24528e-06
1.92591e-06
9.88977e-06
1.47252e-06
1.08184e-05
7.02801e-07
1.20429e-05
-3.65658e-07
1.35377e-05
-1.75732e-06
1.51948e-05
-3.46549e-06
1.67252e-05
-5.25337e-06
1.7409e-05
-7.02876e-06
-8.20787e-06
1.62377e-05
2.00932e-06
-1.06183e-05
3.29291e-06
-9.24043e-06
4.32194e-06
-7.60369e-06
5.24199e-06
-6.07229e-06
6.01073e-06
-4.81801e-06
6.40893e-06
-3.33947e-06
6.77384e-06
-1.917e-06
6.95659e-06
-4.93154e-07
6.95654e-06
6.37536e-07
6.87638e-06
1.37297e-06
6.74042e-06
1.85967e-06
6.73778e-06
2.00029e-06
6.92449e-06
1.98904e-06
7.28862e-06
1.79454e-06
7.76785e-06
1.44667e-06
8.35015e-06
8.9021e-07
9.19228e-06
-1.39332e-07
1.03294e-05
-1.50273e-06
1.14719e-05
-2.8998e-06
1.24718e-05
-4.46539e-06
1.31352e-05
-5.91676e-06
1.27844e-05
-6.67799e-06
-6.3215e-06
1.0898e-05
6.64609e-07
-1.1283e-05
2.00538e-06
-1.05812e-05
3.01933e-06
-8.61765e-06
3.8336e-06
-6.88657e-06
4.16557e-06
-5.14998e-06
4.00156e-06
-3.17546e-06
4.06588e-06
-1.98132e-06
4.17442e-06
-6.017e-07
4.15779e-06
6.54162e-07
4.04412e-06
1.48663e-06
3.94418e-06
1.95961e-06
3.97003e-06
1.97443e-06
4.1885e-06
1.77057e-06
4.53298e-06
1.45004e-06
4.93496e-06
1.04469e-06
5.42004e-06
4.05122e-07
6.02967e-06
-7.48969e-07
6.71581e-06
-2.18887e-06
7.31462e-06
-3.49861e-06
7.60551e-06
-4.75629e-06
7.43959e-06
-5.75084e-06
6.73052e-06
-5.96894e-06
-5.39557e-06
5.80456e-06
-4.63074e-08
-1.12367e-05
4.58307e-07
-1.10859e-05
1.10309e-06
-9.26249e-06
1.5261e-06
-7.30961e-06
1.49595e-06
-5.11986e-06
1.38296e-06
-3.06248e-06
1.17991e-06
-1.77828e-06
1.05053e-06
-4.72326e-07
9.35115e-07
7.69578e-07
8.0832e-07
1.61342e-06
7.98842e-07
1.96909e-06
8.18325e-07
1.95495e-06
9.0818e-07
1.68072e-06
1.10988e-06
1.24834e-06
1.4717e-06
6.82871e-07
2.00757e-06
-1.30753e-07
2.53735e-06
-1.27876e-06
2.92625e-06
-2.57777e-06
3.24304e-06
-3.81542e-06
3.36945e-06
-4.88272e-06
3.19836e-06
-5.57977e-06
2.93133e-06
-5.70193e-06
-5.34105e-06
2.87676e-06
-1.01001e-06
-1.02267e-05
-9.64223e-07
-1.11317e-05
-5.39406e-07
-9.68729e-06
-3.74783e-07
-7.47424e-06
-3.47862e-07
-5.14679e-06
-3.64831e-07
-3.04552e-06
-6.06057e-07
-1.53706e-06
-8.67803e-07
-2.10583e-07
-1.05967e-06
9.61443e-07
-1.18377e-06
1.73752e-06
-1.26597e-06
2.05129e-06
-1.29902e-06
1.988e-06
-1.26891e-06
1.6506e-06
-1.12602e-06
1.10545e-06
-8.29829e-07
3.86677e-07
-4.24623e-07
-5.35957e-07
-3.27466e-08
-1.67063e-06
2.71087e-07
-2.8816e-06
5.28958e-07
-4.07327e-06
7.02048e-07
-5.05579e-06
8.01747e-07
-5.67945e-06
9.61844e-07
-5.86201e-06
-5.68866e-06
1.30948e-06
-2.57495e-06
-7.65149e-06
-2.29901e-06
-1.14069e-05
-1.54662e-06
-1.04391e-05
-1.33521e-06
-7.6853e-06
-1.39259e-06
-5.08924e-06
-1.45348e-06
-2.98454e-06
-1.58308e-06
-1.40744e-06
-1.82257e-06
2.88865e-08
-2.0675e-06
1.20631e-06
-2.22919e-06
1.89912e-06
-2.31215e-06
2.13416e-06
-2.35825e-06
2.03401e-06
-2.35027e-06
1.64255e-06
-2.23794e-06
9.93079e-07
-2.00348e-06
1.52212e-07
-1.69346e-06
-8.45937e-07
-1.38723e-06
-1.97677e-06
-1.08926e-06
-3.17942e-06
-8.14614e-07
-4.34772e-06
-5.53568e-07
-5.3166e-06
-2.64331e-07
-5.96842e-06
1.55453e-07
-6.28151e-06
-6.34298e-06
8.10038e-07
-4.41691e-06
-3.23397e-06
-3.74003e-06
-1.20827e-05
-2.42263e-06
-1.17559e-05
-2.14948e-06
-7.9581e-06
-2.24462e-06
-4.99393e-06
-2.07422e-06
-3.15488e-06
-1.9755e-06
-1.50615e-06
-2.16272e-06
2.16075e-07
-2.35168e-06
1.3952e-06
-2.40157e-06
1.94892e-06
-2.34352e-06
2.07601e-06
-2.27182e-06
1.96222e-06
-2.17468e-06
1.54532e-06
-1.98982e-06
8.08163e-07
-1.7084e-06
-1.29233e-07
-1.37799e-06
-1.17631e-06
-1.08991e-06
-2.26475e-06
-8.58097e-07
-3.41104e-06
-6.88631e-07
-4.51691e-06
-5.71598e-07
-5.43328e-06
-4.3368e-07
-6.10596e-06
-1.92167e-07
-6.52264e-06
-6.6579e-06
1.23196e-07
4.50102e-06
-7.73626e-06
-1.59708e-06
-5.98387e-06
-4.30472e-06
-9.04727e-06
-4.11993e-06
-8.14252e-06
-3.54652e-06
-5.56727e-06
-3.27779e-06
-3.42363e-06
-3.18923e-06
-1.59475e-06
-3.04886e-06
7.55837e-08
-2.82457e-06
1.17072e-06
-2.58489e-06
1.70903e-06
-2.36411e-06
1.85503e-06
-2.11964e-06
1.71754e-06
-1.83699e-06
1.2625e-06
-1.52716e-06
4.98186e-07
-1.18091e-06
-4.75574e-07
-8.21295e-07
-1.53595e-06
-4.97899e-07
-2.58808e-06
-2.91993e-07
-3.61679e-06
-2.36395e-07
-4.57223e-06
-2.78927e-07
-5.39043e-06
-2.98627e-07
-6.08597e-06
-7.19067e-08
-6.74878e-06
-7.12563e-06
3.96244e-07
6.46647e-06
-1.42044e-05
4.37313e-06
-3.8922e-06
-7.42117e-07
-3.93291e-06
-5.33913e-06
-3.54605e-06
-8.49372e-06
-2.41307e-06
-1.02564e-05
-1.66125e-06
-1.09329e-05
-9.18451e-07
-1.07261e-05
-1.31377e-07
-1.00794e-05
5.23839e-07
-9.40997e-06
1.0395e-06
-8.84457e-06
1.28948e-06
-8.31023e-06
1.18305e-06
-7.76003e-06
7.12097e-07
-7.18984e-06
-7.22335e-08
-6.6103e-06
-1.05539e-06
-6.05185e-06
-2.09472e-06
-5.5353e-06
-3.105e-06
-5.09298e-06
-4.05951e-06
-4.72625e-06
-4.93944e-06
-4.38633e-06
-5.73106e-06
-3.99691e-06
-6.47613e-06
-3.49806e-06
-7.2485e-06
-7.42976e-06
-3.19398e-06
-1.25025e-06
-1.29554e-05
-2.51849e-06
-2.62591e-06
-6.18487e-06
-2.681e-07
-1.00949e-05
3.62943e-07
-1.30123e-05
5.0361e-07
-1.48144e-05
1.40377e-07
-1.5656e-05
-7.71234e-08
-1.53963e-05
-3.91172e-07
-1.45331e-05
-3.39434e-07
-1.36101e-05
1.16523e-07
-1.28195e-05
4.98878e-07
-1.21271e-05
4.90653e-07
-1.14652e-05
5.01837e-08
-1.08204e-05
-7.17143e-07
-1.02131e-05
-1.66296e-06
-9.6486e-06
-2.65959e-06
-9.12565e-06
-3.62842e-06
-8.64619e-06
-4.53957e-06
-8.20623e-06
-5.38016e-06
-7.78843e-06
-6.14996e-06
-7.38737e-06
-6.87841e-06
-7.06517e-06
-7.57165e-06
-7.71281e-06
-6.7829e-06
-5.66496e-06
-7.2906e-06
-7.77243e-06
-5.1876e-07
-1.00218e-05
1.98084e-06
-1.23535e-05
2.69439e-06
-1.43686e-05
2.51841e-06
-1.60363e-05
1.80783e-06
-1.69762e-05
8.62602e-07
-1.69881e-05
-3.79346e-07
-1.64217e-05
-9.0591e-07
-1.55462e-05
-7.59061e-07
-1.47612e-05
-2.86218e-07
-1.41011e-05
-1.69544e-07
-1.34624e-05
-5.88744e-07
-1.28561e-05
-1.32351e-06
-1.2298e-05
-2.22125e-06
-1.17947e-05
-3.16311e-06
-1.13327e-05
-4.09066e-06
-1.09041e-05
-4.96845e-06
-1.05061e-05
-5.77842e-06
-1.01392e-05
-6.51742e-06
-9.82749e-06
-7.19063e-06
-9.61221e-06
-7.78769e-06
-7.98234e-06
-9.34268e-06
-6.4459e-06
-8.44794e-07
-9.55996e-06
2.59521e-06
-1.13655e-05
3.78626e-06
-1.28103e-05
4.13911e-06
-1.41913e-05
3.89924e-06
-1.54453e-05
3.06173e-06
-1.6267e-05
1.68418e-06
-1.65732e-05
-7.32761e-08
-1.63956e-05
-1.08365e-06
-1.57948e-05
-1.3599e-06
-1.51177e-05
-9.6344e-07
-1.45051e-05
-7.82326e-07
-1.39035e-05
-1.19044e-06
-1.3341e-05
-1.88618e-06
-1.2845e-05
-2.71733e-06
-1.24218e-05
-3.58648e-06
-1.20564e-05
-4.45613e-06
-1.17403e-05
-5.28467e-06
-1.14692e-05
-6.04971e-06
-1.12471e-05
-6.73988e-06
-1.10815e-05
-7.35671e-06
-1.09799e-05
-7.88944e-06
-8.09976e-06
-1.08625e-05
-5.41688e-06
4.57224e-06
-8.58969e-06
5.76807e-06
-1.05294e-05
5.726e-06
-1.18245e-05
5.4341e-06
-1.28476e-05
4.92227e-06
-1.36531e-05
3.86719e-06
-1.43e-05
2.33099e-06
-1.48457e-05
4.72332e-07
-1.50246e-05
-9.04856e-07
-1.48546e-05
-1.53003e-06
-1.44529e-05
-1.3652e-06
-1.39171e-05
-1.31822e-06
-1.33861e-05
-1.72153e-06
-1.29073e-05
-2.36513e-06
-1.25083e-05
-3.11643e-06
-1.2192e-05
-3.90286e-06
-1.19464e-05
-4.70187e-06
-1.1763e-05
-5.46817e-06
-1.16353e-05
-6.17753e-06
-1.15576e-05
-6.81788e-06
-1.15288e-05
-7.3857e-06
-1.1541e-05
-7.87775e-06
-8.08279e-06
-1.15577e-05
-4.16666e-06
8.73902e-06
-6.80514e-06
8.40663e-06
-8.6419e-06
7.56278e-06
-9.88561e-06
6.67781e-06
-1.06976e-05
5.7342e-06
-1.12727e-05
4.44227e-06
-1.17631e-05
2.82132e-06
-1.23412e-05
1.05036e-06
-1.2808e-05
-4.38088e-07
-1.3045e-05
-1.2931e-06
-1.29269e-05
-1.48342e-06
-1.2565e-05
-1.68015e-06
-1.21764e-05
-2.11026e-06
-1.18347e-05
-2.70689e-06
-1.157e-05
-3.38122e-06
-1.13789e-05
-4.0941e-06
-1.12617e-05
-4.81914e-06
-1.12104e-05
-5.51952e-06
-1.12163e-05
-6.17169e-06
-1.12736e-05
-6.76093e-06
-1.1371e-05
-7.28861e-06
-1.14969e-05
-7.75196e-06
-7.90947e-06
-1.16701e-05
-2.90684e-06
1.16461e-05
-4.91201e-06
1.04119e-05
-6.39479e-06
9.04562e-06
-7.45637e-06
7.73941e-06
-8.14643e-06
6.42426e-06
-8.64471e-06
4.94052e-06
-9.10392e-06
3.2805e-06
-9.64323e-06
1.58964e-06
-1.02162e-05
1.34814e-07
-1.0666e-05
-8.43323e-07
-1.07727e-05
-1.37672e-06
-1.0664e-05
-1.78895e-06
-1.04862e-05
-2.28811e-06
-1.03259e-05
-2.86732e-06
-1.02154e-05
-3.49173e-06
-1.01621e-05
-4.14748e-06
-1.01729e-05
-4.80847e-06
-1.02442e-05
-5.44828e-06
-1.03695e-05
-6.04642e-06
-1.05388e-05
-6.59192e-06
-1.07466e-05
-7.08111e-06
-1.09863e-05
-7.51265e-06
-7.61547e-06
-1.128e-05
-1.74752e-06
1.33938e-05
-3.09119e-06
1.17557e-05
-4.15963e-06
1.01141e-05
-4.97308e-06
8.55291e-06
-5.56058e-06
7.01179e-06
-6.0281e-06
5.40805e-06
-6.49356e-06
3.74595e-06
-7.02881e-06
2.12488e-06
-7.61168e-06
7.17665e-07
-8.10537e-06
-3.49655e-07
-8.39568e-06
-1.08645e-06
-8.50672e-06
-1.67795e-06
-8.54015e-06
-2.25472e-06
-8.56269e-06
-2.84484e-06
-8.60427e-06
-3.4502e-06
-8.68505e-06
-4.06675e-06
-8.81367e-06
-4.6799e-06
-8.9907e-06
-5.27127e-06
-9.21206e-06
-5.82514e-06
-9.47508e-06
-6.32921e-06
-9.77075e-06
-6.78579e-06
-1.00958e-05
-7.18769e-06
-7.21942e-06
-1.04917e-05
-7.79676e-07
1.41737e-05
-1.51191e-06
1.24882e-05
-2.17722e-06
1.07796e-05
-2.74259e-06
9.11835e-06
-3.20988e-06
7.47913e-06
-3.63504e-06
5.83324e-06
-4.0875e-06
4.19843e-06
-4.60766e-06
2.64505e-06
-5.16582e-06
1.27584e-06
-5.6802e-06
1.64717e-07
-6.06957e-06
-6.97083e-07
-6.33748e-06
-1.41007e-06
-6.53543e-06
-2.05679e-06
-6.70631e-06
-2.674e-06
-6.87892e-06
-3.27762e-06
-7.0722e-06
-3.87351e-06
-7.29712e-06
-4.45499e-06
-7.55777e-06
-5.01065e-06
-7.85408e-06
-5.5289e-06
-8.18154e-06
-6.00202e-06
-8.54048e-06
-6.42709e-06
-8.9322e-06
-6.79644e-06
-6.77319e-06
-9.37808e-06
-6.58571e-08
1.424e-05
-2.96519e-07
1.27191e-05
-6.04325e-07
1.10875e-05
-9.31431e-07
9.44557e-06
-1.26062e-06
7.8084e-06
-1.61302e-06
6.1857e-06
-2.02013e-06
4.60559e-06
-2.49502e-06
3.11998e-06
-3.01209e-06
1.79294e-06
-3.51401e-06
6.66661e-07
-3.94748e-06
-2.63607e-07
-4.30566e-06
-1.05188e-06
-4.60956e-06
-1.75289e-06
-4.8845e-06
-2.39907e-06
-5.15099e-06
-3.01114e-06
-5.42601e-06
-3.5985e-06
-5.72029e-06
-4.16072e-06
-6.03875e-06
-4.69217e-06
-6.38256e-06
-5.18514e-06
-6.75462e-06
-5.63026e-06
-7.15103e-06
-6.03101e-06
-7.57409e-06
-6.37342e-06
-6.28542e-06
-8.06166e-06
3.80097e-07
1.38602e-05
5.16179e-07
1.25833e-05
5.03102e-07
1.11008e-05
3.94515e-07
9.5543e-06
2.14887e-07
7.98814e-06
-3.56004e-08
6.43627e-06
-3.63689e-07
4.93375e-06
-7.65741e-07
3.52209e-06
-1.21683e-06
2.24409e-06
-1.67644e-06
1.12632e-06
-2.10681e-06
1.66797e-07
-2.49654e-06
-6.62109e-07
-2.85121e-06
-1.3982e-06
-3.18235e-06
-2.06793e-06
-3.50353e-06
-2.68994e-06
-3.82707e-06
-3.27495e-06
-4.16175e-06
-3.82602e-06
-4.51298e-06
-4.34093e-06
-4.8841e-06
-4.81407e-06
-5.27327e-06
-5.24135e-06
-5.68532e-06
-5.61915e-06
-6.12402e-06
-5.93516e-06
-5.80494e-06
-6.60409e-06
5.8451e-07
1.32762e-05
9.5927e-07
1.22089e-05
1.17011e-06
1.08902e-05
1.25025e-06
9.47434e-06
1.22135e-06
8.01717e-06
1.09286e-06
6.56488e-06
8.70889e-07
5.15581e-06
5.67173e-07
3.82589e-06
2.04778e-07
2.60656e-06
-1.85435e-07
1.5166e-06
-5.75086e-07
5.56511e-07
-9.50264e-07
-2.86878e-07
-1.30883e-06
-1.03959e-06
-1.65433e-06
-1.72239e-06
-1.99365e-06
-2.35059e-06
-2.33449e-06
-2.93407e-06
-2.68324e-06
-3.47724e-06
-3.04398e-06
-3.98015e-06
-3.41837e-06
-4.4397e-06
-3.81141e-06
-4.84859e-06
-4.21969e-06
-5.21119e-06
-4.64441e-06
-5.51049e-06
-5.33091e-06
-5.11823e-06
6.19594e-07
1.2657e-05
1.12241e-06
1.17064e-05
1.48648e-06
1.05264e-05
1.71842e-06
9.24261e-06
1.82907e-06
7.90669e-06
1.82777e-06
6.56632e-06
1.7244e-06
5.2593e-06
1.53321e-06
4.01719e-06
1.27489e-06
2.86498e-06
9.73936e-07
1.81766e-06
6.52663e-07
8.77871e-07
3.25731e-07
4.01294e-08
-2.1591e-09
-7.11634e-07
-3.28957e-07
-1.39553e-06
-6.56432e-07
-2.02307e-06
-9.88224e-07
-2.60223e-06
-1.32796e-06
-3.13744e-06
-1.67877e-06
-3.62928e-06
-2.04265e-06
-4.07585e-06
-2.41863e-06
-4.47285e-06
-2.80985e-06
-4.82018e-06
-3.21695e-06
-5.10383e-06
-4.89623e-06
-3.65122e-06
5.58789e-07
1.20988e-05
1.10879e-06
1.11568e-05
1.56624e-06
1.00693e-05
1.9107e-06
8.8984e-06
2.13975e-06
7.67783e-06
2.25734e-06
6.44891e-06
2.27163e-06
5.24517e-06
2.19541e-06
4.09355e-06
2.04605e-06
3.01447e-06
1.84321e-06
2.02062e-06
1.60508e-06
1.11611e-06
1.34569e-06
2.99624e-07
1.0709e-06
-4.36756e-07
7.85771e-07
-1.11033e-06
4.91939e-07
-1.72916e-06
1.89022e-07
-2.29924e-06
-1.24298e-07
-2.82405e-06
-4.48803e-07
-3.3047e-06
-7.86388e-07
-3.73826e-06
-1.14021e-06
-4.11929e-06
-1.50604e-06
-4.45464e-06
-1.87796e-06
-4.7319e-06
-4.48078e-06
-2.29311e-06
4.64899e-07
1.16344e-05
1.01209e-06
1.06101e-05
1.51606e-06
9.56567e-06
1.93629e-06
8.47845e-06
2.25755e-06
7.35681e-06
2.47635e-06
6.23031e-06
2.59648e-06
5.12521e-06
2.62727e-06
4.06293e-06
2.58215e-06
3.05974e-06
2.47662e-06
2.12629e-06
2.32553e-06
1.26733e-06
2.14135e-06
4.83934e-07
1.93081e-06
-2.26109e-07
1.70002e-06
-8.79432e-07
1.45283e-06
-1.48187e-06
1.19093e-06
-2.03726e-06
9.14901e-07
-2.54792e-06
6.24223e-07
-3.01393e-06
3.18233e-07
-3.43226e-06
2.59414e-11
-3.80129e-06
-3.39976e-07
-4.11476e-06
-7.15127e-07
-4.35711e-06
-4.14623e-06
-1.04918e-06
3.76765e-07
1.12584e-05
8.98991e-07
1.00884e-05
1.42005e-06
9.045e-06
1.88618e-06
8.01263e-06
2.27299e-06
6.97026e-06
2.57046e-06
5.93307e-06
2.77756e-06
4.91831e-06
2.89959e-06
3.94109e-06
2.94613e-06
3.01338e-06
2.92899e-06
2.14358e-06
2.86012e-06
1.33636e-06
2.74998e-06
5.94214e-07
2.60581e-06
-8.18079e-08
2.43371e-06
-7.07212e-07
2.23866e-06
-1.28671e-06
2.02363e-06
-1.82212e-06
1.79026e-06
-2.31445e-06
1.53977e-06
-2.76333e-06
1.27385e-06
-3.1663e-06
9.89751e-07
-3.51738e-06
6.94762e-07
-3.82e-06
3.97192e-07
-4.0595e-06
-3.80272e-06
5.40163e-08
3.18614e-07
1.09403e-05
8.13405e-07
9.59407e-06
1.33511e-06
8.52371e-06
1.82545e-06
7.52262e-06
2.2545e-06
6.54151e-06
2.60759e-06
5.58022e-06
2.87987e-06
4.64627e-06
3.07316e-06
3.74801e-06
3.19376e-06
2.89298e-06
3.25045e-06
2.08708e-06
3.2526e-06
1.33439e-06
3.20869e-06
6.38284e-07
3.126e-06
1.02591e-09
3.01039e-06
-5.91456e-07
2.86701e-06
-1.1432e-06
2.69937e-06
-1.65436e-06
2.51004e-06
-2.12498e-06
2.30051e-06
-2.55368e-06
2.07163e-06
-2.93737e-06
1.82786e-06
-3.27377e-06
1.5678e-06
-3.56004e-06
1.29219e-06
-3.78418e-06
-3.51381e-06
1.00377e-06
2.97897e-07
1.06433e-05
7.75818e-07
9.1168e-06
1.29428e-06
8.00573e-06
1.79538e-06
7.02189e-06
2.2481e-06
6.08911e-06
2.63586e-06
5.19274e-06
2.95163e-06
4.33075e-06
3.19498e-06
3.5049e-06
3.36985e-06
2.71832e-06
3.48276e-06
1.97439e-06
3.54105e-06
1.27629e-06
3.55132e-06
6.28188e-07
3.52075e-06
3.17636e-08
3.45477e-06
-5.25323e-07
3.35811e-06
-1.04639e-06
3.23429e-06
-1.5304e-06
3.08587e-06
-1.97641e-06
2.91529e-06
-2.38295e-06
2.72502e-06
-2.74703e-06
2.51317e-06
-3.06207e-06
2.28598e-06
-3.33302e-06
2.04535e-06
-3.54347e-06
-3.24288e-06
1.77482e-06
3.16869e-07
1.0327e-05
7.94753e-07
8.63949e-06
1.31213e-06
7.48884e-06
1.81699e-06
6.51743e-06
2.27999e-06
5.62644e-06
2.68497e-06
4.78806e-06
3.0246e-06
3.99139e-06
3.29766e-06
3.23209e-06
3.50697e-06
2.50925e-06
3.65766e-06
1.82391e-06
3.75568e-06
1.17847e-06
3.80617e-06
5.77892e-07
3.816e-06
2.21055e-08
3.79007e-06
-4.99223e-07
3.73226e-06
-9.88422e-07
3.64567e-06
-1.44366e-06
3.53292e-06
-1.86352e-06
3.39598e-06
-2.24587e-06
3.23575e-06
-2.58673e-06
3.05776e-06
-2.88421e-06
2.85924e-06
-3.13453e-06
2.64074e-06
-3.32518e-06
-3.01625e-06
2.41462e-06
3.70434e-07
9.9576e-06
8.6773e-07
8.14287e-06
1.39178e-06
6.9653e-06
1.89815e-06
6.01147e-06
2.36209e-06
5.16286e-06
2.77013e-06
4.38032e-06
3.11655e-06
3.64526e-06
3.40087e-06
2.94803e-06
3.62602e-06
2.28434e-06
3.79675e-06
1.65341e-06
3.91827e-06
1.05716e-06
3.99473e-06
5.01622e-07
4.03262e-06
-1.56001e-08
4.03604e-06
-5.0247e-07
4.00784e-06
-9.60063e-07
3.95039e-06
-1.38605e-06
3.86568e-06
-1.77866e-06
3.75576e-06
-2.1358e-06
3.62344e-06
-2.45433e-06
3.46685e-06
-2.72774e-06
3.29262e-06
-2.96045e-06
3.10392e-06
-3.13643e-06
-2.8061e-06
2.89414e-06
4.55445e-07
9.50264e-06
9.90979e-07
7.60792e-06
1.52979e-06
6.42698e-06
2.0378e-06
5.50388e-06
2.49614e-06
4.70487e-06
2.8958e-06
3.98096e-06
3.23435e-06
3.30699e-06
3.5136e-06
2.66903e-06
3.73786e-06
2.06032e-06
3.91244e-06
1.47905e-06
4.04239e-06
9.27416e-07
4.13159e-06
4.12615e-07
4.18579e-06
-6.96237e-08
4.20809e-06
-5.24608e-07
4.20007e-06
-9.51887e-07
4.16313e-06
-1.34896e-06
4.09881e-06
-1.71419e-06
4.00846e-06
-2.04531e-06
3.89305e-06
-2.33887e-06
3.75762e-06
-2.59243e-06
3.60065e-06
-2.80353e-06
3.42418e-06
-2.96015e-06
-2.63248e-06
3.25097e-06
5.66045e-07
8.9377e-06
1.15748e-06
7.01721e-06
1.72058e-06
5.86441e-06
2.2312e-06
4.99366e-06
2.67838e-06
4.25802e-06
3.05947e-06
3.60016e-06
3.37703e-06
2.98968e-06
3.63662e-06
2.40968e-06
3.84508e-06
1.85207e-06
4.00922e-06
1.31512e-06
4.1343e-06
8.02515e-07
4.22475e-06
3.22347e-07
4.28503e-06
-1.29752e-07
4.31687e-06
-5.56294e-07
4.32034e-06
-9.55216e-07
4.29571e-06
-1.32419e-06
4.24357e-06
-1.66192e-06
4.16545e-06
-1.96706e-06
4.0637e-06
-2.23705e-06
3.93694e-06
-2.46579e-06
3.79125e-06
-2.65797e-06
3.63007e-06
-2.79894e-06
-2.45661e-06
3.4546e-06
7.00202e-07
8.23794e-06
1.3637e-06
6.35423e-06
1.9584e-06
5.27017e-06
2.4717e-06
4.48072e-06
2.90174e-06
3.82827e-06
3.25409e-06
3.24807e-06
3.53811e-06
2.70587e-06
3.7645e-06
2.18349e-06
3.94374e-06
1.67301e-06
4.08496e-06
1.17407e-06
4.19411e-06
6.93513e-07
4.27652e-06
2.4008e-07
4.33472e-06
-1.87826e-07
4.36846e-06
-5.89907e-07
4.37591e-06
-9.6256e-07
4.35593e-06
-1.3041e-06
4.30862e-06
-1.6145e-06
4.23487e-06
-1.89322e-06
4.13554e-06
-2.13768e-06
4.01623e-06
-2.3466e-06
3.87474e-06
-2.51649e-06
3.7121e-06
-2.6364e-06
-2.30147e-06
3.55736e-06
8.55447e-07
7.38351e-06
1.60697e-06
5.60326e-06
2.24028e-06
4.63723e-06
2.7539e-06
3.96738e-06
3.15818e-06
3.42422e-06
3.46986e-06
2.93658e-06
3.70714e-06
2.46877e-06
3.8871e-06
2.00368e-06
4.02474e-06
1.5355e-06
4.13219e-06
1.06674e-06
4.21691e-06
6.08899e-07
4.28438e-06
1.72707e-07
4.33469e-06
-2.38044e-07
4.36467e-06
-6.19803e-07
4.36997e-06
-9.67782e-07
4.34783e-06
-1.28189e-06
4.29769e-06
-1.56428e-06
4.22095e-06
-1.8164e-06
4.12082e-06
-2.03754e-06
3.99655e-06
-2.22243e-06
3.85438e-06
-2.37441e-06
3.69746e-06
-2.47947e-06
-2.14077e-06
3.53715e-06
1.03456e-06
6.34888e-06
1.89047e-06
4.7476e-06
2.56537e-06
3.96256e-06
3.07202e-06
3.46092e-06
3.43755e-06
3.05886e-06
3.6938e-06
2.68045e-06
3.86994e-06
2.29273e-06
3.99035e-06
1.88337e-06
4.07493e-06
1.451e-06
4.13938e-06
1.00236e-06
4.19347e-06
5.5486e-07
4.24175e-06
1.24484e-07
4.28086e-06
-2.77116e-07
4.30343e-06
-6.42336e-07
4.30163e-06
-9.65938e-07
4.27098e-06
-1.25121e-06
4.21124e-06
-1.50449e-06
4.12455e-06
-1.72966e-06
4.01367e-06
-1.92665e-06
3.885e-06
-2.09388e-06
3.73793e-06
-2.22736e-06
3.57371e-06
-2.31528e-06
-1.99753e-06
3.43077e-06
1.24157e-06
5.1081e-06
2.21833e-06
3.77118e-06
2.93353e-06
3.24753e-06
3.41778e-06
2.97681e-06
3.72499e-06
2.75174e-06
3.90786e-06
2.49766e-06
4.00794e-06
2.19271e-06
4.05645e-06
1.8349e-06
4.07785e-06
1.42963e-06
4.09177e-06
9.88469e-07
4.11104e-06
5.35613e-07
4.13861e-06
9.69299e-08
4.16569e-06
-3.04192e-07
4.17885e-06
-6.55495e-07
4.16565e-06
-9.52728e-07
4.12026e-06
-1.2058e-06
4.04373e-06
-1.42794e-06
3.94089e-06
-1.62679e-06
3.81784e-06
-1.8036e-06
3.67647e-06
-1.95259e-06
3.52345e-06
-2.07438e-06
3.36186e-06
-2.1537e-06
-1.8432e-06
3.20793e-06
1.48843e-06
3.61932e-06
2.59629e-06
2.66329e-06
3.33575e-06
2.50813e-06
3.76952e-06
2.5431e-06
3.99327e-06
2.52805e-06
4.08502e-06
2.40597e-06
4.09709e-06
2.18069e-06
4.06467e-06
1.86735e-06
4.01516e-06
1.47916e-06
3.97254e-06
1.0311e-06
3.9548e-06
5.53348e-07
3.96254e-06
8.91876e-08
3.97836e-06
-3.20021e-07
3.98069e-06
-6.5784e-07
3.95156e-06
-9.23598e-07
3.88441e-06
-1.13866e-06
3.78441e-06
-1.32792e-06
3.6599e-06
-1.50225e-06
3.51792e-06
-1.66161e-06
3.36771e-06
-1.80246e-06
3.20943e-06
-1.91606e-06
3.04444e-06
-1.9886e-06
-1.70874e-06
2.91025e-06
1.79569e-06
1.82418e-06
3.01637e-06
1.44267e-06
3.73487e-06
1.78958e-06
4.07606e-06
2.20193e-06
4.19326e-06