/*--------------------------------*- C++ -*----------------------------------*\
  =========                 |
  \\      /  F ield         | OpenFOAM: The Open Source CFD Toolbox
   \\    /   O peration     | Website:  https://openfoam.org
    \\  /    A nd           | Version:  13
     \\/     M anipulation  |
\*---------------------------------------------------------------------------*/
FoamFile
{
    format      ascii;
    class       volScalarField;
    location    "2.6";
    object      rho;
}
// * * * * * * * * * * * * * * * * * * * * * * * * * * * * * * * * * * * * * //

dimensions      [1 -3 0 0 0 0 0];

internalField   nonuniform List<scalar> 
2268
(
13529
13529
13529
13529
13529
13529
13529
13529
13529
13529
13529
13529
13529
13529
13529
13529
13529
13529
13529
13529
13524.2
13521.6
13521.6
13529
13529
13529
13529
13529
13529
13529
13529
13529
13529
13529
13529
13529
13529
13529
13529
13529
13529
13529
13529
13528
13526.4
13525.9
13529
13529
13529
13529
13529
13529
13529
13529
13529
13529
13529
13529
13529
13529
13529
13529
13529
13529
13529
13529
13529
13529
13529
13529
13529
13529
13529
13529
13529
13529
13529
13529
13529
13529
13529
13529
13529
13529
13529
13529
13529
13529
13529
13529
13529
13529
13285.3
13256.6
13292.9
13373.7
13456.2
13511.8
13529
13529
13529
13529
13529
13529
13529
13529
13529
13529
13529
13529
13529
13529
13529
13529
13529
5068.31
5259.79
5510.35
5979.69
6662.52
7519.51
8527.54
9569.74
10437.9
11274.4
12053.9
12722.9
13221.4
13511.6
13529
13529
13529
13529
13529
13529
13529
13529
13528.8
1000
1000
1000
999.999
999.998
999.998
1000
1074.57
1440.93
1972.5
2711.29
3732.64
5107.78
6884.21
8920.44
10729.7
12186.3
13251.4
13529
13529
13528.9
13528.8
13521.5
1000
1000
1000
1000
999.995
999.997
999.999
1000
1000
1000
1000
1000
1000
1011.87
1197.33
1869.8
3090.76
4812.69
7162.16
9304.78
10765.3
11590.3
12240.6
11940
11942.1
11950.2
11947.8
11915.3
11161.7
8800.05
8857.27
9038.72
9157.57
8885.32
8597.56
9077.75
10318.4
10341.3
10359.7
10322
10298.4
10303.4
8361.55
9026.89
9864.42
10498.7
11522.8
11509.6
11231.7
11045.3
11249.9
11222.1
10836.5
9752.25
10007
10280.6
10287.6
10289.9
10298.9
10298.6
10302.8
4270.05
4193.82
4823.05
5713.27
6581
8576.58
9024.17
9526.68
9445.34
9550.22
8897.22
8778.11
8701.06
8410.83
8505.08
9002.67
8628.94
7933.97
7651.99
2389.07
2579.83
2534.23
2639.86
2437.58
2586.17
3288.87
2944.86
2563.83
2571.9
3630.21
3773.06
3509.06
3172.36
2749.9
2048.59
2298.47
3098.67
4027.8
2002.74
2103.67
2137.04
2346.8
1814.25
1068.36
1120.57
1295.06
1434.39
1100.36
716.017
1500.24
1836.61
1237.28
593.722
672.14
730.851
796.057
493.668
1685.87
1693.72
2088.18
2096.74
2148.87
1339.99
1230.3
1284.24
1524.56
1146.81
986.079
478.38
265.271
434.253
863.105
992.585
999.886
999.876
629.355
1136.81
1178.84
1256.26
1477.85
1905.66
1753.8
1631.91
1732.36
1516.17
1111.39
1007.73
960.117
288.886
585.738
991.261
999.949
999.853
999.106
739.859
1188.1
1143.8
1017.55
1015.34
1264.46
1684.38
1718.13
1600.86
1002.94
1017.35
1006.05
993.715
579.609
774.307
999.858
1000.01
999.297
986.24
760.681
1000
1000
999.968
999.91
999.959
999.999
1000
1000
1000
1000
1000
1000
1000
1000
1000
1000
1000
1000
1028.77
1174.19
1410.52
1614.24
1965.86
995.008
997.586
998.603
999.323
999.972
1000
1000
1000
1000
1000
1000
1000
1000
1000
1000
1000
1000
1000
1000.01
1000.07
1000.09
996.95
995.278
897.9
967.358
998.535
999.814
999.999
1000
997.343
996.229
996.919
997.696
998.034
996.683
992.37
989.669
992.436
998.639
999.99
999.968
997.035
982.055
939.812
903.964
853.138
756.033
756.402
778.131
800.853
833.36
866.46
842.837
829.906
824.759
818.621
810.047
791.971
770.633
763.871
765.071
754.955
733.944
704.51
676.993
654.034
620.268
562.632
472.013
444.284
497.282
499.937
500.126
508.597
470.845
475.318
460.239
442.725
433.466
419.055
432.667
447.678
450.356
439.248
427.701
450.25
486.493
490.111
489.629
495.791
482.662
456.419
495.768
500.165
499.853
499.675
481.06
469.248
491.552
499.998
494.944
492.016
497.71
498.845
499.558
499.724
498.408
498.534
500
500
500
500
498.325
497.398
500.177
499.696
500.362
500.026
500
500
500
500
500
500
500
500
500
500
500
500
500
500
500
500
500.001
500.005
500.007
500.001
460.003
475.674
484.766
484.333
484.568
476.745
477.85
482.75
481.377
478.254
474.607
470.606
466.193
462.038
458.004
453.135
447.767
443.511
440.702
439.037
438.489
439.893
443.513
100.765
125.302
161.122
170.625
172.847
179.42
176.049
161.751
149.545
140.367
130.972
119.683
108.75
99.5085
91.4693
83.882
77.0905
72.2313
68.9797
66.7992
65.9223
66.8918
71.2469
1.00021
1.0002
1.00016
1.00204
1.00007
1.00016
1.00018
1.0001
1.00003
1.00013
1.00008
1.0001
1.00005
1.00003
1.00001
1
1
1
1
1.00001
1.00001
1.00002
1.00003
1.00059
1.0009
1.00106
1.00066
1.00024
1.00013
1.00005
1.00002
1.00001
1.00001
1.00001
1.00002
1.00002
1.00002
1.00002
1.00002
1.00003
1.00002
1.00002
1.00003
1.00004
1.00006
1.00011
1.00116
1.00298
1.004
1.00136
1.00012
1.0002
1.0012
1.00443
1.00643
1.00196
1.00016
1.00015
1.00013
1.00013
1.00018
1.00017
1.00012
1.0001
1.0001
1.00007
1.00007
1.00008
1.0001
1.00135
1.0057
1.01793
1.01526
1.00012
1.00029
1.00736
1.07039
1.0826
1.02641
1.0016
1.00034
1.00041
1.00043
1.00042
1.0003
1.00016
1.00012
1.00011
1.00006
1.00006
1.00005
1.00006
1.00098
1.00952
1.03047
1.02962
1.01182
1.00017
1.02443
1.08238
1.08327
1.08308
1.02745
1.00318
1.00194
1.0014
1.00103
1.00041
1.0002
1.00014
1.00013
1.00007
1.00006
1.00004
1.00004
1.00078
1.0049
1.02719
1.02841
1.00946
1.0001
1.00283
1.05932
1.08199
1.08263
1.04196
1.00316
1.00317
1.00314
1.00254
1.00035
1.00015
1.00015
1.00014
1.00007
1.00007
1.00004
1.00003
1.00057
1.00172
1.00741
1.01052
1.00099
1.00008
1.00017
1.00293
1.02935
1.04229
1.00768
1.00266
1.00317
1.00313
1.00241
1.00021
1.00014
1.00011
1.00011
1.00008
1.00007
1.00004
1.00003
1.00048
1.00076
1.00029
1.00015
1.00015
1.00006
1.00006
1.00015
1.00023
1.00009
1.0001
1.00032
1.00167
1.00218
1.00024
1.00011
1.00013
1.0001
1.00007
1.00006
1.00005
1.00004
1.00003
1.00036
1.00043
1.00017
1.00006
1.00005
1.00005
1.00005
1.00006
1.00006
1.00008
1.0001
1.00035
1.00069
1.00036
1.00004
1.00006
1.00007
1.00007
1.00004
1.00004
1.00003
1.00003
1.00002
1.00024
1.0003
1.00016
1.00006
1.00005
1.00005
1.00005
1.00005
1.00003
1.00002
1.00005
1.00029
1.00044
1.00032
1.00006
1.00004
1.00004
1.00003
1.00003
1.00002
1.00002
1.00002
1.00001
1.00014
1.00021
1.00013
1.00006
1.00004
1.00004
1.00004
1.00003
1.00002
1.00002
1.00003
1.00014
1.00028
1.00013
1.00004
1.00002
1.00002
1.00002
1.00001
1.00001
1.00001
1.00001
1.00001
1.0001
1.00013
1.00009
1.00005
1.00004
1.00003
1.00003
1.00002
1.00002
1.00002
1.00002
1.00005
1.00006
1.00004
1.00002
1.00001
1.00001
1.00001
1.00001
1.00001
1.00001
1.00001
1
1.00006
1.00008
1.00006
1.00004
1.00003
1.00002
1.00002
1.00001
1.00001
1.00001
1.00002
1.00002
1.00001
1.00001
1.00001
1.00001
1.00001
1.00001
1.00001
1
1
1
1
1.00005
1.00005
1.00004
1.00003
1.00003
1.00002
1.00001
1.00001
1.00001
1.00001
1.00001
1.00001
1.00001
1.00001
1
1
1
1
1
1
1
1
1
1.00004
1.00004
1.00004
1.00003
1.00002
1.00002
1.00001
1.00001
1.00001
1.00001
1
1
1
1
1
1
1
1
1
1
1
1
1
1.00004
1.00004
1.00003
1.00002
1.00002
1.00001
1.00001
1.00001
1
1
1
1
1
1
1
1
1
1
1
1
1
1
1
1.00003
1.00003
1.00002
1.00002
1.00001
1.00001
1.00001
1
1
1
1
1
1
1
1
1
1
1
1
1
1
1
1
1.00003
1.00002
1.00002
1.00001
1.00001
1.00001
1.00001
1
1
1
1
1
1
1
1
1
1
1
1
1
1
1
1
1.00002
1.00002
1.00001
1.00001
1.00001
1
1
1
1
1
1
1
1
1
1
1
1
1
1
1
1
1
1
1.00002
1.00001
1.00001
1.00001
1
1
1
1
1
1
1
1
1
1
1
1
1
1
1
1
1
1
1
1.00001
1.00001
1.00001
1
1
1
1
1
1
1
1
1
1
1
1
1
1
1
1
1
1
1
1
1.00001
1.00001
1
1
1
1
1
1
1
1
1
1
1
1
1
1
1
1
1
1
1
1
1
1.00001
1
1
1
1
1
1
1
1
1
1
1
1
1
1
1
1
1
1
1
1
1
1
1.00001
1
1
1
1
1
1
1
1
1
1
1
1
1
1
1
1
1
1
1
1
1
1
1
1
1
1
1
1
1
1
1
1
1
1
1
1
1
1
1
1
1
1
1
1
1
1
1
1
1
1
1
1
1
1
1
1
1
1
1
1
1
1
1
1
1
1
1
1
1
1
1
1
1
1
1
1
1
1
1
1
1
1
1
1
1
1
1
1
1
1
1
1
1
1
1
1
1
1
1
1
1
1
1
1
1
1
1
1
1
1
1
1
1
1
1
1
1
1
1
1
1
1
1
1
1
1
1
1
1
1
1
1
1
1
1
1
1
1
1
1
1
1
1
1
1
1
1
1
1
1
1
1
1
1
1
1
1
1
1
1
1
1
1
1
1
1
1
1
1
1
1
1
1
1
1
1
1
1
1
1
1
1
1
1
1
1
1
1
1
1
1
1
1
1
1
1
1
1
1
1
1
1
1
1
1
1
1
1
1
1
1
1
1
1
1
1
1
1
1
1
1
1
1
1
1
1
1
1
1
2032.83
1445.54
999.949
999.958
997.212
998.718
996.537
990.999
833.626
865.98
886.804
790.889
444.354
432.264
434.512
455.879
467.954
494.23
503.203
503.165
500.214
500.131
500.006
500.005
500.001
500.001
500.005
500.008
453.045
456.174
459.518
462.606
83.6251
88.1906
92.7627
96.39
1.00005
1.00005
1.00005
1.00006
1.00013
1.00012
1.00012
1.00016
1.00012
1.00012
1.00013
1.00013
1.00008
1.0001
1.00009
1.00009
1.00004
1.00006
1.00006
1.00007
1.00003
1.00004
1.00004
1.00004
1.00002
1.00002
1.00002
1.00002
1.00002
1.00002
1.00002
1.00002
1.00001
1.00001
1.00001
1.00001
1.00001
1.00001
1.00001
1.00001
1.00001
1.00001
1
1
1
1
1
1
1
1
1
1
1
1
1
1
1
1
1
1
1
1
1
1
1
1
1
1
1
1
1
1
1
1
1
1
1
1
1
1
1
1
1
1
1
1
1
1
1
1
1
1
1
1
1
1
1
1
1
1
1
1
1
1
1
1
1
1
1
1
1
1
1
1
1
1
1
1
1
1
1
1
1
1
1
1
1
1
1
1
1
1
1084.08
1143.62
1139.83
948.723
932.024
1232.73
1177.9
991.165
999.167
999.99
1001.11
1001.33
987.364
993.751
999.923
1000.23
999.653
950.153
799.267
978.852
994.848
942.267
841.604
932.686
844.724
822.347
886.994
966.979
985.171
997.459
998.116
998.471
997.74
986.926
952.717
899.741
868.167
861.133
574.342
550.74
625.104
692.336
581.007
502.778
632.754
624.846
610.014
620.42
644.088
687.721
747.081
740.724
694.696
631.108
597.7
602.77
629.534
459.369
457.336
478.597
502.567
491.322
442.291
424.722
438.214
496.984
500.249
500.012
499.993
499.971
499.957
500.38
500.771
500.621
527.656
560.335
502.683
500.402
500.033
499.996
500.373
490.374
482.734
493.504
499.835
500.031
500.03
500.016
500.001
500.001
500.046
500.152
500.198
500.575
500.289
500.003
500.005
499.98
499.904
500.024
500.015
500
500
500
500
500.002
500.001
500.001
500.001
499.998
499.976
499.98
500.063
500.214
500.004
500.002
500.001
500.004
500.006
500.004
500.002
500.001
500
500
500
500.002
500.034
500.083
500.014
500.01
500.053
500.07
500.133
465.355
473.273
478.843
482.382
484.434
484.86
483.881
480.539
474.412
466.901
461.14
464.975
471.535
476.542
482.645
508.332
532.42
530.162
511.834
97.8751
108.72
117.872
123.026
124.302
121.254
111.828
98.9815
87.7882
81.641
79.8805
82.689
98.0469
124.551
155.87
192.259
233.556
309.582
344.906
1.00013
1.00019
1.00031
1.00064
1.00124
1.00793
1.02431
1.06506
1.13254
1.13938
2.06
2.38837
2.34402
4.02703
10.9058
19.6662
29.9999
29.4187
28.0071
1.00026
1.00035
1.00077
1.07812
1.23385
1.31079
1.28086
1.15193
1.1394
1.14792
1.24995
1.66224
1.69465
1.76248
1.00277
1.00498
1.1629
1.07459
1.03759
1.00014
1.00026
1.00261
1.18108
1.48744
1.48744
1.43119
1.03583
1.002
1.04853
1.401
1.47454
1.33418
1.08744
1.00035
1.00013
1.00011
1.00006
1.00006
1.00011
1.00017
1.00036
1.00269
1.06797
1.11889
1.0002
1.00038
1.00067
1.00658
1.03835
1.09586
1.01097
1.00802
1.00035
1.00032
1.00029
1.0002
1.00009
1.00007
1.00008
1.00009
1.00007
1.00008
1.0001
1.00035
1.00146
1.00135
1.00058
1.00122
1.00213
1.00041
1.0005
1.00025
1.00037
1.00037
1.00027
1.0002
1.00004
1.00005
1.00006
1.00007
1.00009
1.00011
1.00012
1.00015
1.0002
1.00021
1.0002
1.00015
1.00014
1.00012
1.00018
1.00025
1.00026
1.00022
1.0002
1.00002
1.00003
1.00004
1.00008
1.00011
1.00014
1.00013
1.00013
1.00014
1.00017
1.00019
1.00017
1.00013
1.0001
1.0001
1.00012
1.00013
1.00012
1.00013
1.00002
1.00002
1.00002
1.00004
1.00007
1.0001
1.00012
1.0001
1.00009
1.00009
1.00011
1.00011
1.00009
1.00006
1.00004
1.00004
1.00005
1.00005
1.00003
1.00001
1.00001
1.00001
1.00001
1.00002
1.00003
1.00004
1.00004
1.00004
1.00003
1.00004
1.00004
1.00004
1.00003
1.00002
1.00002
1.00002
1.00001
1.00001
1.00001
1.00001
1.00001
1.00001
1.00001
1.00001
1.00001
1.00001
1.00001
1.00001
1.00001
1.00001
1.00001
1.00001
1.00001
1.00001
1.00001
1.00001
1.00001
1
1
1
1
1
1
1.00001
1.00001
1.00001
1.00001
1.00001
1.00001
1.00001
1.00001
1.00001
1.00001
1.00001
1.00001
1.00001
1
1
1
1
1
1
1
1
1
1
1
1
1
1
1
1.00001
1.00001
1.00001
1.00002
1
1
1
1
1
1
1
1
1
1
1
1
1
1
1
1
1.00001
1.00002
1.00002
1
1
1
1
1
1
1
1
1
1
1
1
1
1
1
1
1.00001
1.00002
1.00004
1
1
1
1
1
1
1
1
1
1
1
1
1
1
1
1
1.00001
1.00004
1.00004
1
1
1
1
1
1
1
1
1
1
1
1
1
1
1
1
1.00001
1.00004
1.00004
1
1
1
1
1
1
1
1
1
1
1
1
1
1
1
1
1.00001
1.00005
1.00004
1
1
1
1
1
1
1
1
1
1
1
1
1
1
1
1
1.00002
1.00005
1.00003
1
1
1
1
1
1
1
1
1
1
1
1
1
1
1
1
1.00002
1.00005
1.00002
1
1
1
1
1
1
1
1
1
1
1
1
1
1
1
1
1.00002
1.00005
1.00002
1
1
1
1
1
1
1
1
1
1
1
1
1
1
1
1.00001
1.00002
1.00005
1.00001
1
1
1
1
1
1
1
1
1
1
1
1
1
1
1
1.00001
1.00002
1.00003
1.00001
1
1
1
1
1
1
1
1
1
1
1
1
1
1
1
1.00001
1.00002
1.00002
1
1
1
1
1
1
1
1
1
1
1
1
1
1
1
1
1.00001
1.00001
1
1
1
1
1
1
1
1
1
1
1
1
1
1
1
1
1
1.00001
1.00001
1.00001
1
1
1
1
1
1
1
1
1
1
1
1
1
1
1
1
1
1
1
1
1
1
1
1
1
1
1
1
1
1
1
1
1
1
1
1
1
1
1
1
1
1
1
1
1
1
1
1
1
1
1
1
1
1
1
1
1
1
1
1
1
1
1
1
1
1
1
1
1
1
1
1
1
1
1
1
1
1
1
1
1
1
1
1
1
1
1
1
1
1
1
1
1
1
1
1
1
1
1
1
1
1
1
1
1
1
1
1
1
1
1
1
1
1
1
1
1
1
1
1
1
1
1
1
1
1
1
1
1
1
1
1
1
1
1
1
1
1
1
1
1
1
1
1
1
1
1
1
1
1
1
1
1
)
;

boundaryField
{
    leftWall
    {
        type            calculated;
        value           nonuniform List<scalar> 
50
(
13529
13529
13529
13529
13285.3
5068.31
1000
1000
1000
995.008
897.9
756.033
444.284
495.768
499.696
460.003
100.765
1.00021
1.00059
1.00116
1.00135
1.00098
1.00078
1.00057
1.00048
1.00036
1.00024
1.00014
1.0001
1.00006
1.00005
1.00004
1.00004
1.00003
1.00003
1.00002
1.00002
1.00001
1.00001
1.00001
1.00001
1
1
1
1
1
1
1
1
1
)
;
    }
    rightWall
    {
        type            calculated;
        value           nonuniform List<scalar> 
50
(
10303.4
10302.8
7651.99
4027.8
493.668
629.355
739.859
760.681
799.267
861.133
629.534
560.335
500.289
500.214
500.133
511.834
344.906
28.0071
1.03759
1.00006
1.00009
1.0002
1.0002
1.00013
1.00003
1.00001
1.00001
1.00001
1.00002
1.00002
1.00004
1.00004
1.00004
1.00004
1.00003
1.00002
1.00002
1.00001
1.00001
1
1
1
1
1
1
1
1
1
1
1
)
;
    }
    lowerWall
    {
        type            calculated;
        value           nonuniform List<scalar> 
62
(
13529
13529
13529
13529
13529
13529
13529
13529
13529
13529
13529
13529
13529
13529
13529
13529
13529
13529
13529
13529
13524.2
13521.6
13521.6
13521.6
13525.9
13529
13529
13529
13528.8
13521.5
12240.6
2032.83
1445.54
999.949
999.958
11940
8361.55
4270.05
2389.07
2002.74
1685.87
1136.81
1188.1
11940
11942.1
11950.2
11947.8
11915.3
11161.7
8800.05
8857.27
9038.72
9157.57
8885.32
8597.56
9077.75
10318.4
10341.3
10359.7
10322
10298.4
10303.4
)
;
    }
    atmosphere
    {
        type            calculated;
        value           nonuniform List<scalar> 
46
(
1
1
1
1
1
1
1
1
1
1
1
1
1
1
1
1
1
1
1
1
1
1
1
1
1
1
1
1
1
1
1
1
1
1
1
1
1
1
0.999999
0.999999
0.999999
0.999999
1
0.999999
1
1
)
;
    }
    defaultFaces
    {
        type            empty;
    }
}


// ************************************************************************* //
