/*--------------------------------*- C++ -*----------------------------------*\
  =========                 |
  \\      /  F ield         | OpenFOAM: The Open Source CFD Toolbox
   \\    /   O peration     | Website:  https://openfoam.org
    \\  /    A nd           | Version:  13
     \\/     M anipulation  |
\*---------------------------------------------------------------------------*/
FoamFile
{
    format      ascii;
    class       volVectorField;
    location    "2.6";
    object      U;
}
// * * * * * * * * * * * * * * * * * * * * * * * * * * * * * * * * * * * * * //

dimensions      [0 1 -1 0 0 0 0];

internalField   nonuniform List<vector> 
2268
(
(-0.00677487 0.00258718 0)
(-0.0116839 0.000133145 0)
(-0.00845694 -0.00191153 0)
(-0.00450865 -0.00219139 0)
(-0.000526195 -0.00196399 0)
(0.00275285 -0.00160914 0)
(0.00532288 -0.00129208 0)
(0.00721407 -0.00102248 0)
(0.00847967 -0.000799324 0)
(0.00922595 -0.000626725 0)
(0.00957767 -0.000479518 0)
(0.00962501 -0.000330783 0)
(0.00941511 -0.000172958 0)
(0.0089255 2.56234e-05 0)
(0.00793518 0.000406604 0)
(0.00605217 0.00100949 0)
(0.00291806 0.0017867 0)
(-0.00180353 0.00272703 0)
(-0.00837202 0.00381274 0)
(-0.016908 0.00469265 0)
(-0.0261129 0.00430344 0)
(-0.0320887 -6.60692e-05 0)
(-0.0195115 -0.00920957 0)
(-0.00338946 0.00611378 0)
(-0.00341952 0.000274906 0)
(-0.000699493 -0.00225468 0)
(0.00176859 -0.00266966 0)
(0.0041826 -0.00239205 0)
(0.00620544 -0.00191543 0)
(0.0077645 -0.00144144 0)
(0.00880093 -0.000986522 0)
(0.00927231 -0.000560912 0)
(0.00922092 -0.000221894 0)
(0.00875094 3.97938e-05 0)
(0.00795895 0.000244231 0)
(0.00693555 0.000416938 0)
(0.00576672 0.000620932 0)
(0.00436373 0.00107982 0)
(0.00248422 0.00180641 0)
(-4.28399e-05 0.00274608 0)
(-0.00332533 0.00385425 0)
(-0.00740752 0.00507562 0)
(-0.0122114 0.00582113 0)
(-0.0166572 0.00456337 0)
(-0.0201553 -0.00167234 0)
(-0.0116237 -0.0180249 0)
(0.000942937 0.00646025 0)
(0.00244311 -0.000809792 0)
(0.00432198 -0.00320935 0)
(0.00572297 -0.00359716 0)
(0.00719105 -0.00322971 0)
(0.0084913 -0.00260289 0)
(0.00948397 -0.00192907 0)
(0.0100442 -0.00122286 0)
(0.0100725 -0.000537203 0)
(0.00956619 2.35788e-05 0)
(0.0086081 0.000458576 0)
(0.00729357 0.000786815 0)
(0.00573213 0.00104047 0)
(0.00405894 0.00131921 0)
(0.0022648 0.0018867 0)
(0.000235001 0.00276643 0)
(-0.00203686 0.00387233 0)
(-0.00447106 0.00513764 0)
(-0.00696491 0.00649411 0)
(-0.00939985 0.00719851 0)
(-0.0109525 0.00541485 0)
(-0.0126583 -0.002143 0)
(-0.00547062 -0.0235348 0)
(0.00546391 0.00490707 0)
(0.00688522 -0.00185999 0)
(0.00798545 -0.00383234 0)
(0.00865757 -0.00419613 0)
(0.00954612 -0.00381595 0)
(0.0104203 -0.00309397 0)
(0.011072 -0.00224168 0)
(0.0113182 -0.00131327 0)
(0.01104 -0.000346185 0)
(0.0102232 0.000470147 0)
(0.00892559 0.00111979 0)
(0.00722547 0.00160824 0)
(0.00524096 0.00195427 0)
(0.00314486 0.00226548 0)
(0.000997158 0.00289866 0)
(-0.00120906 0.0038138 0)
(-0.00334927 0.00489651 0)
(-0.00519029 0.0060584 0)
(-0.00654262 0.00725543 0)
(-0.0073249 0.00771594 0)
(-0.00699477 0.00547203 0)
(-0.0074224 -0.00302385 0)
(-0.00108689 -0.0268261 0)
(0.00908144 -0.000277651 0)
(0.00972869 -0.00297812 0)
(0.0105889 -0.00419211 0)
(0.0109072 -0.00450717 0)
(0.0115095 -0.00414521 0)
(0.0121756 -0.0033717 0)
(0.0126186 -0.00239678 0)
(0.0126437 -0.00126989 0)
(0.0121672 -7.00374e-05 0)
(0.011156 0.000995956 0)
(0.0096389 0.00187972 0)
(0.00766907 0.00256627 0)
(0.00535916 0.00304949 0)
(0.00291764 0.0034151 0)
(0.000452758 0.00406019 0)
(-0.00192627 0.00492103 0)
(-0.00397157 0.00582768 0)
(-0.00536193 0.00667354 0)
(-0.00584057 0.00754681 0)
(-0.0053833 0.00760192 0)
(-0.0037739 0.00502564 0)
(-0.00338292 -0.00398236 0)
(0.00203977 -0.02831 0)
(0.0112953 -0.00392725 0)
(0.0109918 -0.00349162 0)
(0.0124741 -0.00426087 0)
(0.0129919 -0.00466658 0)
(0.0136808 -0.00440069 0)
(0.0143652 -0.00362042 0)
(0.0147171 -0.00253497 0)
(0.0144176 -0.00121525 0)
(0.0136314 0.000157451 0)
(0.0124608 0.00141429 0)
(0.0107955 0.00249182 0)
(0.00864889 0.00335818 0)
(0.00612003 0.00399273 0)
(0.0033809 0.00444836 0)
(0.000647849 0.00512061 0)
(-0.00180866 0.00591733 0)
(-0.00371001 0.0065959 0)
(-0.00468987 0.00702202 0)
(-0.00449809 0.00736354 0)
(-0.00307044 0.00693185 0)
(-0.000498543 0.00413517 0)
(0.000547279 -0.00474641 0)
(0.00511563 -0.0282345 0)
(0.0115104 -0.00530868 0)
(0.0122865 -0.00311372 0)
(0.015842 -0.00379153 0)
(0.0173902 -0.00424252 0)
(0.0183606 -0.00406755 0)
(0.0188548 -0.00326954 0)
(0.0185565 -0.00200415 0)
(0.0173416 -0.000469112 0)
(0.015998 0.000931192 0)
(0.0144915 0.00229614 0)
(0.0126087 0.00351996 0)
(0.0103498 0.00450095 0)
(0.00777426 0.00518548 0)
(0.00493111 0.00560496 0)
(0.001995 0.0061691 0)
(-0.000532016 0.00675211 0)
(-0.00221728 0.00710793 0)
(-0.00290407 0.00708898 0)
(-0.0021581 0.00679247 0)
(0.000220831 0.00582033 0)
(0.00378062 0.00290762 0)
(0.00588686 -0.00506047 0)
(0.0100379 -0.0249489 0)
(0.0105054 -0.015132 0)
(0.0157395 -0.00775101 0)
(0.0224023 -0.0069204 0)
(0.0269243 -0.00637496 0)
(0.0300619 -0.00559594 0)
(0.0320194 -0.00418095 0)
(0.0327855 -0.00209324 0)
(0.0321572 0.000308986 0)
(0.0299811 0.00197495 0)
(0.0270081 0.00365177 0)
(0.0235295 0.00512127 0)
(0.0196763 0.00620171 0)
(0.0155147 0.00684689 0)
(0.0108977 0.00715803 0)
(0.00624727 0.00745814 0)
(0.00299189 0.00773191 0)
(0.00143998 0.00769185 0)
(0.00120212 0.00728589 0)
(0.0026015 0.00649784 0)
(0.00580161 0.0049387 0)
(0.0105239 0.00176866 0)
(0.0143818 -0.00523653 0)
(0.0216096 -0.0169163 0)
(-0.0184106 0.0081231 0)
(-0.0569634 0.0112174 0)
(-0.0929795 0.0100575 0)
(-0.115978 0.0061186 0)
(-0.1184 -0.00192594 0)
(-0.10514 -0.00655378 0)
(-0.0959149 0.00149274 0)
(-0.0918534 -0.00216833 0)
(-0.0741445 -0.00874765 0)
(-0.0526169 -0.00946383 0)
(-0.0348962 -0.00632123 0)
(-0.029322 0.00393855 0)
(-0.0362791 0.0023815 0)
(-0.0303964 -0.00649042 0)
(-0.0205122 -0.00275468 0)
(-0.0151897 -0.00363095 0)
(-0.008234 -0.00363862 0)
(-0.00127953 -0.00339968 0)
(0.00720336 0.00137041 0)
(-0.0228926 0.0215759 0)
(-0.0588018 0.0231789 0)
(-0.0862001 0.0171514 0)
(-0.0986078 0.00779852 0)
(-0.101223 -0.00170891 0)
(-0.099783 -0.00926517 0)
(-0.0915778 -0.00400468 0)
(-0.0770854 -0.00794342 0)
(-0.0615587 -0.0124258 0)
(-0.0508137 -0.01172 0)
(-0.0438779 -0.00823885 0)
(-0.0338432 -0.000593454 0)
(-0.0241904 -0.00127152 0)
(-0.0194529 -0.00610366 0)
(-0.0188909 -0.00231547 0)
(-0.0174983 -0.00396895 0)
(-0.0150619 -0.00368526 0)
(-0.0117536 -0.00309556 0)
(-0.00608818 0.000562063 0)
(-0.0264044 0.0404666 0)
(-0.0516001 0.0354913 0)
(-0.0691701 0.0237614 0)
(-0.0737746 0.00874252 0)
(-0.0759848 0.00030463 0)
(-0.0814479 -0.00894628 0)
(-0.0775707 -0.00829268 0)
(-0.0636703 -0.0125164 0)
(-0.0501223 -0.015802 0)
(-0.0451997 -0.0133128 0)
(-0.0439421 -0.0102365 0)
(-0.0338215 -0.00522819 0)
(-0.0210919 -0.00462888 0)
(-0.0176509 -0.00622011 0)
(-0.0185214 -0.00247778 0)
(-0.0183719 -0.00414176 0)
(-0.0189782 -0.00406058 0)
(-0.0162779 -0.00445315 0)
(-0.0155684 -0.00634114 0)
(-0.020668 0.0577127 0)
(-0.0344459 0.0434561 0)
(-0.0409677 0.0280237 0)
(-0.0438433 0.00810689 0)
(-0.0429478 0.000973925 0)
(-0.0547788 -0.00678668 0)
(-0.0584993 -0.0121643 0)
(-0.0472052 -0.0178539 0)
(-0.0333777 -0.0199479 0)
(-0.0310718 -0.0130529 0)
(-0.035203 -0.0111163 0)
(-0.0278832 -0.00962442 0)
(-0.0185455 -0.0068637 0)
(-0.020263 -0.00560471 0)
(-0.0220112 -0.00206886 0)
(-0.0188284 -0.00320285 0)
(-0.014793 -0.00386928 0)
(-0.00229369 -0.00669193 0)
(0.00645402 -0.0137985 0)
(-0.00640523 0.0641694 0)
(-0.0151152 0.0461099 0)
(-0.0141855 0.0290962 0)
(-0.020092 0.00956164 0)
(-0.0187498 -0.00025175 0)
(-0.0204457 -0.000496312 0)
(-0.0285588 -0.0142352 0)
(-0.0213037 -0.023939 0)
(-0.00777211 -0.02657 0)
(-0.00388823 -0.0122121 0)
(-0.0119163 -0.00996347 0)
(-0.0120089 -0.0128439 0)
(-0.0166518 -0.00716563 0)
(-0.0339751 -0.00262635 0)
(-0.0374376 -0.00307611 0)
(-0.0177366 -0.00815141 0)
(0.0109122 -0.0119361 0)
(0.0429601 -0.0184692 0)
(0.0812519 0.00321772 0)
(0.0125858 0.0678698 0)
(0.0123524 0.0476454 0)
(0.0145669 0.0298108 0)
(0.000231302 0.0138957 0)
(-0.00809799 -0.00110548 0)
(-0.00428313 -9.04862e-05 0)
(-0.000533101 -0.0145618 0)
(0.00449322 -0.027411 0)
(0.00789083 -0.0289735 0)
(0.00734518 -0.0110429 0)
(0.00647142 -0.00933825 0)
(0.011035 -0.0137301 0)
(-0.0115785 0.0037809 0)
(-0.0486598 0.00382513 0)
(-0.0364212 -0.0144239 0)
(-0.00794403 -0.0229815 0)
(0.0259342 -0.0307189 0)
(0.0557566 -0.0416194 0)
(0.0927895 0.0393351 0)
(0.0469286 0.0576148 0)
(0.0517081 0.0452829 0)
(0.0484596 0.033972 0)
(0.0257605 0.0217248 0)
(0.00583141 0.0014779 0)
(0.00625829 -0.00354854 0)
(0.01403 -0.0158189 0)
(0.017042 -0.0279158 0)
(0.0121748 -0.0270409 0)
(0.00591302 -0.00988766 0)
(0.00495937 -0.00958472 0)
(0.00625087 -0.011802 0)
(-0.00520738 0.026722 0)
(-0.0255345 0.00745016 0)
(-0.0154505 -0.0227509 0)
(0.00291318 -0.0330301 0)
(0.0278074 -0.0426347 0)
(0.0406645 -0.0505979 0)
(0.069468 0.0675101 0)
(0.0853475 0.0152487 0)
(0.0837952 0.0379934 0)
(0.0821039 0.0402748 0)
(0.0570758 0.0331703 0)
(0.0275353 0.0084761 0)
(0.020646 -0.00541464 0)
(0.0239039 -0.0169191 0)
(0.0213673 -0.0264075 0)
(0.0105725 -0.0228359 0)
(0.00295214 -0.00928064 0)
(0.00246971 -0.0091804 0)
(-0.00186948 -0.00942265 0)
(-0.00436823 0.0257091 0)
(-0.00138627 0.00576559 0)
(0.00410184 -0.0270808 0)
(0.0114806 -0.0395788 0)
(0.0240781 -0.0494345 0)
(0.0202537 -0.0530406 0)
(0.0421559 0.0889091 0)
(0.00921374 -0.0223912 0)
(0.0180042 -0.0151426 0)
(0.0278076 -0.012215 0)
(0.0353463 -0.00993647 0)
(0.0408418 -0.00791248 0)
(0.0446214 -0.00550963 0)
(0.0467799 -0.00243141 0)
(0.0475094 0.000678889 0)
(0.0470377 0.00332333 0)
(0.0457284 0.00560849 0)
(0.0439669 0.0076662 0)
(0.0418691 0.00953475 0)
(0.039347 0.0112525 0)
(0.0363479 0.0126732 0)
(0.0327095 0.0130806 0)
(0.0282144 0.0116271 0)
(0.0237375 0.00938789 0)
(0.0202297 0.00711022 0)
(0.0183494 0.00426434 0)
(0.0200269 0.00125443 0)
(0.0262498 -0.00335435 0)
(0.036772 -0.0116558 0)
(0.0609515 -0.0313808 0)
(0.00609056 -0.0329695 0)
(0.0156331 -0.0282002 0)
(0.0266711 -0.0230092 0)
(0.0354034 -0.0179023 0)
(0.0420439 -0.0137307 0)
(0.0469973 -0.0095281 0)
(0.050245 -0.00470284 0)
(0.0518244 -9.24728e-05 0)
(0.0521106 0.0035458 0)
(0.0516134 0.00629428 0)
(0.0507458 0.00842615 0)
(0.0497437 0.0101941 0)
(0.0487371 0.0117872 0)
(0.0479926 0.0130385 0)
(0.0479414 0.0136433 0)
(0.0488382 0.0131866 0)
(0.0509229 0.0114563 0)
(0.0546512 0.00820211 0)
(0.0604141 0.00280846 0)
(0.0683808 -0.00577701 0)
(0.0783348 -0.0172163 0)
(0.0892641 -0.0332402 0)
(0.0963818 -0.0560049 0)
(0.0086749 -0.0421894 0)
(0.0157882 -0.0390513 0)
(0.0239952 -0.0322491 0)
(0.0311099 -0.0251526 0)
(0.0370875 -0.0195722 0)
(0.0419093 -0.0139703 0)
(0.0452672 -0.00733277 0)
(0.0470217 -0.0012588 0)
(0.0475152 0.00341534 0)
(0.0472488 0.00668904 0)
(0.0466598 0.00897509 0)
(0.0461432 0.0106089 0)
(0.0460156 0.0118462 0)
(0.0465931 0.0122782 0)
(0.0482295 0.01167 0)
(0.0510222 0.00990389 0)
(0.0551634 0.00661368 0)
(0.0609454 0.00163916 0)
(0.0683531 -0.00516982 0)
(0.0770084 -0.0141291 0)
(0.0860119 -0.0246521 0)
(0.0927979 -0.036862 0)
(0.0918491 -0.0482335 0)
(0.00936414 -0.0549695 0)
(0.0142479 -0.0472901 0)
(0.0205511 -0.0386271 0)
(0.0259559 -0.0306123 0)
(0.0305517 -0.0242919 0)
(0.0335561 -0.0173249 0)
(0.0355289 -0.00968125 0)
(0.0370181 -0.00241285 0)
(0.0375121 0.00321648 0)
(0.037178 0.00699176 0)
(0.0365014 0.00951835 0)
(0.0360178 0.0107785 0)
(0.0364459 0.0113184 0)
(0.037922 0.0107638 0)
(0.0401622 0.00921446 0)
(0.0430173 0.00655248 0)
(0.0468177 0.00175629 0)
(0.0521115 -0.00493149 0)
(0.0584658 -0.0126472 0)
(0.0645513 -0.021743 0)
(0.0693563 -0.0307271 0)
(0.0708836 -0.0376362 0)
(0.0651315 -0.0395995 0)
(0.000630011 -0.0576653 0)
(0.00788431 -0.0531946 0)
(0.0137563 -0.0435558 0)
(0.0188269 -0.0349694 0)
(0.0217402 -0.0271122 0)
(0.022098 -0.0179062 0)
(0.0217024 -0.0107663 0)
(0.0221487 -0.00304128 0)
(0.0224455 0.0035369 0)
(0.02206 0.00785786 0)
(0.0213852 0.0104679 0)
(0.0210772 0.0108093 0)
(0.0216827 0.0102085 0)
(0.0231856 0.00884117 0)
(0.0252304 0.0068165 0)
(0.0276723 0.00343992 0)
(0.0306478 -0.00289028 0)
(0.0341563 -0.010694 0)
(0.0377817 -0.0181253 0)
(0.0404353 -0.02586 0)
(0.0409889 -0.0322283 0)
(0.038794 -0.034159 0)
(0.0339479 -0.0304594 0)
(-0.0037865 -0.061438 0)
(0.00183846 -0.0590742 0)
(0.00458001 -0.0487148 0)
(0.00737625 -0.0386252 0)
(0.00842773 -0.0279478 0)
(0.00789399 -0.0170013 0)
(0.0068568 -0.0103281 0)
(0.00599155 -0.00313928 0)
(0.00532823 0.00368936 0)
(0.00463419 0.00828704 0)
(0.00420695 0.0105518 0)
(0.00420321 0.0105378 0)
(0.00447521 0.00916568 0)
(0.00525336 0.00706902 0)
(0.00676192 0.00439988 0)
(0.00920042 0.000457664 0)
(0.01215 -0.00576948 0)
(0.0147632 -0.0132111 0)
(0.0167373 -0.0200981 0)
(0.0179931 -0.0262361 0)
(0.0179105 -0.0305494 0)
(0.0165583 -0.0311212 0)
(0.0153893 -0.0281213 0)
(-0.00575034 -0.0600791 0)
(-0.00571238 -0.0623359 0)
(-0.00369149 -0.0530285 0)
(-0.00206917 -0.0409985 0)
(-0.00171431 -0.0282351 0)
(-0.00180716 -0.016647 0)
(-0.00254768 -0.00894167 0)
(-0.00395573 -0.00175007 0)
(-0.00522457 0.00485355 0)
(-0.00611468 0.00925363 0)
(-0.00667373 0.0110657 0)
(-0.0069759 0.0107785 0)
(-0.00702533 0.00904315 0)
(-0.00660931 0.00627742 0)
(-0.00542983 0.00267812 0)
(-0.00346929 -0.00213256 0)
(-0.00121211 -0.00840193 0)
(0.000707025 -0.0152691 0)
(0.00222942 -0.0218433 0)
(0.00340424 -0.0273307 0)
(0.00406234 -0.030827 0)
(0.00457708 -0.0315555 0)
(0.00584233 -0.0300949 0)
(-0.00933207 -0.0534538 0)
(-0.0139524 -0.0585157 0)
(-0.00982291 -0.0520553 0)
(-0.00736337 -0.0400455 0)
(-0.00716131 -0.0272699 0)
(-0.0075559 -0.0159629 0)
(-0.00803848 -0.0075633 0)
(-0.00914494 -0.000262846 0)
(-0.010529 0.00588576 0)
(-0.0116346 0.0097524 0)
(-0.012275 0.0111778 0)
(-0.0126219 0.0106734 0)
(-0.0127584 0.00864704 0)
(-0.01248 0.00544741 0)
(-0.0115478 0.00131171 0)
(-0.0100027 -0.00376379 0)
(-0.00825436 -0.00971779 0)
(-0.00660543 -0.0160149 0)
(-0.00507307 -0.0221029 0)
(-0.00367054 -0.0271187 0)
(-0.00231432 -0.0303834 0)
(-0.000432986 -0.0317124 0)
(0.00247485 -0.0318115 0)
(-0.016024 -0.0396518 0)
(-0.022363 -0.0596613 0)
(-0.0153974 -0.0537599 0)
(-0.0121363 -0.0387987 0)
(-0.0117584 -0.0253186 0)
(-0.0113974 -0.0147844 0)
(-0.0107575 -0.00673659 0)
(-0.0111653 0.00061335 0)
(-0.0122282 0.00652985 0)
(-0.0128493 0.00996239 0)
(-0.0128239 0.0110729 0)
(-0.0124692 0.0105182 0)
(-0.0120221 0.0084777 0)
(-0.0113068 0.00509572 0)
(-0.0100622 0.000705373 0)
(-0.00831898 -0.00442981 0)
(-0.0065505 -0.0102523 0)
(-0.00511336 -0.0164436 0)
(-0.00403451 -0.0224945 0)
(-0.00334971 -0.0275094 0)
(-0.00286331 -0.0308938 0)
(-0.00191138 -0.0325598 0)
(-0.000333096 -0.0321929 0)
(0.0477198 0.000931066 0)
(-0.000262832 -0.0518917 0)
(-0.0220793 -0.0518621 0)
(-0.0234599 -0.0366992 0)
(-0.0202127 -0.0241195 0)
(-0.0179416 -0.0157903 0)
(-0.0171807 -0.00828023 0)
(-0.0168678 -0.000151686 0)
(-0.0158962 0.00574489 0)
(-0.0145 0.00868254 0)
(-0.0132719 0.00953757 0)
(-0.0120764 0.00923952 0)
(-0.0106498 0.007494 0)
(-0.0090742 0.00419468 0)
(-0.00734803 -0.000228289 0)
(-0.00536514 -0.00503338 0)
(-0.00341359 -0.010228 0)
(-0.00192121 -0.0157927 0)
(-0.00120618 -0.0211998 0)
(-0.0013032 -0.0256483 0)
(-0.00172706 -0.0288087 0)
(-0.00109225 -0.0309268 0)
(0.00119678 -0.0324956 0)
(0.0353594 -0.0761722 0)
(0.0327635 -0.0318746 0)
(0.00774163 -0.0524056 0)
(-0.0179301 -0.047191 0)
(-0.0389446 -0.0320171 0)
(-0.0518161 -0.0195508 0)
(-0.0578249 -0.00865323 0)
(-0.0587088 0.00138769 0)
(-0.0561062 0.00753863 0)
(-0.0522799 0.0104223 0)
(-0.0488824 0.0109693 0)
(-0.0459853 0.00976747 0)
(-0.0431127 0.00640281 0)
(-0.0401182 0.000940173 0)
(-0.0370224 -0.00587074 0)
(-0.0339064 -0.0128769 0)
(-0.030969 -0.0193105 0)
(-0.028401 -0.025246 0)
(-0.026279 -0.0306232 0)
(-0.0244679 -0.0354246 0)
(-0.0228224 -0.0402271 0)
(-0.0193961 -0.0455971 0)
(-0.0178865 -0.0476097 0)
(-0.0165839 -0.0770589 0)
(-0.0049814 -0.0136526 0)
(-0.0232907 -0.00939385 0)
(-0.0447847 -0.00737088 0)
(-0.0633618 -0.00378161 0)
(-0.0759 -0.00431426 0)
(-0.0829352 -0.00321562 0)
(-0.0842739 -0.00165238 0)
(-0.0807335 0.000493639 0)
(-0.0755427 0.00335601 0)
(-0.0707401 0.00522988 0)
(-0.0668026 0.00483016 0)
(-0.0632717 0.00228821 0)
(-0.0597577 -0.00206345 0)
(-0.0563732 -0.00746358 0)
(-0.0532186 -0.0131822 0)
(-0.0502966 -0.018713 0)
(-0.0476224 -0.023915 0)
(-0.0452004 -0.0287036 0)
(-0.0428945 -0.0330575 0)
(-0.040982 -0.0371478 0)
(-0.0381731 -0.0410509 0)
(-0.0348209 -0.0419011 0)
(-0.0371355 -0.0549545 0)
(-0.0367966 -0.0113378 0)
(-0.047689 0.00603638 0)
(-0.0601164 0.0104455 0)
(-0.0719891 0.00883935 0)
(-0.0823118 0.00548975 0)
(-0.0895811 0.00206586 0)
(-0.0919984 -0.00251036 0)
(-0.0902783 -0.00377578 0)
(-0.0859094 -0.00216339 0)
(-0.0812035 0.000386098 0)
(-0.0773433 0.000778135 0)
(-0.0738806 -0.00151836 0)
(-0.07058 -0.00552983 0)
(-0.0674169 -0.0104718 0)
(-0.0645712 -0.0156816 0)
(-0.0619989 -0.020796 0)
(-0.059638 -0.0256311 0)
(-0.0574475 -0.0301025 0)
(-0.055386 -0.0342003 0)
(-0.0538419 -0.0379908 0)
(-0.0514958 -0.0413817 0)
(-0.0489406 -0.0421745 0)
(-0.0367365 -0.0200441 0)
(-0.0461665 0.00697916 0)
(-0.0567857 0.0166373 0)
(-0.0647613 0.0194066 0)
(-0.0725142 0.0182921 0)
(-0.0797778 0.0138448 0)
(-0.0857559 0.00709698 0)
(-0.0888433 -0.00139096 0)
(-0.088937 -0.00593019 0)
(-0.0867042 -0.00619009 0)
(-0.082992 -0.00380283 0)
(-0.0794079 -0.00281991 0)
(-0.0761804 -0.00500707 0)
(-0.0730294 -0.00880648 0)
(-0.0701733 -0.0134153 0)
(-0.0677013 -0.018236 0)
(-0.065607 -0.0230155 0)
(-0.0638116 -0.0275461 0)
(-0.0622707 -0.0317227 0)
(-0.0609267 -0.0355113 0)
(-0.0602785 -0.0389205 0)
(-0.0585356 -0.0419019 0)
(-0.0567194 -0.0431263 0)
(-0.0278402 0.0117236 0)
(-0.0407546 0.0233958 0)
(-0.0524308 0.0260858 0)
(-0.0603269 0.0261787 0)
(-0.0662866 0.0242449 0)
(-0.0713224 0.0191634 0)
(-0.0752168 0.0109899 0)
(-0.0785677 0.000992842 0)
(-0.0806293 -0.0057069 0)
(-0.0805019 -0.00822906 0)
(-0.0788639 -0.00658872 0)
(-0.0761594 -0.00593987 0)
(-0.0732282 -0.008024 0)
(-0.0704719 -0.0116302 0)
(-0.0680902 -0.0158958 0)
(-0.0661681 -0.0203571 0)
(-0.0646798 -0.024856 0)
(-0.0635628 -0.0291547 0)
(-0.0627669 -0.0331261 0)
(-0.0622337 -0.0367004 0)
(-0.0623278 -0.0398691 0)
(-0.0612478 -0.0426097 0)
(-0.0600417 -0.043799 0)
(-0.0206413 0.036406 0)
(-0.0315449 0.0387539 0)
(-0.0424352 0.0359832 0)
(-0.050249 0.0327833 0)
(-0.0555439 0.0289311 0)
(-0.0590372 0.022596 0)
(-0.0618561 0.0140758 0)
(-0.0647567 0.00391406 0)
(-0.0677489 -0.0038605 0)
(-0.0697737 -0.00798111 0)
(-0.0699731 -0.00803759 0)
(-0.0685363 -0.00836227 0)
(-0.0663814 -0.01057 0)
(-0.0643654 -0.0138954 0)
(-0.0626972 -0.0177189 0)
(-0.0614689 -0.0217528 0)
(-0.0606581 -0.0258553 0)
(-0.0602408 -0.0298088 0)
(-0.0601668 -0.033477 0)
(-0.0603379 -0.0367857 0)
(-0.0611853 -0.039732 0)
(-0.0606792 -0.0423013 0)
(-0.0601056 -0.0433182 0)
(-0.014133 0.0558453 0)
(-0.02219 0.0514569 0)
(-0.0310285 0.0451554 0)
(-0.0376482 0.0390666 0)
(-0.0421831 0.0329291 0)
(-0.0451857 0.0254068 0)
(-0.0475486 0.0164679 0)
(-0.0502514 0.00714955 0)
(-0.0534192 -0.00100021 0)
(-0.0563367 -0.00597454 0)
(-0.0578336 -0.00799666 0)
(-0.0576815 -0.00962966 0)
(-0.0567904 -0.0121422 0)
(-0.0558043 -0.0152766 0)
(-0.0550366 -0.0187461 0)
(-0.0545886 -0.02241 0)
(-0.0544812 -0.0261304 0)
(-0.0547325 -0.0297326 0)
(-0.0553019 -0.0330954 0)
(-0.0561223 -0.0361489 0)
(-0.0575062 -0.0388874 0)
(-0.0576362 -0.041313 0)
(-0.0577177 -0.0420279 0)
(-0.00833922 0.0687843 0)
(-0.0135605 0.0606014 0)
(-0.0198737 0.0521845 0)
(-0.0248441 0.0442316 0)
(-0.0284908 0.0363823 0)
(-0.0311639 0.0279693 0)
(-0.0335427 0.0189862 0)
(-0.0361994 0.01002 0)
(-0.0393169 0.00231016 0)
(-0.0423839 -0.00332341 0)
(-0.0445166 -0.00680782 0)
(-0.045511 -0.00959252 0)
(-0.0457989 -0.0125016 0)
(-0.0458797 -0.0156259 0)
(-0.0460146 -0.018914 0)
(-0.0463252 -0.0223158 0)
(-0.0468883 -0.0257316 0)
(-0.0477341 -0.029035 0)
(-0.0488477 -0.0321294 0)
(-0.0501453 -0.0349534 0)
(-0.052058 -0.037504 0)
(-0.0526229 -0.0397535 0)
(-0.0531726 -0.0401273 0)
(-0.00365534 0.0755377 0)
(-0.00627853 0.0661415 0)
(-0.0101113 0.0568576 0)
(-0.0133771 0.0479802 0)
(-0.016081 0.0392571 0)
(-0.0183766 0.0303985 0)
(-0.0206525 0.021469 0)
(-0.0232572 0.0129131 0)
(-0.0262266 0.00540116 0)
(-0.0292199 -0.000510748 0)
(-0.0316947 -0.00490665 0)
(-0.0334156 -0.00848705 0)
(-0.0346016 -0.0118008 0)
(-0.0355411 -0.015052 0)
(-0.0364286 -0.0182911 0)
(-0.0373912 -0.0215427 0)
(-0.0385096 -0.0247452 0)
(-0.0398326 -0.0278228 0)
(-0.0413622 -0.0307027 0)
(-0.0430608 -0.0333296 0)
(-0.0452412 -0.0357004 0)
(-0.0462309 -0.0377847 0)
(-0.047165 -0.0377937 0)
(-0.000323838 0.0774693 0)
(-0.000830747 0.0685712 0)
(-0.00246223 0.0594135 0)
(-0.00416109 0.0503736 0)
(-0.00588883 0.0414257 0)
(-0.00766621 0.0325361 0)
(-0.00966664 0.023829 0)
(-0.0120411 0.0156227 0)
(-0.0147597 0.00834392 0)
(-0.0175659 0.00227298 0)
(-0.020122 -0.0026161 0)
(-0.0222333 -0.00671179 0)
(-0.0239739 -0.0103721 0)
(-0.0254935 -0.0137829 0)
(-0.0269194 -0.0170562 0)
(-0.0283537 -0.0202355 0)
(-0.0298755 -0.0233073 0)
(-0.0315393 -0.0262272 0)
(-0.0333532 -0.0289447 0)
(-0.0352632 -0.0314127 0)
(-0.0377157 -0.0336378 0)
(-0.0388657 -0.0355474 0)
(-0.0399878 -0.0352402 0)
(0.00161687 0.0762181 0)
(0.00266647 0.0686263 0)
(0.00280218 0.0601717 0)
(0.00246424 0.0515025 0)
(0.00170378 0.0427954 0)
(0.000568569 0.0341845 0)
(-0.00097438 0.0258462 0)
(-0.00295052 0.0180227 0)
(-0.00528412 0.0109857 0)
(-0.00777582 0.00490834 0)
(-0.0102002 -0.000228099 0)
(-0.0124057 -0.00462731 0)
(-0.0143866 -0.00852785 0)
(-0.0162063 -0.0120888 0)
(-0.0179372 -0.015419 0)
(-0.019652 -0.0185775 0)
(-0.0214143 -0.0215736 0)
(-0.0232708 -0.0243889 0)
(-0.0252361 -0.0269883 0)
(-0.0273015 -0.0293374 0)
(-0.0297594 -0.0314331 0)
(-0.0310817 -0.0332108 0)
(-0.0323346 -0.0326107 0)
(0.00236778 0.0733275 0)
(0.00442613 0.0670831 0)
(0.00584159 0.0595464 0)
(0.0066048 0.0515406 0)
(0.00674583 0.0433587 0)
(0.00632538 0.0352318 0)
(0.00537931 0.0273622 0)
(0.00394821 0.0199564 0)
(0.00212521 0.0132066 0)
(6.91124e-05 0.00722886 0)
(-0.0020494 0.00202116 0)
(-0.00411685 -0.0025152 0)
(-0.00608069 -0.00655317 0)
(-0.00795872 -0.0102149 0)
(-0.00978425 -0.0135938 0)
(-0.0115987 -0.0167473 0)
(-0.013446 -0.0196972 0)
(-0.0153671 -0.0224396 0)
(-0.0173731 -0.0249524 0)
(-0.0194199 -0.0272065 0)
(-0.0219352 -0.0292022 0)
(-0.0231919 -0.0308582 0)
(-0.0243799 -0.0300213 0)
(0.00231564 0.0699013 0)
(0.00492642 0.0645887 0)
(0.00714235 0.0579083 0)
(0.00872929 0.0506471 0)
(0.00965247 0.0431158 0)
(0.00994228 0.0355798 0)
(0.00965015 0.0282499 0)
(0.00883907 0.0213079 0)
(0.00760354 0.0149023 0)
(0.0060735 0.00912111 0)
(0.00438481 0.00397299 0)
(0.00262871 -0.000585418 0)
(0.000868193 -0.00466552 0)
(-0.000884392 -0.00836837 0)
(-0.00263383 -0.0117659 0)
(-0.00439623 -0.0149067 0)
(-0.00619876 -0.0178167 0)
(-0.0080672 -0.0204987 0)
(-0.0100108 -0.0229408 0)
(-0.012023 -0.0251114 0)
(-0.0143575 -0.0270204 0)
(-0.0156137 -0.028593 0)
(-0.0167638 -0.0275285 0)
(0.0018617 0.0666419 0)
(0.00466318 0.0616706 0)
(0.00730536 0.0556263 0)
(0.00945322 0.0490443 0)
(0.0110017 0.042169 0)
(0.0119304 0.0352491 0)
(0.0122738 0.0284819 0)
(0.0120898 0.022026 0)
(0.0114609 0.0160032 0)
(0.0104918 0.0104872 0)
(0.00929232 0.00549738 0)
(0.00794387 0.00101788 0)
(0.00650088 -0.0030122 0)
(0.00499857 -0.00668801 0)
(0.00344715 -0.010061 0)
(0.00184821 -0.0131691 0)
(0.000192972 -0.0160338 0)
(-0.00154095 -0.0186612 0)
(-0.00334997 -0.0210372 0)
(-0.00519145 -0.0231335 0)
(-0.00746218 -0.0249746 0)
(-0.00848044 -0.0264683 0)
(-0.00949171 -0.025226 0)
(0.00131799 0.0638758 0)
(0.00408792 0.0586774 0)
(0.00687894 0.0529916 0)
(0.0093661 0.046943 0)
(0.0113735 0.0406527 0)
(0.0128268 0.0343169 0)
(0.01373 0.0281 0)
(0.0141215 0.0221336 0)
(0.014065 0.0165169 0)
(0.0136415 0.0113129 0)
(0.0129387 0.00654668 0)
(0.012029 0.00221899 0)
(0.0109573 -0.00169387 0)
(0.00977034 -0.00528404 0)
(0.00848711 -0.00858742 0)
(0.00712091 -0.0116302 0)
(0.00567272 -0.014428 0)
(0.00413534 -0.016984 0)
(0.0025128 -0.0192829 0)
(0.000799182 -0.0213076 0)
(-0.0012004 -0.0230606 0)
(-0.00210089 -0.0244705 0)
(-0.0030203 -0.023221 0)
(0.000866801 0.0616423 0)
(0.00349052 0.0557901 0)
(0.00628499 0.0502058 0)
(0.00894861 0.0445243 0)
(0.0112617 0.0387138 0)
(0.0131081 0.0328968 0)
(0.0144609 0.0271921 0)
(0.0153355 0.021699 0)
(0.0157747 0.016494 0)
(0.0158386 0.0116289 0)
(0.0155958 0.00712975 0)
(0.0151077 0.00300713 0)
(0.0144125 -0.000739169 0)
(0.0135593 -0.0041961 0)
(0.012572 -0.00739119 0)
(0.0114695 -0.0103392 0)
(0.0102617 -0.0130491 0)
(0.00894464 -0.0155201 0)
(0.00752887 -0.0177377 0)
(0.00606412 -0.0196831 0)
(0.00419347 -0.0213435 0)
(0.00342541 -0.0226529 0)
(0.0026518 -0.0213894 0)
(0.000597896 0.059821 0)
(0.00307128 0.0530623 0)
(0.00579825 0.0473874 0)
(0.00853452 0.0419268 0)
(0.0110306 0.0364896 0)
(0.0131443 0.0311159 0)
(0.0148255 0.0258725 0)
(0.0160704 0.0208229 0)
(0.0169037 0.0160197 0)
(0.0173681 0.0115018 0)
(0.0175163 0.00729311 0)
(0.0173979 0.00340993 0)
(0.0170464 -0.000136591 0)
(0.0165088 -0.00342591 0)
(0.0158112 -0.00648184 0)
(0.014974 -0.0093091 0)
(0.0140096 -0.0119103 0)
(0.0129232 -0.0142807 0)
(0.0117246 -0.0164058 0)
(0.0104267 -0.0182622 0)
(0.00886204 -0.0198505 0)
(0.00808592 -0.0210963 0)
(0.00736854 -0.0196776 0)
(0.000531798 0.0582154 0)
(0.00289899 0.0504645 0)
(0.00557213 0.0445874 0)
(0.00832831 0.0392446 0)
(0.0109181 0.0340945 0)
(0.0131907 0.0290955 0)
(0.0150844 0.0242616 0)
(0.0165833 0.0196197 0)
(0.0176995 0.0151981 0)
(0.0184632 0.0110218 0)
(0.018915 0.00711034 0)
(0.0190935 0.00348417 0)
(0.0190285 0.000155543 0)
(0.018764 -0.0029466 0)
(0.0183251 -0.00584273 0)
(0.0177305 -0.00852973 0)
(0.0169948 -0.0110052 0)
(0.0161204 -0.0132608 0)
(0.0151232 -0.0152803 0)
(0.0140578 -0.017038 0)
(0.0126022 -0.0185446 0)
(0.0120158 -0.0197142 0)
(0.0114147 -0.0181664 0)
(0.000659316 0.0566127 0)
(0.0030106 0.0479178 0)
(0.00566519 0.0418067 0)
(0.00842674 0.0365307 0)
(0.0110535 0.0316139 0)
(0.0133997 0.02694 0)
(0.0154042 0.0224725 0)
(0.017048 0.0182036 0)
(0.0183379 0.0141385 0)
(0.0192973 0.0102886 0)
(0.0199588 0.00666858 0)
(0.020352 0.00330274 0)
(0.020505 0.000196594 0)
(0.0204572 -0.00271137 0)
(0.0202305 -0.00543676 0)
(0.0198405 -0.00797172 0)
(0.0192992 -0.0103092 0)
(0.0186141 -0.0124396 0)
(0.0177989 -0.0143432 0)
(0.0168593 -0.0159992 0)
(0.0156727 -0.0174086 0)
(0.0151022 -0.0184949 0)
(0.0145125 -0.0168509 0)
(0.000951472 0.054809 0)
(0.00337368 0.0453188 0)
(0.00608333 0.0390136 0)
(0.0088608 0.0338065 0)
(0.0114905 0.0291075 0)
(0.0138449 0.0247338 0)
(0.0158743 0.0206043 0)
(0.0175659 0.01668 0)
(0.0189286 0.0129457 0)
(0.0199852 0.0094013 0)
(0.0207646 0.00605762 0)
(0.0212905 0.00294377 0)
(0.02159 5.33654e-05 0)
(0.0216976 -0.00266331 0)
(0.02163 -0.00521601 0)
(0.0213982 -0.0075931 0)
(0.0210121 -0.00978566 0)
(0.0204744 -0.0117822 0)
(0.0197984 -0.0135632 0)
(0.019037 -0.015107 0)
(0.0179094 -0.0164126 0)
(0.0174869 -0.0174088 0)
(0.0170145 -0.0156852 0)
(0.00138201 0.0526239 0)
(0.00397485 0.0425611 0)
(0.00680169 0.0361623 0)
(0.00961735 0.0310752 0)
(0.0122315 0.0266158 0)
(0.0145435 0.0225446 0)
(0.0165256 0.0187417 0)
(0.01818 0.0151424 0)
(0.0195253 0.0117152 0)
(0.0205894 0.00845205 0)
(0.0214023 0.00536269 0)
(0.0219847 0.00248244 0)
(0.0223641 -0.000207748 0)
(0.0225678 -0.00274406 0)
(0.0226062 -0.00512848 0)
(0.0224846 -0.00734757 0)
(0.0222078 -0.00939188 0)
(0.0217807 -0.0112488 0)
(0.0212132 -0.0129009 0)
(0.0205117 -0.0143222 0)
(0.019589 -0.0155195 0)
(0.0191211 -0.016414 0)
(0.0186254 -0.0146357 0)
(0.00192556 0.0499037 0)
(0.00476813 0.0395469 0)
(0.00779043 0.0332052 0)
(0.0106689 0.0283325 0)
(0.0132531 0.0241698 0)
(0.0154783 0.0204288 0)
(0.0173485 0.0169582 0)
(0.0188895 0.0136731 0)
(0.0201368 0.0105318 0)
(0.0211293 0.00752286 0)
(0.0219006 0.00466004 0)
(0.0224735 0.00198593 0)
(0.0228746 -0.000526859 0)
(0.0231225 -0.00289932 0)
(0.0232187 -0.0051246 0)
(0.0231618 -0.00718935 0)
(0.022953 -0.00908466 0)
(0.02259 -0.0108003 0)
(0.0220857 -0.0123193 0)
(0.0214877 -0.0136171 0)
(0.0205576 -0.0147021 0)
(0.0201694 -0.0155015 0)
(0.0196863 -0.0136807 0)
(0.00256744 0.0465196 0)
(0.00574621 0.0361866 0)
(0.00901954 0.030096 0)
(0.0119814 0.0255736 0)
(0.0145183 0.0217978 0)
(0.0166109 0.018439 0)
(0.0183059 0.0153209 0)
(0.0196618 0.0123466 0)
(0.0207375 0.00947064 0)
(0.0215877 0.00668539 0)
(0.0222538 0.00401685 0)
(0.0227632 0.00151048 0)
(0.0231399 -0.000854086 0)
(0.0233901 -0.00308299 0)
(0.0235041 -0.00516077 0)
(0.0234718 -0.00707573 0)
(0.0232876 -0.00882307 0)
(0.0229526 -0.0103969 0)
(0.0224777 -0.0117823 0)
(0.0218629 -0.0129614 0)
(0.0210623 -0.0139366 0)
(0.020567 -0.0146374 0)
(0.0199709 -0.0128063 0)
(0.00330145 0.0423548 0)
(0.0068871 0.0323934 0)
(0.0104792 0.0267937 0)
(0.0135335 0.0228009 0)
(0.0159902 0.0195359 0)
(0.0178921 0.0166319 0)
(0.0193422 0.0138974 0)
(0.0204405 0.0112334 0)
(0.0212748 0.00860032 0)
(0.0219197 0.00600169 0)
(0.0224282 0.00348502 0)
(0.0228339 0.00109943 0)
(0.0231531 -0.00115185 0)
(0.0233758 -0.00325967 0)
(0.0234767 -0.00520081 0)
(0.0234339 -0.00696892 0)
(0.0232378 -0.00856775 0)
(0.0228865 -0.0099988 0)
(0.0223927 -0.011253 0)
(0.021805 -0.0123134 0)
(0.0209325 -0.013178 0)
(0.0204491 -0.0137873 0)
(0.0198529 -0.0119627 0)
(0.00413873 0.0372927 0)
(0.00821785 0.0280805 0)
(0.0121733 0.0232685 0)
(0.0153072 0.0200367 0)
(0.017625 0.0174391 0)
(0.0192578 0.0150775 0)
(0.0203827 0.0127607 0)
(0.0211485 0.0104038 0)
(0.0216747 0.00798415 0)
(0.0220579 0.00552469 0)
(0.0223675 0.003102 0)
(0.0226428 0.000782172 0)
(0.0228859 -0.00139642 0)
(0.0230642 -0.00340535 0)
(0.0231297 -0.00521651 0)
(0.0230461 -0.00683529 0)
(0.0227995 -0.00828167 0)
(0.0223968 -0.0095684 0)
(0.0218563 -0.0106936 0)
(0.0211875 -0.0116384 0)
(0.0203825 -0.0124027 0)
(0.0197561 -0.0129142 0)
(0.0190518 -0.0111361 0)
(0.00511592 0.0312002 0)
(0.00975476 0.0231581 0)
(0.0141205 0.0195123 0)