/*--------------------------------*- C++ -*----------------------------------*\
  =========                 |
  \\      /  F ield         | OpenFOAM: The Open Source CFD Toolbox
   \\    /   O peration     | Website:  https://openfoam.org
    \\  /    A nd           | Version:  13
     \\/     M anipulation  |
\*---------------------------------------------------------------------------*/
FoamFile
{
    format      ascii;
    class       volScalarField;
    location    "0.85";
    object      alpha.oil;
}
// * * * * * * * * * * * * * * * * * * * * * * * * * * * * * * * * * * * * * //

dimensions      [];

internalField   nonuniform List<scalar> 
2268
(
1.84744e-28
7.76776e-27
6.54074e-25
7.36835e-23
1.26769e-18
4.79307e-16
1.27421e-14
4.93509e-14
2.74989e-13
1.00543e-12
3.03595e-12
8.18804e-12
2.06511e-11
5.03472e-11
1.25267e-10
3.28011e-10
8.47175e-10
2.06189e-09
2.97351e-09
3.82766e-09
0.00017593
0.00056865
0.000568658
4.5071e-24
1.73823e-22
3.05191e-21
4.02938e-20
5.51481e-19
6.71401e-18
2.15238e-16
5.02942e-15
1.62824e-13
7.42891e-13
2.12081e-12
6.5624e-12
2.12989e-11
6.72966e-11
2.14963e-10
6.46228e-10
1.85261e-09
6.19792e-09
1.83185e-08
3.21891e-09
1.44154e-05
0.000213328
0.000500624
1.34876e-24
4.65854e-23
6.38452e-22
4.9692e-21
3.64612e-20
5.22511e-19
4.41745e-18
3.84227e-17
3.18415e-16
1.44401e-14
4.19231e-13
8.45755e-12
4.18318e-11
1.41722e-10
4.63315e-10
1.3193e-09
2.49553e-09
6.74716e-09
1.52948e-07
3.0468e-07
1.95226e-08
1.94938e-08
1.59556e-07
3.61995e-26
2.18746e-24
6.1665e-22
6.05049e-19
3.13459e-17
1.70147e-16
9.48194e-16
7.87089e-15
1.28886e-13
6.77878e-13
3.56881e-12
2.19069e-11
1.26147e-10
4.58585e-10
1.5497e-09
5.26039e-09
1.21516e-08
2.98961e-08
5.6954e-08
4.89058e-08
3.24037e-08
3.33822e-07
5.31472e-07
1.67218e-27
1.26871e-25
5.98119e-23
4.52702e-20
2.74309e-18
2.41766e-16
4.81389e-15
1.1276e-13
9.85836e-13
4.87475e-12
1.90464e-11
6.35074e-11
1.98965e-10
6.04284e-10
1.79467e-09
7.90218e-09
2.33774e-08
2.79971e-08
4.55599e-08
5.41937e-08
7.63071e-08
5.4299e-06
1.90757e-05
2.88524e-30
2.96301e-28
2.52059e-25
3.90821e-21
1.13222e-18
8.84889e-18
2.28601e-16
1.12298e-14
3.10187e-13
2.62934e-12
1.14365e-11
3.51223e-11
9.07114e-11
1.70379e-10
4.05777e-10
6.81108e-09
1.37325e-07
1.6475e-06
4.1354e-06
3.93769e-06
1.11368e-06
8.81163e-06
2.50705e-05
4.08475e-31
1.19543e-30
3.12983e-29
2.14681e-24
1.17834e-20
5.03111e-19
8.80832e-18
1.00556e-15
5.60606e-14
1.04106e-12
8.37307e-12
3.16083e-11
5.4892e-11
5.75521e-11
3.58962e-11
3.44694e-11
3.3239e-07
5.17611e-06
7.17639e-06
7.17619e-06
5.04352e-06
8.00406e-06
2.28885e-05
5.84885e-31
6.43861e-30
6.39496e-29
1.55725e-27
4.93513e-25
3.93715e-22
2.36297e-20
9.52606e-18
1.27952e-15
9.34172e-14
2.10273e-12
1.17879e-11
2.59234e-11
5.28475e-11
2.37761e-10
5.97246e-11
2.7115e-07
4.29032e-06
7.17619e-06
7.11451e-06
3.5686e-06
6.11037e-06
2.12544e-05
0.951449
0.951344
0.951372
0.900285
0.864405
0.89063
0.923455
0.925477
0.865417
0.609761
0.445016
0.489453
0.667859
0.707745
0.707843
0.500861
0.0459272
0.0468156
0.157891
0.95125
0.918028
0.878816
0.51425
0.315886
0.341696
0.413303
0.404457
0.223084
0.047637
0.0431672
0.0690977
0.115258
0.120647
0.374227
0.503426
0.124709
0.0956823
0.198536
0.934228
0.793796
0.380032
0.0151767
-1.07649e-19
-7.88184e-23
2.64399e-23
4.28899e-24
4.57827e-24
-7.83926e-09
-1.86683e-11
-6.5168e-20
0.00111084
0.00103218
0.0671681
0.451799
0.212943
0.104619
0.173256
0.808075
0.242635
5.96519e-14
6.53979e-14
9.07788e-06
2.98849e-05
2.47468e-05
2.38079e-05
4.76371e-05
9.11943e-05
4.4704e-07
0.000507554
0.00186546
0.00113079
0.000975068
0.171478
0.145039
0.268495
0.083079
0.0401899
-1.74346e-19
-2.27649e-11
4.21406e-07
2.57071e-05
0.000185042
0.000242508
0.000239555
0.000242439
0.000264303
0.000148305
0.00201656
0.0020702
0.00109282
0.000976517
0.0100195
0.0455511
0.4548
0.0594702
2.15905e-24
4.80172e-09
6.10748e-11
-3.4706e-07
1.32345e-05
0.000100869
0.00025048
0.000285612
0.000282772
0.0002794
0.000279956
0.000582404
0.00176966
0.00137798
0.0486429
0.00630975
0.0454987
0.460078
0.0591268
2.85124e-23
-3.69452e-11
-3.00444e-14
0.0244473
0.0911341
0.111663
0.0962158
0.0700176
0.0409609
0.000271433
0.000255488
0.000308254
0.000312785
0.0158902
0.219313
0.0268018
0.144723
0.404504
0.0593113
8.48245e-06
0.0540187
0.236161
0.517831
0.728214
0.760454
0.741904
0.686306
0.600111
0.455079
0.154949
0.000277619
0.000303942
0.0273753
0.350181
0.312555
0.202305
0.130391
0.0807919
2.58337e-29
2.20828e-28
1.26169e-27
5.73516e-27
4.74586e-26
1.28991e-23
7.06026e-22
1.26178e-19
4.07549e-17
3.31305e-14
1.53698e-12
7.04382e-12
2.83589e-11
2.74608e-10
3.52711e-09
3.42867e-08
2.14075e-07
7.29096e-07
2.07192e-06
2.03318e-06
1.39293e-06
1.42916e-05
0.000111182
1.7694e-27
2.49523e-26
2.99574e-25
2.52988e-24
2.67261e-23
2.89097e-22
4.99854e-21
7.46351e-19
8.03128e-17
9.12626e-15
1.12032e-12
1.03179e-11
3.32527e-11
6.59319e-11
6.93956e-11
5.63362e-11
-6.51403e-27
-4.86707e-10
1.23772e-08
5.13476e-07
4.94715e-07
7.93758e-07
0.0134967
3.37775e-22
5.41338e-21
5.27135e-20
3.48944e-19
3.07067e-18
3.16993e-17
3.09326e-16
2.87259e-15
2.37938e-14
1.77855e-13
1.25118e-12
3.3514e-11
1.60826e-10
2.73737e-10
1.31648e-10
9.81828e-09
4.66801e-08
2.40399e-07
6.06591e-07
5.02476e-07
0.00230307
0.141509
0.421228
8.06985e-20
2.38886e-18
3.25612e-17
2.72581e-16
1.69911e-15
8.51711e-15
5.03201e-14
2.48571e-13
1.16602e-12
5.74509e-12
3.51701e-11
2.41452e-10
1.76613e-09
1.68848e-08
1.26636e-07
4.94076e-07
9.91729e-07
1.11789e-07
1.41214e-07
0.100423
0.372037
0.821596
1
8.46989e-20
2.54741e-18
3.89976e-17
3.24652e-16
1.93625e-15
8.93525e-15
4.31515e-14
1.57687e-13
4.76237e-13
1.23791e-12
9.61793e-12
2.2426e-10
6.09163e-10
5.22912e-08
5.75121e-07
4.63284e-07
4.23674e-07
0.0781852
0.471202
0.946336
0.998711
0.997826
1
4.50005e-20
1.38224e-18
2.09458e-17
1.71769e-16
9.82098e-16
4.15509e-15
1.30113e-14
2.74438e-14
3.89913e-14
4.50363e-14
2.60064e-13
3.21266e-13
3.13716e-13
4.28292e-09
4.69183e-09
0.0365114
0.647787
0.970929
0.964675
0.993264
1
1
1
6.12816e-21
1.76722e-19
2.51406e-18
2.00104e-17
1.05472e-16
3.70309e-16
5.45597e-16
5.61395e-16
4.73168e-16
1.31231e-12
6.68477e-11
2.55502e-09
1.03537e-08
4.69567e-09
0.0926689
0.844511
0.999874
0.999991
0.999995
0.999997
0.999998
1
1
6.45842e-23
2.42027e-21
3.10652e-20
3.11199e-19
2.00604e-18
7.80952e-18
1.07319e-15
6.49256e-13
3.00934e-11
2.60919e-10
3.89576e-09
2.11437e-08
1.90138e-08
8.30395e-09
0.0318881
0.764031
0.999903
0.999918
0.999969
0.999995
0.999999
1
1
2.84642e-24
6.99703e-23
1.68932e-21
2.90673e-20
5.47376e-18
6.45431e-15
2.68853e-13
7.89713e-12
1.57288e-10
1.62877e-09
9.53184e-09
3.01753e-08
2.85628e-08
2.08473e-08
2.33892e-07
0.0158174
0.150982
0.494935
0.779344
0.798168
0.758418
0.78566
0.824602
5.9168e-25
1.28446e-23
4.47417e-22
8.09147e-21
5.31316e-19
1.78501e-15
8.8536e-13
1.39378e-11
1.46142e-10
1.14704e-09
8.29642e-09
3.31818e-08
8.16275e-08
1.79972e-08
1.17527e-11
4.52294e-20
1.45976e-07
0.00220012
0.0120568
0.00710406
0.000793049
0.0485659
0.0942929
4.48745e-25
5.00819e-24
1.41168e-22
2.04565e-21
6.51087e-20
1.75189e-15
8.5452e-13
1.22277e-11
1.04938e-10
6.50663e-10
2.60014e-09
3.09965e-08
9.32459e-08
1.9514e-07
9.11713e-08
2.41494e-25
-1.16995e-15
-1.81036e-11
7.10505e-16
-5.82341e-16
6.63524e-14
3.13391e-10
1.97861e-17
5.68126e-25
5.13911e-24
7.14193e-23
7.32075e-22
8.11014e-21
4.75081e-16
3.88813e-13
6.38955e-12
5.67687e-11
3.53198e-10
1.76333e-09
8.55691e-09
7.24339e-08
1.98576e-07
5.25538e-07
6.92032e-07
8.7976e-07
7.77001e-07
-8.19446e-14
-6.46611e-14
-6.64806e-14
3.01247e-09
4.38919e-09
1.09531e-24
9.28641e-24
8.98027e-23
7.60988e-22
5.86307e-21
4.61917e-17
9.38488e-14
2.21823e-12
2.3677e-11
1.67006e-10
8.14981e-10
3.44238e-09
2.66917e-08
1.09551e-07
3.59967e-07
9.65854e-07
2.27911e-06
6.19163e-06
2.60994e-05
6.81282e-05
7.36973e-06
1.11029e-09
1.97886e-09
1.90522e-24
1.84158e-23
1.7321e-22
1.38793e-21
1.03048e-20
2.30668e-18
1.30032e-14
5.29741e-13
7.15744e-12
6.36773e-11
3.7009e-10
1.54574e-09
4.19261e-09
2.50357e-08
1.19729e-07
4.37425e-07
1.52641e-06
5.77833e-08
0.000109167
0.000240572
0.000230242
5.10841e-05
1.57255e-09
2.23364e-24
2.99807e-23
3.05288e-22
2.44868e-21
1.74577e-20
1.68783e-19
1.13926e-15
8.85892e-14
1.56668e-12
1.81096e-11
1.36072e-10
7.38194e-10
2.58295e-09
1.0973e-08
1.0664e-08
5.64807e-08
1.32033e-07
4.81783e-08
5.652e-05
0.000240281
0.000240529
0.000159061
2.16396e-06
2.13711e-24
3.32912e-23
3.73737e-22
3.11922e-21
2.18705e-20
1.31353e-19
6.25863e-17
1.03849e-14
2.49325e-13
4.0193e-12
4.13246e-11
2.91014e-10
1.30745e-09
4.40319e-09
8.85379e-09
5.00419e-09
6.39182e-09
2.08245e-08
1.55935e-06
5.37075e-05
0.000166903
8.0415e-05
4.91963e-06
1.84436e-24
3.11712e-23
3.58421e-22
3.02199e-21
2.1028e-20
1.2445e-19
3.16853e-18
1.03155e-15
3.45335e-14
7.50941e-13
1.03083e-11
9.28081e-11
5.45615e-10
2.07301e-09
5.14268e-09
7.62437e-09
5.9457e-09
5.16959e-08
1.90372e-08
2.20828e-08
2.56986e-06
2.5776e-07
1.77903e-06
1.43334e-24
2.61085e-23
3.06009e-22
2.61017e-21
1.81126e-20
1.06019e-19
6.5164e-19
9.19886e-17
4.15165e-15
1.2003e-13
2.14894e-12
2.45302e-11
1.8472e-10
8.51273e-10
2.534e-09
4.74284e-09
5.14384e-09
3.24446e-08
1.79598e-08
2.14319e-08
2.52445e-08
5.679e-08
1.56381e-08
9.98117e-25
1.90895e-23
2.30068e-22
1.9887e-21
1.38303e-20
8.0627e-20
4.22855e-19
8.78572e-18
4.37423e-16
1.65019e-14
3.7931e-13
5.46172e-12
5.13036e-11
2.92107e-10
1.03197e-09
2.26271e-09
3.25791e-09
1.31207e-08
1.42545e-08
2.4194e-08
3.48523e-08
4.66402e-08
1.74972e-08
6.09196e-25
1.23113e-23
1.51426e-22
1.32578e-21
9.28613e-21
5.41877e-20
2.88065e-19
1.79442e-18
4.40953e-17
1.96759e-15
5.70762e-14
1.03284e-12
1.1887e-11
8.39316e-11
3.58362e-10
9.44082e-10
1.68536e-09
4.30285e-09
6.54295e-09
1.55937e-08
2.49539e-08
2.57798e-08
1.22218e-08
3.48589e-25
7.06247e-24
8.75293e-23
7.74287e-22
5.47366e-21
3.22903e-20
1.75349e-19
8.32706e-19
6.39559e-18
2.1259e-16
7.38804e-15
1.66492e-13
2.32538e-12
2.01417e-11
1.05185e-10
3.37026e-10
7.09512e-10
1.40741e-09
2.47548e-09
6.65733e-09
1.06077e-08
1.03426e-08
5.61666e-09
1.80833e-25
3.63977e-24
4.49258e-23
3.99982e-22
2.85499e-21
1.71524e-20
9.26523e-20
4.3339e-19
2.04601e-18
2.52237e-17
8.45779e-16
2.2942e-14
3.87136e-13
4.09064e-12
2.58064e-11
9.94697e-11
2.44711e-10
4.69104e-10
8.64601e-10
2.22663e-09
3.49099e-09
3.33589e-09
2.02824e-09
8.51789e-26
1.69357e-24
2.0685e-23
1.84778e-22
1.3314e-21
8.21326e-21
4.36581e-20
2.08356e-19
9.20213e-19
5.1247e-18
9.44347e-17
2.737e-15
5.54362e-14
6.63734e-13
5.23151e-12
2.39897e-11
7.04783e-11
1.44986e-10
2.77253e-10
6.91052e-10
1.06072e-09
1.03536e-09
6.86122e-10
3.59864e-26
7.0817e-25
8.58077e-24
7.71144e-23
5.63835e-22
3.52351e-21
1.89832e-20
9.5545e-20
4.27208e-19
1.92066e-18
1.43698e-17
3.00757e-16
6.51555e-15
8.73265e-14
8.70197e-13
4.81535e-12
1.7141e-11
3.94601e-11
7.83628e-11
1.95353e-10
2.94159e-10
2.7128e-10
1.95846e-10
1.34592e-26
2.64399e-25
3.21787e-24
2.95133e-23
2.21278e-22
1.41352e-21
8.11031e-21
4.10894e-20
2.08706e-19
9.65186e-19
4.65518e-18
3.9538e-17
6.63089e-16
1.03954e-14
1.20727e-13
8.18572e-13
3.49956e-12
9.2568e-12
1.91063e-11
4.75616e-11
6.92101e-11
6.37689e-11
5.04973e-11
4.47403e-27
8.8969e-26
1.11181e-24
1.06586e-23
8.34998e-23
5.74038e-22
3.53613e-21
2.05201e-20
1.10372e-19
5.52832e-19
2.60765e-18
1.2646e-17
9.38597e-17
1.22878e-15
1.46121e-14
1.17454e-13
5.93105e-13
1.80371e-12
4.00427e-12
9.97186e-12
1.39669e-11
1.19806e-11
1.09067e-11
1.28451e-27
2.64447e-26
3.50426e-25
3.57845e-24
3.09483e-23
2.372e-22
1.65607e-21
1.06133e-20
6.21063e-20
3.32921e-19
1.63999e-18
7.42199e-18
3.33498e-17
2.04205e-16
1.77407e-15
1.46431e-14
8.35628e-14
2.86715e-13
7.07918e-13
1.76296e-12
2.34891e-12
2.02962e-12
2.13671e-12
3.3967e-28
7.45387e-27
1.08702e-25
1.22122e-24
1.17896e-23
1.00983e-22
7.78509e-22
5.37411e-21
3.33903e-20
1.87757e-19
9.6121e-19
4.41196e-18
1.8192e-17
7.36865e-17
3.40341e-16
1.97478e-15
1.0729e-14
4.01352e-14
1.06942e-13
2.64303e-13
3.54487e-13
3.211e-13
4.24685e-13
8.48088e-29
2.04074e-27
3.25392e-26
4.09682e-25
4.40786e-24
4.1158e-23
3.3758e-22
2.45082e-21
1.59131e-20
9.26387e-20
4.80109e-19
2.24819e-18
9.45828e-18
3.59722e-17
1.28116e-16
4.71308e-16
1.84462e-15
6.44264e-15
1.69238e-14
4.07292e-14
5.7409e-14
7.98019e-14
1.38841e-13
2.00052e-29
5.37429e-28
9.42206e-27
1.29085e-25
1.51953e-24
1.50689e-23
1.28988e-22
9.71583e-22
6.5255e-21
3.90419e-20
2.06926e-19
9.88239e-19
4.23847e-18
1.62357e-17
5.62739e-17
1.81029e-16
5.39373e-16
1.54271e-15
3.7755e-15
9.57696e-15
1.81354e-14
3.45708e-14
8.926e-14
4.48391e-30
1.34351e-28
2.55854e-27
3.75048e-26
4.67036e-25
4.72922e-24
4.2724e-23
3.31268e-22
2.28446e-21
1.39947e-20
7.61095e-20
3.70405e-19
1.61444e-18
6.29056e-18
2.21009e-17
7.06328e-17
2.05139e-16
5.49537e-16
1.36298e-15
3.59624e-15
7.69858e-15
2.32217e-14
6.2934e-14
9.56326e-31
3.13661e-29
6.33778e-28
9.87745e-27
1.26716e-25
1.30641e-24
1.2188e-23
9.71833e-23
6.87316e-22
4.30286e-21
2.39968e-20
1.18112e-19
5.2412e-19
2.08068e-18
7.45628e-18
2.42711e-17
7.19411e-17
1.98307e-16
5.0139e-16
1.52103e-15
4.00839e-15
1.31043e-14
4.81552e-14
1.92644e-31
6.74078e-30
1.42195e-28
2.29785e-27
2.99524e-26
3.16074e-25
3.02175e-24
2.47684e-23
1.75491e-22
1.11684e-21
6.25239e-21
3.22395e-20
1.4591e-19
5.92459e-19
2.18285e-18
7.31538e-18
2.22615e-17
6.19928e-17
1.77289e-16
6.02256e-16
1.69033e-15
6.91148e-15
2.88964e-14
3.62665e-32
1.32444e-30
2.86e-29
4.66905e-28
6.19629e-27
6.74867e-26
6.45055e-25
5.4168e-24
3.86405e-23
2.53126e-22
1.45768e-21
7.60914e-21
3.51472e-20
1.43862e-19
5.32732e-19
1.8206e-18
5.85946e-18
1.75937e-17
5.52431e-17
2.03584e-16
6.52704e-16
2.9286e-15
1.34912e-14
6.43531e-33
2.36458e-31
5.1192e-30
8.37899e-29
1.13708e-27
1.28191e-26
1.20078e-25
1.0338e-24
7.56258e-24
5.11226e-23
3.00109e-22
1.56966e-21
7.38976e-21
3.04378e-20
1.14729e-19
4.01158e-19
1.39967e-18
4.57495e-18
1.59423e-17
6.59383e-17
2.30974e-16
1.06293e-15
5.33288e-15
9.13977e-34
3.82655e-32
8.22066e-31
1.35812e-29
1.87322e-28
2.16645e-27
2.00551e-26
1.76766e-25
1.33056e-24
9.16764e-24
5.39224e-23
2.86927e-22
1.37012e-21
5.80078e-21
2.27246e-20
8.2186e-20
3.08442e-19
1.09387e-18
4.29428e-18
1.92522e-17
7.74564e-17
3.87031e-16
1.83439e-15
1.47298e-34
5.64178e-33
1.20642e-31
2.02545e-30
2.80201e-29
3.27905e-28
3.06335e-27
2.73912e-26
2.10317e-25
1.45974e-24
8.6022e-24
4.71529e-23
2.29156e-22
1.00804e-21
4.11431e-21
1.55711e-20
6.18667e-20
2.3953e-19
1.04337e-18
5.04347e-18
2.34413e-17
1.26447e-16
6.90161e-16
2.06527e-35
7.6601e-34
1.64327e-32
2.80061e-31
3.84879e-30
4.51291e-29
4.30608e-28
3.88305e-27
3.0024e-26
2.08902e-25
1.2465e-24
7.05655e-24
3.5059e-23
1.60255e-22
6.78588e-22
2.71462e-21
1.1383e-20
4.85978e-20
2.34648e-19
1.26678e-18
6.93616e-18
4.13235e-17
2.49542e-16
2.6295e-36
9.68708e-35
2.09487e-33
3.59254e-32
4.89758e-31
5.73267e-30
5.58203e-29
4.80206e-28
3.9188e-27
2.73345e-26
1.66831e-25
9.72551e-25
4.96225e-24
2.34843e-23
1.03381e-22
4.40972e-22
1.97927e-21
9.45513e-21
5.28062e-20
3.29376e-19
2.16958e-18
1.4963e-17
9.9074e-17
3.03764e-37
1.16209e-35
2.51726e-34
4.29452e-33
5.81772e-32
6.79143e-31
6.70187e-30
5.64185e-29
4.74097e-28
3.32257e-27
2.08634e-26
1.24908e-25
6.57535e-25
3.22374e-24
1.49108e-23
6.88916e-23
3.44433e-22
1.95447e-21
1.35659e-20
1.04257e-19
8.4834e-19
6.51876e-18
4.60027e-17
3.36773e-38
1.33195e-36
2.86837e-35
4.84534e-34
6.53853e-33
7.60225e-32
7.54635e-31
6.49984e-30
5.39687e-29
3.81312e-28
2.47068e-27
1.51909e-26
8.29432e-26
4.24902e-25
2.10932e-24
1.09771e-23
6.63123e-23
4.91708e-22
4.36098e-21
3.98121e-20
3.41537e-19
2.55881e-18
2.04881e-17
3.72895e-39
1.44298e-37
3.06127e-36
5.11639e-35
6.9016e-34
8.01074e-33
7.98965e-32
7.09027e-31
5.82754e-30
4.17713e-29
2.80014e-28
1.77276e-27
1.01043e-26
5.48998e-26
3.03311e-25
1.90014e-24
1.49301e-23
1.41785e-22
1.48257e-21
1.41798e-20
1.15883e-19
8.92142e-19
6.64699e-18
0.000165179
0.0163654
0.0496417
0.106101
0.177942
0.411777
0.431297
0.622005
0.827909
1
1
1
1
1
1
1
1
1
1
1
1
1
1
0.999989
1
1
1
0.999985
1
1
1
1
0.743333
0.727327
0.849525
0.91924
0.0127141
0.0030206
0.0718678
0.173823
7.96422e-10
2.3629e-09
4.32208e-09
3.8596e-09
5.15601e-09
9.40499e-09
1.49681e-08
2.29883e-08
1.29577e-08
2.77734e-08
4.68902e-08
3.88584e-08
5.45055e-09
4.26956e-08
6.21379e-08
4.56576e-08
1.34446e-07
2.85015e-07
3.26919e-07
5.14486e-08
1.03666e-06
1.08994e-06
5.14932e-07
2.23568e-07
1.26658e-06
7.42122e-07
3.39157e-07
2.01953e-07
6.72386e-08
4.23389e-08
6.80613e-08
7.28606e-08
5.99846e-09
3.86646e-09
9.79914e-09
1.45584e-08
6.26792e-09
1.91523e-09
2.83353e-09
4.06644e-09
3.34007e-09
1.58016e-09
1.36334e-09
1.43161e-09
1.3031e-09
9.11898e-10
7.40413e-10
6.50056e-10
4.89763e-10
3.99273e-10
3.45001e-10
3.14577e-10
1.57297e-10
1.345e-10
1.2767e-10
1.27971e-10
4.34226e-11
4.06662e-11
4.15856e-11
4.21802e-11
1.04456e-11
1.02341e-11
1.00932e-11
1.11263e-11
2.20306e-12
2.33625e-12
2.44746e-12
2.49789e-12
4.81763e-13
5.56366e-13
5.97364e-13
7.19699e-13
1.7304e-13
2.20974e-13
2.92371e-13
3.89656e-13
1.21373e-13
1.70022e-13
2.3855e-13
3.89433e-13
9.23298e-14
1.46117e-13
2.4043e-13
4.40523e-13
7.15987e-14
1.15925e-13
2.16668e-13
4.47774e-13
4.18029e-14
7.51838e-14
1.67684e-13
4.17106e-13
2.2471e-14
4.50566e-14
1.23197e-13
3.33769e-13
1.0633e-14
2.64004e-14
7.74152e-14
2.24946e-13
5.38268e-15
1.50333e-14
4.70033e-14
1.34391e-13
2.24399e-15
7.63887e-15
2.61689e-14
7.41479e-14
1.21545e-15
4.26439e-15
1.35023e-14
3.99703e-14
5.43329e-16
2.09083e-15
7.21643e-15
2.14484e-14
3.02094e-16
1.06056e-15
3.35743e-15
1.1254e-14
1.30838e-16
4.64465e-16
1.54172e-15
4.58774e-15
4.34121e-17
1.3562e-16
3.97971e-16
1.04184e-15
0.337975
0.507622
0.785797
0.966093
0.985654
0.986503
0.993483
0.995342
0.994059
0.974715
0.883309
0.45071
0.0147057
0.0193039
0.255943
0.456649
0.425614
0.0694029
0.234491
0.861862
0.999935
1
1
1
1
1
0.999999
0.999999
0.999945
0.999888
0.991547
0.507259
0.0196524
0.0594288
0.241721
0.175058
0.286943
0.31173
1
1
1
1
1
1
1
1
1
1
0.999999
0.999974
0.98388
0.395162
0.0623289
0.0615612
0.102738
0.776391
0.531807
1
1
1
1
1
1
1
1
1
1
0.999999
0.999923
0.999922
0.973764
0.427969
0.121129
0.348881
0.926703
0.330181
0.999988
0.999964
0.999973
0.999999
1
1
1
0.999999
0.999999
0.999999
1
0.999996
0.995671
0.990727
0.975921
0.743604
0.927235
0.957209
0.169653
0.999904
0.999875
0.999911
1
1
1
1
0.999999
0.999999
0.999999
1
1
0.999477
0.970842
0.947649
0.97412
0.979354
0.962156
0.187841
0.999919
0.999884
0.999988
1
1
1
1
1
1
0.999999
0.999999
1
0.999997
0.999539
0.937188
0.824963
0.861788
0.699218
0.168826
1
1
1
1
1
1
1
1
0.999999
0.999998
0.999998
1
1
1
0.999994
0.916387
0.740198
0.557484
0.151416
0.952623
0.985626
1
1
1
1
1
1
1
0.999999
0.999999
1
1
1
0.999997
0.971977
0.560245
0.303393
0.150957
0.278365
0.410064
0.579632
0.754317
0.868362
0.948014
0.989404
1
1
1
1
1
1
1
0.996518
0.938265
0.782056
0.673956
0.595422
3.21227e-09
1.66858e-16
3.61343e-09
0.0175965
0.121714
0.256106
0.425444
0.58724
0.705211
0.757074
0.782703
0.788164
0.709311
0.577699
0.454622
0.339093
0.264781
0.206229
0.170221
4.25576e-08
6.36584e-08
1.19587e-07
1.01408e-07
1.87402e-07
2.06774e-07
1.28985e-07
4.67132e-08
0.00687977
0.0323906
0.0423114
0.0369789
5.26847e-08
8.29626e-08
4.99155e-07
4.77684e-08
8.78188e-06
3.71134e-08
9.0916e-05
4.935e-08
8.43707e-08
2.60562e-07
3.61296e-07
6.35607e-07
9.66471e-07
6.18714e-07
1.34221e-07
7.28929e-08
5.0242e-08
3.19698e-08
6.42068e-08
7.87632e-08
5.70215e-07
0.000466034
0.00468461
0.00635196
0.00540497
0.00261797
2.43726e-08
5.31622e-08
8.63832e-08
2.55877e-07
1.79426e-06
2.79575e-06
2.08145e-06
1.09251e-06
7.15739e-07
5.19985e-07
7.20148e-07
9.16864e-07
5.75507e-07
7.85831e-07
0.00167236
0.00757485
0.00778934
0.00577707
0.00228337
2.39869e-09
2.40753e-09
2.39346e-09
4.19173e-09
1.37343e-06
2.75586e-06
2.97109e-06
3.07538e-06
2.21047e-06
9.84587e-07
2.23133e-06
3.04708e-06
1.13951e-06
0.000148952
0.000281265
7.79295e-08
7.82172e-08
3.63273e-07
1.18135e-06
4.14822e-08
2.27243e-09
2.32081e-09
3.40694e-09
3.25e-09
2.23414e-07
1.80751e-06
2.71345e-06
2.56207e-06
2.38624e-06
3.09829e-06
4.67277e-06
8.66385e-06
1.9084e-06
8.65096e-09
8.79428e-09
1.43209e-05
3.93935e-05
8.05444e-07
7.59941e-08
1.77411e-09
2.30092e-09
5.81912e-09
7.74679e-09
7.16359e-09
6.80057e-09
2.73969e-07
1.93775e-06
2.00122e-06
1.30933e-06
9.89953e-09
1.12745e-08
8.65087e-09
8.85435e-09
9.75572e-08
2.86369e-05
4.97248e-05
4.79849e-07
1.44241e-08
1.7918e-09
1.77134e-09
2.31628e-09
6.95043e-09
7.23125e-09
6.45333e-09
6.09131e-09
5.95868e-09
1.03079e-06
2.90622e-07
1.92544e-08
1.46444e-08
1.41199e-08
1.28535e-08
4.23408e-08
9.00291e-07
2.39766e-05
1.33353e-07
5.60274e-09
1.9454e-09
1.76195e-09
1.75351e-09
2.34092e-09
6.94539e-09
8.8303e-09
5.96756e-09
6.00124e-09
5.95868e-09
6.09273e-09
7.60761e-08
2.94573e-08
2.453e-08
1.69073e-08
1.41752e-08
1.13712e-08
1.63582e-08
3.56107e-08
2.61876e-09
1.51841e-09
1.50917e-09
1.5067e-09
1.70032e-09
3.44674e-09
6.61157e-09
7.31988e-09
6.45729e-09
6.0739e-09
6.20205e-09
1.55286e-08
2.49831e-08
2.3259e-08
1.81528e-08
1.264e-08
1.11579e-08
1.13465e-08
4.53632e-08
1.24659e-09
1.07454e-09
1.09125e-09
1.11751e-09
1.22151e-09
1.96949e-09
3.84141e-09
4.90434e-09
5.50184e-09
6.02383e-09
7.24648e-09
7.1855e-09
1.27989e-08
1.46766e-08
1.45611e-08
1.36478e-08
1.11473e-08
1.33773e-08
7.31575e-07
6.33986e-10
6.28356e-10
6.57251e-10
7.11099e-10
8.25443e-10
1.24747e-09
2.14915e-09
2.85068e-09
3.31202e-09
3.77295e-09
4.85601e-09
6.68853e-09
8.66017e-09
1.01934e-08
1.11479e-08
1.18783e-08
9.97141e-09
1.15595e-08
2.08979e-06
3.20867e-10
3.32567e-10
3.58449e-10
4.01114e-10
4.9487e-10
7.41702e-10
1.13278e-09
1.5244e-09
1.88845e-09
2.24284e-09
2.87532e-09
4.03136e-09
5.60074e-09
7.09495e-09
8.63183e-09
9.65164e-09
7.71288e-09
1.61105e-08
2.04185e-06
1.41273e-10
1.55321e-10
1.66242e-10
2.0058e-10
2.84654e-10
4.34994e-10
6.42156e-10
8.58205e-10
1.07251e-09
1.39632e-09
1.80515e-09
2.44905e-09
3.60762e-09
5.04428e-09
6.9321e-09
8.45634e-09
7.34575e-09
1.16107e-08
2.06153e-06
4.94149e-11
5.93932e-11
7.57839e-11
9.82505e-11
1.44346e-10
2.22706e-10
3.35483e-10
4.74748e-10
6.48264e-10
8.75396e-10
1.30934e-09
1.94794e-09
2.87358e-09
4.17793e-09
6.05683e-09
7.26847e-09
6.39653e-09
5.16519e-08
2.05154e-06
1.45708e-11
2.09764e-11
3.10376e-11
4.64443e-11
7.39655e-11
1.17594e-10
1.81064e-10
2.72058e-10
4.14602e-10
6.44124e-10
1.00585e-09
1.6509e-09
2.6106e-09
4.01257e-09
6.04688e-09
6.33784e-09
6.47436e-09
8.38394e-07
2.11664e-06
4.24903e-12
7.83793e-12
1.44946e-11
2.54596e-11
4.52318e-11
7.87013e-11
1.32279e-10
2.17761e-10
3.59197e-10
5.99626e-10
9.94589e-10
1.5985e-09
2.62679e-09
4.14317e-09
6.29463e-09
6.36076e-09
6.4161e-09
1.7896e-06
2.04231e-06
1.87907e-12
5.03099e-12
1.16777e-11
2.39004e-11
4.53037e-11
8.39785e-11
1.48796e-10
2.57831e-10
4.36074e-10
7.27737e-10
1.19098e-09
1.91599e-09
3.00247e-09
4.76197e-09
7.03528e-09
6.80069e-09
6.48486e-09
1.0729e-06
1.43792e-06
1.89627e-12
6.28976e-12
1.57639e-11
3.36703e-11
6.4498e-11
1.20756e-10
2.14476e-10
3.7319e-10
6.24675e-10
1.02141e-09
1.62514e-09
2.53685e-09
3.8877e-09
5.78976e-09
8.45472e-09
8.86614e-09
1.05114e-08
3.78951e-09
3.88787e-09
2.72633e-12
9.20198e-12
2.2775e-11
4.78867e-11
9.38784e-11
1.76305e-10
3.19041e-10
5.53259e-10
9.14275e-10
1.47163e-09
2.29594e-09
3.49307e-09
5.11295e-09
7.64488e-09
9.9587e-09
1.29102e-08
2.10283e-08
6.04297e-09
3.79939e-09
3.41411e-12
1.15643e-11
2.7695e-11
6.10215e-11
1.23144e-10
2.36979e-10
4.37959e-10
7.70045e-10
1.28803e-09
2.04932e-09
3.18276e-09
4.77366e-09
6.84223e-09
9.32658e-09
1.24991e-08
1.68621e-08
5.05443e-08
2.31182e-08
5.41407e-09
3.71943e-12
1.19116e-11
2.94518e-11
6.17995e-11
1.348e-10
2.80201e-10
5.38694e-10
9.73557e-10
1.65977e-09
2.68532e-09
4.23762e-09
6.27707e-09
8.50634e-09
1.06273e-08
1.87457e-08
4.91598e-08
8.17768e-08
3.87118e-08
6.54884e-09
3.04144e-12
9.43636e-12
2.45956e-11
5.80893e-11
1.28095e-10
2.79586e-10
5.58718e-10
1.0765e-09
1.9252e-09
3.267e-09
5.2981e-09
7.59913e-09
8.91014e-09
1.11434e-08
4.94355e-08
1.07165e-07
1.23703e-07
4.83621e-08
7.87495e-09
2.0525e-12
6.37365e-12
1.76479e-11
4.62527e-11
1.12355e-10
2.55521e-10
5.47578e-10
1.07694e-09
2.0304e-09
3.63402e-09
6.0182e-09
7.92544e-09
7.00226e-09
2.55574e-08
1.04038e-07
1.44599e-07
1.44653e-07
5.36217e-08
5.6667e-09
1.12589e-12
3.75444e-12
1.13032e-11
3.18903e-11
8.28e-11
2.03656e-10
4.61568e-10
9.86627e-10
1.99215e-09
3.7093e-09
5.9444e-09
6.66353e-09
6.76852e-09
5.14637e-08
1.23644e-07
1.43048e-07
1.40082e-07
4.46909e-08
4.74732e-09
5.6652e-13
1.99863e-12
6.66593e-12
2.034e-11
5.73335e-11
1.49279e-10
3.64292e-10
8.33181e-10
1.83179e-09
3.51177e-09
5.40837e-09
6.84485e-09
1.12637e-08
4.29048e-08
8.26853e-08
1.24873e-07
8.03068e-08
2.84047e-08
2.97067e-09
2.75317e-13
1.04511e-12
3.79112e-12
1.24144e-11
3.74171e-11
1.02905e-10
2.6357e-10
6.35084e-10
1.48966e-09
3.00084e-09
4.75259e-09
8.9814e-09
1.74939e-08
1.39256e-08
1.55102e-08
4.08364e-08
1.54813e-08
4.62348e-09
1.42424e-09
1.36727e-13
5.62279e-13
2.1602e-12
7.57344e-12
2.35426e-11
6.6913e-11
1.78111e-10
4.38152e-10
1.04424e-09
2.26436e-09
4.00537e-09
6.51717e-09
1.19392e-08
8.27093e-09
2.99345e-09
5.57008e-10
3.70311e-10
3.7642e-10
3.65802e-10
6.77365e-14
3.01206e-13
1.19647e-12
4.27862e-12
1.35348e-11
4.01254e-11
1.06448e-10
2.57463e-10
5.95289e-10
1.31887e-09
2.40998e-09
3.4878e-09
4.44082e-09
5.4395e-09
4.3367e-09
1.24396e-09
7.23229e-10
3.39312e-10
1.30923e-10
3.13631e-14
1.37932e-13
5.5617e-13
1.97956e-12
6.32876e-12
1.88465e-11
5.10451e-11
1.27015e-10
2.92695e-10
6.21192e-10
1.15176e-09
1.76227e-09
2.0975e-09
2.58235e-09
2.23553e-09
1.01356e-09
4.32114e-10
1.44112e-10
7.00408e-11
1.19485e-14
5.04525e-14
1.94817e-13
6.84425e-13
2.18812e-12
6.52771e-12
1.79238e-11
4.53927e-11
1.04675e-10
2.16463e-10
4.00612e-10
6.29805e-10
8.02627e-10
8.40444e-10
6.15879e-10
2.44847e-10
8.60499e-11
5.24125e-11
2.06191e-11
2.45217e-15
1.0127e-14
3.94543e-14
1.37278e-13
4.3837e-13
1.33012e-12
3.67669e-12
9.27869e-12
2.1367e-11
4.46151e-11
8.00162e-11
1.22185e-10
1.50528e-10
1.42129e-10
9.91693e-11
3.49422e-11
2.18229e-11
6.04574e-12
2.69935e-12
)
;

boundaryField
{
    leftWall
    {
        type            alphaContactAngle;
        contactAngleProperties 
        {
            mercury         
            {
                theta0          90;
            }
            air             
            {
                theta0          90;
            }
            water           
            {
                theta0          90;
            }
        }
        value           nonuniform List<scalar> 
50
(
1.84744e-28
4.5071e-24
1.34876e-24
3.61995e-26
1.67218e-27
2.88524e-30
4.08475e-31
5.84885e-31
2.58337e-29
1.7694e-27
3.37775e-22
8.06985e-20
8.46989e-20
4.50005e-20
6.12816e-21
6.45842e-23
2.84642e-24
5.9168e-25
4.48745e-25
5.68126e-25
1.09531e-24
1.90522e-24
2.23364e-24
2.13711e-24
1.84436e-24
1.43334e-24
9.98117e-25
6.09196e-25
3.48589e-25
1.80833e-25
8.51789e-26
3.59864e-26
1.34592e-26
4.47403e-27
1.28451e-27
3.3967e-28
8.48088e-29
2.00052e-29
4.48391e-30
9.56326e-31
1.92644e-31
3.62665e-32
6.43531e-33
9.13977e-34
1.47298e-34
2.06527e-35
2.6295e-36
3.03764e-37
3.36773e-38
3.72895e-39
)
;
    }
    rightWall
    {
        type            alphaContactAngle;
        contactAngleProperties 
        {
            mercury         
            {
                theta0          90;
            }
            air             
            {
                theta0          90;
            }
            water           
            {
                theta0          90;
            }
        }
        value           nonuniform List<scalar> 
50
(
0.157891
0.198536
0.173256
0.083079
0.0594702
0.0591268
0.0593113
0.0807919
0.234491
0.31173
0.531807
0.330181
0.169653
0.187841
0.168826
0.151416
0.150957
0.595422
0.170221
9.0916e-05
0.00261797
0.00228337
1.18135e-06
8.05444e-07
4.79849e-07
1.33353e-07
3.56107e-08
4.53632e-08
7.31575e-07
2.08979e-06
2.04185e-06
2.06153e-06
2.05154e-06
2.11664e-06
2.04231e-06
1.43792e-06
3.88787e-09
3.79939e-09
5.41407e-09
6.54884e-09
7.87495e-09
5.6667e-09
4.74732e-09
2.97067e-09
1.42424e-09
3.65802e-10
1.30923e-10
7.00408e-11
2.06191e-11
2.69935e-12
)
;
    }
    lowerWall
    {
        type            alphaContactAngle;
        contactAngleProperties 
        {
            mercury         
            {
                theta0          90;
            }
            air             
            {
                theta0          90;
            }
            water           
            {
                theta0          90;
            }
        }
        value           nonuniform List<scalar> 
62
(
1.84744e-28
7.76776e-27
6.54074e-25
7.36835e-23
1.26769e-18
4.79307e-16
1.27421e-14
4.93509e-14
2.74989e-13
1.00543e-12
3.03595e-12
8.18804e-12
2.06511e-11
5.03472e-11
1.25267e-10
3.28011e-10
8.47175e-10
2.06189e-09
2.97351e-09
3.82766e-09
0.00017593
0.00056865
0.000568658
0.000568658
0.000500624
1.59556e-07
5.31472e-07
1.90757e-05
2.50705e-05
2.28885e-05
2.12544e-05
0.000165179
0.0163654
0.0496417
0.106101
0.951449
0.95125
0.934228
0.808075
0.0401899
2.15905e-24
2.85124e-23
8.48245e-06
0.951449
0.951344
0.951372
0.900285
0.864405
0.89063
0.923455
0.925477
0.865417
0.609761
0.445016
0.489453
0.667859
0.707745
0.707843
0.500861
0.0459272
0.0468156
0.157891
)
;
    }
    atmosphere
    {
        type            inletOutlet;
        inletValue      uniform 0;
        value           nonuniform List<scalar> 
46
(
3.72895e-39
1.44298e-37
3.06127e-36
5.11639e-35
6.9016e-34
8.01074e-33
7.98965e-32
7.09027e-31
5.82754e-30
4.17713e-29
2.80014e-28
1.77276e-27
1.01043e-26
5.48998e-26
3.03311e-25
1.90014e-24
1.49301e-23
1.41785e-22
1.48257e-21
1.41798e-20
1.15883e-19
8.92142e-19
6.64699e-18
4.34121e-17
0
0
0
0
0
0
0
0
0
0
0
0
0
0
0
0
0
0
0
0
0
0
)
;
    }
    defaultFaces
    {
        type            empty;
    }
}


// ************************************************************************* //
