/*--------------------------------*- C++ -*----------------------------------*\
  =========                 |
  \\      /  F ield         | OpenFOAM: The Open Source CFD Toolbox
   \\    /   O peration     | Website:  https://openfoam.org
    \\  /    A nd           | Version:  13
     \\/     M anipulation  |
\*---------------------------------------------------------------------------*/
FoamFile
{
    format      ascii;
    class       volScalarField;
    location    "0.85";
    object      alpha.water;
}
// * * * * * * * * * * * * * * * * * * * * * * * * * * * * * * * * * * * * * //

dimensions      [];

internalField   nonuniform List<scalar> 
2268
(
7.27962e-12
2.02818e-11
2.98196e-11
3.14262e-11
3.08241e-11
2.82396e-11
2.51145e-11
2.39008e-11
2.50151e-11
2.86891e-11
3.44908e-11
4.29479e-11
5.52468e-11
7.35412e-11
1.0301e-10
1.54089e-10
2.38939e-10
3.7063e-10
7.00487e-10
1.27951e-09
2.1878e-09
2.57817e-09
2.62501e-09
1.18457e-11
4.95909e-11
7.5016e-11
1.07353e-10
1.39985e-10
1.51622e-10
1.42471e-10
1.2468e-10
1.06406e-10
9.99332e-11
1.0996e-10
1.32339e-10
1.62207e-10
1.9539e-10
2.40762e-10
3.10505e-10
4.32436e-10
6.52585e-10
1.10094e-09
1.86952e-09
2.63618e-09
2.8692e-09
2.75721e-09
3.71142e-12
1.1923e-11
2.51683e-11
5.22081e-11
1.27951e-10
2.91171e-10
4.12897e-10
5.06737e-10
5.24336e-10
4.8161e-10
4.37732e-10
4.21453e-10
4.14464e-10
4.15706e-10
4.37379e-10
4.72629e-10
5.39258e-10
8.41749e-10
1.80333e-09
2.94817e-09
4.37372e-09
4.77372e-09
4.30204e-09
1.41825e-12
1.47583e-12
1.41825e-12
1.47583e-12
3.1012e-12
1.61963e-10
3.16768e-10
5.00578e-10
8.25322e-10
1.03271e-09
1.20345e-09
1.37495e-09
1.46391e-09
1.54737e-09
1.77835e-09
1.51062e-09
5.54725e-10
8.08877e-10
1.73782e-09
3.09465e-09
4.07365e-09
4.05264e-09
3.929e-09
0.0952165
0.0683675
-6.32821e-12
7.27129e-09
2.80676e-12
6.45363e-11
7.52372e-11
1.65036e-10
5.63815e-10
1.25464e-09
2.65433e-09
4.41813e-09
6.09671e-09
7.59326e-09
8.57728e-09
6.03534e-09
1.03229e-10
2.07868e-10
3.07522e-10
3.25778e-10
3.45985e-10
3.66363e-10
4.07781e-10
0.813492
0.783542
0.578781
0.260218
0.0488195
5.83516e-11
5.75156e-11
5.82778e-11
5.68608e-11
3.16739e-09
8.71827e-09
1.31042e-08
1.73999e-08
2.05436e-08
2.09927e-08
1.76132e-08
1.67542e-11
4.60413e-11
1.67542e-11
0.000622329
0.00838266
0.0273384
0.0435042
1
1
1
0.956002
0.798127
0.549655
0.311382
0.152638
0.0895814
0.0840378
0.0860684
0.0867019
0.0957571
0.117969
0.151717
0.193047
0.239956
0.297653
0.366632
0.452152
0.572097
0.677105
0.73627
1
1
1
1
1
0.999392
0.973818
0.92889
0.883643
0.822205
0.766626
0.753894
0.771806
0.800086
0.827321
0.860949
0.898593
0.937639
0.972029
0.999993
0.999996
0.999993
0.999201
3.71146e-07
3.86315e-07
2.68798e-13
3.97348e-16
-2.0289e-19
5.49217e-12
9.04977e-05
4.21107e-05
2.23196e-05
1.99249e-05
1.25687e-10
2.26989e-30
-6.78367e-24
1.18908e-06
8.82962e-05
2.91813e-05
2.91838e-05
2.14476e-05
1.19671e-06
5.96446e-07
-2.03944e-09
1.4548e-12
0.138813
0.270041
0.25033
0.184744
0.133121
0.109314
0.0951726
0.0792601
0.0517017
0.0249837
0.0218538
0.00486235
0.00130014
2.80195e-06
7.74934e-06
1.98394e-08
4.65986e-07
0.00497132
0.312188
0.651472
0.732937
0.690668
0.627287
0.642828
0.735767
0.748244
0.671777
0.482148
0.241796
0.130408
0.0639641
-7.35202e-06
2.50238e-06
1.98394e-08
1.98394e-08
0.0550157
0.46726
0.761238
0.969549
0.999709
0.999707
0.999707
0.999707
0.999707
0.999707
0.999706
0.975678
0.881151
0.682518
0.241823
0.0415131
2.74517e-06
0.0020497
0.10557
0.795394
0.882241
0.970886
0.999709
0.999707
0.999708
0.999706
0.999707
0.999707
0.999707
0.999706
0.997982
0.997899
0.997838
0.485403
0.14829
0.000157523
0.00581064
0.18265
0.930278
0.997532
0.998993
0.999674
0.999355
0.999706
0.999707
0.999707
0.999707
0.999707
0.999706
0.999414
0.998227
0.994104
0.464607
0.11693
0.000178076
0.00401894
0.181634
0.933166
0.938704
0.897752
0.911491
0.876139
0.871063
0.895648
0.926579
0.957555
0.999306
0.999704
0.999685
0.999683
0.964079
0.32568
0.0434637
0.000168953
0.0051328
0.166348
0.587689
0.604216
0.479631
0.361037
0.220455
0.205236
0.241254
0.304907
0.395369
0.543406
0.844543
0.999501
0.999525
0.948051
0.25893
0.000655193
0.00925556
0.237101
0.136556
1
1
1
1
1
1
1
1
1
1
1
1
1
1
1
1
1
0.999999
0.999998
0.999998
0.999998
0.999981
0.950178
1
1
1
1
1
1
1
1
1
1
1
1
1
1
1
1
1
1
1
0.999999
0.999986
0.986753
0.693957
1
1
1
1
1
1
1
1
1
1
1
1
1
1
1
1
1
1
0.999797
0.993954
0.862802
0.253097
2.34192e-18
1
1
1
1
1
1
1
1
1
1
1
1
1
1
1
1
0.993091
0.979741
0.667385
0.254869
2.33731e-18
4.12348e-10
5.15722e-09
1
1
1
1
1
1
1
1
1
0.970508
0.909687
0.852832
0.816938
0.808149
0.814756
0.765656
0.512343
0.377945
0.0387255
-2.80222e-14
2.81604e-12
8.68759e-08
2.52883e-08
1
0.992837
0.952899
0.895036
0.81718
0.715779
0.591109
0.448545
0.296319
0.187036
0.128793
0.112395
0.122805
0.158333
0.166265
0.133763
0.0937379
0.0226998
-1.19933e-19
-1.33157e-09
1.64163e-11
8.95968e-11
8.72025e-11
0.402626
0.344072
0.251475
0.163185
0.0928988
0.0421928
0.0120934
0.000571734
6.23968e-08
4.67282e-08
1.09738e-12
-3.49612e-19
1.59551e-06
0.000453905
0.000353075
0.00672854
7.71475e-05
7.81516e-06
4.65662e-06
1.74354e-06
-3.74707e-11
1.35219e-10
1.38809e-10
1.15076e-07
7.64446e-09
5.13503e-10
5.15185e-10
4.98029e-10
3.85605e-10
3.92816e-10
3.85503e-10
2.35442e-08
2.14583e-08
1.89919e-08
4.83413e-09
6.52562e-16
1.0974e-12
7.03546e-06
3.7676e-05
6.82819e-05
8.2255e-05
3.0686e-05
5.02041e-06
2.27162e-21
3.16951e-11
3.35491e-11
2.26357e-07
1.16446e-07
8.11202e-08
3.85595e-09
4.94856e-10
4.60457e-10
4.52924e-10
2.75599e-09
5.60307e-09
7.35608e-09
1.07205e-08
6.24349e-09
1.09675e-12
1.31703e-08
4.42869e-07
2.53108e-08
9.20359e-06
1.45759e-05
4.80355e-06
7.27375e-10
6.48403e-21
3.72947e-11
8.67646e-13
3.95833e-08
2.83395e-08
1.65516e-08
2.47585e-09
5.98652e-10
5.13938e-10
3.45407e-10
7.02515e-10
1.18915e-09
1.98765e-09
3.89476e-09
3.58556e-09
3.5858e-11
1.58199e-09
-4.53315e-10
8.31334e-11
7.34664e-11
9.9762e-11
6.5175e-11
3.64342e-10
1.04274e-08
3.85029e-08
6.73672e-08
1.7667e-08
8.39445e-09
4.22141e-09
1.05367e-09
3.24366e-10
2.38357e-10
1.07737e-10
1.08332e-10
1.6505e-10
3.85948e-10
8.99327e-10
1.63833e-09
9.71423e-11
4.17606e-10
1.5776e-09
1.95728e-10
1.15657e-10
6.66519e-11
1.29852e-09
7.2281e-09
1.62591e-08
1.72269e-07
1.94471e-07
6.39709e-09
2.2814e-09
9.59932e-10
3.24859e-10
1.23881e-10
8.18955e-11
2.51076e-11
1.34159e-11
1.91235e-11
5.68124e-11
1.4668e-10
1.63768e-10
1.02519e-10
2.13498e-10
4.32908e-10
7.18162e-10
1.97178e-09
5.34284e-09
4.84132e-09
4.25401e-09
3.11768e-09
5.89272e-09
5.87244e-07
2.61701e-09
8.98875e-10
3.06049e-10
1.12401e-10
4.79559e-11
2.8379e-11
6.89427e-12
1.65477e-12
2.15557e-12
7.63578e-12
2.44592e-11
4.73711e-11
8.31681e-11
1.86948e-10
3.76506e-10
7.98203e-10
1.81656e-09
2.14971e-08
5.43616e-08
3.33389e-08
3.3481e-09
2.8932e-09
8.61853e-07
1.03983e-09
3.62306e-10
1.15527e-10
4.24008e-11
1.79106e-11
9.49327e-12
2.13217e-12
2.92331e-13
2.74489e-13
1.37765e-12
5.595e-12
1.71561e-11
4.17542e-11
1.2018e-10
3.01195e-10
6.70281e-10
8.45612e-10
1.5436e-08
5.81772e-08
5.83453e-08
3.51092e-08
1.41887e-07
5.63501e-07
3.37242e-10
1.20173e-10
3.92225e-11
1.44077e-11
5.83355e-12
2.81692e-12
6.28957e-13
7.01971e-14
5.46589e-14
3.97759e-13
2.03398e-12
8.43259e-12
2.56251e-11
7.17628e-11
1.55917e-10
3.97403e-10
4.57623e-10
5.97449e-09
3.61877e-08
5.38739e-08
4.70705e-08
1.17556e-07
1.39381e-06
8.91484e-11
3.27506e-11
1.12828e-11
4.21273e-12
1.65103e-12
7.37364e-13
1.69303e-13
1.71646e-14
1.57646e-14
1.44565e-13
8.78205e-13
4.13974e-12
1.46986e-11
4.18648e-11
9.69754e-11
1.77656e-10
3.73115e-10
2.32189e-09
2.72854e-09
9.59372e-09
2.35254e-08
2.05948e-10
9.56627e-07
1.95872e-11
7.52878e-12
2.75758e-12
1.05824e-12
4.08843e-13
1.7179e-13
4.12574e-14
4.195e-15
6.53769e-15
5.78473e-14
3.73111e-13
1.89364e-12
7.54321e-12
2.33805e-11
5.82498e-11
1.21681e-10
2.48347e-10
7.74884e-10
3.83804e-10
2.52474e-10
7.4826e-10
1.39225e-10
3.22846e-07
3.60304e-12
1.47312e-12
5.71521e-13
2.26232e-13
8.81454e-14
3.51417e-14
8.72122e-15
1.01979e-15
3.28147e-15
2.42467e-14
1.53424e-13
8.11057e-13
3.46974e-12
1.17101e-11
3.19885e-11
7.304e-11
1.53737e-10
4.02731e-10
3.27521e-10
2.52828e-10
1.49919e-10
1.44195e-10
7.43813e-08
5.67084e-13
2.45017e-13
1.00051e-13
4.09942e-14
1.61818e-14
6.2232e-15
1.54635e-15
3.04599e-16
1.67828e-15
1.03745e-14
6.11113e-14
3.27542e-13
1.45511e-12
5.2461e-12
1.55849e-11
3.90942e-11
8.66197e-11
2.03039e-10
2.30134e-10
2.21745e-10
1.57434e-10
2.78388e-09
3.02689e-09
6.62427e-14
3.46205e-14
1.49257e-14
6.32964e-15
2.52995e-15
9.4576e-16
2.27907e-16
1.17287e-16
7.84755e-16
4.32855e-15
2.35296e-14
1.24024e-13
5.62299e-13
2.11687e-12
6.73303e-12
1.84517e-11
4.43316e-11
9.69581e-11
1.37169e-10
1.58971e-10
1.06259e-10
2.29789e-09
3.08221e-09
7.66195e-15
4.20409e-15
1.93345e-15
8.45327e-16
3.38761e-16
1.21735e-16
2.85831e-17
4.6873e-17
3.19722e-16
1.6709e-15
8.59336e-15
4.34805e-14
2.00468e-13
7.73389e-13
2.58182e-12
7.62997e-12
1.98499e-11
4.39254e-11
7.17089e-11
9.56792e-11
1.00524e-10
1.22e-09
1.68361e-09
8.36892e-16
4.46561e-16
2.21086e-16
9.86453e-17
3.87808e-17
1.28054e-17
3.36016e-18
1.67464e-17
1.11406e-16
5.74189e-16
2.88141e-15
1.40127e-14
6.50847e-14
2.60148e-13
8.85905e-13
2.72538e-12
7.63962e-12
1.79228e-11
3.30321e-11
4.91245e-11
8.41663e-11
4.63818e-10
7.01196e-10
7.76479e-17
4.23073e-17
2.24494e-17
1.0025e-17
3.70613e-18
9.98903e-19
4.95979e-19
5.03306e-18
3.2961e-17
1.71676e-16
8.60691e-16
4.12877e-15
1.92032e-14
7.31347e-14
2.6596e-13
8.42022e-13
2.53181e-12
6.36336e-12
1.31726e-11
2.21035e-11
5.13225e-11
1.59874e-10
2.33261e-10
6.36236e-18
3.61525e-18
2.01891e-18
8.71911e-19
2.76058e-19
3.72731e-20
1.04637e-19
1.29258e-18
8.25627e-18
4.40812e-17
2.25317e-16
1.07721e-15
4.65539e-15
1.82632e-14
6.97268e-14
2.29442e-13
7.26553e-13
1.94817e-12
4.36754e-12
8.34413e-12
2.14445e-11
4.31503e-11
6.2488e-11
4.71576e-19
2.78755e-19
1.60047e-19
6.2675e-20
1.25255e-20
-4.02081e-21
2.34293e-20
2.29079e-19
1.75577e-18
9.6848e-18
4.98056e-17
2.28329e-16
1.01401e-15
4.22537e-15
1.61363e-14
5.49503e-14
1.79574e-13
5.10916e-13
1.19805e-12
2.60013e-12
6.47432e-12
1.0544e-11
1.58016e-11
3.15855e-20
1.93269e-20
1.11452e-20
3.41966e-21
-3.4492e-22
-1.02434e-21
4.4018e-21
4.52665e-20
3.09523e-19
1.77021e-18
9.29692e-18
4.38307e-17
2.05705e-16
8.65928e-16
3.27344e-15
1.13537e-14
3.78683e-14
1.11449e-13
2.76231e-13
6.71371e-13
1.53603e-12
2.1161e-12
3.49855e-12
1.90637e-21
1.19814e-21
6.76116e-22
9.57283e-23
-1.55113e-22
-1.27099e-22
6.75503e-22
6.47847e-21
4.56204e-20
2.70557e-19
1.50312e-18
7.63625e-18
3.62502e-17
1.51954e-16
5.73264e-16
2.01297e-15
6.7067e-15
1.99712e-14
5.28569e-14
1.38629e-13
2.83053e-13
3.67946e-13
6.82756e-13
1.02896e-22
6.57354e-23
3.48789e-23
-6.59153e-24
-2.11733e-23
-1.12417e-23
8.80134e-23
8.03026e-22
5.82625e-21
3.57398e-20
2.10691e-19
1.12096e-18
5.34121e-18
2.2522e-17
8.45145e-17
3.01214e-16
9.92843e-16
3.03395e-15
8.2444e-15
2.24153e-14
4.24936e-14
4.92795e-14
1.11399e-13
4.96526e-24
3.182e-24
1.45522e-24
-1.38195e-24
-2.08756e-24
-7.46102e-25
9.8934e-24
8.74314e-23
6.51985e-22
4.11634e-21
2.48284e-20
1.3465e-19
6.55779e-19
2.80037e-18
1.03339e-17
3.74283e-17
1.26271e-16
4.03887e-16
1.07609e-15
2.91455e-15
4.98402e-15
5.71484e-15
1.50753e-14
2.20055e-25
1.3889e-25
4.27403e-26
-1.4457e-25
-1.6901e-25
-3.46658e-26
9.54361e-25
8.26424e-24
6.30584e-23
4.07097e-22
2.42042e-21
1.33026e-20
6.74678e-20
2.91694e-19
1.06388e-18
3.90551e-18
1.25653e-17
4.13402e-17
1.07921e-16
3.07582e-16
5.42863e-16
5.20189e-16
1.6159e-15
9.34565e-27
5.65162e-27
1.67689e-28
-1.16707e-26
-1.17836e-26
-6.39583e-28
7.90343e-26
6.73668e-25
5.23105e-24
3.42886e-23
1.99801e-22
1.11414e-21
5.86136e-21
2.55255e-20
9.40038e-20
3.47593e-19
1.13249e-18
3.7724e-18
1.00405e-17
2.70279e-17
4.39703e-17
3.95867e-17
1.31975e-16
3.84392e-28
2.13703e-28
-9.77327e-29
-7.99464e-28
-7.25178e-28
7.08478e-29
5.68256e-27
4.76977e-26
3.74703e-25
2.47605e-24
1.44853e-23
8.18244e-23
4.33407e-22
1.88737e-21
7.10744e-21
2.62528e-20
9.07277e-20
3.00528e-19
7.95899e-19
1.98036e-18
2.92331e-18
2.29984e-18
7.90138e-18
1.48508e-29
7.06586e-30
-9.83821e-30
-4.83006e-29
-4.00157e-29
9.89456e-30
3.59881e-28
2.97027e-27
2.34323e-26
1.55038e-25
9.17396e-25
5.31222e-24
2.75031e-23
1.18874e-22
4.54682e-22
1.6641e-21
5.84952e-21
1.85967e-20
4.75921e-20
1.19362e-19
1.47583e-19
1.00845e-19
3.51925e-19
5.2385e-31
1.80209e-31
-6.82524e-31
-2.62773e-30
-2.0027e-30
7.83805e-31
2.03227e-29
1.64512e-28
1.28777e-27
8.48286e-27
4.97651e-26
3.02117e-25
1.51245e-24
6.44208e-24
2.45981e-23
8.84849e-23
3.06291e-22
8.97573e-22
2.31345e-21
5.24721e-21
3.71665e-21
3.67741e-21
9.11072e-21
1.68881e-32
2.03631e-33
-3.93725e-32
-1.30464e-31
-9.17472e-32
4.86546e-32
1.03219e-30
8.16841e-30
6.23658e-29
4.08077e-28
2.38001e-27
1.50327e-26
7.29042e-26
3.03779e-25
1.13367e-24
3.96499e-24
1.33865e-23
3.62005e-23
9.37251e-23
2.01968e-22
1.62626e-22
4.82405e-23
2.64472e-22
3.74348e-34
-1.30945e-34
-2.00352e-33
-5.96906e-33
-3.87742e-33
2.58029e-33
4.73627e-32
3.65378e-31
2.67967e-30
1.74954e-29
1.05715e-28
6.61892e-28
3.11778e-27
1.26061e-26
4.48215e-26
1.50019e-25
4.92664e-25
1.28039e-24
3.08687e-24
6.8408e-24
4.22679e-24
1.58905e-24
4.56468e-24
8.55209e-36
-1.27233e-35
-9.25509e-35
-2.53598e-34
-1.52199e-34
1.21363e-34
1.9653e-33
1.47868e-32
1.04013e-31
6.85498e-31
4.39692e-30
2.61952e-29
1.19795e-28
4.65027e-28
1.53456e-27
4.81941e-27
1.54681e-26
3.97825e-26
8.21396e-26
1.83179e-25
9.26098e-26
3.3188e-26
8.64563e-26
2.65566e-37
-7.36183e-37
-3.94624e-36
-1.00681e-35
-5.58196e-36
5.18287e-36
7.38145e-35
5.46123e-34
3.75045e-33
2.5219e-32
1.67119e-31
9.45043e-31
4.18912e-30
1.53913e-29
4.64911e-29
1.34513e-28
4.27736e-28
1.08219e-27
1.84399e-27
4.01944e-27
1.96246e-27
9.73267e-28
3.98783e-27
3.26105e-39
-3.5035e-38
-1.56978e-37
-3.75493e-37
-1.92274e-37
2.04813e-37
2.52624e-36
1.84914e-35
1.28938e-34
8.82335e-34
5.75588e-33
3.14408e-32
1.34881e-31
4.62049e-31
1.29364e-30
3.41839e-30
1.09044e-29
2.62285e-29
3.83696e-29
8.0996e-29
5.85188e-29
1.67829e-28
1.0908e-27
-7.91673e-41
-1.48555e-39
-5.86898e-39
-1.32124e-38
-6.24794e-39
7.58092e-39
8.01256e-38
5.71691e-37
4.27518e-36
2.92292e-35
1.81738e-34
9.73935e-34
4.03729e-33
1.27758e-32
3.44216e-32
8.36781e-32
2.66554e-31
5.89437e-31
8.92898e-31
2.43315e-30
9.313e-30
6.85124e-29
4.86671e-28
-8.51774e-42
-5.80043e-41
-2.07339e-40
-4.39992e-40
-1.9215e-40
2.63971e-40
2.41898e-39
1.65633e-38
1.36141e-37
9.08895e-37
5.33444e-36
2.83179e-35
1.13234e-34
3.32178e-34
8.96106e-34
2.05189e-33
6.54452e-33
1.5518e-32
5.58017e-32
4.17807e-31
3.48591e-30
2.63222e-29
2.10078e-28
-4.56984e-43
-2.11928e-42
-6.9432e-42
-1.39031e-41
-5.60755e-42
8.62298e-42
7.12644e-41
4.82532e-40
4.12332e-39
2.64982e-38
1.47206e-37
7.78589e-37
2.99684e-36
8.32619e-36
2.30908e-35
5.53057e-35
2.35005e-34
1.42867e-33
1.43652e-32
1.40693e-31
1.16452e-30
8.97785e-30
6.64683e-29
0.737847
0.639988
0.60794
0.528909
0.231848
-2.20769e-09
-7.74292e-10
2.1705e-26
-4.00697e-24
2.2077e-09
7.96891e-09
1.1205e-08
1.74121e-08
1.78104e-08
1.70598e-08
1.70181e-08
8.06376e-11
1.20288e-10
1.68438e-10
1.62098e-10
2.04797e-10
2.95739e-10
3.26248e-10
3.83101e-10
1.26979e-10
1.10123e-10
1.01705e-10
9.96028e-11
3.90436e-11
4.26899e-11
4.52574e-11
4.83912e-11
3.73002e-11
2.26178e-11
6.06737e-11
1.10075e-10
2.75293e-08
4.19388e-11
2.72863e-09
3.58679e-09
1.51625e-07
8.17823e-08
3.05746e-08
1.46137e-08
7.52302e-07
4.19115e-07
9.88783e-08
1.49731e-08
3.56591e-06
2.20092e-06
6.51005e-08
4.66308e-08
3.85143e-06
5.14146e-06
4.64848e-06
1.35582e-07
4.13694e-06
5.14143e-06
5.14145e-06
5.14143e-06
5.0827e-06
5.14055e-06
5.14145e-06
5.14146e-06
1.94469e-06
2.64621e-06
4.23537e-06
5.14136e-06
9.91715e-08
1.67386e-07
3.64847e-07
7.09627e-07
3.02686e-09
2.80858e-08
7.92548e-08
1.39407e-07
5.23588e-09
4.25706e-09
1.59584e-08
3.59175e-08
2.5765e-09
4.1578e-09
4.47434e-09
6.98184e-09
1.06061e-09
1.20357e-09
1.31312e-09
1.86456e-09
3.13398e-10
3.19328e-10
3.42086e-10
5.41158e-10
8.05946e-11
7.37906e-11
8.88327e-11
1.53449e-10
1.85388e-11
1.92521e-11
2.51667e-11
3.97343e-11
4.15589e-12
4.75131e-12
5.70153e-12
9.00134e-12
8.53744e-13
1.06856e-12
1.31547e-12
1.62352e-12
1.46862e-13
1.91918e-13
2.11046e-13
2.81797e-13
2.13177e-14
2.44202e-14
2.93019e-14
3.34456e-14
2.43014e-15
2.85596e-15
2.89527e-15
3.52192e-15
2.15109e-16
2.40266e-16
2.36726e-16
1.47994e-16
1.41308e-17
1.57953e-17
1.61299e-17
1.20426e-17
6.63818e-19
5.34449e-19
7.2699e-19
6.1339e-19
2.07306e-20
1.9866e-20
1.56541e-20
1.48024e-20
4.45646e-22
2.2645e-22
2.99139e-22
1.65953e-22
6.87274e-24
4.02848e-24
2.0763e-24
2.16529e-24
1.10851e-25
1.24482e-25
3.18261e-25
9.04896e-25
1.46277e-26
4.89034e-26
1.55406e-25
4.64591e-25
5.96517e-27
2.29929e-26
7.93209e-26
2.35254e-25
3.18964e-27
1.11492e-26
3.49811e-26
1.1597e-25
1.32971e-27
4.65832e-27
1.52238e-26
4.45913e-26
4.28706e-28
1.32285e-27
3.83237e-27
9.866e-27
0.23884
0.108023
0.0324055
0.0010639
7.44891e-19
1.08421e-18
2.08177e-18
1.98918e-14
0.00336009
0.0244971
0.116158
0.548771
0.984697
0.967694
0.517414
0.00050737
0.00544702
0.491395
0.00641309
8.07906e-26
-1.4499e-26
-1.12092e-11
7.42547e-10
1.84633e-09
3.48068e-09
5.72051e-09
5.03963e-09
-1.3423e-10
1.24452e-20
-6.637e-12
0.00804006
0.492461
0.973249
0.879552
0.44186
0.51836
0.268337
1.48661e-06
1.26784e-08
1.32163e-08
1.11485e-08
7.90146e-09
1.49774e-08
2.7952e-08
5.15926e-08
5.71844e-08
5.62962e-08
2.3572e-08
7.37338e-09
1.75415e-14
0.0160908
0.604796
0.911521
0.838749
0.792391
1.06355e-06
1.486e-06
1.31699e-08
5.99031e-09
1.14305e-09
1.30805e-09
3.22058e-09
3.31519e-09
7.44941e-10
2.57912e-10
2.63195e-10
1.40536e-09
2.51454e-09
7.86536e-29
6.23308e-20
0.0262359
0.56989
0.848555
0.635588
5.22405e-05
7.38557e-07
1.48841e-10
1.62102e-10
3.54196e-10
3.83342e-10
2.57228e-10
1.85637e-10
1.67472e-10
3.9784e-10
7.49581e-10
9.22152e-10
9.66758e-10
2.37244e-10
4.76965e-22
0.00159885
0.0224487
0.256338
0.0727062
0.00258859
9.81051e-08
4.59473e-10
5.5293e-10
6.11655e-10
6.0933e-10
5.96392e-10
6.0526e-10
5.74887e-10
4.643e-10
4.04199e-10
5.28838e-10
8.89881e-10
6.96876e-10
-5.02343e-22
0.00040476
0.00202981
0.00571838
0.0196459
0.0022387
1.00671e-07
1.13327e-10
1.76228e-10
2.40306e-10
2.94409e-10
3.25024e-10
3.09441e-10
2.68287e-10
2.3954e-10
2.38302e-10
9.48692e-10
2.9335e-09
2.85762e-09
-1.51019e-22
2.48238e-05
0.000404708
0.00255504
0.000265792
5.4285e-05
9.56561e-07
5.88849e-11
8.74602e-11
1.07057e-10
1.26909e-10
1.30476e-10
1.28343e-10
1.42967e-10
1.49953e-10
1.50432e-10
1.48734e-10
1.33462e-10
1.40158e-10
3.07812e-09
7.04786e-08
4.1396e-06
6.5884e-05
2.79504e-07
7.22376e-10
5.78223e-08
9.55501e-11
6.18795e-11
5.97351e-11
4.87249e-11
4.33757e-11
4.62955e-11
5.481e-11
6.5113e-11
7.774e-11
9.25823e-11
1.14151e-10
1.80493e-10
2.52935e-10
1.44584e-10
1.45798e-10
2.21666e-10
7.49027e-10
7.07754e-10
7.22339e-10
2.05986e-09
5.84147e-11
6.06807e-11
3.56618e-11
2.28354e-11
2.04895e-11
1.96509e-11
2.4448e-11
2.89364e-11
3.53826e-11
4.73785e-11
7.34308e-11
9.6708e-11
1.40574e-10
1.96489e-10
3.52813e-10
5.10481e-10
6.14657e-10
8.30234e-10
8.5357e-09
1.79096e-10
2.75806e-10
1.57998e-10
4.46917e-11
2.18767e-11
1.25946e-11
1.06448e-11
8.50491e-12
7.73482e-12
8.27503e-12
8.56324e-12
8.52686e-12
7.06605e-12
4.79882e-12
2.71199e-12
1.14495e-12
4.91974e-12
9.74473e-12
1.48995e-08
1.18869e-10
6.89433e-10
6.36397e-10
2.32969e-10
1.25293e-10
5.23791e-11
1.91874e-11
6.55003e-12
2.48291e-12
1.32886e-12
1.03432e-12
7.75093e-13
4.0197e-13
2.1842e-13
9.90453e-14
3.13735e-14
7.6351e-15
6.9901e-15
2.22125e-08
1.36303e-10
1.15376e-09
1.54529e-09
5.7302e-10
2.67593e-10
1.87412e-10
5.61514e-11
2.67514e-11
7.4092e-12
1.29272e-12
5.22689e-13
3.15849e-13
1.70942e-13
1.31609e-13
1.01803e-13
6.92759e-14
1.45507e-14
6.43052e-15
5.4946e-08
1.09436e-09
1.22387e-09
3.41484e-09
1.46329e-09
9.55568e-10
4.36676e-10
1.34852e-10
6.67719e-11
2.30336e-11
4.76407e-12
1.99574e-12
1.32915e-12
1.01631e-12
9.56179e-13
5.85517e-13
2.33798e-13
3.0459e-14
1.71936e-15
3.12523e-06
8.82621e-10
1.28465e-09
8.80931e-09
3.50668e-09
1.93051e-09
9.43043e-10
4.11561e-10
1.7493e-10
6.47871e-11
1.64626e-11
7.25147e-12
5.86979e-12
4.44251e-12
3.06267e-12
1.42208e-12
5.62751e-13
1.18992e-13
4.73425e-15
5.14136e-06
1.86844e-06
8.81877e-10
1.21843e-08
4.26165e-09
2.82581e-09
1.58409e-09
7.37195e-10
3.099e-10
1.76616e-10
6.21925e-11
2.81548e-11
1.36094e-11
9.06504e-12
4.98197e-12
2.93492e-12
1.01444e-12
2.41177e-13
1.46741e-14
5.14146e-06
3.59949e-06
2.0461e-07
2.84936e-08
5.85658e-09
2.74534e-09
1.83087e-09
1.15832e-09
6.2173e-10
2.71318e-10
1.37971e-10
5.18383e-11
2.10906e-11
1.22386e-11
8.41009e-12
4.38037e-12
1.70906e-12
3.31886e-13
2.0777e-14
1.94238e-06
1.33732e-06
3.02659e-07
3.8933e-08
9.83537e-09
2.85195e-09
1.2175e-09
1.04324e-09
7.40244e-10
4.07357e-10
2.12268e-10
8.52516e-11
3.38739e-11
1.60358e-11
9.90003e-12
5.21632e-12
2.30351e-12
4.19672e-13
2.33592e-14
2.61865e-07
2.20958e-07
1.29807e-07
3.81507e-08
1.87372e-08
5.40828e-09
1.33972e-09
6.21933e-10
5.3857e-10
4.29838e-10
2.44755e-10
1.09469e-10
4.17332e-11
1.7212e-11
1.02373e-11
5.45152e-12
2.56154e-12
5.44331e-13
2.46139e-14
7.39159e-08
8.53647e-08
5.01629e-08
2.80018e-08
1.40564e-08
6.01428e-09
1.09463e-09
4.95012e-10
3.64204e-10
2.91842e-10
2.13744e-10
1.15354e-10
4.39001e-11
1.63766e-11
8.76544e-12
5.24539e-12
2.61853e-12
5.70404e-13
2.73067e-14
2.15086e-08
2.68656e-08
2.08201e-08
1.27177e-08
7.0278e-09
3.62844e-09
1.05446e-09
2.9344e-10
2.31333e-10
2.01193e-10
1.59165e-10
9.40456e-11
3.96176e-11
1.29739e-11
7.21058e-12
4.53505e-12
2.39811e-12
5.29152e-13
2.80575e-14
6.10099e-09
8.01128e-09
6.6302e-09
4.44284e-09
2.79828e-09
1.66953e-09
6.32998e-10
1.93715e-10
1.24868e-10
1.07708e-10
9.18527e-11
6.47834e-11
3.07005e-11
1.10507e-11
5.51077e-12
3.76122e-12
2.07556e-12
4.60966e-13
3.40376e-14
1.73457e-09
2.3782e-09
1.98362e-09
1.36733e-09
9.46226e-10
5.93279e-10
2.67755e-10
1.0348e-10
6.13783e-11
5.17756e-11
4.48971e-11
3.39151e-11
1.85162e-11
7.67541e-12
4.1728e-12
2.86406e-12
1.60351e-12
4.37333e-13
3.5073e-14
4.93894e-10
6.02436e-10
5.00265e-10
4.05642e-10
3.06389e-10
2.00573e-10
1.06157e-10
4.52834e-11
2.68558e-11
2.32189e-11
1.98012e-11
1.47722e-11
8.73175e-12
4.36477e-12
2.8751e-12
2.1893e-12
1.37147e-12
3.97005e-13
3.75105e-14
1.10013e-10
1.32286e-10
1.26699e-10
1.1469e-10
9.07193e-11
6.05814e-11
3.16627e-11
1.51493e-11
1.07742e-11
9.19376e-12
8.2122e-12
6.35932e-12
3.83524e-12
2.31934e-12
1.91561e-12
1.61568e-12
1.01604e-12
3.69812e-13
2.42091e-14
2.22366e-11
3.05568e-11
3.09978e-11
2.8369e-11
2.27781e-11
1.53395e-11
7.87977e-12
4.27149e-12
3.58762e-12
3.32332e-12
2.90573e-12
2.34844e-12
1.71415e-12
1.4726e-12
1.41969e-12
1.23522e-12
7.98291e-13
2.78138e-13
2.05763e-14
4.37455e-12
6.37816e-12
6.55015e-12
6.01919e-12
4.83413e-12
3.12002e-12
1.64138e-12
1.20094e-12
1.1251e-12
1.06743e-12
9.76919e-13
7.94194e-13
7.55842e-13
7.24147e-13
6.95881e-13
7.79943e-13
4.89798e-13
1.82183e-13
1.26913e-14
7.74749e-13
1.18092e-12
1.23411e-12
1.1275e-12
8.57385e-13
4.57267e-13
2.30821e-13
1.72542e-13
1.50772e-13
1.34989e-13
1.38094e-13
1.69212e-13
2.25248e-13
2.89141e-13
3.17935e-13
3.16869e-13
3.00121e-13
1.00197e-13
7.0388e-15
1.19459e-13
1.83097e-13
1.72895e-13
1.32138e-13
6.71677e-14
1.85296e-14
6.26862e-15
5.52432e-15
6.12581e-15
1.01048e-14
2.20062e-14
4.62762e-14
8.23945e-14
1.20828e-13
1.44469e-13
1.38182e-13
1.13952e-13
4.01736e-14
2.48694e-15
3.19544e-15
2.67876e-15
1.7531e-15
7.24003e-16
1.3879e-16
1.61457e-17
1.33459e-17
2.41732e-17
2.73332e-16
1.80989e-15
6.32633e-15
1.54376e-14
2.99251e-14
4.9029e-14
6.10239e-14
5.86969e-14
3.74982e-14
1.30107e-14
1.10073e-15
3.62809e-17
2.87438e-18
2.7753e-19
5.38834e-20
8.3945e-21
5.53031e-21
9.2743e-21
9.79254e-20
4.50655e-17
3.23499e-16
1.17149e-15
3.41023e-15
8.52107e-15
1.61181e-14
2.18185e-14
2.09513e-14
1.14985e-14
3.55991e-15
4.10858e-16
2.65585e-18
1.04194e-19
9.63455e-21
2.76716e-21
2.67996e-21
4.18448e-21
7.76463e-21
1.4484e-20
3.01388e-18
2.00088e-17
9.11451e-17
4.88203e-16
1.83297e-15
4.19077e-15
6.07125e-15
5.61191e-15
2.70553e-15
7.11895e-16
7.52455e-17
1.32232e-19
3.31086e-21
5.98674e-22
9.21311e-22
1.87857e-21
4.08916e-21
8.27949e-21
1.59471e-20
5.97668e-20
2.77599e-19
2.14388e-18
4.80367e-17
2.682e-16
8.06155e-16
1.21205e-15
1.05025e-15
4.45471e-16
1.31716e-16
1.49041e-17
2.19859e-21
1.42798e-22
2.64306e-22
6.79251e-22
1.67572e-21
3.87733e-21
8.38721e-21
1.66713e-20
3.12846e-20
5.59032e-20
1.05901e-19
2.81586e-18
3.8664e-17
1.16499e-16
1.59793e-16
1.34726e-16
6.80089e-17
1.7315e-17
2.68713e-18
2.75108e-23
5.30382e-23
1.61507e-22
4.66898e-22
1.24315e-21
3.12601e-21
7.20806e-21
1.54676e-20
3.0836e-20
5.65373e-20
9.40944e-20
1.8027e-19
1.32741e-18
9.18991e-18
1.6697e-17
2.31103e-17
1.20428e-17
2.47881e-18
2.44758e-19
7.45369e-24
2.67546e-23
9.12768e-23
2.85558e-22
8.27115e-22
2.21052e-21
5.4847e-21
1.25517e-20
2.67707e-20
5.08518e-20
8.71368e-20
1.3027e-19
1.9391e-19
2.08733e-18
6.65454e-18
6.78668e-18
3.05151e-18
5.36813e-19
5.10079e-20
3.42098e-24
1.31569e-23
4.84568e-23
1.61444e-22
4.96464e-22
1.39235e-21
3.61062e-21
8.68392e-21
1.96586e-20
3.89682e-20
6.83564e-20
1.07479e-19
1.52393e-19
9.69567e-19
1.85168e-18
1.55817e-18
4.97169e-19
6.9358e-20
1.22279e-20
1.5978e-24
6.5841e-24
2.53675e-23
8.92999e-23
2.79287e-22
7.96571e-22
2.1221e-21
5.17492e-21
1.19525e-20
2.49236e-20
4.45875e-20
6.93672e-20
1.00251e-19
3.20704e-19
2.66738e-19
1.58489e-19
4.09059e-20
1.35851e-20
3.84052e-21
7.40172e-25
3.26163e-24
1.28235e-23
4.53684e-23
1.41786e-22
4.1468e-22
1.08167e-21
2.55194e-21
5.71738e-21
1.21071e-20
2.13911e-20
3.17166e-20
4.4587e-20
8.46577e-20
4.45042e-20
1.52845e-20
8.59044e-21
4.73254e-21
1.72304e-21
3.19176e-25
1.37411e-24
5.41722e-24
1.88275e-23
5.85927e-23
1.69365e-22
4.43355e-22
1.0614e-21
2.34416e-21
4.7316e-21
8.3071e-21
1.22503e-20
1.48666e-20
1.77952e-20
8.82896e-21
3.96686e-21
2.60434e-21
1.52109e-21
8.12802e-22
1.13757e-25
4.66814e-25
1.74873e-24
5.94349e-24
1.83052e-23
5.23666e-23
1.37285e-22
3.304e-22
7.21058e-22
1.39819e-21
2.39719e-21
3.44406e-21
3.92454e-21
3.56341e-21
1.68515e-21
1.12405e-21
6.27634e-22
5.18453e-22
2.40293e-22
2.27358e-26
9.10375e-26
3.42393e-25
1.14538e-24
3.49383e-24
1.00663e-23
2.63088e-23
6.24614e-23
1.34596e-22
2.60159e-22
4.28224e-22
5.86482e-22
6.2651e-22
4.96047e-22
2.64289e-22
2.06278e-22
1.52824e-22
6.2931e-23
3.28881e-23
)
;

boundaryField
{
    leftWall
    {
        type            alphaContactAngle;
        contactAngleProperties 
        {
            mercury         
            {
                theta0          90;
            }
            air             
            {
                theta0          90;
            }
            oil             
            {
                theta0          90;
            }
        }
        value           nonuniform List<scalar> 
50
(
7.27962e-12
1.18457e-11
3.71142e-12
1.41825e-12
0.0952165
0.813492
1
1
1
1
1
1
1
1
0.402626
1.15076e-07
2.26357e-07
3.95833e-08
1.7667e-08
6.39709e-09
2.61701e-09
1.03983e-09
3.37242e-10
8.91484e-11
1.95872e-11
3.60304e-12
5.67084e-13
6.62427e-14
7.66195e-15
8.36892e-16
7.76479e-17
6.36236e-18
4.71576e-19
3.15855e-20
1.90637e-21
1.02896e-22
4.96526e-24
2.20055e-25
9.34565e-27
3.84392e-28
1.48508e-29
5.2385e-31
1.68881e-32
3.74348e-34
8.55209e-36
2.65566e-37
3.26105e-39
-7.91673e-41
-8.51774e-42
-4.56984e-43
)
;
    }
    rightWall
    {
        type            alphaContactAngle;
        contactAngleProperties 
        {
            mercury         
            {
                theta0          90;
            }
            air             
            {
                theta0          90;
            }
            oil             
            {
                theta0          90;
            }
        }
        value           nonuniform List<scalar> 
50
(
1.19671e-06
1.98394e-08
1.98394e-08
0.10557
0.18265
0.181634
0.166348
0.136556
0.00641309
1.48661e-06
1.486e-06
7.38557e-07
9.81051e-08
1.00671e-07
9.56561e-07
5.78223e-08
7.22339e-10
8.30234e-10
9.74473e-12
6.9901e-15
6.43052e-15
1.71936e-15
4.73425e-15
1.46741e-14
2.0777e-14
2.33592e-14
2.46139e-14
2.73067e-14
2.80575e-14
3.40376e-14
3.5073e-14
3.75105e-14
2.42091e-14
2.05763e-14
1.26913e-14
7.0388e-15
2.48694e-15
1.10073e-15
4.10858e-16
7.52455e-17
1.49041e-17
2.68713e-18
2.44758e-19
5.10079e-20
1.22279e-20
3.84052e-21
1.72304e-21
8.12802e-22
2.40293e-22
3.28881e-23
)
;
    }
    lowerWall
    {
        type            alphaContactAngle;
        contactAngleProperties 
        {
            mercury         
            {
                theta0          90;
            }
            air             
            {
                theta0          90;
            }
            oil             
            {
                theta0          90;
            }
        }
        value           nonuniform List<scalar> 
62
(
7.27962e-12
2.02818e-11
2.98196e-11
3.14262e-11
3.08241e-11
2.82396e-11
2.51145e-11
2.39008e-11
2.50151e-11
2.86891e-11
3.44908e-11
4.29479e-11
5.52468e-11
7.35412e-11
1.0301e-10
1.54089e-10
2.38939e-10
3.7063e-10
7.00487e-10
1.27951e-09
2.1878e-09
2.57817e-09
2.62501e-09
2.62501e-09
2.75721e-09
4.30204e-09
3.929e-09
4.07781e-10
0.0435042
0.73627
0.999201
0.737847
0.639988
0.60794
0.528909
3.71146e-07
5.96446e-07
4.65986e-07
0.0550157
0.795394
0.930278
0.933166
0.587689
3.71146e-07
3.86315e-07
2.68798e-13
3.97348e-16
-2.0289e-19
5.49217e-12
9.04977e-05
4.21107e-05
2.23196e-05
1.99249e-05
1.25687e-10
2.26989e-30
-6.78367e-24
1.18908e-06
8.82962e-05
2.91813e-05
2.91838e-05
2.14476e-05
1.19671e-06
)
;
    }
    atmosphere
    {
        type            inletOutlet;
        inletValue      uniform 0;
        value           nonuniform List<scalar> 
46
(
-4.56984e-43
-2.11928e-42
-6.9432e-42
-1.39031e-41
-5.60755e-42
8.62298e-42
7.12644e-41
4.82532e-40
4.12332e-39
2.64982e-38
1.47206e-37
7.78589e-37
2.99684e-36
8.32619e-36
2.30908e-35
5.53057e-35
2.35005e-34
1.42867e-33
1.43652e-32
1.40693e-31
1.16452e-30
8.97785e-30
6.64683e-29
4.28706e-28
0
0
0
0
0
0
0
0
0
0
0
0
0
0
0
0
0
0
0
0
0
0
)
;
    }
    defaultFaces
    {
        type            empty;
    }
}


// ************************************************************************* //
