/*--------------------------------*- C++ -*----------------------------------*\
  =========                 |
  \\      /  F ield         | OpenFOAM: The Open Source CFD Toolbox
   \\    /   O peration     | Website:  https://openfoam.org
    \\  /    A nd           | Version:  13
     \\/     M anipulation  |
\*---------------------------------------------------------------------------*/
FoamFile
{
    format      ascii;
    class       volScalarField;
    location    "0.85";
    object      alphas;
}
// * * * * * * * * * * * * * * * * * * * * * * * * * * * * * * * * * * * * * //

dimensions      [];

internalField   nonuniform List<scalar> 
2268
(
2
2
2
2
2
2
2
2
2
2
2
2
2
2
2
2
2
2
2
2
1.99982
1.99943
1.99943
2
2
2
2
2
2
2
2
2
2
2
2
2
2
2
2
2
2
2
2
1.99999
1.99979
1.9995
2
2
2
2
2
2
2
2
2
2
2
2
2
2
2
2
2
2
2
2
2
2
2
2
2
2
2
2
2
2
2
2
2
2
2
2
2
2
2
2
2
2
2
2
2
2
1.80957
1.86326
2
2
2
2
2
2
2
2
2
2
2
2
2
2
2
2
2
2
2
1.99999
1.99998
0.373016
0.432916
0.842437
1.47956
1.90236
2
2
2
2
2
2
2
2
2
2
2
2
2
2
1.99875
1.98323
1.94531
1.91297
3.19616e-08
2.91106e-08
3.14757e-08
0.0879967
0.403745
0.90069
1.37724
1.69472
1.82084
1.83192
1.82786
1.8266
1.80849
1.76406
1.69657
1.61391
1.52009
1.40469
1.26673
1.09569
0.8558
0.645783
0.527438
3.25075e-08
2.7037e-08
2.91765e-08
4.44117e-09
3.58504e-09
0.00121615
0.0523647
0.142221
0.232714
0.35559
0.466748
0.492212
0.456388
0.399828
0.345358
0.278103
0.202813
0.124718
0.0559343
7.22768e-06
5.19309e-06
9.95573e-06
0.00157656
1.05532
1.06113
1.05854
1.10444
1.13665
1.10942
1.07637
1.07445
1.13455
1.40602
1.57742
1.53299
1.34195
1.29258
1.33229
1.77504
2.64196
2.54678
2.17314
1.06239
1.12941
1.19598
1.25206
1.15015
1.15849
1.21721
1.32934
1.55835
1.76208
1.79878
1.82928
1.8359
1.83596
1.61607
1.70503
2.56259
2.36633
1.97143
1.1112
1.31942
1.11872
0.740329
0.534638
0.618664
0.745426
0.714371
0.528659
0.50382
0.656822
1.03595
1.51542
1.7382
1.80492
1.59938
2.38957
2.51662
1.99009
1.17786
0.912772
0.519801
0.0616822
0.000584771
0.00056129
0.000563551
0.000572144
0.000581394
0.000603715
0.000699688
0.0482054
0.235887
0.633865
1.5154
1.77744
2.45778
2.35677
1.85372
0.379627
0.235577
0.0582816
0.000635511
0.000675634
0.000487303
0.0003745
0.00035087
0.000344636
0.000322946
0.000450938
0.00202046
0.0021595
0.00325946
1.02823
1.78119
2.6114
2.00291
1.66941
0.148648
0.00740498
0.00302006
0.000979283
0.0019077
0.00068005
0.000379226
0.000309043
0.000312174
0.000309473
0.000307441
0.000589494
0.00177841
0.0104164
1.02798
2.19353
2.70088
1.86868
1.67182
0.200597
0.183856
0.306744
0.21663
0.189315
0.163484
0.120626
0.0802291
0.0454129
0.00153704
0.000374239
0.000325492
0.000325214
0.0559565
1.24031
2.64586
2.61423
1.66049
1.70433
1.22683
1.0792
1.08878
0.881226
0.882205
0.863383
0.792431
0.712668
0.613671
0.459623
0.156473
0.000939832
0.000650233
0.0765283
1.36282
2.34986
2.53877
1.41212
1.7432
2.73348e-08
2.47518e-08
2.50092e-08
1.64258e-08
5.49226e-09
1.34219e-09
1.27896e-09
9.64455e-10
7.9635e-10
7.1989e-10
6.7988e-10
6.71813e-10
8.17833e-10
1.57989e-09
6.16442e-09
3.94648e-08
2.2677e-07
7.76464e-07
2.23734e-06
2.66061e-06
4.36797e-06
2.80965e-05
0.10379
9.3071e-09
9.76385e-09
1.03686e-08
1.01723e-08
4.67559e-09
3.12252e-09
2.32701e-09
2.31408e-09
2.17116e-09
1.84959e-09
1.61822e-09
1.47939e-09
1.60871e-09
2.45541e-09
3.92934e-09
6.69146e-09
3.18721e-08
1.41728e-07
1.57661e-07
6.47818e-07
4.06741e-05
0.0397402
0.891134
3.12344e-09
3.44434e-09
3.82811e-09
4.01343e-09
2.6781e-09
2.13646e-09
2.08466e-09
2.79268e-09
4.23486e-09
5.38079e-09
4.81157e-09
2.61171e-09
1.41651e-09
4.69972e-10
2.74632e-10
9.90017e-09
4.67834e-08
2.40547e-07
0.000608644
0.0181375
0.406989
1.95769
2.15754
1.83223e-09
1.84726e-09
1.67547e-09
1.78045e-09
1.58667e-09
1.48476e-09
7.4446e-10
1.76677e-10
2.20773e-12
7.63607e-12
3.57251e-11
2.41882e-10
1.76666e-09
1.68863e-08
1.26642e-07
4.94097e-07
0.0207261
0.0607757
0.997845
2.03455
2.25593
1.35681
1
1.61733e-09
1.5574e-09
1.56252e-09
1.54954e-09
8.97249e-10
7.22813e-10
7.32396e-10
1.27939e-09
6.32845e-13
0.088475
0.27094
0.441505
0.549185
0.575552
0.555731
0.70303
1.46297
1.7098
1.94142
1.10733
1.00258
1.00435
1
1.55328e-09
0.0214894
0.141302
0.314891
0.548461
0.852663
1.22667
1.65436
2.11104
2.43889
2.61362
2.66281
2.63159
2.525
2.5012
2.52569
1.42321
0.990043
1.07065
1.01347
1
1
1
1.79212
1.96778
2.24557
2.51044
2.7213
2.87342
2.96372
2.99828
3
3
3
3
3
2.99864
2.8136
1.29079
1.00002
0.999994
0.999996
1
1
1
1
3
3
3
3
3
3
3
3
3
3
3
3
3
3
2.9362
1.47182
0.999989
0.999918
0.999969
0.999995
1
1
1
3
3
3
3
3
3
3
3
3
3
3
3
3
3
3
2.96837
2.69801
2.01009
1.4413
1.40366
1.48316
1.42868
1.3508
3
3
3
3
3
3
3
3
3
3
3
3
3
3
3
3
3
2.9956
2.97589
2.98579
2.99841
2.90287
2.81141
3
3
3
3
3
3
3
3
3
3
3
3
3
3
3
3
3
3
3
3
3
3
3
3
3
3
3
3
3
3
3
3
3
3
3
3
3
3
3
3
3
3
3
3
3
3
3
3
3
3
3
3
3
3
3
3
3
3
3
3
3
3
3
2.99999
2.99995
2.99986
2.99999
3
3
3
3
3
3
3
3
3
3
3
3
3
3
3
3
3
3
3
3
2.99978
2.99952
2.99954
2.9999
3
3
3
3
3
3
3
3
3
3
3
3
3
3
3
3
3
3
3
2.99989
2.99952
2.99952
2.99968
2.99999
3
3
3
3
3
3
3
3
3
3
3
3
3
3
3
3
3
3
3
2.99989
2.99967
2.99984
2.99999
3
3
3
3
3
3
3
3
3
3
3
3
3
3
3
3
3
3
3
3
2.99999
3
3
3
3
3
3
3
3
3
3
3
3
3
3
3
3
3
3
3
3
3
3
3
3
3
3
3
3
3
3
3
3
3
3
3
3
3
3
3
3
3
3
3
3
3
3
3
3
3
3
3
3
3
3
3
3
3
3
3
3
3
3
3
3
3
3
3
3
3
3
3
3
3
3
3
3
3
3
3
3
3
3
3
3
3
3
3
3
3
3
3
3
3
3
3
3
3
3
3
3
3
3
3
3
3
3
3
3
3
3
3
3
3
3
3
3
3
3
3
3
3
3
3
3
3
3
3
3
3
3
3
3
3
3
3
3
3
3
3
3
3
3
3
3
3
3
3
3
3
3
3
3
3
3
3
3
3
3
3
3
3
3
3
3
3
3
3
3
3
3
3
3
3
3
3
3
3
3
3
3
3
3
3
3
3
3
3
3
3
3
3
3
3
3
3
3
3
3
3
3
3
3
3
3
3
3
3
3
3
3
3
3
3
3
3
3
3
3
3
3
3
3
3
3
3
3
3
3
3
3
3
3
3
3
3
3
3
3
3
3
3
3
3
3
3
3
3
3
3
3
3
3
3
3
3
3
3
3
3
3
3
3
3
3
3
3
3
3
3
3
3
3
3
3
3
3
3
3
3
3
3
3
3
3
3
3
3
3
3
3
3
3
3
3
3
3
3
3
3
3
3
3
3
3
3
3
3
3
3
3
3
3
3
3
3
3
3
3
3
3
3
3
3
3
3
3
3
3
3
3
3
3
3
3
3
3
3
3
3
3
3
3
3
3
3
3
3
3
3
3
3
3
3
3
3
3
3
3
3
3
3
3
3
3
3
3
3
3
3
3
3
3
3
3
3
3
3
3
3
3
3
3
3
3
3
3
3
3
3
3
3
3
3
3
3
3
3
3
3
3
3
3
3
3
3
3
3
3
3
3
3
3
3
3
3
3
3
3
3
3
3
3
3
3
3
3
3
3
3
3
3
3
3
3
3
3
3
3
3
3
3
3
3
3
3
3
3
3
3
3
3
3
3
3
3
3
3
3
3
3
3
3
3
3
3
3
3
3
3
3
3
3
3
3
3
3
3
3
3
3
3
3
3
3
3
3
3
3
3
3
3
3
3
3
3
3
3
3
3
3
3
3
3
3
3
3
3
3
3
3
3
3
3
3
3
3
3
3
3
3
3
3
3
3
3
3
3
3
3
3
3
3
3
3
3
3
3
3
3
3
3
3
3
3
3
3
3
3
3
3
3
3
3
3
3
3
3
3
3
3
3
3
3
3
3
3
3
3
3
3
3
3
3
3
3
3
3
0.624361
0.885834
0.936595
1.14933
1.94857
2.17645
2.13741
1.75599
1.34418
1
1
1
1
1
1
1
1
1
1
1
1
1
1
1.00002
1
1
1
1.00003
1
1
1
1
1.51333
1.54535
1.30095
1.16152
2.97457
2.99396
2.85626
2.65235
3
3
3
3
3
3
3
3
2.99999
2.99999
3
3
2.99999
2.99998
2.99999
3
2.99999
2.99998
2.99998
2.99998
2.99998
2.99998
2.99998
2.99998
2.99999
2.99999
2.99999
2.99998
3
3
3
3
3
3
3
3
3
3
3
3
3
3
3
3
3
3
3
3
3
3
3
3
3
3
3
3
3
3
3
3
3
3
3
3
3
3
3
3
3
3
3
3
3
3
3
3
3
3
3
3
3
3
3
3
3
3
3
3
3
3
3
3
3
3
3
3
3
3
3
3
3
3
3
3
3
3
3
3
3
3
3
3
3
3
3
3
3
3
3
3
3
3
3
3
3
3
3
3
1.59497
1.66069
1.33119
1.06462
1.02869
1.02699
1.01303
1.00932
1.0018
0.977079
0.884909
0.452267
0.0162469
0.0488485
0.846396
1.92221
1.91249
0.954413
1.82626
1.27628
1.00013
1
1
1
1
1
1
1
1.00011
1.00022
0.992785
0.508099
0.035503
0.189534
0.926197
0.812827
1.18434
1.69638
1
1
1
1
1
1
1
1
1
1
1
1.00005
0.983967
0.395288
0.11498
0.260966
0.312527
1.22621
1.49518
1
1
1
1
1
1
1
1
1
1
1
1.00015
1.00016
0.973764
0.432251
0.181788
0.380103
1.07997
2.05743
1.00002
1.00007
1.00005
1
1
1
1
1
1
1
1
1.00001
1.00864
1.0137
0.98076
0.743719
0.927353
1.04333
2.53306
1.00019
1.00025
1.00018
1
1
1
1
1
1
1
1
1
1.00102
1.05669
1.09818
1.03427
0.9818
1.05808
2.62321
1.00016
1.00023
1.00002
1
1
1
1
1
1
1
1
1
1
1.0007
1.12411
1.34214
1.27562
1.59353
2.66104
1
1
1
1
1
1
1
1
1
1
1
1
1
1
0.999998
1.167
1.51959
1.88273
2.69617
1.09475
1.02875
1
1
1
1
1
1
1
1
1
1
1
1
1
1.05602
1.87948
2.3932
2.69807
2.44327
2.17987
1.84074
1.49137
1.26328
1.10397
1.02119
1
1
1
1
1
1
1
1.00696
1.12347
1.43589
1.65208
1.80914
3
3
3
2.96481
2.75657
2.48779
2.14911
1.82552
1.58958
1.48585
1.43459
1.42367
1.58138
1.8446
2.09076
2.32181
2.47044
2.58754
2.65956
3
3
3
3
3
3
3
3
2.98624
2.93522
2.91538
2.92604
3
3
3
3
2.99998
3
2.99982
3
3
3
3
3
3
3
3
3
3
3
3
3
3
2.99907
2.99063
2.9873
2.98919
2.99476
3
3
3
3
3
2.99999
3
3
3
3
3
3
3
3
2.99666
2.98485
2.98442
2.98845
2.99543
2.99999
3
3
3
3
2.99999
2.99999
2.99999
3
3
3
2.99999
3
2.9997
2.99944
3
3
3
3
2.99998
2.99999
3
3
3
3
3
2.99999
2.99999
3
2.99999
2.99999
2.99998
3
3
3
2.99997
2.99992
3
2.99998
2.99999
3
3
3
3
3
3
3
3
3
3
3
3
3
3
2.99994
2.9999
3
2.99999
3
3
3
3
3
3
3
3
3
3
3
3
3
3
3
3
2.99995
3
3
3
3
3
3
3
3
3
3
3
3
3
3
3
3
3
3
3
3
3
3
3
3
3
3
3
3
3
3
3
3
3
3
3
3
3
3
3
3
3
3
3
3
3
3
3
3
3
3
3
3
3
3
3
3
3
3
3
3
3
3
3
3
3
3
3
3
3
3
3
3
3
3
3
3
3
3
3
3
3
3
3
3
3
3
3
3
3
3
3
3
3
3
3
3
3
3
3
3
3
3
3
3
3
3
3
3
3
3
3
3
3
3
3
3
3
3
3
3
3
3
3
3
3
3
3
3
3
3
3
3
3
3
3
3
3
3
3
3
3
3
3
3
3
3
3
3
3
3
3
3
3
3
3
3
3
3
3
3
3
3
3
3
3
3
3
3
3
3
3
3
3
3
3
3
3
3
3
3
3
3
3
3
3
3
3
3
3
3
3
3
3
3
3
3
3
3
3
3
3
3
3
3
3
3
3
3
3
3
3
3
3
3
3
3
3
3
3
3
3
3
3
3
3
3
3
3
3
3
3
3
3
3
3
3
3
3
3
3
3
3
3
3
3
3
3
3
3
3
3
3
3
3
3
3
3
3
3
3
3
3
3
3
3
3
3
3
3
3
3
3
3
3
3
3
3
3
3
3
3
3
3
3
3
3
3
3
3
3
3
3
3
3
3
3
3
3
3
3
3
3
3
3
3
3
3
3
3
3
3
3
3
3
3
3
3
3
3
3
3
3
3
3
3
3
3
3
3
3
3
3
3
3
3
3
3
3
3
3
3
3
3
3
3
3
3
3
3
3
3
3
3
3
3
3
3
3
3
3
3
3
3
3
3
3
3
3
3
3
3
3
3
3
3
3
3
3
3
3
3
3
3
3
3
3
3
3
3
3
3
3
3
3
3
3
3
3
3
3
3
3
3
3
3
3
3
3
3
3
3
3
3
3
3
3
3
3
3
3
3
3
3
3
3
3
3
3
3
3
3
3
3
3
3
3
3
3
3
3
3
3
3
3
3
3
3
3
3
3
3
3
3
3
3
3
3
)
;

boundaryField
{
    leftWall
    {
        type            calculated;
        value           nonuniform List<scalar> 
50
(
2
2
2
2
1.80957
0.373016
3.19616e-08
3.25075e-08
2.73348e-08
9.3071e-09
3.12344e-09
1.83223e-09
1.61733e-09
1.55328e-09
1.79212
3
3
3
3
3
3
3
3
3
3
3
3
3
3
3
3
3
3
3
3
3
3
3
3
3
3
3
3
3
3
3
3
3
3
3
)
;
    }
    rightWall
    {
        type            calculated;
        value           nonuniform List<scalar> 
50
(
2.17314
1.97143
1.99009
1.85372
1.66941
1.67182
1.70433
1.7432
1.82626
1.69638
1.49518
2.05743
2.53306
2.62321
2.66104
2.69617
2.69807
1.80914
2.65956
2.99982
2.99476
2.99543
3
3
3
3
3
3
3
3
3
3
3
3
3
3
3
3
3
3
3
3
3
3
3
3
3
3
3
3
)
;
    }
    lowerWall
    {
        type            calculated;
        value           nonuniform List<scalar> 
62
(
2
2
2
2
2
2
2
2
2
2
2
2
2
2
2
2
2
2
2
2
1.99982
1.99943
1.99943
1.99943
1.9995
2
2
1.99998
1.91297
0.527438
0.00157656
0.624361
0.885834
0.936595
1.14933
1.05532
1.06239
1.1112
1.17786
0.379627
0.148648
0.200597
1.22683
1.05532
1.06113
1.05854
1.10444
1.13665
1.10942
1.07637
1.07445
1.13455
1.40602
1.57742
1.53299
1.34195
1.29258
1.33229
1.77504
2.64196
2.54678
2.17314
)
;
    }
    atmosphere
    {
        type            calculated;
        value           nonuniform List<scalar> 
46
(
3
3
3
3
3
3
3
3
3
3
3
3
3
3
3
3
3
3
3
3
3
3
3
3
3
3
3
3
3
3
3
3
3
3
3
3
3
3
3
3
3
3
3
3
3
3
)
;
    }
    defaultFaces
    {
        type            empty;
    }
}


// ************************************************************************* //
