/*--------------------------------*- C++ -*----------------------------------*\
  =========                 |
  \\      /  F ield         | OpenFOAM: The Open Source CFD Toolbox
   \\    /   O peration     | Website:  https://openfoam.org
    \\  /    A nd           | Version:  13
     \\/     M anipulation  |
\*---------------------------------------------------------------------------*/
FoamFile
{
    format      ascii;
    class       volScalarField;
    location    "0.85";
    object      alpha.air;
}
// * * * * * * * * * * * * * * * * * * * * * * * * * * * * * * * * * * * * * //

dimensions      [];

internalField   nonuniform List<scalar> 
2268
(
1.12274e-14
2.7874e-14
1.71769e-14
6.25716e-15
3.13107e-15
1.70003e-15
8.04232e-16
2.19172e-16
5.25585e-17
1.31177e-17
5.74676e-18
5.6343e-18
6.99952e-18
8.66143e-18
1.20315e-17
1.70093e-17
2.21902e-17
2.86522e-17
2.70751e-17
4.32975e-17
7.12979e-17
1.18745e-16
6.6645e-16
7.47315e-14
2.73407e-13
1.22275e-13
4.21521e-14
1.85211e-14
1.04962e-14
6.91732e-15
3.72247e-15
1.57953e-15
5.08333e-16
2.40596e-16
2.50034e-16
2.56444e-16
2.31312e-16
2.20533e-16
2.01576e-16
2.17197e-16
2.83601e-16
7.9583e-16
6.61861e-15
2.42894e-14
5.41111e-14
5.41101e-14
6.37568e-13
1.8223e-12
1.0014e-12
4.43197e-13
1.75968e-13
7.22359e-14
2.9978e-14
1.4113e-14
7.96547e-15
5.85479e-15
5.25884e-15
5.89425e-15
5.08235e-15
3.71054e-15
2.72876e-15
2.08101e-15
1.55132e-15
1.41242e-15
9.61303e-15
4.50384e-14
2.35432e-13
9.74798e-13
1.79772e-12
1.3981e-11
1.57849e-11
1.10144e-11
6.02855e-12
3.41761e-12
1.13565e-12
3.53745e-13
9.94893e-14
4.71761e-14
6.25558e-14
7.47596e-14
7.30445e-14
5.42793e-14
3.40037e-14
2.18291e-14
1.84985e-14
2.01033e-14
1.85385e-14
5.37574e-14
5.38512e-13
3.75969e-12
8.31861e-12
2.47077e-11
8.18594e-11
6.82066e-11
4.36857e-11
3.13112e-11
2.01156e-11
1.09523e-11
5.61515e-12
3.1016e-12
1.50598e-12
9.95423e-13
6.97739e-13
4.85223e-13
2.94254e-13
1.55639e-13
8.62919e-14
8.40677e-14
1.54394e-13
3.39317e-13
1.19419e-12
7.70606e-12
1.50887e-11
1.2515e-11
1.27074e-11
2.1478e-10
1.66062e-10
1.20544e-10
7.85936e-11
4.88646e-11
2.92798e-11
2.04301e-11
1.50822e-11
1.09114e-11
5.84989e-12
2.9281e-12
1.67983e-12
8.48227e-13
3.76986e-13
2.17263e-13
4.03071e-13
1.74661e-12
3.13468e-12
6.04715e-12
1.6658e-11
1.29106e-11
1.27114e-11
7.03493e-08
3.63854e-10
2.7999e-10
2.25102e-10
1.75681e-10
1.24847e-10
8.3672e-11
5.61467e-11
3.90228e-11
2.83062e-11
2.13471e-11
1.58971e-11
1.07564e-11
5.51579e-12
3.59879e-12
1.19666e-11
4.36947e-11
1.05646e-10
1.597e-10
6.98979e-11
3.87986e-11
7.1215e-08
3.63306e-07
4.71428e-07
5.12035e-10
3.92436e-10
3.35282e-10
2.99793e-10
2.40286e-10
1.91747e-10
1.58098e-10
1.25854e-10
9.89446e-11
7.9701e-11
6.43456e-11
6.0607e-11
4.8273e-11
8.17313e-11
2.61254e-10
5.77777e-10
1.18385e-09
3.44497e-09
1.12412e-08
3.77231e-08
5.41496e-07
1.28178e-06
4.82791e-07
0.00677423
0.0124742
0.00991273
0.00472338
0.0010591
5.25122e-05
1.07677e-05
1.1922e-05
1.24673e-05
0.0158161
0.0224363
0.0224395
0.0098111
0.000326198
0.0403063
0.275955
0.687943
0.593638
0.331028
0.0136438
0.0474431
0.0747916
0.0439342
0.00611498
0.00084769
-6.62804e-07
3.6785e-05
6.32591e-05
6.3523e-05
0.000468733
0.00178418
0.00112724
0.000317552
1.79478e-05
0.211056
0.687302
0.462028
0.169962
0.0454334
0.123162
0.123127
0.0584485
0.000512213
1.47109e-07
-1.20563e-09
2.68045e-05
0.000194105
0.00030713
0.000374796
0.00024822
0.000119582
4.36428e-05
1.79036e-05
0.0511596
0.602516
0.621238
0.163351
0.0959642
0.0899261
0.0422768
0.000779889
1.09323e-05
4.45306e-06
1.59234e-06
9.20476e-06
4.23138e-05
0.000107913
0.000113124
6.90053e-05
5.45743e-05
3.24655e-05
1.71536e-05
0.031945
0.602824
0.629362
0.147938
0.0106057
5.76609e-05
5.38702e-05
5.29997e-05
0.000114536
8.89028e-05
2.99984e-05
3.66689e-06
2.6653e-07
3.02932e-07
1.19632e-05
4.29973e-08
2.76725e-05
2.78711e-05
1.70455e-05
0.087787
0.657262
0.469332
0.0941814
0.00920455
0.00246829
0.00100669
0.000326543
0.000631489
0.00019306
4.29152e-05
7.81027e-06
8.07862e-06
1.87899e-06
3.69692e-07
4.44322e-08
2.9122e-06
2.93336e-06
0.00584138
0.433703
0.746739
0.336792
0.0942103
0.0669287
0.0612639
0.102247
0.0640603
0.0327268
0.0172738
0.00813661
0.00340382
0.001484
0.000421426
3.84478e-05
4.00187e-06
3.70616e-06
4.28217e-06
0.110985
0.759588
0.759294
0.0752576
0.096335
0.402222
0.341654
0.284207
0.12113
0.05133
0.0343096
0.0168423
0.00878737
0.00451988
0.00151447
0.000507726
0.000220289
4.26116e-06
4.86699e-06
0.230865
0.663724
0.759588
0.0167093
0.0971078
6.06295e-10
5.4783e-10
5.35562e-10
5.28266e-10
4.82927e-10
4.47194e-10
4.26321e-10
3.21485e-10
2.6545e-10
2.39952e-10
2.26114e-10
2.2159e-10
2.63158e-10
4.36627e-10
8.79681e-10
1.72971e-09
4.23139e-09
1.57893e-08
5.5139e-08
2.09142e-07
9.91678e-07
4.60166e-06
0.00425757
6.20175e-10
6.22536e-10
6.5005e-10
7.00037e-10
7.41652e-10
7.80242e-10
7.75669e-10
7.71357e-10
7.23295e-10
6.13922e-10
5.36679e-10
4.86692e-10
5.22347e-10
7.89992e-10
1.28008e-09
2.20708e-09
1.06193e-08
4.7398e-08
4.84213e-08
4.47774e-08
1.33931e-05
0.0132465
0.292546
6.17566e-10
6.20345e-10
6.36296e-10
6.59757e-10
6.72665e-10
6.55752e-10
6.94333e-10
9.30172e-10
1.40984e-09
1.78846e-09
1.59304e-09
8.22197e-10
3.5775e-10
2.34712e-12
-1.46027e-12
-6.87578e-12
4.90091e-21
7.67578e-14
0.000202679
0.00604566
0.134895
0.605394
0.578772
5.6924e-10
5.58295e-10
5.14887e-10
5.04629e-10
4.92783e-10
4.86826e-10
2.47785e-10
5.85194e-11
-2.14279e-16
-8.16355e-16
-4.97612e-16
-1.1265e-14
-2.75666e-30
-2.51982e-32
-1.14497e-20
1.85596e-20
0.00690838
0.0202585
0.332615
0.644709
0.627963
0.178404
1.46754e-10
5.37653e-10
5.1802e-10
5.17852e-10
5.1305e-10
2.98143e-10
2.40737e-10
2.44027e-10
4.26357e-10
-3.16414e-15
0.0294917
0.0903132
0.147168
0.183062
0.191851
0.185244
0.234343
0.487657
0.54387
0.490073
0.0536635
0.00128869
0.00217372
5.24602e-10
5.17722e-10
0.00716313
0.0471006
0.104964
0.18282
0.284221
0.408891
0.551455
0.703681
0.812964
0.871207
0.887605
0.877195
0.841667
0.833735
0.829725
0.258475
0.00637117
0.0353246
0.006736
7.31814e-09
6.14245e-09
3.86784e-10
0.597374
0.655928
0.748525
0.836815
0.907101
0.957807
0.987907
0.999428
1
1
1
1
0.999998
0.999546
0.906978
0.148761
4.87306e-05
7.90405e-07
8.06912e-08
8.74768e-07
2.30854e-06
2.45514e-09
1.85097e-09
1
1
1
1
1
1
1
1
1
1
1
1
1
1
0.968105
0.235931
2.86429e-05
7.89065e-08
6.82406e-08
7.89058e-08
6.57446e-07
2.72435e-08
1.3369e-08
1
1
1
1
1
1
1
1
1
1
1
1
1
1
0.999999
0.984183
0.849009
0.50505
0.220651
0.201832
0.241582
0.21434
0.175398
1
1
1
1
1
1
1
1
1
1
1
1
1
1
1
1
1
0.9978
0.987943
0.992896
0.999207
0.951434
0.905707
1
1
1
1
1
1
1
1
1
1
1
1
1
1
1
1
1
1
1
1
1
1
1
1
1
1
1
1
1
1
1
1
1
1
1
1
1
0.999999
0.999999
0.999999
0.999999
1
1
1
1
0.999999
1
1
1
1
1
1
1
1
1
1
1
1
1
1
1
0.999999
0.999998
0.999994
0.999974
0.999932
0.999993
1
0.999999
1
1
1
1
1
1
1
1
1
1
1
1
1
1
1
1
0.999998
1
0.999891
0.999759
0.99977
0.999949
0.999999
1
1
1
1
1
1
1
1
1
1
1
1
1
1
1
1
1
1
0.999943
0.99976
0.999759
0.999841
0.999996
1
1
1
1
1
1
1
1
1
1
1
1
1
1
1
1
1
1
0.999998
0.999946
0.999833
0.99992
0.999994
1
1
1
1
1
1
1
1
1
1
1
1
1
1
1
1
1
1
1
1
0.999997
1
0.999998
1
1
1
1
1
1
1
1
1
1
1
1
1
1
1
1
1
1
1
1
1
1
1
1
1
1
1
1
1
1
1
1
1
1
1
1
1
1
1
1
1
1
1
1
1
1
1
1
1
1
1
1
1
1
1
1
1
1
1
1
1
1
1
1
1
1
1
1
1
1
1
1
1
1
1
1
1
1
1
1
1
1
1
1
1
1
1
1
1
1
1
1
1
1
1
1
1
1
1
1
1
1
1
1
1
1
1
1
1
1
1
1
1
1
1
1
1
1
1
1
1
1
1
1
1
1
1
1
1
1
1
1
1
1
1
1
1
1
1
1
1
1
1
1
1
1
1
1
1
1
1
1
1
1
1
1
1
1
1
1
1
1
1
1
1
1
1
1
1
1
1
1
1
1
1
1
1
1
1
1
1
1
1
1
1
1
1
1
1
1
1
1
1
1
1
1
1
1
1
1
1
1
1
1
1
1
1
1
1
1
1
1
1
1
1
1
1
1
1
1
1
1
1
1
1
1
1
1
1
1
1
1
1
1
1
1
1
1
1
1
1
1
1
1
1
1
1
1
1
1
1
1
1
1
1
1
1
1
1
1
1
1
1
1
1
1
1
1
1
1
1
1
1
1
1
1
1
1
1
1
1
1
1
1
1
1
1
1
1
1
1
1
1
1
1
1
1
1
1
1
1
1
1
1
1
1
1
1
1
1
1
1
1
1
1
1
1
1
1
1
1
1
1
1
1
1
1
1
1
1
1
1
1
1
1
1
1
1
1
1
1
1
1
1
1
1
1
1
1
1
1
1
1
1
1
1
1
1
1
1
1
1
1
1
1
1
1
1
1
1
1
1
1
1
1
1
1
1
1
1
1
1
1
1
1
1
1
1
1
1
1
1
1
1
1
1
1
1
1
1
1
1
1
1
1
1
1
1
1
1
1
1
1
1
1
1
1
1
1
1
1
1
1
1
1
1
1
1
1
1
1
1
1
1
1
1
1
1
1
1
1
1
1
1
1
1
1
1
1
1
1
1
1
1
1
1
1
1
1
1
1
1
1
1
1
1
1
1
1
1
1
1
1
1
1
1
1
1
1
1
1
1
1
1
1
1
1
1
1
1
1
1
1
1
1
1
1
1
1
1
1
1
1
1
1
1
1
1
1
1
1
1
1
1
1
1
1
1
1
1
1
1
1
1
1
1
1
1
1
1
1
1
1
1
1
1
1
1
1
1
1
1
1
1
1
1
1
1
1
1
1
1
1
1
1
1
1
1
1
1
1
1
1
1
1
1
1
1
1
1
1
1
1
1
1
0.100221
0.182174
0.202117
0.313247
0.59021
0.588223
0.568703
0.377995
0.172091
1.79983e-08
-8.26235e-29
2.18968e-28
1.60888e-10
1.46754e-10
1.45857e-10
5.68438e-10
3.2713e-10
2.34598e-10
5.46502e-09
3.82471e-08
1.14019e-10
2.75799e-09
5.21725e-08
1.10541e-05
5.68948e-09
2.50833e-08
6.17984e-08
1.51267e-05
2.04805e-10
7.48654e-10
6.67106e-08
7.53486e-08
0.256667
0.272673
0.150475
0.0807597
0.987286
0.996979
0.928132
0.826177
1
1
1
1
0.999999
1
1
1
0.999996
0.999998
1
1
0.999996
0.999995
0.999995
1
0.999996
0.999995
0.999995
0.999995
0.999994
0.999994
0.999994
0.999995
0.999997
0.999997
0.999995
0.999995
1
1
1
0.999999
1
1
1
1
1
1
1
1
1
1
1
1
1
1
1
1
1
1
1
1
1
1
1
1
1
1
1
1
1
1
1
1
1
1
1
1
1
1
1
1
1
1
1
1
1
1
1
1
1
1
1
1
1
1
1
1
1
1
1
1
1
1
1
1
1
1
1
1
1
1
1
1
1
1
1
1
1
1
1
1
1
1
1
1
1
1
1
1
1
1
1
1
1
1
1
1
0.410624
0.384355
0.181796
0.032842
0.0143457
0.0134968
0.00651653
0.0046579
0.00258013
0.000787765
0.000533217
0.0005189
0.000346812
0.00354122
0.137167
0.379878
0.348995
0.00660625
0.0735814
0.138138
6.51197e-05
8.88568e-12
3.09222e-10
-2.54738e-26
-7.40112e-11
1.39846e-20
1.72401e-13
3.51032e-07
5.37686e-05
0.000110779
0.000412163
0.000280149
0.0016544
0.0080675
0.0516385
0.0246035
0.00795371
0.00811619
2.18965e-28
5.91062e-18
6.92576e-10
1.70112e-08
2.68596e-08
2.34732e-08
1.46329e-08
1.53802e-08
1.26049e-08
1.11421e-08
4.79639e-07
2.6044e-05
2.88518e-05
4.19619e-05
0.000351388
2.57562e-05
4.76295e-05
0.0026078
0.026993
7.90563e-09
2.46982e-08
2.55058e-08
3.84888e-07
7.3074e-08
3.57671e-08
3.50127e-08
1.36643e-07
2.39881e-07
1.68569e-07
7.63039e-07
7.69821e-05
7.82116e-05
1.31027e-07
1.98588e-07
2.62784e-05
0.000160442
0.00677985
0.387612
1.21534e-05
3.63344e-05
2.71537e-05
1.22503e-06
2.71886e-09
5.55664e-09
3.80312e-08
7.90206e-07
9.92886e-07
7.52354e-07
1.43772e-07
3.89551e-06
0.00430827
0.00762638
0.00157828
-4.27603e-07
-4.85963e-09
0.00571152
0.702714
9.6379e-05
0.000124806
8.93065e-05
2.69491e-09
2.52139e-09
3.17398e-09
1.28192e-08
6.20319e-07
9.9096e-07
7.91815e-07
1.43443e-07
1.42907e-07
0.000498536
0.0283439
0.0498875
0.0198214
0.000445984
0.0247107
0.811051
8.09132e-05
0.000115835
1.16132e-05
2.42666e-09
2.44315e-09
7.52236e-09
2.31555e-08
3.2937e-08
4.20981e-07
9.77613e-07
5.13986e-07
1.48435e-07
1.62563e-07
0.000293696
0.0621101
0.172213
0.137936
0.292857
0.829871
3.68269e-08
2.21973e-08
3.02692e-10
3.20846e-09
1.17901e-08
4.37046e-08
6.01713e-08
1.63944e-07
1.42676e-06
1.9628e-06
1.9335e-06
1.62221e-07
2.49605e-07
2.09184e-07
2.07063e-07
0.0835239
0.259792
0.440217
0.847586
0.0473772
0.0143741
3.40438e-11
2.33304e-11
9.41321e-09
3.83706e-08
8.78909e-08
1.49569e-07
4.71028e-07
1.24486e-06
1.18556e-06
3.0199e-07
2.67746e-07
2.07063e-07
2.37295e-07
0.0279949
0.439721
0.696596
0.849029
0.721635
0.589936
0.420368
0.245683
0.131638
0.051986
0.0105961
1.75539e-07
2.42198e-07
2.36416e-07
3.07902e-07
3.94979e-07
3.42863e-07
3.18922e-07
0.00348165
0.0617352
0.217942
0.326034
0.404561
1
1
1
0.982403
0.878286
0.743894
0.574556
0.41276
0.294789
0.242926
0.217297
0.211836
0.290689
0.422301
0.545378
0.660907
0.735219
0.793771
0.829779
1
1
1
1
1
1
1
1
0.99312
0.967609
0.957689
0.963021
1
1
1
1
0.999991
1
0.999909
1
1
1
1
0.999999
0.999999
0.999999
1
1
1
1
1
1
0.999999
0.999534
0.995315
0.993648
0.994595
0.997382
1
1
1
1
0.999998
0.999997
0.999998
0.999999
0.999999
0.999999
0.999999
0.999999
0.999999
0.999999
0.998328
0.992425
0.992211
0.994223
0.997717
0.999997
1
1
1
0.999999
0.999997
0.999997
0.999997
0.999998
0.999999
0.999998
0.999997
0.999999
0.999851
0.999719
1
1
1
0.999999
0.999995
0.999998
1
1
1
1
0.999998
0.999997
0.999997
0.999998
0.999997
0.999995
0.999991
0.999998
1
1
0.999986
0.999961
0.999999
0.999995
0.999996
1
1
1
1
1
1
0.999998
0.999998
0.999999
1
1
1
1
1
0.999971
0.99995
1
0.999998
0.999999
1
1
1
1
1
1
1
0.999999
1
1
1
1
1
1
0.999999
0.999976
1
1
1
1
1
1
1
1
1
1
1
1
1
1
1
1
1
1
1
1
1
1
1
1
1
1
1
1
1
1
1
1
1
1
1
1
1
1
1
1
1
1
1
1
1
1
1
1
1
1
1
1
1
1
1
1
1
0.999999
1
1
1
1
1
1
1
1
1
1
1
1
1
1
1
1
1
1
0.999998
1
1
1
1
1
1
1
1
1
1
1
1
1
1
1
1
1
1
0.999998
1
1
1
1
1
1
1
1
1
1
1
1
1
1
1
1
1
1
0.999998
1
1
1
1
1
1
1
1
1
1
1
1
1
1
1
1
1
1
0.999998
1
1
1
1
1
1
1
1
1
1
1
1
1
1
1
1
1
0.999999
0.999998
1
1
1
1
1
1
1
1
1
1
1
1
1
1
1
1
1
0.999998
0.999998
1
1
1
1
1
1
1
1
1
1
1
1
1
1
1
1
1
0.999999
0.999999
1
1
1
1
1
1
1
1
1
1
1
1
1
1
1
1
1
1
1
1
1
1
1
1
1
1
1
1
1
1
1
1
1
1
1
1
1
1
1
1
1
1
1
1
1
1
1
1
1
1
1
1
1
1
1
1
1
1
1
1
1
1
1
1
1
1
1
1
1
1
1
1
1
1
1
1
1
1
1
1
1
1
1
1
1
1
1
1
1
1
1
1
1
1
1
1
1
1
1
1
1
1
1
1
1
1
1
1
1
1
1
1
1
1
1
1
1
1
1
1
1
1
1
1
1
1
1
1
1
1
1
1
1
1
1
1
1
1
1
1
1
1
1
1
1
1
1
1
1
1
1
1
1
1
1
1
1
1
1
1
1
1
1
1
1
1
1
1
1
1
1
1
1
1
1
1
1
1
1
1
1
1
1
1
1
1
1
1
1
1
1
1
1
1
1
1
1
1
1
1
1
1
1
1
1
1
1
1
1
1
1
1
1
1
1
1
1
1
1
1
1
1
1
1
1
1
1
1
1
1
1
1
1
1
1
1
1
1
1
1
1
1
1
1
1
1
1
1
1
1
1
1
1
1
1
1
1
1
1
1
1
1
1
1
1
1
)
;

boundaryField
{
    leftWall
    {
        type            alphaContactAngle;
        contactAngleProperties 
        {
            mercury         
            {
                theta0          90;
            }
            water           
            {
                theta0          90;
            }
            oil             
            {
                theta0          90;
            }
        }
        value           nonuniform List<scalar> 
50
(
1.12274e-14
7.47315e-14
6.37568e-13
1.3981e-11
8.18594e-11
2.1478e-10
3.63854e-10
5.12035e-10
6.06295e-10
6.20175e-10
6.17566e-10
5.6924e-10
5.37653e-10
5.17722e-10
0.597374
1
1
1
1
1
1
1
1
1
1
1
1
1
1
1
1
1
1
1
1
1
1
1
1
1
1
1
1
1
1
1
1
1
1
1
)
;
    }
    rightWall
    {
        type            alphaContactAngle;
        contactAngleProperties 
        {
            mercury         
            {
                theta0          90;
            }
            water           
            {
                theta0          90;
            }
            oil             
            {
                theta0          90;
            }
        }
        value           nonuniform List<scalar> 
50
(
0.331028
0.169962
0.163351
0.147938
0.0941814
0.0942103
0.096335
0.0971078
0.0735814
0.00811619
0.026993
0.387612
0.702714
0.811051
0.829871
0.847586
0.849029
0.404561
0.829779
0.999909
0.997382
0.997717
0.999999
0.999999
1
1
1
1
0.999999
0.999998
0.999998
0.999998
0.999998
0.999998
0.999998
0.999999
1
1
1
1
1
1
1
1
1
1
1
1
1
1
)
;
    }
    lowerWall
    {
        type            alphaContactAngle;
        contactAngleProperties 
        {
            mercury         
            {
                theta0          90;
            }
            water           
            {
                theta0          90;
            }
            oil             
            {
                theta0          90;
            }
        }
        value           nonuniform List<scalar> 
62
(
1.12274e-14
2.7874e-14
1.71769e-14
6.25716e-15
3.13107e-15
1.70003e-15
8.04232e-16
2.19172e-16
5.25585e-17
1.31177e-17
5.74676e-18
5.6343e-18
6.99952e-18
8.66143e-18
1.20315e-17
1.70093e-17
2.21902e-17
2.86522e-17
2.70751e-17
4.32975e-17
7.12979e-17
1.18745e-16
6.6645e-16
6.6645e-16
5.41101e-14
1.79772e-12
2.47077e-11
1.27074e-11
7.03493e-08
4.71428e-07
4.82791e-07
0.100221
0.182174
0.202117
0.313247
0.00677423
0.0136438
0.0454334
0.0959642
0.0106057
0.00920455
0.0669287
0.402222
0.00677423
0.0124742
0.00991273
0.00472338
0.0010591
5.25122e-05
1.07677e-05
1.1922e-05
1.24673e-05
0.0158161
0.0224363
0.0224395
0.0098111
0.000326198
0.0403063
0.275955
0.687943
0.593638
0.331028
)
;
    }
    atmosphere
    {
        type            inletOutlet;
        inletValue      uniform 1;
        value           nonuniform List<scalar> 
46
(
1
1
1
1
1
1
1
1
1
1
1
1
1
1
1
1
1
1
1
1
1
1
1
1
1
1
1
1
1
1
1
1
1
1
1
1
1
1
1
1
1
1
1
1
1
1
)
;
    }
    defaultFaces
    {
        type            empty;
    }
}


// ************************************************************************* //
