/*--------------------------------*- C++ -*----------------------------------*\
  =========                 |
  \\      /  F ield         | OpenFOAM: The Open Source CFD Toolbox
   \\    /   O peration     | Website:  https://openfoam.org
    \\  /    A nd           | Version:  13
     \\/     M anipulation  |
\*---------------------------------------------------------------------------*/
FoamFile
{
    format      ascii;
    class       volScalarField;
    location    "0.85";
    object      epsilon;
}
// * * * * * * * * * * * * * * * * * * * * * * * * * * * * * * * * * * * * * //

dimensions      [0 2 -3 0 0 0 0];

internalField   nonuniform List<scalar> 
2268
(
0.00884158
0.0300948
0.0545397
0.077335
0.0981231
0.118132
0.13952
0.164935
0.197368
0.240377
0.297206
0.366162
0.444811
0.531663
0.626117
0.726388
0.826317
0.910255
0.947739
0.892178
0.696525
0.354409
0.0344955
0.0117172
0.0242139
0.0372891
0.0482991
0.0573723
0.0651472
0.0726304
0.0810102
0.0915898
0.105808
0.125207
0.150097
0.180561
0.216876
0.259485
0.308276
0.361211
0.412088
0.447947
0.447838
0.387196
0.254149
0.100373
0.0196446
0.0263297
0.0364263
0.0446008
0.0510246
0.0563895
0.0615569
0.0674604
0.0750703
0.0854455
0.0996469
0.118595
0.143315
0.175185
0.215849
0.266508
0.326465
0.390858
0.448292
0.479633
0.459696
0.365299
0.232526
0.0290876
0.0294644
0.0377849
0.0445194
0.0497051
0.0541052
0.0585603
0.0639068
0.0709941
0.0807776
0.0943927
0.113264
0.139281
0.175029
0.223634
0.287806
0.367888
0.459105
0.549426
0.619009
0.640651
0.579938
0.453082
0.0400368
0.0331982
0.0401768
0.0458412
0.05022
0.0540767
0.0582504
0.0635503
0.0708104
0.0810568
0.0957446
0.116953
0.147676
0.192125
0.255431
0.342139
0.453263
0.582991
0.717617
0.837248
0.917225
0.921916
0.854265
0.0484059
0.0374448
0.0438136
0.0485862
0.0521638
0.0554307
0.0593536
0.0647267
0.0724297
0.0837021
0.100501
0.125829
0.16424
0.222236
0.307636
0.426858
0.580409
0.759537
0.948085
1.12869
1.28997
1.4295
1.62682
0.0492597
0.0390669
0.0474262
0.0528758
0.055514
0.0579096
0.0614381
0.0668508
0.0751304
0.0878464
0.107669
0.138927
0.18843
0.265914
0.382533
0.545809
0.753159
0.990242
1.23819
1.48598
1.75046
2.13882
3.20972
0.0498721
0.037928
0.046428
0.0540919
0.0582359
0.0608916
0.0641991
0.0696265
0.0785797
0.0931147
0.11692
0.156241
0.221158
0.325878
0.485143
0.705248
0.976321
1.27579
1.58276
1.89536
2.26682
3.01049
6.7179
0.786492
2.36551
3.79881
4.68096
4.55769
4.26976
3.91637
3.61798
3.36871
3.05898
2.66278
2.26792
1.89997
1.56271
1.12052
0.609046
0.400358
0.40355
0.501992
0.599469
1.58119
2.02404
2.13074
2.12133
2.03797
1.91323
1.78783
1.64838
1.49888
1.34471
1.19824
1.05141
0.889176
0.698453
0.529577
0.54805
0.324199
0.382714
0.810687
1.5156
1.75946
1.80509
1.76734
1.68631
1.58101
1.46839
1.34974
1.22672
1.10841
1.00051
0.89892
0.785585
0.629645
0.510722
0.554132
0.380853
0.466682
1.46476
1.78848
1.85025
1.79723
1.70487
1.59962
1.48607
1.36964
1.25124
1.13318
1.02499
0.934173
0.858159
0.769676
0.61297
0.511014
0.571892
0.473613
0.538573
2.78717
2.31405
2.06332
1.88094
1.72496
1.58669
1.45551
1.32814
1.20291
1.08283
0.976906
0.893748
0.834247
0.764194
0.607221
0.525473
0.614833
0.564219
0.600058
4.4525
2.84483
2.27688
1.97771
1.76603
1.59512
1.44349
1.30241
1.1683
1.04383
0.936838
0.85411
0.798557
0.731891
0.604224
0.55407
0.646772
0.62777
0.646099
6.7787
3.23196
2.42847
2.05682
1.80679
1.60979
1.43964
1.28504
1.14163
1.01177
0.902133
0.817352
0.759618
0.693702
0.605791
0.580568
0.669355
0.672514
0.672199
10.6022
3.41226
2.50791
2.10765
1.8358
1.62062
1.43595
1.26999
1.1183
0.983173
0.870398
0.782928
0.722312
0.66341
0.605512
0.57881
0.69047
0.703016
0.680348
0.0616505
0.0385726
0.0419394
0.0486746
0.0554891
0.0613709
0.0667774
0.0736153
0.0843338
0.102425
0.13392
0.189195
0.285252
0.444885
0.686856
1.00906
1.38345
1.77304
2.15555
2.5407
2.99627
3.72805
5.27491
0.0793721
0.0432483
0.0419188
0.0458453
0.0514388
0.057815
0.0653853
0.0756106
0.0912887
0.11802
0.167351
0.260859
0.433709
0.724546
1.1424
1.64221
2.15117
2.61452
3.01503
3.3673
3.70457
4.07026
4.46957
0.0977892
0.0491389
0.0444868
0.0465959
0.0512084
0.0575158
0.0659812
0.0785916
0.0998368
0.139634
0.219625
0.383829
0.698655
1.20744
1.85862
2.52402
3.09669
3.53559
3.84866
4.06228
4.19232
4.25271
4.19002
0.112634
0.0547638
0.0477528
0.0487375
0.0528741
0.0593527
0.0689891
0.0846722
0.113758
0.174638
0.31253
0.620177
1.20552
2.04754
2.93837
3.66835
4.16329
4.44035
4.55753
4.55316
4.42309
4.18606
3.8619
0.121658
0.0595124
0.050951
0.0513387
0.0554973
0.0627591
0.074478
0.0951585
0.137475
0.237227
0.489693
1.07724
2.11236
3.35233
4.35013
4.92477
5.14111
5.11264
4.9333
4.65419
4.31912
3.94123
3.52732
0.125887
0.0632192
0.0538051
0.0541166
0.0589409
0.0679969
0.0837878
0.114045
0.181695
0.36243
0.855189
1.96266
3.66029
5.21001
5.84564
5.86579
5.61964
5.28004
4.9072
4.50623
4.08538
3.64851
3.20643
0.129875
0.0664399
0.0564357
0.0573864
0.063894
0.0764264
0.100007
0.149827
0.272774
0.62716
1.55689
3.47688
6.18263
7.54593
6.7127
6.11873
5.65649
5.21433
4.76907
4.31464
3.85442
3.39725
2.95661
0.148501
0.0718606
0.0596867
0.0624606
0.0721639
0.0903784
0.125698
0.202705
0.393069
0.888008
2.02196
4.01663
6.32369
7.41767
6.91372
6.2076
5.69064
5.19491
4.70079
4.20671
3.72067
3.25482
2.81988
0.142875
0.0656073
0.058194
0.0638228
0.0766097
0.100043
0.145226
0.241546
0.464759
0.971352
1.98974
3.60501
5.34407
6.32912
6.63351
6.38349
5.90298
5.34358
4.78847
4.24991
3.73505
3.2533
2.81455
0.128567
0.0633998
0.0574412
0.0625745
0.0758264
0.101805
0.154151
0.264925
0.503053
0.99
1.87009
3.16381
4.53374
5.4947
6.22992
6.68416
6.37853
5.71206
5.06108
4.46907
3.91419
3.39648
2.93691
0.113199
0.0586206
0.0556646
0.0613449
0.0750168
0.102271
0.156985
0.269167
0.497296
0.933512
1.67375
2.71837
3.84382
4.72499
5.44148
6.08083
6.26291
5.91268
5.37117
4.79477
4.21793
3.66076
3.16652
0.101955
0.0558173
0.0542231
0.0600645
0.0734046
0.0998463
0.15201
0.25562
0.457874
0.829068
1.43848
2.28759
3.23062
4.03421
4.67004
5.21499
5.51623
5.54917
5.36697
4.98191
4.47372
3.93592
3.42674
0.0974993
0.0551874
0.0534675
0.0586867
0.0707835
0.0947057
0.141106
0.230874
0.401086
0.70577
1.19862
1.88849
2.68855
3.42613
4.00622
4.4825
4.82522
4.99675
4.9877
4.7959
4.44691
4.01243
3.56589
0.0987449
0.0560847
0.0533371
0.0574176
0.0677123
0.0882434
0.127563
0.202024
0.340195
0.583886
0.977066
1.53797
2.21744
2.87667
3.42227
3.86227
4.20171
4.42265
4.50729
4.43719
4.22243
3.91076
3.5517
0.103283
0.0577852
0.0536495
0.0564351
0.0647805
0.0817483
0.113979
0.173947
0.283369
0.474841
0.786541
1.2412
1.8044
2.38504
2.89693
3.31622
3.64551
3.87912
4.00451
4.00805
3.89205
3.67995
3.40611
0.109098
0.0596514
0.0541587
0.0557451
0.0622851
0.0759765
0.10186
0.14932
0.234888
0.384471
0.628732
0.988828
1.44927
1.95042
2.42094
2.82126
3.14095
3.37554
3.51855
3.56284
3.50901
3.37145
3.17347
0.115026
0.0613814
0.0546676
0.0552789
0.0603423
0.0712954
0.0919426
0.129343
0.195817
0.3108
0.498789
0.779382
1.14913
1.57148
1.99185
2.36698
2.67536
2.90773
3.05902
3.12652
3.11222
3.02605
2.88514
0.120452
0.0628602
0.0550912
0.0549211
0.0588117
0.0675642
0.0839852
0.113304
0.164539
0.251961
0.39443
0.60929
0.900108
1.24679
1.61048
1.95167
2.24321
2.4703
2.62595
2.70835
2.72048
2.67069
2.57256
0.125111
0.0640744
0.055415
0.0546183
0.0575811
0.0645794
0.0776262
0.100544
0.139835
0.205765
0.312374
0.474098
0.697831
0.974531
1.27873
1.57828
1.84563
2.06239
2.21871
2.31147
2.34304
2.32058
2.25525
0.128934
0.0650515
0.0556519
0.0543472
0.056574
0.062183
0.0725619
0.0904679
0.120532
0.170009
0.249029
0.368916
0.537361
0.752067
0.99794
1.25127
1.48767
1.68795
1.84008
1.93894
1.98521
1.98431
1.94522
0.131967
0.065832
0.0558218
0.054098
0.0557356
0.0602477
0.0685339
0.0825518
0.105569
0.142638
0.200878
0.288716
0.41315
0.575403
0.767676
0.974031
1.1751
1.35327
1.49581
1.59593
1.65233
1.66834
1.65068
0.13431
0.0664535
0.0559419
0.0538661
0.0550259
0.0586714
0.0653253
0.076349
0.0940287
0.121849
0.164708
0.228615
0.319224
0.439116
0.585051
0.747302
0.911872
1.0642
1.19237
1.28877
1.35053
1.37888
1.37831
0.136071
0.0669418
0.0560221
0.0536479
0.0544152
0.0573735
0.0627582
0.0714883
0.0851491
0.106128
0.137752
0.184167
0.249593
0.336737
0.444833
0.568522
0.69853
0.82389
0.934499
1.02298
1.08547
1.12159
1.13377
0.137339
0.0673104
0.0560664
0.0534403
0.0538822
0.0562926
0.0606906
0.0676689
0.078314
0.0942557
0.117736
0.151559
0.198711
0.261478
0.340199
0.432239
0.531929
0.631658
0.723603
0.801324
0.860739
0.900375
0.921069
0.13819
0.0675674
0.0560769
0.0532417
0.0534134
0.0553837
0.0590123
0.0646533
0.0730381
0.0852755
0.102874
0.127711
0.161831
0.206972
0.263812
0.331236
0.406017
0.48324
0.557298
0.623066
0.676782
0.71647
0.741873
0.138687
0.067723
0.0560581
0.0530547
0.0530025
0.0546168
0.0576419
0.062259
0.0689473
0.078457
0.0918047
0.110245
0.135158
0.167788
0.208815
0.257875
0.313248
0.371943
0.430198
0.484229
0.530913
0.568217
0.595279
0.138892
0.0677932
0.05602
0.0528868
0.0526505
0.0539747
0.0565221
0.0603501
0.0657597
0.0732531
0.0835166
0.0973928
0.115811
0.139638
0.16944
0.205187
0.246016
0.290194
0.335328
0.37879
0.418185
0.451701
0.478254
0.138868
0.0678025
0.05598
0.0527519
0.0523654
0.0534512
0.0556158
0.0588294
0.0632675
0.0692607
0.0772717
0.0878704
0.101686
0.11932
0.14121
0.167453
0.197649
0.230833
0.265546
0.300052
0.332621
0.361789
0.386491
0.138688
0.0677842
0.055963
0.0526703
0.0521617
0.0530493
0.0549023
0.0576306
0.061322
0.066188
0.072539
0.0807624
0.0912887
0.104538
0.120838
0.140324
0.162835
0.187855
0.214524
0.24174
0.268313
0.293139
0.315303
0.138433
0.0677818
0.0560019
0.0526694
0.0520606
0.0527803
0.054374
0.0567114
0.0598197
0.0638277
0.068941
0.0754232
0.0835716
0.0936822
0.106
0.12066
0.13762
0.15662
0.177171
0.198593
0.220104
0.240912
0.260298
0.13821
0.0678501
0.056139
0.0527838
0.0520897
0.0526622
0.0540339
0.0560481
0.0586912
0.0620349
0.066212
0.0714009
0.0778074
0.0856418
0.095088
0.106265
0.11919
0.133742
0.149655
0.166525
0.183855
0.201104
0.217741
0.138151
0.0680578
0.056427
0.0530563
0.0522832
0.0527196
0.0538929
0.0556308
0.0578923
0.0607101
0.0641665
0.0683799
0.0734922
0.0796526
0.0869982
0.0956299
0.105588
0.116828
0.129215
0.142518
0.156431
0.170603
0.184662
0.138425
0.0684912
0.0569307
0.0535388
0.0526818
0.0529823
0.0539681
0.0554586
0.0573957
0.0597854
0.0626746
0.0661393
0.0702751
0.0751867
0.0809748
0.0877209
0.095471
0.104221
0.113909
0.124408
0.135542
0.147089
0.158804
0.139246
0.0692576
0.0577291
0.0542919
0.0533317
0.0534832
0.0542791
0.0555358
0.0571845
0.0592131
0.0616437
0.0645215
0.0679082
0.0718747
0.0764928
0.081825
0.0879139
0.0947728
0.102378
0.110668
0.119542
0.128871
0.138501
0.140886
0.0704907
0.058916
0.0553835
0.0542806
0.0542542
0.0548438
0.055866
0.0572452
0.0589566
0.0610039
0.06341
0.0662108
0.0694514
0.0731796
0.0774401
0.0822674
0.0876789
0.0936704
0.100214
0.107257
0.114728
0.122536
0.14367
0.0723517
0.0605967
0.0568823
0.0555707
0.0553181
0.0556705
0.0564447
0.0575598
0.0589806
0.0606963
0.0627123
0.0650448
0.0677183
0.0707611
0.0742017
0.0780638
0.0823621
0.0870991
0.0922637
0.0978318
0.103767
0.110021
0.147962
0.0750219
0.0628766
0.0588439
0.0572251
0.056677
0.0567478
0.057251
0.0580981
0.0592432
0.0606627
0.0623471
0.0642968
0.0665195
0.0690278
0.0718355
0.0749553
0.0783957
0.0821595
0.0862433
0.0906386
0.0953322
0.100303
0.154103
0.0786734
0.0658322
0.0612849
0.0592259
0.0582956
0.058032
0.058237
0.0588088
0.0596881
0.0608378
0.0622348
0.063866
0.0657256
0.0678125
0.0701288
0.0726768
0.0754582
0.0784732
0.0817227
0.0852095
0.08894
0.0929162
0.162319
0.0834028
0.0694542
0.0641398
0.0614849
0.0600809
0.0594338
0.0593194
0.0596138
0.0602398
0.0611449
0.0622928
0.0636584
0.0652245
0.0669796
0.0689155
0.0710265
0.0733082
0.0757592
0.0783849
0.0812028
0.084246
0.0875496
0.17259
0.0891074
0.0735524
0.0672002
0.0638082
0.0618643
0.0608098
0.0603758
0.060407
0.0608035
0.061496
0.0624354
0.0635858
0.064921
0.0664211
0.0680707
0.0698578
0.0717744
0.0738195
0.0760071
0.0783791
0.0810184
0.0840368
0.184011
0.095162
0.0775904
0.0700372
0.0658656
0.0633924
0.0619629
0.0612498
0.0610611
0.0612728
0.0617997
0.0625811
0.0635727
0.0647414
0.0660617
0.0675132
0.0690803
0.0707534
0.0725343
0.0744496
0.0765775
0.0790914
0.0822966
0.194345
0.100015
0.080506
0.0719432
0.0671806
0.0643357
0.0626577
0.0617675
0.061444
0.0615454
0.0619756
0.0626667
0.0635692
0.0646461
0.0658688
0.0672149
0.0686669
0.0702149
0.0718638
0.0736516
0.0756923
0.0782725
0.0820627
10.0034
9.44183
9.92714
11.9091
4.78238
4.76562
4.66094
4.42916
3.97164
3.78823
3.57886
3.34329
3.52065
3.29768
3.0746
2.85525
3.1511
2.92095
2.70422
2.50233
2.83472
2.61585
2.41566
2.23335
2.6039
2.40057
2.21755
2.0527
2.48355
2.29216
2.12143
1.96844
2.48338
2.29593
2.12952
1.98085
2.59755
2.40532
2.23439
2.08243
2.8082
2.60042
2.41853
2.259
3.05989
2.84504
2.65354
2.48512
3.22614
3.02289
2.83855
2.6711
3.26718
3.09089
2.92456
2.76863
3.18267
3.03915
2.89861
2.76268
3.00243
2.88784
2.77338
2.66057
2.75692
2.66614
2.57377
2.48176
2.47733
2.40619
2.33202
2.25656
2.18583
2.13121
2.07263
2.01154
1.89674
1.85639
1.81159
1.7635
1.61962
1.59176
1.5593
1.52314
1.36166
1.34458
1.32305
1.29775
1.12859
1.12044
1.10822
1.09241
0.924451
0.923226
0.918478
0.910542
0.751078
0.754798
0.755624
0.753773
0.607945
0.614825
0.619445
0.621936
0.492522
0.501109
0.508014
0.513309
0.401031
0.410243
0.418266
0.42513
0.329247
0.338354
0.346663
0.35418
0.273139
0.281686
0.289733
0.297269
0.229222
0.236957
0.244404
0.251548
0.194689
0.201492
0.208153
0.214655
0.167382
0.173222
0.179013
0.184741
0.145697
0.150599
0.155506
0.160404
0.128461
0.132488
0.136547
0.140629
0.114817
0.118062
0.12135
0.124672
0.104144
0.106728
0.109351
0.11202
0.0960108
0.0980797
0.100183
0.102317
0.0901653
0.0919013
0.093656
0.0954129
0.086557
0.0882172
0.0898464
0.0914086
0.0853799
0.0874516
0.0892713
0.0908004
0.0868678
0.0911513
0.0934534
0.0947677
4.88597
3.19587
2.52819
2.13245
1.84646
1.616
1.4178
1.24049
1.08013
0.939384
0.823188
0.733129
0.668428
0.617721
0.571862
0.56234
0.642798
0.715622
0.678817
3.65184
2.85848
2.36966
2.02163
1.75151
1.52933
1.33802
1.16831
1.01675
0.884819
0.775121
0.688551
0.621844
0.570185
0.530374
0.522501
0.5818
0.680217
0.656759
2.98401
2.50002
2.12458
1.82965
1.59181
1.39417
1.22504
1.07758
0.948835
0.838762
0.74604
0.669244
0.603882
0.549082
0.509046
0.496875
0.541124
0.639365
0.666892
2.56541
2.18712
1.87516
1.62284
1.41756
1.24782
1.10511
0.984234
0.882524
0.7987
0.729986
0.670722
0.614994
0.558974
0.511932
0.49033
0.519166
0.628332
0.725103
2.24801
1.92593
1.65685
1.4377
1.25975
1.11436
0.995017
0.897681
0.820113
0.760763
0.71663
0.680379
0.643142
0.597819
0.545489
0.509215
0.514575
0.60083
0.836399
2.00827
1.72627
1.48916
1.29504
1.13742
1.00966
0.906707
0.825455
0.764269
0.722059
0.69676
0.683004
0.670355
0.648133
0.609362
0.56373
0.54082
0.59325
1.01917
1.85075
1.59793
1.3837
1.20682
1.06227
0.944792
0.850319
0.776361
0.721744
0.686024
0.668471
0.666636
0.674585
0.681997
0.678888
0.65305
0.611727
0.615946
1.16639
1.78103
1.54607
1.34561
1.17854
1.04058
0.927184
0.83476
0.760962
0.704593
0.665316
0.643073
0.637248
0.645813
0.664456
0.685797
0.699544
0.673115
0.606803
1.01979
1.79819
1.56965
1.37402
1.2099
1.07314
0.959292
0.864917
0.787595
0.725722
0.678387
0.645061
0.624957
0.616644
0.618083
0.624881
0.629708
0.61171
0.487214
0.480168
1.89495
1.66171
1.46246
1.29525
1.15549
1.038
0.939181
0.856899
0.789644
0.736137
0.695276
0.665592
0.644894
0.630857
0.620305
0.603862
0.560615
0.458658
0.382692
2.05975
1.81154
1.60081
1.4248
1.27864
1.15521
1.05007
0.961612
0.889706
0.833594
0.792361
0.765685
0.753043
0.753398
0.7654
0.780058
0.770187
0.696236
0.661411
2.26713
1.99853
1.77425
1.58592
1.43042
1.3001
1.18721
1.09057
1.01162
0.952585
0.911669
0.890251
0.894033
0.925914
0.979239
1.04641
1.09357
1.04225
1.00989
2.44403
2.16983
1.93685
1.74221
1.58065
1.4431
1.32243
1.2182
1.13255
1.06766
1.02208
0.993465
0.989516
1.01612
1.07493
1.14617
1.18821
1.18851
1.23541
2.54609
2.27433
2.04335
1.85284
1.69404
1.55735
1.43292
1.32025
1.22525
1.15023
1.09351
1.05453
1.03514
1.03281
1.03317
1.03307
1.04333
1.08317
1.33127
2.55643
2.30199
2.08316
1.90055
1.74845
1.61484
1.4927
1.38262
1.28577
1.20225
1.13182
1.07392
1.03088
1.00193
0.978912
0.966067
0.985649
1.08439
1.51535
2.47907
2.25248
2.05449
1.88603
1.74273
1.61597
1.49939
1.39192
1.29475
1.20746
1.12868
1.05919
1.00137
0.956001
0.923633
0.912259
0.944194
1.08006
1.70734
2.33071
2.1386
1.96511
1.81377
1.68294
1.56591
1.45781
1.35724
1.26378
1.17668
1.09557
1.02153
0.957459
0.906886
0.874155
0.867597
0.90836
1.06853
1.8775
2.13067
1.97336
1.8275
1.69698
1.58125
1.4766
1.37925
1.28823
1.20226
1.12026
1.0423
0.970366
0.908197
0.860552
0.83291
0.833732
0.883078
1.05985
2.02032
1.90719
1.77912
1.65832
1.5483
1.44919
1.35898
1.27521
1.1962
1.12059
1.04759
0.977732
0.913444
0.858871
0.819144
0.799847
0.809074
0.866507
1.05513
2.14007
1.6792
1.57473
1.47601
1.38499
1.30223
1.22667
1.15664
1.09054
1.02715
0.965972
0.907827
0.855187
0.811976
0.782957
0.773474
0.791322
0.856538
1.05722
2.24551
1.45769
1.37383
1.29478
1.22091
1.15338
1.09175
1.03491
0.981616
0.930922
0.882595
0.837543
0.79802
0.767442
0.749932
0.75025
0.775768
0.846661
1.0542
2.30352
1.24997
1.18586
1.12389
1.06548
1.01185
0.963003
0.918322
0.876994
0.838414
0.802559
0.770316
0.743604
0.725225
0.718548
0.727595
0.759122
0.832904
1.04058
2.30873
1.06059
1.01461
0.96824
0.923919
0.882905
0.845584
0.811798
0.781177
0.75346
0.728811
0.708052
0.692751
0.685094
0.687682
0.703745
0.739282
0.813186
1.01523
2.26735
0.89235
0.862352
0.830056
0.798439
0.76873
0.741631
0.717393
0.696044
0.677639
0.662504
0.6514
0.64557
0.646639
0.656487
0.677565
0.715042
0.786609
0.978447
2.18623
0.746472
0.729856
0.709807
0.689249
0.669409
0.651198
0.63516
0.621635
0.610941
0.603537
0.600132
0.601693
0.609354
0.624355
0.648426
0.685911
0.753105
0.931306
2.07249
0.622705
0.616638
0.606716
0.595361
0.583861
0.573179
0.564023
0.556945
0.552451
0.551099
0.553544
0.560519
0.572745
0.590918
0.616132
0.65196
0.713225
0.875417
1.93342
0.51956
0.521274
0.519208
0.515199
0.510484
0.505976
0.502439
0.500539
0.500892
0.504106
0.510772
0.521421
0.536433
0.556051
0.58084
0.613695
0.667963
0.81272
1.77631
0.434711
0.441747
0.445368
0.446963
0.447536
0.447903
0.448808
0.450945
0.454969
0.461484
0.471004
0.483877
0.500201
0.519856
0.542991
0.571925
0.618581
0.745301
1.6081
0.365436
0.375772
0.383223
0.388845
0.393341
0.397394
0.401678
0.406853
0.413548
0.42232
0.433586
0.447525
0.464002
0.482618
0.503209
0.52763
0.566457
0.6752
1.43509
0.309012
0.321084
0.330884
0.339171
0.346398
0.353094
0.359827
0.367181
0.375716
0.385905
0.398046
0.412164
0.427929
0.444739
0.462213
0.481843
0.51295
0.604302
1.26269
0.262974
0.275624
0.286629
0.296475
0.305431
0.313879
0.322269
0.33108
0.340774
0.351714
0.364068
0.377709
0.392154
0.406662
0.420719
0.43555
0.459312
0.534275
1.09541
0.225247
0.237611
0.248994
0.259533
0.269398
0.278851
0.288226
0.297893
0.308193
0.319363
0.331433
0.344135
0.356865
0.368802
0.379376
0.389626
0.406649
0.466573
0.936831
0.194199
0.205769
0.216835
0.22738
0.237483
0.247315
0.257108
0.267119
0.277567
0.288552
0.299967
0.311416
0.322207
0.331491
0.338719
0.344823
0.355948
0.402523
0.790049
0.168566
0.179028
0.189289
0.1993
0.209093
0.218772
0.228486
0.23839
0.248586
0.259041
0.269516
0.279506
0.288268
0.294982
0.299192
0.301809
0.308159
0.343522
0.658157
0.147493
0.156613
0.165734
0.174807
0.183845
0.192915
0.202105
0.211488
0.221059
0.230672
0.239971
0.248374
0.255129
0.25951
0.26123
0.261285
0.26436
0.291282
0.545009
0.130312
0.137991
0.145773
0.153629
0.161573
0.169655
0.177927
0.186401
0.194993
0.203465
0.211386
0.218139
0.223019
0.225459
0.225431
0.224138
0.225891
0.24802
0.455705
0.116553
0.122817
0.129199
0.135691
0.142322
0.14914
0.156177
0.163408
0.170701
0.17777
0.184159
0.189275
0.192526
0.19357
0.192713
0.191515
0.19431
0.216354
0.396605
0.105929
0.110917
0.115959
0.121074
0.126311
0.131721
0.137328
0.143091
0.148863
0.154361
0.15916
0.162759
0.164736
0.165014
0.164275
0.164586
0.170903
0.198685
0.374904
0.0983391
0.10226
0.106105
0.109936
0.113823
0.117824
0.121959
0.126189
0.13038
0.134295
0.137594
0.139916
0.141027
0.141097
0.141149
0.143861
0.155668
0.196114
0.400195
0.0938921
0.0969373
0.0997346
0.102414
0.10507
0.107766
0.110522
0.113309
0.11603
0.118517
0.120544
0.121893
0.12249
0.122654
0.123584
0.128491
0.146144
0.206824
0.494959
0.0929481
0.0951365
0.0969361
0.0985553
0.100103
0.101635
0.103173
0.104702
0.106167
0.107477
0.108514
0.109175
0.10947
0.109706
0.110939
0.116321
0.136497
0.220988
0.738763
0.0961033
0.0970668
0.0977424
0.098306
0.0988214
0.0993161
0.0998005
0.100272
0.100716
0.101106
0.101406
0.101592
0.101678
0.101793
0.102404
0.105176
0.117688
0.197786
1.48933
)
;

boundaryField
{
    leftWall
    {
        type            epsilonWallFunction;
        value           nonuniform List<scalar> 
50
(
0.00884158
0.0117172
0.0196446
0.0290876
0.0400368
0.0484059
0.0492597
0.0498721
0.0616505
0.0793721
0.0977892
0.112634
0.121658
0.125887
0.129875
0.148501
0.142875
0.128567
0.113199
0.101955
0.0974993
0.0987449
0.103283
0.109098
0.115026
0.120452
0.125111
0.128934
0.131967
0.13431
0.136071
0.137339
0.13819
0.138687
0.138892
0.138868
0.138688
0.138433
0.13821
0.138151
0.138425
0.139246
0.140886
0.14367
0.147962
0.154103
0.162319
0.17259
0.184011
0.194345
)
;
    }
    rightWall
    {
        type            epsilonWallFunction;
        value           nonuniform List<scalar> 
50
(
0.501992
0.382714
0.466682
0.538573
0.600058
0.646099
0.672199
0.680348
0.678817
0.656759
0.666892
0.725103
0.836399
1.01917
1.16639
1.01979
0.480168
0.382692
0.661411
1.00989
1.23541
1.33127
1.51535
1.70734
1.8775
2.02032
2.14007
2.24551
2.30352
2.30873
2.26735
2.18623
2.07249
1.93342
1.77631
1.6081
1.43509
1.26269
1.09541
0.936831
0.790049
0.658157
0.545009
0.455705
0.396605
0.374904
0.400195
0.494959
0.738763
1.48933
)
;
    }
    lowerWall
    {
        type            epsilonWallFunction;
        value           nonuniform List<scalar> 
62
(
0.00884158
0.0300948
0.0545397
0.077335
0.0981231
0.118132
0.13952
0.164935
0.197368
0.240377
0.297206
0.366162
0.444811
0.531663
0.626117
0.726388
0.826317
0.910255
0.947739
0.892178
0.696525
0.354409
0.0344955
0.0344955
0.100373
0.232526
0.453082
0.854265
1.62682
3.20972
6.7179
10.0034
9.44183
9.92714
11.9091
0.786492
0.599469
0.810687
1.46476
2.78717
4.4525
6.7787
10.6022
0.786492
2.36551
3.79881
4.68096
4.55769
4.26976
3.91637
3.61798
3.36871
3.05898
2.66278
2.26792
1.89997
1.56271
1.12052
0.609046
0.400358
0.40355
0.501992
)
;
    }
    atmosphere
    {
        type            inletOutlet;
        inletValue      uniform 0.1;
        value           nonuniform List<scalar> 
46
(
0.194345
0.100015
0.080506
0.0719432
0.0671806
0.0643357
0.0626577
0.0617675
0.061444
0.0615454
0.0619756
0.0626667
0.0635692
0.0646461
0.0658688
0.0672149
0.0686669
0.0702149
0.0718638
0.0736516
0.0756923
0.0782725
0.0820627
0.0868678
0.1
0.1
0.1
0.1
0.1
0.1
0.1
0.1
0.1
0.1
0.1
0.1
0.1
0.1
0.1
0.1
0.1
0.1
0.1
0.1
0.1
0.1
)
;
    }
    defaultFaces
    {
        type            empty;
    }
}


// ************************************************************************* //
