/*--------------------------------*- C++ -*----------------------------------*\
  =========                 |
  \\      /  F ield         | OpenFOAM: The Open Source CFD Toolbox
   \\    /   O peration     | Website:  https://openfoam.org
    \\  /    A nd           | Version:  13
     \\/     M anipulation  |
\*---------------------------------------------------------------------------*/
FoamFile
{
    format      ascii;
    class       volScalarField;
    location    "0.85";
    object      k;
}
// * * * * * * * * * * * * * * * * * * * * * * * * * * * * * * * * * * * * * //

dimensions      [0 2 -2 0 0 0 0];

internalField   nonuniform List<scalar> 
2268
(
0.00164802
0.00373389
0.00553977
0.00698115
0.00817606
0.00925589
0.0103554
0.0116012
0.0131068
0.0149839
0.0172759
0.0198442
0.0225694
0.0253936
0.0282986
0.0312343
0.0340346
0.0362994
0.0372769
0.0357841
0.0303293
0.0193471
0.00408514
0.003295
0.00884047
0.0126933
0.0155575
0.0178685
0.0199834
0.0222158
0.0248297
0.0280283
0.031946
0.0365074
0.0416227
0.047198
0.0532153
0.0597018
0.0665908
0.073523
0.0795788
0.0830282
0.0812169
0.0708559
0.0490479
0.013705
0.0046666
0.0126385
0.0174914
0.02101
0.0238248
0.026443
0.0292661
0.0325995
0.0366521
0.0415089
0.0471342
0.0534958
0.0605864
0.0684985
0.077361
0.0871437
0.0973732
0.106773
0.112978
0.112439
0.100704
0.0732439
0.023978
0.00606604
0.0157756
0.0212983
0.0252588
0.0284334
0.0314301
0.0347071
0.038584
0.0432587
0.0487905
0.0552159
0.0625853
0.0710203
0.0807726
0.092123
0.105116
0.119171
0.132648
0.142578
0.14463
0.133226
0.101606
0.0373185
0.00749577
0.0185694
0.0246685
0.0289721
0.0324482
0.0357635
0.0394192
0.0437455
0.0489337
0.0550622
0.0622489
0.0706587
0.080587
0.0925036
0.106898
0.123901
0.142757
0.16134
0.176021
0.181771
0.17199
0.137168
0.0567254
0.00852023
0.0210912
0.0279345
0.0325729
0.0362661
0.0397937
0.0437357
0.0484242
0.0540551
0.0607592
0.0687511
0.0783485
0.0900814
0.104713
0.122991
0.145078
0.169853
0.194491
0.214673
0.224894
0.217955
0.181725
0.0867445
0.0086182
0.0222602
0.0307134
0.0362515
0.0400881
0.0436953
0.0478188
0.0527835
0.0588081
0.0660978
0.0749879
0.0860037
0.0999934
0.118104
0.141355
0.169763
0.201499
0.232806
0.258761
0.273798
0.270939
0.237027
0.135917
0.00860386
0.0220925
0.0313527
0.0383091
0.0432268
0.0473586
0.0517098
0.0568991
0.063292
0.071197
0.0811185
0.0938668
0.110722
0.133312
0.162856
0.198849
0.238297
0.276375
0.307824
0.327517
0.329673
0.303944
0.221769
0.0322279
0.0672013
0.0921111
0.105932
0.104128
0.0997909
0.0943019
0.0893992
0.0851722
0.079998
0.0729465
0.0655208
0.058184
0.0510828
0.0409498
0.0271798
0.0204715
0.0206314
0.0239125
0.0476602
0.142367
0.187284
0.20482
0.21005
0.20724
0.199875
0.190068
0.180264
0.168267
0.154087
0.138871
0.124348
0.110393
0.0888313
0.0598302
0.0489024
0.0376487
0.0352294
0.0584386
0.167831
0.226678
0.254765
0.263598
0.261386
0.25289
0.241012
0.227398
0.211828
0.194533
0.177005
0.160531
0.143186
0.115558
0.0816118
0.0634256
0.0516714
0.0401795
0.0866393
0.19801
0.265784
0.295685
0.303852
0.30039
0.290152
0.276012
0.25949
0.241132
0.221682
0.203055
0.18609
0.166963
0.133882
0.0975283
0.0763054
0.0683526
0.0441787
0.132416
0.24593
0.309109
0.334065
0.338293
0.331834
0.318985
0.302199
0.282843
0.261899
0.240564
0.22083
0.203586
0.183548
0.146707
0.109829
0.0894127
0.0849033
0.0474505
0.180484
0.302245
0.353638
0.369723
0.368302
0.357787
0.341666
0.321929
0.299805
0.276456
0.253316
0.232035
0.213484
0.191365
0.155571
0.119949
0.101363
0.098661
0.0498276
0.238531
0.359232
0.395099
0.401637
0.394355
0.3796
0.360071
0.337336
0.312524
0.286933
0.262075
0.239205
0.218837
0.195002
0.162455
0.128928
0.113032
0.110239
0.0512029
0.321279
0.411467
0.431034
0.428853
0.416183
0.397472
0.374738
0.349206
0.321921
0.294309
0.267878
0.24357
0.221688
0.197702
0.168144
0.135261
0.125293
0.118896
0.0517261
0.00979092
0.0222275
0.0307609
0.0381082
0.0447591
0.0507673
0.0564436
0.0625384
0.0697189
0.0787023
0.0904439
0.10637
0.128636
0.159713
0.200759
0.249637
0.300971
0.348451
0.386851
0.412363
0.421868
0.41173
0.368522
0.0115468
0.024316
0.0321311
0.0388804
0.0454811
0.0521691
0.0592835
0.067242
0.0765561
0.088145
0.103879
0.12672
0.160888
0.209897
0.272441
0.340951
0.405952
0.460662
0.501988
0.529381
0.543424
0.545589
0.537854
0.0132684
0.0269539
0.0346299
0.0411579
0.0476767
0.054642
0.0623952
0.0714828
0.082756
0.0978114
0.119725
0.154082
0.207812
0.282906
0.370079
0.454183
0.524509
0.577218
0.612813
0.63347
0.641063
0.638645
0.626468
0.0145955
0.0293314
0.0372257
0.0438441
0.0505228
0.0578184
0.0662218
0.0764442
0.0898862
0.109475
0.141308
0.195801
0.281584
0.390606
0.498708
0.586679
0.649163
0.688183
0.708893
0.714896
0.706827
0.687874
0.661874
0.0153885
0.0310759
0.0394347
0.0464149
0.0535414
0.0614769
0.0708204
0.082596
0.0991476
0.125872
0.174453
0.262404
0.393204
0.535842
0.649587
0.722441
0.761208
0.775292
0.772259
0.756691
0.733363
0.704413
0.670646
0.0157619
0.0321544
0.0411272
0.0487487
0.0566898
0.0657369
0.0766992
0.0911411
0.112943
0.152676
0.231247
0.371135
0.556299
0.717799
0.798726
0.826897
0.828334
0.816479
0.79677
0.77066
0.739648
0.704413
0.66549
0.0160926
0.0328672
0.0425169
0.051125
0.0603854
0.071221
0.0849378
0.104433
0.136708
0.20057
0.324112
0.529474
0.781656
0.917987
0.8909
0.871822
0.855123
0.83364
0.806793
0.77504
0.739136
0.699898
0.658191
0.0176786
0.0353435
0.0446607
0.0545268
0.065685
0.0789676
0.0959678
0.120208
0.161304
0.24006
0.38167
0.590705
0.810018
0.926866
0.924315
0.897139
0.875902
0.849533
0.81794
0.781856
0.742346
0.700493
0.657219
0.0172982
0.0345644
0.0451411
0.0563053
0.068839
0.0837227
0.102632
0.129787
0.175273
0.254944
0.385285
0.562395
0.738036
0.849259
0.91085
0.921307
0.904652
0.874052
0.837867
0.798092
0.755736
0.711786
0.667383
0.0162133
0.034192
0.0450686
0.0560015
0.0686804
0.0843105
0.105246
0.136132
0.185221
0.263776
0.380538
0.528823
0.674243
0.783508
0.878999
0.94733
0.947787
0.911113
0.86908
0.82651
0.781854
0.735435
0.689746
0.0149217
0.0321042
0.0438061
0.0551753
0.0682901
0.0846765
0.106811
0.139039
0.188142
0.262089
0.365534
0.491621
0.616706
0.718004
0.808927
0.892649
0.93424
0.92655
0.897639
0.860028
0.816581
0.769146
0.722313
0.0138906
0.0303537
0.042395
0.0540914
0.0674511
0.0840621
0.106256
0.137837
0.184324
0.25171
0.342843
0.452041
0.562416
0.656373
0.737188
0.810895
0.862252
0.888575
0.893233
0.875664
0.842041
0.800182
0.755206
0.0134296
0.0294032
0.0413499
0.0529498
0.0660936
0.0822869
0.103598
0.133252
0.175767
0.235895
0.315837
0.411522
0.511146
0.599956
0.673793
0.739064
0.7925
0.830429
0.850879
0.852262
0.835681
0.80659
0.771133
0.0134905
0.0292475
0.0408587
0.0520088
0.0645291
0.0798143
0.0996434
0.126697
0.164684
0.217558
0.287446
0.372087
0.462838
0.54605
0.616325
0.676736
0.72818
0.768907
0.79675
0.809295
0.806252
0.790748
0.766419
0.0138745
0.0297
0.0408995
0.0514304
0.0630925
0.0771867
0.0952321
0.11943
0.152833
0.19886
0.259907
0.334856
0.416347
0.494284
0.56223
0.620158
0.669397
0.70973
0.739834
0.757981
0.763682
0.758259
0.743882
0.0143791
0.0304967
0.0413241
0.0512086
0.0619499
0.0747711
0.0909696
0.112352
0.141471
0.181373
0.234204
0.299484
0.372231
0.444597
0.510118
0.566607
0.614351
0.653585
0.683891
0.704437
0.714865
0.715905
0.708967
0.0148925
0.0313764
0.0419416
0.0512789
0.0611709
0.0727719
0.0872278
0.10603
0.131243
0.165378
0.210506
0.266768
0.330976
0.39721
0.459549
0.514589
0.561341
0.599721
0.629678
0.651061
0.663887
0.668698
0.66654
0.0153583
0.0322048
0.0425882
0.0514859
0.0606541
0.0711736
0.0840542
0.100524
0.122229
0.151207
0.189338
0.237234
0.293073
0.352603
0.410761
0.463688
0.509398
0.547176
0.576878
0.598608
0.612683
0.619703
0.62059
0.0157542
0.0329222
0.0431792
0.0517291
0.060296
0.0698856
0.081387
0.0958113
0.11446
0.138951
0.170906
0.211191
0.258975
0.311404
0.364433
0.414295
0.458432
0.495516
0.525066
0.547124
0.562078
0.570587
0.573532
0.0160759
0.0335108
0.0436757
0.0519493
0.0600211
0.0688242
0.0791424
0.0918113
0.107854
0.128532
0.155181
0.188731
0.229001
0.274241
0.321443
0.36729
0.409066
0.445016
0.474274
0.496646
0.512408
0.522162
0.526726
0.0163288
0.0339742
0.0440666
0.0521159
0.0597785
0.0679205
0.0772346
0.088417
0.102273
0.119772
0.141973
0.169741
0.203256
0.241575
0.282623
0.323724
0.362329
0.396504
0.425078
0.447574
0.464053
0.474958
0.480986
0.0165223
0.034326
0.0443555
0.0522172
0.0595373
0.0671227
0.0755882
0.0855201
0.0975577
0.112441
0.130987
0.153928
0.181598
0.213581
0.248556
0.284529
0.319327
0.351065
0.378418
0.400668
0.417635
0.429555
0.436948
0.0166664
0.0345834
0.0445533
0.0522531
0.0592821
0.0663957
0.0741432
0.0830243
0.0935538
0.1063
0.121881
0.140882
0.163664
0.19011
0.219446
0.250292
0.280938
0.309721
0.335311
0.356848
0.37395
0.386636
0.395225
0.0167691
0.0347631
0.044674
0.0522305
0.0590083
0.0657189
0.0728563
0.0808517
0.0901279
0.101128
0.114318
0.13015
0.148946
0.170737
0.195106
0.221154
0.247627
0.27317
0.296573
0.316942
0.333761
0.346867
0.356384
0.0168374
0.0348803
0.044732
0.0521598
0.0587185
0.0650823
0.0716987
0.078944
0.0871727
0.0967378
0.107997
0.121293
0.13689
0.154874
0.175042
0.196835
0.219385
0.241656
0.262632
0.281474
0.297609
0.31075
0.320855
0.0168767
0.0349477
0.0447412
0.0520533
0.0584201
0.0644842
0.0706539
0.0772609
0.0846078
0.0929842
0.102671
0.11393
0.126971
0.141892
0.158602
0.176768
0.195812
0.214985
0.233482
0.250577
0.265706
0.278515
0.288847
0.0168923
0.0349769
0.0447153
0.0519244
0.0581235
0.0639285
0.0697146
0.0757766
0.0823765
0.0897583
0.09815
0.107758
0.118747
0.131209
0.145112
0.160263
0.176285
0.192655
0.20877
0.224033
0.237938
0.250116
0.260338
0.0168895
0.034979
0.044668
0.0517873
0.0578411
0.0634226
0.0688796
0.0744757
0.0804405
0.0869836
0.0942964
0.102547
0.111871
0.122348
0.133976
0.146645
0.160114
0.174026
0.187942
0.201397
0.213962
0.225289
0.235121
0.016874
0.0349659
0.044614
0.0516577
0.0575872
0.0629771
0.0681522
0.0733506
0.0787746
0.084607
0.0910127
0.0981349
0.106087
0.114942
0.124714
0.135339
0.146668
0.158458
0.170397
0.182135
0.193325
0.20366
0.212888
0.0168525
0.0349516
0.0445703
0.0515534
0.0573784
0.0626047
0.0675389
0.0723978
0.0773616
0.0825909
0.0882302
0.0944047
0.101215
0.108727
0.116964
0.125895
0.135426
0.145394
0.15558
0.165727
0.175564
0.184833
0.193305
0.0168336
0.0349529
0.0445573
0.0514952
0.0572338
0.0623206
0.0670483
0.0716173
0.0761895
0.0809072
0.0858979
0.0912731
0.0971233
0.103512
0.110468
0.117981
0.125993
0.134396
0.143038
0.151732
0.160271
0.168449
0.176068
0.0168277
0.0349913
0.0445995
0.0515078
0.0571757
0.0621426
0.0666915
0.0710109
0.0752485
0.0795319
0.0839743
0.0886753
0.0937174
0.0991613
0.105041
0.111358
0.118079
0.125135
0.13242
0.139799
0.147119
0.154216
0.160931
0.0168484
0.0350934
0.0447268
0.05162
0.0572293
0.0620902
0.0664805
0.0705812
0.0745302
0.0784433
0.082422
0.0865554
0.0909185
0.0955684
0.100541
0.105848
0.111472
0.117368
0.123464
0.129664
0.135854
0.141911
0.147705
0.0169129
0.0352919
0.0449738
0.0518638
0.0574214
0.0621836
0.0664274
0.0703308
0.0740256
0.0776196
0.0812047
0.084861
0.0886557
0.0926418
0.0968551
0.101312
0.106006
0.110909
0.115971
0.121125
0.126285
0.13136
0.136249
0.0170424
0.0356246
0.0453782
0.0522715
0.0577774
0.06244
0.0665409
0.070259
0.0737238
0.0770378
0.080286
0.0835403
0.0868611
0.0902959
0.0938784
0.0976262
0.101539
0.1056
0.109775
0.114012
0.118252
0.122424
0.126454
0.0172616
0.0361318
0.0459755
0.0528704
0.0583151
0.0628688
0.0668223
0.0703589
0.0736089
0.0766718
0.0796276
0.0825418
0.0854679
0.088448
0.0915118
0.0946758
0.0979425
0.1013
0.104723
0.108174
0.111609
0.114976
0.118218
0.0175969
0.0368477
0.0467901
0.0536727
0.0590368
0.0634642
0.0672593
0.0706127
0.0736569
0.0764902
0.079189
0.0818134
0.0844111
0.0870183
0.08966
0.0923499
0.0950899
0.0978705
0.100672
0.103465
0.106216
0.108887
0.111439
0.0180707
0.037787
0.0478204
0.0546639
0.0599191
0.0641979
0.0678211
0.0709876
0.0738328
0.0764546
0.0789262
0.0813034
0.0836285
0.0859321
0.0882345
0.0905455
0.0928649
0.0951833
0.0974834
0.0997423
0.101934
0.104034
0.106014
0.0186938
0.0389252
0.0490218
0.0557884
0.0609026
0.0650115
0.0684528
0.0714329
0.0740894
0.0765191
0.0787924
0.0809611
0.0830628
0.0851234
0.0871582
0.0891733
0.0911658
0.0931255
0.0950363
0.0968796
0.0986378
0.100297
0.101844
0.0194573
0.0401757
0.0502882
0.056937
0.0618852
0.0658139
0.0690756
0.0718811
0.0743683
0.0766321
0.07874
0.08074
0.0826658
0.084539
0.0863712
0.0881649
0.0899149
0.09161
0.0932353
0.0947761
0.0962234
0.0975786
0.0988506
0.0202893
0.041375
0.0514415
0.0579436
0.0627219
0.0664846
0.0695911
0.072253
0.074606
0.0767423
0.0787263
0.0806031
0.0824031
0.084145
0.0858374
0.0874806
0.0890675
0.0905863
0.0920232
0.0933679
0.0946213
0.0958062
0.0969743
0.0210275
0.0422364
0.0522089
0.0585816
0.0632352
0.0668867
0.0698954
0.0724703
0.0747444
0.0768075
0.0787219
0.0805306
0.0822623
0.0839339
0.0855526
0.0871172
0.0886201
0.0900491
0.0913915
0.0926398
0.0938035
0.0949293
0.0961415
0.288918
0.277978
0.28751
0.324933
0.528794
0.527062
0.529201
0.533494
0.608658
0.597172
0.586422
0.575802
0.635906
0.618921
0.601837
0.584752
0.638685
0.618087
0.597718
0.577765
0.630394
0.608292
0.586736
0.565818
0.621962
0.599488
0.577766
0.556779
0.620703
0.5983
0.576771
0.556
0.630695
0.608306
0.586875
0.566225
0.652742
0.630166
0.608514
0.587767
0.684879
0.661416
0.63943
0.61876
0.719308
0.696686
0.675139
0.654927
0.740353
0.720608
0.70155
0.683075
0.743279
0.727813
0.712181
0.696473
0.728285
0.717272
0.705527
0.693201
0.699209
0.691795
0.683564
0.674595
0.660855
0.656021
0.650355
0.64401
0.617589
0.614547
0.610676
0.60612
0.572364
0.570609
0.568036
0.564772
0.526969
0.526238
0.524701
0.522466
0.482472
0.482659
0.482049
0.480733
0.439599
0.44066
0.44094
0.440513
0.398949
0.400828
0.401957
0.402395
0.36103
0.363628
0.365526
0.366768
0.326214
0.329387
0.331924
0.333859
0.294677
0.29825
0.301266
0.303745
0.266393
0.270189
0.27351
0.276366
0.241177
0.245031
0.248491
0.25156
0.218757
0.222529
0.225983
0.229116
0.198838
0.202418
0.205745
0.208814
0.181155
0.184457
0.187563
0.190466
0.165492
0.168457
0.171272
0.173928
0.151693
0.154283
0.156757
0.159109
0.139644
0.141841
0.143949
0.14596
0.129262
0.131069
0.132805
0.134464
0.120473
0.121912
0.123292
0.124609
0.113199
0.11431
0.115371
0.116383
0.107363
0.108203
0.109
0.109753
0.102887
0.103528
0.104129
0.104686
0.0997213
0.100251
0.100735
0.101168
0.0978574
0.0984061
0.0988682
0.09924
0.0973099
0.0982608
0.0987737
0.099065
0.452148
0.474461
0.473799
0.460835
0.441356
0.417704
0.391022
0.362095
0.331813
0.301699
0.273331
0.24742
0.223847
0.200098
0.172398
0.146312
0.135682
0.125696
0.0517672
0.537059
0.520655
0.501408
0.478219
0.452337
0.424578
0.395291
0.364862
0.333952
0.30363
0.275192
0.249135
0.224781
0.200829
0.175692
0.153076
0.139735
0.124037
0.0508706
0.559842
0.532141
0.504001
0.475175
0.445964
0.416533
0.386954
0.357501
0.328704
0.301249
0.275483
0.251296
0.227567
0.20371
0.179992
0.158371
0.142197
0.122903
0.0516682
0.560738
0.526233
0.492934
0.460857
0.429943
0.400097
0.371341
0.343941
0.318355
0.295031
0.273791
0.25352
0.232612
0.209679
0.18601
0.16408
0.145911
0.12752
0.0549111
0.550431
0.512463
0.476352
0.442354
0.410406
0.380417
0.352466
0.326867
0.304081
0.284487
0.267878
0.252704
0.236559
0.217258
0.194126
0.171041
0.150582
0.130515
0.060867
0.537433
0.498063
0.46053
0.425297
0.392432
0.361955
0.33403
0.309029
0.287467
0.269792
0.256008
0.245128
0.234624
0.22124
0.202679
0.17988
0.156815
0.132798
0.0696962
0.528347
0.488603
0.450358
0.414205
0.380334
0.348855
0.319976
0.294076
0.27168
0.253341
0.239369
0.229441
0.222174
0.215036
0.204814
0.18758
0.163825
0.133593
0.0752232
0.527763
0.487957
0.44929
0.412394
0.377512
0.344771
0.314346
0.286522
0.261718
0.240454
0.22322
0.210219
0.20106
0.19448
0.188143
0.178788
0.159081
0.123105
0.0682474
0.538025
0.498116
0.459112
0.421629
0.385909
0.352035
0.320117
0.29031
0.262829
0.237975
0.216125
0.197586
0.182408
0.17021
0.159662
0.1484
0.131395
0.0934946
0.0410233
0.559332
0.519104
0.479739
0.441833
0.405607
0.370999
0.338029
0.306825
0.277515
0.250204
0.225041
0.202178
0.181671
0.163456
0.14695
0.129958
0.107926
0.073808
0.0357083
0.590154
0.549371
0.509547
0.47127
0.434861
0.39997
0.36644
0.334441
0.304328
0.276224
0.250146
0.226302
0.204955
0.18626
0.170024
0.15421
0.133171
0.0983233
0.0513345
0.626048
0.585037
0.545444
0.507056
0.470666
0.436001
0.402282
0.369758
0.339058
0.310891
0.284936
0.2615
0.241732
0.226014
0.212906
0.200477
0.18152
0.142239
0.0676762
0.655536
0.616941
0.578771
0.54178
0.50649
0.472384
0.438847
0.406316
0.375612
0.34742
0.321415
0.296976
0.275675
0.258416
0.244964
0.231123
0.206713
0.164047
0.0770321
0.671922
0.636654
0.601463
0.567603
0.535006
0.503081
0.470753
0.438391
0.407607
0.379164
0.352697
0.327985
0.305489
0.284788
0.263054
0.237541
0.203807
0.154058
0.0811407
0.672705
0.642402
0.611437
0.581098
0.551727
0.522263
0.492119
0.461976
0.432585
0.404273
0.377074
0.350831
0.325974
0.302161
0.27688
0.247627
0.211136
0.16032
0.088656
0.658636
0.634067
0.608161
0.582007
0.555927
0.529351
0.501832
0.473753
0.445871
0.418461
0.391351
0.364649
0.338679
0.313099
0.286633
0.257411
0.222094
0.173089
0.0960173
0.632423
0.613628
0.592774
0.570857
0.548336
0.52487
0.500245
0.474789
0.448943
0.422907
0.39672
0.370519
0.344617
0.319062
0.293199
0.265314
0.231907
0.184628
0.10226
0.597577
0.583682
0.567511
0.549815
0.530931
0.510781
0.489246
0.466682
0.443348
0.419362
0.394844
0.370091
0.345529
0.321383
0.297195
0.271356
0.240133
0.194449
0.10735
0.558345
0.547999
0.535524
0.521432
0.505961
0.489134
0.470952
0.451559
0.431114
0.409745
0.387657
0.365239
0.342966
0.321118
0.29924
0.27567
0.246538
0.202296
0.111519
0.517728
0.509769
0.500117
0.488959
0.476469
0.462695
0.447654
0.431409
0.414058
0.395736
0.376694
0.357323
0.338047
0.319023
0.299718
0.278377
0.251034
0.207865
0.11513
0.477485
0.471327
0.463898
0.455096
0.445117
0.434022
0.421827
0.408566
0.394308
0.379188
0.363448
0.347419
0.331397
0.315378
0.298677
0.279417
0.25355
0.211081
0.117039
0.438724
0.43431
0.428636
0.421772
0.413906
0.405115
0.395432
0.384888
0.373547
0.361532
0.34904
0.336303
0.323464
0.310332
0.296053
0.27863
0.253962
0.212011
0.117172
0.402053
0.399352
0.395284
0.390129
0.38409
0.377284
0.369779
0.36163
0.352907
0.343714
0.334191
0.324457
0.314493
0.30393
0.291752
0.275862
0.252152
0.210682
0.115744
0.367804
0.366775
0.364257
0.360682
0.35627
0.351189
0.345557
0.339466
0.332998
0.326242
0.319276
0.312113
0.304584
0.29616
0.285691
0.271016
0.248077
0.207162
0.112955
0.336123
0.336662
0.335629
0.333517
0.330568
0.326998
0.322972
0.318614
0.314027
0.309286
0.304416
0.299335
0.29375
0.287
0.27784
0.264087
0.241787
0.201589
0.109
0.307015
0.308933
0.309267
0.308472
0.30683
0.30458
0.301918
0.298999
0.29594
0.292805
0.289576
0.286097
0.281977
0.276458
0.268238
0.255159
0.23343
0.194162
0.104069
0.280379
0.283423
0.284929
0.285281
0.284779
0.283665
0.282149
0.280404
0.278556
0.276659
0.274663
0.272353
0.269267
0.26459
0.257001
0.244407
0.223234
0.185138
0.0983562
0.256045
0.259927
0.26236
0.263669
0.264125
0.263961
0.263387
0.262582
0.261669
0.260696
0.259583
0.258076
0.255668
0.251514
0.244313
0.232077
0.211487
0.174808
0.0920485
0.233819
0.238247
0.241346
0.243401
0.244623
0.245223
0.2454
0.245323
0.245113
0.244801
0.244288
0.243289
0.241277
0.237404
0.230417
0.218466
0.198514
0.163477
0.0853253
0.213513
0.218213
0.221733
0.22431
0.226099
0.227277
0.228022
0.22849
0.228785
0.228922
0.228785
0.22807
0.226243
0.222479
0.215596
0.2039
0.184657
0.151451
0.0783499
0.194975
0.199699
0.203413
0.206295
0.208452
0.210027
0.211171
0.212018
0.212652
0.213072
0.21314
0.212546
0.210758
0.20699
0.200152
0.188718
0.170261
0.139029
0.0712704
0.178097
0.182615
0.186334
0.18932
0.191656
0.193454
0.194837
0.195916
0.196752
0.197321
0.197471
0.196883
0.195042
0.191212
0.184401
0.173263
0.155665
0.1265
0.0642195
0.162829
0.166987
0.170512
0.173414
0.17575
0.177605
0.17908
0.180258
0.181179
0.181794
0.181936
0.181284
0.179342
0.175432
0.168671
0.157884
0.141215
0.114162
0.0573331
0.14915
0.152837
0.156007
0.158658
0.160832
0.162595
0.164025
0.165185
0.166089
0.166669
0.166742
0.165987
0.163935
0.159969
0.153315
0.14296
0.127296
0.102354
0.0507784
0.137105
0.140221
0.142915
0.145184
0.14706
0.148602
0.14987
0.150909
0.151712
0.152193
0.152158
0.151291
0.149155
0.145197
0.13875
0.128944
0.114377
0.091512
0.0448077
0.126715
0.129212
0.13136
0.133161
0.134649
0.135875
0.136892
0.13773
0.138366
0.138703
0.138544
0.137586
0.13543
0.131591
0.125499
0.116408
0.103064
0.0822248
0.0398113
0.11799
0.119881
0.121475
0.122786
0.123852
0.124722
0.125443
0.126035
0.126469
0.126644
0.126372
0.125376
0.123303
0.119741
0.114207
0.10605
0.0940994
0.0752327
0.0363413
0.110935
0.112288
0.113384
0.11425
0.114926
0.115462
0.115898
0.116251
0.116489
0.11652
0.116178
0.115227
0.113372
0.110275
0.105533
0.0985672
0.0882293
0.071331
0.035051
0.105542
0.10647
0.107174
0.107689
0.108063
0.108341
0.108557
0.108724
0.108815
0.108755
0.108411
0.107601
0.106098
0.103639
0.0999035
0.0943811
0.0859427
0.0712004
0.0366429
0.101805
0.102432
0.102861
0.103142
0.103322
0.103441
0.103524
0.103581
0.103593
0.103507
0.10323
0.102638
0.101574
0.0998593
0.0972613
0.0933844
0.0872285
0.0753165
0.0422404
0.0997328
0.100142
0.100386
0.100527
0.100604
0.100645
0.100668
0.10068
0.100669
0.100605
0.100436
0.100092
0.0994883
0.0985244
0.0970764
0.0949302
0.0914722
0.0839321
0.0552015
0.0993525
0.099528
0.0996176
0.0996639
0.0996857
0.0996944
0.0996971
0.0996962
0.099689
0.0996662
0.0996117
0.0995041
0.0993177
0.0990253
0.0986016
0.0980253
0.0972672
0.096041
0.0882226
)
;

boundaryField
{
    leftWall
    {
        type            kqRWallFunction;
        value           nonuniform List<scalar> 
50
(
0.00164802
0.003295
0.0046666
0.00606604
0.00749577
0.00852023
0.0086182
0.00860386
0.00979092
0.0115468
0.0132684
0.0145955
0.0153885
0.0157619
0.0160926
0.0176786
0.0172982
0.0162133
0.0149217
0.0138906
0.0134296
0.0134905
0.0138745
0.0143791
0.0148925
0.0153583
0.0157542
0.0160759
0.0163288
0.0165223
0.0166664
0.0167691
0.0168374
0.0168767
0.0168923
0.0168895
0.016874
0.0168525
0.0168336
0.0168277
0.0168484
0.0169129
0.0170424
0.0172616
0.0175969
0.0180707
0.0186938
0.0194573
0.0202893
0.0210275
)
;
    }
    rightWall
    {
        type            kqRWallFunction;
        value           nonuniform List<scalar> 
50
(
0.0239125
0.0352294
0.0401795
0.0441787
0.0474505
0.0498276
0.0512029
0.0517261
0.0517672
0.0508706
0.0516682
0.0549111
0.060867
0.0696962
0.0752232
0.0682474
0.0410233
0.0357083
0.0513345
0.0676762
0.0770321
0.0811407
0.088656
0.0960173
0.10226
0.10735
0.111519
0.11513
0.117039
0.117172
0.115744
0.112955
0.109
0.104069
0.0983562
0.0920485
0.0853253
0.0783499
0.0712704
0.0642195
0.0573331
0.0507784
0.0448077
0.0398113
0.0363413
0.035051
0.0366429
0.0422404
0.0552015
0.0882226
)
;
    }
    lowerWall
    {
        type            kqRWallFunction;
        value           nonuniform List<scalar> 
62
(
0.00164802
0.00373389
0.00553977
0.00698115
0.00817606
0.00925589
0.0103554
0.0116012
0.0131068
0.0149839
0.0172759
0.0198442
0.0225694
0.0253936
0.0282986
0.0312343
0.0340346
0.0362994
0.0372769
0.0357841
0.0303293
0.0193471
0.00408514
0.00408514
0.013705
0.023978
0.0373185
0.0567254
0.0867445
0.135917
0.221769
0.288918
0.277978
0.28751
0.324933
0.0322279
0.0476602
0.0584386
0.0866393
0.132416
0.180484
0.238531
0.321279
0.0322279
0.0672013
0.0921111
0.105932
0.104128
0.0997909
0.0943019
0.0893992
0.0851722
0.079998
0.0729465
0.0655208
0.058184
0.0510828
0.0409498
0.0271798
0.0204715
0.0206314
0.0239125
)
;
    }
    atmosphere
    {
        type            inletOutlet;
        inletValue      uniform 0.1;
        value           nonuniform List<scalar> 
46
(
0.0210275
0.0422364
0.0522089
0.0585816
0.0632352
0.0668867
0.0698954
0.0724703
0.0747444
0.0768075
0.0787219
0.0805306
0.0822623
0.0839339
0.0855526
0.0871172
0.0886201
0.0900491
0.0913915
0.0926398
0.0938035
0.0949293
0.0961415
0.0973099
0.1
0.1
0.1
0.1
0.1
0.1
0.1
0.1
0.1
0.1
0.1
0.1
0.1
0.1
0.1
0.1
0.1
0.1
0.1
0.1
0.1
0.1
)
;
    }
    defaultFaces
    {
        type            empty;
    }
}


// ************************************************************************* //
