/*--------------------------------*- C++ -*----------------------------------*\
  =========                 |
  \\      /  F ield         | OpenFOAM: The Open Source CFD Toolbox
   \\    /   O peration     | Website:  https://openfoam.org
    \\  /    A nd           | Version:  13
     \\/     M anipulation  |
\*---------------------------------------------------------------------------*/
FoamFile
{
    format      ascii;
    class       volScalarField;
    location    "0.85";
    object      nut;
}
// * * * * * * * * * * * * * * * * * * * * * * * * * * * * * * * * * * * * * //

dimensions      [0 2 -1 0 0 0 0];

internalField   nonuniform List<scalar> 
2268
(
2.76463e-05
4.16939e-05
5.06423e-05
5.67179e-05
6.1314e-05
6.52696e-05
6.91738e-05
7.34402e-05
7.83359e-05
8.40625e-05
9.0379e-05
9.67916e-05
0.000103064
0.000109157
0.000115111
0.000120876
0.000126165
0.00013028
0.000131957
0.000129173
0.000118859
9.50538e-05
4.35406e-05
8.33933e-05
0.000290489
0.000388876
0.000451005
0.00050086
0.000551676
0.000611571
0.000684929
0.000771951
0.000868073
0.000958019
0.0010388
0.00111037
0.00117518
0.00123625
0.00129459
0.00134688
0.00138308
0.00138506
0.00132561
0.00116698
0.000851914
0.000168417
9.97701e-05
0.000545998
0.000755919
0.000890741
0.0010012
0.001116
0.00125226
0.0014178
0.00161054
0.00181483
0.00200655
0.00217178
0.00230517
0.00241051
0.00249538
0.00256451
0.00261387
0.00262513
0.00256254
0.0023723
0.00198549
0.00132172
0.000222534
0.000113853
0.000760181
0.00108048
0.00128979
0.00146385
0.00164322
0.0018513
0.00209658
0.00237228
0.0026523
0.00290691
0.00311239
0.00325925
0.00335476
0.0034154
0.00345523
0.0034743
0.00344932
0.00332998
0.00304131
0.00249345
0.00160214
0.00027664
0.000126304
0.000934813
0.00136318
0.00164795
0.00188689
0.00212869
0.00240082
0.00271013
0.00304342
0.00336636
0.00364243
0.00384205
0.00395786
0.00400846
0.00402633
0.00403823
0.00404659
0.0040185
0.00388579
0.0035517
0.00290249
0.00183677
0.000339004
0.000134973
0.00106918
0.00160293
0.00196536
0.00226921
0.00257111
0.00290047
0.0032605
0.00363077
0.00396945
0.00423284
0.00439059
0.00444665
0.00444045
0.00442536
0.00443775
0.00447358
0.00448222
0.0043747
0.00403294
0.00331433
0.00207916
0.00041628
0.000135701
0.00114154
0.00179011
0.00223685
0.00260538
0.0029673
0.00334967
0.00375087
0.00414287
0.00447603
0.00470041
0.00479169
0.00477568
0.00472092
0.00470104
0.00475213
0.00485179
0.00492595
0.00486689
0.00454037
0.00377427
0.0023641
0.000517994
0.000133589
0.00115817
0.00190552
0.00244182
0.00288774
0.00331499
0.00374852
0.00418484
0.00458807
0.00489946
0.00506517
0.0050754
0.0049889
0.00490827
0.0049202
0.00504602
0.00523463
0.00538842
0.00538807
0.00509353
0.00431511
0.0027618
0.000658885
0.000118854
0.00017182
0.000201011
0.000215757
0.000214107
0.000209904
0.000204362
0.000198813
0.000193809
0.000188289
0.000179852
0.000170362
0.000160363
0.000150285
0.000134687
0.000109166
9.42093e-05
9.493e-05
0.000102517
0.000341026
0.00115367
0.00155963
0.00177198
0.00187188
0.00189667
0.00187929
0.00181859
0.0017742
0.0017001
0.00158908
0.00144852
0.00132358
0.0012335
0.0010168
0.000608352
0.00039272
0.000393487
0.000291862
0.00037913
0.00167263
0.00262833
0.00323611
0.0035384
0.00364644
0.00364058
0.00356024
0.00344798
0.00329203
0.00307274
0.00281835
0.00258012
0.00234883
0.00190872
0.00117372
0.00065337
0.000630937
0.000311337
0.000461216
0.00197304
0.00343614
0.00437822
0.0048739
0.00507687
0.00509866
0.00500601
0.00484332
0.00461799
0.00431504
0.00397231
0.0036318
0.00325968
0.00263177
0.00167522
0.000916303
0.00088783
0.000326155
0.000566191
0.0023523
0.00416773
0.00533986
0.00597101
0.00624588
0.0062917
0.0061885
0.00598548
0.00570098
0.00533153
0.00491071
0.00447139
0.0039677
0.00319003
0.00206597
0.00117026
0.00114986
0.000337699
0.000658441
0.00289005
0.00494333
0.00622061
0.0069128
0.00722266
0.00727837
0.00716168
0.00692416
0.00658964
0.00616459
0.00567328
0.00513652
0.00450321
0.00360497
0.00233707
0.00142971
0.00139551
0.000345847
0.000755415
0.00359357
0.00578524
0.00705852
0.00774655
0.00805608
0.00810523
0.00796984
0.0076999
0.00732355
0.00685207
0.00630048
0.00567399
0.00493343
0.00392089
0.00257683
0.00171788
0.00162633
0.000351022
0.000876213
0.0044655
0.00666737
0.00785349
0.0084915
0.00877355
0.00880151
0.00864182
0.00834031
0.00792903
0.00741991
0.00681973
0.0061235
0.0053025
0.00420227
0.00284478
0.00204622
0.00180973
0.000353941
0.000139944
0.00115278
0.00203057
0.00268521
0.00324936
0.00377961
0.00429381
0.00478154
0.00518731
0.00544267
0.00549738
0.00538236
0.00522084
0.00516033
0.00528112
0.00555828
0.00589292
0.00616322
0.00624845
0.0060235
0.00534583
0.00409247
0.00231715
0.000151182
0.00123044
0.00221659
0.00296762
0.0036192
0.00423671
0.0048376
0.00538196
0.0057781
0.00592489
0.00580321
0.00554025
0.00537144
0.00547254
0.00584747
0.00637085
0.00689475
0.0073049
0.00752208
0.00749027
0.00717434
0.0065819
0.00582514
0.000162026
0.00133064
0.00242613
0.00327191
0.00399498
0.00467207
0.00531036
0.00585152
0.00617378
0.00616638
0.00587392
0.00556682
0.00556315
0.00596574
0.00663194
0.00735546
0.00799559
0.00848125
0.00878189
0.00889046
0.00882247
0.00863168
0.00842994
0.000170221
0.00141388
0.00261173
0.00354979
0.00434484
0.00506914
0.00572089
0.00621142
0.00639216
0.00617636
0.00575018
0.00556363
0.00591947
0.0067064
0.00761778
0.00844449
0.0091099
0.00959915
0.00992373
0.0101022
0.0101658
0.0101731
0.0102092
0.000175183
0.00146044
0.00274693
0.0037767
0.00464889
0.00541987
0.00606081
0.00645227
0.00643553
0.00601091
0.0055934
0.00575268
0.00658734
0.00770849
0.00873002
0.00953808
0.0101436
0.010581
0.0108801
0.0110722
0.0112069
0.0113309
0.0114758
0.000177615
0.00147189
0.00282929
0.00395218
0.00490723
0.00571969
0.00631893
0.00655535
0.00631856
0.00578842
0.00562774
0.00631629
0.00760928
0.0089004
0.00982215
0.010491
0.0109887
0.0113631
0.0116433
0.0118619
0.012052
0.01224
0.0124309
0.00017946
0.00146332
0.00288278
0.00409921
0.00513626
0.00597331
0.00649254
0.00655129
0.00616632
0.00577292
0.0060726
0.00725675
0.00889406
0.0100508
0.0106415
0.0111799
0.0116346
0.011995
0.0122838
0.0125298
0.0127565
0.0129773
0.0131872
0.000189412
0.00156449
0.00300757
0.00428408
0.0053809
0.00620977
0.00659425
0.00641569
0.00595752
0.00584071
0.00648405
0.00781847
0.00933816
0.0104234
0.0111217
0.0116691
0.0121337
0.0125033
0.012809
0.0130784
0.0133301
0.0135682
0.0137858
0.000188491
0.00163889
0.00315143
0.00447059
0.00556708
0.00630581
0.00652777
0.00627636
0.00594899
0.00602222
0.00671446
0.0078962
0.00917328
0.010256
0.0112562
0.0119672
0.0124777
0.0128672
0.0131946
0.0134886
0.0137621
0.0140158
0.0142424
0.000184016
0.0016596
0.00318249
0.00451071
0.00559871
0.006284
0.00646706
0.0062956
0.00613774
0.00632524
0.00696909
0.00795523
0.00902442
0.0100551
0.0111619
0.0120837
0.0126749
0.0130796
0.0134313
0.0137569
0.0140557
0.0143319
0.0145791
0.000177025
0.0015824
0.00310265
0.00446636
0.005595
0.00630979
0.00654063
0.00646392
0.00640619
0.00662248
0.00718468
0.00800192
0.00890502
0.00981963
0.0108229
0.0117935
0.0125425
0.0130676
0.0135013
0.0138835
0.0142279
0.0145442
0.014829
0.000170325
0.00148558
0.00298324
0.0043841
0.00557825
0.00636958
0.00668464
0.00668925
0.0066782
0.00687785
0.0073541
0.00803932
0.00881195
0.00961138
0.0104732
0.011348
0.0121302
0.0128057
0.0133796
0.0138523
0.014264
0.0146411
0.0149794
0.000166483
0.00140991
0.00287806
0.00429963
0.00555429
0.00643469
0.00684538
0.00692177
0.00693234
0.00709607
0.00749009
0.00807075
0.0087461
0.00945536
0.0101991
0.010967
0.0117145
0.0124211
0.013064
0.0136307
0.014134
0.0145928
0.0150084
0.000165875
0.0013727
0.00281697
0.00423987
0.0055346
0.00649713
0.00700509
0.00715115
0.00717492
0.00729565
0.00761079
0.00810183
0.00869457
0.00932859
0.00998959
0.0106718
0.0113578
0.0120312
0.0126757
0.0132846
0.0138555
0.0143899
0.0148846
0.000167743
0.00137384
0.00280616
0.00421825
0.00553036
0.00655917
0.00716119
0.00737989
0.00741863
0.00749529
0.0077296
0.0081305
0.00864609
0.00921933
0.00982048
0.0104377
0.0110625
0.0116868
0.0123016
0.0129011
0.0134862
0.0140617
0.0146215
0.000170565
0.00140322
0.0028378
0.00423372
0.00554548
0.00662263
0.00731193
0.0076082
0.00766858
0.00770056
0.00785172
0.00816335
0.00860434
0.00912113
0.00967389
0.0102415
0.0108147
0.0113895
0.0119633
0.0125352
0.0131071
0.0136816
0.0142548
0.000173532
0.00144348
0.00289602
0.00428116
0.00558097
0.0066851
0.00744792
0.0078227
0.00791669
0.00791983
0.00799567
0.00821788
0.00857956
0.00903595
0.00954223
0.0100686
0.0106002
0.0111323
0.0116653
0.0122018
0.0127456
0.0132992
0.0138589
0.000176244
0.00148493
0.00296305
0.00434389
0.00562987
0.00674782
0.00757109
0.00802659
0.00817194
0.00816686
0.00817993
0.00831328
0.00858816
0.00897473
0.00942901
0.00991492
0.0104109
0.0109081
0.0114057
0.0119076
0.0124185
0.0129415
0.0134737
0.000178542
0.00152243
0.00302805
0.00440934
0.0056825
0.0068065
0.00767971
0.00821708
0.00843211
0.00844486
0.0084155
0.00846688
0.00864985
0.00895561
0.00934762
0.00978764
0.0102482
0.0107149
0.0111833
0.0116554
0.0121355
0.0126267
0.0131269
0.000180396
0.00155366
0.00308492
0.00446915
0.00573105
0.00685573
0.00776876
0.00838572
0.00868595
0.0087457
0.008703
0.00868967
0.00878316
0.00900017
0.00931848
0.00970309
0.0101233
0.0105593
0.0110018
0.0114491
0.0119033
0.0123664
0.0128364
0.000181838
0.00157798
0.00313082
0.00451859
0.00577032
0.00689134
0.00783359
0.00852291
0.00891728
0.00905147
0.00903073
0.00898145
0.00899959
0.00912796
0.00936436
0.00968322
0.0100548
0.0104557
0.0108718
0.0112969
0.0117295
0.0121694
0.0126138
0.000182926
0.00159577
0.00316519
0.00455569
0.00579768
0.00691122
0.00787171
0.00862136
0.00910973
0.00933841
0.00937524
0.00932762
0.0092976
0.00934951
0.00950377
0.00974988
0.0100642
0.010423
0.0108088
0.0112107
0.0116234
0.0120435
0.0124668
0.000183721
0.00160798
0.00318892
0.00458051
0.0058126
0.0069153
0.00788343
0.00867797
0.00925093
0.00958248
0.00970553
0.00969941
0.00965868
0.00965963
0.00974321
0.00991721
0.010169
0.0104789
0.0108283
0.0112032
0.0115945
0.0119954
0.0123996
0.000184276
0.00161584
0.00320368
0.00459432
0.00581598
0.00690513
0.00787146
0.00869424
0.00933515
0.00976505
0.00998998
0.0100589
0.010048
0.0100337
0.0100705
0.0101837
0.010375
0.0106323
0.0109397
0.0112822
0.0116477
0.0120267
0.0124104
0.000184635
0.00162056
0.0032114
0.00459898
0.00580954
0.00688314
0.00784011
0.00867542
0.00936384
0.00987668
0.0102038
0.0103677
0.0104213
0.0104302
0.0104528
0.0105271
0.0106687
0.0108761
0.0111391
0.0114442
0.0117784
0.0121302
0.0124891
0.000184834
0.00162309
0.00321381
0.00459637
0.00579523
0.00685209
0.00779429
0.008629
0.00934429
0.00991811
0.0103341
0.0105964
0.0107351
0.0107993
0.0108417
0.0109054
0.0110163
0.0111836
0.0114047
0.0116701
0.011968
0.0122865
0.0126142
0.000184903
0.00162412
0.00321226
0.00458816
0.00577489
0.00681461
0.00773876
0.00856316
0.0092873
0.00989842
0.0103813
0.0107303
0.0109582
0.011096
0.011185
0.0112657
0.0113687
0.0115111
0.0116979
0.0119252
0.0121843
0.0124644
0.0127544
0.000184872
0.00162409
0.00320776
0.00457564
0.00575005
0.00677289
0.00767761
0.0084855
0.00920474
0.00983174
0.0103565
0.0107708
0.0110768
0.0112907
0.0114402
0.0115581
0.0116737
0.011808
0.0119716
0.0121661
0.0123871
0.012626
0.0128732
0.000184774
0.00162332
0.00320099
0.00455981
0.00572194
0.00672866
0.007614
0.00840227
0.00910748
0.00973365
0.0102772
0.010732
0.0110957
0.0113744
0.0115842
0.0117479
0.0118895
0.0120295
0.0121812
0.0123504
0.0125365
0.0127344
0.0129365
0.000184643
0.00162204
0.00319251
0.00454149
0.00569154
0.00668321
0.00755021
0.00831809
0.0090043
0.0096183
0.0101625
0.0106347
0.0110324
0.0113568
0.0116155
0.0118222
0.0119939
0.0121474
0.0122959
0.0124471
0.0126034
0.0127627
0.0129198
0.000184525
0.00162054
0.00318285
0.00452143
0.00565973
0.00663754
0.00748777
0.00823602
0.00890143
0.00949687
0.0100293
0.0105009
0.0109111
0.01126
0.0115503
0.011789
0.0119866
0.0121547
0.0123042
0.0124427
0.0125742
0.0126987
0.0128134
0.000184475
0.00161914
0.00317261
0.00450041
0.00562734
0.00659249
0.00742765
0.00815787
0.00880274
0.00937701
0.0098907
0.0103495
0.0107558
0.0111103
0.0114142
0.0116705
0.0118843
0.0120629
0.0122133
0.0123419
0.0124524
0.0125463
0.0126225
0.000184564
0.0016183
0.00316251
0.0044793
0.00559523
0.00654875
0.00737046
0.00808447
0.00871019
0.00926316
0.00975523
0.0101946
0.0105863
0.0109328
0.0112352
0.0114948
0.0117139
0.0118956
0.012044
0.0121628
0.0122551
0.0123223
0.0123643
0.000184883
0.00161854
0.00315331
0.00445898
0.00556424
0.00650694
0.00731652
0.00801604
0.00862439
0.00915729
0.00962757
0.0100451
0.0104168
0.0107468
0.0110374
0.0112895
0.0115038
0.0116813
0.0118232
0.0119312
0.0120068
0.0120507
0.0120631
0.000185539
0.00162036
0.0031456
0.0044401
0.00553496
0.00646749
0.00726596
0.00795242
0.00854515
0.00905979
0.00950964
0.00990552
0.0102557
0.0105657
0.0108389
0.0110767
0.0112793
0.0114467
0.0115783
0.011674
0.0117337
0.0117573
0.0117448
0.000186654
0.00162395
0.00313941
0.00442273
0.00550755
0.00643052
0.00721871
0.00789327
0.00847195
0.00897026
0.00940171
0.00977771
0.0101073
0.0103971
0.0106513
0.0108719
0.0110595
0.0112133
0.0113321
0.0114146
0.0114594
0.0114655
0.0114323
0.000188349
0.00162883
0.00313372
0.00440604
0.00548154
0.00639578
0.00717462
0.00783835
0.0084044
0.00888824
0.00930358
0.00966219
0.00997362
0.0102451
0.0104813
0.010685
0.010857
0.0109965
0.0111019
0.0111713
0.0112024
0.0111933
0.011143
0.000190714
0.00163342
0.00312629
0.00438824
0.00545584
0.0063628
0.00713353
0.00778768
0.00834255
0.00881377
0.00921534
0.00955931
0.00985555
0.0101116
0.0103326
0.0105215
0.0106795
0.0108058
0.0108989
0.0109562
0.0109748
0.010952
0.0108861
0.000193761
0.00163502
0.00311403
0.0043672
0.00542933
0.0063312
0.00709563
0.00774181
0.00828719
0.00874779
0.00913799
0.00947016
0.00975439
0.00999837
0.0102074
0.0103847
0.0105314
0.010647
0.0107297
0.0107764
0.0107835
0.0107465
0.0106625
0.000197421
0.00163026
0.0030944
0.00434172
0.0054018
0.00630141
0.00706184
0.0077021
0.00824007
0.00869233
0.00907374
0.009397
0.00967239
0.00990767
0.0101082
0.0102772
0.0104158
0.0105235
0.0105982
0.0106362
0.0106317
0.0105771
0.0104648
0.000201342
0.00161903
0.00306946
0.00431444
0.00537554
0.00627549
0.00703426
0.00767095
0.00820398
0.00865056
0.00902601
0.00934335
0.00961299
0.00984275
0.010038
0.0102018
0.0103354
0.0104381
0.0105074
0.0105384
0.0105225
0.0104448
0.0102843
0.00020476
0.00160528
0.00304722
0.00429314
0.00535693
0.00625849
0.00701723
0.00765248
0.00818315
0.00862689
0.00899938
0.00931382
0.00958072
0.00980789
0.0100007
0.0101621
0.0102934
0.0103937
0.0104603
0.0104871
0.0104623
0.0103618
0.0101372
0.000751008
0.00073656
0.000749418
0.000797907
0.00526225
0.00524621
0.00540767
0.00578337
0.00839498
0.00847236
0.00864803
0.00892514
0.0103372
0.0104545
0.0106026
0.0107781
0.0116507
0.0117711
0.0118903
0.0120061
0.012617
0.0127307
0.012826
0.0129014
0.0133704
0.0134737
0.013548
0.013592
0.0139617
0.0140551
0.014113
0.0141342
0.0144158
0.0145054
0.0145563
0.014567
0.0147625
0.0148587
0.014915
0.0149308
0.0150329
0.0151408
0.0152152
0.0152536
0.0152183
0.0153542
0.0154598
0.0155339
0.015291
0.0154603
0.015605
0.0157213
0.0152186
0.0154241
0.0156086
0.0157683
0.0149987
0.0152355
0.0154554
0.0156542
0.0146549
0.0149151
0.0151632
0.0153941
0.0142571
0.0145276
0.0147902
0.0150407
0.0138566
0.0141261
0.0143924
0.0146525
0.0134887
0.0137497
0.0140111
0.0142712
0.0131767
0.0134258
0.0136775
0.013931
0.0129352
0.0131719
0.0134121
0.0136556
0.0127728
0.0129975
0.0132258
0.0134577
0.0126923
0.0129053
0.0131213
0.0133402
0.0126895
0.0128899
0.0130922
0.0132961
0.0127515
0.0129367
0.0131225
0.0133084
0.0128549
0.0130213
0.0131868
0.013351
0.0129676
0.0131113
0.0132529
0.0133916
0.0130538
0.0131718
0.0132865
0.0133969
0.0130811
0.0131718
0.0132582
0.0133392
0.0130274
0.013091
0.0131493
0.0132012
0.012885
0.012923
0.0129547
0.0129795
0.0126607
0.0126755
0.0126832
0.0126835
0.0123727
0.0123673
0.0123541
0.012333
0.0120458
0.0120233
0.0119926
0.0119534
0.0117061
0.0116699
0.0116249
0.0115712
0.0113767
0.0113297
0.0112738
0.0112091
0.0110739
0.0110189
0.010955
0.0108825
0.0108051
0.0107434
0.0106734
0.0105956
0.0105663
0.0104962
0.0104195
0.0103374
0.0103399
0.0102533
0.0101649
0.0100772
0.0100943
0.00996595
0.00985471
0.00976177
0.00981065
0.00953324
0.00939573
0.00932014
0.00376577
0.00633948
0.00799137
0.00896302
0.00949472
0.00971716
0.00970575
0.0095125
0.0091739
0.00872062
0.00816813
0.00751503
0.00674668
0.0058336
0.0046775
0.00342614
0.00257758
0.00198701
0.000355303
0.00710845
0.00853507
0.00954855
0.0101811
0.0105137
0.0106086
0.0105102
0.0102551
0.00987178
0.00937727
0.00879313
0.00811289
0.00731271
0.00636622
0.00523798
0.00403615
0.0030205
0.00203561
0.000354625
0.00945308
0.0101942
0.0107605
0.0111066
0.0112448
0.0112002
0.0110005
0.0106745
0.0102485
0.0097377
0.00915526
0.00849238
0.0077181
0.00680191
0.00572784
0.00454307
0.00336298
0.00212627
0.000360275
0.0110308
0.0113953
0.0116622
0.0117788
0.0117361
0.0115458
0.0112301
0.0108171
0.0103357
0.00980834
0.009242
0.00862434
0.00791837
0.00707881
0.0060828
0.00494155
0.00369073
0.00232923
0.000374251
0.0121297
0.0122723
0.0123258
0.0122494
0.0120333
0.011688
0.0112369
0.0107118
0.0101472
0.00957453
0.00901198
0.00844725
0.00783094
0.00710601
0.00621761
0.00517062
0.0039659
0.00255159
0.000398651
0.012944
0.0129331
0.0128179
0.0125703
0.0121857
0.0116782
0.0110751
0.0104123
0.00973131
0.00907249
0.00846579
0.00791782
0.00739066
0.00679683
0.00606713
0.00516579
0.00409227
0.0026754
0.000428959
0.0135748
0.0134461
0.0131922
0.0127947
0.0122557
0.011593
0.0108367
0.0100253
0.00920397
0.00842006
0.0077143
0.00710716
0.00658557
0.00610216
0.00556115
0.00484917
0.00394864
0.00260775
0.000436618
0.014075
0.0138604
0.0135013
0.0129874
0.0123261
0.0115382
0.0106536
0.00970949
0.00874927
0.00782131
0.00697347
0.00624133
0.00563363
0.005123
0.00464541
0.0041125
0.00338371
0.00224773
0.000411061
0.0144881
0.0142266
0.0138066
0.0132237
0.0124897
0.0116269
0.0106631
0.00963085
0.00856677
0.00751322
0.00651707
0.00562216
0.00485621
0.00421857
0.00367156
0.00314753
0.00254011
0.00161472
0.000315435
0.0148588
0.0145948
0.0141635
0.0135645
0.012814
0.0119341
0.0109497
0.00988765
0.00877774
0.00765372
0.00655557
0.00552717
0.00460604
0.00381163
0.0031331
0.00251717
0.00186994
0.00106896
0.000299869
0.015218
0.0149943
0.0145973
0.014029
0.0133105
0.0124634
0.0115087
0.0104684
0.0093687
0.0082378
0.00710736
0.00601963
0.00502042
0.00414434
0.00339919
0.00274373
0.00207237
0.00124968
0.000358584
0.015559
0.0154134
0.0150914
0.0145906
0.0139382
0.0131596
0.0122681
0.011283
0.0102276
0.00913176
0.00801493
0.00691313
0.00588241
0.00496528
0.00416611
0.00345677
0.00271172
0.00174705
0.00040817
0.0158245
0.0157871
0.0155654
0.0151631
0.0146066
0.0139167
0.0131068
0.0121969
0.0112115
0.0101747
0.00909686
0.00798974
0.00691217
0.00591478
0.00502419
0.00419448
0.00323657
0.00203788
0.00043229
0.015959
0.0160397
0.0159337
0.0156493
0.0152067
0.0146262
0.0139189
0.0131011
0.0122039
0.011249
0.0102383
0.00918101
0.00811397
0.00706753
0.00602785
0.00491571
0.0035831
0.00197203
0.000445097
0.0159316
0.0161344
0.0161519
0.0159905
0.0156688
0.0152017
0.0146019
0.0138924
0.0130985
0.0122348
0.0113063
0.0103149
0.00927684
0.0082013
0.00704825
0.00571255
0.00407047
0.0021332
0.000466817
0.0157487
0.0160639
0.0162022
0.016164
0.0159605
0.0156062
0.0151163
0.0145122
0.013819
0.0130521
0.0122125
0.0112984
0.0103092
0.00922882
0.00800562
0.00653699
0.00470172
0.00249652
0.000485983
0.0154444
0.0158461
0.0160929
0.0161702
0.0160793
0.0158336
0.0154493
0.0149482
0.0143534
0.0136796
0.0129292
0.0120952
0.0111634
0.0101028
0.0088507
0.00730204
0.00532858
0.00287109
0.000501276
0.0150839
0.0155377
0.0158611
0.0160324
0.0160442
0.0159019
0.015619
0.0152157
0.0147141
0.0141287
0.0134617
0.0127035
0.0118313
0.0108022
0.0095439
0.00794868
0.00587689
0.00321078
0.000513365
0.0147114
0.0151913
0.0155644
0.0158046
0.0158983
0.0158448
0.0156536
0.0153416
0.0149273
0.0144238
0.0138331
0.0131436
0.0123258
0.0113295
0.0100757
0.00845342
0.00631304
0.00349067
0.000523009
0.0143662
0.014852
0.0152509
0.0155361
0.0156901
0.0157073
0.0155929
0.0153596
0.0150221
0.0145911
0.0140675
0.0134371
0.0126664
0.011699
0.0104526
0.00881367
0.00662156
0.00367822
0.000531255
0.0140766
0.014553
0.0149586
0.0152673
0.0154603
0.0155289
0.0154742
0.0153047
0.0150314
0.0146619
0.0141945
0.0136124
0.0128793
0.0119366
0.0107013
0.00905765
0.00683379
0.00380383
0.000535194
0.0138588
0.0143155
0.0147128
0.0150264
0.0152382
0.0153381
0.0153246
0.0152025
0.0149787
0.0146575
0.0142339
0.0136887
0.0129844
0.0120626
0.0108416
0.00920419
0.00696924
0.00388762
0.000535205
0.013717
0.0141466
0.0145237
0.0148261
0.0150382
0.0151503
0.0151593
0.0150668
0.0148765
0.0145889
0.014196
0.0136766
0.0129932
0.0120893
0.0108857
0.00926434
0.00703684
0.00393488
0.000531766
0.0136439
0.0140397
0.0143864
0.0146639
0.0148603
0.014967
0.0149805
0.0149004
0.0147274
0.0144588
0.014084
0.0135807
0.012912
0.0120245
0.0108414
0.0092449
0.00704135
0.00394755
0.000525242
0.0136215
0.0139763
0.0142831
0.0145245
0.0146917
0.0147782
0.0147804
0.0146973
0.0145271
0.0142646
0.0138973
0.0134024
0.0127447
0.0118734
0.0107145
0.00915098
0.00698641
0.0039272
0.000515943
0.0136232
0.0139297
0.0141881
0.0143845
0.0145121
0.0145665
0.0145453
0.0144468
0.0142678
0.0140013
0.0136338
0.0131426
0.0124941
0.0116405
0.0105102
0.00898757
0.00687592
0.00387576
0.000504152
0.0136175
0.013869
0.0140726
0.0142172
0.014298
0.0143127
0.0142599
0.0141375
0.0139419
0.013665
0.0132928
0.0128032
0.0121645
0.0113312
0.0102342
0.00876025
0.00671446
0.00379572
0.000490148
0.013573
0.0137649
0.0139097
0.0139987
0.0140292
0.0140003
0.0139114
0.0137609
0.0135446
0.0132542
0.0128757
0.012388
0.0117612
0.0109518
0.00989335
0.00847553
0.00650746
0.00369008
0.000474202
0.0134645
0.0135949
0.0136796
0.0137123
0.0136921
0.013619
0.0134931
0.0133132
0.0130753
0.0127711
0.0123871
0.0119034
0.0112916
0.0105103
0.00949565
0.00814102
0.00626118
0.00356224
0.000456583
0.0132775
0.0133471
0.013373
0.0133512
0.013282
0.0131663
0.0130047
0.0127966
0.0125382
0.0122219
0.0118348
0.0113582
0.0107652
0.0100165
0.00905066
0.00776552
0.00598274
0.00341611
0.000437545
0.0130103
0.013022
0.0129921
0.0129191
0.0128039
0.0126483
0.0124535
0.0122195
0.0119431
0.0116173
0.0112303
0.0107644
0.0101942
0.00948219
0.00856975
0.00735924
0.00568021
0.00325601
0.000417335
0.0126734
0.0126313
0.0125499
0.0124293
0.0122714
0.0120788
0.0118536
0.0115963
0.0113046
0.0109724
0.0105889
0.0101375
0.00959392
0.00892232
0.0080668
0.00693436
0.00536292
0.00308679
0.000396201
0.0122873
0.0121963
0.0120676
0.0119031
0.0117057
0.011479
0.0112259
0.0109478
0.0106436
0.0103081
0.0099313
0.00949768
0.00898401
0.00835579
0.00755937
0.00650611
0.00504218
0.00291405
0.000374454
0.0118774
0.011743
0.0115719
0.0113674
0.0111339
0.0108758
0.0105975
0.0103014
0.00998736
0.0096513
0.00928429
0.00887151
0.00839049
0.00780761
0.00707073
0.00609451
0.00473255
0.00274471
0.000352591
0.0114705
0.0112991
0.0110914
0.0108523
0.0105872
0.0103021
0.0100022
0.00969141
0.00937075
0.00903729
0.00868307
0.00829396
0.00784793
0.00731149
0.00663261
0.00572701
0.0044537
0.00258753
0.000331546
0.0110895
0.0108893
0.0106534
0.0103878
0.010099
0.00979392
0.0094789
0.00915901
0.00883658
0.00850995
0.00817227
0.00781015
0.00740166
0.00691239
0.00628798
0.00544119
0.00423213
0.00245335
0.000313019
0.0107502
0.0105313
0.0102791
0.00999976
0.00970004
0.00938713
0.00906808
0.00874881
0.00843284
0.00811993
0.00780459
0.00747439
0.00710725
0.00666638
0.00609139
0.0052852
0.0041013
0.00235445
0.000299699
0.010456
0.0102308
0.00997801
0.00970285
0.00941097
0.00910881
0.00880312
0.00850005
0.00820398
0.00791601
0.00763232
0.00734179
0.00702209
0.00663248
0.00610168
0.00531268
0.00409938
0.00230481
0.000294933
0.0101945
0.00997688
0.00974276
0.00949394
0.00923349
0.00896589
0.00869653
0.00843091
0.0081735
0.00792645
0.00768758
0.00744744
0.00718377
0.00685129
0.00636393
0.00557276
0.00427032
0.00232648
0.00030196
0.00993471
0.00974153
0.00954763
0.0093488
0.00914433
0.00893603
0.00872726
0.00852201
0.00832406
0.00813579
0.00795633
0.00777819
0.00758074
0.00731711
0.00688908
0.00610829
0.00468574
0.00246843
0.000324436
0.00963115
0.00948692
0.00935625
0.00922837
0.00909963
0.00896977
0.00884021
0.00871313
0.00859093
0.0084754
0.00836636
0.0082589
0.00813752
0.00796344
0.00764517
0.00697256
0.00551693
0.002869
0.000371227
0.00924404
0.00918465
0.0091376
0.00909365
0.00905018
0.00900668
0.00896344
0.00892112
0.0088805
0.00884225
0.0088064
0.00877129
0.00873111
0.00866999
0.00854467
0.00822249
0.00723507
0.00419721
0.000470339
)
;

boundaryField
{
    leftWall
    {
        type            nutkWallFunction;
        Cmu             0.09;
        kappa           0.41;
        E               9.8;
        value           nonuniform List<scalar> 
50
(
3.04284e-06
8.26852e-06
9.68684e-06
1.09145e-05
1.20818e-05
1.4027e-05
1.54202e-05
1.54083e-05
1.63644e-05
1.76677e-05
1.88429e-05
1.96925e-05
2.01798e-05
2.04046e-05
2.0633e-05
1.8314e-05
1.80191e-05
1.71529e-05
1.60792e-05
1.51835e-05
1.47708e-05
1.48257e-05
1.51691e-05
1.56123e-05
1.60542e-05
1.64476e-05
1.67767e-05
1.70407e-05
1.72461e-05
1.74021e-05
1.75175e-05
1.75995e-05
1.76538e-05
1.7685e-05
1.76974e-05
1.76952e-05
1.76829e-05
1.76658e-05
1.76508e-05
1.76461e-05
1.76626e-05
1.77138e-05
1.78161e-05
1.79885e-05
1.82498e-05
1.86142e-05
1.90852e-05
1.96504e-05
2.02521e-05
2.07743e-05
)
;
    }
    rightWall
    {
        type            nutkWallFunction;
        Cmu             0.09;
        kappa           0.41;
        E               9.8;
        value           nonuniform List<scalar> 
50
(
1.03849e-05
2.69893e-05
2.86237e-05
3.00126e-05
3.11344e-05
3.18341e-05
3.21947e-05
3.23026e-05
3.22051e-05
3.2015e-05
3.27133e-05
3.36409e-05
3.54389e-05
4.43236e-05
4.58014e-05
4.39644e-05
3.52847e-05
3.27705e-05
3.90425e-05
4.87821e-05
5.30958e-05
5.45392e-05
5.62715e-05
5.87204e-05
6.0716e-05
6.22926e-05
6.35533e-05
6.46243e-05
6.51839e-05
6.52246e-05
6.48074e-05
6.39846e-05
6.27978e-05
6.12841e-05
5.94787e-05
5.74145e-05
5.51232e-05
5.26388e-05
4.99865e-05
4.71932e-05
4.42927e-05
4.13434e-05
3.84635e-05
3.58821e-05
3.39797e-05
3.32462e-05
3.4149e-05
3.71586e-05
4.33555e-05
5.61215e-05
)
;
    }
    lowerWall
    {
        type            nutkWallFunction;
        Cmu             0.09;
        kappa           0.41;
        E               9.8;
        value           nonuniform List<scalar> 
62
(
3.04284e-06
4.42298e-06
5.29444e-06
5.88248e-06
6.32115e-06
6.68829e-06
7.03878e-06
7.41213e-06
7.83524e-06
8.32713e-06
8.88412e-06
9.46228e-06
1.00327e-05
1.05855e-05
1.11203e-05
1.16311e-05
1.20946e-05
1.24544e-05
1.2606e-05
1.23736e-05
1.14766e-05
9.35384e-06
4.60821e-06
4.60821e-06
1.58175e-05
2.04102e-05
2.49746e-05
3.02384e-05
3.6802e-05
4.8537e-05
6.82696e-05
7.0268e-05
6.8668e-05
7.00889e-05
7.70116e-05
1.35012e-05
3.54399e-05
3.95479e-05
4.61948e-05
5.42885e-05
6.52369e-05
7.77454e-05
8.7626e-05
1.35012e-05
1.89969e-05
2.18846e-05
2.24145e-05
2.18577e-05
2.16661e-05
2.14897e-05
2.09997e-05
1.99493e-05
1.8448e-05
1.74407e-05
1.66628e-05
1.60682e-05
1.52189e-05
1.38327e-05
1.14004e-05
9.65988e-06
9.67674e-06
1.03849e-05
)
;
    }
    atmosphere
    {
        type            calculated;
        value           nonuniform List<scalar> 
46
(
0.00020476
0.00160528
0.00304722
0.00429314
0.00535693
0.00625849
0.00701723
0.00765248
0.00818315
0.00862689
0.00899938
0.00931382
0.00958072
0.00980789
0.0100007
0.0101621
0.0102934
0.0103937
0.0104603
0.0104871
0.0104623
0.0103618
0.0101372
0.00981065
0.009
0.009
0.009
0.009
0.009
0.009
0.009
0.009
0.009
0.009
0.009
0.009
0.009
0.009
0.009
0.009
0.009
0.009
0.009
0.009
0.009
0.009
)
;
    }
    defaultFaces
    {
        type            empty;
    }
}


// ************************************************************************* //
