/*--------------------------------*- C++ -*----------------------------------*\
  =========                 |
  \\      /  F ield         | OpenFOAM: The Open Source CFD Toolbox
   \\    /   O peration     | Website:  https://openfoam.org
    \\  /    A nd           | Version:  13
     \\/     M anipulation  |
\*---------------------------------------------------------------------------*/
FoamFile
{
    format      ascii;
    class       volScalarField;
    location    "0.85";
    object      p;
}
// * * * * * * * * * * * * * * * * * * * * * * * * * * * * * * * * * * * * * //

dimensions      [1 -1 -2 0 0 0 0];

internalField   nonuniform List<scalar> 
2268
(
5209.97
5172.62
5208.82
5292.86
5401.84
5517.3
5629.22
5732.91
5826.36
5909.5
5980.3
6034.82
6069.25
6082.35
6075.03
6048.71
6003.97
5940
5855.91
5753.33
5639.31
5540.05
5471.07
4409.61
4380.49
4425.14
4515.75
4627.1
4741.21
4849.09
4946.81
5032.64
5106.54
5167.25
5210.84
5234.59
5237.74
5221.14
5186.21
5134.21
5065.82
4982.35
4887.62
4790.03
4717.39
4663.38
3573.92
3563.95
3626.11
3731.18
3849.57
3964.27
4068.81
4160.46
4237.92
4302
4352.1
4384.6
4397.63
4391.09
4366.13
4324.32
4267.62
4197.9
4118.3
4034.15
3953.07
3898.87
3849.05
2690.03
2700.62
2798.66
2931.7
3064.96
3183.94
3287.32
3374.57
3444.79
3500.57
3542.43
3566.45
3571
3556.73
3525.58
3479.38
3420.5
3351.26
3275.61
3198.8
3126.24
3078.14
3026.16
1763.91
1786.4
1922.26
2107.1
2271.75
2401.92
2507.69
2593.05
2657.26
2705.75
2741.35
2759.05
2756.79
2736.14
2700.14
2650.6
2590.07
2520.92
2447.48
2373.99
2303
2258.23
2198.8
1175.34
1170.1
1224.44
1338.3
1473.74
1612.14
1731.84
1822.48
1882.38
1923.63
1954.46
1967.58
1959.9
1934.53
1895.8
1844.9
1784.41
1716.48
1645.76
1575.48
1506.22
1471.88
1398.4
1002.51
982.314
956.775
936.953
954.557
1009.09
1068.52
1121.26
1160.59
1197.21
1230.38
1244.49
1239.08
1221.52
1196.86
1163.25
1122.34
1076.96
1032.51
994.515
967.7
970.015
904.231
924.552
904.096
874.866
840.758
806.783
773.856
749.635
744.551
754.635
774.667
797.134
811.944
819.32
822.663
822.914
817.647
807.068
793.531
781.025
776.137
785.54
809.716
758.589
1340.77
1368.77
1447.05
1626.98
1760.18
1744.28
1724.78
1752.06
1859.58
2073.38
2321
2598.45
2922.57
3296.16
3653.37
3959.77
3873.93
4172.93
5215.08
1277.61
1288.35
1357.5
1379.86
1428.02
1442.11
1468.11
1494.86
1511.72
1592.02
1770.88
2072.79
2484.2
2892.35
3330.19
3760.94
3643.59
3691.12
4575.87
1225.66
1213.06
1222.94
1108.22
1076.18
1074.97
1094.64
1106.97
1100.64
1127.72
1234.82
1444.54
1793.77
2241.13
2798.62
3381.91
3401.08
3337.07
4000.55
1157.91
1106.76
1035.75
945.824
920.211
908.073
908.993
923.949
943.445
968.46
1022.13
1113.1
1290.48
1636.24
2201.99
2822.82
3109.84
3094.59
3482.79
998.528
951.322
901.158
877.182
863.429
855.419
857.133
867.895
883.36
907.487
952.78
1017.73
1129.91
1326.54
1702.23
2235.08
2804.5
2937.54
3010.6
843.726
838.686
822.891
810.059
796.952
791.021
793.591
804.574
822.368
850.244
896.363
960.045
1058.97
1167.8
1364.19
1830.89
2493.94
2745.72
2582.48
763.58
762.055
751.535
743.138
732.972
729.011
731.706
741.913
760.036
789.188
835.862
899.606
990.769
1044.39
1172.92
1590.54
2191.78
2389.47
2229.41
720.09
703.643
696.652
691.504
685.352
682.305
683.501
690.538
704.659
728.772
768.797
829.017
912.331
943.807
1041.22
1466.35
1937.84
1979.19
1932.84
807.509
793.54
769.43
738.094
705.824
678.948
659.397
647.158
642.42
642.223
648.489
661.079
676.793
691.796
703.407
710.905
714.53
715.164
714.224
713.133
713.81
710.194
679.732
653.896
645.822
630.097
608.005
582.743
560.056
541.36
528.811
523.757
527.649
538.048
553.159
569.753
584.437
593.941
597.413
596.045
591.297
586.852
583.839
579.378
574.383
575.571
508.721
502.419
490.785
473.792
454.138
434.922
418.818
408.034
404.5
409.116
420.775
437.648
456.553
474.267
483.864
484.706
479.341
469.116
460.491
466.479
493.857
518.536
526.536
370.593
364.719
354.305
339.254
322.008
305.03
290.769
281.457
278.892
284.279
298.725
322.394
350.664
370.873
379.402
376.163
365.486
364.867
381.5
409.739
434.455
456.705
448.905
238.956
232.759
221.648
206.184
188.979
172.027
157.085
145.424
137.539
135.383
141.9
160.952
191.27
222.854
256.341
283.907
293.215
306.175
327.312
348.616
355.931
356.794
358.464
113.87
106.823
95.6329
81.8554
68.4075
56.3149
46.0903
37.8064
30.5415
25.4062
23.8284
27.6254
39.4163
68.9859
134.16
186.336
211.17
228.397
245.802
256.481
267.26
272.924
275.388
30.2111
25.4835
20.2355
14.8666
10.7293
7.89439
6.20241
5.51657
5.68212
6.04669
6.54847
7.40007
9.78269
16.7865
39.3298
76.7012
113.6
142.989
162.667
172.103
180.293
186.695
190.396
4.88005
4.6442
4.77581
4.82212
4.90825
5.05217
5.16275
5.19556
5.23537
5.3323
5.48667
5.76045
6.27644
6.49909
6.52084
26.8307
57.0824
75.4275
86.7497
89.8573
93.346
99.4577
103.996
4.72445
4.69182
4.70113
4.72232
4.76317
4.82558
4.9024
4.98549
5.06939
5.18437
5.33731
5.49382
5.53878
5.08524
4.70884
6.42845
16.4122
22.5598
25.6131
22.3094
21.1443
26.872
30.3862
4.55666
4.53453
4.54184
4.56167
4.59826
4.64988
4.71352
4.78406
4.8589
4.94691
5.04435
5.1117
5.0362
4.66187
4.17891
4.34718
4.56179
3.36379
3.13841
2.70364
2.78318
4.07676
4.63679
4.39855
4.38961
4.39478
4.4115
4.44186
4.48344
4.53157
4.58157
4.63035
4.67728
4.71125
4.69885
4.58215
4.28978
3.8809
3.55153
3.34695
3.18442
3.01168
2.88769
2.97982
2.99819
2.78004
4.2508
4.24861
4.25321
4.2658
4.28764
4.31692
4.34995
4.38225
4.40948
4.42668
4.42191
4.37087
4.24225
4.01903
3.71936
3.45384
3.23721
3.06096
2.92702
2.86897
2.89095
2.9159
2.89473
4.10302
4.10374
4.10776
4.11669
4.13112
4.14988
4.17044
4.18892
4.20048
4.19919
4.17521
4.11253
3.9943
3.81694
3.59663
3.38539
3.20215
3.0347
2.91141
2.84642
2.82977
2.82995
2.82919
3.95421
3.95599
3.95921
3.96515
3.97385
3.9844
3.99498
4.00247
4.00254
3.98972
3.95652
3.89314
3.79137
3.64808
3.47271
3.29831
3.14253
3.00266
2.89465
2.82469
2.78655
2.76786
2.75868
3.80451
3.80629
3.80857
3.81202
3.81634
3.82069
3.82367
3.82289
3.81486
3.79508
3.75828
3.69897
3.61226
3.49503
3.35346
3.20721
3.07236
2.95448
2.85837
2.78575
2.73681
2.70861
2.69338
3.65397
3.6554
3.6567
3.6581
3.65913
3.65902
3.65655
3.64997
3.63665
3.61337
3.5765
3.52258
3.4481
3.35159
3.23706
3.1159
2.99981
2.89559
2.80726
2.73509
2.6812
2.64579
2.62517
3.50305
3.50405
3.5045
3.50431
3.50298
3.49977
3.49367
3.48338
3.46707
3.4425
3.40712
3.3585
3.29449
3.2145
3.12113
3.02111
2.9222
2.83019
2.74888
2.67992
2.62532
2.58631
2.56017
3.35234
3.35296
3.35276
3.35141
3.34846
3.34326
3.33496
3.32256
3.30481
3.28019
3.24697
3.2035
3.1485
3.08173
3.00491
2.92213
2.83853
2.75855
2.6856
2.6218
2.56902
2.52826
2.4978
3.20237
3.20269
3.20202
3.19991
3.19593
3.18955
3.18007
3.16671
3.1486
3.12473
3.09401
3.05537
3.00806
2.952
2.88832
2.81957
2.74918
2.68045
2.61616
2.55841
2.50878
2.46817
2.4358
3.0535
3.05363
3.05266
3.05008
3.04551
3.03855
3.02862
3.01509
2.99735
2.97476
2.94666
2.91243
2.87166
2.82435
2.77126
2.71402
2.65489
2.59627
2.54033
2.48887
2.44331
2.40447
2.37223
2.90599
2.90599
2.90486
2.90205
2.89723
2.89009
2.88019
2.86703
2.85016
2.82916
2.80368
2.77341
2.73818
2.69807
2.6536
2.60582
2.55624
2.50654
2.45838
2.4132
2.37222
2.33626
2.30553
2.75998
2.7599
2.75872
2.75584
2.751
2.74397
2.73442
2.72196
2.70625
2.68701
2.66407
2.63734
2.60682
2.57264
2.53519
2.4952
2.45365
2.41172
2.37062
2.33147
2.29526
2.26279
2.23442
2.61551
2.61541
2.61424
2.61141
2.6067
2.59997
2.59096
2.57939
2.56499
2.54758
2.52707
2.5035
2.47697
2.44769
2.41599
2.38237
2.34752
2.31223
2.27738
2.2438
2.21228
2.18353
2.15797
2.47259
2.47248
2.47136
2.46867
2.46421
2.45787
2.44951
2.43891
2.42587
2.41026
2.39205
2.37131
2.34821
2.323
2.296
2.26759
2.23825
2.20856
2.17911
2.15051
2.12337
2.0983
2.07567
2.33116
2.33106
2.33003
2.32751
2.32335
2.31748
2.30981
2.30019
2.28849
2.2746
2.25852
2.24034
2.22023
2.19845
2.17531
2.15115
2.12633
2.10127
2.07639
2.05213
2.02892
2.00729
1.98754
2.19116
2.19107
2.19013
2.18781
2.18398
2.1786
2.17163
2.16297
2.15253
2.14026
2.12614
2.11025
2.09277
2.07394
2.05403
2.03336
2.01224
1.99099
1.96992
1.94934
1.92957
1.91104
1.89397
2.05248
2.0524
2.05156
2.04945
2.04596
2.04108
2.03479
2.02703
2.01777
2.00696
1.99462
1.9808
1.96565
1.94937
1.93222
1.91448
1.89642
1.87831
1.8604
1.84291
1.82609
1.81027
1.79561
1.91503
1.91497
1.91421
1.9123
1.90915
1.90475
1.89911
1.8922
1.88401
1.87453
1.86377
1.85179
1.8387
1.82468
1.80993
1.79469
1.77922
1.76373
1.74845
1.73355
1.71923
1.70574
1.69319
1.77869
1.77865
1.77797
1.77626
1.77342
1.76949
1.76446
1.75833
1.75111
1.74281
1.73346
1.7231
1.71184
1.6998
1.68715
1.6741
1.66085
1.64761
1.63456
1.62186
1.60965
1.59815
1.58743
1.64337
1.64334
1.64273
1.6412
1.63867
1.63516
1.6307
1.62529
1.61895
1.6117
1.60359
1.59466
1.58499
1.5747
1.5639
1.55277
1.54148
1.53019
1.51907
1.50825
1.49786
1.48807
1.47893
1.50896
1.50893
1.50839
1.50702
1.50477
1.50167
1.49773
1.49297
1.48743
1.48112
1.4741
1.46642
1.45814
1.44937
1.4402
1.43076
1.42118
1.41161
1.40218
1.39301
1.3842
1.3759
1.36814
1.37536
1.37533
1.37485
1.37363
1.37164
1.36891
1.36545
1.36129
1.35646
1.35099
1.34493
1.33834
1.33128
1.32383
1.31607
1.30811
1.30005
1.29199
1.28405
1.27633
1.26891
1.26191
1.25536
1.24247
1.24245
1.24201
1.24093
1.23918
1.23678
1.23376
1.23015
1.22596
1.22125
1.21605
1.21042
1.20442
1.19811
1.19158
1.1849
1.17816
1.17143
1.16481
1.15836
1.15217
1.14632
1.14083
1.1102
1.11018
1.10978
1.10882
1.10729
1.10521
1.1026
1.09947
1.09588
1.09184
1.0874
1.08262
1.07755
1.07225
1.06678
1.06122
1.05562
1.05005
1.04457
1.03925
1.03414
1.02931
1.02476
0.978463
0.978454
0.978084
0.977238
0.975907
0.97411
0.971868
0.969201
0.966138
0.962712
0.958964
0.95494
0.95069
0.946268
0.941729
0.937128
0.932517
0.92795
0.923473
0.919131
0.914965
0.911027
0.907314
0.847187
0.847175
0.84683
0.846087
0.844942
0.843413
0.841514
0.839266
0.836692
0.833825
0.830699
0.827355
0.823837
0.820192
0.816466
0.812705
0.808955
0.805255
0.801643
0.798151
0.794808
0.791651
0.788671
0.716291
0.716267
0.715941
0.715296
0.714328
0.713049
0.71147
0.70961
0.707489
0.705135
0.702577
0.699849
0.69699
0.694038
0.691032
0.688011
0.685012
0.682066
0.679205
0.67645
0.673822
0.671344
0.669005
0.585706
0.585653
0.585344
0.584794
0.583997
0.582956
0.58168
0.580184
0.578485
0.576606
0.574572
0.572409
0.570148
0.567821
0.56546
0.563097
0.56076
0.558478
0.556272
0.554161
0.552157
0.550273
0.548495
0.455361
0.455261
0.454969
0.454519
0.45389
0.453079
0.452092
0.450942
0.449642
0.448209
0.446663
0.445023
0.443312
0.441556
0.43978
0.438008
0.436264
0.43457
0.432945
0.431404
0.429953
0.428598
0.427322
0.325199
0.325022
0.324758
0.324416
0.323955
0.32337
0.322665
0.321848
0.32093
0.319921
0.318833
0.317683
0.316484
0.315254
0.314011
0.312775
0.311563
0.310395
0.309288
0.308256
0.30731
0.306454
0.305675
0.195159
0.194897
0.194678
0.194452
0.194159
0.193796
0.193366
0.192874
0.192323
0.19172
0.191071
0.190381
0.189658
0.188913
0.188156
0.187399
0.186658
0.185948
0.185292
0.184713
0.184242
0.183923
0.183814
0.0651844
0.064933
0.064807
0.0647029
0.0645835
0.0644461
0.0642921
0.0641211
0.0639323
0.0637251
0.0634993
0.063255
0.0629929
0.0627146
0.0624229
0.0621232
0.0618239
0.0615367
0.0612848
0.0610994
0.0610324
0.0611822
0.0618108
744.371
768.19
778.429
763.139
576.293
576.7
576.464
577.52
528.666
523.908
513.769
503.395
435.895
431.846
429.981
428.282
356.575
355.637
355.03
355.139
275.85
276.419
277.353
279.353
192.937
195.496
198.589
202.493
108.133
113.63
120.229
125.786
28.352
32.1713
42.328
50.1205
3.08184
3.72157
5.9661
9.25062
2.82011
2.88989
3.00889
3.18069
2.9223
2.93058
2.94292
2.96404
2.82594
2.83087
2.84034
2.85044
2.75353
2.75072
2.7531
2.75739
2.68705
2.68237
2.67812
2.67515
2.61476
2.60846
2.60247
2.59736
2.54565
2.53727
2.52921
2.52305
2.48039
2.47033
2.46053
2.45278
2.41654
2.40512
2.39409
2.38497
2.3521
2.33981
2.32807
2.31808
2.28529
2.27255
2.26061
2.25017
2.2147
2.20194
2.19014
2.1797
2.13923
2.12681
2.11549
2.10535
2.05825
2.04646
2.03581
2.02626
1.97163
1.96069
1.9509
1.94209
1.87969
1.86973
1.86087
1.8529
1.78297
1.77406
1.76617
1.75907
1.68213
1.67428
1.66732
1.66109
1.57786
1.57104
1.56497
1.55956
1.47073
1.46487
1.45963
1.45496
1.36118
1.35621
1.35172
1.34772
1.24952
1.24535
1.24154
1.23814
1.136
1.13254
1.12934
1.12647
1.02081
1.01799
1.01533
1.01294
0.904138
0.901865
0.899686
0.897696
0.786156
0.784353
0.782592
0.78095
0.667053
0.665645
0.664231
0.662912
0.547016
0.545938
0.544842
0.54382
0.426259
0.425465
0.42464
0.423871
0.305011
0.304463
0.303851
0.30327
0.183764
0.183383
0.18273
0.182194
0.0629741
0.0630685
0.0620567
0.0612787
674.365
654.005
640.757
634.856
632.218
630.082
630.326
634.632
644.116
660.624
686.353
725.225
783.779
819.986
881.712
1199.16
1449.27
1478.48
1513.68
572.983
572.573
564.462
560.904
560.592
560.537
561.655
565.122
571.477
581.767
595.968
612.089
633.176
654.637
681.462
783.502
845.52
905.784
984.813
493.954
493.056
491.447
490.977
491.571
492.408
493.976
496.836
501.256
507.859
515.946
522.331
521.407
512.974
501.959
480.414
456.951
470.551
549.863
424.68
423.414
423.133
423.785
425.043
426.532
428.401
430.86
433.924
437.507
440.813
441.09
433.167
409.908
374.162
324.656
280.478
253.054
303.38
354.656
354.515
355.546
357.363
359.564
361.876
364.281
366.776
369.169
370.998
371.425
368.075
356.957
332.885
291.935
238.808
197.862
164.748
152.43
282.063
284.399
287.364
290.649
294.024
297.375
300.657
303.727
306.252
307.602
306.835
302.271
291.022
269.187
234.422
189.005
146.168
100.006
81.7338
207.792
212.75
217.763
222.6
227.291
231.928
236.465
240.673
244.035
245.8
245.08
240.759
231.201
213.83
186.36
150.186
112.716
84.6228
87.8083
132.15
138.895
145.705
152.014
158.239
164.454
170.644
176.441
181.163
183.916
183.906
180.32
172.616
160.492
142.339
116.046
87.6826
71.3511
76.119
57.6284
65.1923
73.3862
80.5832
87.7323
95.1234
102.639
109.778
115.736
119.597
120.588
118.098
112.02
103.576
93.0314
79.3533
65.9424
57.9561
60.5638
12.7824
15.6769
19.4122
23.1803
28.2749
33.8592
40.3899
46.987
52.0638
55.4905
56.9583
55.7145
51.7886
46.631
41.625
37.6319
36.3239
35.4496
34.2716
3.20486
2.94045
2.89327
3.27204
5.19725
7.3701
9.9702
12.3704
13.4946
14.3425
15.0485
15.8627
15.1079
14.3831
12.9382
11.7623
11.2036
10.7811
9.18997
2.98454
2.9651
2.96781
3.00418
2.94728
2.86078
2.73479
2.69802
2.69115
2.9973
3.23875
3.379
2.97897
3.0338
3.42139
4.01803
4.43779
4.56421
4.13921
2.86634
2.88459
2.90113
2.94426
3.00203
3.05756
3.09268
3.10473
3.11768
3.09802
3.14733
3.30854
3.49412
3.59192
3.81988
4.21405
4.43478
4.30019
4.03864
2.76854
2.78866
2.82363
2.8555
2.90239
2.94337
2.98854
3.02279
3.08421
3.16255
3.24777
3.32941
3.37427
3.42906
3.52855
3.66514
3.77189
3.77448
3.68236
2.67861
2.69715
2.72695
2.76418
2.79908
2.83307
2.86501
2.90998
2.94681
3.01163
3.08579
3.1614
3.22176
3.28392
3.3263
3.3486
3.40426
3.45794
3.45512
2.59559
2.60905
2.63413
2.66543
2.69815
2.73031
2.75997
2.79031
2.82972
2.87426
2.93498
3.00701
3.07295
3.13004
3.18099
3.22898
3.27189
3.29686
3.28698
2.51813
2.52519
2.54395
2.56977
2.59874
2.62893
2.65842
2.68843
2.72162
2.76178
2.81268
2.87112
2.92896
2.98123
3.02709
3.06632
3.10004
3.11947
3.12055
2.44502
2.44645
2.45851
2.478
2.50209
2.52885
2.55671
2.58602
2.61825
2.65491
2.69804
2.74567
2.7931
2.83696
2.87575
2.90948
2.9379
2.95683
2.9674
2.37472
2.37181
2.3785
2.39224
2.41102
2.4333
2.45783
2.48466
2.51419
2.54694
2.58373
2.62334
2.66329
2.70062
2.73462
2.76484
2.79133
2.81109
2.82969
2.30577
2.29962
2.30226
2.31114
2.32505
2.34289
2.36371
2.38713
2.41313
2.44181
2.47338
2.50701
2.541
2.57364
2.6041
2.63215
2.65808
2.68098
2.7049
2.23659
2.22834
2.22783
2.2328
2.24261
2.25646
2.2736
2.29352
2.31599
2.34088
2.3681
2.39699
2.42646
2.45539
2.48317
2.50975
2.53593
2.56212
2.59125
2.16575
2.15616
2.15316
2.15524
2.16179
2.17227
2.1861
2.20279
2.22203
2.24356
2.26713
2.29224
2.31815
2.34413
2.3698
2.39532
2.42201
2.45117
2.48459
2.09167
2.08146
2.07675
2.07673
2.0808
2.08857
2.09961
2.11351
2.12991
2.14853
2.16907
2.19112
2.21417
2.23778
2.26173
2.28637
2.31341
2.34482
2.38121
2.01335
2.00317
1.99742
1.99593
1.99818
2.00386
2.01266
2.02422
2.03823
2.05439
2.07241
2.09195
2.11267
2.13429
2.15673
2.18047
2.20752
2.24025
2.27823
1.93026
1.9206
1.91439
1.91194
1.91292
1.91704
1.92407
1.93374
1.94576
1.95986
1.97577
1.99324
2.01199
2.03187
2.0529
2.07562
2.1022
2.13524
2.17349
1.84232
1.83347
1.82723
1.82427
1.8244
1.8274
1.83307
1.84121
1.85158
1.86395
1.87808
1.89376
1.9108
1.92909
1.9487
1.97021
1.99585
2.02826
2.06557
1.74977
1.74187
1.73592
1.73276
1.73236
1.73456
1.73919
1.7461
1.75509
1.76598
1.77856
1.79267
1.80814
1.82491
1.84306
1.86317
1.88739
1.91831
1.95375
1.65304
1.64611
1.64065
1.63751
1.6368
1.63842
1.64224
1.64812
1.65594
1.66553
1.67673
1.68939
1.70339
1.71866
1.73529
1.75382
1.77625
1.805
1.83781
1.55263
1.54664
1.54167
1.5387
1.53786
1.53906
1.54222
1.54724
1.55401
1.56243
1.57236
1.58366
1.59623
1.61
1.62506
1.64186
1.66224
1.68836
1.71803
1.44903
1.44385
1.43945
1.43668
1.43578
1.43666
1.43926
1.44352
1.44936
1.45669
1.46541
1.4754
1.48657
1.49885
1.51229
1.5273
1.54545
1.56865
1.59489
1.34265
1.33816
1.33427
1.33176
1.33085
1.33148
1.33358
1.33715
1.34212
1.34843
1.35599
1.36472
1.37451
1.3853
1.39713
1.4103
1.42616
1.4463
1.46899
1.23383
1.22988
1.22645
1.22424
1.22336
1.22377
1.22544
1.22837
1.23253
1.23787
1.24434
1.25183
1.26028
1.26961
1.27983
1.29119
1.30478
1.3219
1.34103
1.12278
1.11932
1.11636
1.11443
1.11359
1.11381
1.11509
1.11743
1.12084
1.12528
1.13069
1.13702
1.14417
1.15208
1.16075
1.17037
1.1818
1.19602
1.21175
1.00976
1.00675
1.00426
1.0026
1.0018
1.00186
1.00279
1.00461
1.00732
1.01091
1.01535
1.02057
1.02649
1.03305
1.04024
1.04822
1.05766
1.06926
1.08183
0.894988
0.89245
0.89039
0.888977
0.88823
0.888155
0.888775
0.890117
0.892201
0.895024
0.89856
0.902754
0.907532
0.912831
0.918643
0.925116
0.932786
0.942049
0.951827
0.778695
0.776627
0.774954
0.773761
0.773064
0.772876
0.773227
0.774151
0.775676
0.777811
0.780537
0.783805
0.787544
0.791693
0.796248
0.801357
0.807461
0.814693
0.82216
0.66111
0.659464
0.658121
0.657115
0.65646
0.656175
0.656294
0.656854
0.657892
0.659421
0.661432
0.66388
0.666698
0.669825
0.67326
0.677149
0.68185
0.687288
0.693076
0.542417
0.541126
0.540047
0.539186
0.538557
0.538182
0.538098
0.538345
0.538961
0.539965
0.541352
0.543084
0.5451
0.547342
0.5498
0.552602
0.556013
0.559804
0.564622
0.4228
0.421784
0.420896
0.42013
0.419502
0.419038
0.418774
0.418749
0.419001
0.41955
0.420393
0.421503
0.422829
0.424315
0.425942
0.427788
0.429992
0.432161
0.436548
0.302437
0.301607
0.300837
0.300119
0.299471
0.298916
0.298488
0.298226
0.29816
0.29831
0.298677
0.299243
0.299973
0.300823
0.301768
0.302785
0.303729
0.304009
0.308268
0.181506
0.180775
0.180071
0.179375
0.178694
0.178053
0.177479
0.177004
0.176654
0.176446
0.176383
0.176454
0.176643
0.176927
0.177282
0.177517
0.176604
0.173326
0.180219
0.0604675
0.0597876
0.0591578
0.0584954
0.0577982
0.057085
0.0563813
0.055711
0.0550905
0.0545264
0.054016
0.0535514
0.0531224
0.0527123
0.0522798
0.0515252
0.0483559
0.037169
0.0593881
)
;

boundaryField
{
    leftWall
    {
        type            calculated;
        value           nonuniform List<scalar> 
50
(
5209.97
4409.61
3573.92
2690.03
1763.91
1175.34
1002.51
924.552
807.509
653.896
508.721
370.593
238.956
113.87
30.2111
4.88005
4.72445
4.55666
4.39855
4.2508
4.10302
3.95421
3.80451
3.65397
3.50305
3.35234
3.20237
3.0535
2.90599
2.75998
2.61551
2.47259
2.33116
2.19116
2.05248
1.91503
1.77869
1.64337
1.50896
1.37536
1.24247
1.1102
0.978463
0.847187
0.716291
0.585706
0.455361
0.325199
0.195159
0.0651844
)
;
    }
    rightWall
    {
        type            calculated;
        value           nonuniform List<scalar> 
50
(
5215.08
4575.87
4000.55
3482.79
3010.6
2582.48
2229.41
1932.84
1513.68
984.813
549.863
303.38
152.43
81.7338
87.8083
76.119
60.5638
34.2716
9.18997
4.13921
4.03864
3.68236
3.45512
3.28698
3.12055
2.9674
2.82969
2.7049
2.59125
2.48459
2.38121
2.27823
2.17349
2.06557
1.95375
1.83781
1.71803
1.59489
1.46899
1.34103
1.21175
1.08183
0.951827
0.82216
0.693076
0.564622
0.436548
0.308268
0.180219
0.0593881
)
;
    }
    lowerWall
    {
        type            calculated;
        value           nonuniform List<scalar> 
62
(
5608.12
5570.77
5606.97
5691.01
5799.99
5915.45
6027.37
6131.06
6224.51
6307.65
6378.45
6432.97
6467.4
6480.5
6473.18
6446.86
6402.12
6338.15
6254.06
6151.48
6037.39
5937.99
5869.01
5471.07
4663.38
3849.05
3026.16
2198.8
1398.4
904.231
758.589
927.566
945.522
936.869
843.408
1340.77
1277.61
1225.66
1157.91
998.528
843.726
763.58
720.09
1371.41
1397.18
1476.47
1678.05
1826.46
1800.91
1768.81
1795.33
1925.88
2231.42
2539.58
2799.99
3060.73
3422.8
3764.03
4055.99
3980.58
4316.78
5420.9
)
;
    }
    atmosphere
    {
        type            calculated;
        value           nonuniform List<scalar> 
46
(
0
0
0
0
0
0
0
0
0
0
0
0
0
0
0
0
0
0
0
0
0
0
0
0
-1.25803e-05
-4.92554e-05
-0.000114508
-0.000289303
-0.000664145
-0.00117271
-0.0017897
-0.00248504
-0.00322717
-0.00398793
-0.00474758
-0.00549853
-0.00624583
-0.00700345
-0.00778652
-0.00860264
-0.00944756
-0.0103122
-0.0112075
-0.0122142
-0.0137058
-0.00578143
)
;
    }
    defaultFaces
    {
        type            empty;
    }
}


// ************************************************************************* //
