/*--------------------------------*- C++ -*----------------------------------*\
  =========                 |
  \\      /  F ield         | OpenFOAM: The Open Source CFD Toolbox
   \\    /   O peration     | Website:  https://openfoam.org
    \\  /    A nd           | Version:  13
     \\/     M anipulation  |
\*---------------------------------------------------------------------------*/
FoamFile
{
    format      ascii;
    class       volScalarField;
    location    "0.85";
    object      p_rgh;
}
// * * * * * * * * * * * * * * * * * * * * * * * * * * * * * * * * * * * * * //

dimensions      [1 -1 -2 0 0 0 0];

internalField   nonuniform List<scalar> 
2268
(
5608.12
5570.77
5606.97
5691.01
5799.99
5915.45
6027.37
6131.06
6224.51
6307.65
6378.45
6432.97
6467.4
6480.5
6473.18
6446.86
6402.12
6338.15
6254.06
6151.48
6037.39
5937.99
5869.01
5604.06
5574.94
5619.59
5710.2
5821.55
5935.65
6043.54
6141.26
6227.09
6300.99
6361.7
6405.29
6429.04
6432.19
6415.59
6380.66
6328.66
6260.27
6176.8
6082.07
5984.46
5911.59
5857.25
5564.67
5554.7
5616.86
5721.93
5840.32
5955.02
6059.56
6151.21
6228.67
6292.75
6342.85
6375.35
6388.38
6381.84
6356.87
6315.07
6258.37
6188.65
6109.05
6024.89
5943.82
5889.62
5839.8
5477.08
5487.66
5585.71
5718.75
5852.01
5970.99
6074.37
6161.62
6231.84
6287.62
6329.48
6353.5
6358.05
6343.78
6312.63
6266.43
6207.55
6138.31
6062.65
5985.85
5913.29
5865.19
5813.2
5031.29
5142.87
5505.61
5690.45
5855.1
5985.27
6091.04
6176.4
6240.61
6289.09
6324.69
6342.4
6340.14
6319.49
6283.49
6233.95
6173.42
6104.27
6030.83
5957.34
5886.34
5841.56
5782.09
2255.52
2371.76
3256.59
4662.53
5655.38
5991.79
6111.49
6202.13
6262.03
6303.28
6334.11
6347.23
6339.55
6314.18
6275.45
6224.54
6164.06
6096.13
6025.39
5952.59
5851.86
5740.6
5601.5
1385.09
1364.9
1339.36
1530.44
2304.79
3550.34
4751.9
5565.55
5907.14
5970.34
5993.77
6004.84
5956.03
5832
5645.57
5413.86
5148.09
4826.12
4451.02
4003.1
3401.35
2900.31
2550.85
1365.99
1345.54
1316.31
1282.2
1248.22
1218.66
1335.88
1579.29
1839.62
2199.46
2529.32
2614.55
2522.86
2369.79
2219.41
2028.15
1809.37
1579.86
1377.12
1217.58
1226.98
1251.15
1204.32
1371.41
1397.18
1476.47
1678.05
1826.46
1800.91
1768.81
1795.33
1925.88
2231.42
2539.58
2799.99
3060.73
3422.8
3764.03
4055.99
3980.58
4316.78
5420.9
1361.53
1370.12
1451.71
1776.74
1953.09
1965.59
1982.77
2076.76
2328.56
2626.32
2827.44
3128.44
3517.08
3923.46
4088.77
4122.78
3873.7
4223.66
5338.95
1334.89
1427.63
1664.45
1752.47
1714.67
1792.4
1928.92
1912.55
1734.54
1738.39
1986.33
2545.9
3336.38
3989.39
4542.63
4404.65
3784.21
3890.61
5333.97
1366.62
1785.94
1740.19
1228.25
1126.91
1114.74
1115.68
1130.62
1149.96
1174.68
1228.57
1380.32
1798.08
2658.56
4362.22
4953.44
3827.61
3401.76
5362.09
1765.68
1606.76
1262.44
1142.82
1128.77
1120.29
1122.03
1132.89
1148.36
1172.41
1218.06
1282.33
1394.5
1594.71
3671.34
4977.21
3875.11
3250.47
5445.14
1409.93
1161.61
1146.29
1133.68
1120.47
1114.67
1117.26
1128.25
1146.05
1173.97
1220.09
1283.69
1382.41
1509.61
3628.68
3810.34
3410.75
3693.64
5563.48
1120.13
1121.38
1095.04
1096.56
1085.61
1083.63
1092.77
1109.8
1134.21
1171.56
1218.39
1282.14
1373.29
1519.93
3120.15
2493.25
2715.74
5135
5813.76
1039.9
983.108
960.639
965.241
943.427
940.768
953.762
976.623
1011.65
1069.1
1175.81
1270.3
1354.62
1515.09
2188.62
1673.67
2159.22
5790.35
6105.24
1340.98
1327.01
1302.9
1271.56
1239.29
1212.41
1192.86
1180.63
1175.89
1175.69
1181.96
1194.55
1210.26
1225.26
1236.87
1244.37
1248
1248.63
1247.69
1246.6
1247.28
1243.65
1514.7
1312.56
1304.48
1288.76
1266.67
1241.4
1218.72
1200.02
1187.47
1182.42
1186.31
1196.71
1211.82
1228.41
1243.1
1252.6
1256.07
1254.71
1249.96
1245.51
1242.5
1238.03
1224.33
1037.29
1292.58
1286.27
1274.64
1257.65
1237.99
1218.78
1202.67
1191.89
1188.36
1192.97
1204.63
1221.5
1240.41
1258.12
1267.72
1268.56
1263.2
1252.97
1244.19
1245.6
1171.18
772.863
692.08
1279.64
1273.77
1263.36
1248.3
1231.06
1214.08
1199.82
1190.51
1187.94
1193.33
1207.78
1231.44
1259.71
1279.92
1288.45
1285.21
1268.26
1255.52
988.489
687.658
604.126
830.304
903.43
1273.2
1267
1255.89
1240.43
1223.22
1206.27
1191.33
1179.67
1171.78
1139.16
1082.83
1043.14
1036.37
1058.88
1099.19
1076.03
823.608
738.057
611.54
838.044
872.388
872.795
875.587
1273.31
1257.97
1200.52
1119.72
1016.09
886.547
731.92
558.507
374.922
243.205
174.166
158.97
182.818
253.539
327.901
363.555
695.688
817.59
805.085
832.304
846.979
852.644
855.108
548.205
468.333
344.251
225.575
131.236
63.3271
23.0071
7.53494
6.96684
7.33139
7.8331
8.68471
11.0694
18.6536
100.471
627.98
755.936
785.311
804.987
814.421
822.609
829.012
832.713
6.29004
6.05404
6.18564
6.23195
6.31808
6.462
6.57258
6.60538
6.64523
6.74216
6.89653
7.1703
7.68628
7.90893
30.374
565.793
762.025
780.4
791.686
794.775
798.26
804.372
808.91
6.25982
6.22703
6.23628
6.25735
6.29819
6.3606
6.43742
6.52051
6.60442
6.71941
6.87235
7.02888
7.07383
6.62031
6.24475
20.0793
133.61
403.226
624.115
635.222
603.609
630.204
663.547
6.21694
6.19479
6.20208
6.22189
6.25848
6.3101
6.37374
6.44428
6.51912
6.60713
6.70458
6.77196
6.69649
6.32211
5.83914
6.00741
6.22214
6.84671
14.7871
10.2492
5.10042
45.9714
84.4139
6.184
6.17503
6.1802
6.19691
6.22727
6.26886
6.31698
6.36698
6.41576
6.46269
6.49666
6.4843
6.36765
6.07537
5.6664
5.33695
5.13238
4.96985
4.79711
4.67312
4.76526
4.78391
4.5658
6.16142
6.15922
6.16382
6.17641
6.19824
6.22752
6.26055
6.29286
6.32009
6.33729
6.33252
6.28148
6.15292
5.92983
5.63047
5.36511
5.14867
4.97233
4.83765
4.7796
4.80157
4.82653
4.80646
6.13882
6.13954
6.14357
6.15249
6.16692
6.18568
6.20624
6.22472
6.23628
6.235
6.21101
6.14834
6.03013
5.85286
5.6328
5.42217
5.24028
5.07685
4.97386
4.95151
4.87308
4.86576
4.86675
6.11521
6.11698
6.1202
6.12615
6.13485
6.1454
6.15597
6.16347
6.16354
6.15072
6.11752
6.05414
5.95237
5.80911
5.63384
5.45978
5.30517
5.16375
5.1735
5.24525
5.19591
4.98425
4.9209
6.0907
6.09248
6.09476
6.09821
6.10253
6.10688
6.10986
6.10909
6.10105
6.08127
6.04447
5.98517
5.89845
5.78123
5.63966
5.49347
5.35871
5.24075
5.20913
5.34619
5.29752
5.17654
4.98522
6.06536
6.06678
6.06809
6.06949
6.07052
6.0704
6.06794
6.06135
6.04803
6.02475
5.98788
5.93397
5.85948
5.76298
5.64845
5.52729
5.4112
5.30701
5.22053
5.21113
5.29348
5.15394
5.04478
6.03963
6.04063
6.04108
6.04089
6.03956
6.03635
6.03025
6.01996
6.00365
5.97907
5.94369
5.89508
5.83107
5.75108
5.65771
5.5577
5.45879
5.36684
5.28549
5.21653
5.16515
5.12322
5.09982
6.01412
6.01474
6.01453
6.01319
6.01024
6.00503
5.99673
5.98434
5.96659
5.94196
5.90875
5.86528
5.81027
5.74351
5.66669
5.58392
5.50031
5.42037
5.34739
5.28361
5.23083
5.19011
5.15979
5.98934
5.98966
5.98899
5.98688
5.9829
5.97652
5.96704
5.95368
5.93557
5.9117
5.88098
5.84234
5.79503
5.73897
5.67529
5.60655
5.53615
5.46744
5.40315
5.34542
5.2958
5.25521
5.2228
5.96567
5.96579
5.96482
5.96224
5.95768
5.95071
5.94078
5.92725
5.90951
5.88692
5.85882
5.8246
5.78382
5.73651
5.68342
5.62618
5.56706
5.50844
5.45251
5.40106
5.35551
5.31667
5.28442
5.94335
5.94335
5.94222
5.9394
5.93459
5.92745
5.91755
5.90439
5.88752
5.86652
5.84103
5.81077
5.77554
5.73543
5.69095
5.64318
5.5936
5.5439
5.49574
5.45057
5.4096
5.37363
5.34291
5.92253
5.92246
5.92127
5.91839
5.91355
5.90652
5.89697
5.88451
5.8688
5.84956
5.82663
5.7999
5.76937
5.73519
5.69775
5.65775
5.6162
5.57428
5.53317
5.49402
5.45782
5.42535
5.39698
5.90326
5.90315
5.90198
5.89916
5.89445
5.88771
5.8787
5.86713
5.85274
5.83532
5.81482
5.79124
5.76471
5.73543
5.70373
5.67012
5.63526
5.59998
5.56513
5.53155
5.50003
5.47128
5.44572
5.88553
5.88542
5.88431
5.88161
5.87715
5.87081
5.86245
5.85185
5.83881
5.8232
5.80499
5.78425
5.76115
5.73595
5.70894
5.68053
5.6512
5.6215
5.59205
5.56345
5.53631
5.51124
5.48861
5.8693
5.8692
5.86816
5.86565
5.86148
5.85562
5.84794
5.83832
5.82662
5.81274
5.79666
5.77847
5.75836
5.73659
5.71345
5.68928
5.66447
5.63941
5.61453
5.59026
5.56706
5.54543
5.52567
5.85449
5.8544
5.85346
5.85114
5.84731
5.84194
5.83496
5.8263
5.81586
5.80359
5.78947
5.77358
5.7561
5.73727
5.71736
5.69669
5.67557
5.65432
5.63325
5.61267
5.5929
5.57437
5.5573
5.841
5.84093
5.84008
5.83797
5.83448
5.8296
5.82331
5.81556
5.80629
5.79549
5.78314
5.76932
5.75417
5.73789
5.72075
5.70301
5.68495
5.66684
5.64892
5.63143
5.61461
5.59879
5.58413
5.82875
5.82869
5.82793
5.82602
5.82287
5.81847
5.81283
5.80592
5.79773
5.78825
5.77749
5.76551
5.75242
5.7384
5.72365
5.70841
5.69294
5.67745
5.66217
5.64727
5.63295
5.61946
5.60691
5.81761
5.81756
5.81688
5.81517
5.81234
5.8084
5.80337
5.79724
5.79002
5.78172
5.77237
5.76202
5.75075
5.73871
5.72606
5.71301
5.69977
5.68653
5.67348
5.66077
5.64856
5.63707
5.62635
5.80748
5.80744
5.80684
5.80531
5.80278
5.79927
5.79481
5.7894
5.78306
5.77581
5.7677
5.75877
5.7491
5.7388
5.72801
5.71688
5.70559
5.6943
5.68318
5.67236
5.66196
5.65218
5.64304
5.79827
5.79823
5.79769
5.79632
5.79408
5.79097
5.78703
5.78228
5.77673
5.77042
5.7634
5.75572
5.74745
5.73867
5.7295
5.72006
5.71048
5.70092
5.69149
5.68231
5.6735
5.6652
5.65744
5.78986
5.78983
5.78934
5.78813
5.78614
5.78341
5.77995
5.77579
5.77095
5.76549
5.75943
5.75284
5.74578
5.73833
5.73057
5.72261
5.71454
5.70649
5.69855
5.69083
5.6834
5.67641
5.66985
5.78216
5.78214
5.7817
5.78062
5.77887
5.77647
5.77346
5.76984
5.76565
5.76094
5.75574
5.75011
5.74411
5.73781
5.73128
5.7246
5.71785
5.71113
5.7045
5.69806
5.69186
5.68601
5.68052
5.77508
5.77507
5.77467
5.77371
5.77218
5.7701
5.76748
5.76436
5.76076
5.75672
5.75229
5.74751
5.74244
5.73714
5.73167
5.7261
5.7205
5.71493
5.70946
5.70414
5.69902
5.69419
5.68965
5.76854
5.76853
5.76817
5.76732
5.76599
5.76419
5.76195
5.75928
5.75622
5.75279
5.74905
5.74502
5.74077
5.73635
5.73181
5.72721
5.7226
5.71803
5.71355
5.70921
5.70505
5.70111
5.6974
5.76246
5.76245
5.76211
5.76136
5.76022
5.75869
5.75679
5.75454
5.75197
5.7491
5.74597
5.74263
5.73911
5.73547
5.73174
5.72798
5.72423
5.72053
5.71692
5.71343
5.71008
5.70693
5.70395
5.75676
5.75674
5.75641
5.75577
5.7548
5.75352
5.75194
5.75008
5.74796
5.7456
5.74305
5.74032
5.73746
5.73451
5.7315
5.72848
5.72548
5.72254
5.71967
5.71692
5.71429
5.71181
5.70948
5.75137
5.75132
5.75101
5.75046
5.74966
5.74862
5.74734
5.74585
5.74415
5.74227
5.74024
5.73807
5.73581
5.73349
5.73113
5.72876
5.72642
5.72414
5.72194
5.71983
5.71782
5.71594
5.71416
5.74622
5.74612
5.74583
5.74538
5.74475
5.74394
5.74295
5.7418
5.7405
5.73907
5.73752
5.73588
5.73417
5.73242
5.73064
5.72887
5.72712
5.72543
5.7238
5.72226
5.72081
5.71946
5.71818
5.74125
5.74108
5.74081
5.74047
5.74001
5.73942
5.73872
5.7379
5.73698
5.73597
5.73489
5.73374
5.73254
5.73131
5.73006
5.72883
5.72762
5.72645
5.72534
5.72431
5.72336
5.72251
5.72173
5.73641
5.73615
5.73593
5.7357
5.73541
5.73504
5.73461
5.73412
5.73357
5.73297
5.73232
5.73163
5.73091
5.73016
5.7294
5.72865
5.72791
5.7272
5.72654
5.72596
5.72549
5.72517
5.72506
5.73163
5.73138
5.73125
5.73115
5.73103
5.73089
5.73073
5.73056
5.73038
5.73017
5.72994
5.7297
5.72944
5.72916
5.72887
5.72857
5.72827
5.72798
5.72773
5.72754
5.72748
5.72762
5.72825
2305.6
2279.46
2128.68
1447.21
787.993
712.698
718.878
782.615
853.282
915.836
905.697
895.323
890.42
886.371
884.506
882.808
873.698
872.759
872.153
872.262
855.57
856.139
857.073
859.067
835.254
837.813
840.906
844.801
813.047
818.544
825.144
830.7
599.263
590.822
694.579
755.772
15.2751
7.8842
67.1651
154.914
4.60579
4.67545
4.79436
4.96613
4.83435
4.842
4.85373
4.8747
4.86901
4.87118
4.87632
4.88638
4.92284
4.92287
4.9242
4.91873
4.98285
4.98063
4.97643
4.97314
5.03964
5.03354
5.02686
5.0214
5.08877
5.0815
5.07695
5.07291
5.14251
5.1326
5.12337
5.11654
5.20352
5.19217
5.1813
5.17235
5.26429
5.25198
5.24028
5.23035
5.32266
5.30992
5.29799
5.28755
5.37726
5.3645
5.3527
5.34225
5.42698
5.41456
5.40324
5.3931
5.47119
5.4594
5.44875
5.4392
5.50977
5.49883
5.48904
5.48023
5.54302
5.53306
5.5242
5.51623
5.57149
5.56259
5.55469
5.54759
5.59585
5.588
5.58104
5.57481
5.61677
5.60995
5.60389
5.59847
5.63484
5.62898
5.62374
5.61907
5.65048
5.64551
5.64102
5.63702
5.66402
5.65985
5.65604
5.65264
5.67569
5.67224
5.66903
5.66616
5.6857
5.68288
5.68022
5.67783
5.69422
5.69195
5.68977
5.68778
5.70143
5.69963
5.69787
5.69623
5.70752
5.70611
5.7047
5.70338
5.71268
5.7116
5.71051
5.70948
5.71712
5.71632
5.7155
5.71473
5.72107
5.72052
5.7199
5.71932
5.72501
5.72463
5.72398
5.72344
5.72942
5.72951
5.7285
5.72772
982.802
847.236
867.751
893.14
895.134
893.225
895.328
900.128
911.061
933.684
983.93
1138.2
1314.81
1409.65
1871.85
2497.61
3153.28
4881.3
6527.23
856.911
901.882
893.794
890.236
889.924
889.871
890.99
894.459
900.815
911.089
925.271
943.937
1124.6
1350.66
1752.22
3513.64
3757.34
5069.08
7148.34
885.882
884.985
883.375
882.906
883.499
884.337
885.904
888.766
893.186
899.789
907.877
914.251
919.631
1141.92
1514.48
2218.92
2229.96
3118.5
5437.13
879.205
877.939
877.658
878.31
879.569
881.057
882.926
885.385
888.449
892.033
895.338
895.582
887.657
876.358
1113.07
1523.62
1205.87
1491.74
3924.53
871.773
871.619
872.654
874.485
876.686
878.998
881.404
883.898
886.291
888.121
888.548
885.196
872.14
847.549
820.549
889.269
753.373
1145.03
2026.77
861.727
864.047
867.032
870.369
873.744
877.095
880.377
883.447
885.972
887.322
886.555
881.991
870.816
838.931
793.007
765.717
745.392
831.3
208.941
850.057
854.992
860.072
864.917
869.608
874.245
878.782
882.99
886.352
888.116
887.397
883.076
873.57
858.356
794.09
688.252
666.954
670.989
219.957
837.064
843.809
850.62
856.929
863.153
869.369
875.558
881.356
886.076
888.829
888.819
885.235
877.531
865.408
847.28
762.667
610.012
508.805
203.08
788.85
821.694
840.898
848.095
855.244
862.635
870.15
877.289
883.248
887.107
888.098
885.609
879.533
871.09
860.591
825.98
497.324
292.105
178.009
245.054
357.054
501.268
649.753
749.328
820.9
861.721
877.096
882.172
885.599
887.067
885.823
881.897
876.74
868.85
816.596
685.903
595.679
529.604
4.99029
4.72586
4.67868
20.7346
115.42
237.326
390.793
537.34
643.568
690.621
714.16
719.84
648.833
530.852
419.756
315.653
248.888
196.3
162.629
4.89522
4.87577
4.87853
4.91489
4.85807
4.77158
4.64552
4.60867
11.1609
35.7888
45.4887
40.545
4.88963
4.94448
5.33247
5.92868
6.35677
6.47486
6.13649
4.90223
4.92048
4.9372
4.98043
5.03848
5.09435
5.12911
5.14067
5.15355
5.13388
5.18317
5.34441
5.53
5.6283
6.32911
11.0088
12.9233
11.8267
8.73394
4.92968
4.94972
4.98472
5.01678
5.06532
5.10738
5.15179
5.18496
5.24598
5.3241
5.40954
5.4914
5.53589
5.5909
7.49292
13.9944
14.3324
12.1651
8.3056
4.97194
4.98335
5.01315
5.0504
5.08685
5.12241
5.1546
5.19968
5.23552
5.29894
5.37453
5.45107
5.50925
5.74003
5.93336
5.63488
5.69053
5.74455
5.74265
5.01941
5.02494
5.04552
5.07685
5.10955
5.14197
5.17353
5.20497
5.24419
5.28851
5.35009
5.42402
5.49476
5.54372
5.59238
5.64037
5.70051
5.75564
5.69934
5.06784
5.07089
5.08105
5.10643
5.13534
5.16553
5.19502
5.22536
5.26066
5.30089
5.35091
5.40771
5.46555
5.51782
5.56368
5.60303
5.67286
5.71899
5.65774
5.11197
5.11179
5.12109
5.13988
5.1639
5.19064
5.2185
5.2478
5.28003
5.31806
5.3602
5.40747
5.45489
5.49875
5.53754
5.57131
5.60087
5.65045
5.62935
5.16242
5.1594
5.16583
5.17932
5.19805
5.22029
5.24482
5.27164
5.30117
5.33392
5.37071
5.41041
5.4503
5.48762
5.52161
5.55183
5.57831
5.59808
5.61671
5.21815
5.21203
5.21457
5.22338
5.23726
5.25508
5.27588
5.2993
5.3253
5.35398
5.38555
5.41919
5.4532
5.48584
5.51629
5.54434
5.57026
5.59316
5.61713
5.27401
5.26578
5.26525
5.2702
5.27999
5.29384
5.31096
5.33088
5.35335
5.37825
5.40547
5.43436
5.46384
5.49277
5.52055
5.54712
5.5733
5.59949
5.62972
5.32832
5.31874
5.31573
5.3178
5.32435
5.33483
5.34866
5.36535
5.38458
5.40612
5.42969
5.4548
5.48071
5.5067
5.53237
5.5579
5.58457
5.61374
5.65044
5.37942
5.36922
5.3645
5.36448
5.36855
5.37632
5.38736
5.40125
5.41766
5.43628
5.45683
5.47888
5.50193
5.52553
5.54949
5.57413
5.60117
5.6326
5.67231
5.42629
5.41611
5.41037
5.40888
5.41113
5.41681
5.4256
5.43716
5.45117
5.46733
5.48535
5.5049
5.52562
5.54724
5.56969
5.59343
5.62047
5.65321
5.69468
5.46839
5.45874
5.45252
5.45008
5.45105
5.45518
5.46221
5.47188
5.48389
5.49799
5.51391
5.53137
5.55013
5.57002
5.59104
5.61376
5.64035
5.67347
5.71524
5.50565
5.4968
5.49056
5.4876
5.48773
5.49073
5.4964
5.50454
5.51491
5.52728
5.54141
5.5571
5.57414
5.59243
5.61204
5.63356
5.65919
5.69312
5.73277
5.53829
5.53039
5.52445
5.52129
5.52089
5.52308
5.52771
5.53462
5.54361
5.5545
5.56709
5.5812
5.59667
5.61345
5.6316
5.65171
5.67593
5.71022
5.74613
5.56676
5.55983
5.55437
5.55123
5.55052
5.55214
5.55596
5.56184
5.56966
5.57925
5.59045
5.60312
5.61712
5.63239
5.64903
5.66755
5.68998
5.72081
5.75434
5.59155
5.58555
5.58058
5.57761
5.57677
5.57798
5.58113
5.58615
5.59293
5.60135
5.61127
5.62258
5.63515
5.64893
5.66399
5.6808
5.70117
5.72728
5.75696
5.61314
5.60796
5.60356
5.60079
5.59989
5.60077
5.60337
5.60763
5.61347
5.6208
5.62952
5.63951
5.65068
5.66297
5.67642
5.69143
5.7096
5.73277
5.75901
5.63195
5.62746
5.62357
5.62106
5.62016
5.62078
5.62289
5.62645
5.63142
5.63774
5.6453
5.65403
5.66383
5.67463
5.68645
5.69964
5.71557
5.73566
5.7583
5.64832
5.64438
5.64095
5.63874
5.63786
5.63826
5.63994
5.64287
5.64703
5.65238
5.65884
5.66635
5.6748
5.68413
5.69437
5.7058
5.71946
5.73648
5.75554
5.66248
5.65902
5.65605
5.65412
5.65328
5.6535
5.65478
5.65713
5.66054
5.66498
5.6704
5.67673
5.68388
5.6918
5.70055
5.7103
5.72177
5.73583
5.75146
5.67465
5.67164
5.66915
5.66748
5.66669
5.66675
5.66768
5.6695
5.67221
5.67581
5.68025
5.68547
5.69139
5.69799
5.70537
5.71344
5.72289
5.73427
5.74673
5.68507
5.68253
5.68047
5.67906
5.67831
5.67824
5.67886
5.6802
5.68229
5.68511
5.68866
5.69285
5.69763
5.70304
5.70902
5.71554
5.7232
5.73224
5.74192
5.69397
5.6919
5.69023
5.68904
5.68834
5.68815
5.6885
5.68943
5.69096
5.6931
5.69583
5.6991
5.70285
5.70707
5.71173
5.71694
5.72293
5.73004
5.73744
5.70158
5.69993
5.69859
5.69759
5.69693
5.69665
5.69676
5.69733
5.69837
5.6999
5.70191
5.70437
5.70721
5.71033
5.71377
5.71772
5.72236
5.72777
5.73355
5.70808
5.70679
5.70571
5.70485
5.70422
5.70385
5.70376
5.70401
5.70463
5.70564
5.70703
5.70877
5.7108
5.71303
5.71547
5.71827
5.72168
5.72547
5.73029
5.71366
5.71264
5.71176
5.71099
5.71036
5.7099
5.70963
5.70961
5.70986
5.71041
5.71126
5.71237
5.7137
5.71519
5.71681
5.71865
5.72085
5.72302
5.72741
5.71849
5.71766
5.71689
5.71617
5.71552
5.71497
5.71454
5.71428
5.71421
5.71437
5.71473
5.7153
5.71603
5.71688
5.71783
5.71884
5.71978
5.72006
5.72432
5.72275
5.72202
5.72132
5.72062
5.71994
5.7193
5.71873
5.71825
5.7179
5.7177
5.71763
5.7177
5.71789
5.71818
5.71853
5.71877
5.71785
5.71457
5.72147
5.72691
5.72623
5.7256
5.72494
5.72424
5.72353
5.72282
5.72215
5.72153
5.72097
5.72046
5.71999
5.71957
5.71916
5.71872
5.71797
5.7148
5.70361
5.72583
)
;

boundaryField
{
    leftWall
    {
        type            fixedFluxPressure;
        gradient        uniform 0;
        value           nonuniform List<scalar> 
50
(
5608.12
5604.06
5564.67
5477.08
5031.29
2255.52
1385.09
1365.99
1340.98
1312.56
1292.58
1279.64
1273.2
1273.31
548.205
6.29004
6.25982
6.21694
6.184
6.16142
6.13882
6.11521
6.0907
6.06536
6.03963
6.01412
5.98934
5.96567
5.94335
5.92253
5.90326
5.88553
5.8693
5.85449
5.841
5.82875
5.81761
5.80748
5.79827
5.78986
5.78216
5.77508
5.76854
5.76246
5.75676
5.75137
5.74622
5.74125
5.73641
5.73163
)
;
    }
    rightWall
    {
        type            fixedFluxPressure;
        gradient        uniform 0;
        value           nonuniform List<scalar> 
50
(
5420.9
5338.95
5333.97
5362.09
5445.14
5563.48
5813.76
6105.24
6527.23
7148.34
5437.13
3924.53
2026.77
208.941
219.957
203.08
178.009
529.604
162.629
6.13649
8.73394
8.3056
5.74265
5.69934
5.65774
5.62935
5.61671
5.61713
5.62972
5.65044
5.67231
5.69468
5.71524
5.73277
5.74613
5.75434
5.75696
5.75901
5.7583
5.75554
5.75146
5.74673
5.74192
5.73744
5.73355
5.73029
5.72741
5.72432
5.72147
5.72583
)
;
    }
    lowerWall
    {
        type            fixedFluxPressure;
        gradient        uniform 0;
        value           nonuniform List<scalar> 
62
(
5608.12
5570.77
5606.97
5691.01
5799.99
5915.45
6027.37
6131.06
6224.51
6307.65
6378.45
6432.97
6467.4
6480.5
6473.18
6446.86
6402.12
6338.15
6254.06
6151.48
6037.39
5937.99
5869.01
5869.01
5857.25
5839.8
5813.2
5782.09
5601.5
2550.85
1204.32
2305.6
2279.46
2128.68
1447.21
1371.41
1361.53
1334.89
1366.62
1765.68
1409.93
1120.13
1039.9
1371.41
1397.18
1476.47
1678.05
1826.46
1800.91
1768.81
1795.33
1925.88
2231.42
2539.58
2799.99
3060.73
3422.8
3764.03
4055.99
3980.58
4316.78
5420.9
)
;
    }
    atmosphere
    {
        type            prghTotalPressure;
        rho             rho;
        psi             none;
        gamma           1;
        p0              uniform 0;
        value           nonuniform List<scalar> 
46
(
5.72904
5.72904
5.72904
5.72904
5.72904
5.72904
5.72904
5.72904
5.72904
5.72904
5.72904
5.72904
5.72904
5.72904
5.72904
5.72904
5.72904
5.72904
5.72904
5.72904
5.72904
5.72904
5.72904
5.72904
5.72903
5.72899
5.72893
5.72875
5.72838
5.72787
5.72725
5.72655
5.72581
5.72505
5.72429
5.72354
5.72279
5.72204
5.72125
5.72044
5.71959
5.71873
5.71783
5.71683
5.71533
5.72326
)
;
        rho             rho;
    }
    defaultFaces
    {
        type            empty;
    }
}


// ************************************************************************* //
