/*--------------------------------*- C++ -*----------------------------------*\
  =========                 |
  \\      /  F ield         | OpenFOAM: The Open Source CFD Toolbox
   \\    /   O peration     | Website:  https://openfoam.org
    \\  /    A nd           | Version:  13
     \\/     M anipulation  |
\*---------------------------------------------------------------------------*/
FoamFile
{
    format      ascii;
    class       surfaceScalarField;
    location    "0.85";
    object      phi;
}
// * * * * * * * * * * * * * * * * * * * * * * * * * * * * * * * * * * * * * //

dimensions      [0 3 -1 0 0 0 0];

internalField   nonuniform List<scalar> 
4432
(
-5.1772e-06
5.17722e-06
-9.49643e-06
4.31925e-06
-1.3412e-05
3.91564e-06
-1.66856e-05
3.27362e-06
-1.92802e-05
2.59451e-06
-2.12322e-05
1.95203e-06
-2.25891e-05
1.35689e-06
-2.33824e-05
7.93398e-07
-2.36421e-05
2.59602e-07
-2.33754e-05
-2.66687e-07
-2.25722e-05
-8.03138e-07
-2.12808e-05
-1.29139e-06
-1.96087e-05
-1.67211e-06
-1.76565e-05
-1.95221e-06
-1.54805e-05
-2.17606e-06
-1.31079e-05
-2.37255e-06
-1.05625e-05
-2.54543e-06
-7.8978e-06
-2.66469e-06
-5.21061e-06
-2.68719e-06
-2.66359e-06
-2.54702e-06
-4.86659e-07
-2.17693e-06
8.03864e-07
-1.29052e-06
8.03866e-07
-5.4184e-06
1.05957e-05
-1.04119e-05
9.31278e-06
-1.46667e-05
8.17046e-06
-1.80397e-05
6.64666e-06
-2.05546e-05
5.10936e-06
-2.2289e-05
3.68647e-06
-2.33172e-05
2.38509e-06
-2.37008e-05
1.177e-06
-2.35175e-05
7.63173e-08
-2.28367e-05
-9.47485e-07
-2.17177e-05
-1.9221e-06
-2.02455e-05
-2.76361e-06
-1.85211e-05
-3.39655e-06
-1.66174e-05
-3.85592e-06
-1.45697e-05
-4.22375e-06
-1.23967e-05
-4.54548e-06
-1.01242e-05
-4.81794e-06
-7.80826e-06
-4.98065e-06
-5.54241e-06
-4.95303e-06
-3.45961e-06
-4.62981e-06
-1.73566e-06
-3.90087e-06
-5.24406e-07
-2.50176e-06
2.79476e-07
-6.01603e-06
1.66117e-05
-1.14022e-05
1.4699e-05
-1.56429e-05
1.24111e-05
-1.88445e-05
9.84826e-06
-2.11032e-05
7.368e-06
-2.25408e-05
5.1241e-06
-2.32537e-05
3.09802e-06
-2.33316e-05
1.25487e-06
-2.28909e-05
-3.64377e-07
-2.20345e-05
-1.80385e-06
-2.08302e-05
-3.12641e-06
-1.9359e-05
-4.23484e-06
-1.77015e-05
-5.05404e-06
-1.59082e-05
-5.64924e-06
-1.40006e-05
-6.13137e-06
-1.19962e-05
-6.54986e-06
-9.92664e-06
-6.8875e-06
-7.85159e-06
-7.0557e-06
-5.85501e-06
-6.9496e-06
-4.04105e-06
-6.44377e-06
-2.51783e-06
-5.42408e-06
-1.24647e-06
-3.77312e-06
-9.66984e-07
-6.74769e-06
2.33594e-05
-1.2317e-05
2.02683e-05
-1.63853e-05
1.64795e-05
-1.9318e-05
1.27809e-05
-2.12732e-05
9.32324e-06
-2.24145e-05
6.26537e-06
-2.28608e-05
3.54441e-06
-2.27208e-05
1.11487e-06
-2.21393e-05
-9.45917e-07
-2.12233e-05
-2.71984e-06
-2.00277e-05
-4.32204e-06
-1.86191e-05
-5.64339e-06
-1.70614e-05
-6.61175e-06
-1.53885e-05
-7.32216e-06
-1.36131e-05
-7.9068e-06
-1.17557e-05
-8.40726e-06
-9.85566e-06
-8.78751e-06
-7.97595e-06
-8.9354e-06
-6.18721e-06
-8.73834e-06
-4.5604e-06
-8.07057e-06
-3.13542e-06
-6.84906e-06
-1.68798e-06
-5.22057e-06
-2.65496e-06
-7.45384e-06
3.08133e-05
-1.28323e-05
2.56467e-05
-1.67189e-05
2.03661e-05
-1.9379e-05
1.5441e-05
-2.1049e-05
1.09932e-05
-2.19559e-05
7.17225e-06
-2.22175e-05
3.80599e-06
-2.19504e-05
8.47833e-07
-2.1322e-05
-1.57437e-06
-2.04279e-05
-3.61392e-06
-1.92995e-05
-5.45041e-06
-1.79904e-05
-6.95256e-06
-1.65511e-05
-8.05101e-06
-1.50037e-05
-8.8696e-06
-1.33563e-05
-9.5542e-06
-1.16367e-05
-1.01269e-05
-9.89344e-06
-1.05308e-05
-8.19185e-06
-1.0637e-05
-6.58728e-06
-1.03429e-05
-5.11535e-06
-9.5425e-06
-3.76631e-06
-8.1981e-06
-2.20818e-06
-6.77869e-06
-4.86314e-06
-7.11766e-06
3.7931e-05
-1.23671e-05
3.08962e-05
-1.62915e-05
2.42905e-05
-1.88065e-05
1.7956e-05
-2.03635e-05
1.25502e-05
-2.1165e-05
7.97378e-06
-2.1337e-05
3.97802e-06
-2.10484e-05
5.5926e-07
-2.04694e-05
-2.15338e-06
-1.96683e-05
-4.41499e-06
-1.86527e-05
-6.46607e-06
-1.74718e-05
-8.13346e-06
-1.61671e-05
-9.35569e-06
-1.47511e-05
-1.02856e-05
-1.32311e-05
-1.10742e-05
-1.16465e-05
-1.17114e-05
-1.00564e-05
-1.21209e-05
-8.52843e-06
-1.2165e-05
-7.10237e-06
-1.1769e-05
-5.77993e-06
-1.08649e-05
-4.52227e-06
-9.45576e-06
-3.03514e-06
-8.26582e-06
-7.89828e-06
-3.47935e-06
4.14104e-05
-8.24118e-06
3.56581e-05
-1.31077e-05
2.91571e-05
-1.69442e-05
2.17925e-05
-1.89735e-05
1.45796e-05
-1.98808e-05
8.88111e-06
-2.01599e-05
4.25707e-06
-2.00207e-05
4.20079e-07
-1.96081e-05
-2.56594e-06
-1.89574e-05
-5.06571e-06
-1.80894e-05
-7.33409e-06
-1.70702e-05
-9.15271e-06
-1.5924e-05
-1.05018e-05
-1.46535e-05
-1.15561e-05
-1.32694e-05
-1.24583e-05
-1.183e-05
-1.31508e-05
-1.04073e-05
-1.35436e-05
-9.07343e-06
-1.34988e-05
-7.86642e-06
-1.2976e-05
-6.77338e-06
-1.1958e-05
-5.69858e-06
-1.05306e-05
-4.45639e-06
-9.50802e-06
-1.23547e-05
-3.07243e-07
4.17178e-05
-3.19882e-06
3.85498e-05
-7.01188e-06
3.29702e-05
-1.11806e-05
2.59612e-05
-1.48002e-05
1.81992e-05
-1.71946e-05
1.12755e-05
-1.83737e-05
5.43625e-06
-1.87136e-05
7.59989e-07
-1.86091e-05
-2.67052e-06
-1.81992e-05
-5.4756e-06
-1.75756e-05
-7.9577e-06
-1.68006e-05
-9.9277e-06
-1.58707e-05
-1.14317e-05
-1.47923e-05
-1.26345e-05
-1.36014e-05
-1.36493e-05
-1.23798e-05
-1.43723e-05
-1.12198e-05
-1.47036e-05
-1.02054e-05
-1.45133e-05
-9.40238e-06
-1.3779e-05
-8.9353e-06
-1.2425e-05
-8.76446e-06
-1.07014e-05
-8.87953e-06
-9.39296e-06
-2.12342e-05
-1.53905e-05
1.53905e-05
-9.2725e-06
-6.11793e-06
2.66091e-06
-1.19334e-05
1.86442e-05
-1.59833e-05
2.69005e-05
-8.25636e-06
3.01457e-05
-3.24517e-06
3.04969e-05
-3.51261e-07
2.95038e-05
9.9311e-07
2.96517e-05
-1.47923e-07
3.05843e-05
-9.3251e-07
2.95192e-05
1.06502e-06
2.60042e-05
3.51506e-06
2.08652e-05
5.13892e-06
1.72123e-05
3.6529e-06
1.23223e-05
4.89001e-06
-6.32018e-06
1.86425e-05
-3.20362e-05
2.5716e-05
-3.20756e-05
3.93991e-08
-3.20756e-05
-2.80203e-06
1.81926e-05
9.98111e-06
-1.89011e-05
1.85156e-05
-2.04679e-05
2.24621e-05
-1.99298e-05
2.60323e-05
-1.18265e-05
2.8683e-05
-5.89587e-06
3.0493e-05
-2.16124e-06
3.1686e-05
-1.99971e-07
3.20099e-05
-4.71757e-07
3.14904e-05
-4.13103e-07
2.97139e-05
2.84154e-06
2.66163e-05
6.61262e-06
2.30342e-05
8.72107e-06
1.93296e-05
7.35743e-06
1.59496e-05
8.27005e-06
6.94112e-06
2.76509e-05
-1.49702e-05
4.76273e-05
-1.80575e-05
3.12667e-06
-5.01332e-05
8.74597e-06
9.44661e-06
1.75142e-05
-2.76693e-05
2.15658e-05
-2.45195e-05
2.28567e-05
-2.12207e-05
2.50112e-05
-1.3981e-05
2.73016e-05
-8.18625e-06
2.9235e-05
-4.09466e-06
3.05548e-05
-1.5198e-06
3.06787e-05
-5.9572e-07
2.95498e-05
7.15783e-07
2.74185e-05
4.97292e-06
2.43746e-05
9.65651e-06
2.05778e-05
1.25179e-05
1.64867e-05
1.14485e-05
1.41394e-05
1.06173e-05
1.00617e-05
3.17286e-05
-5.27699e-06
6.29659e-05
-1.05225e-05
8.37219e-06
-6.06557e-05
1.88554e-05
-9.40874e-06
1.94648e-05
-2.82787e-05
2.07885e-05
-2.58432e-05
2.12014e-05
-2.16336e-05
2.27302e-05
-1.55098e-05
2.47742e-05
-1.02303e-05
2.653e-05
-5.8505e-06
2.74755e-05
-2.46528e-06
2.72181e-05
-3.38323e-07
2.56843e-05
2.24957e-06
2.33493e-05
7.3078e-06
2.00445e-05
1.29613e-05
1.5565e-05
1.69973e-05
1.10699e-05
1.59436e-05
9.62535e-06
1.20618e-05
6.95165e-06
3.44023e-05
-2.79039e-06
7.27079e-05
-6.09735e-06
1.16791e-05
-6.67531e-05
1.72638e-05
-2.66726e-05
1.77727e-05
-2.87875e-05
1.75278e-05
-2.55983e-05
1.74486e-05
-2.15544e-05
1.8371e-05
-1.64322e-05
1.98041e-05
-1.16635e-05
2.11309e-05
-7.1773e-06
2.18398e-05
-3.17414e-06
2.13771e-05
1.24327e-07
1.95505e-05
4.07617e-06
1.6731e-05
1.01273e-05
1.28914e-05
1.68009e-05
7.93767e-06
2.1951e-05
3.49823e-06
2.03831e-05
3.12249e-06
1.24375e-05
3.26337e-07
3.71984e-05
-7.90423e-06
8.09385e-05
-3.76217e-06
7.53699e-06
-7.05152e-05
1.2046e-05
-3.87186e-05
1.27565e-05
-2.94979e-05
1.26236e-05
-2.54654e-05
1.29451e-05
-2.18758e-05
1.39236e-05
-1.74108e-05
1.52089e-05
-1.29488e-05
1.63705e-05
-8.33891e-06
1.69395e-05
-3.74319e-06
1.63737e-05
6.90143e-07
1.44278e-05
6.022e-06
1.12165e-05
1.33386e-05
6.57801e-06
2.14394e-05
4.94198e-07
2.80348e-05
-3.51018e-06
2.43874e-05
-4.52649e-06
1.34538e-05
-9.96948e-06
4.26414e-05
-1.19777e-05
8.29468e-05
-3.27376e-06
-1.16701e-06
-7.3789e-05
5.10859e-06
-4.38272e-05
6.4483e-06
-3.08377e-05
7.17347e-06
-2.61906e-05
8.11275e-06
-2.28151e-05
9.37853e-06
-1.86766e-05
1.07554e-05
-1.43257e-05
1.1939e-05
-9.52253e-06
1.2503e-05
-4.30718e-06
1.1936e-05
1.25708e-06
9.96989e-06
7.98812e-06
6.69088e-06
1.66175e-05
2.08819e-06
2.6042e-05
-3.59797e-06
3.37209e-05
-8.28852e-06
2.9078e-05
-1.29854e-05
1.81507e-05
-2.00869e-05
4.97428e-05
-1.06454e-05
7.35052e-05
-2.50579e-06
-9.30659e-06
-7.62948e-05
-9.35273e-07
-4.28919e-05
-2.29227e-07
-3.15437e-05
9.50038e-07
-2.73698e-05
2.34067e-06
-2.42058e-05
3.96267e-06
-2.02986e-05
5.61542e-06
-1.59785e-05
7.03694e-06
-1.09441e-05
7.82674e-06
-5.09701e-06
7.49513e-06
1.58866e-06
5.7851e-06
9.69812e-06
2.78578e-06
1.96168e-05
-1.27916e-06
3.0107e-05
-6.19492e-06
3.86366e-05
-1.17465e-05
3.46295e-05
-2.16765e-05
2.80807e-05
-2.66002e-05
5.46665e-05
-7.98283e-06
5.48878e-05
-2.27696e-06
-1.50125e-05
-7.85718e-05
3.06179e-06
3.8656e-05
1.98346e-06
3.96282e-05
-1.48494e-06
3.64386e-05
-6.68719e-06
3.11635e-05
-1.30822e-05
2.45943e-05
-1.95757e-05
1.7769e-05
-2.5337e-05
1.11976e-05
-2.98728e-05
5.2958e-06
-3.27875e-05
2.44182e-07
-3.44919e-05
-3.77126e-06
-3.52629e-05
-7.18663e-06
-3.53072e-05
-9.88345e-06
-3.48107e-05
-1.19282e-05
-3.39805e-05
-1.34647e-05
-3.31451e-05
-1.44847e-05
-3.26509e-05
-1.48665e-05
-3.28317e-05
-1.45228e-05
-3.3893e-05
-1.3452e-05
-3.57567e-05
-1.19153e-05
-3.79217e-05
-1.026e-05
-3.99038e-05
-8.71933e-06
-4.00828e-05
-9.21398e-06
-1.70509e-05
-4.42661e-05
2.25224e-06
3.64038e-05
3.14686e-06
3.87336e-05
2.40586e-06
3.71797e-05
5.95193e-08
3.35099e-05
-3.61317e-06
2.8267e-05
-8.06904e-06
2.22249e-05
-1.28086e-05
1.59372e-05
-1.74536e-05
9.94075e-06
-2.18685e-05
4.6591e-06
-2.58521e-05
2.12432e-07
-2.95916e-05
-3.44711e-06
-3.32208e-05
-6.25423e-06
-3.67503e-05
-8.39873e-06
-4.01484e-05
-1.00665e-05
-4.34556e-05
-1.11774e-05
-4.67519e-05
-1.15702e-05
-5.01378e-05
-1.1137e-05
-5.37524e-05
-9.83735e-06
-5.74107e-05
-8.25692e-06
-6.03535e-05
-7.3173e-06
-6.18767e-05
-7.19612e-06
-6.38187e-05
-7.27188e-06
-1.31e-05
-6.77696e-05
1.14247e-06
3.52613e-05
2.34623e-06
3.75298e-05
2.67995e-06
3.68459e-05
1.92505e-06
3.42648e-05
7.73326e-08
3.01147e-05
-2.61655e-06
2.49188e-05
-5.95129e-06
1.9272e-05
-9.77467e-06
1.37642e-05
-1.40527e-05
8.93719e-06
-1.89074e-05
5.06717e-06
-2.46555e-05
2.30098e-06
-3.16144e-05
7.04782e-07
-3.95011e-05
-5.12054e-07
-4.756e-05
-2.00752e-06
-5.52451e-05
-3.4924e-06
-6.22593e-05
-4.55602e-06
-6.84997e-05
-4.89656e-06
-7.40541e-05
-4.28292e-06
-7.92096e-05
-3.10143e-06
-8.464e-05
-1.88684e-06
-8.94728e-05
-2.36333e-06
-9.50012e-05
-1.7434e-06
-7.71348e-06
-0.000100388
9.08297e-07
3.4353e-05
2.08205e-06
3.6356e-05
2.77709e-06
3.61509e-05
2.80405e-06
3.42379e-05
2.10214e-06
3.08167e-05
6.92409e-07
2.63286e-05
-1.40101e-06
2.13655e-05
-4.28382e-06
1.6647e-05
-8.23338e-06
1.28868e-05
-1.38569e-05
1.06907e-05
-2.20382e-05
1.04823e-05
-3.30432e-05
1.17098e-05
-4.60267e-05
1.24715e-05
-5.93307e-05
1.12965e-05
-7.12617e-05
8.43857e-06
-8.11979e-05
5.3802e-06
-9.01498e-05
4.05534e-06
-9.82007e-05
3.76807e-06
-0.000106751
5.44871e-06
-0.000116131
7.49284e-06
-0.000124352
5.85805e-06
-0.000125741
-3.54132e-07
-8.79354e-06
-0.000124661
1.78939e-06
3.25636e-05
3.03449e-06
3.51109e-05
3.8505e-06
3.53349e-05
4.3008e-06
3.37876e-05
4.37222e-06
3.07453e-05
3.94184e-06
2.6759e-05
2.82374e-06
2.24836e-05
7.21391e-07
1.87494e-05
-3.07487e-06
1.6683e-05
-9.81728e-06
1.74331e-05
-2.13716e-05
2.20366e-05
-3.85188e-05
2.8857e-05
-5.89343e-05
3.28869e-05
-7.90702e-05
3.14325e-05
-9.5652e-05
2.50204e-05
-0.000108664
1.83918e-05
-0.000121024
1.64153e-05
-0.000133376
1.61207e-05
-0.000143878
1.59506e-05
-0.000148691
1.23056e-05
-0.000149392
6.55958e-06
-0.000147851
-1.89594e-06
-1.17818e-05
-0.000144862
2.87247e-06
2.96911e-05
4.52585e-06
3.34575e-05
5.51093e-06
3.43498e-05
6.34945e-06
3.2949e-05
7.08175e-06
3.00129e-05
7.44108e-06
2.63996e-05
7.00085e-06
2.29238e-05
5.22181e-06
2.05284e-05
6.3631e-07
2.12685e-05
-9.03762e-06
2.7107e-05
-2.64565e-05
3.94554e-05
-5.21222e-05
5.45227e-05
-8.40278e-05
6.47926e-05
-0.000119004
6.64087e-05
-0.000140469
4.64851e-05
-0.000154478
3.24011e-05
-0.000162391
2.43281e-05
-0.000166995
2.07247e-05
-0.00016847
1.74262e-05
-0.000167994
1.18299e-05
-0.00016594
4.50494e-06
-0.000163061
-4.77501e-06
-1.50688e-05
-0.000159774
3.94609e-06
2.57458e-05
6.48909e-06
3.09146e-05
8.19741e-06
3.26414e-05
9.73007e-06
3.14164e-05
1.11196e-05
2.86234e-05
1.19401e-05
2.5579e-05
1.09866e-05
2.38771e-05
6.15203e-06
2.53629e-05
-3.21188e-06
3.06323e-05
-1.89356e-05
4.28306e-05
-4.15245e-05
6.20442e-05
-7.46348e-05
8.76333e-05
-0.000129772
0.00011993
-0.00019128
0.000127917
-0.000192613
4.78183e-05
-0.000188387
2.81752e-05
-0.00018575
2.16911e-05
-0.00018375
1.87243e-05
-0.000181214
1.489e-05
-0.000178595
9.21162e-06
-0.000175603
1.51228e-06
-0.000172348
-8.02972e-06
-1.82443e-05
-0.000169173
-5.62748e-06
3.13734e-05
4.04561e-06
2.12415e-05
8.6439e-06
2.80432e-05
1.07817e-05
2.92787e-05
1.0159e-05
2.92463e-05
5.62654e-06
3.01117e-05
-2.93182e-06
3.24357e-05
-1.46613e-05
3.70925e-05
-2.87632e-05
4.47342e-05
-4.78219e-05
6.18893e-05
-7.50272e-05
8.925e-05
-0.000115223
0.000127831
-0.000164032
0.000168742
-0.0001864
0.000150284
-0.00019448
5.58972e-05
-0.000190012
2.3707e-05
-0.000188846
2.05247e-05
-0.000187036
1.69139e-05
-0.000183981
1.18355e-05
-0.000180932
6.16239e-06
-0.000177999
-1.42088e-06
-0.000174991
-1.10377e-05
-2.09394e-05
-0.000172296
-5.11036e-06
3.6484e-05
-9.05763e-06
2.51891e-05
-1.08433e-05
2.98293e-05
-1.29931e-05
3.1429e-05
-1.61715e-05
3.24253e-05
-2.05309e-05
3.44716e-05
-2.64716e-05
3.83768e-05
-3.43e-05
4.49212e-05
-4.56183e-05
5.60525e-05
-5.96336e-05
7.59047e-05
-7.62023e-05
0.000105819
-9.17371e-05
0.000143367
-0.000100792
0.000177798
-0.000120167
0.00016966
-0.000156903
9.26318e-05
-0.000177437
4.42404e-05
-0.000184386
2.74734e-05
-0.00018302
1.5548e-05
-0.000180184
8.99917e-06
-0.000177103
3.08128e-06
-0.000174319
-4.20432e-06
-0.000171323
-1.40346e-05
-2.35171e-05
-0.000168745
-5.09464e-06
4.15798e-05
-1.27324e-05
3.28275e-05
-1.69446e-05
3.40421e-05
-2.0465e-05
3.49499e-05
-2.43953e-05
3.63561e-05
-2.90127e-05
3.90894e-05
-3.44044e-05
4.37689e-05
-4.093e-05
5.1447e-05
-4.88745e-05
6.3997e-05
-5.71381e-05
8.41683e-05
-6.39092e-05
0.00011259
-6.65925e-05
0.00014605
-6.33414e-05
0.000174547
-6.82949e-05
0.000174615
-0.000105671
0.000130009
-0.000145436
8.40051e-05
-0.000168315
5.03521e-05
-0.000176488
2.37212e-05
-0.000174399
6.91011e-06
-0.000169547
-1.7714e-06
-0.000165061
-8.6904e-06
-0.000162155
-1.69399e-05
-2.60113e-05
-0.000159661
-4.00473e-06
4.5585e-05
-1.05143e-05
3.93376e-05
-1.53086e-05
3.88369e-05
-1.95532e-05
3.9195e-05
-2.38119e-05
4.06151e-05
-2.82476e-05
4.35254e-05
-3.29441e-05
4.84657e-05
-3.79105e-05
5.64135e-05
-4.28439e-05
6.89306e-05
-4.64098e-05
8.77343e-05
-4.67553e-05
0.000112935
-4.22312e-05
0.000141526
-3.3319e-05
0.000165635
-2.94245e-05
0.00017072
-4.39605e-05
0.000144546
-6.84352e-05
0.000108481
-9.60026e-05
7.79199e-05
-0.000120797
4.85159e-05
-0.000136023
2.21365e-05
-0.000142964
5.16942e-06
-0.000146188
-5.46597e-06
-0.000149942
-1.3187e-05
-2.30849e-05
-0.000152868
-2.29721e-06
4.78832e-05
-6.96478e-06
4.4006e-05
-1.12e-05
4.30727e-05
-1.52304e-05
4.32259e-05
-1.92199e-05
4.4605e-05
-2.31852e-05
4.74911e-05
-2.70678e-05
5.23486e-05
-3.06335e-05
5.99794e-05
-3.32397e-05
7.15371e-05
-3.36206e-05
8.81154e-05
-3.02887e-05
0.000109604
-2.23095e-05
0.000133546
-1.07894e-05
0.000154115
-1.67032e-06
0.000161601
-5.18214e-06
0.000148058
-1.92484e-05
0.000122547
-3.72242e-05
9.5896e-05
-5.60318e-05
6.7324e-05
-7.50171e-05
4.11221e-05
-9.11401e-05
2.12928e-05
-0.000103254
6.64849e-06
-0.000111736
-4.70495e-06
-1.49775e-05
-0.000119844
-9.22296e-07
4.88061e-05
-3.84462e-06
4.69289e-05
-7.02363e-06
4.62523e-05
-1.03177e-05
4.65205e-05
-1.36527e-05
4.79403e-05
-1.69083e-05
5.0747e-05
-1.98846e-05
5.53251e-05
-2.21996e-05
6.22946e-05
-2.31468e-05
7.24845e-05
-2.16383e-05
8.66072e-05
-1.65446e-05
0.00010451
-7.35325e-06
0.000124355
4.82519e-06
0.000141936
1.5864e-05
0.000150562
1.91691e-05
0.000144753
1.36634e-05
0.000128053
2.84335e-06
0.000106716
-1.2148e-05
8.23154e-05
-2.93911e-05
5.83653e-05
-4.63623e-05
3.8264e-05
-6.15118e-05
2.17984e-05
-7.39164e-05
7.70002e-06
-4.65414e-06
-8.42395e-05
5.36243e-10
4.88063e-05
-1.53761e-06
4.84676e-05
-3.59151e-06
4.83066e-05
-5.94172e-06
4.8871e-05
-8.4052e-06
5.04041e-05
-1.07813e-05
5.31234e-05
-1.27978e-05
5.73419e-05
-1.40297e-05
6.35267e-05
-1.38148e-05
7.22698e-05
-1.12645e-05
8.40572e-05
-5.5264e-06
9.87721e-05
3.71531e-06
0.000115114
1.55723e-05
0.000130079
2.71192e-05
0.000139015
3.38325e-05
0.000138039
3.39234e-05
0.000127962
2.85032e-05
0.000112136
1.81417e-05
9.26769e-05
4.4785e-06
7.20285e-05
-1.00403e-05
5.27829e-05
-2.40884e-05
3.58466e-05
-3.7325e-05
2.09369e-05
7.24574e-06
-4.92244e-05
5.38413e-07
4.82681e-05
2.17791e-08
4.89845e-05
-1.03024e-06
4.93589e-05
-2.42006e-06
5.02611e-05
-3.94898e-06
5.19333e-05
-5.39479e-06
5.45694e-05
-6.4714e-06
5.84187e-05
-6.7731e-06
6.38286e-05
-5.72821e-06
7.12251e-05
-2.62638e-06
8.09556e-05
3.18945e-06
9.29564e-05
1.19402e-05
0.000106363
2.30125e-05
0.000119007
3.43233e-05
0.000127705
4.2758e-05
0.000129605
4.63936e-05
0.000124326
4.50803e-05
0.00011345
3.9142e-05
9.86152e-05
2.967e-05
8.15006e-05
1.8441e-05
6.40119e-05
6.64933e-06
4.76384e-05
-5.11848e-06
3.27049e-05
1.87102e-05
-1.65825e-05
8.47314e-07
4.74211e-05
1.03421e-06
4.87979e-05
7.91531e-07
4.96018e-05
2.65531e-07
5.07873e-05
-3.79585e-07
5.25785e-05
-9.42955e-07
5.51329e-05
-1.16088e-06
5.86367e-05
-6.75847e-07
6.33437e-05
9.87551e-07
6.95618e-05
4.37478e-06
7.75685e-05
9.99994e-06
8.73314e-05
1.80967e-05
9.82663e-05
2.82114e-05
0.000108893
3.89148e-05
0.000117001
4.8053e-05
0.000120467
5.39223e-05
0.000118457
5.58728e-05
0.000111499
5.38849e-05
0.000100603
4.84252e-05
8.69603e-05
4.05521e-05
7.1885e-05
3.14713e-05
5.67192e-05
2.18499e-05
4.23265e-05
2.84879e-05
1.20724e-05
1.02222e-06
4.63989e-05
1.68377e-06
4.81364e-05
2.05957e-06
4.92261e-05
2.24404e-06
5.06029e-05
2.36042e-06
5.24622e-05
2.57296e-06
5.49204e-05
3.10033e-06
5.81094e-05
4.23466e-06
6.22094e-05
6.35258e-06
6.7444e-05
9.90412e-06
7.4017e-05
1.52911e-05
8.19445e-05
2.2714e-05
9.08436e-05
3.18861e-05
9.97207e-05
4.18481e-05
0.000107039
5.11123e-05
0.000111203
5.82983e-05
0.000111271
6.26048e-05
0.000107193
6.37505e-05
9.94576e-05
6.18642e-05
8.88467e-05
5.74235e-05
7.63257e-05
5.11987e-05
6.2944e-05
4.39931e-05
4.95321e-05
3.62031e-05
3.62781e-05
1.12104e-06
4.5278e-05
2.09778e-06
4.71597e-05
2.92586e-06
4.8398e-05
3.66317e-06
4.98657e-05
4.397e-06
5.17284e-05
5.25021e-06
5.40673e-05
6.3931e-06
5.69666e-05
8.05631e-06
6.05463e-05
1.05372e-05
6.49632e-05
1.41852e-05
7.03691e-05
1.93283e-05
7.68015e-05
2.61445e-05
8.40274e-05
3.44749e-05
9.13904e-05
4.36916e-05
9.78229e-05
5.27696e-05
0.000102125
6.06363e-05
0.000103405
6.65044e-05
0.000101325
6.99462e-05
9.60159e-05
7.08595e-05
8.79334e-05
6.94299e-05
7.77553e-05
6.61079e-05
6.62661e-05
6.1489e-05
5.4151e-05
4.17193e-05
5.59732e-05
1.17514e-06
4.41027e-05
2.35659e-06
4.59782e-05
3.50301e-06
4.72516e-05
4.64886e-06
4.87198e-05
5.85508e-06
5.05222e-05
7.21019e-06
5.27122e-05
8.84049e-06
5.53363e-05
1.09211e-05
5.84657e-05
1.36807e-05
6.22036e-05
1.73905e-05
6.66594e-05
2.23144e-05
7.18776e-05
2.8616e-05
7.77258e-05
3.62274e-05
8.37791e-05
4.47501e-05
8.93003e-05
5.3482e-05
9.33928e-05
6.16103e-05
9.52766e-05
6.8435e-05
9.45e-05
7.34788e-05
9.09722e-05
7.65067e-05
8.49056e-05
7.75229e-05
7.67391e-05
7.67493e-05
6.70397e-05
7.45458e-05
5.63546e-05
4.5075e-05
7.11902e-05
1.20031e-06
4.29024e-05
2.50849e-06
4.46699e-05
3.86821e-06
4.58918e-05
5.3001e-06
4.72879e-05
6.84787e-06
4.89745e-05
8.5749e-06
5.09852e-05
1.05717e-05
5.33395e-05
1.29666e-05
5.60709e-05
1.59312e-05
5.9239e-05
1.96733e-05
6.29173e-05
2.44048e-05
6.71463e-05
3.02749e-05
7.18558e-05
3.72767e-05
7.67772e-05
4.51694e-05
8.14076e-05
5.34775e-05
8.50848e-05
6.1595e-05
8.71592e-05
6.89335e-05
8.71616e-05
7.50256e-05
8.48802e-05
7.95727e-05
8.03586e-05
8.24598e-05
7.38521e-05
8.37459e-05
6.57536e-05
8.36063e-05
5.64943e-05
4.64655e-05
8.22161e-05
1.20471e-06
4.16975e-05
2.5824e-06
4.32922e-05
4.0734e-06
4.44008e-05
5.6909e-06
4.56704e-05
7.46819e-06
4.71972e-05
9.45174e-06
4.90016e-05
1.17056e-05
5.10856e-05
1.43209e-05
5.34557e-05
1.74227e-05
5.61373e-05
2.11678e-05
5.91722e-05
2.57239e-05
6.25902e-05
3.12242e-05
6.63555e-05
3.77001e-05
7.03015e-05
4.50173e-05
7.40904e-05
5.28604e-05
7.72418e-05
6.07846e-05
7.9235e-05
6.83115e-05
7.96348e-05
7.50147e-05
7.81771e-05
8.05749e-05
7.47984e-05
8.48062e-05
6.96209e-05
8.76569e-05
6.2903e-05
8.9176e-05
5.49752e-05
4.61905e-05
8.94512e-05
1.19172e-06
4.05058e-05
2.59564e-06
4.18882e-05
4.15411e-06
4.28423e-05
5.87641e-06
4.39481e-05
7.78997e-06
4.52836e-05
9.93091e-06
4.68607e-05
1.23453e-05
4.86713e-05
1.50964e-05
5.07046e-05
1.82726e-05
5.29611e-05
2.1989e-05
5.54558e-05
2.63756e-05
5.82036e-05
3.15471e-05
6.1184e-05
3.75547e-05
6.4294e-05
4.43351e-05
6.73101e-05
5.16862e-05
6.98909e-05
5.92875e-05
7.16337e-05
6.67598e-05
7.21626e-05
7.37307e-05
7.12063e-05
7.98873e-05
6.86419e-05
8.50083e-05
6.44999e-05
8.89729e-05
5.89385e-05
9.1747e-05
5.22013e-05
4.45824e-05
9.33552e-05
1.16355e-06
3.93421e-05
2.56011e-06
4.04916e-05
4.13599e-06
4.12664e-05
5.89868e-06
4.21854e-05
7.87241e-06
4.33099e-05
1.00874e-05
4.46458e-05
1.25784e-05
4.61803e-05
1.53896e-05
4.78934e-05
1.85816e-05
4.97691e-05
2.22359e-05
5.18016e-05
2.64497e-05
5.39899e-05
3.1317e-05
5.63168e-05
3.68952e-05
5.87158e-05
4.31654e-05
6.104e-05
5.00045e-05
6.30518e-05
5.7188e-05
6.44503e-05
6.44223e-05
6.49283e-05
7.13932e-05
6.42355e-05
7.78112e-05
6.2224e-05
8.34442e-05
5.88669e-05
8.81343e-05
5.42484e-05
9.17963e-05
4.85394e-05
4.19715e-05
9.44074e-05
1.12186e-06
3.82203e-05
2.48461e-06
3.91288e-05
4.03883e-06
3.97122e-05
5.79114e-06
4.04331e-05
7.76389e-06
4.13372e-05
9.98409e-06
4.24256e-05
1.24802e-05
4.36842e-05
1.52842e-05
4.50895e-05
1.84371e-05
4.66163e-05
2.19941e-05
4.82446e-05
2.60246e-05
4.99594e-05
3.06011e-05
5.17404e-05
3.57772e-05
5.35397e-05
4.15582e-05
5.52591e-05
4.78745e-05
5.67356e-05
5.45736e-05
5.77513e-05
6.14349e-05
5.80671e-05
6.82016e-05
5.74687e-05
7.46177e-05
5.5808e-05
8.04586e-05
5.3026e-05
8.55513e-05
4.91558e-05
8.97817e-05
4.43091e-05
3.86569e-05
9.30964e-05
1.06898e-06
3.71512e-05
2.37702e-06
3.78208e-05
3.87912e-06
3.82101e-05
5.58151e-06
3.87307e-05
7.50513e-06
3.94136e-05
9.67505e-06
4.02557e-05
1.21164e-05
4.12428e-05
1.48543e-05
4.23516e-05
1.79169e-05
4.35538e-05
2.13405e-05
4.4821e-05
2.51716e-05
4.61284e-05
2.94622e-05
4.74498e-05
3.42561e-05
4.87458e-05
3.95682e-05
4.99471e-05
4.5362e-05
5.09418e-05
5.15376e-05
5.15758e-05
5.7934e-05
5.16707e-05
6.43487e-05
5.10541e-05
7.05642e-05
4.95926e-05
7.63753e-05
4.72149e-05
8.16101e-05
4.39211e-05
8.61422e-05
3.97771e-05
3.49026e-05
8.98967e-05
1.00703e-06
3.61442e-05
2.24429e-06
3.65835e-05
3.67124e-06
3.67831e-05
5.29372e-06
3.71083e-05
7.13125e-06
3.75761e-05
9.20741e-06
3.81796e-05
1.15455e-05
3.89047e-05
1.41672e-05
3.973e-05
1.70931e-05
4.06278e-05
2.0347e-05
4.15672e-05
2.39582e-05
4.25173e-05
2.79607e-05
4.34473e-05
3.23861e-05
4.43205e-05
3.72492e-05
4.5084e-05
4.25319e-05
4.56591e-05
4.81697e-05
4.59381e-05
5.40484e-05
4.57921e-05
6.00132e-05
4.50894e-05
6.58867e-05
4.37192e-05
7.14905e-05
4.16112e-05
7.66646e-05
3.87471e-05
8.1281e-05
3.51608e-05
3.09296e-05
8.52542e-05
9.38644e-07
3.52056e-05
2.09339e-06
3.54288e-05
3.42821e-06
3.54484e-05
4.94874e-06
3.55878e-05
6.67293e-06
3.58519e-05
8.62268e-06
3.62299e-05
1.082e-05
3.67075e-05
1.32846e-05
3.72655e-05
1.60337e-05
3.78788e-05
1.90833e-05
3.85176e-05
2.24513e-05
3.91494e-05
2.61577e-05
3.9741e-05
3.02218e-05
4.02565e-05
3.46538e-05
4.0652e-05
3.94432e-05
4.08697e-05
4.45479e-05
4.08335e-05
4.98877e-05
4.04523e-05
5.53474e-05
3.96297e-05
6.07875e-05
3.82792e-05
6.6059e-05
3.63397e-05
7.10205e-05
3.37856e-05
7.55513e-05
3.06301e-05
2.69201e-05
7.95608e-05
8.66218e-07
3.43395e-05
1.93048e-06
3.43646e-05
3.16163e-06
3.42173e-05
4.56502e-06
3.41845e-05
6.1569e-06
3.42601e-05
7.95724e-06
3.44296e-05
9.98648e-06
3.46783e-05
1.22632e-05
3.49888e-05
1.4803e-05
3.53391e-05
1.76181e-05
3.57025e-05
2.07194e-05
3.60481e-05
2.41174e-05
3.6343e-05
2.78215e-05
3.65524e-05
3.18356e-05
3.6638e-05
3.61509e-05
3.65544e-05
4.07377e-05
3.62468e-05
4.55393e-05
3.56508e-05
5.04711e-05
3.4698e-05
5.54259e-05
3.33245e-05
6.0284e-05
3.14816e-05
6.49256e-05
2.91441e-05
6.92418e-05
2.63139e-05
2.30172e-05
7.31449e-05
7.92243e-07
3.35472e-05
1.76145e-06
3.33955e-05
2.88172e-06
3.30971e-05
4.15843e-06
3.29078e-05
5.60607e-06
3.28125e-05
7.24235e-06
3.27934e-05
9.0858e-06
3.28349e-05
1.11538e-05
3.29208e-05
1.34607e-05
3.30322e-05
1.60175e-05
3.31458e-05
1.88316e-05
3.32341e-05
2.19079e-05
3.32668e-05
2.52489e-05
3.32114e-05
2.88532e-05
3.30338e-05
3.27109e-05
3.26968e-05
3.67986e-05
3.21591e-05
4.10745e-05
3.13749e-05
4.54763e-05
3.02962e-05
4.99229e-05
2.8878e-05
5.43204e-05
2.70841e-05
5.85706e-05
2.48939e-05
6.25798e-05
2.23048e-05
1.9331e-05
6.62661e-05
7.18641e-07
3.28287e-05
1.59098e-06
3.25232e-05
2.59701e-06
3.20911e-05
3.74223e-06
3.17626e-05
5.03944e-06
3.15154e-05
6.50403e-06
3.13289e-05
8.15226e-06
3.11867e-05
9.99974e-06
3.10734e-05
1.206e-05
3.09721e-05
1.4343e-05
3.08628e-05
1.68551e-05
3.07221e-05
1.95986e-05
3.05233e-05
2.25725e-05
3.02376e-05
2.57714e-05
2.9835e-05
2.91841e-05
2.92842e-05
3.27904e-05
2.85529e-05
3.65576e-05
2.76077e-05
4.04387e-05
2.64152e-05
4.43724e-05
2.49444e-05
4.82861e-05
2.31705e-05
5.21014e-05
2.10787e-05
5.57398e-05
1.86665e-05
1.59415e-05
5.91293e-05
6.47152e-07
3.21816e-05
1.4231e-06
3.17473e-05
2.31429e-06
3.12e-05
3.32686e-06
3.07501e-05
4.47207e-06
3.03702e-05
5.76302e-06
3.0038e-05
7.21347e-06
2.97363e-05
8.83693e-06
2.945e-05
1.06455e-05
2.91636e-05
1.26485e-05
2.88598e-05
1.48518e-05
2.85189e-05
1.7257e-05
2.81181e-05
1.98617e-05
2.76329e-05
2.26591e-05
2.70376e-05
2.56373e-05
2.6306e-05
2.87779e-05
2.54124e-05
3.2054e-05
2.43316e-05
3.54289e-05
2.30403e-05
3.88557e-05
2.15176e-05
4.22783e-05
1.97478e-05
4.56352e-05
1.77219e-05
4.88627e-05
1.54391e-05
1.29052e-05
5.18991e-05
5.78664e-07
3.16031e-05
1.26018e-06
3.10659e-05
2.03826e-06
3.0422e-05
2.91987e-06
2.98686e-05
3.91506e-06
2.93751e-05
5.03478e-06
2.89183e-05
6.29032e-06
2.84808e-05
7.69283e-06
2.80475e-05
9.25256e-06
2.76039e-05
1.09778e-05
2.71346e-05
1.28741e-05
2.66227e-05
1.4943e-05
2.60492e-05
1.71822e-05
2.53938e-05
1.95849e-05
2.46349e-05
2.21396e-05
2.37513e-05
2.48298e-05
2.27222e-05
2.76326e-05
2.15288e-05
3.05186e-05
2.01544e-05
3.34508e-05
1.85855e-05
3.6386e-05
1.68126e-05
3.92761e-05
1.48318e-05
4.20703e-05
1.26449e-05
1.02571e-05
4.47185e-05
5.13502e-07
3.10896e-05
1.1034e-06
3.04761e-05
1.7714e-06
2.9754e-05
2.52576e-06
2.91143e-05
3.37555e-06
2.85253e-05
4.32976e-06
2.79641e-05
5.39731e-06
2.74133e-05
6.58697e-06
2.68579e-05
7.9069e-06
2.6284e-05
9.364e-06
2.56775e-05
1.0963e-05
2.50237e-05
1.27057e-05
2.43066e-05
1.45901e-05
2.35093e-05
1.66106e-05
2.26145e-05
1.87569e-05
2.1605e-05
2.10144e-05
2.04647e-05
2.33639e-05
1.91793e-05
2.57811e-05
1.77372e-05
2.82368e-05
1.61298e-05
3.06968e-05
1.43526e-05
3.31238e-05
1.24049e-05
3.54781e-05
1.02906e-05
8.01589e-06
3.77194e-05
4.50662e-07
3.0639e-05
9.51854e-07
2.99749e-05
1.51374e-06
2.91922e-05
2.14606e-06
2.8482e-05
2.85702e-06
2.78144e-05
3.65384e-06
2.71673e-05
4.54324e-06
2.65239e-05
5.5317e-06
2.58695e-05
6.62531e-06
2.51904e-05
7.82928e-06
2.44736e-05
9.14737e-06
2.37056e-05
1.05811e-05
2.28728e-05
1.21292e-05
2.19613e-05
1.37868e-05
2.09569e-05
1.55457e-05
1.98462e-05
1.73935e-05
1.86169e-05
1.93143e-05
1.72585e-05
2.12882e-05
1.57634e-05
2.32915e-05
1.41266e-05
2.52974e-05
1.23466e-05
2.72766e-05
1.04256e-05
2.91985e-05
8.36874e-06
6.1825e-06
3.10319e-05
3.88488e-07
3.02505e-05
8.03076e-07
2.95603e-05
1.26307e-06
2.87322e-05
1.77954e-06
2.79655e-05
2.35971e-06
2.72342e-05
3.009e-06
2.65181e-05
3.73212e-06
2.58008e-05
4.53349e-06
2.50681e-05
5.41722e-06
2.43067e-05
6.38689e-06
2.35039e-05
7.44511e-06
2.26474e-05
8.59292e-06
2.1725e-05
9.82927e-06
2.07249e-05
1.11505e-05
1.96357e-05
1.25499e-05
1.84468e-05
1.40177e-05
1.7149e-05
1.55411e-05
1.57352e-05
1.71039e-05
1.42006e-05
1.86872e-05
1.25432e-05
2.027e-05
1.07639e-05
2.18292e-05
8.86638e-06
2.33415e-05
6.85653e-06
4.74089e-06
2.47831e-05
3.23432e-07
2.99272e-05
6.52426e-07
2.92314e-05
1.01507e-06
2.83696e-05
1.42285e-06
2.75578e-05
1.88145e-06
2.67756e-05
2.39444e-06
2.60051e-05
2.96464e-06
2.52306e-05
3.59465e-06
2.44381e-05
4.28691e-06
2.36144e-05
5.04355e-06
2.27473e-05
5.86606e-06
2.18249e-05
6.75494e-06
2.08362e-05
7.70922e-06
1.97706e-05
8.72608e-06
1.86188e-05
9.80049e-06
1.73723e-05
1.0925e-05
1.60245e-05
1.20895e-05
1.45706e-05
1.32817e-05
1.30084e-05
1.44868e-05
1.13381e-05
1.56882e-05
9.56242e-06
1.68684e-05
7.68624e-06
1.80093e-05
5.71553e-06
3.65615e-06
1.90941e-05
2.51009e-07
2.96761e-05
4.94078e-07
2.89883e-05
7.64291e-07
2.80993e-05
1.07154e-06
2.72505e-05
1.41904e-06
2.64281e-05
1.8082e-06
2.56159e-05
2.2401e-06
2.47987e-05
2.71583e-06
2.39624e-05
3.23647e-06
2.30938e-05
3.80301e-06
2.21807e-05
4.41608e-06
2.12118e-05
5.07573e-06
2.01765e-05
5.78109e-06
1.90653e-05
6.5301e-06
1.78698e-05
7.31918e-06
1.65832e-05
8.14303e-06
1.52006e-05
8.99445e-06
1.37192e-05
9.86435e-06
1.21385e-05
1.07418e-05
1.04606e-05
1.16144e-05
8.68981e-06
1.24688e-05
6.83182e-06
1.32918e-05
4.89255e-06
2.87674e-06
1.40712e-05
1.65084e-07
2.95111e-05
3.2156e-07
2.88318e-05
5.05709e-07
2.79152e-05
7.22194e-07
2.7034e-05
9.70522e-07
2.61798e-05
1.24976e-06
2.53367e-05
1.55938e-06
2.44891e-05
1.8993e-06
2.36224e-05
2.26962e-06
2.27234e-05
2.67056e-06
2.17797e-05
3.10222e-06
2.07801e-05
3.56447e-06
1.97142e-05
4.05668e-06
1.8573e-05
4.5776e-06
1.73489e-05
5.12506e-06
1.60358e-05
5.69579e-06
1.46299e-05
6.28527e-06
1.31297e-05
6.88756e-06
1.15362e-05
7.49526e-06
9.85286e-06
8.09971e-06
8.08533e-06
8.69135e-06
6.24018e-06
9.26072e-06
4.32311e-06
2.33751e-06
9.79996e-06
5.94368e-08
2.94516e-05