/*--------------------------------*- C++ -*----------------------------------*\
  =========                 |
  \\      /  F ield         | OpenFOAM: The Open Source CFD Toolbox
   \\    /   O peration     | Website:  https://openfoam.org
    \\  /    A nd           | Version:  13
     \\/     M anipulation  |
\*---------------------------------------------------------------------------*/
FoamFile
{
    format      ascii;
    class       volScalarField;
    location    "0.85";
    object      rho;
}
// * * * * * * * * * * * * * * * * * * * * * * * * * * * * * * * * * * * * * //

dimensions      [1 -3 0 0 0 0 0];

internalField   nonuniform List<scalar> 
2268
(
13529
13529
13529
13529
13529
13529
13529
13529
13529
13529
13529
13529
13529
13529
13529
13529
13529
13529
13529
13529
13526.7
13521.6
13521.6
13529
13529
13529
13529
13529
13529
13529
13529
13529
13529
13529
13529
13529
13529
13529
13529
13529
13529
13529
13529
13528.8
13526.2
13522.5
13529
13529
13529
13529
13529
13529
13529
13529
13529
13529
13529
13529
13529
13529
13529
13529
13529
13529
13529
13529
13529
13529
13529
13529
13529
13529
13529
13529
13529
13529
13529
13529
13529
13529
13529
13529
13529
13529
13529
13529
13529
13529
13529
13529
13529
13529
12336
12672.4
13529
13529
13529
13529
13529
13529
13529
13529
13529
13529
13529
13529
13529
13529
13529
13529
13529
13529
13529
13528.9
13528.8
3336.76
3712
6277.45
10268.7
12917.3
13529
13529
13529
13529
13529
13529
13529
13529
13529
13529
13529
13529
13529
13528.9
13521.2
13424
13186.4
12983.6
1000
1000
1000
1551.26
3529.26
6642.37
9627.69
11616.6
12406.6
12476.1
12450.6
12442.7
12329.3
12051
11628.1
11110.3
10522.6
9799.63
8935.37
7863.9
6361.12
5045.45
4303.97
1000
1000
1000
1000
1000
1007.62
1328.04
1890.94
2457.84
3227.6
3923.95
4083.46
3859.04
3504.73
3163.5
2742.17
2270.52
1781.27
1350.35
999.996
999.998
999.996
1009.72
1040.93
965.184
999.469
1735.29
2252.34
1924.27
1496.02
1470.28
2253.03
5370.21
7427.37
6848.35
4694.74
4303.36
3760.15
3269.79
3623.75
4888.04
6993.68
950.586
926.2
1067.12
4495.31
5947.25
5929.19
5829.43
6590.95
9251.99
11715.1
11967.2
11956.8
11699
11679
8592.03
4098.41
2606.31
6031.94
8643.03
742.313
1458.22
3000.5
4378.28
4339.1
4875.62
5669.72
5474.65
4307.95
4150.1
5107.24
7484.81
10483.5
11881.1
11852.2
6950.51
2603.69
3761.82
9061.84
1013.1
3296.89
3419.53
1370.97
1003.39
1003.23
1003.33
1003.24
1002.48
1001.03
1002.14
1297.18
2464.02
4962.56
10486.3
10342.5
3484.26
1491.08
9122.58
2896.4
2474.63
1364.04
1002.93
1001.79
1000.04
1000.11
1000.5
1000.51
1000.23
1001.58
999.015
998.977
1012.47
7434.43
10352.9
4042.11
1181.49
9191.65
1749.03
997.535
998.994
999.674
999.363
999.757
999.832
999.849
999.883
1000.01
1000.02
999.752
999.112
1055.87
6995.15
6114.64
2832.08
2928.17
9208.47
931.95
939.204
897.87
923.792
921.744
926.913
943.764
961.591
978.037
999.452
999.855
999.875
999.848
1242.97
5089.72
2359.54
1369.55
7176.33
9368.84
724.474
633.076
598.014
620.098
584.621
585.5
612.226
648.07
695.429
770.948
922.018
999.65
1001.93
1294.14
2599.2
469.656
501.505
8633.45
9451.77
1000
1000
1000
1000
1000
1000
1000
1000
1000
1000
1000
1000
1000
1000
1000
1000
1000
1000
999.999
999.999
999.998
999.988
1565.17
1000
1000
1000
1000
1000
1000
1000
1000
1000
1000
1000
1000
1000
1000
1000
1000
1000
1000
1000
1000
999.986
986.766
700.998
1000
1000
1000
1000
1000
1000
1000
1000
1000
1000
1000
1000
1000
1000
1000
1000
1000
1000
999.797
993.96
864.088
324.457
211.193
1000
1000
1000
1000
1000
1000
1000
1000
1000
1000
1000
1000
1000
1000
1000
1000
993.098
979.762
667.718
305.725
186.647
410.976
500
1000
1000
1000
1000
1000
1000
1000
1000
1000
970.538
909.777
852.979
817.121
808.341
814.941
765.891
512.831
417.581
274.817
473.222
499.357
498.915
500
1000
992.844
952.946
895.141
817.363
716.063
591.518
449.097
297.023
187.849
129.664
113.283
123.682
159.174
167.099
152.849
417.89
508.171
482.373
496.639
500
500
500
403.223
344.728
252.224
164.022
93.8059
43.1506
13.0813
1.57116
1.00006
1.00005
1
1
1.0016
1.45346
47.5945
429.133
500.014
500.004
500.002
500
499.999
500
500
1.00011
1.00001
1
1
1
1
1
1
1.00002
1.00002
1.00002
1.00002
1.00001
1.00001
16.9192
382.289
500.02
500.041
500.015
500.002
500
500
500
1.00023
1.00012
1.00008
1
1
1
1
1
1.00001
1.00001
1.00002
1.00002
1.00001
1.00003
1.00057
8.89293
76.3493
247.987
389.898
399.286
379.45
393.044
412.476
1.00004
1.00003
1.00002
1
1
1
1
1
1
1
1.00001
1.00002
1.00004
1.00001
1
1.00001
1.00008
2.09787
7.01635
4.54493
1.39574
25.2344
48.0522
1.00002
1.00001
1
1
1
1
1
1
1
1
1
1.00002
1.00005
1.0001
1.00005
1
1.00001
1.00001
1.00001
1.00001
1.00002
1.00017
1.00019
1.00001
1
1
1
1
1
1
1
1
1
1
1
1.00004
1.0001
1.00026
1.00035
1.00045
1.0004
1.00001
1.00001
1.00001
1.00001
1.00059
1
1
1
1
1
1
1
1
1
1
1
1
1.00001
1.00005
1.00018
1.00048
1.00114
1.00312
1.01309
1.03404
1.00369
1
1.00086
1
1
1
1
1
1
1
1
1
1
1
1
1
1.00001
1.00006
1.00022
1.00076
1.00005
1.05454
1.12011
1.11493
1.02563
1.00056
1
1
1
1
1
1
1
1
1
1
1
1
1
1.00001
1.00001
1.00003
1.00007
1.00003
1.02824
1.11996
1.12008
1.07949
1.00247
1
1
1
1
1
1
1
1
1
1
1
1
1
1
1
1
1
1.00001
1.00078
1.02681
1.08331
1.04013
1.00341
1
1
1
1
1
1
1
1
1
1
1
1
1
1
1
1
1
1.00003
1.00001
1.00001
1.00128
1.00013
1.00121
1
1
1
1
1
1
1
1
1
1
1
1
1
1
1
1
1
1.00002
1.00001
1.00001
1.00001
1.00003
1.00008
1
1
1
1
1
1
1
1
1
1
1
1
1
1
1
1
1
1.00001
1.00001
1.00001
1.00002
1.00003
1.00001
1
1
1
1
1
1
1
1
1
1
1
1
1
1
1
1
1
1
1
1.00001
1.00001
1.00002
1.00001
1
1
1
1
1
1
1
1
1
1
1
1
1
1
1
1
1
1
1
1
1.00001
1.00001
1
1
1
1
1
1
1
1
1
1
1
1
1
1
1
1
1
1
1
1
1
1
1
1
1
1
1
1
1
1
1
1
1
1
1
1
1
1
1
1
1
1
1
1
1
1
1
1
1
1
1
1
1
1
1
1
1
1
1
1
1
1
1
1
1
1
1
1
1
1
1
1
1
1
1
1
1
1
1
1
1
1
1
1
1
1
1
1
1
1
1
1
1
1
1
1
1
1
1
1
1
1
1
1
1
1
1
1
1
1
1
1
1
1
1
1
1
1
1
1
1
1
1
1
1
1
1
1
1
1
1
1
1
1
1
1
1
1
1
1
1
1
1
1
1
1
1
1
1
1
1
1
1
1
1
1
1
1
1
1
1
1
1
1
1
1
1
1
1
1
1
1
1
1
1
1
1
1
1
1
1
1
1
1
1
1
1
1
1
1
1
1
1
1
1
1
1
1
1
1
1
1
1
1
1
1
1
1
1
1
1
1
1
1
1
1
1
1
1
1
1
1
1
1
1
1
1
1
1
1
1
1
1
1
1
1
1
1
1
1
1
1
1
1
1
1
1
1
1
1
1
1
1
1
1
1
1
1
1
1
1
1
1
1
1
1
1
1
1
1
1
1
1
1
1
1
1
1
1
1
1
1
1
1
1
1
1
1
1
1
1
1
1
1
1
1
1
1
1
1
1
1
1
1
1
1
1
1
1
1
1
1
1
1
1
1
1
1
1
1
1
1
1
1
1
1
1
1
1
1
1
1
1
1
1
1
1
1
1
1
1
1
1
1
1
1
1
1
1
1
1
1
1
1
1
1
1
1
1
1
1
1
1
1
1
1
1
1
1
1
1
1
1
1
1
1
1
1
1
1
1
1
1
1
1
1
1
1
1
1
1
1
1
1
1
1
1
1
1
1
1
1
1
1
1
1
1
1
1
1
1
1
1
1
1
1
1
1
1
1
1
1
1
1
1
1
1
1
1
1
1
1
1
1
1
1
1
1
1
1
1
1
1
1
1
1
1
1
1
1
1
1
1
1
1
1
1
1
1
1
1
1
1
1
1
1
1
1
1
1
1
1
1
1
1
1
1
1
1
1
1
1
1
1
2926.57
2832.91
2531.09
1282.31
321.409
206.477
216.217
311.38
414.127
500
500
500
500
500
500
500
500
500
500
500
500
500
500
499.994
500
500
500
499.992
500
500
500
500
371.923
363.936
424.913
459.701
7.34435
2.50728
36.862
87.7375
1.00015
1.00008
1.00003
1.00002
1.00075
1.00042
1.00011
1.00003
1.00357
1.00221
1.00009
1.00007
1.00385
1.00516
1.00467
1.00016
1.0042
1.00528
1.0053
1.00516
1.0056
1.00568
1.00539
1.00525
1.00258
1.00301
1.0044
1.00524
1.00013
1.00019
1.0004
1.00075
1.00001
1.00003
1.00008
1.00015
1.00001
1.00001
1.00002
1.00004
1
1
1.00001
1.00001
1
1
1
1
1
1
1
1
1
1
1
1
1
1
1
1
1
1
1
1
1
1
1
1
1
1
1
1
1
1
1
1
1
1
1
1
1
1
1
1
1
1
1
1
1
1
1
1
1
1
1
1
1
1
1
1
1
1
1
1
1
1
1
1
1
1
1
1
1
1
1
1
1
1
1
1
1
1
1
1
1
1
1
1
578.175
362.219
425.506
484.162
492.844
493.269
496.754
497.68
500.396
511.86
557.816
774.13
995.438
1105.34
1856.04
2433.98
3194.22
6378.69
9398.06
431.069
499.968
500.001
500.001
500.003
500.005
500.006
500.009
500.011
499.986
499.958
503.821
746.091
1056.72
1625.65
4144.98
4420.81
6320.84
9357.65
500
500
500
500
500
500
500.001
500.002
500.003
500.003
500.003
499.99
508.031
802.377
1291.71
2217.88
2261.91
3378.11
6234.91
500
500
500
500
500
500
500
500
500
500
500
499.963
499.961
513.118
812.836
1318.91
1017.97
1362.61
3983.44
499.994
499.982
499.986
499.999
500
500
500
500
500
500
500
499.998
498.125
497.622
511.111
628.924
537.118
947.825
1812.28
499.952
499.938
499.955
500
500
500
500
500
500
500
500
500
500.064
491.396
481.771
497.406
516.823
630.731
109.715
499.96
499.942
499.994
500
500
500
500
500
500
500
500
500
500.041
501.72
473.076
418.848
431.437
456.446
102.869
500
500
500
500
500
500
500
500
499.999
499.999
499.999
500
500
500.001
500.019
458.652
370.492
310.289
90.0545
476.359
492.827
500
500
500
500
500
500
500
499.999
499.999
500
500.001
500.002
500.032
486.394
281.026
152.538
76.5101
139.904
205.622
290.236
377.404
434.312
474.059
494.713
500
500
500
500
500
500
500
498.263
469.194
391.261
337.443
298.354
1.00001
1
1
9.78067
61.7352
128.797
213.297
294.033
352.901
378.78
391.569
394.294
354.946
289.272
227.857
170.207
133.126
103.908
85.9402
1.00004
1.00003
1.00006
1.00005
1.00009
1.0001
1.00006
1.00002
4.43301
17.1629
22.1134
19.4525
1.00003
1.00004
1.00025
1.00002
1.00438
1.00002
1.04537
1.00005
1.00004
1.00013
1.00018
1.00032
1.00048
1.00031
1.00007
1.00004
1.00003
1.00002
1.00003
1.00004
1.00028
1.23255
3.33762
4.16963
3.69708
2.30637
1.00007
1.00003
1.00004
1.00013
1.0009
1.0014
1.00104
1.00055
1.00036
1.00026
1.00036
1.00046
1.00029
1.00039
1.83451
4.77985
4.88688
3.88276
2.1394
1.00312
1
1
1.00001
1.00069
1.00138
1.00148
1.00154
1.0011
1.00049
1.00111
1.00152
1.00057
1.07433
1.14035
1.00004
1.00004
1.00018
1.00059
1.00516
1.00187
1
1.00001
1.00001
1.00011
1.0009
1.00135
1.00128
1.00119
1.00155
1.00233
1.00432
1.00095
1
1
1.00715
1.01966
1.0004
1.00517
1.0036
1.00021
1.00003
1.00001
1.00001
1.00001
1.00014
1.00097
1.001
1.00065
1
1.00001
1
1
1.00005
1.01429
1.02481
1.00024
1.00195
1.00134
1.0003
1.00004
1.00001
1.00001
1
1
1
1.00051
1.00015
1.00001
1.00001
1.00001
1.00001
1.00002
1.00045
1.01196
1.00007
1.00026
1.00022
1.00013
1.00004
1.00002
1.00001
1.00001
1
1
1
1
1.00004
1.00001
1.00001
1.00001
1.00001
1.00001
1.00001
1.00002
1.00008
1.00009
1.00005
1.00003
1.00001
1.00001
1
1
1
1
1
1.00001
1.00001
1.00001
1.00001
1.00001
1.00001
1.00001
1.00002
1.00002
1.00003
1.00002
1.00001
1.00001
1
1
1
1
1
1
1
1.00001
1.00001
1.00001
1.00001
1.00001
1.00001
1.00037
1.00001
1.00001
1.00001
1
1
1
1
1
1
1
1
1
1
1.00001
1.00001
1.00001
1
1.00001
1.00104
1
1
1
1
1
1
1
1
1
1
1
1
1
1
1
1
1
1.00001
1.00102
1
1
1
1
1
1
1
1
1
1
1
1
1
1
1
1
1
1.00001
1.00103
1
1
1
1
1
1
1
1
1
1
1
1
1
1
1
1
1
1.00003
1.00102
1
1
1
1
1
1
1
1
1
1
1
1
1
1
1
1
1
1.00042
1.00106
1
1
1
1
1
1
1
1
1
1
1
1
1
1
1
1
1
1.00089
1.00102
1
1
1
1
1
1
1
1
1
1
1
1
1
1
1
1
1
1.00054
1.00072
1
1
1
1
1
1
1
1
1
1
1
1
1
1
1
1
1.00001
1
1
1
1
1
1
1
1
1
1
1
1
1
1
1
1
1
1.00001
1.00001
1
1
1
1
1
1
1
1
1
1
1
1
1
1
1
1
1.00001
1.00001
1.00003
1.00001
1
1
1
1
1
1
1
1
1
1
1
1
1
1
1.00001
1.00001
1.00002
1.00004
1.00002
1
1
1
1
1
1
1
1
1
1
1
1
1
1
1.00001
1.00002
1.00005
1.00006
1.00002
1
1
1
1
1
1
1
1
1
1
1
1
1
1
1.00001
1.00005
1.00007
1.00007
1.00003
1
1
1
1
1
1
1
1
1
1
1
1
1
1
1.00003
1.00006
1.00007
1.00007
1.00002
1
1
1
1
1
1
1
1
1
1
1
1
1
1.00001
1.00002
1.00004
1.00006
1.00004
1.00001
1
1
1
1
1
1
1
1
1
1
1
1
1
1.00001
1.00001
1.00001
1.00002
1.00001
1
1
1
1
1
1
1
1
1
1
1
1
1
1
1.00001
1
1
1
1
1
1
1
1
1
1
1
1
1
1
1
1
1
1
1
1
1
1
1
1
1
1
1
1
1
1
1
1
1
1
1
1
1
1
1
1
1
1
1
1
1
1
1
1
1
1
1
1
1
1
1
1
1
1
1
1
1
1
1
1
1
1
1
1
1
1
1
1
1
1
1
1
1
1
1
1
1
1
)
;

boundaryField
{
    leftWall
    {
        type            calculated;
        value           nonuniform List<scalar> 
50
(
13529
13529
13529
13529
12336
3336.76
1000
1000
1000
1000
1000
1000
1000
1000
403.223
1.00011
1.00023
1.00004
1.00002
1.00001
1
1
1
1
1
1
1
1
1
1
1
1
1
1
1
1
1
1
1
1
1
1
1
1
1
1
1
1
1
1
)
;
    }
    rightWall
    {
        type            calculated;
        value           nonuniform List<scalar> 
50
(
6993.68
8643.03
9061.84
9122.58
9191.65
9208.47
9368.84
9451.77
9398.06
9357.65
6234.91
3983.44
1812.28
109.715
102.869
90.0545
76.5101
298.354
85.9402
1.04537
2.30637
2.1394
1.00059
1.0004
1.00024
1.00007
1.00002
1.00002
1.00037
1.00104
1.00102
1.00103
1.00102
1.00106
1.00102
1.00072
1
1
1
1
1
1
1
1
1
1
1
1
1
1
)
;
    }
    lowerWall
    {
        type            calculated;
        value           nonuniform List<scalar> 
62
(
13529
13529
13529
13529
13529
13529
13529
13529
13529
13529
13529
13529
13529
13529
13529
13529
13529
13529
13529
13529
13526.7
13521.6
13521.6
13521.6
13522.5
13529
13529
13528.8
12983.6
4303.97
1009.72
2926.57
2832.91
2531.09
1282.31
1040.93
950.586
742.313
1013.1
2896.4
1749.03
931.95
724.474
1040.93
965.184
999.469
1735.29
2252.34
1924.27
1496.02
1470.28
2253.03
5370.21
7427.37
6848.35
4694.74
4303.36
3760.15
3269.79
3623.75
4888.04
6993.68
)
;
    }
    atmosphere
    {
        type            calculated;
        value           nonuniform List<scalar> 
46
(
1
1
1
1
1
1
1
1
1
1
1
1
1
1
1
1
1
1
1
1
1
1
1
1
1
1
1
1
1
1
1
1
1
1
1
1
1
1
1
1
1
1
1
1
1
1
)
;
    }
    defaultFaces
    {
        type            empty;
    }
}


// ************************************************************************* //
