/*--------------------------------*- C++ -*----------------------------------*\
  =========                 |
  \\      /  F ield         | OpenFOAM: The Open Source CFD Toolbox
   \\    /   O peration     | Website:  https://openfoam.org
    \\  /    A nd           | Version:  13
     \\/     M anipulation  |
\*---------------------------------------------------------------------------*/
FoamFile
{
    format      ascii;
    class       volVectorField;
    location    "0.85";
    object      U;
}
// * * * * * * * * * * * * * * * * * * * * * * * * * * * * * * * * * * * * * //

dimensions      [0 1 -1 0 0 0 0];

internalField   nonuniform List<vector> 
2268
(
(-0.0425531 0.0169509 0)
(-0.0824849 0.0120712 0)
(-0.130938 0.0115843 0)
(-0.172534 0.0103372 0)
(-0.206303 0.00872718 0)
(-0.232488 0.00703241 0)
(-0.251525 0.00533979 0)
(-0.263867 0.00363494 0)
(-0.269909 0.00190065 0)
(-0.269875 4.3618e-05 0)
(-0.263653 -0.00201238 0)
(-0.251441 -0.00408717 0)
(-0.234255 -0.00586412 0)
(-0.213394 -0.00729592 0)
(-0.189729 -0.00852959 0)
(-0.163663 -0.00967005 0)
(-0.135437 -0.0107283 0)
(-0.10549 -0.0115741 0)
(-0.0747343 -0.0120229 0)
(-0.044726 -0.0117712 0)
(-0.0182161 -0.0104994 0)
(0.00611613 -0.00626181 0)
(0.0102066 0.00308155 0)
(-0.0378957 0.0428448 0)
(-0.0908073 0.0374885 0)
(-0.144647 0.0334066 0)
(-0.188572 0.0274838 0)
(-0.222215 0.0214752 0)
(-0.246474 0.0158877 0)
(-0.262194 0.0107285 0)
(-0.270111 0.00586618 0)
(-0.271048 0.00131396 0)
(-0.265905 -0.00306918 0)
(-0.25541 -0.00739568 0)
(-0.240344 -0.0112363 0)
(-0.221852 -0.0141736 0)
(-0.201016 -0.0163144 0)
(-0.178409 -0.0180204 0)
(-0.154266 -0.0195143 0)
(-0.128781 -0.020804 0)
(-0.102396 -0.0216271 0)
(-0.0759732 -0.0216062 0)
(-0.0508262 -0.0202105 0)
(-0.0290672 -0.016871 0)
(-0.010281 -0.00989071 0)
(-0.00341252 0.00481042 0)
(-0.0378896 0.0743483 0)
(-0.102133 0.065733 0)
(-0.15667 0.0563149 0)
(-0.199313 0.0450815 0)
(-0.230305 0.0341139 0)
(-0.251237 0.0241491 0)
(-0.263336 0.0151391 0)
(-0.267569 0.0068458 0)
(-0.265165 -0.000585355 0)
(-0.257496 -0.00736119 0)
(-0.245531 -0.0136728 0)
(-0.23002 -0.0190244 0)
(-0.211972 -0.0230034 0)
(-0.192196 -0.0258802 0)
(-0.171036 -0.0281841 0)
(-0.148648 -0.0301802 0)
(-0.12527 -0.0318171 0)
(-0.101416 -0.0326907 0)
(-0.0779296 -0.0322864 0)
(-0.0558864 -0.0299566 0)
(-0.0368509 -0.0250412 0)
(-0.0201187 -0.0165688 0)
(-0.0104472 -0.00162117 0)
(-0.0428135 0.103867 0)
(-0.11288 0.0941386 0)
(-0.166515 0.0789628 0)
(-0.206525 0.062026 0)
(-0.234136 0.0456544 0)
(-0.25149 0.0311091 0)
(-0.260284 0.0181674 0)
(-0.261665 0.00654132 0)
(-0.257145 -0.00346371 0)
(-0.248363 -0.0122123 0)
(-0.236151 -0.0201443 0)
(-0.22109 -0.0267246 0)
(-0.204022 -0.0315574 0)
(-0.185539 -0.0350779 0)
(-0.165825 -0.0379469 0)
(-0.145009 -0.0404216 0)
(-0.123415 -0.0423667 0)
(-0.101648 -0.0432395 0)
(-0.0805175 -0.0424375 0)
(-0.0608225 -0.0392656 0)
(-0.0436133 -0.0331825 0)
(-0.0274712 -0.0242873 0)
(-0.0132815 -0.00950539 0)
(-0.052718 0.130571 0)
(-0.119796 0.116186 0)
(-0.171327 0.096606 0)
(-0.20869 0.0761968 0)
(-0.233154 0.0555847 0)
(-0.247529 0.0368152 0)
(-0.253884 0.020075 0)
(-0.253382 0.00530249 0)
(-0.247865 -0.00692305 0)
(-0.239006 -0.0172854 0)
(-0.227344 -0.0266106 0)
(-0.213272 -0.0342619 0)
(-0.197492 -0.0398599 0)
(-0.180426 -0.0440038 0)
(-0.162149 -0.0474546 0)
(-0.142819 -0.0503949 0)
(-0.122884 -0.0525741 0)
(-0.103039 -0.0533307 0)
(-0.0840367 -0.0520671 0)
(-0.0663975 -0.0481554 0)
(-0.0507049 -0.0412917 0)
(-0.0346592 -0.0330954 0)
(-0.0182439 -0.020842 0)
(-0.0554932 0.181722 0)
(-0.114525 0.144972 0)
(-0.166767 0.114415 0)
(-0.202715 0.0869525 0)
(-0.225644 0.0624038 0)
(-0.238855 0.0408317 0)
(-0.244128 0.0212047 0)
(-0.243 0.00382553 0)
(-0.237722 -0.0102298 0)
(-0.22974 -0.0219621 0)
(-0.219253 -0.0325358 0)
(-0.206587 -0.0411495 0)
(-0.192349 -0.0474531 0)
(-0.176811 -0.0521939 0)
(-0.15999 -0.0561791 0)
(-0.142118 -0.0594527 0)
(-0.123806 -0.06165 0)
(-0.105839 -0.0620348 0)
(-0.0889075 -0.0601136 0)
(-0.0732681 -0.0554214 0)
(-0.059127 -0.0479238 0)
(-0.0429398 -0.0407367 0)
(-0.0299337 -0.0350119 0)
(-0.0193646 0.237267 0)
(-0.0653323 0.189337 0)
(-0.124271 0.142865 0)
(-0.177743 0.100989 0)
(-0.207922 0.0699286 0)
(-0.223452 0.0444768 0)
(-0.229907 0.0221621 0)
(-0.230278 0.00301202 0)
(-0.226965 -0.0122941 0)
(-0.220739 -0.0251618 0)
(-0.21191 -0.0368055 0)
(-0.201087 -0.0461983 0)
(-0.188726 -0.0530985 0)
(-0.174899 -0.058382 0)
(-0.159639 -0.0628575 0)
(-0.143331 -0.0663792 0)
(-0.12679 -0.0685004 0)
(-0.110886 -0.0684764 0)
(-0.09634 -0.0659663 0)
(-0.0833592 -0.0606056 0)
(-0.0717497 -0.0525519 0)
(-0.0555089 -0.0458876 0)
(-0.0534079 -0.0478475 0)
(0.00802716 0.229414 0)
(-0.0170234 0.207962 0)
(-0.0573643 0.176731 0)
(-0.104043 0.135277 0)
(-0.151435 0.086906 0)
(-0.187045 0.0496281 0)
(-0.206055 0.022757 0)
(-0.212987 0.00182569 0)
(-0.213944 -0.0143047 0)
(-0.21066 -0.0280388 0)
(-0.204605 -0.0406252 0)
(-0.196681 -0.0506877 0)
(-0.186974 -0.0581441 0)
(-0.175399 -0.0639755 0)
(-0.162262 -0.0689616 0)
(-0.148264 -0.0726935 0)
(-0.134435 -0.0746635 0)
(-0.121848 -0.0741937 0)
(-0.111415 -0.0711733 0)
(-0.103683 -0.0655503 0)
(-0.100607 -0.0576855 0)
(-0.090598 -0.0517046 0)
(-0.132412 -0.0977507 0)
(-0.231033 0.0474859 0)
(-0.146162 -0.0136579 0)
(-0.0875076 -0.0546361 0)
(0.171626 -0.0899801 0)
(0.264839 -0.0456074 0)
(0.328003 -0.0173794 0)
(0.350283 0.00101263 0)
(0.341158 0.0067625 0)
(0.337221 0.000960441 0)
(0.348859 -0.00298585 0)
(0.34811 0.00428061 0)
(0.324337 0.0144031 0)
(0.267829 0.0223264 0)
(0.215864 0.0136687 0)
(0.180253 0.0192623 0)
(0.145541 0.0844799 0)
(-0.336666 0.0681643 0)
(-0.445719 -0.0287555 0)
(-0.163795 -0.14649 0)
(-0.149609 0.0894463 0)
(0.0729067 -0.0660442 0)
(0.176299 -0.0821031 0)
(0.238353 -0.0894976 0)
(0.277366 -0.0539551 0)
(0.314922 -0.0263411 0)
(0.34021 -0.00861248 0)
(0.356172 2.50477e-05 0)
(0.365224 -0.00297431 0)
(0.365385 -0.00353776 0)
(0.353029 0.00916311 0)
(0.325778 0.0257232 0)
(0.284502 0.0363343 0)
(0.240421 0.0303526 0)
(0.202806 0.0341487 0)
(0.19635 0.113916 0)
(-0.0800309 0.188505 0)
(-0.296622 0.0191739 0)
(-0.0382502 -0.204905 0)
(0.00851358 0.109497 0)
(0.180977 -0.119228 0)
(0.229501 -0.113492 0)
(0.25231 -0.100076 0)
(0.271668 -0.0630499 0)
(0.299784 -0.0342686 0)
(0.324485 -0.0151736 0)
(0.343262 -0.00372583 0)
(0.352325 -0.00252781 0)
(0.346811 -0.000535316 0)
(0.327618 0.0161612 0)
(0.298446 0.0357075 0)
(0.259539 0.0485327 0)
(0.210252 0.0465131 0)
(0.168388 0.0487259 0)
(0.172609 0.143044 0)
(0.0486746 0.270809 0)
(-0.208279 0.0224501 0)
(0.0306941 -0.273887 0)
(0.201169 -0.00925514 0)
(0.214354 -0.13456 0)
(0.230087 -0.123236 0)
(0.238949 -0.103777 0)
(0.247927 -0.0695704 0)
(0.27109 -0.0419944 0)
(0.294573 -0.0216646 0)
(0.311717 -0.00838978 0)
(0.315397 -0.00252218 0)
(0.304404 0.00605635 0)
(0.281413 0.028025 0)
(0.249482 0.0504646 0)
(0.206997 0.0634537 0)
(0.150003 0.0611069 0)
(0.109244 0.0555654 0)
(0.117974 0.161135 0)
(0.053703 0.328786 0)
(-0.15425 0.0494761 0)
(0.0648688 -0.312854 0)
(0.188629 -0.102914 0)
(0.200141 -0.138415 0)
(0.203526 -0.124831 0)
(0.197262 -0.105178 0)
(0.201612 -0.0789547 0)
(0.217493 -0.0551669 0)
(0.234782 -0.0336089 0)
(0.248014 -0.0149479 0)
(0.250181 -0.000656931 0)
(0.236853 0.0161112 0)
(0.209568 0.0443344 0)
(0.169767 0.075823 0)
(0.121654 0.0975854 0)
(0.0535056 0.08562 0)
(0.0375483 0.0574057 0)
(0.0367827 0.174764 0)
(-0.0186197 0.381426 0)
(-0.16628 0.0637754 0)
(0.0691094 -0.335778 0)
(0.131897 -0.15913 0)
(0.144293 -0.142005 0)
(0.145413 -0.124354 0)
(0.143187 -0.105585 0)
(0.151742 -0.0825758 0)
(0.166067 -0.0604 0)
(0.181217 -0.0382956 0)
(0.192655 -0.0171871 0)
(0.193796 0.00197612 0)
(0.179433 0.0248591 0)
(0.14997 0.0574266 0)
(0.104473 0.0939623 0)
(0.0483115 0.124617 0)
(-0.0434051 0.110543 0)
(-0.0328081 0.0627905 0)
(-0.0695958 0.194973 0)
(-0.127853 0.415262 0)
(-0.146055 0.0131687 0)
(0.0484065 -0.351403 0)
(0.0520553 -0.211327 0)
(0.0668057 -0.149272 0)
(0.078768 -0.125624 0)
(0.0854463 -0.108144 0)
(0.0991172 -0.0872615 0)
(0.114987 -0.0658698 0)
(0.130545 -0.0430909 0)
(0.142016 -0.019411 0)
(0.143189 0.00473431 0)
(0.128866 0.0340096 0)
(0.0987722 0.0729273 0)
(0.0530235 0.115642 0)
(5.66362e-05 0.150438 0)
(-0.0900852 0.129658 0)
(-0.0998474 0.0756121 0)
(-0.197627 0.223576 0)
(-0.202521 0.388824 0)
(-0.0828594 -0.0266553 0)
(0.0139312 -0.361921 0)
(-0.0165266 -0.213037 0)
(-0.00913795 -0.151188 0)
(0.00472442 -0.128881 0)
(0.0173792 -0.113019 0)
(0.0355589 -0.0934764 0)
(0.0548221 -0.0726607 0)
(0.0732561 -0.0489651 0)
(0.0873012 -0.0223416 0)
(0.0911056 0.00702663 0)
(0.0795205 0.0425793 0)
(0.0523747 0.0873903 0)
(0.0108072 0.136222 0)
(-0.0352678 0.175877 0)
(-0.115643 0.155463 0)
(-0.161969 0.104735 0)
(-0.325201 0.261009 0)
(-0.208105 0.306464 0)
(-0.0389286 -0.0576059 0)
(-0.0159236 -0.373967 0)
(0.013997 0.214793 0)
(0.0170209 0.214421 0)
(0.00301818 0.194063 0)
(-0.0207733 0.163294 0)
(-0.0531922 0.126178 0)
(-0.0883683 0.0866574 0)
(-0.121796 0.0455625 0)
(-0.150054 0.010437 0)
(-0.17 -0.0140366 0)
(-0.18212 -0.0326591 0)
(-0.188185 -0.0478571 0)
(-0.189913 -0.0598277 0)
(-0.188486 -0.0694293 0)
(-0.184695 -0.077469 0)
(-0.179856 -0.0840135 0)
(-0.175899 -0.0882782 0)
(-0.174709 -0.0895393 0)
(-0.177965 -0.0870192 0)
(-0.186152 -0.0807731 0)
(-0.197775 -0.0708663 0)
(-0.207668 -0.0602543 0)
(-0.215806 -0.0600364 0)
(-0.246188 -0.118271 0)
(0.00610203 0.201604 0)
(0.0172065 0.211694 0)
(0.0164332 0.199948 0)
(0.00825612 0.176614 0)
(-0.0085067 0.145204 0)
(-0.0310567 0.110458 0)
(-0.0561659 0.0754718 0)
(-0.0817061 0.0426177 0)
(-0.105952 0.0139519 0)
(-0.128398 -0.0112836 0)
(-0.148771 -0.0326179 0)
(-0.168286 -0.0495324 0)
(-0.187436 -0.0625062 0)
(-0.20615 -0.0720678 0)
(-0.224384 -0.0776639 0)
(-0.242184 -0.0784921 0)
(-0.259947 -0.0745602 0)
(-0.278862 -0.0664112 0)
(-0.298574 -0.056681 0)
(-0.317095 -0.049524 0)
(-0.330309 -0.047035 0)
(-0.335867 -0.0490903 0)
(-0.349458 -0.0682953 0)
(0.000334903 0.192834 0)
(0.0111909 0.205699 0)
(0.0143744 0.200076 0)
(0.0135153 0.183695 0)
(0.00638063 0.158803 0)
(-0.00613115 0.128705 0)
(-0.0225464 0.0965768 0)
(-0.0418101 0.0653483 0)
(-0.0633427 0.0374941 0)
(-0.0873497 0.0140543 0)
(-0.115318 -0.00504446 0)
(-0.149059 -0.0198606 0)
(-0.189227 -0.0307608 0)
(-0.233255 -0.0386632 0)
(-0.276752 -0.0444254 0)
(-0.316596 -0.0472929 0)
(-0.351973 -0.0458857 0)
(-0.384214 -0.0416874 0)
(-0.412593 -0.0365984 0)
(-0.439727 -0.0315878 0)
(-0.464912 -0.0213845 0)
(-0.489586 -0.011584 0)
(-0.532405 -0.0569279 0)
(-0.000354768 0.18804 0)
(0.00936993 0.199569 0)
(0.0133983 0.197331 0)
(0.0156293 0.185502 0)
(0.0138393 0.165417 0)
(0.00822329 0.139575 0)
(-0.0011165 0.111139 0)
(-0.0142547 0.0837055 0)
(-0.0320127 0.0606159 0)
(-0.0566654 0.0441435 0)
(-0.09237 0.0352892 0)
(-0.14333 0.0324617 0)
(-0.209415 0.0308659 0)
(-0.283146 0.0248208 0)
(-0.353242 0.0127024 0)
(-0.412151 -8.659e-05 0)
(-0.461882 -0.0078122 0)
(-0.507723 -0.00402597 0)
(-0.546083 0.00952593 0)
(-0.596924 0.0211616 0)
(-0.649272 0.0072501 0)
(-0.677965 -0.0105575 0)
(-0.677339 -0.0437125 0)
(0.00380528 0.180927 0)
(0.0140934 0.193005 0)
(0.0183855 0.192989 0)
(0.0220414 0.183686 0)
(0.0235938 0.166371 0)
(0.0228978 0.143552 0)
(0.0191341 0.11845 0)
(0.0110911 0.0948725 0)
(-0.00366583 0.0767927 0)
(-0.0299898 0.0678365 0)
(-0.0765907 0.0718539 0)
(-0.153393 0.086489 0)
(-0.258562 0.0986513 0)
(-0.373649 0.0965498 0)
(-0.47363 0.0816286 0)
(-0.550191 0.0676457 0)
(-0.618868 0.0618366 0)
(-0.682561 0.0562534 0)
(-0.747511 0.0584103 0)
(-0.792602 0.0539673 0)
(-0.805759 0.0391391 0)
(-0.799806 0.000398142 0)
(-0.786169 -0.0527133 0)
(0.00701773 0.172752 0)
(0.0214767 0.186391 0)
(0.0263294 0.187596 0)
(0.0316282 0.179407 0)
(0.0361851 0.163448 0)
(0.039601 0.142701 0)
(0.0402141 0.120497 0)
(0.0351747 0.101167 0)
(0.0200933 0.0907381 0)
(-0.0149511 0.0952798 0)
(-0.085111 0.119541 0)
(-0.202458 0.155549 0)
(-0.365385 0.178766 0)
(-0.552787 0.186658 0)
(-0.690911 0.182609 0)
(-0.806987 0.14064 0)
(-0.861184 0.111206 0)
(-0.886616 0.106406 0)
(-0.904532 0.0987929 0)
(-0.904893 0.070906 0)
(-0.897602 0.0324902 0)
(-0.883789 -0.0168372 0)
(-0.866928 -0.0721774 0)
(0.00660444 0.159897 0)
(0.030199 0.178473 0)
(0.0379473 0.18254 0)
(0.0475556 0.176154 0)
(0.0559452 0.16171 0)
(0.0625128 0.143218 0)
(0.0643658 0.122696 0)
(0.052359 0.101682 0)
(0.0158639 0.0958865 0)
(-0.0504767 0.119292 0)
(-0.15652 0.18306 0)
(-0.307731 0.257803 0)
(-0.527542 0.29625 0)
(-0.912045 0.309608 0)
(-1.03316 0.223826 0)
(-1.01244 0.167793 0)
(-1.00179 0.133628 0)
(-0.991245 0.111916 0)
(-0.980668 0.0898745 0)
(-0.966242 0.0583912 0)
(-0.950916 0.0165858 0)
(-0.933798 -0.0349741 0)
(-0.916602 -0.0905445 0)
(-0.105247 0.138684 0)
(0.0167373 0.180227 0)
(0.0364862 0.178016 0)
(0.0541037 0.169874 0)
(0.0610246 0.152306 0)
(0.050998 0.135962 0)
(0.0132364 0.140161 0)
(-0.0524277 0.186473 0)
(-0.111607 0.257722 0)
(-0.195779 0.385871 0)
(-0.321155 0.565061 0)
(-0.500448 0.804764 0)
(-0.71393 1.08859 0)
(-1.02346 0.985971 0)
(-1.0362 0.290582 0)
(-1.00616 0.160325 0)
(-1.01695 0.114881 0)
(-1.01051 0.095118 0)
(-0.996661 0.0713575 0)
(-0.979657 0.0400607 0)
(-0.963099 -0.00143319 0)
(-0.9469 -0.0531561 0)
(-0.931621 -0.107704 0)
(-0.0422993 0.179257 0)
(-0.0305478 0.0592409 0)
(-0.0551925 0.128676 0)
(-0.0628712 0.147351 0)
(-0.0758576 0.160176 0)
(-0.0953789 0.17892 0)
(-0.123396 0.198778 0)
(-0.161042 0.22332 0)
(-0.211609 0.275689 0)
(-0.278755 0.378393 0)
(-0.35828 0.539346 0)
(-0.449364 0.753987 0)
(-0.505044 0.976893 0)
(-0.600124 0.968107 0)
(-0.764514 0.372524 0)
(-0.883527 0.120671 0)
(-0.993762 0.109176 0)
(-0.987099 0.0851295 0)
(-0.976309 0.0553723 0)
(-0.959938 0.0238777 0)
(-0.942764 -0.0172511 0)
(-0.926422 -0.0696074 0)
(-0.911223 -0.121366 0)
(-0.0205945 0.202818 0)
(-0.0477026 0.152855 0)
(-0.0827258 0.169227 0)
(-0.099668 0.177098 0)
(-0.119063 0.18537 0)
(-0.141815 0.200273 0)
(-0.168596 0.223905 0)
(-0.200631 0.262001 0)
(-0.239989 0.324993 0)
(-0.284295 0.432554 0)
(-0.325001 0.589346 0)
(-0.35063 0.778855 0)
(-0.348674 0.947897 0)
(-0.336848 0.931922 0)
(-0.461132 0.639759 0)
(-0.647143 0.306426 0)
(-0.883998 0.10414 0)
(-0.943406 0.0653144 0)
(-0.946888 0.0493045 0)
(-0.926636 0.0250681 0)
(-0.894954 -0.0122063 0)
(-0.873022 -0.0731419 0)
(-0.864803 -0.125489 0)
(-0.0101259 0.244388 0)
(-0.0400292 0.201045 0)
(-0.0711289 0.1999 0)
(-0.0933014 0.201992 0)
(-0.115689 0.208992 0)
(-0.138921 0.223917 0)
(-0.16351 0.249964 0)
(-0.189687 0.292583 0)
(-0.217119 0.361415 0)
(-0.241286 0.467765 0)
(-0.25298 0.613302 0)
(-0.242743 0.780745 0)
(-0.203374 0.920993 0)
(-0.154421 0.940964 0)
(-0.180765 0.76249 0)
(-0.295434 0.578717 0)
(-0.441288 0.452005 0)
(-0.580667 0.20576 0)
(-0.718099 0.0355876 0)
(-0.7546 -0.0366585 0)
(-0.759299 -0.074684 0)
(-0.806348 -0.10034 0)
(-0.813256 -0.141128 0)
(-0.00224987 0.254393 0)
(-0.0252788 0.22708 0)
(-0.049496 0.222084 0)
(-0.0707456 0.222906 0)
(-0.0921188 0.230278 0)
(-0.113465 0.245982 0)
(-0.134693 0.272816 0)
(-0.155179 0.315605 0)
(-0.172816 0.381486 0)
(-0.182251 0.477828 0)
(-0.175524 0.604526 0)
(-0.145847 0.746784 0)
(-0.0914096 0.867729 0)
(-0.0250044 0.903435 0)
(-0.00203922 0.805729 0)
(-0.0570028 0.644149 0)
(-0.150184 0.489007 0)
(-0.248732 0.325038 0)
(-0.356039 0.177587 0)
(-0.449986 0.0658352 0)
(-0.521797 -0.00571542 0)
(-0.580704 -0.0571968 0)
(-0.626863 -0.114743 0)
(0.00211571 0.262075 0)
(-0.012586 0.247067 0)
(-0.0291124 0.242353 0)
(-0.0462407 0.243228 0)
(-0.0641215 0.250698 0)
(-0.08194 0.266098 0)
(-0.0989341 0.291705 0)
(-0.113738 0.331344 0)
(-0.123568 0.3903 0)
(-0.123383 0.473275 0)
(-0.106694 0.579471 0)
(-0.0686621 0.697349 0)
(-0.00959061 0.800293 0)
(0.0600937 0.845325 0)
(0.10496 0.796147 0)
(0.0975473 0.684484 0)
(0.0497086 0.55418 0)
(-0.0213615 0.410949 0)
(-0.110908 0.273458 0)
(-0.203867 0.164184 0)
(-0.291095 0.0793267 0)
(-0.366514 0.00533694 0)
(-0.427115 -0.0581263 0)
(0.00395786 0.264154 0)
(-0.00358833 0.25877 0)
(-0.0132804 0.256431 0)
(-0.025187 0.258586 0)
(-0.0383258 0.266521 0)
(-0.0515515 0.281442 0)
(-0.063678 0.305212 0)
(-0.0729996 0.340734 0)
(-0.0766882 0.391768 0)
(-0.0704016 0.46143 0)
(-0.0490654 0.548923 0)
(-0.00910949 0.645877 0)
(0.0493997 0.733657 0)
(0.116914 0.781794 0)
(0.170731 0.76626 0)
(0.189768 0.696011 0)
(0.174197 0.595409 0)
(0.130612 0.477666 0)
(0.0631892 0.35799 0)
(-0.0147926 0.250357 0)
(-0.0917067 0.158328 0)
(-0.165777 0.0794049 0)
(-0.234253 0.0074498 0)
(0.00446063 0.262142 0)
(0.0021383 0.263794 0)
(-0.0021035 0.264516 0)
(-0.0088421 0.26854 0)
(-0.0169279 0.277232 0)
(-0.0251989 0.291707 0)
(-0.0323297 0.313474 0)
(-0.0365769 0.344697 0)
(-0.0353867 0.388052 0)
(-0.0252157 0.445695 0)
(-0.00213183 0.517215 0)
(0.036976 0.597056 0)
(0.0915645 0.67103 0)
(0.154861 0.7191 0)
(0.21144 0.723661 0)
(0.245418 0.684558 0)
(0.251665 0.613757 0)
(0.231802 0.521529 0)
(0.18809 0.419152 0)
(0.13031 0.319692 0)
(0.0678628 0.228976 0)
(0.00436924 0.14741 0)
(-0.0588497 0.0713023 0)
(0.00439618 0.258077 0)
(0.00561602 0.264304 0)
(0.00543898 0.267734 0)
(0.00320667 0.273518 0)
(-0.000174207 0.282953 0)
(-0.00370839 0.297004 0)
(-0.00614892 0.31683 0)
(-0.00591157 0.344024 0)
(-0.00085022 0.380531 0)
(0.0119359 0.428063 0)
(0.035524 0.4863 0)
(0.0722988 0.551331 0)
(0.122144 0.613685 0)
(0.180249 0.659312 0)
(0.236178 0.675126 0)
(0.278164 0.657314 0)
(0.299718 0.610702 0)
(0.299552 0.542214 0)
(0.278695 0.459327 0)
(0.240909 0.370604 0)
(0.19431 0.285148 0)
(0.143904 0.205384 0)
(0.0912815 0.129978 0)
(0.00415524 0.252934 0)
(0.00770116 0.261802 0)
(0.0104373 0.267171 0)
(0.0118103 0.274261 0)
(0.0124405 0.284225 0)
(0.013077 0.297805 0)
(0.0147529 0.315854 0)
(0.018809 0.339525 0)
(0.027004 0.370225 0)
(0.0416105 0.409206 0)
(0.0650877 0.456457 0)
(0.0993593 0.509433 0)
(0.144539 0.561692 0)
(0.197421 0.603445 0)
(0.250984 0.624866 0)
(0.296693 0.620948 0)
(0.328339 0.592505 0)
(0.343193 0.543325 0)
(0.340849 0.4786 0)
(0.322957 0.404227 0)
(0.293277 0.326614 0)
(0.256569 0.251291 0)
(0.21611 0.177542 0)
(0.00389521 0.247142 0)
(0.00894008 0.25726 0)
(0.0137125 0.263764 0)
(0.0178157 0.2716 0)
(0.0216397 0.281757 0)
(0.025707 0.294762 0)
(0.0308075 0.311188 0)
(0.0380076 0.331827 0)
(0.0487081 0.357684 0)
(0.0646772 0.3897 0)
(0.0878536 0.428034 0)
(0.119814 0.4711 0)
(0.160861 0.514601 0)
(0.208982 0.551726 0)
(0.259501 0.575081 0)
(0.306286 0.579641 0)
(0.344021 0.564078 0)
(0.36942 0.529862 0)
(0.381099 0.480186 0)
(0.379284 0.419414 0)
(0.365855 0.352393 0)
(0.343907 0.283257 0)
(0.316293 0.213293 0)
(0.0036662 0.240965 0)
(0.00965914 0.251361 0)
(0.0158136 0.258311 0)
(0.0218885 0.266364 0)
(0.0281175 0.276352 0)
(0.0348519 0.288631 0)
(0.042664 0.30354 0)
(0.0523596 0.321578 0)
(0.0650185 0.34343 0)
(0.0820041 0.369791 0)
(0.104834 0.400893 0)
(0.134812 0.435808 0)
(0.172372 0.471731 0)
(0.216351 0.503942 0)
(0.263673 0.526897 0)
(0.309971 0.536062 0)
(0.350933 0.529153 0)
(0.383304 0.506117 0)
(0.405154 0.468645 0)
(0.415875 0.419652 0)
(0.41615 0.362739 0)
(0.407733 0.301191 0)
(0.392488 0.23704 0)
(0.00347335 0.234581 0)
(0.0100382 0.244592 0)
(0.0170882 0.25145 0)
(0.0245138 0.259279 0)
(0.0324543 0.268771 0)
(0.0411456 0.280156 0)
(0.0509917 0.293599 0)
(0.0625753 0.309366 0)
(0.0767009 0.327883 0)
(0.0944042 0.349634 0)
(0.116867 0.374857 0)
(0.145165 0.403048 0)
(0.179812 0.432418 0)
(0.220222 0.459729 0)
(0.264417 0.480859 0)
(0.309319 0.491956 0)
(0.351536 0.490454 0)
(0.388123 0.475424 0)
(0.41698 0.447461 0)
(0.436983 0.408365 0)
(0.448039 0.36066 0)
(0.450879 0.306973 0)
(0.446574 0.249468 0)
(0.00330989 0.228113 0)
(0.0101773 0.237307 0)
(0.0177535 0.243681 0)
(0.0260339 0.250944 0)
(0.0351043 0.259672 0)
(0.0451301 0.270006 0)
(0.0563973 0.281992 0)
(0.0693151 0.295725 0)
(0.0844615 0.311421 0)
(0.102605 0.329381 0)
(0.124656 0.349801 0)
(0.151496 0.372424 0)
(0.183662 0.396135 0)
(0.220947 0.418747 0)
(0.262132 0.437243 0)
(0.305076 0.448482 0)
(0.347168 0.449984 0)
(0.385879 0.440393 0)
(0.419148 0.419579 0)
(0.445597 0.388496 0)
(0.46461 0.348853 0)
(0.476253 0.302682 0)
(0.481028 0.252022 0)
(0.0031603 0.221663 0)
(0.0101277 0.229772 0)
(0.0179481 0.235391 0)
(0.0266919 0.241845 0)
(0.0364172 0.249606 0)
(0.0472501 0.258758 0)
(0.0594022 0.269275 0)
(0.0731582 0.281135 0)
(0.0889202 0.294394 0)
(0.107241 0.309197 0)
(0.128804 0.325664 0)
(0.154317 0.343663 0)
(0.184296 0.362509 0)
(0.218769 0.380748 0)
(0.257034 0.396217 0)
(0.297635 0.406449 0)
(0.338605 0.409239 0)
(0.377841 0.403096 0)
(0.413443 0.387464 0)
(0.443945 0.362701 0)
(0.468437 0.329889 0)
(0.48654 0.29056 0)
(0.498398 0.246465 0)
(0.00301248 0.215319 0)
(0.00992458 0.222191 0)
(0.0177678 0.226884 0)
(0.0266669 0.232372 0)
(0.0366653 0.239031 0)
(0.047869 0.246906 0)
(0.0604469 0.255936 0)
(0.0746029 0.266029 0)
(0.0906105 0.277131 0)
(0.108852 0.289257 0)
(0.129824 0.302443 0)
(0.154073 0.316597 0)
(0.182058 0.331289 0)
(0.213933 0.345565 0)
(0.249339 0.35791 0)
(0.287321 0.366453 0)
(0.32643 0.36935 0)
(0.364969 0.365166 0)
(0.40126 0.353134 0)
(0.433869 0.33322 0)
(0.461733 0.306047 0)
(0.484238 0.272711 0)
(0.501294 0.23463 0)
(0.0028575 0.209159 0)
(0.0095912 0.214726 0)
(0.017285 0.218399 0)
(0.0260985 0.222833 0)
(0.0360676 0.228313 0)
(0.0472879 0.234858 0)
(0.0599061 0.242392 0)
(0.0740794 0.250791 0)
(0.0899953 0.259937 0)
(0.107909 0.269748 0)
(0.128163 0.280177 0)
(0.151162 0.291126 0)
(0.177279 0.302304 0)
(0.206714 0.31308 0)
(0.239321 0.322413 0)
(0.274501 0.328932 0)
(0.311219 0.331172 0)
(0.348145 0.327867 0)
(0.383855 0.318196 0)
(0.417017 0.301893 0)
(0.446549 0.279249 0)
(0.471702 0.251006 0)
(0.492255 0.218239 0)
(0.00269347 0.203253 0)
(0.00915246 0.207503 0)
(0.0165606 0.210122 0)
(0.0251019 0.213468 0)
(0.0348057 0.217745 0)
(0.0457615 0.222948 0)
(0.0581045 0.228997 0)
(0.0719676 0.235765 0)
(0.0874872 0.243099 0)
(0.104831 0.250861 0)
(0.124224 0.258938 0)
(0.145943 0.267202 0)
(0.170271 0.275428 0)
(0.197396 0.283183 0)
(0.227286 0.289756 0)
(0.259582 0.29417 0)
(0.29357 0.295314 0)
(0.328239 0.292146 0)
(0.362425 0.283891 0)
(0.394956 0.270177 0)
(0.424792 0.25107 0)
(0.451162 0.227029 0)
(0.473764 0.198829 0)
(0.00251894 0.197655 0)
(0.00862879 0.200624 0)
(0.015649 0.202196 0)
(0.0237769 0.204466 0)
(0.0330361 0.207557 0)
(0.0435104 0.211442 0)
(0.0553276 0.216045 0)
(0.0686092 0.221243 0)
(0.083465 0.226881 0)
(0.100009 0.232795 0)
(0.118382 0.238826 0)
(0.138761 0.244818 0)
(0.161337 0.250569 0)
(0.186258 0.255761 0)
(0.213536 0.259901 0)
(0.242962 0.262305 0)
(0.274051 0.262161 0)
(0.306064 0.258658 0)
(0.338079 0.251131 0)
(0.369108 0.239184 0)
(0.398219 0.222752 0)
(0.42466 0.202087 0)
(0.448098 0.177705 0)
(0.00233869 0.19241 0)
(0.00804486 0.194161 0)
(0.0146008 0.194729 0)
(0.0222117 0.195963 0)
(0.0308948 0.197918 0)
(0.040727 0.200544 0)
(0.0518285 0.203765 0)
(0.0643143 0.207472 0)
(0.0782824 0.211521 0)
(0.0938183 0.215743 0)
(0.11101 0.219963 0)
(0.129962 0.224004 0)
(0.150787 0.227671 0)
(0.17358 0.230708 0)
(0.198358 0.23276 0)
(0.22499 0.233349 0)
(0.253152 0.231897 0)
(0.28231 0.2278 0)
(0.31176 0.220528 0)
(0.340702 0.209719 0)
(0.368332 0.195244 0)
(0.393972 0.177214 0)
(0.417281 0.155953 0)
(0.0021568 0.187544 0)
(0.00742096 0.188169 0)
(0.0134622 0.187795 0)
(0.020485 0.188059 0)
(0.0285008 0.188952 0)
(0.0375788 0.190402 0)
(0.0478297 0.192333 0)
(0.0593621 0.194646 0)
(0.0722681 0.197214 0)
(0.086621 0.199883 0)
(0.102481 0.202478 0)
(0.119904 0.204819 0)
(0.138949 0.206712 0)
(0.159659 0.207938 0)
(0.182033 0.208226 0)
(0.205979 0.207235 0)
(0.23127 0.204559 0)
(0.257522 0.199765 0)
(0.284211 0.192452 0)
(0.310707 0.182322 0)
(0.336348 0.169231 0)
(0.360542 0.15321 0)
(0.382968 0.134444 0)
(0.00197992 0.183075 0)
(0.00677917 0.182681 0)
(0.0122745 0.181446 0)
(0.0186646 0.18082 0)
(0.025956 0.18074 0)
(0.0342092 0.181117 0)
(0.0435232 0.181868 0)
(0.0539979 0.182903 0)
(0.0657206 0.184114 0)
(0.0787593 0.185364 0)
(0.0931622 0.186495 0)
(0.108962 0.187334 0)
(0.126179 0.187699 0)
(0.14482 0.187393 0)
(0.164864 0.186199 0)
(0.186228 0.183863 0)
(0.208742 0.180099 0)
(0.232128 0.174602 0)
(0.255994 0.167084 0)
(0.279858 0.15732 0)
(0.303188 0.14518 0)
(0.325492 0.130659 0)
(0.346482 0.113855 0)
(0.00181145 0.179005 0)
(0.00613518 0.177713 0)
(0.0110722 0.175708 0)
(0.0168077 0.174283 0)
(0.0233453 0.173331 0)
(0.030737 0.172746 0)
(0.039069 0.172441 0)
(0.0484298 0.172331 0)
(0.0588998 0.17232 0)
(0.0705434 0.172293 0)
(0.0834045 0.172112 0)
(0.0975057 0.171622 0)
(0.112851 0.170657 0)
(0.129424 0.169044 0)
(0.147185 0.1666 0)
(0.166055 0.163131 0)
(0.185895 0.158428 0)
(0.206494 0.15228 0)
(0.227558 0.144487 0)
(0.248719 0.134889 0)
(0.269561 0.123389 0)
(0.289682 0.10997 0)
(0.308838 0.0946852 0)
(0.00165633 0.175327 0)
(0.00550463 0.173269 0)
(0.0098831 0.170591 0)
(0.0149592 0.168463 0)
(0.0207356 0.166743 0)
(0.0272566 0.165313 0)
(0.0345949 0.164082 0)
(0.0428262 0.162968 0)
(0.052021 0.161883 0)
(0.0622385 0.160728 0)
(0.0735203 0.159388 0)
(0.085887 0.15773 0)
(0.0993363 0.155609 0)
(0.113844 0.152874 0)
(0.129362 0.149373 0)
(0.145811 0.14495 0)
(0.163072 0.139452 0)
(0.180978 0.132729 0)
(0.199301 0.124648 0)
(0.217761 0.115101 0)
(0.236034 0.104027 0)
(0.253804 0.0914136 0)
(0.270865 0.0772959 0)
(0.00151571 0.172026 0)
(0.00489477 0.169341 0)
(0.00872572 0.166092 0)
(0.0131511 0.163357 0)
(0.0181759 0.160974 0)
(0.0238377 0.158816 0)
(0.0301968 0.15679 0)
(0.0373149 0.154813 0)
(0.0452511 0.152805 0)
(0.0540566 0.15068 0)
(0.0637696 0.148338 0)
(0.07441 0.145669 0)
(0.0859764 0.142551 0)
(0.0984444 0.138859 0)
(0.111766 0.134464 0)
(0.125866 0.129242 0)
(0.140642 0.123078 0)
(0.155953 0.115865 0)
(0.171621 0.107515 0)
(0.187427 0.0979629 0)
(0.203123 0.0871747 0)
(0.218458 0.0751537 0)
(0.233268 0.0619287 0)
(0.00139054 0.169086 0)
(0.00430933 0.165916 0)
(0.00760869 0.162196 0)
(0.0114012 0.158951 0)
(0.0156965 0.156004 0)
(0.0205268 0.153231 0)
(0.0259405 0.150534 0)
(0.031986 0.147834 0)
(0.0387099 0.145053 0)
(0.0461538 0.142112 0)
(0.0543499 0.138928 0)
(0.0633169 0.135406 0)
(0.0730552 0.131448 0)
(0.0835445 0.126949 0)
(0.0947421 0.121807 0)
(0.106582 0.115922 0)
(0.118975 0.109208 0)
(0.131803 0.101589 0)
(0.144922 0.0930089 0)
(0.158161 0.0834309 0)
(0.171324 0.072845 0)
(0.184219 0.0612667 0)
(0.196716 0.0487281 0)
(0.00127606 0.166489 0)
(0.00374101 0.162976 0)
(0.0065292 0.158884 0)
(0.00971308 0.155218 0)
(0.0133102 0.151804 0)
(0.0173481 0.148519 0)
(0.0218644 0.14527 0)
(0.026895 0.141976 0)
(0.0324743 0.138562 0)
(0.0386333 0.134957 0)
(0.0453973 0.131084 0)
(0.0527814 0.126866 0)
(0.0607868 0.122218 0)
(0.069398 0.117059 0)
(0.0785799 0.111306 0)
(0.0882775 0.104883 0)
(0.0984151 0.097726 0)
(0.108896 0.0897824 0)
(0.119603 0.0810181 0)
(0.130399 0.071418 0)
(0.141132 0.0609874 0)
(0.151649 0.0497518 0)
(0.161852 0.0377465 0)
(0.00116356 0.164225 0)
(0.00317735 0.160508 0)
(0.00547343 0.156133 0)
(0.00807686 0.152127 0)
(0.0110139 0.148333 0)
(0.0143074 0.144632 0)
(0.0179842 0.140937 0)
(0.0220693 0.137168 0)
(0.0265858 0.133252 0)
(0.0315549 0.129121 0)
(0.0369939 0.124705 0)
(0.0429136 0.119936 0)
(0.0493144 0.114745 0)
(0.0561845 0.109064 0)
(0.0634963 0.102829 0)
(0.0712061 0.0959845 0)
(0.0792527 0.0884829 0)
(0.0875582 0.0802914 0)
(0.0960284 0.0713927 0)
(0.104554 0.0617861 0)
(0.113015 0.0514878 0)
(0.121295 0.0405286 0)
(0.129315 0.0289456 0)
(0.00103567 0.162298 0)
(0.00259395 0.158502 0)
(0.00441691 0.15392 0)
(0.00647153 0.149644 0)
(0.00879258 0.145543 0)
(0.0113963 0.141513 0)
(0.0142995 0.137467 0)
(0.0175167 0.133328 0)
(0.0210618 0.129026 0)
(0.0249472 0.124494 0)
(0.0291832 0.119666 0)
(0.0337758 0.11448 0)
(0.0387243 0.108878 0)
(0.0440191 0.102804 0)
(0.0496395 0.096207 0)
(0.0555521 0.0890461 0)
(0.0617101 0.08129 0)
(0.0680532 0.0729205 0)
(0.0745078 0.0639336 0)
(0.0809886 0.0543396 0)
(0.087403 0.044162 0)
(0.0936585 0.0334335 0)
(0.0996975 0.022189 0)
(0.000865556 0.160736 0)
(0.00196249 0.156958 0)
(0.00332849 0.152219 0)
(0.00487018 0.147726 0)
(0.00662557 0.143383 0)
(0.00860106 0.139096 0)
(0.0108029 0.134783 0)
(0.013237 0.130369 0)
(0.0159092 0.125782 0)
(0.0188254 0.120956 0)
(0.0219902 0.115829 0)
(0.0254059 0.110345 0)
(0.0290708 0.104448 0)
(0.0329773 0.098092 0)
(0.0371108 0.091237 0)
(0.0414476 0.0838522 0)
(0.0459544 0.0759182 0)
(0.0505875 0.0674286 0)
(0.0552928 0.0583903 0)
(0.0600068 0.0488225 0)
(0.0646583 0.0387538 0)
(0.0691792 0.0282165 0)
(0.0735261 0.0172408 0)
(0.000611974 0.159594 0)
(0.00124954 0.155879 0)
(0.00217769 0.151002 0)
(0.00325016 0.146327 0)
(0.00449843 0.141792 0)
(0.00591502 0.137312 0)
(0.00749557 0.132805 0)
(0.00923848 0.128194 0)
(0.011144 0.123407 0)
(0.0132134 0.118379 0)
(0.0154475 0.11305 0)
(0.0178467 0.107362 0)
(0.0204092 0.101267 0)
(0.0231302 0.0947216 0)
(0.0260008 0.0876928 0)
(0.0290068 0.0801571 0)
(0.0321275 0.0721038 0)
(0.035335 0.0635351 0)
(0.0385933 0.0544666 0)
(0.0418585 0.044925 0)
(0.0450813 0.0349435 0)
(0.0482103 0.0245534 0)
(0.0512163 0.0137775 0)
(0.000227768 0.15896 0)
(0.000432098 0.155265 0)
(0.000948448 0.150228 0)
(0.00160884 0.145387 0)
(0.00242063 0.140701 0)
(0.00335838 0.136081 0)
(0.00440778 0.13144 0)
(0.00556182 0.126699 0)
(0.00681719 0.121784 0)
(0.00817249 0.116628 0)
(0.0096273 0.11117 0)
(0.0111816 0.105356 0)
(0.0128351 0.0991359 0)
(0.0145867 0.0924709 0)
(0.0164338 0.0853302 0)
(0.0183711 0.0776951 0)
(0.0203895 0.0695599 0)
(0.0224756 0.0609333 0)
(0.0246097 0.0518376 0)
(0.026766 0.0423059 0)
(0.0289112 0.0323754 0)
(0.0310124 0.0220759 0)
(0.0330517 0.011422 0)
(-0.000337937 0.15894 0)
(-0.000500277 0.155088 0)
(-0.000340432 0.149834 0)
(-9.80315e-06 0.144831 0)
(0.000454293 0.140026 0)
(0.00100828 0.13531 0)
(0.00163096 0.130587 0)
(0.0023127 0.125769 0)
(0.00304893 0.12078 0)
(0.00383777 0.115553 0)
(0.00467921 0.110023 0)
(0.0055747 0.104136 0)
(0.00652683 0.0978432 0)
(0.00753897 0.0911043 0)
(0.00861462 0.0838902 0)
(0.0097566 0.0761839 0)
(0.010966 0.0679831 0)
(0.0122409 0.0593004 0)
(0.0135742 0.0501638 0)
(0.0149519 0.0406124 0)
(0.0163531 0.0306877 0)