/*--------------------------------*- C++ -*----------------------------------*\
  =========                 |
  \\      /  F ield         | OpenFOAM: The Open Source CFD Toolbox
   \\    /   O peration     | Website:  https://openfoam.org
    \\  /    A nd           | Version:  13
     \\/     M anipulation  |
\*---------------------------------------------------------------------------*/
FoamFile
{
    format      ascii;
    class       surfaceScalarField;
    location    "0.0006";
    object      meshPhi;
}
// * * * * * * * * * * * * * * * * * * * * * * * * * * * * * * * * * * * * * //

dimensions      [0 3 -1 0 0 0 0];

internalField   nonuniform List<scalar> 
3252
(
1.38654e-11
6.13667e-25
2.77307e-11
-3.0746e-25
4.1596e-11
-3.06207e-25
5.54611e-11
0
6.93224e-11
3.062e-25
8.31122e-11
1.24592e-27
9.64287e-11
3.08878e-25
-1.14018e-27
4.15961e-11
-1.22984e-24
8.31922e-11
0
1.24788e-10
2.45467e-24
1.66383e-10
-1.22984e-24
2.07967e-10
1.2248e-24
2.49338e-10
-1.22925e-24
2.89287e-10
-4.8124e-27
0
6.93269e-11
3.67449e-24
1.38654e-10
-3.67449e-24
2.0798e-10
-1.50328e-26
2.77306e-10
3.68954e-24
3.46612e-10
0
4.15568e-10
0
4.82146e-10
-3.69093e-24
0
9.70577e-11
4.89932e-24
1.94115e-10
9.81869e-24
2.91173e-10
-4.89933e-24
3.88228e-10
0
4.85258e-10
-4.89922e-24
5.81805e-10
-4.93702e-24
6.75006e-10
0
-5.43017e-24
1.24789e-10
0
2.49577e-10
0
3.74365e-10
1.22483e-23
4.99151e-10
0
6.23904e-10
1.22481e-23
7.48051e-10
1.2243e-23
8.67868e-10
-1.23432e-23
0
1.52519e-10
0
3.05038e-10
6.01315e-26
4.57557e-10
0
6.10073e-10
1.47581e-23
7.6255e-10
-1.47578e-23
9.14309e-10
1.46918e-23
1.06073e-09
-1.47474e-23
0
1.8025e-10
-1.72178e-23
3.605e-10
3.42953e-23
5.4075e-10
-1.71476e-23
7.20995e-10
1.71477e-23
9.01196e-10
1.71474e-23
1.08058e-09
-3.44213e-23
1.2536e-09
1.7196e-23
-6.38385e-26
2.07981e-10
-3.92748e-23
4.15962e-10
-8.01753e-26
6.23942e-10
-3.92748e-23
8.31918e-10
0
1.03984e-09
1.9597e-23
1.24687e-09
1.95901e-23
1.44647e-09
0
0
2.35712e-10
2.22274e-23
4.71423e-10
2.21372e-23
7.07134e-10
4.42743e-23
9.4284e-10
-4.4094e-23
1.17849e-09
4.41836e-23
1.41319e-09
2.21294e-23
1.63935e-09
2.21657e-23
-2.44932e-23
2.63442e-10
0
5.26885e-10
4.91937e-23
7.90326e-10
0
1.05376e-09
9.81872e-23
1.31714e-09
0
1.57952e-09
0
1.83223e-09
0
5.42851e-23
2.91173e-10
0
5.82346e-10
0
8.73519e-10
-2.20482e-25
1.16469e-09
5.38927e-23
1.45578e-09
-5.41125e-23
1.74589e-09
0
2.02511e-09
5.38777e-23
-2.00587e-25
3.18904e-10
0
6.37808e-10
-5.90324e-23
9.56711e-10
0
1.27561e-09
5.87921e-23
1.59443e-09
0
1.91228e-09
-2.39781e-25
2.218e-09
-5.89462e-23
2.18807e-25
3.46635e-10
-6.39518e-23
6.93269e-10
-6.36912e-23
1.0399e-09
2.60569e-25
1.38653e-09
-2.60565e-25
1.73308e-09
6.36907e-23
2.07872e-09
-6.36852e-23
2.41089e-09
0
1.41743e-22
3.74366e-10
-1.37462e-22
7.48731e-10
6.85906e-23
1.1231e-09
-6.88712e-23
1.49745e-09
-6.88713e-23
1.87173e-09
6.859e-23
2.24513e-09
1.37451e-22
2.60368e-09
6.80671e-23
-2.55397e-25
4.02096e-10
-7.34899e-23
8.04193e-10
0
1.20629e-09
7.37906e-23
1.60838e-09
0
2.01038e-09
7.37909e-23
2.41143e-09
-7.34869e-23
2.79933e-09
-7.35118e-23
2.69373e-25
1.41455e-09
5.08909e-27
1.36172e-09
6.91279e-24
1.30712e-09
-7.17173e-24
1.25056e-09
-3.72035e-24
1.19191e-09
3.87034e-24
1.13109e-09
0
1.06801e-09
0
1.00258e-09
4.31161e-24
9.34732e-10
4.47182e-24
8.6436e-10
0
7.91376e-10
7.19341e-27
7.1568e-10
-4.98161e-24
6.37173e-10
1.54754e-26
5.5575e-10
5.37474e-24
4.71302e-10
8.32322e-27
3.83718e-10
5.78158e-24
2.9288e-10
-5.9785e-24
1.98668e-10
9.28558e-27
1.00961e-10
9.63008e-27
9.95133e-27
3.85253e-09
1.96364e-26
3.70866e-09
2.00926e-26
3.55996e-09
1.38806e-23
3.40591e-09
1.44009e-23
3.24619e-09
2.23073e-26
3.08054e-09
1.54687e-23
2.90875e-09
-1.60196e-23
2.73057e-09
-1.66148e-23
2.54578e-09
-1.72064e-23
2.35412e-09
2.67669e-26
2.15535e-09
0
1.9492e-09
1.92542e-23
1.73539e-09
2.98615e-26
1.51363e-09
3.09707e-26
1.28364e-09
4.29625e-23
1.04511e-09
-2.22461e-23
7.97715e-10
3.45519e-26
5.41132e-10
-2.38942e-23
2.75029e-10
3.71648e-26
3.84169e-26
5.77446e-09
5.6854e-26
5.55883e-09
5.8179e-26
5.33595e-09
-4.00752e-23
5.10507e-09
8.32786e-23
4.86567e-09
-4.31239e-23
4.61739e-09
4.47935e-23
4.35989e-09
4.65275e-23
4.09284e-09
4.81843e-23
3.81586e-09
7.47334e-26
3.5286e-09
-5.17543e-23
3.23068e-09
5.37577e-23
2.92169e-09
8.3373e-26
2.60122e-09
-5.77404e-23
2.26884e-09
8.9682e-26
1.92412e-09
9.30134e-26
1.56659e-09
-6.44189e-23
1.19579e-09
-6.68125e-23
8.11206e-10
-6.91913e-23
4.12356e-10
-7.18701e-23
-7.45834e-23
7.2634e-09
7.31954e-26
6.99219e-09
-4.96696e-23
6.71187e-09
7.74216e-26
6.42146e-09
-5.35335e-23
6.12034e-09
-5.5525e-23
5.80806e-09
8.62533e-26
5.48417e-09
5.98178e-23
5.14826e-09
6.21333e-23
4.79988e-09
0
4.43855e-09
9.97959e-26
4.06381e-09
1.03502e-25
3.67516e-09
-7.16812e-23
3.27206e-09
7.44559e-23
2.85399e-09
7.72225e-23
2.42039e-09
8.00918e-23
1.97068e-09
1.24209e-25
1.50426e-09
-8.60254e-23
1.02052e-09
8.93554e-23
5.18833e-10
1.38567e-25
-9.60254e-23
8.39024e-09
0
8.077e-09
0
7.75322e-09
-1.24726e-22
7.41777e-09
6.46488e-23
7.06995e-09
6.70535e-23
6.70921e-09
-1.39195e-22
6.33509e-09
0
5.94707e-09
-1.49732e-22
5.54465e-09
0
5.12728e-09
8.04727e-23
4.6944e-09
-8.33379e-23
4.24546e-09
8.66937e-23
3.77983e-09
8.97805e-23
3.2969e-09
-9.31164e-23
2.79604e-09
0
2.27657e-09
1.00315e-22
1.7378e-09
1.03886e-22
1.17902e-09
0
5.99495e-10
-1.11918e-22
0
9.2154e-09
6.65781e-23
8.87139e-09
-2.08965e-22
8.51581e-09
0
8.14739e-09
7.50946e-23
7.76537e-09
1.16484e-25
7.36917e-09
1.20806e-25
6.95825e-09
8.37835e-23
6.53208e-09
1.29945e-25
6.09008e-09
0
5.63167e-09
9.34746e-23
5.15624e-09
-1.93606e-22
4.66314e-09
1.0055e-22
4.15172e-09
1.55937e-25
3.62131e-09
1.6173e-25
3.07119e-09
-1.12012e-22
2.50064e-09
1.16174e-22
1.90888e-09
1.20671e-22
1.29515e-09
2.50122e-22
6.58631e-10
1.29611e-22
1.34483e-22
9.79031e-09
-1.49967e-22
9.42488e-09
-1.5702e-22
9.04716e-09
1.63327e-22
8.65578e-09
0
8.24993e-09
0
7.82902e-09
0
7.39248e-09
1.89034e-22
6.93972e-09
0
6.47016e-09
-2.03039e-22
5.98315e-09
3.1536e-25
5.47806e-09
0
4.95421e-09
2.26863e-22
4.41089e-09
-2.35292e-22
3.84739e-09
-2.4367e-22
3.26296e-09
-2.52724e-22
2.65681e-09
0
2.02815e-09
0
1.37613e-09
0
6.99897e-10
0
0
1.01587e-08
0
9.77953e-09
-1.73883e-22
9.38765e-09
-1.80576e-22
8.98156e-09
0
8.56045e-09
-1.93993e-22
8.12371e-09
0
7.67075e-09
0
7.20097e-09
-2.16432e-22
6.71374e-09
0
6.20841e-09
-3.4865e-25
5.68432e-09
0
5.14076e-09
2.50813e-22
4.57701e-09
0
3.99231e-09
2.69797e-22
3.38589e-09
0
2.75694e-09
0
2.10463e-09
-3.01002e-22
1.42808e-09
3.1172e-22
7.26402e-10
3.23302e-22
3.35926e-22
1.03575e-08
-3.6122e-22
9.97104e-09
-1.89062e-22
9.57155e-09
1.96613e-22
9.15752e-09
-2.03644e-22
8.72818e-09
2.11531e-22
8.28289e-09
0
7.82106e-09
2.27543e-22
7.34209e-09
-2.35645e-22
6.84532e-09
-2.44401e-22
6.33011e-09
0
5.79576e-09
0
5.24156e-09
2.73078e-22
4.66678e-09
2.828e-22
4.07063e-09
4.39227e-25
3.45234e-09
-3.04206e-22
2.81108e-09
3.15982e-22
2.146e-09
0
1.4562e-09
3.40407e-22
7.40786e-10
-3.52001e-22
-3.65185e-22
1.04184e-08
-3.88246e-22
1.00297e-08
0
9.62787e-09
-2.11207e-22
9.21143e-09
4.38489e-22
8.77957e-09
2.27564e-22
8.33167e-09
3.52943e-25
7.86713e-09
-2.44424e-22
7.38535e-09
2.54265e-22
6.88567e-09
3.93745e-25
6.36743e-09
2.73103e-22
5.82995e-09
5.66078e-22
5.2725e-09
-2.93336e-22
4.69433e-09
6.09382e-22
4.09469e-09
4.72518e-25
3.47277e-09
3.27754e-22
2.82775e-09
-3.39932e-22
2.15875e-09
5.27165e-25
1.46491e-09
-3.65115e-22
7.45286e-10
3.79815e-22
3.94025e-22
1.03677e-08
-2.06489e-22
9.98093e-09
0
9.58115e-09
-2.24711e-22
9.16676e-09
2.33781e-22
8.737e-09
4.84939e-22
8.29128e-09
-2.50727e-22
7.82901e-09
-2.60433e-22
7.34957e-09
2.70514e-22
6.85232e-09
2.80566e-22
6.33661e-09
-5.81112e-22
5.80174e-09
4.51277e-25
5.247e-09
4.68043e-25
4.67165e-09
-3.23676e-22
4.07492e-09
6.7342e-22
3.45603e-09
5.22172e-25
2.81414e-09
7.24392e-22
2.1484e-09
-3.7453e-22
1.45792e-09
5.82563e-25
7.41798e-10
4.04087e-22
6.25921e-25
1.02279e-08
0
9.84644e-09
-2.29208e-22
9.4521e-09
0
9.0433e-09
-2.47142e-22
8.61934e-09
-2.56326e-22
8.17964e-09
0
7.7236e-09
-4.12313e-25
7.25062e-09
2.85546e-22
6.76008e-09
0
6.25132e-09
-3.0808e-22
5.72366e-09
3.1905e-22
5.1764e-09
3.3041e-22
4.6088e-09
0
4.02012e-09
1.06732e-21
3.40957e-09
-3.69177e-22
2.77633e-09
3.82321e-22
2.11957e-09
3.96527e-22
1.4384e-09
-4.11876e-22
7.31921e-10
4.2654e-22
4.42474e-22
1.00179e-08
3.54263e-25
9.64431e-09
3.62156e-25
9.25813e-09
-7.50015e-22
8.85774e-09
-5.18737e-22
8.44248e-09
0
8.01181e-09
2.78792e-22
7.56513e-09
2.89584e-22
7.10187e-09
3.00344e-22
6.6214e-09
4.65795e-25
6.12308e-09
4.83096e-25
5.60626e-09
6.69665e-22
5.07023e-09
5.19655e-25
4.51429e-09
0
3.9377e-09
-3.7328e-22
3.33968e-09
0
2.71944e-09
4.02135e-22
2.07616e-09
4.16453e-22
1.40898e-09
-4.31927e-22
7.17001e-10
-4.47975e-22
0
9.75346e-09
2.39717e-22
9.38979e-09
-2.51517e-22
9.01385e-09
-2.61003e-22
8.62404e-09
-2.70704e-22
8.21975e-09
5.62364e-22
7.80044e-09
0
7.36555e-09
-3.02013e-22
6.91452e-09
0
6.44673e-09
0
5.96157e-09
3.36945e-22
5.45838e-09
0
4.93651e-09
3.62992e-22
4.39524e-09
3.76479e-22
3.83386e-09
-3.89884e-22
3.25163e-09
-4.0437e-22
2.64776e-09
1.25881e-21
2.02146e-09
8.70607e-22
1.37189e-09
4.51815e-22
6.9817e-10
-4.67901e-22
-9.71441e-22
9.44782e-09
-4.97954e-22
9.09559e-09
-2.61125e-22
8.73148e-09
5.43095e-22
8.35389e-09
2.82265e-22
7.96227e-09
0
7.5561e-09
3.03628e-22
7.13485e-09
4.70201e-25
6.69794e-09
-3.25636e-22
6.24482e-09
0
5.77486e-09
3.50809e-22
5.28744e-09
0
4.78191e-09
3.77363e-22
4.25761e-09
3.91969e-22
3.71382e-09
6.06969e-25
3.14983e-09
8.42017e-22
2.56488e-09
-4.35999e-22
1.9582e-09
6.77168e-25
1.32898e-09
4.69702e-22
6.76374e-10
0
7.55003e-25
9.11199e-09
0
8.77233e-09
-2.70414e-22
8.42121e-09
5.63178e-22
8.05705e-09
4.36363e-25
7.67935e-09
0
7.28762e-09
3.13908e-22
6.88133e-09
4.86849e-25
6.45996e-09
0
6.02294e-09
3.49692e-22
5.56968e-09
-7.26458e-22
5.09959e-09
-1.50521e-21
4.61203e-09
-1.17158e-21
4.10636e-09
4.05846e-22
3.5819e-09
4.19669e-22
3.03795e-09
-4.35262e-22
2.47379e-09
-9.02868e-22
1.88868e-09
0
1.28182e-09
0
6.52404e-10
5.044e-22
7.81812e-25
8.75512e-09
-2.65698e-22
8.42881e-09
5.5937e-22
8.09148e-09
5.8066e-22
7.74159e-09
4.50225e-25
7.37869e-09
4.6698e-25
7.00229e-09
-6.47288e-22
6.61192e-09
-3.35418e-22
6.20705e-09
3.47881e-22
5.78714e-09
-7.22156e-22
5.35163e-09
-3.74214e-22
4.89995e-09
-3.88119e-22
4.43148e-09
-4.01937e-22
3.94561e-09
-4.17496e-22
3.44169e-09
4.34305e-22
2.91904e-09
8.98867e-22
2.37698e-09
6.97517e-25
1.81478e-09
0
1.23168e-09
5.01039e-22
6.26914e-10
5.18876e-22
1.07883e-21
8.38475e-09
-2.73688e-22
8.07229e-09
-2.87525e-22
7.74927e-09
-2.97312e-22
7.41419e-09
4.63111e-25
7.06663e-09
4.80354e-25
6.70616e-09
-6.65826e-22
6.3323e-09
-3.45025e-22
5.94455e-09
0
5.54241e-09
5.55809e-25
5.12532e-09
0
4.69274e-09
-3.99234e-22
4.24409e-09
-4.14068e-22
3.77877e-09
4.30096e-22
3.29616e-09
6.6701e-25
2.79563e-09
9.24609e-22
2.27649e-09
4.79123e-22
1.73807e-09
-4.98414e-22
1.17964e-09
7.71804e-25
6.00446e-10
-5.33736e-22
0
8.00708e-09
5.62324e-22
7.70874e-09
5.90027e-22
7.4003e-09
-6.11861e-22
7.08032e-09
0
6.74842e-09
-6.58098e-22
6.40418e-09
1.0222e-24
6.04716e-09
7.0897e-22
5.67687e-09
0
5.29284e-09
7.62635e-22
4.89453e-09
0
4.48144e-09
0
4.05299e-09
8.50842e-22
3.60863e-09
0
3.14776e-09
-9.13875e-22
2.66976e-09
0
2.17401e-09
0
1.65983e-09
0
1.12655e-09
1.58356e-24
5.73445e-10
1.64245e-24
-1.13757e-21
7.62682e-09
1.14972e-21
7.34303e-09
0
7.04927e-09
0
6.74447e-09
1.30078e-21
6.42831e-09
6.74542e-22
6.10041e-09
-6.98557e-22
5.76032e-09
0
5.40761e-09
-7.51433e-22
5.04179e-09
0
4.66238e-09
0
4.26888e-09
0
3.86076e-09
-8.70798e-22
3.43748e-09
0
2.99848e-09
0
2.54316e-09
-9.70062e-22
2.07092e-09
1.00761e-21
1.58114e-09
2.0901e-21
1.07316e-09
2.16614e-21
5.46294e-10
1.68099e-24
0
1.04607e-09
8.45742e-23
2.09213e-09
8.45742e-23
3.1382e-09
-8.52691e-23
4.18424e-09
-8.52696e-23
5.23009e-09
-8.52709e-23
6.27342e-09
-3.46535e-25
7.29709e-09
-8.58232e-23
0
8.11199e-09
1.19705e-09
0
2.39409e-09
0
3.59113e-09
-1.92707e-22
4.78816e-09
0
5.98499e-09
0
7.17929e-09
7.86784e-25
8.36025e-09
0
0
9.15134e-09
1.34802e-09
0
2.69605e-09
2.1557e-22
4.04407e-09
-8.81928e-25
5.39207e-09
0
6.73991e-09
-2.16457e-22
8.08568e-09
-2.16454e-22
9.41437e-09
-8.673e-25
-5.71931e-25
1.02925e-08
1.499e-09
-2.39409e-22
2.99801e-09
-9.75467e-25
4.49701e-09
-9.75466e-25
5.99599e-09
-9.75455e-25
7.49485e-09
-9.75397e-25
8.99239e-09
-9.74834e-25
1.04642e-08
-4.76138e-22
2.10578e-22
1.14331e-08
1.64998e-09
2.61297e-22
3.29996e-09
-2.62366e-22
4.94994e-09
0
6.59991e-09
0
8.2498e-09
0
9.89914e-09
1.06886e-24
1.15155e-08
0
4.60513e-22
1.2576e-08
1.80096e-09
0
3.60192e-09
2.84161e-22
5.40288e-09
-2.85323e-22
7.20383e-09
0
9.00476e-09
0
1.08058e-08
0
1.25683e-08
2.82943e-22
2.49527e-22
1.37219e-08
1.95194e-09
3.08281e-22
3.90388e-09
-1.25608e-24
5.85582e-09
6.15304e-22
7.80775e-09
3.09537e-22
9.75971e-09
9.2234e-22
1.17124e-08
0
1.36232e-08
3.0564e-22
2.69472e-22
1.48715e-08
2.10292e-09
3.31238e-22
4.20584e-09
6.62475e-22
6.30875e-09
0
8.41167e-09
3.29888e-22
1.05147e-08
0
1.26189e-08
-3.31223e-22
1.46805e-08
-1.3129e-21
-2.90668e-22
1.60254e-08
2.2539e-09
-7.06946e-22
4.50779e-09
1.44316e-24
6.76169e-09
0
9.01559e-09
0
1.12696e-08
1.44324e-24
1.35252e-08
3.55622e-22
1.57404e-08
-1.05372e-21
3.11511e-22
1.71843e-08
2.40488e-09
-3.75615e-22
4.80975e-09
-1.12838e-21
7.21463e-09
7.52766e-22
9.61951e-09
3.75614e-22
1.20245e-08
1.53679e-24
1.44312e-08
-3.75595e-22
1.68033e-08
7.50285e-22
9.89391e-25
1.83487e-08
2.55586e-09
0
5.11171e-09
-8.00217e-22
7.66757e-09
0
1.02234e-08
1.59391e-21
1.27794e-08
-3.26066e-24
1.5337e-08
-3.26248e-24
1.78695e-08
0
0
1.95195e-08
2.70683e-09
0
5.41367e-09
0
8.1205e-09
0
1.08274e-08
0
1.35343e-08
0
1.62425e-08
0
1.89392e-08
8.42311e-22
0
2.06971e-08
2.85781e-09
0
5.71562e-09
-3.63462e-24
8.57344e-09
0
1.14313e-08
0
1.42893e-08
-3.63483e-24
1.71478e-08
-8.91938e-22
2.00128e-08
-1.78519e-21
0
2.18824e-08
3.00879e-09
0
6.01758e-09
-9.34138e-22
9.02638e-09
9.34137e-22
1.20352e-08
9.34133e-22
1.50442e-08
9.34104e-22
1.80532e-08
9.33971e-22
2.10761e-08
1.87738e-21
8.50128e-22
2.30719e-08
3.15977e-09
6.31954e-09
9.47931e-09
1.26391e-08
1.57991e-08
1.89589e-08
2.21264e-08
2.4551e-08
8.33993e-09
-1.76105e-09
8.46846e-09
-1.83251e-09
8.58052e-09
-1.88253e-09
8.68457e-09
-1.93033e-09
8.78142e-09
-1.97788e-09
8.87121e-09
-2.02539e-09
8.95397e-09
-2.07289e-09
9.0297e-09
-2.12039e-09
9.0984e-09
-2.16788e-09
9.16007e-09
-2.21538e-09
9.21471e-09
-2.26288e-09
9.26233e-09
-2.31037e-09
9.30292e-09
-2.35787e-09
9.33649e-09
-2.40537e-09
9.36302e-09
-2.45286e-09
9.38253e-09
-2.50036e-09
9.39501e-09
-2.54786e-09
9.40046e-09
-2.59535e-09
9.39889e-09
-2.64285e-09
9.39028e-09
-2.69035e-09
9.37465e-09
-2.73784e-09
9.35199e-09
-2.78534e-09
9.32231e-09
-2.83284e-09
9.2856e-09
-2.88033e-09
9.24186e-09
-2.92783e-09
9.19109e-09
-2.97533e-09
9.13329e-09
-3.02282e-09
9.06847e-09
-3.07032e-09
8.99662e-09
-3.11782e-09
8.91774e-09
-3.16531e-09
8.83183e-09
-3.21281e-09
8.7389e-09
-3.26031e-09
8.63894e-09
-3.3078e-09
8.53195e-09
-3.3553e-09
8.41793e-09
-3.4028e-09
8.29689e-09
-3.45029e-09
8.16882e-09
-3.49779e-09
8.03372e-09
-3.54529e-09
7.89159e-09
-3.59278e-09
7.74244e-09
-3.64028e-09
7.58626e-09
-3.68778e-09
7.42305e-09
-3.73527e-09
7.25281e-09
-3.78277e-09
7.07555e-09
-3.83027e-09
6.89126e-09
-3.87776e-09
6.69994e-09
-3.92526e-09
6.50159e-09
-3.97276e-09
6.29621e-09
-4.02025e-09
6.08357e-09
-4.06758e-09
-4.09983e-09
5.84263e-09
9.47418e-09
-1.84884e-09
9.58604e-09
-1.91592e-09
9.66779e-09
-1.96038e-09
9.74005e-09
-2.00188e-09
9.80524e-09
-2.04294e-09
9.86379e-09
-2.08391e-09
9.91577e-09
-2.12487e-09
9.96121e-09
-2.16582e-09
1.00001e-08
-2.20678e-09
1.00325e-08
-2.24773e-09
1.00583e-08
-2.28868e-09
1.00775e-08
-2.32964e-09
1.00903e-08
-2.37059e-09
1.00964e-08
-2.41155e-09
1.00961e-08
-2.4525e-09
1.00892e-08
-2.49345e-09
1.00757e-08
-2.53441e-09
1.00557e-08
-2.57536e-09
1.00292e-08
-2.61631e-09
9.99611e-09
-2.65727e-09
9.95649e-09
-2.69822e-09
9.91032e-09
-2.73918e-09
9.85762e-09
-2.78013e-09
9.79837e-09
-2.82108e-09
9.73257e-09
-2.86204e-09
9.66024e-09
-2.90299e-09
9.58136e-09
-2.94394e-09
9.49594e-09
-2.9849e-09
9.40397e-09
-3.02585e-09
9.30547e-09
-3.06681e-09
9.20042e-09
-3.10776e-09
9.08882e-09
-3.14871e-09
8.97069e-09
-3.18967e-09
8.84601e-09
-3.23062e-09
8.71479e-09
-3.27157e-09
8.57702e-09
-3.31253e-09
8.43272e-09
-3.35348e-09
8.28187e-09
-3.39444e-09
8.12447e-09
-3.43539e-09
7.96054e-09
-3.47634e-09
7.79006e-09
-3.5173e-09
7.61304e-09
-3.55825e-09
7.42947e-09
-3.5992e-09
7.23936e-09
-3.64016e-09
7.04271e-09
-3.68111e-09
6.83952e-09
-3.72207e-09
6.62978e-09
-3.76302e-09
6.41349e-09
-3.80397e-09
6.19e-09
-3.84465e-09
-3.87092e-09
5.91677e-09
1.06151e-08
-1.90354e-09
1.07038e-08
-1.96639e-09
1.07551e-08
-2.00558e-09
1.07955e-08
-2.04121e-09
1.08291e-08
-2.07625e-09
1.08564e-08
-2.11117e-09
1.08776e-08
-2.14607e-09
1.08927e-08
-2.18097e-09
1.09018e-08
-2.21586e-09
1.09048e-08
-2.25076e-09
1.09018e-08
-2.28566e-09
1.08927e-08
-2.32055e-09
1.08776e-08
-2.35545e-09
1.08564e-08
-2.39034e-09
1.08291e-08
-2.42524e-09
1.07958e-08
-2.46013e-09
1.07564e-08
-2.49503e-09
1.0711e-08
-2.52992e-09
1.06595e-08
-2.56482e-09
1.06019e-08
-2.59971e-09
1.05383e-08
-2.63461e-09
1.04687e-08
-2.66951e-09
1.03929e-08
-2.7044e-09
1.03111e-08
-2.7393e-09
1.02233e-08
-2.77419e-09
1.01294e-08
-2.80909e-09
1.00294e-08
-2.84398e-09
9.92341e-09
-2.87888e-09
9.81133e-09
-2.91377e-09
9.6932e-09
-2.94867e-09
9.569e-09
-2.98357e-09
9.43875e-09
-3.01846e-09
9.30244e-09
-3.05336e-09
9.16007e-09
-3.08825e-09
9.01164e-09
-3.12315e-09
8.85716e-09
-3.15804e-09
8.69661e-09
-3.19294e-09
8.53001e-09
-3.22783e-09
8.35735e-09
-3.26273e-09
8.17863e-09
-3.29763e-09
7.99386e-09
-3.33252e-09
7.80302e-09
-3.36742e-09
7.60613e-09
-3.40231e-09
7.40318e-09
-3.43721e-09
7.19417e-09
-3.4721e-09
6.9791e-09
-3.507e-09
6.75797e-09
-3.54189e-09
6.53076e-09
-3.57678e-09
6.29651e-09
-3.61133e-09
-3.63235e-09
6.01235e-09
1.17567e-08
-1.92567e-09
1.18216e-08
-1.984e-09
1.18424e-08
-2.01813e-09
1.1851e-08
-2.04833e-09
1.18529e-08
-2.07782e-09
1.18489e-08
-2.10717e-09
1.18394e-08
-2.1365e-09
1.18242e-08
-2.16582e-09
1.18035e-08
-2.19515e-09
1.17772e-08
-2.22447e-09
1.17454e-08
-2.25379e-09
1.17079e-08
-2.28311e-09
1.16649e-08
-2.31243e-09
1.16163e-08
-2.34175e-09
1.15622e-08
-2.37108e-09
1.15024e-08
-2.4004e-09
1.14371e-08
-2.42972e-09
1.13662e-08
-2.45904e-09
1.12898e-08
-2.48836e-09
1.12078e-08
-2.51769e-09
1.11202e-08
-2.54701e-09
1.1027e-08
-2.57633e-09
1.09282e-08
-2.60565e-09
1.08239e-08
-2.63497e-09
1.0714e-08
-2.6643e-09
1.05985e-08
-2.69362e-09
1.04775e-08
-2.72294e-09
1.03509e-08
-2.75226e-09
1.02187e-08
-2.78158e-09
1.00809e-08
-2.81091e-09
9.93759e-09
-2.84023e-09
9.78867e-09
-2.86955e-09
9.63419e-09
-2.89887e-09
9.47413e-09
-2.92819e-09
9.3085e-09
-2.95752e-09
9.13729e-09
-2.98684e-09
8.96051e-09
-3.01616e-09
8.77816e-09
-3.04548e-09
8.59023e-09
-3.0748e-09
8.39673e-09
-3.10412e-09
8.19766e-09
-3.13345e-09
7.99301e-09
-3.16277e-09
7.78279e-09
-3.19209e-09
7.56699e-09
-3.22141e-09
7.34562e-09
-3.25073e-09
7.11868e-09
-3.28006e-09
6.88617e-09
-3.30938e-09
6.64804e-09
-3.33869e-09
6.40309e-09
-3.36763e-09
-3.38395e-09
6.10824e-09
1.28996e-08
-1.91522e-09
1.29398e-08
-1.96873e-09
1.29297e-08
-1.99804e-09
1.29065e-08
-2.02322e-09
1.28767e-08
-2.04764e-09
1.28415e-08
-2.07191e-09
1.28012e-08
-2.09615e-09
1.27558e-08
-2.12039e-09
1.27052e-08
-2.14462e-09
1.26496e-08
-2.16885e-09
1.25889e-08
-2.19309e-09
1.25231e-08
-2.21732e-09
1.24522e-08
-2.24155e-09
1.23763e-08
-2.26578e-09
1.22952e-08
-2.29002e-09
1.22091e-08
-2.31425e-09
1.21178e-08
-2.33848e-09
1.20215e-08
-2.36272e-09
1.19201e-08
-2.38695e-09
1.18136e-08
-2.41118e-09
1.1702e-08
-2.43542e-09
1.15853e-08
-2.45965e-09
1.14635e-08
-2.48388e-09
1.13367e-08
-2.50811e-09
1.12047e-08
-2.53235e-09
1.10677e-08
-2.55658e-09
1.09256e-08
-2.58081e-09
1.07783e-08
-2.60505e-09
1.0626e-08
-2.62928e-09
1.04687e-08
-2.65351e-09
1.03062e-08
-2.67775e-09
1.01386e-08
-2.70198e-09
9.96594e-09
-2.72621e-09
9.78819e-09
-2.75044e-09
9.60535e-09
-2.77468e-09
9.41742e-09
-2.79891e-09
9.22441e-09
-2.82314e-09
9.0263e-09
-2.84738e-09
8.82311e-09
-2.87161e-09
8.61483e-09
-2.89584e-09
8.40146e-09
-2.92008e-09
8.183e-09
-2.94431e-09
7.95945e-09
-2.96854e-09
7.73081e-09
-2.99277e-09
7.49708e-09
-3.01701e-09
7.25826e-09
-3.04124e-09
7.01436e-09
-3.06547e-09
6.76532e-09
-3.08969e-09
6.50972e-09
-3.11353e-09
-3.12571e-09
6.20421e-09
1.40439e-08
-1.87218e-09
1.40583e-08
-1.92059e-09
1.40171e-08
-1.94531e-09
1.3962e-08
-1.96591e-09
1.39005e-08
-1.98573e-09
1.38341e-08
-2.00539e-09
1.3763e-08
-2.02503e-09
1.36873e-08
-2.04466e-09
1.36069e-08
-2.06429e-09
1.3522e-08
-2.08392e-09
1.34325e-08
-2.10354e-09
1.33383e-08
-2.12317e-09
1.32396e-08
-2.1428e-09
1.31362e-08
-2.16243e-09
1.30283e-08
-2.18206e-09
1.29157e-08
-2.20169e-09
1.27985e-08
-2.22132e-09
1.26768e-08
-2.24095e-09
1.25504e-08
-2.26057e-09
1.24194e-08
-2.2802e-09
1.22838e-08
-2.29983e-09
1.21436e-08
-2.31946e-09
1.19988e-08
-2.33909e-09
1.18494e-08
-2.35872e-09
1.16954e-08
-2.37835e-09
1.15368e-08
-2.39798e-09
1.13736e-08
-2.4176e-09
1.12058e-08
-2.43723e-09
1.10334e-08
-2.45686e-09
1.08564e-08
-2.47649e-09
1.06748e-08
-2.49612e-09
1.04885e-08
-2.51575e-09
1.02977e-08
-2.53538e-09
1.01022e-08
-2.55501e-09
9.9022e-09
-2.57463e-09
9.69756e-09
-2.59426e-09
9.48831e-09
-2.61389e-09
9.27445e-09
-2.63352e-09
9.05599e-09
-2.65315e-09
8.83292e-09
-2.67278e-09
8.60526e-09
-2.69241e-09
8.37298e-09
-2.71203e-09
8.1361e-09
-2.73166e-09
7.89462e-09
-2.75129e-09
7.64854e-09
-2.77092e-09
7.39785e-09
-2.79055e-09
7.14255e-09
-2.81018e-09
6.8826e-09
-2.8298e-09
6.61641e-09
-2.84904e-09
-2.85762e-09
6.30024e-09
1.51902e-08
-1.79648e-09
1.51774e-08
-1.83954e-09
1.51046e-08
-1.85994e-09
1.50176e-08
-1.87638e-09
1.49244e-08
-1.89207e-09
1.48267e-08
-1.90761e-09
1.47248e-08
-1.92313e-09
1.46188e-08
-1.93864e-09
1.45087e-08
-1.95415e-09
1.43944e-08
-1.96966e-09
1.4276e-08
-1.98517e-09
1.41535e-08
-2.00068e-09
1.40269e-08
-2.01618e-09
1.38962e-08
-2.03169e-09
1.37613e-08
-2.0472e-09
1.36223e-08
-2.06271e-09
1.34792e-08
-2.07822e-09
1.3332e-08
-2.09373e-09
1.31807e-08
-2.10924e-09
1.30252e-08
-2.12475e-09
1.28657e-08
-2.14026e-09
1.2702e-08
-2.15577e-09
1.25341e-08
-2.17128e-09
1.23622e-08
-2.18678e-09
1.21862e-08
-2.20229e-09
1.2006e-08
-2.2178e-09
1.18217e-08
-2.23331e-09
1.16333e-08
-2.24882e-09
1.14408e-08
-2.26433e-09
1.12441e-08
-2.27984e-09
1.10433e-08
-2.29535e-09
1.08384e-08
-2.31086e-09
1.06294e-08
-2.32637e-09
1.04163e-08
-2.34188e-09
1.01991e-08
-2.35739e-09
9.97769e-09
-2.37289e-09
9.7522e-09
-2.3884e-09
9.5226e-09
-2.40391e-09
9.28887e-09
-2.41942e-09
9.05102e-09
-2.43493e-09
8.80905e-09
-2.45044e-09
8.56297e-09
-2.46595e-09
8.31276e-09
-2.48146e-09
8.05844e-09
-2.49697e-09
7.79999e-09
-2.51248e-09
7.53743e-09
-2.52799e-09
7.27074e-09
-2.54349e-09
6.99988e-09
-2.55899e-09
6.72316e-09
-2.57414e-09
-2.57968e-09
6.39636e-09
1.63387e-08
-1.68806e-09
1.6297e-08
-1.72556e-09
1.61923e-08
-1.74191e-09
1.60731e-08
-1.75463e-09
1.59482e-08
-1.76667e-09
1.58193e-08
-1.77857e-09
1.56866e-08
-1.79045e-09
1.55503e-08
-1.80233e-09
1.54104e-08
-1.8142e-09
1.52668e-08
-1.82608e-09
1.51196e-08
-1.83795e-09
1.49687e-08
-1.84983e-09
1.48142e-08
-1.8617e-09
1.46561e-08
-1.87357e-09
1.44944e-08
-1.88545e-09
1.4329e-08
-1.89732e-09
1.41599e-08
-1.9092e-09
1.39873e-08
-1.92107e-09
1.3811e-08
-1.93294e-09
1.36311e-08
-1.94482e-09
1.34475e-08
-1.95669e-09
1.32603e-08
-1.96857e-09
1.30695e-08
-1.98044e-09
1.2875e-08
-1.99232e-09
1.26769e-08
-2.00419e-09
1.24751e-08
-2.01606e-09
1.22698e-08
-2.02794e-09
1.20608e-08
-2.03981e-09
1.18481e-08
-2.05169e-09
1.16318e-08
-2.06356e-09
1.14119e-08
-2.07543e-09
1.11884e-08
-2.08731e-09
1.09612e-08
-2.09918e-09
1.07304e-08
-2.11106e-09
1.04959e-08
-2.12293e-09
1.02578e-08
-2.13481e-09
1.00161e-08
-2.14668e-09
9.77074e-09
-2.15855e-09
9.52175e-09
-2.17043e-09
9.26912e-09
-2.1823e-09
9.01285e-09
-2.19418e-09
8.75296e-09
-2.20605e-09
8.48942e-09
-2.21792e-09
8.22225e-09
-2.2298e-09
7.95145e-09
-2.24167e-09
7.67701e-09
-2.25355e-09
7.39894e-09
-2.26542e-09
7.11717e-09
-2.27729e-09
6.82997e-09
-2.28884e-09
-2.29186e-09
6.49254e-09
1.74897e-08
-1.5468e-09
1.74172e-08
-1.5786e-09
1.72801e-08
-1.59121e-09
1.71287e-08
-1.60066e-09
1.69721e-08
-1.60952e-09
1.68119e-08
-1.61827e-09
1.66484e-08
-1.627e-09
1.64818e-08
-1.63573e-09
1.63121e-08
-1.64445e-09
1.61392e-08
-1.65317e-09
1.59631e-08
-1.6619e-09
1.57839e-08
-1.67062e-09
1.56016e-08
-1.67935e-09
1.54161e-08
-1.68807e-09
1.52274e-08
-1.69679e-09
1.50356e-08
-1.70552e-09
1.48406e-08
-1.71424e-09
1.46425e-08
-1.72297e-09
1.44413e-08
-1.73169e-09
1.42369e-08
-1.74041e-09
1.40293e-08
-1.74914e-09
1.38186e-08
-1.75786e-09
1.36048e-08
-1.76658e-09
1.33878e-08
-1.77531e-09
1.31676e-08
-1.78403e-09
1.29443e-08
-1.79276e-09
1.27178e-08
-1.80148e-09
1.24882e-08
-1.8102e-09
1.22555e-08
-1.81893e-09
1.20196e-08
-1.82765e-09
1.17805e-08
-1.83638e-09
1.15383e-08
-1.8451e-09
1.12929e-08
-1.85382e-09
1.10444e-08
-1.86255e-09
1.07928e-08
-1.87127e-09
1.0538e-08
-1.88e-09
1.028e-08
-1.88872e-09
1.00189e-08
-1.89744e-09
9.75463e-09
-1.90617e-09
9.48722e-09
-1.91489e-09
9.21665e-09
-1.92361e-09
8.94294e-09
-1.93234e-09
8.66608e-09
-1.94106e-09
8.38607e-09
-1.94979e-09
8.10291e-09
-1.95851e-09
7.81659e-09
-1.96723e-09
7.52713e-09
-1.97596e-09
7.23446e-09
-1.98467e-09
6.93685e-09
-1.99313e-09
-1.99417e-09
6.58881e-09
1.86436e-08
-1.37257e-09
1.85382e-08
-1.39859e-09
1.8368e-08
-1.40784e-09
1.81843e-08
-1.41447e-09
1.79959e-08
-1.42063e-09
1.78044e-08
-1.42671e-09
1.76102e-08
-1.43277e-09
1.74133e-08
-1.43883e-09
1.72138e-08
-1.44489e-09
1.70116e-08
-1.45095e-09
1.68067e-08
-1.45701e-09
1.65991e-08
-1.46307e-09
1.63889e-08
-1.46912e-09
1.6176e-08
-1.47518e-09
1.59605e-08
-1.48124e-09
1.57422e-08
-1.4873e-09
1.55214e-08
-1.49336e-09
1.52978e-08
-1.49942e-09
1.50716e-08
-1.50547e-09
1.48427e-08
-1.51153e-09
1.46112e-08
-1.51759e-09
1.43769e-08
-1.52365e-09
1.41401e-08
-1.52971e-09
1.39005e-08
-1.53577e-09
1.36583e-08
-1.54182e-09
1.34134e-08
-1.54788e-09
1.31659e-08
-1.55394e-09
1.29157e-08
-1.56e-09
1.26628e-08
-1.56606e-09
1.24073e-08
-1.57212e-09
1.21491e-08
-1.57817e-09
1.18882e-08
-1.58423e-09
1.16247e-08
-1.59029e-09
1.13585e-08
-1.59635e-09
1.10896e-08
-1.60241e-09
1.08181e-08
-1.60846e-09
1.05439e-08
-1.61452e-09
1.0267e-08
-1.62058e-09
9.98751e-09
-1.62664e-09
9.70531e-09
-1.6327e-09
9.42045e-09
-1.63876e-09
9.13293e-09
-1.64481e-09
8.84274e-09
-1.65087e-09
8.54988e-09
-1.65693e-09
8.25436e-09
-1.66299e-09
7.95617e-09
-1.66905e-09
7.65532e-09
-1.67511e-09
7.35175e-09
-1.68116e-09
7.04379e-09
-1.68701e-09
-1.68659e-09
6.68516e-09
1.98006e-08
-1.16519e-09
1.96599e-08
-1.18546e-09
1.94561e-08
-1.19176e-09
1.924e-08
-1.19604e-09
1.90198e-08
-1.2e-09
1.8797e-08
-1.20389e-09
1.8572e-08
-1.20777e-09
1.83449e-08
-1.21165e-09
1.81155e-08
-1.21553e-09
1.78839e-08
-1.2194e-09
1.76502e-08
-1.22328e-09
1.74143e-08
-1.22716e-09
1.71762e-08
-1.23104e-09
1.6936e-08
-1.23491e-09
1.66935e-08
-1.23879e-09
1.64489e-08
-1.24267e-09
1.62021e-08
-1.24654e-09
1.59531e-08
-1.25042e-09
1.57019e-08
-1.2543e-09
1.54485e-08
-1.25818e-09
1.5193e-08
-1.26205e-09
1.49353e-08
-1.26593e-09
1.46754e-08
-1.26981e-09
1.44133e-08
-1.27369e-09
1.4149e-08
-1.27756e-09
1.38826e-08
-1.28144e-09
1.3614e-08
-1.28532e-09
1.33432e-08
-1.2892e-09
1.30702e-08
-1.29307e-09
1.2795e-08
-1.29695e-09
1.25177e-08
-1.30083e-09
1.22381e-08
-1.3047e-09
1.19564e-08
-1.30858e-09
1.16725e-08
-1.31246e-09
1.13865e-08
-1.31634e-09
1.10982e-08
-1.32021e-09
1.08078e-08
-1.32409e-09
1.05152e-08
-1.32797e-09
1.02204e-08
-1.33184e-09
9.92341e-09
-1.33572e-09
9.62425e-09
-1.3396e-09
9.32292e-09
-1.34348e-09
9.0194e-09
-1.34735e-09
8.7137e-09
-1.35123e-09
8.40582e-09
-1.35511e-09
8.09576e-09
-1.35899e-09
7.78351e-09
-1.36286e-09
7.46904e-09
-1.36674e-09
7.15081e-09
-1.37046e-09
-1.36911e-09
6.78159e-09
2.09612e-08
-9.24477e-10
2.07825e-08
-9.39136e-10
2.05443e-08
-9.42953e-10
2.02956e-08
-9.45391e-10
2.00436e-08
-9.4762e-10
1.97896e-08
-9.4981e-10
1.95338e-08
-9.51993e-10
1.92764e-08
-9.54174e-10
1.90172e-08
-9.56355e-10
1.87563e-08
-9.58536e-10
1.84938e-08
-9.60717e-10
1.82295e-08
-9.62898e-10
1.79636e-08
-9.65079e-10
1.76959e-08
-9.6726e-10
1.74265e-08
-9.69441e-10
1.71555e-08
-9.71622e-10
1.68828e-08
-9.73803e-10
1.66083e-08
-9.75984e-10
1.63322e-08
-9.78165e-10
1.60544e-08
-9.80346e-10
1.57748e-08
-9.82527e-10
1.54936e-08
-9.84707e-10
1.52107e-08
-9.86888e-10
1.49261e-08
-9.89069e-10
1.46398e-08
-9.9125e-10
1.43517e-08
-9.93431e-10
1.4062e-08
-9.95612e-10
1.37706e-08
-9.97793e-10
1.34775e-08
-9.99974e-10
1.31827e-08
-1.00216e-09
1.28863e-08
-1.00434e-09
1.25881e-08
-1.00652e-09
1.22882e-08
-1.0087e-09
1.19866e-08
-1.01088e-09
1.16833e-08
-1.01306e-09
1.13784e-08
-1.01524e-09
1.10717e-08
-1.01742e-09
1.07633e-08
-1.0196e-09
1.04533e-08
-1.02178e-09
1.01415e-08
-1.02396e-09
9.82805e-09
-1.02615e-09
9.5129e-09
-1.02833e-09
9.19606e-09
-1.03051e-09
8.87751e-09
-1.03269e-09
8.55727e-09
-1.03487e-09
8.23534e-09
-1.03705e-09
7.91171e-09
-1.03923e-09
7.58634e-09
-1.04141e-09
7.25789e-09
-1.0435e-09
-1.04173e-09
6.87811e-09
2.21255e-08
-6.50215e-10
2.19058e-08
-6.5952e-10
2.16327e-08
-6.61407e-10
2.13513e-08
-6.62502e-10
2.10675e-08
-6.63494e-10
2.07822e-08
-6.64468e-10
2.04957e-08
-6.65438e-10
2.02079e-08
-6.66407e-10
1.99189e-08
-6.67377e-10
1.96287e-08
-6.68346e-10
1.93373e-08
-6.69315e-10
1.90447e-08
-6.70285e-10
1.87509e-08
-6.71254e-10
1.84558e-08
-6.72223e-10
1.81596e-08
-6.73193e-10
1.78621e-08
-6.74162e-10
1.75635e-08
-6.75131e-10
1.72636e-08
-6.76101e-10
1.69625e-08
-6.7707e-10
1.66602e-08
-6.78039e-10
1.63567e-08
-6.79008e-10
1.60519e-08
-6.79978e-10
1.5746e-08
-6.80947e-10
1.54388e-08
-6.81916e-10
1.51305e-08
-6.82886e-10
1.48209e-08
-6.83855e-10
1.45101e-08
-6.84824e-10
1.41981e-08
-6.85794e-10
1.38849e-08
-6.86763e-10
1.35705e-08
-6.87732e-10
1.32548e-08
-6.88701e-10
1.2938e-08
-6.89671e-10
1.26199e-08
-6.9064e-10
1.23007e-08
-6.91609e-10
1.19802e-08
-6.92579e-10
1.16585e-08
-6.93548e-10
1.13356e-08
-6.94517e-10
1.10115e-08
-6.95487e-10
1.06861e-08
-6.96456e-10
1.03596e-08
-6.97425e-10
1.00319e-08
-6.98395e-10