/*--------------------------------*- C++ -*----------------------------------*\
  =========                 |
  \\      /  F ield         | OpenFOAM: The Open Source CFD Toolbox
   \\    /   O peration     | Website:  https://openfoam.org
    \\  /    A nd           | Version:  13
     \\/     M anipulation  |
\*---------------------------------------------------------------------------*/
FoamFile
{
    format      ascii;
    class       volScalarField;
    location    "0.0006";
    object      p;
}
// * * * * * * * * * * * * * * * * * * * * * * * * * * * * * * * * * * * * * //

dimensions      [0 2 -2 0 0 0 0];

internalField   nonuniform List<scalar> 
1690
(
-0.0375762
0.0162301
0.0617024
0.0971917
0.115996
0.105587
0.0743296
0.0298799
-0.0369119
0.0170147
0.062684
0.0984181
0.11717
0.106679
0.0739847
0.0290977
-0.0358395
0.0175933
0.0629079
0.0984332
0.11693
0.105738
0.0714658
0.0258206
-0.0342219
0.0184736
0.0632882
0.0985429
0.11676
0.104436
0.0677377
0.0206327
-0.0321159
0.019602
0.0637594
0.0986663
0.116529
0.102631
0.062546
0.0134537
-0.0295931
0.0208848
0.0641968
0.098648
0.116038
0.100044
0.0555316
0.00402004
-0.0267329
0.0222312
0.0644859
0.098344
0.115081
0.0963275
0.0462469
-0.0080449
-0.0236262
0.0235426
0.0645011
0.0975856
0.113375
0.0909607
0.0341052
-0.0231113
-0.0203749
0.0247113
0.0641016
0.096181
0.11054
0.0832917
0.0184991
-0.0421111
-0.0170873
0.0256265
0.0631388
0.0939121
0.106233
0.072945
-0.000654985
-0.0646384
-0.0138725
0.0261844
0.0614693
0.0904897
0.100282
0.0605796
-0.0222294
-0.0892617
-0.0108327
0.0262995
0.0590119
0.0856825
0.0925857
0.0480562
-0.043025
-0.112887
-0.00805372
0.0259241
0.0557674
0.0794523
0.0832598
0.0369385
-0.0583208
-0.132095
-0.00559868
0.02506
0.0517474
0.0718677
0.0726045
0.0270262
-0.068392
-0.163396
-0.00350948
0.0237425
0.0470027
0.063226
0.0610698
0.0166992
-0.0784592
-0.20686
4.35313
4.3456
4.33327
4.3134
4.28812
4.25725
4.22202
4.18377
4.14398
4.1041
4.06549
4.02926
3.99628
3.96715
3.9422
3.92158
3.90529
3.89327
3.88552
3.88241
4.34688
4.33947
4.32658
4.30674
4.28119
4.25019
4.2149
4.17671
4.13712
4.09759
4.05944
4.02376
3.99138
3.96286
3.9385
3.91841
3.90258
3.8909
3.88339
3.88041
4.33678
4.32917
4.31623
4.29597
4.27005
4.23866
4.20313
4.16491
4.12555
4.0865
4.04907
4.01429
3.98293
3.95545
3.93209
3.91292
3.89787
3.8868
3.87969
3.87687
4.32144
4.31355
4.30051
4.27966
4.25331
4.22147
4.18574
4.14766
4.10881
4.07065
4.03441
4.00104
3.9712
3.94526
3.92336
3.90549
3.89153
3.88131
3.87477
3.87219
4.30102
4.29282
4.27968
4.25823
4.23146
4.19924
4.1635
4.12584
4.08788
4.05105
4.01648
3.98501
3.95716
3.93317
3.91309
3.89682
3.88419
3.87498
3.8691
3.86681
4.27519
4.26675
4.25357
4.23159
4.20454
4.17216
4.13675
4.09994
4.06338
4.02841
3.99604
3.96695
3.9415
3.91983
3.90186
3.88742
3.87628
3.8682
3.86308
3.86109
4.24321
4.23468
4.2216
4.19932
4.1723
4.14018
4.10565
4.07031
4.03579
4.0033
3.97369
3.94746
3.92483
3.90578
3.89015
3.87771
3.86818
3.86131
3.85697
3.85531
4.20405
4.19569
4.18302
4.16088
4.13444
4.10326
4.07038
4.03731
4.00561
3.97629
3.95003
3.92713
3.90765
3.89147
3.87835
3.86801
3.86015
3.85453
3.851
3.84966
4.15632
4.14857
4.13687
4.11563
4.09065
4.0614
4.03121
4.00139
3.97337
3.94795
3.9256
3.90645
3.89042
3.87729
3.86678
3.85858
3.85242
3.84804
3.8453
3.84428
4.09812
4.09174
4.08195
4.06284
4.04061
4.01467
3.98845
3.96302
3.93963
3.91885
3.90093
3.88588
3.8735
3.86352
3.85566
3.84961
3.84511
3.84195
3.83998
3.83927
4.02683
4.02311
4.01686
4.00176
3.98413
3.96327
3.94257
3.92278
3.90499
3.88952
3.87649
3.86579
3.85719
3.85041
3.84518
3.84122
3.83833
3.83633
3.83511
3.83468
3.93882
3.94005
3.93996
3.93168
3.92116
3.90757
3.89413
3.88131
3.87003
3.86047
3.85268
3.8465
3.84173
3.83811
3.83544
3.8335
3.83213
3.83122
3.83069
3.83052
3.82882
3.83921
3.84947
3.85205
3.85187
3.84815
3.84383
3.83927
3.83534
3.83217
3.82985
3.82826
3.82728
3.82674
3.82651
3.82647
3.82653
3.82663
3.82674
3.82681
3.68901
3.71661
3.74356
3.76262
3.77676
3.78581
3.7925
3.79739
3.80147
3.80504
3.80828
3.81126
3.81396
3.81636
3.81843
3.82015
3.82153
3.82256
3.82324
3.82353
3.50727
3.56785
3.62044
3.66366
3.69668
3.72155
3.741
3.75634
3.76893
3.77938
3.78819
3.7956
3.80182
3.80698
3.81118
3.81453
3.8171
3.81896
3.82017
3.82064
3.26421
3.38874
3.47857
3.55609
3.61282
3.65653
3.69022
3.71677
3.73812
3.75547
3.76969
3.78135
3.79088
3.79859
3.80475
3.80957
3.81321
3.81582
3.81749
3.81813
2.92757
3.17621
3.31701
3.44164
3.52671
3.59204
3.64107
3.67923
3.70936
3.73346
3.75287
3.76852
3.78111
3.79116
3.79909
3.80522
3.80982
3.81309
3.81518
3.81596
2.44564
2.92886
3.13633
3.32239
3.44067
3.52937
3.59432
3.64415
3.68288
3.71345
3.73774
3.75709
3.77247
3.78463
3.79414
3.80144
3.80689
3.81074
3.81318
3.8141
1.73142
2.6402
2.94162
3.20192
3.35651
3.46968
3.5506
3.61185
3.6588
3.69545
3.72426
3.74698
3.7649
3.77894
3.78985
3.79819
3.80437
3.80872
3.81148
3.81251
0.691923
2.30685
2.74361
3.08438
3.27656
3.414
3.51041
3.5825
3.63716
3.67943
3.71236
3.73813
3.7583
3.77402
3.78616
3.79539
3.80222
3.807
3.81004
3.81115
-0.000595898
0.0210002
0.0385353
0.0488158
0.0428918
0.00060056
-0.0840504
-0.15344
0.0017424
0.0164686
0.0275056
0.0321198
0.0244239
-0.00744951
-0.064551
-0.0986519
0.00274722
0.0116315
0.0174322
0.0178032
0.00888362
-0.0148038
-0.052325
-0.0775348
0.00293597
0.00692575
0.00869825
0.0060565
-0.00337883
-0.0219884
-0.0472216
-0.0676461
0.00304318
0.00256499
0.00132875
-0.00347572
-0.0131725
-0.0287482
-0.047798
-0.0652486
0.00175631
-0.00145553
-0.00490651
-0.0112162
-0.0210214
-0.0346212
-0.0504283
-0.0657672
-0.000738569
-0.00493402
-0.0102333
-0.0176413
-0.0276105
-0.0401684
-0.0543752
-0.0685568
-0.00223338
-0.00787405
-0.0146017
-0.0229132
-0.0331153
-0.0451923
-0.0586259
-0.072212
-0.00333361
-0.0102928
-0.0181753
-0.027268
-0.0377878
-0.0497481
-0.0629044
-0.0762838
-0.00416471
-0.0122468
-0.0210868
-0.0308642
-0.0417521
-0.0538066
-0.0669709
-0.080389
-0.00479708
-0.0138127
-0.0234477
-0.0338261
-0.045102
-0.057365
-0.0706963
-0.084315
-0.0052783
-0.0150567
-0.0253452
-0.0362425
-0.0479017
-0.0604288
-0.0739985
-0.0879062
-0.00563832
-0.0160331
-0.0268507
-0.0381883
-0.0502222
-0.0630681
-0.0768908
-0.0910625
-0.00589146
-0.0167747
-0.0279973
-0.039658
-0.051973
-0.065117
-0.0790596
-0.0930942
-0.00603962
-0.0172766
-0.0288051
-0.0407089
-0.0533114
-0.0670745
-0.0815383
-0.0949723
-0.174561
-0.156695
-0.145802
-0.140868
-0.139355
-0.140367
-0.143384
-0.148062
-0.154167
-0.161538
-0.170069
-0.179691
-0.19036
-0.202055
-0.214771
-0.228516
-0.243309
-0.259175
-0.276143
-0.294248
-0.313522
-0.333989
-0.355663
-0.378529
-0.402513
-0.427426
-0.45289
-0.478326
-0.503094
-0.526951
-0.55089
-0.578367
-0.616905
-0.679695
-0.787158
-0.970917
-1.26933
-1.71846
-2.33619
-3.09824
-3.91277
-4.63446
-5.13537
-5.36866
-5.38198
-5.30138
-5.26284
-5.3791
-5.67598
-8.37914
-0.121564
-0.123441
-0.123919
-0.125512
-0.128456
-0.13265
-0.138008
-0.144463
-0.151965
-0.160472
-0.169954
-0.180392
-0.191782
-0.204129
-0.217447
-0.231758
-0.247092
-0.263483
-0.280962
-0.299564
-0.319324
-0.340269
-0.362415
-0.385742
-0.410149
-0.435366
-0.460874
-0.485935
-0.509873
-0.532769
-0.55647
-0.585726
-0.629641
-0.703345
-0.828433
-1.04143
-1.38428
-1.89504
-2.58306
-3.40603
-4.24582
-4.93353
-5.34106
-5.45236
-5.36886
-5.25044
-5.22442
-5.34903
-5.7586
-7.15668
-0.0965113
-0.104765
-0.110627
-0.115977
-0.121577
-0.127715
-0.134536
-0.14211
-0.150475
-0.159657
-0.169675
-0.180554
-0.192316
-0.204989
-0.218604
-0.233201
-0.248815
-0.265478
-0.283226
-0.302107
-0.322161
-0.343422
-0.365902
-0.389558
-0.414249
-0.439654
-0.465251
-0.490407
-0.514722
-0.538658
-0.564432
-0.59727
-0.647588
-0.733635
-0.876435
-1.1248
-1.51899
-2.09801
-2.86172
-3.74749
-4.60568
-5.24882
-5.55711
-5.54404
-5.34864
-5.17597
-5.16031
-5.31505
-5.6944
-5.8835
-0.0839009
-0.093596
-0.101329
-0.108632
-0.116022
-0.123705
-0.131821
-0.140472
-0.149732
-0.159661
-0.170309
-0.18172
-0.193936
-0.207
-0.220954
-0.23584
-0.251704
-0.268606
-0.286604
-0.305744
-0.326075
-0.347629
-0.370417
-0.394404
-0.419481
-0.445406
-0.471788
-0.498171
-0.524359
-0.551053
-0.580841
-0.61967
-0.679011
-0.77837
-0.947416
-1.23082
-1.67522
-2.31757
-3.14809
-4.08869
-4.95253
-5.54263
-5.7527
-5.62168
-5.33003
-5.11743
-5.10109
-5.25681
-5.44047
-4.73772
-0.0802165
-0.0905971
-0.0992055
-0.107405
-0.115643
-0.124106
-0.132921
-0.142185
-0.151977
-0.162365
-0.173407
-0.185159
-0.197675
-0.211007
-0.22521
-0.240338
-0.256449
-0.273604
-0.291862
-0.311282
-0.331918
-0.353822
-0.377039
-0.401583
-0.427402
-0.454341
-0.482134
-0.510499
-0.539493
-0.570156
-0.605527
-0.652273
-0.722966
-0.83867
-1.03156
-1.34541
-1.82737
-2.50941
-3.37035
-4.34002
-5.18496
-5.72094
-5.85698
-5.65091
-5.31198
-5.08512
-5.04854
-5.08707
-4.93354
-3.67102
-0.0796525
-0.0900681
-0.0990014
-0.107671
-0.116445
-0.125461
-0.134818
-0.144597
-0.154871
-0.165705
-0.177163
-0.189305
-0.20219
-0.215878
-0.23043
-0.24591
-0.262383
-0.27992
-0.298593
-0.318475
-0.339642
-0.362173
-0.38614
-0.411595
-0.438537
-0.466876
-0.496464
-0.527249
-0.559642
-0.595169
-0.637473
-0.693835
-0.777294
-0.909014
-1.12012
-1.45105
-1.94499
-2.62895
-3.4829
-4.41446
-5.22414
-5.71823
-5.81871
-5.60144
-5.27212
-5.03115
-4.89722
-4.73532
-4.22861
-2.71695
-0.0817685
-0.0921717
-0.101247
-0.110156
-0.119233
-0.128591
-0.13831
-0.148457
-0.159099
-0.170297
-0.182114
-0.194613
-0.207858
-0.221914
-0.236849
-0.252736
-0.269652
-0.287678
-0.3069
-0.327413
-0.349314
-0.372711
-0.397706
-0.424389
-0.452808
-0.482965
-0.514889
-0.54886
-0.585784
-0.627774
-0.678992
-0.746848
-0.843693
-0.988692
-1.20906
-1.53913
-2.01425
-2.65526
-3.44378
-4.29256
-5.03361
-5.49367
-5.59919
-5.41741
-5.1176
-4.8368
-4.57134
-4.21271
-3.47389
-1.96928
-0.0849854
-0.0953332
-0.104467
-0.113527
-0.122816
-0.132432
-0.14244
-0.152899
-0.163869
-0.175409
-0.187581
-0.200451
-0.214085
-0.228556
-0.243939
-0.260317
-0.277779
-0.296421
-0.31635
-0.337681
-0.360543
-0.385073
-0.411416
-0.439713
-0.470102
-0.502756
-0.538001
-0.576562
-0.61991
-0.670675
-0.733188
-0.814276
-0.924355
-1.07886
-1.29917
-1.61155
-2.04209
-2.60474
-3.28259
-4.00448
-4.64063
-5.05306
-5.17398
-5.04572
-4.78075
-4.46769
-4.10849
-3.62874
-2.80199
-1.44582
-0.0888253
-0.0991478
-0.108322
-0.117496
-0.126952
-0.136778
-0.147031
-0.157763
-0.169032
-0.180895
-0.193415
-0.206659
-0.2207
-0.235616
-0.251491
-0.268421
-0.286508
-0.305868
-0.326631
-0.348942
-0.372967
-0.398887
-0.426911
-0.457275
-0.490276
-0.526343
-0.566183
-0.611027
-0.662931
-0.72496
-0.801175
-0.896949
-1.01976
-1.1802
-1.39297
-1.67634
-2.04818
-2.51701
-3.06811
-3.64776
-4.16216
-4.50964
-4.63228
-4.55155
-4.32948
-4.01789
-3.62419
-3.09536
-2.26889
-1.09522
-0.0928528
-0.103184
-0.1124
-0.12168
-0.131287
-0.141301
-0.151775
-0.162759
-0.174309
-0.186482
-0.199343
-0.212963
-0.22742
-0.2428
-0.259197
-0.276719
-0.295487
-0.315636
-0.337326
-0.36074
-0.38609
-0.413621
-0.443632
-0.476505
-0.51275
-0.553098
-0.598693
-0.651303
-0.713526
-0.788754
-0.880513
-0.992122
-1.12729
-1.29113
-1.4916
-1.7403
-2.04993
-2.42711
-2.8614
-3.31434
-3.71972
-4.0043
-4.12153
-4.07394
-3.89104
-3.59898
-3.20354
-2.66343
-1.87147
-0.857508
-0.096816
-0.107185
-0.116451
-0.125841
-0.135595
-0.145787
-0.156469
-0.16769
-0.179505
-0.191974
-0.205165
-0.219152
-0.23402
-0.249862
-0.266783
-0.284905
-0.304366
-0.325326
-0.347975
-0.372547
-0.399302
-0.428561
-0.460717
-0.49633
-0.536142
-0.581219
-0.633166
-0.694277
-0.767641
-0.856655
-0.964184
-1.09175
-1.23908
-1.40523
-1.59193
-1.80536
-2.05575
-2.35133
-2.68829
-3.04139
-3.36355
-3.59978
-3.71009
-3.68417
-3.53029
-3.25827
-2.87005
-2.33324
-1.58342
-0.691183
-0.100496
-0.11091
-0.120232
-0.129737
-0.139638
-0.150003
-0.160881
-0.172323
-0.184386
-0.197132
-0.210632
-0.224966
-0.240224
-0.256507
-0.273929
-0.292624
-0.312749
-0.334482
-0.358031
-0.383714
-0.411807
-0.442704
-0.476903
-0.515121
-0.558295
-0.607815
-0.665623
-0.734438
-0.817626
-0.918745
-1.04025
-1.18157
-1.33898
-1.50724
-1.68257
-1.86664
-2.06789
-2.29657
-2.55559
-2.83146
-3.09167
-3.29313
-3.39837
-3.38728
-3.25267
-2.99599
-2.61537
-2.08725
-1.37781
-0.572719
-0.103781
-0.114306
-0.123728
-0.13337
-0.143421
-0.15395
-0.165009
-0.17665
-0.188933
-0.201924
-0.215695
-0.230328
-0.245923
-0.262578
-0.280422
-0.299597
-0.320274
-0.342633
-0.366846
-0.393541
-0.422718
-0.454915
-0.490756
-0.530997
-0.576766
-0.629626
-0.691766
-0.766086
-0.856034
-0.964927
-1.09451
-1.24333
-1.40628
-1.57545
-1.74458
-1.91219
-2.08424
-2.26985
-2.47437
-2.6923
-2.90322
-3.07492
-3.17312
-3.17046
-3.04961
-2.80373
-2.42947
-1.91152
-1.23724
-0.492197
-0.106186
-0.117048
-0.126614
-0.136391
-0.146574
-0.15724
-0.168444
-0.180244
-0.1927
-0.205881
-0.219859
-0.234712
-0.25059
-0.267528
-0.285686
-0.305215
-0.32629
-0.349136
-0.374065
-0.401053
-0.430815
-0.463771
-0.500549
-0.541996
-0.589278
-0.644012
-0.70841
-0.785322
-0.87799
-0.98937
-1.12078
-1.27061
-1.43385
-1.60263
-1.77083
-1.93648
-2.10299
-2.27549
-2.45731
-2.6443
-2.82201
-2.96664
-3.04987
-3.04438
-2.92785
-2.68633
-2.31476
-1.80389
-1.15562
-0.446061
-0.109184
-0.120105
-0.129288
-0.139023
-0.149199
-0.159893
-0.17114
-0.182991
-0.195502
-0.208736
-0.222772
-0.237699
-0.253561
-0.270558
-0.288788
-0.308397
-0.329564
-0.352501
-0.377463
-0.404709
-0.434689
-0.467905
-0.505001
-0.546841
-0.594601
-0.649878
-0.714799
-0.79205
-0.884583
-0.99512
-1.12497
-1.27292
-1.43464
-1.6048
-1.77682
-1.94932
-2.12401
-2.30407
-2.48891
-2.67146
-2.83708
-2.96495
-3.03106
-3.01173
-2.88712
-2.64314
-2.26694
-1.75487
-1.1155
-0.4093
-0.549259
1.91842
2.57376
2.98578
3.21093
3.36857
3.47792
3.55898
3.61997
3.6668
3.70305
3.73125
3.75321
3.77023
3.78333
3.79326
3.80058
3.8057
3.80895
3.81012
-0.840322
1.61759
2.44396
2.90387
3.1574
3.33126
3.4514
3.53987
3.60608
3.65665
3.69561
3.72578
3.74917
3.76724
3.78111
3.79159
3.7993
3.80468
3.80809
3.80933
-0.584759
1.43169
2.33692
2.82583
3.10606
3.29517
3.42588
3.52156
3.59286
3.64704
3.6886
3.72065
3.7454
3.76447
3.77905
3.79004
3.79812
3.80375
3.80731
3.80859
-0.282743
1.32923
2.25215
2.75473
3.05782
3.26082
3.40162
3.5042
3.58039
3.63804
3.68207
3.71589
3.74192
3.76191
3.77716
3.78863
3.79704
3.80289
3.8066
3.80793
-0.0870994
1.26693
2.18314
2.69164
3.01325
3.22864
3.37886
3.48795
3.56877
3.62969
3.67604
3.71153
3.73874
3.75959
3.77544
3.78735
3.79607
3.80213
3.80596
3.80733
0.0428989
1.23023
2.12479
2.63632
2.97261
3.19891
3.35778
3.47293
3.55808
3.62204
3.67055
3.70757
3.73588
3.7575
3.77391
3.78621
3.79521
3.80145
3.80539
3.8068
0.135308
1.21335
2.07524
2.58834
2.936
3.17187
3.33854
3.45926
3.54839
3.61515
3.66564
3.70404
3.73334
3.75566
3.77256
3.78522
3.79445
3.80086
3.8049
3.80634
0.197
1.20865
2.03379
2.54722
2.9035
3.14768
3.32128
3.44703
3.53977
3.60906
3.66132
3.70097
3.73113
3.75406
3.77141
3.78436
3.79381
3.80035
3.80448
3.80595
0.239
1.20964
1.99952
2.51248
2.87519
3.12649
3.30615
3.43635
3.5323
3.60382
3.65763
3.69836
3.72928
3.75273
3.77044
3.78365
3.79328
3.79994
3.80413
3.80563
0.27254
1.21303
1.9715
2.48364
2.85114
3.10845
3.29328
3.42734
3.52603
3.59947
3.6546
3.69623
3.72777
3.75166
3.76967
3.78309
3.79286
3.79961
3.80387
3.80538
0.302327
1.21731
1.94906
2.46039
2.83145
3.09372
3.28284
3.42009
3.52106
3.59606
3.65226
3.69461
3.72664
3.75086
3.7691
3.78268
3.79255
3.79938
3.80367
3.8052
0.328047
1.22152
1.93198
2.44268
2.81639
3.08256
3.27503
3.41477
3.51749
3.59366
3.65063
3.69351
3.72588
3.75034
3.76873
3.78242
3.79236
3.79923
3.80355
3.80509
0.348297
1.22577
1.9209
2.43117
2.80664
3.07552
3.27026
3.41164
3.51547
3.59236
3.6498
3.69297
3.72553
3.75011
3.76858
3.78231
3.79229
3.79918
3.80351
3.80506
0.366762
1.23279
1.91812
2.42754
2.80346
3.07342
3.26903
3.411
3.51518
3.59227
3.64981
3.69302
3.72561
3.75018
3.76865
3.78237
3.79234
3.79923
3.80355
3.80511
0.395987
1.24171
1.92257
2.43056
2.80575
3.07531
3.2706
3.41228
3.5162
3.59307
3.65043
3.6935
3.72597
3.75046
3.76886
3.78254
3.79247
3.79933
3.80364
3.80522
)
;

boundaryField
{
    internal
    {
        type            internal;
    }
    movingWall
    {
        type            zeroGradient;
    }
    farFieldMoving
    {
        type            zeroGradient;
    }
    fixedWall
    {
        type            zeroGradient;
    }
    axis
    {
        type            empty;
    }
    left
    {
        type            totalPressure;
        rho             rho;
        psi             none;
        gamma           1;
        p0              uniform 0;
        value           nonuniform List<scalar> 
30
(
-0.0695947
-0.0688285
-0.0674019
-0.065289
-0.0625277
-0.059177
-0.0553124
-0.0510254
-0.0464231
-0.0416257
-0.0367621
-0.031962
-0.0273456
-0.0230122
-0.0190316
-0.0132036
-0.00726308
-0.00336986
-0.00114399
-0.000177192
0
0
0
0
0
0
0
0
0
0
)
;
    }
    farField
    {
        type            zeroGradient;
    }
    back
    {
        type            wedge;
    }
    front
    {
        type            wedge;
    }
}


// ************************************************************************* //
