/*--------------------------------*- C++ -*----------------------------------*\
  =========                 |
  \\      /  F ield         | OpenFOAM: The Open Source CFD Toolbox
   \\    /   O peration     | Website:  https://openfoam.org
    \\  /    A nd           | Version:  13
     \\/     M anipulation  |
\*---------------------------------------------------------------------------*/
FoamFile
{
    format      ascii;
    class       surfaceScalarField;
    location    "0.0006";
    object      phi;
}
// * * * * * * * * * * * * * * * * * * * * * * * * * * * * * * * * * * * * * //

dimensions      [0 3 -1 0 0 0 0];

internalField   nonuniform List<scalar> 
3252
(
2.83126e-11
-1.50705e-12
1.91048e-11
-4.65749e-12
1.32777e-11
-8.03826e-12
1.0882e-11
-1.14693e-11
1.11126e-11
-1.40919e-11
1.22304e-11
-1.49077e-11
1.00615e-11
-1.11476e-11
-2.55805e-12
8.42677e-11
-6.03325e-12
5.65786e-11
-1.85645e-11
3.90373e-11
-3.20929e-11
3.19222e-11
-4.59494e-11
3.33832e-11
-5.71368e-11
3.71287e-11
-6.0024e-11
3.1708e-11
-4.56755e-11
-8.70835e-12
1.38293e-10
-1.35309e-11
9.20447e-11
-4.16426e-11
6.28262e-11
-7.22011e-11
5.14366e-11
-1.03885e-10
5.52535e-11
-1.3026e-10
6.30622e-11
-1.36788e-10
5.46616e-11
-1.03852e-10
-1.7143e-11
1.89079e-10
-2.39214e-11
1.24108e-10
-7.3729e-11
8.32297e-11
-1.2838e-10
6.8282e-11
-1.85993e-10
7.63526e-11
-2.35361e-10
9.09255e-11
-2.47908e-10
7.99464e-11
-1.86075e-10
-2.55294e-11
2.35314e-10
-3.70703e-11
1.51319e-10
-1.14522e-10
9.86753e-11
-2.00525e-10
8.10893e-11
-2.93192e-10
9.62924e-11
-3.75317e-10
1.21843e-10
-3.97606e-10
1.09035e-10
-2.93084e-10
-3.00613e-11
2.75721e-10
-5.27721e-11
1.72199e-10
-1.63519e-10
1.07434e-10
-2.88279e-10
8.82103e-11
-4.26484e-10
1.14505e-10
-5.54088e-10
1.57106e-10
-5.91966e-10
1.4364e-10
-4.26043e-10
-2.52205e-11
3.0907e-10
-7.07313e-11
1.85232e-10
-2.19931e-10
1.07535e-10
-3.90831e-10
8.74658e-11
-5.86661e-10
1.29623e-10
-7.76445e-10
1.97093e-10
-8.38824e-10
1.85017e-10
-5.86984e-10
-4.23211e-12
3.34208e-10
-9.05384e-11
1.88865e-10
-2.82569e-10
9.66459e-11
-5.06592e-10
7.56121e-11
-7.73603e-10
1.37591e-10
-1.04635e-09
2.37629e-10
-1.14589e-09
2.31218e-10
-7.8017e-10
3.77315e-11
3.50108e-10
-1.1165e-10
1.81542e-10
-3.49714e-10
7.19384e-11
-6.327e-10
4.74388e-11
-9.8481e-10
1.28339e-10
-1.3629e-09
2.63535e-10
-1.51579e-09
2.71913e-10
-1.01471e-09
9.51683e-11
3.55938e-10
-1.3338e-10
1.61781e-10
-4.19e-10
3.01346e-11
-7.64495e-10
-4.96809e-12
-1.21314e-09
8.34048e-11
-1.71465e-09
2.44237e-10
-1.93901e-09
2.83975e-10
-1.30715e-09
1.39449e-10
3.51137e-10
-1.54911e-10
1.28397e-10
-4.87433e-10
-3.17424e-11
-8.95528e-10
-9.1038e-11
-1.44501e-09
-2.0691e-11
-2.07609e-09
1.4049e-10
-2.39029e-09
2.33812e-10
-1.67969e-09
1.08354e-10
3.35516e-10
-1.75363e-10
8.09354e-11
-5.51756e-10
-1.15029e-10
-1.01847e-09
-2.17227e-10
-1.66171e-09
-2.01155e-10
-2.41099e-09
-7.63934e-11
-2.83291e-09
8.8684e-11
-2.15048e-09
-9.30784e-11
3.0935e-10
-1.93952e-10
2.0276e-11
-6.09317e-10
-2.18091e-10
-1.12673e-09
-3.81779e-10
-1.84465e-09
-4.55173e-10
-2.68414e-09
-4.06782e-10
-3.22694e-09
-1.80055e-10
-2.70938e-09
-5.88452e-10
2.73379e-10
-2.10204e-10
-5.14488e-11
-6.58855e-10
-3.36042e-10
-1.2165e-09
-5.72271e-10
-1.98278e-09
-7.55851e-10
-2.87483e-09
-8.26366e-10
-3.52982e-09
-5.97251e-10
-3.29705e-09
-1.52633e-09
2.28601e-10
-2.24081e-10
-1.31809e-10
-7.00541e-10
-4.63339e-10
-1.28707e-09
-7.72235e-10
-2.07597e-09
-1.06429e-09
-2.98478e-09
-1.28546e-09
-3.70971e-09
-1.15771e-09
-3.8127e-09
-3.04712e-09
-1.167e-11
6.33059e-11
-6.76701e-11
1.08826e-10
-1.32864e-10
1.19797e-10
-1.96203e-10
1.19902e-10
-2.55608e-10
1.18052e-10
-3.08915e-10
1.14129e-10
-3.54426e-10
1.08592e-10
-3.90672e-10
1.01668e-10
-4.16496e-10
9.36754e-11
-4.3109e-10
8.4966e-11
-4.34012e-10
7.59067e-11
-4.25166e-10
6.68486e-11
-4.04768e-10
5.81092e-11
-3.73306e-10
4.99617e-11
-3.31489e-10
4.26299e-11
-2.80202e-10
3.62983e-11
-2.20522e-10
3.11573e-11
-1.53778e-10
2.74686e-11
-8.12331e-11
2.51619e-11
1.97279e-11
-3.36708e-11
2.37587e-10
-1.94458e-10
4.13479e-10
-3.75525e-10
4.49572e-10
-5.53486e-10
4.51908e-10
-7.18735e-10
4.43024e-10
-8.66383e-10
4.27424e-10
-9.91662e-10
4.05667e-10
-1.09062e-09
3.78801e-10
-1.16021e-09
3.48062e-10
-1.19842e-09
3.1483e-10
-1.20424e-09
2.80496e-10
-1.17761e-09
2.4637e-10
-1.11931e-09
2.13622e-10
-1.03083e-09
1.83235e-10
-9.14212e-10
1.56001e-10
-7.71942e-10
1.32563e-10
-6.06973e-10
1.13583e-10
-4.22923e-10
1.00002e-10
-2.2324e-10
9.15821e-11
7.15163e-11
-6.43871e-11
5.12695e-10
-3.21505e-10
8.86222e-10
-6.08161e-10
9.59108e-10
-8.87322e-10
9.61955e-10
-1.14462e-09
9.39715e-10
-1.37232e-09
9.03408e-10
-1.56314e-09
8.53986e-10
-1.71136e-09
7.94079e-10
-1.81284e-09
7.26513e-10
-1.8651e-09
6.54347e-10
-1.86724e-09
5.80565e-10
-1.81978e-09
5.07902e-10
-1.72443e-09
4.38736e-10
-1.58383e-09
3.75011e-10
-1.40135e-09
3.18246e-10
-1.18091e-09
2.69643e-10
-9.26959e-10
2.30443e-10
-6.44844e-10
2.02469e-10
-3.39539e-10
1.85128e-10
1.44333e-10
-1.06004e-10
8.83722e-10
-4.60257e-10
1.51168e-09
-8.48654e-10
1.62783e-09
-1.22234e-09
1.62605e-09
-1.56285e-09
1.58135e-09
-1.85998e-09
1.51283e-09
-2.10445e-09
1.42234e-09
-2.2896e-09
1.31514e-09
-2.4111e-09
1.1964e-09
-2.46697e-09
1.07153e-09
-2.45724e-09
9.45579e-10
-2.38368e-09
8.23002e-10
-2.24938e-09
7.07531e-10
-2.0584e-09
6.02101e-10
-1.81546e-09
5.0891e-10
-1.52574e-09
4.29631e-10
-1.19491e-09
3.66019e-10
-8.29473e-10
3.20776e-10
-4.35403e-10
2.9275e-10
2.27763e-10
-1.61817e-10
1.35165e-09
-6.18582e-10
2.28169e-09
-1.10895e-09
2.44197e-09
-1.57358e-09
2.42613e-09
-1.99056e-09
2.34615e-09
-2.34759e-09
2.23058e-09
-2.63418e-09
2.08306e-09
-2.8438e-09
1.91278e-09
-2.97309e-09
1.72811e-09
-3.02158e-09
1.53739e-09
-2.99115e-09
1.34802e-09
-2.88545e-09
1.16625e-09
-2.70937e-09
9.97075e-10
-2.46856e-09
8.44211e-10
-2.16907e-09
7.10284e-10
-1.81715e-09
5.97188e-10
-1.41934e-09
5.06974e-10
-9.82836e-10
4.43056e-10
-5.14052e-10
4.03488e-10
3.13206e-10
-2.34718e-10
1.92256e-09
-8.02483e-10
3.19346e-09
-1.39699e-09
3.39206e-09
-1.95004e-09
3.34759e-09
-2.43689e-09
3.21504e-09
-2.84383e-09
3.03372e-09
-3.16031e-09
2.81046e-09
-3.38133e-09
2.55997e-09
-3.50575e-09
2.29453e-09
-3.53576e-09
2.02581e-09
-3.47588e-09
1.76358e-09
-3.33219e-09
1.51567e-09
-3.11165e-09
1.28795e-09
-2.82152e-09
1.0845e-09
-2.46908e-09
9.07959e-10
-2.06139e-09
7.60055e-10
-1.60549e-09
6.4282e-10
-1.10879e-09
5.60097e-10
-5.77716e-10
5.08928e-10
3.94121e-10
-3.27419e-10
2.60712e-09
-1.01697e-09
4.24844e-09
-1.7187e-09
4.4715e-09
-2.35729e-09
4.37758e-09
-2.90628e-09
4.16988e-09
-3.35162e-09
3.89996e-09
-3.68443e-09
3.57981e-09
-3.90289e-09
3.23118e-09
-4.00951e-09
2.87072e-09
-4.01018e-09
2.51349e-09
-3.91276e-09
2.17125e-09
-3.72609e-09
1.85284e-09
-3.45922e-09
1.56439e-09
-3.12094e-09
1.30972e-09
-2.71946e-09
1.09092e-09
-2.26236e-09
9.09106e-10
-1.75681e-09
7.65932e-10
-1.21003e-09
6.65332e-10
-6.28029e-10
6.0316e-10
4.65989e-10
-4.43127e-10
3.42081e-09
-1.26699e-09
5.45143e-09
-2.07889e-09
5.67527e-09
-2.79863e-09
5.5034e-09
-3.39975e-09
5.19211e-09
-3.86973e-09
4.80669e-09
-4.20367e-09
4.3667e-09
-4.40483e-09
3.90213e-09
-4.4808e-09
3.43392e-09
-4.44207e-09
2.98007e-09
-4.3002e-09
2.55347e-09
-4.06686e-09
2.16307e-09
-3.75306e-09
1.81434e-09
-3.36877e-09
1.51013e-09
-2.92281e-09
1.25137e-09
-2.42289e-09
1.03814e-09
-1.87595e-09
8.71306e-10
-1.28865e-09
7.54581e-10
-6.6632e-10
6.82507e-10
5.26071e-10
-5.85853e-10
4.38448e-09
-1.55785e-09
6.80991e-09
-2.48165e-09
6.99857e-09
-3.27538e-09
6.71116e-09
-3.91548e-09
6.26156e-09
-4.3937e-09
5.73019e-09
-4.712e-09
5.14683e-09
-4.88078e-09
4.54988e-09
-4.91391e-09
3.96382e-09
-4.82702e-09
3.40839e-09
-4.63547e-09
2.89627e-09
-4.35348e-09
2.43528e-09
-3.99361e-09
2.02926e-09
-3.56658e-09
1.67924e-09
-3.08138e-09
1.38447e-09
-2.54549e-09
1.1435e-09
-1.96528e-09
9.5618e-10
-1.34656e-09
8.25661e-10
-6.93779e-10
7.45141e-10
5.73078e-10
-7.60714e-10
5.52521e-09
-1.89547e-09
8.33337e-09
-2.93041e-09
8.43531e-09
-3.78709e-09
7.98427e-09
-4.44915e-09
7.35548e-09
-4.91651e-09
6.64545e-09
-5.20133e-09
5.89618e-09
-5.32294e-09
5.15329e-09
-5.30237e-09
4.44293e-09
-5.16046e-09
3.78471e-09
-4.91599e-09
3.18929e-09
-4.58522e-09
2.66196e-09
-4.18164e-09
2.20384e-09
-3.71621e-09
1.81345e-09
-3.19763e-09
1.4878e-09
-2.63277e-09
1.22367e-09
-2.02719e-09
1.01959e-09
-1.38564e-09
8.77963e-10
-7.11541e-10
7.9066e-10
6.06823e-10
-9.74473e-10
6.87786e-09
-2.28656e-09
1.00322e-08
-3.42787e-09
9.9764e-09
-4.33129e-09
9.30209e-09
-4.99404e-09
8.448e-09
-5.42915e-09
7.52628e-09
-5.66232e-09
6.59162e-09
-5.72315e-09
5.69355e-09
-5.64e-09
4.85703e-09
-5.43849e-09
4.09891e-09
-5.14008e-09
3.42574e-09
-4.76223e-09
2.83885e-09
-4.31871e-09
2.33567e-09
-3.8201e-09
1.91157e-09
-3.27441e-09
1.561e-09
-2.6876e-09
1.27875e-09
-2.06421e-09
1.06194e-09
-1.40781e-09
9.12039e-10
-7.2072e-10
8.19695e-10
6.27902e-10
-1.23648e-09
8.48741e-09
-2.73868e-09
1.19159e-08
-3.97568e-09
1.16077e-08
-4.90329e-09
1.06385e-08
-5.54127e-09
9.50993e-09
-5.92121e-09
8.34593e-09
-6.08527e-09
7.21172e-09
-6.07369e-09
6.15494e-09
-5.9217e-09
5.19559e-09
-5.65858e-09
4.34455e-09
-5.30738e-09
3.60221e-09
-4.88587e-09
2.9646e-09
-4.4073e-09
2.42469e-09
-3.88138e-09
1.97434e-09
-3.31504e-09
1.60522e-09
-2.71312e-09
1.31007e-09
-2.07899e-09
1.08457e-09
-1.41502e-09
9.2923e-10
-7.22408e-10
8.33564e-10
6.37415e-10
-1.55998e-09
1.04128e-08
-3.25996e-09
1.39895e-08
-4.57394e-09
1.33079e-08
-5.49582e-09
1.19608e-08
-6.07992e-09
1.05093e-08
-6.38146e-09
9.07815e-09
-6.4608e-09
7.73774e-09
-6.36806e-09
6.52545e-09
-6.14393e-09
5.45194e-09
-5.81981e-09
4.51874e-09
-5.41903e-09
3.71826e-09
-4.95867e-09
3.04026e-09
-4.45079e-09
2.47276e-09
-3.90378e-09
2.00392e-09
-3.3232e-09
1.62266e-09
-2.71264e-09
1.31974e-09
-2.07426e-09
1.08947e-09
-1.40919e-09
9.31349e-10
-7.17679e-10
8.34026e-10
6.36737e-10
-1.96336e-09
1.2732e-08
-3.8584e-09
1.62482e-08
-5.22055e-09
1.5046e-08
-6.09873e-09
1.32287e-08
-6.59749e-09
1.14123e-08
-6.7986e-09
9.69857e-09
-6.78068e-09
8.1547e-09
-6.60148e-09
6.7973e-09
-6.30507e-09
5.62331e-09
-5.92299e-09
4.62182e-09
-5.47758e-09
3.77604e-09
-4.98425e-09
3.0688e-09
-4.45332e-09
2.48311e-09
-3.8915e-09
2.00347e-09
-3.30286e-09
1.61625e-09
-2.68962e-09
1.31038e-09
-2.05277e-09
1.07892e-09
-1.39233e-09
9.20479e-10
-7.07518e-10
8.22933e-10
6.27389e-10
-2.47295e-09
1.55496e-08
-4.54073e-09
1.86682e-08
-5.91041e-09
1.67798e-08
-6.69891e-09
1.43948e-08
-7.08049e-09
1.21855e-08
-7.16199e-09
1.01862e-08
-7.03867e-09
8.45263e-09
-6.77135e-09
6.96688e-09
-6.40549e-09
5.71058e-09
-5.97061e-09
4.6569e-09
-5.48678e-09
3.77962e-09
-4.967e-09
3.05455e-09
-4.41945e-09
2.45986e-09
-3.84893e-09
1.97674e-09
-3.25793e-09
1.58925e-09
-2.64739e-09
1.28478e-09
-2.01714e-09
1.05535e-09
-1.36617e-09
8.98736e-10
-6.9289e-10
8.02259e-10
6.10873e-10
-3.12444e-09
1.90064e-08
-5.31145e-09
2.11949e-08
-6.63458e-09
1.8454e-08
-7.28096e-09
1.54054e-08
-7.51562e-09
1.27979e-08
-7.46271e-09
1.05251e-08
-7.22953e-09
8.62574e-09
-6.87694e-09
7.03567e-09
-6.44728e-09
5.71794e-09
-5.96649e-09
4.62937e-09
-5.45135e-09
3.73458e-09
-4.91195e-09
3.0027e-09
-4.35406e-09
2.40764e-09
-3.78056e-09
1.92769e-09
-3.19239e-09
1.54503e-09
-2.58923e-09
1.24577e-09
-1.96988e-09
1.02112e-09
-1.33247e-09
8.68178e-10
-6.74658e-10
7.73869e-10
5.88619e-10
-3.96281e-09
2.32886e-08
-6.1778e-09
2.37362e-08
-7.37763e-09
1.99912e-08
-7.83223e-09
1.62098e-08
-7.88821e-09
1.32168e-08
-7.69312e-09
1.07064e-08
-7.35201e-09
8.675e-09
-6.92013e-09
7.00866e-09
-6.43433e-09
5.65205e-09
-5.91557e-09
4.54612e-09
-5.3766e-09
3.64729e-09
-4.82433e-09
2.91889e-09
-4.26206e-09
2.33125e-09
-3.69077e-09
1.86033e-09
-3.10996e-09
1.48686e-09
-2.51817e-09
1.19604e-09
-1.91332e-09
9.78464e-10
-1.29276e-09
8.30717e-10
-6.53601e-10
7.39479e-10
5.61931e-10
-5.02317e-09
2.86177e-08
-7.1654e-09
2.61908e-08
-8.11542e-09
2.12643e-08
-8.32219e-09
1.67517e-08
-8.18698e-09
1.34291e-08
-7.84948e-09
1.07293e-08
-7.40662e-09
8.606e-09
-6.90447e-09
6.89426e-09
-6.37171e-09
5.52144e-09
-5.8235e-09
4.415e-09
-5.26818e-09
3.52455e-09
-4.70944e-09
2.8088e-09
-4.14821e-09
2.23534e-09
-3.58371e-09
1.77844e-09
-3.01412e-09
1.4178e-09
-2.43701e-09
1.13807e-09
-1.84954e-09
9.29415e-10
-1.24846e-09
7.88066e-10
-6.30412e-10
7.00624e-10
5.31966e-10
-6.37284e-09
3.52827e-08
-8.2936e-09
2.84099e-08
-8.82466e-09
2.21038e-08
-8.74284e-09
1.69899e-08
-8.40327e-09
1.34215e-08
-7.93036e-09
1.06007e-08
-7.39639e-09
8.42905e-09
-6.83512e-09
6.70328e-09
-6.26539e-09
5.33574e-09
-5.69629e-09
4.24419e-09
-5.13175e-09
3.3731e-09
-4.5724e-09
2.6779e-09
-4.017e-09
2.1243e-09
-3.46319e-09
1.6855e-09
-2.90802e-09
1.34063e-09
-2.34825e-09
1.07405e-09
-1.78041e-09
8.75754e-10
-1.20079e-09
7.41724e-10
-6.05692e-10
6.58636e-10
4.99719e-10
-7.52764e-09
4.30891e-08
-9.46872e-09
3.06348e-08
-9.45255e-09
2.23813e-08
-9.07339e-09
1.69155e-08
-8.53204e-09
1.31963e-08
-7.93812e-09
1.03346e-08
-7.32678e-09
8.1578e-09
-6.71865e-09
6.44786e-09
-6.12202e-09
5.10494e-09
-5.54018e-09
4.04175e-09
-4.97291e-09
3.19933e-09
-4.41811e-09
2.53122e-09
-3.87261e-09
2.00208e-09
-3.3327e-09
1.5846e-09
-2.79451e-09
1.25775e-09
-2.25412e-09
1.0059e-09
-1.70759e-09
8.19009e-10
-1.15084e-09
6.92955e-10
-5.8e-10
6.14661e-10
4.66013e-10
3.15423e-10
-2.49058e-10
-6.62338e-10
-7.68846e-10
-1.61342e-09
-1.38205e-09
-2.58698e-09
-2.14846e-09
-3.60382e-09
-3.01378e-09
-4.55084e-09
-3.80602e-09
-5.14086e-09
-4.24635e-09
-3.54519e-09
-5.45768e-09
-4.73087e-11
-2.6456e-10
-1.2128e-09
-8.00401e-10
-2.39331e-09
-1.39858e-09
-3.6543e-09
-2.0845e-09
-5.03867e-09
-2.82624e-09
-6.51264e-09
-3.52635e-09
-7.94266e-09
-3.99731e-09
-3.62845e-09
-8.65048e-09
-4.68082e-10
-2.74655e-10
-1.81609e-09
-8.00411e-10
-3.19686e-09
-1.36583e-09
-4.65567e-09
-1.97369e-09
-6.22941e-09
-2.60035e-09
-7.91844e-09
-3.18309e-09
-9.63556e-09
-3.60887e-09
-3.40201e-09
-1.07401e-08
-9.21932e-10
-2.88558e-10
-2.44677e-09
-7.74571e-10
-4.01601e-09
-1.2956e-09
-5.65309e-09
-1.83559e-09
-7.37696e-09
-2.37535e-09
-9.18382e-09
-2.87377e-09
-1.10089e-08
-3.25569e-09
-3.12341e-09
-1.22563e-08
-1.38642e-09
-3.09224e-10
-3.08151e-09
-7.29463e-10
-4.82237e-09
-1.20472e-09
-6.6218e-09
-1.68612e-09
-8.49145e-09
-2.1556e-09
-1.0424e-08
-2.59052e-09
-1.23606e-08
-2.93549e-09
-2.84485e-09
-1.36996e-08
-1.87743e-09
-3.23318e-10
-3.72705e-09
-6.80803e-10
-5.62998e-09
-1.10275e-09
-7.58712e-09
-1.52992e-09
-9.60233e-09
-1.94133e-09
-1.16703e-08
-2.32365e-09
-1.37301e-08
-2.63818e-09
-2.57462e-09
-1.51539e-08
-2.36518e-09
-3.25888e-10
-4.36941e-09
-6.28511e-10
-6.42573e-09
-9.98365e-10
-8.53728e-09
-1.3703e-09
-1.07024e-08
-1.72818e-09
-1.29149e-08
-2.06386e-09
-1.51149e-08
-2.34896e-09
-2.30476e-09
-1.6633e-08
-2.82836e-09
-3.09374e-10
-4.99028e-09
-5.6951e-10
-7.2046e-09
-8.86964e-10
-9.47217e-09
-1.20565e-09
-1.17903e-08
-1.51308e-09
-1.41538e-08
-1.80451e-09
-1.65053e-08
-2.05903e-09
-2.02943e-09
-1.81256e-08
-3.26724e-09
-2.79738e-10
-5.58974e-09
-5.00905e-10
-7.96326e-09
-7.67343e-10
-1.03884e-08
-1.03443e-09
-1.28624e-08
-1.29302e-09
-1.5382e-08
-1.54051e-09
-1.7894e-08
-1.76231e-09
-1.74394e-09
-1.96233e-08
-3.68285e-09
-2.40757e-10
-6.16587e-09
-4.22759e-10
-8.69909e-09
-6.39001e-10
-1.1283e-08
-8.55379e-10
-1.39155e-08
-1.06554e-09
-1.65944e-08
-1.26831e-09
-1.92743e-08
-1.45457e-09
-1.4447e-09
-2.11189e-08
-4.07329e-09
-1.94595e-10
-6.71617e-09
-3.35728e-10
-9.40926e-09
-5.01769e-10
-1.2153e-08
-6.67497e-10
-1.49458e-08
-8.28784e-10
-1.77861e-08
-9.85567e-10
-2.06399e-08
-1.1332e-09
-1.12906e-09
-2.26055e-08
-4.43256e-09
-1.42565e-10
-7.23468e-09
-2.40442e-10
-1.00875e-08
-3.55805e-10
-1.29913e-08
-4.70525e-10
-1.59451e-08
-5.81959e-10
-1.89475e-08
-6.9134e-10
-2.19799e-08
-7.97489e-10
-7.95749e-10
-2.40711e-08
-4.72625e-09
-8.64024e-11
-7.68511e-09
-1.39392e-10
-1.06942e-08
-2.04516e-10
-1.37539e-08
-2.68708e-10
-1.68641e-08
-3.29757e-10
-2.00236e-08
-3.90425e-10
-2.32325e-08
-4.53432e-10
-4.51094e-10
-2.54468e-08
-4.7628e-09
-3.24943e-11
-7.86527e-09
-4.57203e-11
-1.10125e-08
-6.61087e-11
-1.42047e-08
-8.5295e-11
-1.74419e-08
-1.01572e-10
-2.07239e-08
-1.17423e-10
-2.40604e-08
-1.398e-10
-1.46206e-10
-2.63611e-08
-3.9375e-09
-7.14299e-09
-1.03689e-08
-1.3614e-08
-1.68755e-08
-2.01527e-08
-2.346e-08
-2.60308e-08
-4.63269e-09
-9.54864e-10
-4.41033e-09
-2.35899e-10
-4.28259e-09
-1.29306e-10
-4.19146e-09
-9.14116e-11
-4.1218e-09
-6.97148e-11
-4.06571e-09
-5.61001e-11
-4.01809e-09
-4.7618e-11
-3.97547e-09
-4.26225e-11
-3.93543e-09
-4.00428e-11
-3.89627e-09
-3.91556e-11
-3.85681e-09
-3.94636e-11
-3.81619e-09
-4.06208e-11
-3.77381e-09
-4.23799e-11
-3.72925e-09
-4.45621e-11
-3.68221e-09
-4.70366e-11
-3.63251e-09
-4.96988e-11
-3.58005e-09
-5.24606e-11
-3.5248e-09
-5.52525e-11
-3.46678e-09
-5.80201e-11
-3.40607e-09
-6.07086e-11
-3.34281e-09
-6.32547e-11
-3.27723e-09
-6.5584e-11
-3.20963e-09
-6.75953e-11
-3.14053e-09
-6.91021e-11
-3.07081e-09
-6.97212e-11
-3.00202e-09
-6.87949e-11
-2.93646e-09
-6.55538e-11
-2.87666e-09
-5.98031e-11
-2.82335e-09
-5.33083e-11
-2.77169e-09
-5.16623e-11
-2.70551e-09
-6.61743e-11
-2.59055e-09
-1.14964e-10
-2.36927e-09
-2.21284e-10
-1.96257e-09
-4.06698e-10
-1.28097e-09
-6.81602e-10
-2.55011e-10
-1.02595e-09
1.11866e-09
-1.37367e-09
2.73052e-09
-1.61186e-09
4.34823e-09
-1.61771e-09
5.63325e-09
-1.28502e-09
6.22431e-09
-5.91061e-10
5.91008e-09
3.1423e-10
4.80423e-09
1.10585e-09
3.32469e-09
1.47954e-09
2.03602e-09
1.28867e-09
1.36994e-09
6.66081e-10
1.46928e-09
-9.9333e-11
2.3576e-09
-8.88323e-10
2.52714e-09
-1.69468e-10
8.50477e-09
-5.97154e-09
-8.88029e-09
-9.6011e-10
-8.92741e-09
-2.17232e-10
-8.97242e-09
-8.81892e-11
-9.02129e-09
-4.32653e-11
-9.07031e-09
-2.0826e-11
-9.11807e-09
-8.37191e-12
-9.16369e-09
-1.99801e-12
-9.20641e-09
9.67948e-14
-9.24543e-09
-1.02064e-12
-9.27996e-09
-4.62846e-12
-9.30923e-09
-1.01972e-11
-9.33253e-09
-1.73123e-11
-9.34927e-09
-2.56402e-11
-9.35892e-09
-3.49181e-11
-9.36101e-09
-4.49456e-11
-9.35514e-09
-5.55658e-11
-9.34096e-09
-6.66423e-11
-9.31815e-09
-7.80622e-11
-9.28644e-09
-8.97303e-11
-9.24561e-09
-1.01539e-10
-9.19549e-09
-1.13377e-10
-9.13596e-09
-1.25112e-10
-9.0671e-09
-1.3645e-10
-8.98959e-09
-1.46613e-10
-8.90535e-09
-1.53967e-10
-8.81798e-09
-1.56165e-10
-8.73196e-09
-1.51575e-10
-8.64914e-09
-1.42625e-10
-8.56177e-09
-1.40669e-10
-8.44281e-09
-1.7063e-10
-8.23671e-09
-2.72271e-10
-7.85711e-09
-4.94561e-10
-7.19783e-09
-8.80564e-10
-6.15862e-09
-1.44591e-09
-4.66926e-09
-2.17097e-09
-2.72247e-09
-2.97275e-09
-3.88446e-10
-3.70769e-09
2.15705e-09
-4.15736e-09
4.62672e-09
-4.08738e-09
6.65865e-09
-3.31695e-09
7.901e-09
-1.8334e-09
8.12851e-09
8.67156e-11
7.33212e-09
1.90223e-09
5.79741e-09
3.01425e-09
4.12717e-09
2.95891e-09
2.9823e-09
1.81095e-09
2.55276e-09
3.30207e-10
1.5698e-09
9.46453e-11
-3.54884e-09
4.94973e-09
1.75167e-08
-1.25164e-08
-1.12035e-08
-7.64595e-10
-1.13749e-08
-8.40795e-11
-1.15139e-08
4.47594e-11
-1.16405e-08
8.21653e-11
-1.17592e-08
9.76425e-11
-1.18723e-08
1.04727e-10
-1.19811e-08
1.06765e-10
-1.20861e-08
1.05056e-10
-1.21874e-08
1.00357e-10
-1.22853e-08
9.32018e-11
-1.23795e-08
8.39834e-11
-1.24698e-08
7.29947e-11
-1.25559e-08
6.04586e-11
-1.26373e-08
4.65457e-11
-1.27136e-08
3.13781e-11
-1.27842e-08
1.50312e-11
-1.28485e-08
-2.42587e-12
-1.29057e-08
-2.08471e-11
-1.29553e-08
-4.00643e-11
-1.29969e-08
-5.99958e-11
-1.30297e-08
-8.05784e-11
-1.30533e-08
-1.01522e-10
-1.30679e-08
-1.2187e-10
-1.30749e-08
-1.3955e-10
-1.30773e-08
-1.51636e-10
-1.30769e-08
-1.56486e-10
-1.30702e-08
-1.58352e-10
-1.30394e-08
-1.73395e-10
-1.2946e-08
-2.34086e-10
-1.27282e-08
-3.88363e-10
-1.2309e-08
-6.9155e-10
-1.16109e-08
-1.19266e-09
-1.05719e-08
-1.91954e-09
-9.15259e-09
-2.8652e-09
-7.35579e-09
-3.96777e-09
-5.2142e-09
-5.11434e-09
-2.79913e-09
-6.12276e-09
-2.73016e-10
-6.68347e-09
2.12776e-09
-6.48815e-09
4.09651e-09
-5.28571e-09
5.35723e-09
-3.09412e-09
5.77955e-09
-3.35605e-10
5.40748e-09
2.27431e-09
4.42034e-09
4.00139e-09
3.18772e-09
4.19153e-09
2.10687e-09
2.8918e-09
7.3167e-10
1.70541e-09
-2.99158e-09
3.81792e-09
-1.00666e-08
1.20257e-08
2.3918e-08
-1.64224e-08
-1.27865e-08
-5.35897e-10
-1.29914e-08
7.35456e-11
-1.31514e-08
1.96535e-10
-1.32975e-08
2.26711e-10
-1.34359e-08
2.35759e-10
-1.35691e-08
2.37921e-10
-1.36987e-08
2.36339e-10
-1.38256e-08
2.31965e-10
-1.39505e-08
2.2525e-10
-1.40738e-08
2.16511e-10
-1.41958e-08
2.05986e-10
-1.43167e-08
1.93855e-10
-1.44365e-08
1.80251e-10
-1.45552e-08
1.65275e-10
-1.46729e-08
1.4901e-10
-1.47894e-08
1.31524e-10
-1.49046e-08
1.12873e-10
-1.50186e-08
9.30624e-11
-1.51307e-08
7.2054e-11
-1.52405e-08
4.98002e-11
-1.53475e-08
2.64087e-11
-1.54515e-08
2.56066e-12
-1.55534e-08
-2.00625e-11
-1.56537e-08
-3.92243e-11
-1.57509e-08
-5.44138e-11
-1.58362e-08
-7.12279e-11
-1.58879e-08
-1.06604e-10
-1.58695e-08
-1.91821e-10
-1.57332e-08
-3.7036e-10
-1.54305e-08
-6.91068e-10
-1.4922e-08
-1.20009e-09
-1.41804e-08
-1.93423e-09
-1.31862e-08
-2.91373e-09
-1.19233e-08
-4.12805e-09
-1.03774e-08
-5.51366e-09
-8.56143e-09
-6.93036e-09
-6.56327e-09
-8.12091e-09
-4.48472e-09
-8.76202e-09
-2.50323e-09
-8.46965e-09
-8.51148e-10
-6.93779e-09
2.62259e-10
-4.20753e-09
7.51093e-10
-8.24439e-10
6.95084e-10
2.33032e-09
2.9453e-10
4.40195e-09
-3.29856e-10
4.81591e-09
-1.56195e-09
4.1239e-09
-4.62985e-09
4.77331e-09
-1.01908e-08
9.37894e-09
-1.6215e-08
1.80512e-08
2.70581e-08
-1.93087e-08
-1.42498e-08
-3.19729e-10
-1.44567e-08
2.24921e-10
-1.46075e-08
3.37388e-10
-1.47433e-08
3.60521e-10
-1.48722e-08
3.64316e-10
-1.49971e-08
3.62793e-10
-1.51196e-08
3.58807e-10
-1.52407e-08
3.53022e-10
-1.53611e-08
3.45668e-10
-1.54815e-08
3.36889e-10
-1.56023e-08
3.26805e-10
-1.5724e-08
3.15515e-10
-1.58468e-08
3.031e-10
-1.59712e-08
2.89628e-10
-1.60973e-08
2.75165e-10
-1.62256e-08
2.59765e-10
-1.63561e-08
2.43458e-10
-1.64893e-08
2.26215e-10
-1.66252e-08
2.07968e-10
-1.67641e-08
1.88714e-10
-1.69065e-08
1.68743e-10
-1.70528e-08
1.48894e-10
-1.72031e-08
1.30262e-10
-1.73549e-08
1.12557e-10
-1.75e-08
9.0662e-11
-1.76218e-08
5.05459e-11
-1.76956e-08
-3.27206e-11
-1.76946e-08
-1.92897e-10
-1.75969e-08
-4.67975e-10
-1.73908e-08
-8.97202e-10
-1.70689e-08
-1.52197e-09
-1.66177e-08
-2.38548e-09
-1.60106e-08
-3.52076e-09
-1.52156e-08
-4.92309e-09
-1.42125e-08
-6.51681e-09
-1.30141e-08
-8.12868e-09
-1.16587e-08
-9.47639e-09
-1.0238e-08
-1.01827e-08
-8.88249e-09
-9.82511e-09
-7.67211e-09
-8.14818e-09
-6.69673e-09
-5.18291e-09
-6.02359e-09
-1.49758e-09
-5.63432e-09
1.94105e-09
-5.54816e-09
4.31579e-09
-6.17306e-09
5.44081e-09
-8.348e-09
6.29884e-09
-1.24597e-08
8.885e-09
-1.73621e-08
1.42813e-08
-2.08773e-08
2.15679e-08
2.72369e-08
-2.10088e-08
-1.5708e-08
-1.30685e-10
-1.59015e-08
3.55906e-10
-1.6032e-08
4.56353e-10
-1.61474e-08
4.73658e-10
-1.62571e-08
4.73646e-10
-1.6364e-08
4.69618e-10
-1.64694e-08
4.64184e-10
-1.65743e-08
4.57839e-10
-1.66793e-08
4.50682e-10
-1.67851e-08
4.42755e-10
-1.68924e-08
4.34104e-10
-1.70017e-08
4.24778e-10
-1.71134e-08
4.14835e-10
-1.72281e-08
4.04335e-10
-1.73463e-08
3.93344e-10
-1.74685e-08
3.81926e-10
-1.75951e-08
3.70125e-10
-1.77269e-08
3.57947e-10
-1.78643e-08
3.45398e-10
-1.80082e-08
3.32589e-10
-1.81593e-08
3.19885e-10
-1.83182e-08
3.07771e-10
-1.84838e-08
2.95871e-10
-1.8652e-08
2.80706e-10
-1.88141e-08
2.52803e-10
-1.89587e-08
1.9511e-10
-1.90758e-08
8.44424e-11
-1.91633e-08
-1.05449e-10
-1.92273e-08
-4.03989e-10
-1.92743e-08
-8.50169e-10
-1.92971e-08
-1.49918e-09
-1.92673e-08
-2.41528e-09
-1.91449e-08
-3.64318e-09
-1.8899e-08
-5.16896e-09
-1.85234e-08
-6.89245e-09
-1.80341e-08
-8.61795e-09
-1.74556e-08
-1.00549e-08
-1.68131e-08
-1.08253e-08
-1.61131e-08
-1.05251e-08
-1.53783e-08
-8.88293e-09
-1.46213e-08
-5.93994e-09
-1.3894e-08
-2.22485e-09
-1.33714e-08
1.41837e-09
-1.33856e-08
4.33006e-09
-1.4444e-08
6.49914e-09
-1.68957e-08
8.75061e-09
-2.01837e-08
1.2173e-08
-2.2895e-08
1.69927e-08
-2.36106e-08
2.22853e-08
2.52553e-08
-2.15809e-08
-1.71883e-08
3.01499e-11
-1.73635e-08
4.62939e-10
-1.74698e-08
5.49928e-10
-1.75608e-08
5.62257e-10
-1.76473e-08
5.59702e-10
-1.77321e-08
5.54297e-10
-1.78163e-08
5.48344e-10
-1.79007e-08
5.42223e-10
-1.79859e-08
5.35958e-10
-1.80727e-08
5.2954e-10
-1.81616e-08
5.22979e-10
-1.82531e-08
5.16308e-10
-1.83479e-08
5.09584e-10
-1.84464e-08
5.02882e-10
-1.85494e-08
4.963e-10
-1.86574e-08
4.8994e-10
-1.87712e-08
4.83907e-10
-1.88915e-08
4.78302e-10
-1.90194e-08
4.7326e-10
-1.91559e-08
4.69038e-10
-1.9302e-08
4.65993e-10
-1.94583e-08
4.64125e-10
-1.96243e-08
4.61818e-10
-1.97975e-08
4.53972e-10
-1.99755e-08
4.30771e-10
-2.0159e-08
3.78569e-10
-2.03566e-08
2.82132e-10
-2.05858e-08
1.23745e-10
-2.08644e-08
-1.25458e-10
-2.1196e-08
-5.18493e-10
-2.15606e-08
-1.1346e-09
-2.19197e-08
-2.05617e-09
-2.22378e-08
-3.32511e-09
-2.25015e-08
-4.9053e-09
-2.27224e-08
-6.67152e-09
-2.29227e-08
-8.4176e-09
-2.31141e-08
-9.8635e-09
-2.32758e-08
-1.06636e-08
-2.33444e-08
-1.04565e-08
-2.32429e-08
-8.98441e-09
-2.2926e-08
-6.25684e-09
-2.24681e-08
-2.68274e-09
-2.21226e-08
1.07286e-09
-2.22369e-08
4.44437e-09
-2.30747e-08
7.33693e-09
-2.45205e-08
1.01963e-08
-2.58589e-08
1.35115e-08
-2.61251e-08
1.72589e-08
-2.46428e-08
2.08047e-08
2.2061e-08
-2.13996e-08
-1.86795e-08
1.6239e-10
-1.88322e-08
5.43354e-10
-1.89118e-08
6.16117e-10
-1.89766e-08
6.2446e-10
-1.9038e-08
6.20644e-10
-1.90988e-08
6.15012e-10
-1.916e-08
6.09505e-10
-1.92222e-08
6.04415e-10
-1.9286e-08
5.99737e-10
-1.93519e-08
5.95447e-10
-1.94204e-08
5.91548e-10
-1.94922e-08
5.88083e-10
-1.95678e-08
5.8513e-10
-1.96477e-08
5.82799e-10
-1.97326e-08
5.81238e-10
-1.98233e-08
5.80625e-10
-1.99206e-08
5.81165e-10
-2.00254e-08
5.83105e-10
-2.01389e-08
5.86776e-10
-2.02625e-08
5.92639e-10
-2.03976e-08
6.01154e-10
-2.05457e-08
6.12217e-10
-2.0708e-08
6.24111e-10
-2.08866e-08
6.32584e-10
-2.10871e-08
6.31198e-10
-2.13216e-08
6.13155e-10
-2.1611e-08
5.71466e-10
-2.19791e-08
4.91864e-10
-2.24419e-08
3.37377e-10
-2.29954e-08
3.49754e-11
-2.36136e-08
-5.16389e-10
-2.42625e-08
-1.40725e-09
-2.49192e-08
-2.66843e-09
-2.55823e-08
-4.24216e-09
-2.62695e-08
-5.98439e-09
-2.70044e-08
-7.68263e-09
-2.77969e-08
-9.07102e-09
-2.86142e-08
-9.84633e-09
-2.93631e-08
-9.70754e-09
-2.99101e-08
-8.43744e-09
-3.01404e-08
-6.02654e-09
-3.00504e-08
-2.77271e-09
-2.97893e-08
8.1169e-10
-2.95761e-08
4.23117e-09
-2.95178e-08
7.27867e-09
-2.94325e-08
1.01111e-08
-2.8853e-08
1.29319e-08
-2.72985e-08
1.57045e-08
-2.45618e-08
1.807e-08
1.84988e-08
-2.095e-08
-2.01736e-08
2.65979e-10
-2.03001e-08
5.95338e-10
-2.03512e-08
6.53683e-10
-2.03885e-08
6.59122e-10
-2.04236e-08
6.55294e-10
-2.04593e-08
6.50557e-10
-2.04962e-08
6.46457e-10
-2.0535e-08
6.43214e-10
-2.05761e-08
6.40821e-10
-2.06199e-08
6.39266e-10
-2.0667e-08
6.38571e-10
-2.07177e-08
6.38803e-10
-2.07726e-08
6.40078e-10
-2.08324e-08
6.42558e-10
-2.08976e-08
6.46461e-10
-2.0969e-08
6.52059e-10
-2.10476e-08
6.59693e-10
-2.11343e-08
6.69794e-10
-2.12304e-08
6.82946e-10
-2.13377e-08
6.99912e-10
-2.1458e-08
7.21506e-10
-2.1594e-08
7.48161e-10
-2.17493e-08
7.79386e-10
-2.19304e-08
8.13738e-10
-2.21491e-08
8.49846e-10
-2.24235e-08
8.87551e-10
-2.27768e-08
9.24831e-10
-2.32306e-08
9.456e-10
-2.3795e-08
9.01842e-10
-2.44643e-08
7.04204e-10
-2.52197e-08
2.39025e-10
-2.60406e-08
-5.86366e-10
-2.69136e-08
-1.79534e-09
-2.78365e-08
-3.31929e-09
-2.88163e-08
-5.00466e-09
-2.98652e-08
-6.63369e-09
-3.09872e-08
-7.94896e-09
-3.21513e-08
-8.68225e-09
-3.32656e-08
-8.59326e-09
-3.41778e-08
-7.52525e-09
-3.47209e-08
-5.48338e-09
-3.47989e-08
-2.69478e-09
-3.4431e-08
4.43797e-10
-3.37279e-08
3.52806e-09
-3.2769e-08
6.31983e-09
-3.14818e-08
8.82382e-09
-2.96756e-08
1.11258e-08
-2.71954e-08
1.32243e-08
-2.40518e-08
1.49283e-08
1.50954e-08
-2.05981e-08
-2.1663e-08
3.40968e-10
-2.17597e-08
6.17418e-10
-2.1781e-08
6.61792e-10
-2.17899e-08
6.65502e-10
-2.17979e-08
6.62837e-10
-2.18075e-08
6.60035e-10
-2.18193e-08
6.58233e-10
-2.18336e-08
6.57597e-10
-2.1851e-08
6.58136e-10
-2.18715e-08
6.59862e-10
-2.18958e-08
6.6283e-10
-2.19241e-08
6.67145e-10
-2.1957e-08
6.72966e-10
-2.1995e-08
6.80514e-10
-2.20386e-08
6.90077e-10
-2.20886e-08
7.0203e-10
-2.21457e-08
7.1685e-10
-2.22111e-08
7.35161e-10
-2.2286e-08
7.57798e-10
-2.23719e-08
7.8589e-10
-2.24712e-08
8.20797e-10
-2.2587e-08
8.63967e-10
-2.27246e-08
9.16913e-10
-2.28925e-08
9.8171e-10
-2.31043e-08
1.06161e-09
-2.33773e-08
1.16051e-09
-2.37302e-08
1.27781e-09
-2.41784e-08
1.39372e-09
-2.47293e-08
1.45282e-09
-2.53846e-08
1.3595e-09
-2.61431e-08
9.97451e-10
-2.70031e-08
2.73726e-10
-2.79647e-08
-8.33769e-10
-2.90219e-08
-2.26211e-09
-3.01637e-08
-3.8629e-09
-3.13746e-08
-5.42277e-09
-3.26297e-08
-6.69382e-09
-3.38815e-08
-7.43052e-09
-3.50422e-08
-7.43252e-09
-3.59762e-08
-6.59129e-09
-3.65224e-08
-4.93719e-09
-3.65544e-08
-2.66274e-09
-3.60301e-08
-8.05117e-11
-3.49926e-08
2.49054e-09
-3.35256e-08
4.85288e-09
-3.16592e-08
6.95746e-09
-2.93744e-08
8.84095e-09
-2.66694e-08
1.05193e-08
-2.36076e-08
1.18684e-08
1.20079e-08
-2.0469e-08
-2.31403e-08
3.87236e-10
-2.32035e-08
6.08141e-10
-2.31937e-08
6.39724e-10
-2.31734e-08
6.42954e-10
-2.31535e-08
6.42485e-10
-2.3136e-08
6.4248e-10
-2.31215e-08
6.43691e-10
-2.31101e-08
6.4624e-10
-2.31022e-08
6.50158e-10
-2.30978e-08
6.55489e-10
-2.30973e-08
6.62317e-10
-2.31009e-08
6.70776e-10
-2.3109e-08
6.81062e-10
-2.31219e-08
6.93431e-10
-2.31401e-08
7.08218e-10
-2.31639e-08
7.25858e-10
-2.3194e-08
7.46912e-10
-2.32309e-08
7.72113e-10
-2.32756e-08
8.0245e-10
-2.3329e-08
8.39343e-10
-2.33928e-08
8.84606e-10
-2.34695e-08
9.40657e-10
-2.35633e-08
1.01067e-09
-2.36812e-08
1.0996e-09
-2.38328e-08
1.21325e-09
-2.40286e-08
1.35627e-09
-2.42796e-08
1.5289e-09
-2.45951e-08
1.70913e-09
-2.4984e-08
1.84178e-09
-2.54618e-08
1.83728e-09
-2.60523e-08
1.58797e-09
-2.67819e-08
1.00332e-09
-2.76785e-08
6.27882e-11
-2.87504e-08
-1.19022e-09
-2.99846e-08
-2.6286e-09
-3.13391e-08
-4.06831e-09
-3.274e-08
-5.29292e-09
-3.40864e-08
-6.08412e-09
-3.52594e-08
-6.25955e-09
-3.61309e-08
-5.71979e-09
-3.65772e-08
-4.49087e-09
-3.65056e-08
-2.73428e-09
-3.5883e-08
-7.03117e-10
-3.47381e-08
1.34555e-09
-3.31437e-08
3.25852e-09
-3.11673e-08
4.98103e-09
-2.88531e-08
6.52674e-09
-2.62392e-08
7.90552e-09
-2.33767e-08
9.00755e-09
9.16037e-09
-2.04775e-08
-2.45919e-08
4.03278e-10
-2.46162e-08
5.64735e-10
-2.45726e-08