/*--------------------------------*- C++ -*----------------------------------*\
  =========                 |
  \\      /  F ield         | OpenFOAM: The Open Source CFD Toolbox
   \\    /   O peration     | Website:  https://openfoam.org
    \\  /    A nd           | Version:  13
     \\/     M anipulation  |
\*---------------------------------------------------------------------------*/
FoamFile
{
    format      ascii;
    class       volVectorField;
    location    "0.0006";
    object      U;
}
// * * * * * * * * * * * * * * * * * * * * * * * * * * * * * * * * * * * * * //

dimensions      [0 1 -1 0 0 0 0];

internalField   nonuniform List<vector> 
1690
(
(0.373104 -0.00156949 -9.92618e-18)
(0.400284 -0.00480786 0)
(0.458878 -0.00828862 3.93289e-17)
(0.548261 -0.0118235 5.02382e-18)
(0.669906 -0.0145113 9.04258e-17)
(0.80424 -0.0153577 3.85213e-17)
(0.944015 -0.0113783 -5.00249e-18)
(1.00581 -0.00238673 1.52059e-17)
(0.371045 -0.0040477 -2.81313e-18)
(0.398137 -0.0125078 7.46539e-18)
(0.456691 -0.0216027 5.08312e-17)
(0.546389 -0.0308514 1.08277e-16)
(0.668749 -0.0381118 1.08837e-16)
(0.804667 -0.0401727 7.59496e-17)
(0.94561 -0.0302353 2.73991e-17)
(1.00649 -0.00586117 8.63054e-18)
(0.367179 -0.00643965 -1.70271e-18)
(0.394089 -0.0198351 6.41378e-18)
(0.452511 -0.0343316 5.26211e-17)
(0.542604 -0.0492443 1.3506e-16)
(0.666466 -0.0614485 1.09839e-16)
(0.805372 -0.0645218 6.06917e-17)
(0.948835 -0.0488636 -4.46433e-17)
(1.00811 -0.00797071 -3.38434e-17)
(0.361378 -0.00891304 -2.66046e-18)
(0.388007 -0.0274632 3.16786e-18)
(0.446153 -0.0477112 3.02688e-17)
(0.536683 -0.0688413 7.18724e-17)
(0.662874 -0.0866493 1.62656e-17)
(0.806438 -0.0910839 0)
(0.954119 -0.0685233 -1.21488e-16)
(1.01116 -0.0094924 -9.42103e-17)
(0.353653 -0.0113545 -3.04649e-18)
(0.379857 -0.0350589 2.26413e-18)
(0.437511 -0.0612092 9.15658e-18)
(0.528433 -0.0890201 3.01489e-19)
(0.65775 -0.11318 -4.77415e-17)
(0.807955 -0.119475 -5.11133e-17)
(0.961874 -0.0885944 -1.54468e-16)
(1.01578 -0.00978687 -1.24718e-16)
(0.344047 -0.0137253 -3.46506e-18)
(0.369645 -0.0424985 6.17613e-19)
(0.426487 -0.07466 -6.66661e-18)
(0.517602 -0.109712 -5.50405e-17)
(0.650759 -0.141294 -6.73431e-17)
(0.809923 -0.15018 -6.0551e-17)
(0.972505 -0.109083 -1.25027e-16)
(1.02216 -0.0081929 -1.15123e-16)
(0.332622 -0.0159948 -5.04847e-19)
(0.357393 -0.0496914 -3.86749e-18)
(0.412968 -0.0879475 -2.83328e-17)
(0.503828 -0.130938 -7.62417e-17)
(0.641291 -0.171431 -8.82811e-17)
(0.811676 -0.183966 -3.67387e-17)
(0.985548 -0.130188 -6.87576e-17)
(1.03047 -0.00409766 -8.95749e-17)
(0.319472 -0.018126 -1.51444e-18)
(0.343148 -0.0565223 -6.94563e-18)
(0.396823 -0.100891 -3.6607e-17)
(0.486589 -0.15262 -9.08891e-17)
(0.628119 -0.203915 -8.80737e-17)
(0.810514 -0.221555 -2.81669e-17)
(0.997626 -0.152352 -2.83494e-17)
(1.04018 0.00281493 -6.31347e-17)
(0.304723 -0.0200743 -9.24666e-19)
(0.326993 -0.0628375 -7.35498e-18)
(0.377913 -0.113194 -3.73972e-17)
(0.46516 -0.17442 -9.16638e-17)
(0.608918 -0.23851 -6.9854e-17)
(0.800112 -0.263096 -2.33089e-17)
(1.00004 -0.176594 -1.12791e-17)
(1.04924 0.0118702 -4.15374e-17)
(0.288548 -0.0217893 -5.11124e-19)
(0.309065 -0.0684422 -4.79343e-18)
(0.356143 -0.124411 -3.8024e-17)
(0.438715 -0.195507 -7.87676e-17)
(0.580116 -0.273673 -5.88988e-17)
(0.770907 -0.307183 -1.93012e-17)
(0.978857 -0.204778 -1.17783e-20)
(1.05321 0.0199835 -3.0742e-17)
(0.271167 -0.023217 -5.05656e-19)
(0.289577 -0.0731062 -6.38862e-18)
(0.331588 -0.133955 -3.56814e-17)
(0.406784 -0.214518 -6.76586e-17)
(0.537985 -0.306135 -4.60192e-17)
(0.714345 -0.349996 -1.68356e-17)
(0.920419 -0.239247 1.12478e-17)
(1.04542 0.0211684 -1.07455e-17)
(0.252844 -0.0243057 4.76957e-19)
(0.268839 -0.0765954 -8.18163e-18)
(0.304736 -0.141196 -3.37746e-17)
(0.369843 -0.229473 -5.86318e-17)
(0.481351 -0.332 -4.95843e-17)
(0.629048 -0.386176 -7.23568e-18)
(0.820466 -0.280938 2.2231e-17)
(1.01685 0.00710927 3.85729e-18)
(0.233872 -0.0250176 -2.55611e-19)
(0.247283 -0.0787568 -6.36979e-18)
(0.276707 -0.145635 -3.12747e-17)
(0.329629 -0.238543 -4.45331e-17)
(0.414192 -0.347293 -3.95907e-17)
(0.523546 -0.412257 -7.04507e-18)
(0.688623 -0.326882 2.52598e-17)
(0.950769 -0.0274296 1.51027e-17)
(0.214542 -0.0253492 -6.73724e-19)
(0.225456 -0.0796358 -5.94906e-18)
(0.248876 -0.147289 -2.37899e-17)
(0.288977 -0.241165 -3.85925e-17)
(0.345302 -0.350806 -2.65606e-17)
(0.413946 -0.426152 -7.14425e-19)
(0.539622 -0.377588 2.59821e-17)
(0.822579 -0.110257 2.74824e-17)
(0.195106 -0.0253673 -5.58473e-19)
(0.203922 -0.0795527 -5.7669e-18)
(0.222284 -0.146768 -1.86094e-17)
(0.250734 -0.238336 -2.83404e-17)
(0.283538 -0.344176 -2.79261e-17)
(0.317191 -0.426571 -6.37356e-18)
(0.390658 -0.425793 1.84883e-17)
(0.626131 -0.251457 2.28162e-17)
(0.966188 0.0254463 -6.00405e-15)
(0.938083 0.0418811 -2.38449e-15)
(0.833121 0.0444585 2.00398e-15)
(0.760993 0.0428759 3.59555e-15)
(0.676858 0.0407226 9.76505e-16)
(0.597659 0.0379679 -4.95042e-15)
(0.521472 0.0348394 -1.06036e-14)
(0.449692 0.0314555 -1.07191e-14)
(0.383075 0.0279493 -4.04645e-15)
(0.322237 0.0244469 -1.28922e-15)
(0.267523 0.0210614 -5.19212e-15)
(0.219033 0.0178866 -8.0339e-15)
(0.176638 0.0149935 -1.06302e-14)
(0.140013 0.0124313 -8.69242e-15)
(0.108668 0.0102286 -2.77003e-15)
(0.0819823 0.00839867 -2.65871e-15)
(0.0592223 0.00695187 2.55934e-15)
(0.0394577 0.00590917 1.42792e-14)
(0.0215871 0.00521837 1.73615e-14)
(0.00558834 0.00394925 1.20804e-15)
(0.965719 0.0609666 -3.21689e-15)
(0.936398 0.101095 -1.08478e-15)
(0.830309 0.106275 4.59442e-15)
(0.756491 0.102911 4.14171e-15)
(0.671618 0.0975044 4.61944e-15)
(0.591567 0.0908718 -1.91928e-16)
(0.514931 0.0833331 -8.31933e-15)
(0.442983 0.0751905 -6.75924e-15)
(0.376465 0.0667598 3.43711e-16)
(0.31595 0.0583456 5.21383e-15)
(0.261731 0.0502202 4.77707e-15)
(0.213853 0.0426081 2.35855e-15)
(0.172138 0.0356795 -4.14072e-15)
(0.136217 0.0295506 -4.21395e-15)
(0.105565 0.0242874 1.26265e-15)
(0.0795416 0.0199198 2.76142e-15)
(0.0573999 0.0164699 6.15321e-15)
(0.0382063 0.0139888 8.35917e-15)
(0.0208723 0.0123524 1.11624e-14)
(0.00538138 0.00929641 2.27708e-15)
(0.965447 0.0972367 -4.93117e-16)
(0.93227 0.161286 2.14544e-15)
(0.824004 0.168423 2.6623e-15)
(0.747874 0.163062 2.25842e-15)
(0.660978 0.153895 3.2102e-15)
(0.579651 0.142957 2.39357e-15)
(0.502241 0.130607 -1.98523e-15)
(0.430074 0.117382 -4.24007e-15)
(0.36383 0.1038 -1.82472e-15)
(0.304001 0.0903521 9.69414e-16)
(0.250776 0.077464 3.32719e-15)
(0.204099 0.0654757 1.99668e-15)
(0.163696 0.0546355 -6.83662e-16)
(0.129118 0.0451028 -7.17562e-16)
(0.0997801 0.0369594 5.65734e-16)
(0.0750008 0.030232 9.90404e-16)
(0.0540161 0.0249381 2.12072e-15)
(0.0358971 0.021143 6.29391e-15)
(0.0195842 0.0186498 1.36897e-14)
(0.00505076 0.0140123 4.94357e-15)
(0.965329 0.135356 1.60544e-15)
(0.926168 0.222477 2.37787e-15)
(0.814672 0.231227 1.79359e-16)
(0.735265 0.22319 -4.9141e-16)
(0.645423 0.20983 3.0801e-16)
(0.562406 0.194116 8.96843e-16)
(0.484001 0.176528 1.09354e-15)
(0.411666 0.157886 -4.55377e-16)
(0.345958 0.138928 -3.16171e-16)
(0.287233 0.120338 7.6556e-16)
(0.235524 0.102682 2.23483e-15)
(0.19062 0.0863968 7.08145e-16)
(0.15211 0.071786 -7.09627e-16)
(0.119436 0.0590274 -3.70582e-16)
(0.0919327 0.0481956 -4.15963e-17)
(0.0688705 0.039295 5.20976e-16)
(0.0494653 0.0323224 -5.14476e-16)
(0.0328006 0.0273412 -6.42676e-16)
(0.0178556 0.0240759 2.44583e-15)
(0.0045893 0.0180556 -1.19107e-15)
(0.964973 0.175265 1.26079e-15)
(0.917953 0.284637 9.11682e-16)
(0.802192 0.29425 -6.7843e-16)
(0.718486 0.282683 -1.48001e-15)
(0.625045 0.26443 -1.56608e-15)
(0.540072 0.243273 -1.98951e-16)
(0.460649 0.219886 1.12863e-15)
(0.388381 0.195429 5.18625e-16)
(0.323612 0.170877 1.99654e-16)
(0.266499 0.147095 7.53631e-16)
(0.21686 0.124769 6.05663e-16)
(0.174283 0.104394 -4.70967e-16)
(0.13819 0.0862893 -9.04753e-16)
(0.107893 0.0706153 -8.56372e-16)
(0.082641 0.0574081 9.64357e-16)
(0.0616534 0.0466256 2.83258e-15)
(0.0441327 0.0382243 4.00146e-15)
(0.0291858 0.0322475 2.70857e-15)
(0.0158455 0.0283397 9.16357e-16)
(0.00405859 0.0212092 5.83178e-16)
(0.964192 0.217804 9.43915e-17)
(0.907337 0.348518 -9.83044e-16)
(0.786266 0.357892 -1.32973e-15)
(0.697275 0.341765 -1.37591e-15)
(0.59979 0.31771 -8.86465e-16)
(0.512774 0.290287 1.48726e-16)
(0.432511 0.260446 6.00621e-16)
(0.360726 0.229743 -2.35253e-16)
(0.297436 0.199389 -6.66085e-16)
(0.242527 0.170408 -1.17409e-15)
(0.19554 0.143561 -1.25977e-15)
(0.155826 0.119358 -6.27491e-16)
(0.12262 0.0980856 2.2876e-16)
(0.0950953 0.0798453 1.39775e-16)
(0.0724161 0.0646039 3.04012e-16)
(0.0537617 0.0522488 1.8084e-15)
(0.0383316 0.0426792 3.30949e-15)
(0.0252695 0.0359022 3.42788e-15)
(0.0136769 0.0314833 -1.16117e-15)
(0.00348892 0.0235099 -3.98172e-15)
(0.962788 0.264031 -3.62593e-16)
(0.893934 0.41504 -1.82387e-15)
(0.766436 0.422726 -1.55069e-15)
(0.671226 0.400747 -1.02251e-15)
(0.569455 0.369753 9.98711e-17)
(0.480515 0.335079 9.1083e-16)
(0.399819 0.298051 4.21353e-16)
(0.329129 0.260659 -1.08295e-15)
(0.267996 0.224324 -1.17863e-15)
(0.21596 0.19019 -1.48493e-15)
(0.172229 0.159032 -1.17053e-15)
(0.135892 0.131314 -5.50367e-16)
(0.105985 0.107237 -4.77201e-16)
(0.0815521 0.0868041 -2.78167e-16)
(0.061684 0.0698822 -6.00239e-17)
(0.0455352 0.0562678 7.23476e-16)
(0.0323175 0.0457887 6.88576e-16)
(0.0212273 0.0384025 1.5806e-15)
(0.0114483 0.0336 -8.02927e-16)
(0.00290648 0.0250339 -2.01321e-15)
(0.960491 0.315074 -4.11034e-16)
(0.877212 0.485044 -1.44475e-15)
(0.74208 0.489179 -9.68619e-16)
(0.639812 0.459727 -4.3904e-16)
(0.533759 0.420421 4.99647e-16)
(0.443267 0.377378 1.12281e-15)
(0.362804 0.332401 3.1425e-16)
(0.294023 0.287921 -7.11152e-16)
(0.235852 0.245513 -7.02272e-16)
(0.187418 0.206366 -6.36778e-16)
(0.147549 0.171189 -4.21708e-16)
(0.115061 0.140332 -1.08854e-15)
(0.0888006 0.113857 -2.19637e-15)
(0.0677009 0.09163 -2.10634e-15)
(0.0508012 0.0733894 -1.00066e-15)
(0.0372519 0.0588269 -2.28911e-16)
(0.0262962 0.0476888 2.11005e-16)
(0.0171982 0.0398755 3.97794e-16)
(0.00923693 0.0348098 -7.05284e-16)
(0.00233159 0.0258772 5.70357e-17)
(0.95693 0.372214 -1.7124e-16)
(0.856461 0.559329 -4.42332e-16)
(0.712407 0.557521 -1.53371e-16)
(0.602417 0.518598 8.31024e-17)
(0.492399 0.469381 4.74445e-16)
(0.401038 0.416762 6.51203e-16)
(0.321758 0.363116 2.86918e-16)
(0.255889 0.311255 -8.32038e-17)
(0.20159 0.262809 7.66249e-17)
(0.157512 0.218908 1.424e-16)
(0.122083 0.180101 -8.46788e-17)
(0.0938567 0.146547 -8.538e-16)
(0.0715144 0.118118 -2.1938e-15)
(0.0539087 0.0945071 -2.57097e-15)
(0.0400577 0.0753079 -1.97141e-15)
(0.0291327 0.060097 -1.3754e-15)
(0.0204274 0.0485359 -5.6852e-16)
(0.0132886 0.040464 -9.87828e-16)
(0.00710061 0.0352448 -8.52562e-16)
(0.00177918 0.0261439 1.17885e-15)
(0.9516 0.436954 7.32766e-18)
(0.830758 0.63867 2.6809e-16)
(0.676451 0.62786 5.00949e-16)
(0.558367 0.577047 1.76639e-16)
(0.445106 0.516113 -6.1468e-17)
(0.353919 0.452693 5.93372e-17)
(0.277065 0.389772 1.29811e-16)
(0.215278 0.330403 1.9557e-16)
(0.165821 0.276119 3.2003e-16)
(0.126843 0.227858 7.59939e-17)
(0.0963755 0.185902 -3.91953e-16)
(0.0727426 0.150148 -6.51684e-16)
(0.0545049 0.120232 -1.21216e-15)
(0.0404741 0.0956497 -1.46647e-15)
(0.0296813 0.0758394 -1.32668e-15)
(0.0213453 0.0602611 -8.25937e-16)
(0.0148297 0.0484929 -6.45707e-16)
(0.00957549 0.0403133 -1.72612e-16)
(0.00508039 0.035038 8.06733e-16)
(0.0012596 0.0259373 1.2706e-15)
(0.943813 0.511094 -8.21134e-17)
(0.798902 0.723794 6.07461e-16)
(0.633061 0.700089 7.57221e-16)
(0.506965 0.634514 2.398e-16)
(0.391687 0.559913 -1.26153e-16)
(0.302132 0.484545 -2.4607e-16)
(0.229225 0.411945 1.35089e-16)
(0.172809 0.345154 3.14537e-16)
(0.129179 0.285418 1.95206e-16)
(0.0959907 0.233326 -3.35284e-16)
(0.0709184 0.188786 -7.64634e-16)
(0.0521175 0.15137 -8.21881e-16)
(0.0380818 0.120442 -9.07456e-16)
(0.02763 0.0952885 -8.69258e-16)
(0.0198423 0.0751928 -2.35735e-16)
(0.0140108 0.0595028 7.19405e-16)
(0.00958532 0.0477187 3.43349e-17)
(0.00611097 0.0395633 7.2459e-17)
(0.00320314 0.0343156 9.96072e-16)
(0.00077938 0.0253542 6.51019e-16)
(0.9326 0.596855 -1.29126e-16)
(0.759315 0.815318 6.53931e-16)
(0.580905 0.773815 7.4626e-16)
(0.447545 0.690161 2.6065e-16)
(0.332097 0.599907 -1.15005e-16)
(0.246064 0.511643 -2.51764e-16)
(0.178862 0.429243 -2.81256e-17)
(0.129163 0.355375 1.94592e-16)
(0.092302 0.290768 1.13403e-16)
(0.0654982 0.235498 -4.90871e-16)
(0.0461453 0.189001 -7.30082e-16)
(0.0323109 0.150478 -6.29649e-16)
(0.0224866 0.119005 -4.79063e-16)
(0.015548 0.0936586 -5.79705e-16)
(0.0106592 0.0735739 3.92805e-17)
(0.00720868 0.0579976 7.58418e-16)
(0.00474603 0.0463627 -1.29967e-16)
(0.00292621 0.0383429 -4.71336e-16)
(0.0014842 0.0331927 3.8711e-16)
(0.000342062 0.0244817 3.44657e-16)
(0.916565 0.697057 -1.12337e-16)
(0.709908 0.913613 5.62322e-16)
(0.518498 0.848287 6.81267e-16)
(0.379543 0.74284 2.60477e-16)
(0.266497 0.635085 -5.14242e-17)
(0.186299 0.533316 -9.64875e-17)
(0.126724 0.441356 -4.11982e-17)
(0.0850643 0.361036 5.27122e-17)
(0.0558118 0.292324 -1.07572e-16)
(0.0358551 0.234626 -3.96249e-16)
(0.0224203 0.186837 -3.90995e-16)
(0.0135812 0.14776 -1.86487e-16)
(0.00789568 0.116185 -1.89785e-16)
(0.00434418 0.0909902 -4.82408e-16)
(0.00220599 0.0711773 -2.79257e-17)
(0.000984313 0.0559078 4.50113e-16)
(0.00033845 0.0445597 -5.87318e-16)
(3.5686e-05 0.0367667 -1.50235e-15)
(-7.02329e-05 0.031771 -3.91026e-16)
(-5.11916e-05 0.0233956 2.56551e-16)
(0.893626 0.815375 -8.70732e-17)
(0.647897 1.01859 5.47199e-16)
(0.444298 0.922309 5.42814e-16)
(0.302588 0.791081 2.68795e-16)
(0.195323 0.664361 4.91258e-17)
(0.12362 0.548955 -1.52765e-16)
(0.0736543 0.4481 -1.21217e-16)
(0.0412481 0.362227 -4.53534e-17)
(0.020287 0.290334 -8.54528e-17)
(0.00748235 0.231022 -1.73967e-16)
(3.25347e-05 0.182614 -1.09605e-16)
(-0.00388352 0.143514 1.47673e-17)
(-0.00557506 0.112242 -1.88682e-16)
(-0.00591418 0.0875009 -5.16254e-16)
(-0.0054814 0.0681819 -1.70788e-16)
(-0.00464506 0.0533787 4.39261e-16)
(-0.00363064 0.0424283 -4.65156e-16)
(-0.0025588 0.0349343 -1.24296e-15)
(-0.00146078 0.0301371 -6.43775e-16)
(-0.000401214 0.0221604 1.09655e-16)
(0.860674 0.956634 1.82947e-17)
(0.569556 1.12931 5.57109e-16)
(0.356857 0.994179 4.78572e-16)
(0.216597 0.833097 1.49532e-16)
(0.119342 0.686655 -1.15325e-16)
(0.0590045 0.558086 -2.06042e-16)
(0.0205619 0.449448 -1.09145e-16)
(-0.00157546 0.359159 -6.50273e-17)
(-0.0137601 0.285127 -7.44956e-17)
(-0.0192797 0.22504 5.75273e-17)
(-0.0208061 0.176665 1.43543e-16)
(-0.0199615 0.13803 5.54132e-17)
(-0.0178629 0.107419 -1.25882e-16)
(-0.0152008 0.0833898 -3.71342e-16)
(-0.0123972 0.0647471 -1.52682e-16)
(-0.00968395 0.050537 2.71731e-16)
(-0.0071693 0.0400702 -1.34956e-16)
(-0.00486535 0.0329299 -6.42837e-16)
(-0.0026931 0.028363 -4.31646e-16)
(-0.000709563 0.0208296 -9.67992e-17)
(0.813079 1.12747 1.08905e-16)
(0.469909 1.24363 5.05902e-16)
(0.2551 1.06163 3.96722e-16)
(0.121869 0.866862 2.96415e-17)
(0.0396898 0.701003 -2.795e-16)
(-0.006421 0.560411 -3.09919e-16)
(-0.031632 0.445535 -1.13333e-16)
(-0.0427565 0.352174 3.81542e-17)
(-0.0459005 0.277099 2.35341e-16)
(-0.044177 0.217061 3.21197e-16)
(-0.0399581 0.169324 3.81128e-16)
(-0.0345905 0.131587 3.93581e-16)
(-0.0289501 0.101941 2.22571e-16)
(-0.0235221 0.0788338 -1.03935e-16)
(-0.0185591 0.0610111 -2.16217e-16)
(-0.014153 0.0474908 7.88393e-17)
(-0.0102964 0.0375704 4.56698e-18)
(-0.00689853 0.0308228 -1.00634e-16)
(-0.00377615 0.0265088 -1.77032e-16)
(-0.00097884 0.0194463 -2.68607e-16)
(0.743954 1.33569 1.66569e-16)
(0.342124 1.35748 4.84945e-16)
(0.138651 1.12167 2.67904e-16)
(0.0191894 0.890321 -1.63322e-16)
(-0.0421539 0.706469 -4.08924e-16)
(-0.0714406 0.555894 -3.14166e-16)
(-0.082033 0.436678 -2.23664e-17)
(-0.081728 0.341722 2.24597e-16)
(-0.0758096 0.266692 4.66229e-16)
(-0.0670434 0.207473 5.46879e-16)
(-0.0573554 0.160913 6.26952e-16)
(-0.0477592 0.12444 7.3878e-16)
(-0.0388554 0.096007 7.05898e-16)
(-0.03091 0.0739862 2.39704e-16)
(-0.0240019 0.0570909 -1.74583e-16)
(-0.0180842 0.0443293 -3.06744e-17)
(-0.0130381 0.0349982 1.36089e-17)
(-0.00867717 0.0286688 2.79149e-16)
(-0.004721 0.024622 9.92675e-17)
(-0.00121217 0.0180448 -2.75069e-16)
(0.64563 1.59388 2.1674e-16)
(0.177253 1.46667 4.99249e-16)
(0.00821663 1.16964 1.20759e-16)
(-0.0900605 0.901511 -3.45537e-16)
(-0.12443 0.702573 -4.1577e-16)
(-0.13473 0.544807 -2.03371e-16)
(-0.129846 0.423367 4.48488e-17)
(-0.118044 0.328325 2.80026e-16)
(-0.103269 0.254362 4.87696e-16)
(-0.0877943 0.196654 5.62967e-16)
(-0.0729895 0.151726 7.31492e-16)
(-0.0594979 0.116817 9.84076e-16)
(-0.0476255 0.0897889 1.10527e-15)
(-0.0374145 0.068976 5.47396e-16)
(-0.0287716 0.0530833 -1.56785e-17)
(-0.0215165 0.0411253 5.24076e-17)
(-0.0154248 0.0324092 1.49718e-16)
(-0.0102225 0.026512 4.18008e-16)
(-0.00553976 0.02274 2.80338e-16)
(-0.00141289 0.0166514 -2.48862e-16)
(0.494265 1.90185 2.30238e-16)
(-0.0373384 1.56196 3.98846e-16)
(-0.135105 1.1987 -1.88052e-17)
(-0.203307 0.898734 -4.23436e-16)
(-0.20514 0.689288 -3.24824e-16)
(-0.19509 0.527706 -1.26249e-16)
(-0.174426 0.406223 9.12367e-17)
(-0.151389 0.312546 2.35538e-16)
(-0.128164 0.240565 3.63482e-16)
(-0.106418 0.184955 5.1831e-16)
(-0.0869008 0.14203 7.17086e-16)
(-0.0698684 0.108915 1.1192e-15)
(-0.0553266 0.0834327 1.17457e-15)
(-0.0430973 0.0639102 7.36625e-16)
(-0.0329217 0.0490664 9.47465e-17)
(-0.0244928 0.0379365 7.8717e-17)
(-0.0174888 0.0298468 2.03229e-16)
(-0.0115566 0.0243866 5.37459e-16)
(-0.00624489 0.020891 3.49985e-16)
(-0.00158431 0.0152865 -2.29616e-16)
(0.367522 2.27865 2.30872e-16)
(-0.315371 1.65097 2.96155e-16)
(-0.287454 1.20122 -1.75456e-16)
(-0.316612 0.88122 -3.8762e-16)
(-0.282266 0.666793 -2.02814e-16)
(-0.251442 0.50535 -3.37908e-17)
(-0.215311 0.385931 1.10788e-16)
(-0.181584 0.294949 1.69083e-16)
(-0.150473 0.225728 2.39241e-16)
(-0.122962 0.172696 3.93792e-16)
(-0.0991674 0.132057 6.41308e-16)
(-0.0789549 0.100903 1.0756e-15)
(-0.0620378 0.0770588 1.14821e-15)
(-0.0480272 0.0588751 7.37167e-16)
(-0.0365083 0.0451022 1.31322e-16)
(-0.0270573 0.0348079 1.95129e-16)
(-0.0192627 0.0273443 3.00957e-16)
(-0.0127016 0.0223179 6.43579e-16)
(-0.00684855 0.0190968 4.91566e-16)
(-0.00172958 0.0139642 -1.58834e-16)
(0.162509 -0.0250374 -2.6734e-19)
(0.168936 -0.0780194 -5.25696e-18)
(0.180585 -0.141958 -8.97072e-18)
(0.194205 -0.224474 -2.14513e-17)
(0.201149 -0.318128 -2.44877e-17)
(0.197191 -0.399741 -1.31621e-17)
(0.208542 -0.433771 8.56444e-18)
(0.30556 -0.379814 2.82161e-17)
(0.120529 -0.0237384 1.59021e-19)
(0.124163 -0.0724748 -3.14549e-19)
(0.128407 -0.127848 -2.39364e-18)
(0.128757 -0.193601 -1.47618e-17)
(0.116257 -0.266785 -2.1998e-17)
(0.0853634 -0.335888 -1.64977e-17)
(0.0485241 -0.38028 -6.24539e-18)
(0.0441789 -0.383397 1.8982e-18)
(0.0820988 -0.0220626 -1.00611e-19)
(0.0839044 -0.0654922 4.76283e-19)
(0.0833259 -0.112547 -1.88459e-18)
(0.0781874 -0.164069 -8.48133e-18)
(0.0626588 -0.217876 -1.28478e-17)
(0.0332343 -0.268279 -9.15942e-18)
(-0.00466558 -0.304685 -1.90433e-18)
(-0.0318216 -0.319279 -4.49948e-18)
(0.0478349 -0.0206016 4.31181e-20)
(0.0491365 -0.0576679 7.34882e-20)
(0.0453569 -0.0970521 -2.42452e-18)
(0.0371963 -0.138463 -5.06044e-18)
(0.0217163 -0.18047 -4.27399e-18)
(-0.00234038 -0.219733 2.027e-19)
(-0.031723 -0.250925 4.85593e-18)
(-0.0574125 -0.269703 3.38148e-19)
(0.0188265 -0.0187775 -3.41025e-19)
(0.020088 -0.0497649 -7.5356e-19)
(0.0144881 -0.0825738 -1.94018e-18)
(0.0055999 -0.115938 -2.92731e-18)
(-0.00882826 -0.148736 -1.03464e-18)
(-0.0290757 -0.179157 3.68535e-18)
(-0.0528221 -0.204599 1.09173e-17)
(-0.0752513 -0.222941 1.8396e-17)
(-0.00628708 -0.0206516 -7.18568e-19)
(-0.00552002 -0.0428359 -1.18057e-18)
(-0.0114556 -0.0698123 -7.90146e-19)
(-0.0203599 -0.0971932 1.15232e-18)
(-0.0337062 -0.123711 9.33924e-19)
(-0.0512051 -0.148376 -3.37804e-19)
(-0.0713099 -0.169838 6.38304e-18)
(-0.0911068 -0.186841 1.97846e-17)
(-0.0270429 -0.0180777 -1.27257e-18)
(-0.0275478 -0.0365842 -6.26413e-19)
(-0.0327217 -0.0586221 4.76882e-18)
(-0.041357 -0.080827 8.94155e-18)
(-0.053726 -0.102191 2.67365e-18)
(-0.069419 -0.122197 -1.06272e-17)
(-0.0874105 -0.140205 -1.54664e-17)
(-0.105669 -0.155259 -5.97912e-18)
(-0.0428456 -0.0165767 -3.67751e-20)
(-0.0447602 -0.0311148 1.21401e-18)
(-0.0499069 -0.0488549 8.70753e-18)
(-0.0583204 -0.0666859 1.57525e-17)
(-0.069965 -0.0838746 7.6525e-18)
(-0.0844732 -0.100127 -1.02205e-17)
(-0.101181 -0.115128 -2.07492e-17)
(-0.118502 -0.128079 -1.91767e-17)
(-0.0554894 -0.0143237 1.38394e-18)
(-0.058342 -0.0259396 1.55915e-18)
(-0.0636162 -0.0400075 3.85614e-18)
(-0.071881 -0.0541248 5.06555e-18)
(-0.0830268 -0.0677812 -2.75186e-18)
(-0.0967741 -0.0808207 -1.07916e-17)
(-0.112706 -0.0930835 -1.18939e-17)
(-0.129471 -0.103902 -1.01151e-17)
(-0.0655108 -0.0118465 1.79949e-18)
(-0.068956 -0.0209763 2.62976e-18)
(-0.0743693 -0.031881 -5.68648e-19)
(-0.0825437 -0.0428075 -9.70364e-18)
(-0.0933583 -0.0534144 -2.14378e-17)
(-0.106619 -0.0636263 -1.99813e-17)
(-0.122081 -0.0733558 -6.83376e-18)
(-0.138526 -0.0820643 4.46064e-18)
(-0.073202 -0.0093164 5.04475e-19)
(-0.0770271 -0.016205 1.96111e-18)
(-0.0825576 -0.0243335 -2.91141e-18)
(-0.0906817 -0.0324619 -1.6021e-17)
(-0.101283 -0.0403729 -2.64698e-17)
(-0.11423 -0.0480417 -1.84248e-17)
(-0.129395 -0.0554155 4.86951e-18)
(-0.145655 -0.0620771 1.73184e-17)
(-0.0786314 -0.00680984 -7.2737e-19)
(-0.0827079 -0.0116189 3.93821e-18)
(-0.0883269 -0.0172624 5.22801e-18)
(-0.0964101 -0.0228872 -3.90383e-18)
(-0.106855 -0.028363 -1.5924e-17)
(-0.119569 -0.0337068 -1.32012e-17)
(-0.134504 -0.0388853 4.97559e-18)
(-0.150615 -0.0435575 1.696e-17)
(-0.0806453 -0.00436131 4.31864e-19)
(-0.0848207 -0.00721165 2.86112e-18)
(-0.0903883 -0.0106156 4.61623e-19)
(-0.0982594 -0.0140083 -1.14052e-17)
(-0.108376 -0.01731 -2.44734e-17)
(-0.120686 -0.0205725 -2.45497e-17)
(-0.135155 -0.0237868 -7.82619e-18)
(-0.150817 -0.0265788 5.1199e-18)
(-0.0718592 -0.00207171 2.84907e-18)
(-0.0756292 -0.00315655 1.33861e-18)
(-0.0804911 -0.00458128 -4.46818e-18)
(-0.0872822 -0.00594398 -9.05174e-18)
(-0.0960116 -0.0071337 -9.93685e-18)
(-0.106667 -0.00824876 -8.35393e-19)
(-0.119073 -0.00946464 1.0251e-17)
(-0.132313 -0.0104103 1.09745e-17)
(-0.0300014 -0.000250711 2.12622e-18)
(-0.0320041 -0.000164845 1.47109e-18)
(-0.0342328 -0.000232188 -1.49583e-18)
(-0.0372186 -0.000260987 -3.22078e-18)
(-0.0410365 -0.000275713 -2.3926e-18)
(-0.045801 -0.000429125 1.42278e-18)
(-0.0509013 -0.000896295 9.7634e-18)
(-0.0549879 -0.00120198 1.14789e-17)
(0.441991 -0.247028 3.71307e-17)
(0.468202 -0.206152 2.72852e-17)
(0.490869 -0.188819 3.43758e-17)
(0.509769 -0.179197 2.78766e-17)
(0.524433 -0.172475 2.62837e-17)
(0.536464 -0.167426 1.51881e-17)
(0.546688 -0.163481 1.04944e-17)
(0.555645 -0.16028 7.34678e-18)
(0.563707 -0.157581 1.2873e-17)
(0.571133 -0.155221 1.41205e-17)
(0.578108 -0.153088 1.81673e-17)
(0.584765 -0.151105 2.00962e-17)
(0.5912 -0.149218 1.23418e-17)
(0.597486 -0.14739 1.13451e-17)
(0.603675 -0.145592 1.17217e-17)
(0.609808 -0.143803 1.72673e-17)
(0.615914 -0.142009 1.73339e-17)
(0.622013 -0.140196 8.57536e-18)
(0.628118 -0.138357 8.6108e-18)
(0.634239 -0.136487 2.944e-17)
(0.640378 -0.134584 5.84665e-17)
(0.646528 -0.132643 4.79014e-17)
(0.652675 -0.130662 2.90718e-17)
(0.658791 -0.128641 -1.38715e-17)
(0.664817 -0.126583 -1.7501e-17)
(0.670636 -0.124508 -4.28704e-17)
(0.676051 -0.122464 -7.86691e-17)
(0.680795 -0.120532 -6.11739e-17)
(0.684656 -0.118807 -3.19657e-17)
(0.687791 -0.117318 -1.28832e-16)
(0.69126 -0.115906 -8.66652e-17)
(0.697818 -0.114122 -7.05465e-17)
(0.712786 -0.111161 -6.03842e-18)
(0.744579 -0.105698 -1.19914e-17)
(0.804442 -0.0957962 -1.13015e-17)
(0.903857 -0.0786671 -3.76278e-17)
(1.04931 -0.0504727 -1.37652e-17)
(1.2362 -0.00695007 -4.29751e-17)
(1.44502 0.0532911 2.26216e-18)
(1.6422 0.125902 5.64769e-17)
(1.78366 0.199033 5.11398e-17)
(1.82704 0.252806 1.14297e-16)
(1.74954 0.265921 6.6668e-17)
(1.58041 0.230962 1.53609e-16)
(1.38453 0.164128 6.20592e-17)
(1.2394 0.0977692 7.1748e-17)
(1.19908 0.0567415 1.60695e-16)
(1.26243 0.0466857 1.05557e-16)
(1.75991 0.0531749 6.39134e-17)
(0.312588 0.13862 1.11837e-16)
(0.0680222 -0.358598 5.32761e-18)
(0.0686607 -0.336446 -9.3407e-19)
(0.0711868 -0.325088 -8.75237e-18)
(0.0731227 -0.317694 -1.6621e-17)
(0.0745228 -0.312855 -1.90213e-17)
(0.0753885 -0.309764 -2.07297e-17)
(0.0758126 -0.307884 -1.84208e-17)
(0.0758771 -0.306856 -4.22777e-18)
(0.0756659 -0.306429 7.19385e-18)
(0.0752621 -0.306422 2.64295e-17)
(0.0747461 -0.306703 3.77028e-17)
(0.0741908 -0.307172 3.29409e-17)
(0.0736602 -0.307752 1.76292e-17)
(0.0732091 -0.308386 -2.39745e-18)
(0.0728845 -0.309028 -2.36467e-17)
(0.0727282 -0.309643 -3.78542e-17)
(0.0727772 -0.310202 -3.78392e-17)
(0.073066 -0.310684 -2.4182e-17)
(0.0736258 -0.311072 -6.62568e-18)
(0.0744839 -0.311346 6.20068e-18)
(0.0756639 -0.311487 1.33819e-18)
(0.0771866 -0.311475 -3.60747e-17)
(0.0790658 -0.311293 -7.70242e-17)
(0.0812834 -0.310921 -1.51029e-16)
(0.0837312 -0.310329 -1.65274e-16)
(0.0861367 -0.309474 -1.58771e-16)
(0.0880494 -0.308316 -1.4419e-16)
(0.0890291 -0.306878 -1.6651e-16)
(0.0891883 -0.305361 -1.31138e-16)
(0.0901263 -0.304277 -1.26227e-16)
(0.0961178 -0.304516 -1.0329e-16)
(0.115164 -0.307109 -6.96465e-17)
(0.158992 -0.312417 -7.44632e-17)
(0.241106 -0.318976 -8.49567e-17)
(0.373961 -0.322912 -3.86549e-17)
(0.564927 -0.316452 8.00237e-19)
(0.812622 -0.289355 1.04168e-16)
(1.10364 -0.229243 1.26522e-16)
(1.41226 -0.126493 1.71527e-16)
(1.70244 0.0200268 2.11549e-16)
(1.93155 0.196571 1.93332e-16)
(2.06002 0.369632 5.69802e-17)
(2.06087 0.486575 1.06846e-16)
(1.92791 0.504661 1.59682e-16)
(1.70755 0.41734 1.86639e-16)
(1.49965 0.270526 1.55616e-16)
(1.39468 0.132108 1.7598e-16)
(1.41367 0.0462343 1.00309e-16)
(1.20229 0.177671 9.70671e-17)
(-0.633375 0.638415 7.70699e-17)
(-0.0442945 -0.323174 -1.5588e-17)
(-0.0572868 -0.317908 -2.73424e-17)
(-0.066227 -0.315491 -3.5645e-17)
(-0.0743489 -0.314576 -3.69243e-17)
(-0.0820378 -0.314948 -3.25845e-17)
(-0.0896867 -0.316313 -1.76955e-17)
(-0.097455 -0.318455 2.31107e-18)
(-0.105434 -0.32121 2.08518e-17)
(-0.113668 -0.324454 4.23834e-17)
(-0.122183 -0.328096 5.85349e-17)
(-0.130988 -0.332066 6.09371e-17)
(-0.140085 -0.336309 4.81677e-17)
(-0.149462 -0.340774 2.16094e-17)
(-0.159101 -0.345422 -9.83188e-18)
(-0.168976 -0.350218 -3.48945e-17)
(-0.179055 -0.355133 -4.44699e-17)
(-0.189301 -0.360137 -4.23835e-17)
(-0.199665 -0.365193 -3.52801e-17)
(-0.210116 -0.37027 -4.27867e-17)
(-0.220624 -0.375344 -7.07771e-17)
(-0.231149 -0.380394 -1.20794e-16)
(-0.241651 -0.385395 -1.92363e-16)
(-0.25212 -0.390299 -2.13832e-16)
(-0.262643 -0.394985 -2.21006e-16)
(-0.273465 -0.399234 -2.13307e-16)
(-0.284931 -0.40278 -1.75563e-16)
(-0.297153 -0.405525 -1.41518e-16)
(-0.309302 -0.407915 -1.13074e-16)
(-0.318678 -0.411333 -1.02814e-16)
(-0.319988 -0.418226 -1.12209e-16)
(-0.305385 -0.431631 -1.3253e-16)
(-0.265545 -0.454035 -1.44882e-16)
(-0.191555 -0.485915 -1.05978e-16)
(-0.0767721 -0.524522 -5.33914e-17)
(0.083593 -0.563192 4.85456e-17)
(0.290885 -0.591688 1.50917e-16)
(0.540723 -0.596403 2.68262e-16)
(0.819722 -0.558048 2.63485e-16)
(1.10636 -0.459938 4.24129e-16)
(1.37195 -0.291877 5.42976e-16)
(1.58374 -0.0646936 4.73308e-16)
(1.71493 0.181625 3.96774e-16)
(1.75373 0.392991 3.63617e-16)
(1.69164 0.50403 2.95345e-16)
(1.54594 0.469807 3.20778e-16)
(1.38004 0.316172 2.32781e-16)
(1.23983 0.133763 2.19073e-16)
(0.994296 0.0874408 1.05639e-16)
(0.0374101 0.37619 3.2534e-17)
(-1.41598 1.04681 1.19833e-16)
(-0.0760331 -0.280755 -1.33382e-17)
(-0.0919744 -0.282073 -2.50372e-17)
(-0.104435 -0.283424 -3.0804e-17)
(-0.116224 -0.285172 -3.05804e-17)
(-0.127741 -0.287546 -2.22421e-17)
(-0.139285 -0.290515 -1.17561e-17)
(-0.151011 -0.294026 9.97924e-18)
(-0.163037 -0.298015 3.28422e-17)
(-0.175448 -0.302427 6.12776e-17)
(-0.188308 -0.307214 8.44405e-17)
(-0.201668 -0.312343 8.57261e-17)
(-0.215568 -0.317786 6.8682e-17)
(-0.230044 -0.323529 3.77482e-17)
(-0.245125 -0.32956 -8.10395e-19)
(-0.260838 -0.335873 -2.5955e-17)
(-0.27721 -0.342468 -3.42754e-17)
(-0.294271 -0.349343 -3.34416e-17)
(-0.312053 -0.356499 -4.25391e-17)
(-0.330567 -0.363928 -7.65166e-17)
(-0.34981 -0.371627 -1.31462e-16)
(-0.369777 -0.379588 -1.90554e-16)
(-0.390479 -0.387761 -2.16957e-16)
(-0.411983 -0.396003 -2.16552e-16)
(-0.434443 -0.404071 -1.8682e-16)
(-0.457972 -0.411712 -1.40141e-16)
(-0.482285 -0.418942 -9.09657e-17)
(-0.506117 -0.426481 -5.3879e-17)
(-0.526673 -0.436123 -6.44988e-17)
(-0.539548 -0.450747 -9.73266e-17)
(-0.539396 -0.473817 -1.35344e-16)
(-0.52105 -0.508511 -1.7423e-16)
(-0.48031 -0.556818 -1.51389e-16)
(-0.413848 -0.618787 -7.52274e-17)
(-0.318557 -0.691609 5.82895e-17)
(-0.191426 -0.768171 2.15148e-16)
(-0.0309679 -0.836799 3.61109e-16)
(0.160901 -0.878698 4.66822e-16)
(0.374092 -0.869639 5.79923e-16)
(0.591919 -0.784666 6.41059e-16)
(0.793433 -0.606772 7.33096e-16)
(0.95537 -0.346617 7.4991e-16)
(1.0627 -0.0503221 5.92311e-16)
(1.11241 0.215961 4.41071e-16)
(1.10116 0.380785 4.46027e-16)
(1.03416 0.383084 3.53252e-16)
(0.915276 0.24132 1.99248e-16)
(0.651081 0.109504 1.38268e-16)
(-0.0150479 0.220331 4.98038e-17)
(-1.12293 0.636905 9.4954e-17)
(-2.02673 1.30045 1.52899e-16)
(-0.0939432 -0.235159 1.58122e-17)
(-0.110064 -0.239287 9.16949e-18)
(-0.123267 -0.242584 -1.97075e-18)
(-0.135961 -0.245816 -1.27318e-17)
(-0.148562 -0.249313 -1.92456e-17)
(-0.161318 -0.253128 -1.85951e-17)
(-0.174367 -0.257275 -2.34694e-18)
(-0.18782 -0.261749 1.77082e-17)
(-0.201766 -0.266541 4.30271e-17)
(-0.21628 -0.271642 6.14909e-17)
(-0.23143 -0.277046 6.72048e-17)
(-0.247277 -0.282747 5.36178e-17)
(-0.263881 -0.288747 2.68583e-17)
(-0.281301 -0.295046 -3.557e-18)
(-0.299598 -0.30165 -2.21092e-17)
(-0.318835 -0.308563 -2.15741e-17)
(-0.339078 -0.315795 -3.03388e-17)
(-0.360396 -0.323365 -5.9208e-17)
(-0.382858 -0.331298 -1.02079e-16)
(-0.406537 -0.339616 -1.43416e-16)
(-0.431521 -0.34832 -1.92013e-16)
(-0.457925 -0.357349 -1.98222e-16)
(-0.485882 -0.366567 -1.63473e-16)
(-0.515427 -0.375846 -1.13636e-16)
(-0.546257 -0.385327 -5.4815e-17)
(-0.577397 -0.395795 -4.60449e-17)