/*--------------------------------*- C++ -*----------------------------------*\
  =========                 |
  \\      /  F ield         | OpenFOAM: The Open Source CFD Toolbox
   \\    /   O peration     | Website:  https://openfoam.org
    \\  /    A nd           | Version:  13
     \\/     M anipulation  |
\*---------------------------------------------------------------------------*/
FoamFile
{
    format      ascii;
    class       surfaceVectorField;
    location    "0.0006";
    object      Uf;
}
// * * * * * * * * * * * * * * * * * * * * * * * * * * * * * * * * * * * * * //

dimensions      [0 1 -1 0 0 0 0];

internalField   nonuniform List<vector> 
3252
(
(0.386783 -0.00318868 -4.96309e-18)
(0.372332 -0.00254645 -7.25879e-18)
(0.429493 -0.00654824 1.96644e-17)
(0.399479 -0.00786974 2.79952e-18)
(0.503206 -0.0100561 2.21764e-17)
(0.458058 -0.0135822 4.36423e-17)
(0.608383 -0.0131675 4.77254e-17)
(0.547559 -0.0193796 4.37438e-17)
(0.737609 -0.0149346 6.44676e-17)
(0.669472 -0.0238115 9.73301e-17)
(0.874316 -0.0133731 1.68149e-17)
(0.8044 -0.0252016 5.25569e-17)
(0.976543 -0.00709258 4.62897e-18)
(0.944613 -0.0187496 7.14829e-18)
(1.00607 -0.00391779 1.27402e-17)
(0.384734 -0.00827773 2.32613e-18)
(0.369288 -0.00509717 -2.30839e-18)
(0.427244 -0.0170552 2.91483e-17)
(0.396297 -0.0156842 6.98739e-18)
(0.500773 -0.026227 7.95542e-17)
(0.454791 -0.0271136 5.16448e-17)
(0.60617 -0.0344816 1.08557e-16)
(0.544669 -0.0388201 1.20451e-16)
(0.737748 -0.0391425 9.23896e-17)
(0.667711 -0.048273 1.09293e-16)
(0.875657 -0.0352165 5.17353e-17)
(0.804987 -0.0507354 6.90142e-17)
(0.981206 -0.0186173 1.84541e-17)
(0.947076 -0.0384161 -5.34835e-18)
(1.00723 -0.00666797 -1.06753e-17)
(0.380786 -0.0131374 2.35554e-18)
(0.364446 -0.00762103 -2.15395e-18)
(0.423112 -0.0270834 2.95174e-17)
(0.391223 -0.0234544 4.88445e-18)
(0.496673 -0.041788 9.38405e-17)
(0.449515 -0.0406659 4.20897e-17)
(0.602929 -0.0553465 1.22449e-16)
(0.539814 -0.0585111 1.05289e-16)
(0.737042 -0.0629855 8.52597e-17)
(0.664774 -0.0733683 6.57515e-17)
(0.87783 -0.0567117 8.15206e-18)
(0.805874 -0.07708 3.20966e-17)
(0.984546 -0.0293744 -3.94965e-17)
(0.951325 -0.0582427 -8.08507e-17)
(1.00955 -0.00874938 -6.22844e-17)
(0.374849 -0.0181881 2.53702e-19)
(0.35768 -0.010105 -2.84526e-18)
(0.416883 -0.0375872 1.67183e-17)
(0.384105 -0.0311448 2.73523e-18)
(0.49048 -0.0582762 5.10706e-17)
(0.442016 -0.0542308 2.01619e-17)
(0.598044 -0.0777454 4.40687e-17)
(0.532733 -0.0785674 3.76098e-17)
(0.735729 -0.0888671 8.131e-18)
(0.660421 -0.0994239 -1.43761e-17)
(0.881297 -0.0798296 -6.06043e-17)
(0.807165 -0.104771 -2.44691e-17)
(0.989044 -0.0403962 -1.08494e-16)
(0.957832 -0.0782882 -1.37277e-16)
(1.01337 -0.00976975 -1.08814e-16)
(0.366914 -0.0232067 -3.91181e-19)
(0.349012 -0.0125275 -3.24871e-18)
(0.408479 -0.0481341 5.71036e-18)
(0.374924 -0.0387014 1.46869e-18)
(0.481988 -0.0751147 4.72904e-18)
(0.432185 -0.067765 1.51227e-18)
(0.591215 -0.1011 -2.37203e-17)
(0.5232 -0.0990807 -2.64347e-17)
(0.733818 -0.116328 -4.94278e-17)
(0.654372 -0.126836 -5.72112e-17)
(0.886344 -0.104068 -1.0268e-16)
(0.808906 -0.134427 -5.56727e-17)
(0.995432 -0.0510562 -1.403e-16)
(0.967011 -0.0986851 -1.40244e-16)
(1.01886 -0.00920027 -1.20083e-16)
(0.357006 -0.0281119 -1.42372e-18)
(0.338495 -0.0148614 -2.02645e-18)
(0.397853 -0.0585792 -3.0245e-18)
(0.363691 -0.0460495 -1.56206e-18)
(0.47101 -0.0921862 -3.08535e-17)
(0.419917 -0.0811836 -1.7196e-17)
(0.58213 -0.125504 -6.11919e-17)
(0.510908 -0.120104 -6.53439e-17)
(0.731163 -0.145738 -6.39463e-17)
(0.646157 -0.156043 -7.75186e-17)
(0.893187 -0.129671 -9.27268e-17)
(0.810775 -0.166779 -4.89787e-17)
(1.00411 -0.061046 -1.20312e-16)
(0.978845 -0.119599 -9.76786e-17)
(1.0262 -0.00642975 -1.02708e-16)
(0.345168 -0.0328431 -2.18617e-18)
(0.326205 -0.0170734 -9.97543e-19)
(0.384961 -0.0688195 -1.61001e-17)
(0.350442 -0.0530879 -5.36966e-18)
(0.457302 -0.109443 -5.22872e-17)
(0.405089 -0.0943406 -3.23707e-17)
(0.570291 -0.151185 -8.22615e-17)
(0.495416 -0.14161 -8.33898e-17)
(0.727142 -0.1777 -6.25047e-17)
(0.634863 -0.187425 -8.81799e-17)
(0.901267 -0.157122 -5.27215e-17)
(0.811109 -0.202563 -3.25556e-17)
(1.0149 -0.0701822 -7.86632e-17)
(0.991443 -0.141315 -4.90359e-17)
(1.03521 -0.000924374 -7.66728e-17)
(0.331466 -0.0373241 -4.23004e-18)
(0.312252 -0.0191228 -1.22573e-18)
(0.36976 -0.0787064 -2.17763e-17)
(0.33524 -0.0596819 -7.14602e-18)
(0.440531 -0.126755 -6.3748e-17)
(0.387566 -0.106998 -3.69938e-17)
(0.554818 -0.178268 -8.94814e-17)
(0.476099 -0.163393 -9.12683e-17)
(0.719822 -0.212737 -5.81146e-17)
(0.618719 -0.221004 -7.91546e-17)
(0.907535 -0.187001 -2.8258e-17)
(0.805422 -0.242119 -2.57888e-17)
(1.02578 -0.0785514 -4.48911e-17)
(0.998806 -0.16445 -1.99921e-17)
(1.04462 0.0072072 -5.25633e-17)
(0.316006 -0.0414559 -4.13982e-18)
(0.296786 -0.0209616 -7.2174e-19)
(0.352226 -0.0880158 -2.23761e-17)
(0.318196 -0.0656566 -6.09802e-18)
(0.420252 -0.143807 -6.45305e-17)
(0.367231 -0.118785 -3.77048e-17)
(0.534182 -0.206466 -8.07588e-17)
(0.452183 -0.184891 -8.53356e-17)
(0.704936 -0.250805 -4.65773e-17)
(0.594785 -0.255879 -6.44783e-17)
(0.904445 -0.219889 -1.73e-17)
(0.785781 -0.284679 -2.13423e-17)
(1.03114 -0.0870171 -2.56594e-17)
(0.989643 -0.190259 -5.7495e-18)
(1.05119 0.0161485 -3.62407e-17)
(0.29894 -0.0451158 -2.65228e-18)
(0.280003 -0.0225371 -5.08435e-19)
(0.332381 -0.0964265 -2.14087e-17)
(0.299484 -0.0707981 -5.57769e-18)
(0.395991 -0.159959 -5.83958e-17)
(0.344071 -0.129176 -3.68723e-17)
(0.506195 -0.23459 -6.88332e-17)
(0.423016 -0.204983 -7.3306e-17)
(0.675962 -0.290431 -3.90969e-17)
(0.559403 -0.289726 -5.25667e-17)
(0.880196 -0.256012 -9.6623e-18)
(0.743099 -0.327733 -1.8089e-17)
(1.02158 -0.0980309 -1.46045e-17)
(0.950122 -0.220763 5.52469e-18)
(1.04938 0.0212812 -2.09122e-17)
(0.280483 -0.0481616 -3.44714e-18)
(0.262145 -0.0237956 -2.18139e-20)
(0.310366 -0.103531 -2.1035e-17)
(0.279365 -0.0748738 -7.2715e-18)
(0.367585 -0.174236 -5.167e-17)
(0.318366 -0.137561 -3.47425e-17)
(0.468838 -0.260327 -5.68388e-17)
(0.388594 -0.221966 -6.32138e-17)
(0.626673 -0.328068 -3.14255e-17)
(0.510098 -0.318908 -4.77747e-17)
(0.823696 -0.29463 -2.79586e-18)
(0.672345 -0.367262 -1.21086e-17)
(0.986692 -0.115672 8.13343e-19)
(0.871194 -0.258129 1.66569e-17)
(1.03136 0.0150209 -3.55604e-18)
(0.260921 -0.0504506 -3.85234e-18)
(0.24349 -0.0246925 1.15772e-19)
(0.286567 -0.108896 -2.09781e-17)
(0.258211 -0.0776915 -7.28832e-18)
(0.335583 -0.185334 -4.62032e-17)
(0.290916 -0.143408 -3.25421e-17)
(0.421983 -0.280737 -5.4108e-17)
(0.350016 -0.233982 -5.16806e-17)
(0.555507 -0.359091 -2.84078e-17)
(0.448239 -0.339489 -4.46571e-17)
(0.731921 -0.333539 7.50314e-18)
(0.577032 -0.398969 -7.1417e-18)
(0.92006 -0.144381 1.35215e-17)
(0.75545 -0.303247 2.37246e-17)
(0.984276 -0.0118178 9.40088e-18)
(0.240621 -0.0518872 -3.3127e-18)
(0.224332 -0.0252092 -4.61982e-19)
(0.261735 -0.112196 -1.88223e-17)
(0.23651 -0.0791968 -6.16213e-18)
(0.301449 -0.192089 -3.79039e-17)
(0.26297 -0.146449 -2.75804e-17)
(0.368553 -0.292918 -4.20619e-17)
(0.309564 -0.239761 -4.1601e-17)
(0.468747 -0.379777 -2.33168e-17)
(0.380189 -0.348878 -3.31593e-17)
(0.613199 -0.369531 9.12254e-18)
(0.469451 -0.419469 -3.92044e-18)
(0.818815 -0.185065 2.04501e-17)
(0.615064 -0.353068 2.56164e-17)
(0.887509 -0.0689018 2.1212e-17)
(0.219999 -0.0524925 -3.31139e-18)
(0.20494 -0.02537 -6.16786e-19)
(0.236824 -0.113462 -1.48695e-17)
(0.214817 -0.0795187 -5.85907e-18)
(0.267314 -0.194227 -3.11912e-17)
(0.235738 -0.146823 -2.12305e-17)
(0.314228 -0.295986 -3.25765e-17)
(0.270084 -0.239306 -3.35276e-17)
(0.378995 -0.388481 -1.3637e-17)
(0.314789 -0.346973 -2.72352e-17)
(0.481846 -0.401832 1.26548e-17)
(0.366146 -0.426059 -3.51024e-18)
(0.682327 -0.251118 2.66917e-17)
(0.466045 -0.399475 2.22807e-17)
(0.725506 -0.165762 2.51766e-17)
(0.199436 -0.05246 -3.16269e-18)
(0.185567 -0.0252419 -4.73278e-19)
(0.212618 -0.11316 -1.21882e-17)
(0.193684 -0.0789133 -5.61768e-18)
(0.234931 -0.192552 -2.34749e-17)
(0.210081 -0.144983 -1.57888e-17)
(0.264398 -0.291256 -2.81333e-17)
(0.234192 -0.23385 -2.63244e-17)
(0.299148 -0.385375 -1.71495e-17)
(0.259428 -0.336222 -2.692e-17)
(0.355989 -0.426182 6.06825e-18)
(0.282076 -0.417906 -8.3601e-18)
(0.515279 -0.343365 2.05348e-17)
(0.337405 -0.429408 1.55864e-17)
(0.530064 -0.310007 2.44344e-17)
(0.956823 0.0334787 -4.23499e-15)
(0.966003 0.0398732 -4.90758e-15)
(0.8826 0.0431452 -2.32252e-16)
(0.93742 0.0655268 -1.87319e-15)
(0.800893 0.0436817 2.78512e-15)
(0.832014 0.0694242 3.02305e-15)
(0.719115 0.0418189 2.30995e-15)
(0.759222 0.066973 3.81041e-15)
(0.638598 0.0393704 -1.93289e-15)
(0.674797 0.063574 2.40963e-15)
(0.560757 0.0364322 -7.72545e-15)
(0.595262 0.0592592 -3.07844e-15)
(0.486693 0.0331783 -1.06603e-14)
(0.518899 0.054364 -9.70497e-15)
(0.41735 0.0297344 -7.44362e-15)
(0.447053 0.0490743 -9.16129e-15)
(0.35346 0.02623 -2.69298e-15)
(0.380474 0.0435961 -2.31936e-15)
(0.295509 0.022785 -3.20508e-15)
(0.319764 0.0381261 1.26907e-15)
(0.243738 0.019503 -6.5871e-15)
(0.265244 0.0328407 -1.27026e-15)
(0.198144 0.0164664 -9.3084e-15)
(0.216995 0.0278856 -3.94553e-15)
(0.158511 0.0137358 -9.67901e-15)
(0.174867 0.0233716 -8.07728e-15)
(0.124435 0.01135 -5.78524e-15)
(0.13852 0.0193747 -6.93059e-15)
(0.0953593 0.00933032 -2.71539e-15)
(0.107447 0.0159393 -1.18358e-15)
(0.0706023 0.00768847 -9.72709e-17)
(0.0810221 0.0130856 -5.26435e-16)
(0.0493517 0.00644003 8.31238e-15)
(0.0585054 0.0108299 3.97317e-15)
(0.0306169 0.00557007 1.57922e-14)
(0.0389654 0.00920569 1.19503e-14)
(0.0134554 0.00459562 9.43497e-15)
(0.0213059 0.0081305 1.49228e-14)
(0.00550692 0.00614193 1.6286e-15)
(0.956355 0.0805791 -2.17483e-15)
(0.96559 0.0775503 -1.9217e-15)
(0.880064 0.103636 1.7005e-15)
(0.934435 0.129017 4.51214e-16)
(0.797479 0.104624 4.37223e-15)
(0.827311 0.135015 3.67568e-15)
(0.714335 0.100257 4.37621e-15)
(0.752393 0.130812 3.24618e-15)
(0.632953 0.0942486 2.25765e-15)
(0.666558 0.123639 3.94933e-15)
(0.554494 0.0871712 -4.1815e-15)
(0.585901 0.115011 1.0375e-15)
(0.480098 0.0793361 -7.55352e-15)
(0.508897 0.105246 -5.3074e-15)
(0.410696 0.071052 -3.27255e-15)
(0.436844 0.094755 -5.56135e-15)
(0.346989 0.0626294 2.73435e-15)
(0.370457 0.0839465 -6.87404e-16)
(0.289424 0.054357 4.99943e-15)
(0.310268 0.0732112 3.19556e-15)
(0.238189 0.0464836 3.58987e-15)
(0.256522 0.0628901 4.08764e-15)
(0.193231 0.039207 -8.31814e-16)
(0.209215 0.0532598 2.18648e-15)
(0.154286 0.032671 -4.17667e-15)
(0.168124 0.0445258 -2.49685e-15)
(0.12091 0.026967 -1.5256e-15)
(0.132841 0.0368239 -2.55138e-15)
(0.0925182 0.0221434 1.99837e-15)
(0.102814 0.0302276 9.31256e-16)
(0.0684105 0.0182263 4.42639e-15)
(0.0773824 0.0247659 1.91928e-15)
(0.0477686 0.015252 7.23608e-15)
(0.0557909 0.0204598 4.23572e-15)
(0.0296039 0.0131855 9.73521e-15)
(0.0371083 0.0173682 7.37712e-15)
(0.0129701 0.0108528 6.80224e-15)
(0.0202598 0.0153359 1.23642e-14)
(0.00522417 0.0115394 3.54504e-15)
(0.954032 0.128539 7.96413e-16)
(0.965389 0.115586 5.39903e-16)
(0.875054 0.164786 2.39894e-15)
(0.929266 0.190975 2.25985e-15)
(0.789923 0.165792 2.46408e-15)
(0.81941 0.198934 1.44009e-15)
(0.704706 0.158562 2.72562e-15)
(0.741667 0.192317 9.04823e-16)
(0.621719 0.148526 2.80933e-15)
(0.653321 0.181132 1.7816e-15)
(0.542191 0.136895 2.44106e-16)
(0.571162 0.167894 1.65681e-15)
(0.467286 0.124115 -3.09208e-15)
(0.493263 0.153023 -4.69714e-16)
(0.397901 0.110715 -3.05442e-15)
(0.421013 0.137191 -2.37706e-15)
(0.334669 0.0971985 -4.53138e-16)
(0.355033 0.12102 -1.08214e-15)
(0.277943 0.0840256 2.1268e-15)
(0.295747 0.105094 8.69068e-16)
(0.227807 0.0715792 2.67407e-15)
(0.243269 0.0899034 2.78947e-15)
(0.184109 0.0601544 6.80952e-16)
(0.197464 0.0758335 1.3624e-15)
(0.146497 0.0499561 -7.00303e-16)
(0.157993 0.0631596 -6.96443e-16)
(0.114455 0.0411054 -8.76175e-17)
(0.124352 0.0520518 -5.46762e-16)
(0.0873463 0.0336571 7.74196e-16)
(0.0959173 0.0425903 2.66777e-16)
(0.0644427 0.0276334 1.54525e-15)
(0.0719832 0.034793 7.59329e-16)
(0.0449174 0.0230752 4.16926e-15)
(0.051776 0.0286697 8.2355e-16)
(0.0277972 0.0199191 9.92438e-15)
(0.0343729 0.0242869 2.87939e-15)
(0.0121674 0.0163741 9.39774e-15)
(0.0187333 0.0214112 8.15496e-15)
(0.00482361 0.0160857 1.92378e-15)
(0.950709 0.177932 1.98292e-15)
(0.965151 0.154746 1.43317e-15)
(0.867643 0.226768 1.29959e-15)
(0.922062 0.25298 1.64505e-15)
(0.778821 0.227282 -1.49859e-16)
(0.808434 0.262222 -2.49381e-16)
(0.690611 0.216632 -9.89998e-17)
(0.726879 0.252479 -9.85531e-16)
(0.605383 0.202116 5.97056e-16)
(0.635238 0.236731 -6.28702e-16)
(0.524433 0.185482 9.93396e-16)
(0.551243 0.218359 3.49141e-16)
(0.448938 0.167377 3.33206e-16)
(0.472329 0.197943 1.11108e-15)
(0.379725 0.14858 -3.87044e-16)
(0.400028 0.176466 3.14508e-17)
(0.317309 0.129803 2.14829e-16)
(0.334789 0.154783 -5.83502e-17)
(0.261893 0.111671 1.48679e-15)
(0.27687 0.133661 7.59598e-16)
(0.213408 0.0946877 1.48541e-15)
(0.226195 0.113724 1.42053e-15)
(0.171552 0.0792247 1.21884e-17)
(0.182454 0.0954361 1.18799e-16)
(0.135847 0.065523 -5.43197e-16)
(0.145152 0.0791066 -8.07155e-16)
(0.105682 0.0537103 -2.09089e-16)
(0.113667 0.0649071 -6.13391e-16)
(0.0803553 0.0438265 2.34559e-16)
(0.0872885 0.0528956 4.61202e-16)
(0.0591035 0.0358723 1.26934e-17)
(0.0652632 0.0430556 1.67637e-15)
(0.0410945 0.0298773 -5.77406e-16)
(0.0467999 0.0353667 1.74269e-15)
(0.0253794 0.0257383 8.73407e-16)
(0.0309938 0.0298846 1.03235e-15)
(0.0110837 0.0211215 6.61041e-16)
(0.0168509 0.0262964 1.68136e-15)
(0.00432404 0.0197158 -3.04255e-16)
(0.946179 0.22871 1.0902e-15)
(0.964579 0.196007 6.72698e-16)
(0.857656 0.289352 1.31773e-16)
(0.9126 0.316158 -4.35936e-17)
(0.764044 0.288573 -1.07185e-15)
(0.794162 0.325728 -1.0068e-15)
(0.672043 0.273724 -1.52226e-15)
(0.707792 0.311939 -1.42752e-15)
(0.584097 0.254044 -8.94986e-16)
(0.612312 0.290838 -1.22343e-15)
(0.501561 0.231792 4.52733e-16)
(0.526309 0.266604 -2.36577e-17)
(0.425584 0.20788 8.29192e-16)
(0.446462 0.240051 8.62417e-16)
(0.356859 0.183377 3.62049e-16)
(0.374438 0.212532 1.38531e-16)
(0.295716 0.159203 4.7159e-16)
(0.310414 0.185134 -2.36839e-16)
(0.242145 0.136136 6.80996e-16)
(0.254413 0.158801 -2.18297e-16)
(0.195866 0.114767 7.71667e-17)
(0.20611 0.134252 -3.34863e-16)
(0.156395 0.0955068 -6.83904e-16)
(0.164977 0.111988 -5.49884e-16)
(0.123099 0.0785953 -8.81004e-16)
(0.13034 0.092313 -3.33252e-16)
(0.0952571 0.0641322 3.73881e-17)
(0.101441 0.0753602 -3.54129e-16)
(0.0721001 0.0521152 1.88143e-15)
(0.0774858 0.0611334 6.3142e-16)
(0.0528319 0.0425016 3.40636e-15)
(0.0576745 0.0495579 2.3162e-15)
(0.0366228 0.0352904 3.3668e-15)
(0.0412078 0.0405643 3.65258e-15)
(0.0225614 0.0303293 1.82881e-15)
(0.0272113 0.03418 3.07124e-15)
(0.00982712 0.0248404 7.52847e-16)
(0.0147521 0.0300123 -1.31102e-16)
(0.00377137 0.0224519 -1.7184e-15)
(0.940208 0.281671 -4.32043e-16)
(0.96348 0.2404 -1.37317e-16)
(0.844779 0.353116 -1.15309e-15)
(0.900541 0.381472 -1.40936e-15)
(0.745321 0.349976 -1.35239e-15)
(0.776211 0.390093 -1.44176e-15)
(0.648849 0.329957 -1.13565e-15)
(0.684067 0.3711 -1.19673e-15)
(0.557881 0.304248 -3.78312e-16)
(0.58441 0.343626 -3.86364e-16)
(0.473797 0.275638 3.70552e-16)
(0.496418 0.312628 5.35135e-16)
(0.39764 0.245375 1.90307e-16)
(0.415935 0.279245 5.09727e-16)
(0.329881 0.214843 -4.4674e-16)
(0.344706 0.245244 -6.65063e-16)
(0.270579 0.185163 -9.15454e-16)
(0.282509 0.21194 -9.25958e-16)
(0.219442 0.15723 -1.21615e-15)
(0.229057 0.180415 -1.33169e-15)
(0.175934 0.131681 -9.49398e-16)
(0.183721 0.151434 -1.21452e-15)
(0.139351 0.108916 -2.07174e-16)
(0.145719 0.125484 -5.88387e-16)
(0.108897 0.0891318 1.85079e-16)
(0.114185 0.102811 -1.29183e-16)
(0.0837387 0.0723636 2.20396e-16)
(0.0882285 0.0834691 -7.21337e-17)
(0.0630422 0.058539 1.04248e-15)
(0.0669746 0.067378 1.19435e-16)
(0.04599 0.0475513 2.54525e-15)
(0.0495906 0.0543817 1.25831e-15)
(0.0317671 0.0393525 3.36761e-15)
(0.0352823 0.0443459 1.98061e-15)
(0.0195131 0.033733 1.17521e-15)
(0.02322 0.0372548 2.49126e-15)
(0.00847358 0.0275702 -2.54541e-15)
(0.0125469 0.0326385 -9.79529e-16)
(0.0031936 0.0243601 -2.98362e-15)
(0.932507 0.337805 -1.07649e-15)
(0.961619 0.28901 -3.87251e-16)
(0.828583 0.41881 -1.68987e-15)
(0.885422 0.449802 -1.63089e-15)
(0.722221 0.411938 -1.29145e-15)
(0.754038 0.455818 -1.2544e-15)
(0.620721 0.385533 -4.71566e-16)
(0.655235 0.430168 -7.25509e-16)
(0.526624 0.352732 4.97954e-16)
(0.551285 0.395067 3.03368e-16)
(0.441256 0.316903 6.70556e-16)
(0.461555 0.356256 1.01873e-15)
(0.365436 0.279696 -3.17081e-16)
(0.380977 0.315295 3.66835e-16)
(0.299288 0.242823 -1.12992e-15)
(0.311259 0.274393 -8.93697e-16)
(0.242505 0.207569 -1.32898e-15)
(0.251634 0.235049 -9.36148e-16)
(0.194443 0.174896 -1.3306e-15)
(0.201431 0.198426 -1.05319e-15)
(0.154267 0.145426 -8.66105e-16)
(0.159666 0.165267 -7.89359e-16)
(0.121037 0.119495 -5.14452e-16)
(0.125289 0.135979 -8.24314e-16)
(0.0937922 0.0972066 -3.79499e-16)
(0.0972375 0.110697 -1.35231e-15)
(0.0715961 0.0784975 -1.71085e-16)
(0.0745014 0.089356 -1.20876e-15)
(0.0535651 0.0631992 3.24581e-16)
(0.0561444 0.0717616 -5.38835e-16)
(0.0388756 0.0511238 7.06344e-16)
(0.0413188 0.0576595 2.38684e-16)
(0.0267427 0.0421629 1.12646e-15)
(0.0292525 0.0468385 4.45478e-16)
(0.0163715 0.036045 4.10577e-16)
(0.0191764 0.039229 9.7852e-16)
(0.0070847 0.0293959 -1.39691e-15)
(0.0103227 0.0342891 -7.53224e-16)
(0.00261384 0.0255326 -9.59389e-16)
(0.922677 0.398101 -9.15984e-16)
(0.958673 0.343043 -2.88614e-16)
(0.80848 0.487072 -1.21119e-15)
(0.866618 0.521981 -9.33021e-16)
(0.69417 0.474723 -7.08684e-16)
(0.726932 0.523267 -5.5243e-16)
(0.587247 0.440433 2.1737e-17)
(0.620722 0.489154 -1.72482e-16)
(0.49016 0.399292 8.05543e-16)
(0.512644 0.444943 4.86781e-16)
(0.404042 0.3553 7.25902e-16)
(0.421708 0.397156 8.82049e-16)
(0.329305 0.310567 -1.89099e-16)
(0.34185 0.347875 3.00297e-16)
(0.26558 0.267104 -7.06793e-16)
(0.274555 0.299727 -3.90579e-16)
(0.212088 0.226296 -6.70122e-16)
(0.218361 0.254314 -3.04638e-16)
(0.167772 0.189098 -5.31204e-16)
(0.172151 0.212795 -2.39e-16)
(0.131468 0.156042 -7.49044e-16)
(0.134549 0.175801 -2.49652e-16)
(0.102003 0.127336 -1.63235e-15)
(0.104236 0.143588 -9.68704e-16)
(0.0782619 0.102946 -2.15217e-15)
(0.0799759 0.116124 -2.19506e-15)
(0.0592267 0.0826761 -1.56358e-15)
(0.0606599 0.0931908 -2.34354e-15)
(0.043986 0.066241 -6.21824e-16)
(0.0453166 0.0744564 -1.49624e-15)
(0.0317305 0.0533594 -1.29649e-17)
(0.033107 0.0595559 -8.14202e-16)
(0.0217219 0.0438534 3.02696e-16)
(0.0233002 0.0481945 -1.86949e-16)
(0.0132451 0.0373889 -1.43685e-16)
(0.0152023 0.0402428 -3.09579e-16)
(0.00570859 0.0304257 -3.31142e-16)
(0.00814632 0.035095 -7.80471e-16)
(0.00204958 0.0260733 6.29735e-16)
(0.910176 0.463603 -3.03644e-16)
(0.954203 0.403885 -7.98745e-17)
(0.783706 0.558442 -3.00576e-16)
(0.84331 0.598804 -7.88557e-17)
(0.66046 0.538416 -3.73004e-17)
(0.69401 0.592644 1.81408e-16)
(0.547958 0.494439 2.75203e-16)
(0.579879 0.547864 1.3096e-16)
(0.448336 0.443551 5.61212e-16)
(0.468202 0.49284 2.00247e-16)
(0.362308 0.390428 4.72383e-16)
(0.376929 0.434858 3.48377e-16)
(0.289636 0.337658 1.05233e-16)
(0.298891 0.376594 2.06535e-16)
(0.229294 0.287474 -4.74705e-18)
(0.235111 0.320988 5.94301e-17)
(0.17993 0.241259 1.08913e-16)
(0.183289 0.269624 2.01162e-16)
(0.140029 0.199858 3.09317e-17)
(0.14182 0.223537 1.08424e-16)
(0.108095 0.16363 -4.62225e-16)
(0.10893 0.183144 -2.41895e-16)
(0.0827354 0.132592 -1.51158e-15)
(0.0830537 0.148477 -7.50388e-16)
(0.062714 0.106528 -2.37895e-15)
(0.0628115 0.11929 -1.69155e-15)
(0.0469592 0.0850826 -2.27666e-15)
(0.047035 0.095178 -2.00586e-15)
(0.0345604 0.0678411 -1.67884e-15)
(0.0347487 0.0756591 -1.64154e-15)
(0.0247445 0.0544219 -9.79316e-16)
(0.0251483 0.060252 -1.09427e-15)
(0.0168377 0.0445736 -7.7435e-16)
(0.0175634 0.0485769 -6.08012e-16)
(0.010216 0.037902 -9.21429e-16)
(0.0113888 0.0404435 -5.70725e-16)
(0.00438108 0.0307781 1.44462e-16)
(0.00606697 0.0351918 -3.5879e-18)
(0.00151334 0.0260884 1.22579e-15)
(0.894283 0.53546 1.34668e-16)
(0.947609 0.473172 -3.85162e-17)
(0.753296 0.633367 3.82331e-16)
(0.814431 0.681029 4.4203e-16)
(0.620268 0.602919 3.41763e-16)
(0.654212 0.663958 6.323e-16)
(0.50237 0.547136 5.97581e-17)
(0.532021 0.605869 2.09012e-16)
(0.401062 0.484981 -2.16714e-18)
(0.417726 0.538151 -9.46223e-17)
(0.316299 0.421806 9.39312e-17)
(0.327376 0.468784 -9.71986e-17)
(0.2469 0.360629 1.62091e-16)
(0.252545 0.401028 1.32516e-16)
(0.191016 0.303756 2.56665e-16)
(0.19351 0.337943 2.56546e-16)
(0.146644 0.252428 2.00237e-16)
(0.14704 0.280921 2.56052e-16)
(0.111791 0.207262 -1.53712e-16)
(0.11103 0.230729 -1.34806e-16)
(0.0846521 0.168351 -5.1945e-16)
(0.0833275 0.187464 -5.8297e-16)
(0.0636574 0.135463 -9.26808e-16)
(0.0621712 0.150863 -7.38918e-16)
(0.0474873 0.108165 -1.33699e-15)
(0.0460873 0.120425 -1.05598e-15)
(0.0350567 0.0859252 -1.39785e-15)
(0.0338909 0.0955432 -1.16037e-15)
(0.0254856 0.0681923 -1.08088e-15)
(0.0246383 0.0755779 -7.67521e-16)
(0.0180605 0.0544843 -7.37466e-16)
(0.017586 0.0599334 -3.38749e-17)
(0.0121874 0.0444777 -4.13474e-16)
(0.0121417 0.048149 -2.97153e-16)
(0.0073433 0.0377238 3.0813e-16)
(0.00779976 0.0399755 -4.70011e-17)
(0.00312737 0.0305713 1.03441e-15)
(0.00411821 0.0347107 9.03778e-16)
(0.00101346 0.0256792 9.53034e-16)
(0.874025 0.614948 2.54581e-16)
(0.938058 0.552883 -1.06244e-16)
(0.716051 0.712164 6.80938e-16)
(0.778584 0.769342 6.31312e-16)
(0.572665 0.667901 5.03243e-16)
(0.606291 0.736963 7.51595e-16)
(0.45003 0.597894 6.01618e-17)
(0.476466 0.662473 2.50502e-16)
(0.348357 0.522916 -1.85018e-16)
(0.361101 0.580088 -1.20431e-16)
(0.266383 0.448907 -5.89666e-17)
(0.273354 0.498282 -2.48993e-16)
(0.20166 0.379159 2.23176e-16)
(0.203375 0.420769 5.13147e-17)
(0.151379 0.315831 2.5596e-16)
(0.150406 0.35042 2.52972e-16)
(0.112838 0.259847 -6.52009e-17)
(0.110251 0.288226 1.53219e-16)
(0.0835948 0.211462 -5.46043e-16)
(0.0803396 0.234523 -4.15143e-16)
(0.0615871 0.170419 -7.92735e-16)
(0.0582029 0.188985 -7.46899e-16)
(0.0451227 0.136188 -8.63888e-16)
(0.0419512 0.150998 -7.23213e-16)
(0.0328528 0.108094 -8.88705e-16)
(0.0300772 0.119783 -6.87572e-16)
(0.0237202 0.0854239 -5.58274e-16)
(0.0214286 0.0945217 -7.20637e-16)
(0.0169066 0.0674909 2.33125e-16)
(0.0151288 0.074422 -9.4576e-17)
(0.0117795 0.0537182 3.83118e-16)
(0.0105194 0.0587813 7.3943e-16)
(0.00783796 0.0437154 5.30493e-17)
(0.00710143 0.047066 -4.99973e-17)
(0.00466632 0.0369873 5.25843e-16)
(0.0044763 0.0389743 -2.06658e-16)
(0.00196376 0.0299172 8.26713e-16)
(0.00232085 0.0337733 6.83506e-16)
(0.000554914 0.0249386 4.9377e-16)
(0.848044 0.703506 2.53152e-16)
(0.92436 0.645483 -1.20498e-16)
(0.670503 0.794954 6.99233e-16)
(0.733927 0.864259 6.06856e-16)
(0.516647 0.732753 5.07893e-16)
(0.548836 0.811092 7.12862e-16)
(0.390581 0.645857 7.62491e-17)
(0.4126 0.716689 2.60561e-16)
(0.290402 0.55658 -1.82137e-16)
(0.298387 0.617706 -8.23323e-17)
(0.213077 0.471194 -1.41984e-16)
(0.215352 0.522679 -1.71971e-16)
(0.154576 0.392982 8.12021e-17)
(0.15207 0.435467 -3.48433e-17)
(0.111047 0.323661 1.54738e-16)
(0.106502 0.35834 1.21683e-16)
(0.0791063 0.263637 -1.83223e-16)
(0.0735505 0.29165 -1.50684e-19)
(0.0559306 0.212673 -6.08295e-16)
(0.0502653 0.235141 -4.42247e-16)
(0.0392811 0.170091 -6.80781e-16)
(0.0339536 0.187978 -5.55833e-16)
(0.0274165 0.135028 -5.55729e-16)
(0.0226861 0.149163 -4.01918e-16)
(0.0190164 0.106563 -5.28467e-16)
(0.0149887 0.117627 -3.3041e-16)
(0.013094 0.0837994 -2.75857e-16)
(0.00979061 0.0923479 -5.29706e-16)
(0.008922 0.0659278 3.92291e-16)
(0.00631531 0.0723929 4.74478e-18)
(0.00596667 0.0522863 3.22327e-16)
(0.00401012 0.0569655 5.99987e-16)
(0.00383043 0.0424259 -2.97538e-16)
(0.00248108 0.0454709 -3.64989e-16)
(0.00220827 0.0358147 -4.99417e-17)
(0.00144083 0.0375624 -1.00115e-15)
(0.000899389 0.0289171 3.66273e-16)
(0.00068541 0.0324882 -1.27565e-17)
(0.000139977 0.0239486 2.99381e-16)
(0.81441 0.80276 2.1697e-16)
(0.904765 0.754136 -9.93414e-17)
(0.614891 0.881558 6.20688e-16)
(0.678012 0.965946 5.54543e-16)
(0.451184 0.796527 4.74715e-16)
(0.480332 0.88537 6.1005e-16)
(0.323836 0.689946 1.07371e-16)
(0.339959 0.767209 2.64756e-16)
(0.227582 0.585129 -7.35449e-17)
(0.229887 0.649955 2.96599e-19)
(0.157055 0.488175 -6.93471e-17)
(0.154058 0.541332 -1.25435e-16)
(0.106388 0.401928 4.90053e-18)
(0.0994261 0.444873 -8.23583e-17)
(0.0706984 0.327307 -2.5968e-17)
(0.0625261 0.361733 2.26928e-18)
(0.046005 0.264001 -2.49278e-16)
(0.0375386 0.291396 -9.61942e-17)
(0.0292249 0.211167 -3.9367e-16)
(0.0212608 0.232866 -2.81912e-16)
(0.0180444 0.167655 -2.90606e-16)
(0.0109045 0.18475 -2.46253e-16)
(0.010755 0.132261 -1.88106e-16)
(0.0045977 0.14565 -8.29658e-17)
(0.00612338 0.103818 -3.33428e-16)
(0.00096661 0.114219 -1.89218e-16)
(0.00327279 0.0812645 -2.59311e-16)
(-0.000932509 0.0892466 -4.99818e-16)
(0.00159136 0.0636818 2.06734e-16)
(-0.00174824 0.0696781 -1.01411e-16)
(0.000658471 0.0503373 -5.91417e-17)
(-0.00191132 0.0546404 4.44531e-16)
(0.000186141 0.0407343 -1.03649e-15)
(-0.00170317 0.0434907 -5.2448e-16)
(-1.837e-05 0.0343144 -9.56823e-16)
(-0.00129886 0.0358467 -1.36893e-15)
(-6.34062e-05 0.0276601 -7.31723e-17)
(-0.000785501 0.0309509 -5.21035e-16)
(-0.000231237 0.0227791 1.80991e-16)
(0.770396 0.914548 2.2247e-16)
(0.876662 0.882963 -3.2828e-17)
(0.547188 0.971341 5.45047e-16)
(0.607568 1.07395 5.52301e-16)
(0.375293 0.857892 4.08305e-16)
(0.399283 0.958345 5.09742e-16)
(0.24986 0.728877 1.60964e-16)
(0.25832 0.812402 2.07398e-16)
(0.160521 0.60771 -4.99783e-17)
(0.156208 0.675747 -3.5534e-17)
(0.0991415 0.499447 -1.37279e-16)
(0.0903558 0.553698 -1.80192e-16)
(0.0578882 0.405947 -8.39772e-17)
(0.0463221 0.448879 -1.15002e-16)
(0.0309913 0.326936 -6.50374e-17)
(0.0192023 0.360755 -5.54816e-17)
(0.0140332 0.261219 -1.28903e-16)
(0.00275938 0.287756 -7.98119e-17)
(0.0038322 0.207259 -1.42373e-16)
(-0.00629488 0.228035 -5.47927e-17)
(-0.00188629 0.16342 -4.85529e-17)
(-0.0106953 0.17963 2.07168e-17)
(-0.00471258 0.128163 -8.51022e-17)
(-0.0121605 0.140756 3.5692e-17)
(-0.00573818 0.100097 -3.49481e-16)
(-0.0119009 0.109812 -1.56353e-16)
(-0.00569594 0.0780176 -3.46671e-16)
(-0.010695 0.0854269 -4.41653e-16)
(-0.00506299 0.0609153 1.28674e-16)
(-0.0090417 0.0664471 -1.61467e-16)
(-0.00413739 0.0480034 -4.69946e-18)
(-0.0072391 0.0519422 3.53016e-16)
(-0.00309454 0.0387497 -8.46967e-16)
(-0.00545236 0.0412354 -2.95168e-16)
(-0.00201981 0.0325794 -9.48833e-16)
(-0.00374622 0.0339195 -9.34016e-16)
(-0.000922956 0.0262218 -2.7396e-16)
(-0.00209518 0.0292386 -5.3457e-16)
(-0.000559954 0.0214893 3.3712e-18)
(0.712026 1.04089 2.81209e-16)
(0.836154 1.03746 6.49753e-17)
(0.465168 1.063 5.18566e-16)
(0.518223 1.18672 5.3073e-16)
(0.288152 0.915107 3.17052e-16)
(0.304435 1.02805 4.36406e-16)
(0.169066 0.761211 1.95187e-17)
(0.167796 0.850344 8.77682e-17)
(0.0900964 0.623543 -1.59856e-16)
(0.0783079 0.694051 -1.99903e-16)
(0.0402862 0.504758 -1.58477e-16)
(0.0252994 0.559393 -2.59556e-16)
(0.00985344 0.405127 -8.74882e-17)
(-0.00632676 0.44756 -1.11302e-16)
(-0.00747126 0.322818 -6.96751e-17)
(-0.0227906 0.355675 -1.18715e-17)
(-0.016388 0.255631 -9.68816e-18)
(-0.0303178 0.281093 8.51223e-17)
(-0.019975 0.201294 9.97506e-17)
(-0.032106 0.221016 1.93362e-16)
(-0.0203451 0.1577 1.00282e-16)
(-0.0306726 0.172954 2.65939e-16)
(-0.0188923 0.123004 -3.35812e-17)
(-0.0274979 0.134767 2.29627e-16)
(-0.0165202 0.0956237 -2.46374e-16)
(-0.0235746 0.104641 5.36299e-17)
(-0.0137917 0.0742384 -2.64006e-16)
(-0.0194876 0.0810771 -2.33582e-16)
(-0.0110357 0.0577716 5.56538e-17)
(-0.0155716 0.0628489 -1.85413e-16)
(-0.0084227 0.0453991 7.20959e-17)
(-0.0119863 0.0489881 1.72359e-16)
(-0.00601574 0.0365652 -3.84265e-16)
(-0.00878031 0.0387983 -6.30785e-17)
(-0.00379576 0.0306881 -5.39168e-16)
(-0.00591278 0.0318571 -3.63512e-16)
(-0.00168505 0.0246652 -2.67288e-16)
(-0.00325105 0.0274186 -3.00477e-16)
(-0.000848286 0.0201272 -1.85309e-16)
(0.633681 1.18414 3.02588e-16)
(0.777445 1.22493 1.38631e-16)
(0.366478 1.1543 4.52317e-16)
(0.40404 1.30105 4.95099e-16)
(0.189244 0.966021 2.16527e-16)
(0.195073 1.09194 3.30319e-16)
(0.0822367 0.785445 -1.22111e-16)
(0.0689395 0.87892 -6.98274e-17)
(0.0173855 0.631989 -2.94432e-16)
(-0.0024991 0.704006 -3.46216e-16)
(-0.0184997 0.504021 -2.13419e-16)
(-0.0399374 0.558236 -3.12108e-16)
(-0.036837 0.399706 -3.89711e-17)
(-0.0576128 0.441109 -6.64415e-17)
(-0.0441274 0.315321 1.34949e-16)
(-0.0628456 0.346905 1.34262e-16)
(-0.0449122 0.247628 2.77486e-16)
(-0.0613181 0.271832 3.5436e-16)
(-0.0420011 0.193628 3.50616e-16)
(-0.0559642 0.212196 4.37532e-16)
(-0.0372346 0.1508 3.87241e-16)
(-0.0489261 0.165049 5.07846e-16)
(-0.0317477 0.117034 3.09636e-16)
(-0.0413787 0.12795 5.71525e-16)
(-0.0262212 0.0905983 6.22958e-17)
(-0.0340561 0.0989183 4.71717e-16)
(-0.0210302 0.070085 -1.59052e-16)
(-0.0273304 0.0763622 7.32048e-17)
(-0.0163489 0.0543742 -7.13795e-17)
(-0.0213648 0.0590109 -1.94755e-16)
(-0.0122194 0.042621 4.23805e-17)
(-0.0161795 0.0458766 2.2387e-17)
(-0.00859572 0.0342581 -4.70742e-17)
(-0.0117097 0.0362563 9.22793e-18)
(-0.00536059 0.0287051 -1.38136e-16)
(-0.00781539 0.0297217 9.5137e-17)
(-0.00235495 0.0230421 -2.21981e-16)
(-0.0042632 0.025544 -3.46047e-17)
(-0.00109912 0.0187311 -2.71938e-16)
(0.527741 1.34631 3.2187e-16)
(0.693242 1.4549 1.92446e-16)
(0.24809 1.24174 3.78414e-16)
(0.257093 1.41193 4.92322e-16)
(0.0787371 1.0081 5.62184e-17)
(0.0713793 1.14642 1.92013e-16)
(-0.0099262 0.800071 -2.83884e-16)
(-0.0371567 0.896324 -2.573e-16)
(-0.0561 0.632554 -3.62409e-16)
(-0.0845882 0.70465 -4.12455e-16)
(-0.0760907 0.497373 -1.70927e-16)
(-0.104082 0.550359 -2.57023e-16)
(-0.0815277 0.390066 9.88631e-17)
(-0.106693 0.429961 1.23001e-17)
(-0.0785582 0.304891 3.43209e-16)
(-0.100458 0.334927 2.53185e-16)
(-0.0713022 0.237623 5.05819e-16)
(-0.0899721 0.260421 4.77301e-16)
(-0.0621324 0.184618 5.86186e-16)
(-0.0777458 0.201961 5.55177e-16)
(-0.0525169 0.143009 6.81846e-16)
(-0.0654187 0.156226 6.80869e-16)
(-0.0432836 0.110483 7.22639e-16)
(-0.0538135 0.120547 8.65292e-16)
(-0.0348666 0.0851974 4.77052e-16)