/*--------------------------------*- C++ -*----------------------------------*\
  =========                 |
  \\      /  F ield         | OpenFOAM: The Open Source CFD Toolbox
   \\    /   O peration     | Website:  https://openfoam.org
    \\  /    A nd           | Version:  13
     \\/     M anipulation  |
\*---------------------------------------------------------------------------*/
FoamFile
{
    format      ascii;
    class       volScalarField;
    location    "0.6";
    object      alphas;
}
// * * * * * * * * * * * * * * * * * * * * * * * * * * * * * * * * * * * * * //

dimensions      [];

internalField   nonuniform List<scalar> 
2268
(
2
2
2
2
2
2
2
2
2
2
2
2
2
2
2
2
2
2
2
2
2
1.99987
1.99943
2
2
2
2
2
2
2
2
2
2
2
2
2
2
2
2
2
2
2
2
2
1.99993
1.99943
2
2
2
2
2
2
2
2
2
2
2
2
2
2
2
2
2
2
2
2
2
1.99997
1.99943
1.87557
1.86698
1.8761
1.90049
1.93178
1.96221
1.98678
1.99935
2
2
2
2
2
2
2
2
2
2
2
2
2
1.99999
1.99991
0.402635
0.44127
0.467937
0.521288
0.607736
0.728986
0.896339
1.1315
1.40787
1.67101
1.90809
2
2
2
2
2
2
2
2
2
2
2
2
1.19475e-09
1.01935e-09
9.7681e-10
9.62576e-10
9.37635e-10
8.96674e-10
8.31946e-10
7.44604e-10
0.0397551
0.193604
0.504885
1.08276
1.67849
2
2
2
2
2
2
2
2
2
2
1.54663e-09
1.3872e-09
1.36122e-09
1.38976e-09
1.38691e-09
1.3484e-09
1.27456e-09
1.14457e-09
9.81965e-10
8.41626e-10
6.2488e-10
0.0170551
0.283332
1.01769
1.79284
2
2
2
2
2
2
2
2
1.80212e-09
1.73683e-09
1.7175e-09
1.88573e-09
1.98119e-09
1.94528e-09
1.89066e-09
1.75049e-09
1.5277e-09
1.25832e-09
9.28956e-10
7.33329e-10
4.94551e-10
0.00856036
0.399888
1.40928
1.98715
2
2
2
2
2
1.99996
1.00001
1.03013
1.1921
1.41697
1.46425
1.56476
1.5587
1.55789
1.8982
2.3934
2.41647
2.43292
2.42656
2.33725
2.33718
2.34754
2.613
2.72856
2.70521
1.00001
1.12908
1.34236
1.25841
1.19749
1.62792
1.9525
2.06201
2.09714
2.07041
1.96105
1.9497
2.26742
2.56473
2.57724
2.35626
1.97357
2.20869
2.67915
1.00051
1.01074
1.01151
1.16823
1.57957
1.75382
1.70981
1.58916
1.43471
1.38551
1.43484
1.63401
1.66977
1.76031
1.80608
1.6967
1.62814
1.75164
2.28115
1.00012
1.00012
1.23095
1.82542
1.90437
1.86803
1.87756
1.86284
1.71989
1.40943
1.29785
1.35568
1.49593
1.56112
1.28518
1.10336
1.15368
1.52432
1.91673
1.00003
1.09915
1.70719
1.82165
1.74985
1.3389
0.880866
0.711364
0.576985
0.310417
0.207287
0.205896
0.53947
1.0414
1.00399
1.00036
1.00896
1.52942
2.21277
1.00011
1.57764
1.51855
1.30261
0.507585
0.0279224
0.0281352
0.016069
0.0201428
0.0207736
0.0122632
0.0075054
0.404601
0.990357
1.00027
1.00032
1.21985
2.462
2.74788
1.6315
1.45794
1.27306
0.175538
0.00596558
0.0114489
0.00714417
0.00232438
0.00278115
0.00468537
0.00494796
0.0882007
0.69915
0.999973
1.00001
1.0175
2.26882
2.87099
2.89177
1.44132
1.34464
0.218968
0.0006117
0.000540782
0.000515684
0.000511243
0.000517855
0.000511689
0.000600038
0.0522888
0.526731
0.977386
0.999949
1.00187
1.56041
2.81906
2.87426
2.89137
1.88961e-09
1.86481e-09
1.85397e-09
2.11953e-09
2.28785e-09
2.26416e-09
2.43507e-09
2.47592e-09
2.30761e-09
1.96181e-09
1.50535e-09
1.15983e-09
1.11991e-09
7.20482e-10
4.48843e-10
0.0505076
0.421214
1.05651
1.55922
1.8919
1.88087
1.87337
1.86846
1.8699e-09
1.85892e-09
1.85351e-09
1.95783e-09
2.14863e-09
2.25665e-09
3.12842e-09
3.93473e-09
4.54205e-09
4.79551e-09
3.75905e-09
2.31988e-09
1.78717e-09
1.31578e-09
9.93893e-10
7.5195e-10
8.46257e-10
0.00218836
0.048493
0.151766
0.28341
0.402438
0.42876
1.8745e-09
1.8699e-09
1.85394e-09
1.96706e-09
2.15829e-09
2.25329e-09
3.1308e-09
3.55777e-09
3.85921e-09
1.67384e-08
1.8008e-08
9.6308e-09
3.476e-09
2.33074e-09
1.91432e-09
1.89114e-09
2.00782e-09
3.90705e-09
2.65388e-07
6.04223e-09
2.53368e-08
2.00097e-06
1.07546e-05
0.915569
0.948353
0.86678
0.722386
0.541529
0.351277
0.17955
0.0568696
0.00321859
1.0948e-08
5.31318e-09
4.79737e-09
4.30163e-09
4.60402e-09
2.95817e-09
2.98361e-09
3.40388e-09
5.45842e-09
6.81948e-09
1.2286e-08
2.17142e-08
6.32438e-08
4.29625e-06
2.89068
2.90324
2.88387
2.82015
2.70809
2.53369
2.27046
1.87767
1.34267
0.796939
0.387807
0.116992
0.0100178
6.39809e-09
4.78746e-09
7.03453e-09
7.30039e-09
9.5263e-09
1.18169e-08
1.31529e-08
1.00833e-05
2.88761e-05
0.0341108
3
3
3
3
3
3
3
3
3
2.93372
2.67142
2.28397
1.75245
1.13147
0.650642
0.438201
0.38801
0.337683
0.392408
0.537515
0.794601
1.19957
1.73084
3
3
3
3
3
3
3
3
3
3
3
3
3
3
3
2.93905
2.82221
2.63442
2.65362
2.75454
2.9161
2.99977
2.99981
3
3
3
3
3
3
3
3
3
3
3
3
3
3
3
2.99998
2.99998
2.99996
2.99994
2.99991
2.9998
2.9998
2.99995
3
3
3
3
3
3
3
3
3
3
3
3
3
3
3
3
3
3
3
3
2.99997
2.99999
3
3
3
3
3
3
3
3
3
3
3
3
3
3
3
3
3
3
3
3
3
3
3
3
3
3
3
3
3
3
3
3
3
3
3
3
3
3
3
3
3
3
3
3
3
3
3
3
3
3
3
3
3
3
3
3
3
3
3
3
3
3
3
3
3
3
3
3
3
3
3
3
3
3
3
3
3
3
3
3
3
3
3
3
3
3
3
3
3
3
3
3
3
3
3
3
3
3
3
3
3
3
3
3
3
3
3
3
3
3
3
3
3
3
3
3
3
3
3
3
3
3
3
3
3
3
3
3
3
3
3
3
3
3
3
3
3
3
3
3
3
3
3
3
3
3
3
3
3
3
3
3
3
3
3
3
3
3
3
3
3
3
3
3
3
3
3
3
3
3
3
3
3
3
3
3
3
3
3
3
3
3
3
3
3
3
3
3
3
3
3
3
3
3
3
3
3
3
3
3
3
3
3
3
3
3
3
3
3
3
3
3
3
3
3
3
3
3
3
3
3
3
3
3
3
3
3
3
3
3
3
3
3
3
3
3
3
3
3
3
3
3
3
3
3
3
3
3
3
3
3
3
3
3
3
3
3
3
3
3
3
3
3
3
3
3
3
3
3
3
3
3
3
3
3
3
3
3
3
3
3
3
3
3
3
3
3
3
3
3
3
3
3
3
3
3
3
3
3
3
3
3
3
3
3
3
3
3
3
3
3
3
3
3
3
3
3
3
3
3
3
3
3
3
3
3
3
3
3
3
3
3
3
3
3
3
3
3
3
3
3
3
3
3
3
3
3
3
3
3
3
3
3
3
3
3
3
3
3
3
3
3
3
3
3
3
3
3
3
3
3
3
3
3
3
3
3
3
3
3
3
3
3
3
3
3
3
3
3
3
3
3
3
3
3
3
3
3
3
3
3
3
3
3
3
3
3
3
3
3
3
3
3
3
3
3
3
3
3
3
3
3
3
3
3
3
3
3
3
3
3
3
3
3
3
3
3
3
3
3
3
3
3
3
3
3
3
3
3
3
3
3
3
3
3
3
3
3
3
3
3
3
3
3
3
3
3
3
3
3
3
3
3
3
3
3
3
3
3
3
3
3
3
3
3
3
3
3
3
3
3
3
3
3
3
3
3
3
3
3
3
3
3
3
3
3
3
3
3
3
3
3
3
3
3
3
3
3
3
3
3
3
3
3
3
3
3
3
3
3
3
3
3
3
3
3
3
3
3
3
3
3
3
3
3
3
3
3
3
3
3
3
3
3
3
3
3
3
3
3
3
3
3
3
3
3
3
3
3
3
3
3
3
3
3
3
3
3
3
3
3
3
3
3
3
3
3
3
3
3
3
3
3
3
3
3
3
3
3
3
3
3
3
3
3
3
3
3
3
3
3
3
3
3
3
3
3
3
3
3
3
3
3
3
3
3
3
3
3
3
3
3
3
3
3
3
3
3
3
3
3
3
3
3
3
3
3
3
3
3
3
3
3
3
3
3
3
3
3
3
3
3
3
3
3
3
3
3
3
3
3
3
3
3
3
3
3
3
3
3
3
3
3
3
3
3
3
3
3
3
3
3
3
3
3
3
3
3
3
3
3
3
3
3
3
3
3
3
3
3
3
3
3
3
3
3
3
3
3
3
3
3
3
3
3
3
3
3
3
3
3
3
3
3
3
3
3
3
3
3
3
3
3
3
3
3
3
3
3
3
3
3
3
3
3
3
3
3
3
3
1.86287
1.836
1.78963
1.7491
0.403973
0.35509
0.266411
0.107805
1.5278e-05
1.62011e-05
1.69748e-05
2.95328e-05
1.38446e-05
1.6893e-05
1.68924e-05
2.22625e-05
0.115698
0.214916
0.290617
0.414526
2.12981
2.34552
2.51574
2.78483
2.99987
2.99993
2.99997
2.99992
2.99998
2.99999
3
2.99998
3
3
3
3
3
3
3
3
3
3
3
3
3
3
3
3
3
3
3
3
3
3
3
3
3
3
3
3
3
3
3
3
3
3
3
3
3
3
3
3
3
3
3
3
3
3
3
3
3
3
3
3
3
3
3
3
3
3
3
3
3
3
3
3
3
3
3
3
3
3
3
3
3
3
3
3
3
3
3
3
3
3
3
3
3
3
3
3
3
3
3
3
3
3
3
3
3
3
3
3
3
3
3
3
3
3
3
3
3
3
3
3
3
3
3
3
3
3
3
3
3
3
3
3
3
3
3
3
3
3
3
3
3
3
3
3
1.30935
0.262403
0.00104402
0.000515089
0.000517567
0.000511224
0.0250732
0.094334
0.15925
0.247639
0.606027
0.981489
1
0.999999
1.30159
1.8234
1.81842
2.42553
2.88751
0.00574393
0.00312186
0.00102816
0.0106244
0.0933792
0.309377
0.613195
0.816534
0.944856
1.00015
1.00006
1.00001
1
1.00002
1.37562
1.33109
1.00005
1.11757
2.32734
0.000636714
0.00554289
0.158944
0.525784
0.890912
1.05509
1.01273
1.00452
1.00124
1
1
1
1
1.00013
1.07023
1
1.00004
1.00323
1.06513
0.238301
0.62373
1.1764
1.39916
1.34253
1.30524
1.19231
1.0568
1.0024
1.00088
1.00001
1
1
1.00004
1
1
1
1.04581
1.10189
2.06536
2.57832
2.29746
2.41924
2.61457
2.68567
2.51311
2.12822
1.45141
1.015
1
1
1
1
1
1
1
1.05642
1.18742
2.99569
2.99791
3
2.99999
2.99999
2.99999
2.99999
2.92937
1.89363
1
1
1
1
1
1
1
1
1.0188
1.15034
3
3
3
2.99999
2.99998
2.99998
3
2.97911
1.81628
1
1
1
1
1
1
1.00001
1.00001
1
1.00294
2.99995
2.99998
3
2.99998
2.99998
2.99999
3
2.99486
1.97118
1
1
1
1
1
1
1
1.00001
1
1
3
3
3
2.99998
2.99998
3
3
3
2.30445
1.00527
1
1
1
1
1
1
1
1
1
3
3
3
3
3
3
3
3
2.56228
1.11859
1
1
1
1
1
1
1
1
1
3
3
3
3
3
3
3
3
2.79076
1.32213
1
1
1.00001
1
1
1
1
1
1
3
3
3
3
3
3
3
3
2.92204
1.55192
1
1
1.00011
1.00027
1.00007
1
1
1
1
3
3
3
3
3
3
3
3
2.95735
1.66383
1
1
1.00015
1.00031
1.0003
1.00003
1
1
1
3
3
3
3
3
3
3
3
2.97447
1.76213
1
1
1.00002
1.00024
1.0003
1.00003
1
1
1
3
3
3
3
3
3
3
3
3
2.19169
1
1
1
1.00001
1.00003
1.00005
1
1
1
3
3
3
3
3
3
3
3
3
2.79221
1.44233
1
1
1
1
1
1.00001
1
1
3
3
3
3
3
3
3
2.99999
3
3
2.55342
1.26709
1
1
1
1
1.00001
1.00003
1
3
3
3
3
3
3
3
2.99999
2.99999
3
3
2.64594
1.431
1.01185
1
1
1
1.0002
1.00165
3
3
3
3
3
3
3
2.99999
2.99998
2.99998
3
3
2.98315
2.15395
1.40262
1.1279
1.05032
1.00244
1.00342
3
3
3
3
3
3
3
3
2.99999
2.99998
3
3
3
3
2.9753
2.57582
2.3259
1.82351
1.03862
3
3
3
3
3
3
3
3
3
2.99999
3
3
3
3
3
3
3
2.87662
2.27504
3
3
3
3
3
3
3
3
3
3
3
3
3
3
3
3
2.99848
2.99856
2.99433
3
3
3
3
3
3
3
3
3
3
3
3
3
3
3
2.99984
2.99827
2.99703
2.23778
3
3
3
3
3
3
3
3
3
3
3
3
3
3
3
3
3
3
1.1811
3
3
3
3
3
3
3
3
3
3
3
3
3
3
3
3
3
3
1.18142
3
3
3
3
3
3
3
3
3
3
3
3
3
3
3
3
3
2.99722
1.18298
3
3
3
3
3
3
3
3
3
3
3
3
3
3
3
3
3
2.85084
1.18025
3
3
3
3
3
3
3
3
3
3
3
3
3
3
3
3
2.9992
2.59363
1.33299
3
3
3
3
3
3
3
3
3
3
3
3
3
3
3
3
2.97583
2.59164
2.73229
3
3
3
3
3
3
3
3
3
3
3
3
3
3
3
3
2.96574
2.97711
3
3
3
3
3
3
3
3
3
3
3
3
3
3
3
3
3
2.98784
3
3
3
3
3
3
3
3
3
3
3
3
3
3
3
3
3
3
3
2.99989
2.99999
3
3
3
3
3
3
3
3
3
3
3
3
3
3
3
3
3
3
3
3
3
3
3
3
3
3
3
3
3
3
3
3
3
3
3
3
2.99999
3
3
3
3
3
3
3
3
3
3
3
3
3
3
3
3
3
2.99999
2.99999
3
3
3
3
3
3
3
3
3
3
3
3
3
3
3
3
3
2.99999
2.99999
3
3
3
3
3
3
3
3
3
3
3
3
3
3
3
3
3
3
3
3
3
3
3
3
3
3
3
3
3
3
3
3
3
3
3
3
3
3
3
3
3
3
3
3
3
3
3
3
3
3
3
3
3
3
3
3
3
3
3
3
3
3
3
3
3
3
3
3
3
3
3
3
3
3
3
3
3
3
3
3
3
3
3
3
3
3
3
3
3
3
3
3
3
3
3
3
3
3
3
3
3
3
3
3
3
3
3
3
3
3
3
3
3
3
3
)
;

boundaryField
{
    leftWall
    {
        type            calculated;
        value           nonuniform List<scalar> 
50
(
2
2
2
1.87557
0.402635
1.19475e-09
1.54663e-09
1.80212e-09
1.88961e-09
1.8699e-09
1.8745e-09
0.915569
2.89068
3
3
3
3
3
3
3
3
3
3
3
3
3
3
3
3
3
3
3
3
3
3
3
3
3
3
3
3
3
3
3
3
3
3
3
3
3
)
;
    }
    rightWall
    {
        type            calculated;
        value           nonuniform List<scalar> 
50
(
2.70521
2.67915
2.28115
1.91673
2.21277
2.74788
2.89177
2.89137
2.88751
2.32734
1.06513
1.10189
1.18742
1.15034
1.00294
1
1
1
1
1
1
1
1
1
1
1.00165
1.00342
1.03862
2.27504
2.99433
2.23778
1.1811
1.18142
1.18298
1.18025
1.33299
2.73229
3
3
2.99999
3
3
3
3
3
3
3
3
3
3
)
;
    }
    lowerWall
    {
        type            calculated;
        value           nonuniform List<scalar> 
62
(
2
2
2
2
2
2
2
2
2
2
2
2
2
2
2
2
2
2
2
2
2
1.99987
1.99943
1.99943
1.99943
1.99943
1.99991
2
2
2
1.99996
1.86287
1.836
1.78963
1.7491
1.00001
1.00001
1.00051
1.00012
1.00003
1.00011
1.6315
1.44132
1.00001
1.03013
1.1921
1.41697
1.46425
1.56476
1.5587
1.55789
1.8982
2.3934
2.41647
2.43292
2.42656
2.33725
2.33718
2.34754
2.613
2.72856
2.70521
)
;
    }
    atmosphere
    {
        type            calculated;
        value           nonuniform List<scalar> 
46
(
3
3
3
3
3
3
3
3
3
3
3
3
3
3
3
3
3
3
3
3
3
3
3
3
3
3
3
3
3
3
3
3
3
3
3
3
3
3
3
3
3
3
3
3
3
3
)
;
    }
    defaultFaces
    {
        type            empty;
    }
}


// ************************************************************************* //
