/*--------------------------------*- C++ -*----------------------------------*\
  =========                 |
  \\      /  F ield         | OpenFOAM: The Open Source CFD Toolbox
   \\    /   O peration     | Website:  https://openfoam.org
    \\  /    A nd           | Version:  13
     \\/     M anipulation  |
\*---------------------------------------------------------------------------*/
FoamFile
{
    format      ascii;
    class       volScalarField;
    location    "0.6";
    object      alpha.water;
}
// * * * * * * * * * * * * * * * * * * * * * * * * * * * * * * * * * * * * * //

dimensions      [];

internalField   nonuniform List<scalar> 
2268
(
1.0254e-12
9.21709e-12
2.24157e-11
2.51475e-11
2.59821e-11
2.80063e-11
2.69892e-11
2.39974e-11
2.23748e-11
2.15739e-11
2.19351e-11
2.36963e-11
2.65284e-11
3.05797e-11
3.49878e-11
3.90408e-11
4.31134e-11
4.70085e-11
5.19886e-11
7.1205e-11
5.28851e-10
2.23795e-09
2.59658e-09
8.55849e-14
2.51342e-11
6.91909e-11
1.00936e-10
1.39453e-10
2.20068e-10
2.28313e-10
2.45667e-10
2.23872e-10
1.87218e-10
1.53768e-10
1.23701e-10
1.00404e-10
1.04226e-10
1.18254e-10
1.36376e-10
1.48647e-10
1.53439e-10
1.59534e-10
2.42528e-10
8.3387e-10
2.44132e-09
2.6861e-09
4.38489e-11
4.97374e-11
5.41145e-11
5.97125e-11
8.59515e-11
1.24477e-10
1.29537e-10
2.25906e-10
1.01479e-09
1.2051e-09
1.20477e-09
1.05336e-09
6.71722e-10
2.91671e-10
2.2917e-10
2.49566e-10
2.7783e-10
2.81818e-10
2.86744e-10
4.1865e-10
1.12292e-09
2.62089e-09
2.74556e-09
0.062216
0.0665089
0.0619499
0.0497525
0.0341087
0.0188934
0.00661135
0.000326411
1.17511e-13
4.57167e-12
8.3381e-12
9.98807e-12
3.43578e-09
3.71457e-09
1.41447e-09
4.24867e-10
3.64868e-10
3.99595e-10
4.64315e-10
6.436e-10
1.14839e-09
2.24609e-09
2.19977e-09
0.798682
0.779365
0.766031
0.739356
0.696132
0.635507
0.551831
0.434251
0.296064
0.164493
0.0459566
2.5968e-10
5.47343e-10
3.33768e-10
3.05245e-10
1.84415e-10
3.53019e-10
5.31719e-10
5.85433e-10
6.57859e-10
9.46047e-10
2.82821e-09
2.82266e-09
1
1
1
1
1
1
1
1
0.980122
0.903198
0.747558
0.458619
0.160757
6.98364e-10
1.3206e-10
1.30399e-10
1.82748e-10
3.90794e-10
4.75742e-10
6.09356e-10
3.30491e-09
1.35458e-08
8.53756e-09
1
1
1
1
1
1
1
1
1
1
1
0.991472
0.858334
0.491155
0.103581
2.90273e-10
1.81216e-10
1.81313e-10
2.76135e-10
1.61982e-09
9.72257e-09
2.80916e-08
1.57719e-08
1
1
1
1
1
1
1
1
1
1
1
1
1
0.99572
0.800056
0.295361
0.00642408
1.55384e-10
1.56063e-10
1.55618e-10
1.56063e-10
6.5222e-08
1.61078e-08
1.52046e-10
1.52046e-10
7.13211e-10
8.46889e-07
1.77117e-06
1.76211e-06
0.000126629
0.000328865
0.000219514
0.000116437
0.000110664
8.45604e-05
4.49227e-05
1.36581e-05
4.93425e-06
7.5594e-07
2.53354e-08
4.75979e-10
6.08624e-10
1.38043e-09
6.74971e-09
7.10202e-09
3.39419e-11
6.45802e-14
5.87906e-05
0.000697304
0.00138211
0.00213634
0.00180952
0.00259588
0.00229847
0.000769197
8.23396e-05
2.63658e-05
8.04599e-06
1.98086e-08
4.91774e-10
4.62582e-10
9.60699e-10
2.0506e-09
1.8142e-10
1.46117e-12
2.05994e-14
0.00690379
0.0127948
0.010767
0.01837
0.0395217
0.0529768
0.0493574
0.0327377
0.00687582
-4.94311e-09
1.10613e-06
1.1122e-06
7.04574e-07
8.64032e-08
3.74996e-10
8.50036e-11
-1.8139e-13
1.15068e-12
0.0305109
0.0671883
0.0654938
0.0734431
0.136804
0.286558
0.348724
0.320413
0.182827
0.00716782
3.83614e-08
6.21302e-06
8.9757e-06
4.27285e-06
6.99407e-07
2.48802e-10
9.03312e-11
0.00103688
0.0721461
0.120323
0.324774
0.560991
0.655531
0.723625
0.849409
0.895105
0.895707
0.554962
0.010812
-1.21657e-09
2.18741e-06
8.18056e-06
6.36704e-06
5.83063e-07
-2.81807e-11
0.0258363
0.198956
0.347437
0.733376
0.972078
0.971865
0.989501
0.991737
0.991371
0.994269
0.994272
0.5954
0.0100294
3.83582e-08
1.84799e-06
3.60927e-06
2.31815e-06
1.03375e-07
0.101198
0.266872
0.363432
0.911365
0.994033
0.988551
0.992856
0.997676
0.997909
0.996705
0.996433
0.912489
0.30101
3.26198e-05
1.19925e-05
2.54999e-06
1.41668e-07
5.55063e-07
4.74591e-08
0.279326
0.327572
0.890314
0.999491
0.999489
0.999488
0.999489
0.999482
0.999489
0.999436
0.947713
0.473318
0.022657
5.26739e-05
2.10745e-05
4.64291e-06
5.1304e-08
1.44013e-07
2.23058e-08
1
1
1
1
1
1
1
1
1
1
1
1
1
1
1
0.974746
0.789393
0.471745
0.220391
0.0540434
0.0595615
0.0633146
0.065748
1
1
1
1
1
1
1
1
1
1
1
1
1
1
1
1
1
0.998906
0.975753
0.924113
0.858293
0.798781
0.785617
1
1
1
1
1
1
1
1
1
1
1
1
1
1
1
1
1
1
1
1
1
0.999998
0.999989
0.69481
0.683882
0.711073
0.759205
0.81949
0.882908
0.94015
0.981043
0.998927
1
1
1
1
1
1
1
1
1
1
1
1
1
0.999996
0.0364403
0.0322538
0.0387085
0.059951
0.0973034
0.155436
0.243181
0.37411
0.552443
0.734354
0.870731
0.961003
0.996661
1
1
1
1
1
1
1
0.99999
0.999971
0.988618
1.51348e-18
-1.21374e-19
-1.52264e-19
4.52952e-21
-8.56733e-14
-4.72585e-16
-9.20375e-16
-1.18777e-15
8.56887e-18
0.0220945
0.109528
0.238677
0.415849
0.622844
0.783119
0.853933
0.870661
0.887437
0.869193
0.820808
0.735067
0.600067
0.422986
7.56024e-10
5.91236e-10
3.07522e-10
5.75263e-12
-1.49208e-13
-2.0488e-13
-1.77356e-13
-1.56006e-13
-1.23814e-13
-2.88695e-14
-1.71954e-18
-3.9445e-18
-3.09767e-30
1.02937e-24
1.20321e-16
0.0203169
0.0592524
0.121845
0.115428
0.0817458
0.0278901
3.55876e-11
-2.44609e-10
5.7183e-12
1.11912e-11
4.46877e-12
-2.94793e-14
-1.98331e-13
-2.45358e-13
-2.50036e-13
-2.44035e-13
-2.2064e-13
-1.08515e-13
2.50759e-13
1.22326e-12
3.40914e-12
6.3959e-12
2.44059e-12
-1.77646e-28
1.06588e-27
-7.10585e-28
-6.06198e-12
-7.23823e-12
-4.18187e-09
-8.69254e-09
-2.89165e-09
-5.37187e-17
2.82022e-14
6.93574e-15
-9.46839e-14
-1.8189e-13
-2.19837e-13
-2.26455e-13
-2.25145e-13
-2.05993e-13
-8.89043e-14
3.70545e-13
1.79858e-12
5.96301e-12
2.12475e-11
5.66085e-11
1.19445e-10
2.17203e-10
3.52624e-10
4.4897e-10
4.77536e-10
4.70999e-10
3.54737e-10
3.03772e-10
-4.70203e-17
-5.06195e-16
-4.82875e-15
-7.97557e-14
-1.37702e-13
-1.54761e-13
-1.53794e-13
-1.49814e-13
-1.25552e-13
1.0851e-14
4.98785e-13
1.87423e-12
6.91782e-12
2.21457e-11
5.95167e-11
1.05973e-10
1.80786e-10
3.4046e-10
4.84321e-10
5.05623e-10
5.06534e-10
4.98647e-10
4.24558e-10
-3.66033e-17
-4.40108e-16
-4.21878e-15
-5.50675e-14
-8.37544e-14
-8.48842e-14
-7.94259e-14
-7.2903e-14
-4.22284e-14
1.07753e-13
6.10476e-13
2.16819e-12
7.28998e-12
2.23955e-11
5.27348e-11
9.0283e-11
1.24392e-10
1.6745e-10
2.25101e-10
2.24505e-10
2.20808e-10
1.96825e-10
1.72074e-10
-2.52592e-17
-3.22032e-16
-3.00694e-15
-3.08582e-14
-4.05027e-14
-3.60671e-14
-3.11158e-14
-2.4122e-14
8.77337e-15
1.56356e-13
6.3784e-13
2.2308e-12
7.42992e-12
1.79995e-11
3.62399e-11
5.9537e-11
8.74852e-11
1.12108e-10
1.07026e-10
9.36406e-11
7.63749e-11
6.78029e-11
5.01574e-11
-1.52458e-17
-1.9785e-16
-1.74893e-15
-1.39614e-14
-1.54714e-14
-1.17561e-14
-8.9036e-15
-2.8373e-15
2.61721e-14
1.48474e-13
5.35039e-13
1.90288e-12
5.61119e-12
1.27944e-11
2.267e-11
3.22665e-11
4.05946e-11
4.51698e-11
4.64144e-11
4.16003e-11
3.54475e-11
2.25903e-11
1.86203e-11
-7.86931e-18
-1.00621e-16
-8.21192e-16
-5.05184e-15
-4.61579e-15
-2.86508e-15
-1.52747e-15
2.84644e-15
2.33745e-14
1.0307e-13
3.59799e-13
1.26995e-12
3.47399e-12
6.92916e-12
1.10666e-11
1.40779e-11
1.49656e-11
1.48957e-11
1.4031e-11
1.25285e-11
9.33851e-12
7.00502e-12
5.52062e-12
-3.36509e-18
-4.12458e-17
-3.04047e-16
-1.43449e-15
-1.05238e-15
-4.82697e-16
9.93655e-17
2.64001e-15
1.39195e-14
5.4559e-14
2.02773e-13
6.14485e-13
1.55505e-12
2.90701e-12
4.0727e-12
4.73782e-12
4.81774e-12
4.38484e-12
3.63157e-12
2.80497e-12
2.02203e-12
1.45424e-12
8.49159e-13
-1.14009e-18
-1.3055e-17
-8.53316e-17
-3.09643e-16
-1.76379e-16
-3.82913e-17
1.91682e-16
1.32754e-15
6.14436e-15
2.37771e-14
7.74058e-14
2.17051e-13
4.97662e-13
8.24519e-13
1.04297e-12
1.07875e-12
9.59684e-13
7.47848e-13
5.45211e-13
3.68056e-13
2.15486e-13
9.40449e-14
3.21354e-14
-2.86181e-19
-2.98401e-18
-1.70409e-17
-4.82495e-17
-2.00936e-17
6.28919e-18
7.88544e-17
4.3666e-16
1.91814e-15
6.91801e-15
2.21859e-14
5.4843e-14
1.07436e-13
1.44512e-13
1.54113e-13
1.36188e-13
1.05618e-13
6.94959e-14
3.47623e-14
1.43569e-14
3.87748e-15
5.88183e-16
3.36212e-16
-4.73179e-20
-4.40112e-19
-2.16846e-18
-4.91591e-18
-1.24332e-18
2.63769e-18
1.82271e-17
9.14697e-17
3.99579e-16
1.45481e-15
4.03691e-15
9.30205e-15
1.50222e-14
1.61479e-14
1.30983e-14
8.59828e-15
4.08551e-15
9.95483e-16
7.57006e-17
2.33633e-17
3.05176e-17
3.11147e-17
3.00697e-17
-3.88713e-21
-3.18131e-20
-1.34574e-19
-2.47316e-19
-8.38111e-21
3.37088e-19
2.00862e-18
8.9266e-18
4.24189e-17
1.26289e-16
3.61566e-16
7.16351e-16
8.29205e-16
6.63183e-16
2.34385e-16
1.89754e-17
1.93994e-19
1.73453e-22
1.96824e-24
4.09941e-25
2.83628e-26
2.24565e-26
1.02882e-19
3.21981e-33
5.66031e-32
5.25773e-31
5.41379e-33
9.06035e-30
3.85079e-31
1.23095e-32
3.57898e-34
1.00036e-35
1.05484e-36
7.28504e-36
6.79727e-35
6.11332e-34
1.8002e-33
3.0423e-32
4.0673e-31
3.41916e-30
1.71384e-29
1.38078e-28
9.99997e-28
7.31635e-27
4.70179e-26
1.05653e-22
3.73406e-43
8.09527e-42
7.81787e-41
4.36468e-40
1.02685e-39
8.61254e-41
1.01865e-39
1.18086e-38
1.25711e-37
1.27499e-36
1.22329e-35
1.23636e-34
1.20784e-33
1.16479e-32
1.10236e-31
9.75896e-31
8.40973e-30
9.20532e-29
7.4823e-28
5.19444e-27
3.36314e-26
1.77759e-25
9.76384e-25
1.06657e-47
6.57642e-46
2.1765e-44
5.07953e-43
9.28523e-42
1.4371e-40
2.11634e-39
2.64801e-38
3.08961e-37
3.47787e-36
3.92955e-35
4.48835e-34
4.81754e-33
4.85185e-32
4.78074e-31
4.36929e-30
3.74161e-29
2.94068e-28
2.14306e-27
1.35197e-26
7.51085e-26
4.15497e-25
1.84828e-24
1.0449e-47
7.01912e-46
2.51162e-44
6.30112e-43
1.25451e-41
2.136e-40
3.2366e-39
4.47132e-38
5.78368e-37
7.28583e-36
8.97005e-35
1.04199e-33
1.11086e-32
1.11959e-31
1.06298e-30
9.5283e-30
7.81766e-29
6.01804e-28
4.1081e-27
2.44705e-26
1.34756e-25
6.26347e-25
3.74547e-24
8.17744e-48
5.97313e-46
2.31054e-44
6.26602e-43
1.34592e-41
2.45783e-40
3.98446e-39
5.91845e-38
8.25225e-37
1.10503e-35
1.40348e-34
1.64283e-33
1.74374e-32
1.7521e-31
1.61988e-30
1.4244e-29
1.15788e-28
8.78295e-28
5.86861e-27
3.40016e-26
1.82195e-25
1.08717e-24
4.86156e-24
4.93794e-48
3.93861e-46
1.6621e-44
4.92188e-43
1.15667e-41
2.30398e-40
4.03292e-39
6.34924e-38
9.2303e-37
1.26822e-35
1.63685e-34
1.93358e-33
2.06132e-32
2.05806e-31
1.89633e-30
1.65699e-29
1.35676e-28
9.83285e-28
6.57318e-27
3.92511e-26
2.22908e-25
1.04114e-24
7.0877e-24
2.20998e-48
1.85846e-46
9.11065e-45
2.95363e-43
7.57133e-42
1.63054e-40
3.05475e-39
5.10953e-38
7.79847e-37
1.09408e-35
1.40917e-34
1.66846e-33
1.79239e-32
1.79496e-31
1.67521e-30
1.49807e-29
1.26383e-28
9.46678e-28
6.29593e-27
3.71655e-26
2.13939e-25
1.31869e-24
6.32753e-24
7.2189e-49
7.05794e-47
3.59641e-45
1.27443e-43
3.52841e-42
8.09844e-41
1.60094e-39
2.8207e-38
4.53709e-37
6.63856e-36
8.70922e-35
1.03021e-33
1.11341e-32
1.12589e-31
1.08664e-30
1.01085e-29
8.83786e-29
6.7799e-28
4.58994e-27
2.86709e-26
1.72405e-25
9.612e-25
6.84905e-24
1.507e-49
1.71573e-47
9.64162e-46
3.73603e-44
1.12194e-42
2.77715e-41
5.90018e-40
1.10908e-38
1.87121e-37
2.82384e-36
3.81215e-35
4.6716e-34
5.27119e-33
5.60223e-32
5.70904e-31
5.59821e-30
5.13696e-29
4.18525e-28
2.97436e-27
1.85791e-26
1.18635e-25
7.32778e-25
3.97971e-24
2.17858e-50
2.64701e-48
1.64408e-46
6.98182e-45
2.28315e-43
6.13544e-42
1.4118e-40
2.85112e-39
5.12164e-38
8.27678e-37
1.21135e-35
1.59784e-34
1.91225e-33
2.14137e-32
2.27744e-31
2.27402e-30
2.0232e-29
1.552e-28
1.10362e-27
7.94123e-27
5.2012e-26
3.97368e-25
2.69711e-24
1.91616e-51
2.63239e-49
1.83952e-47
8.78992e-46
3.23568e-44
9.75301e-43
2.49302e-41
5.51825e-40
1.07122e-38
1.84296e-37
2.8483e-36
4.02603e-35
5.308e-34
6.61781e-33
7.77253e-32
8.39683e-31
8.09293e-30
6.82992e-29
5.15528e-28
3.82567e-27
3.0654e-26
2.23218e-25
1.49497e-24
1.16177e-52
1.84111e-50
1.46721e-48
7.92586e-47
3.27305e-45
1.09809e-43
3.09501e-42
7.47588e-41
1.56988e-39
2.91021e-38
4.86755e-37
7.55548e-36
1.11213e-34
1.54661e-33
1.97108e-32
2.21794e-31
2.16768e-30
1.89933e-29
1.6035e-28
1.32825e-27
9.44508e-27
8.09279e-26
5.61737e-25
4.60441e-54
8.51034e-52
7.75532e-50
4.72124e-48
2.17508e-46
8.10702e-45
2.54172e-43
6.8538e-42
1.61121e-40
3.34496e-39
6.24126e-38
1.07012e-36
1.72199e-35
2.62435e-34
3.74797e-33
4.88708e-32
5.63898e-31
5.61967e-30
4.8641e-29
3.90579e-28
3.14891e-27
2.29072e-26
1.67069e-25
1.06103e-55
2.32319e-53
2.47854e-51
1.7554e-49
9.33986e-48
3.97879e-46
1.40749e-44
4.22867e-43
1.09676e-41
2.49624e-40
5.09168e-39
9.53821e-38
1.67087e-36
2.73923e-35
4.15075e-34
5.76776e-33
7.40103e-32
8.84449e-31
9.71391e-30
9.54772e-29
8.41813e-28
6.81779e-27
4.88671e-26
1.56184e-57
4.50779e-55
5.60819e-53
4.59339e-51
2.8107e-49
1.37242e-47
5.56149e-46
1.91936e-44
5.75084e-43
1.52193e-41
3.62333e-40
7.91012e-39
1.60688e-37
3.0483e-36
5.35514e-35
8.58802e-34
1.2402e-32
1.59738e-31
1.82393e-30
1.84249e-29
1.65009e-28
1.36018e-27
1.10996e-26
1.59578e-59
5.11062e-57
7.70098e-55
7.58508e-53
5.53427e-51
3.18579e-49
1.5019e-47
5.95138e-46
2.02584e-44
6.05005e-43
1.61806e-41
3.94155e-40
8.83222e-39
1.82629e-37
3.48806e-36
6.16834e-35
9.88108e-34
1.35155e-32
2.14061e-31
2.58431e-30
2.57882e-29
2.76017e-28
2.40497e-27
9.61493e-62
3.60423e-59
6.34072e-57
7.37529e-55
6.42643e-53
4.45583e-51
2.5431e-49
1.22188e-47
5.03471e-46
1.81156e-44
5.79654e-43
1.67763e-41
4.44997e-40
1.08911e-38
2.45424e-37
5.04559e-36
9.51437e-35
1.60514e-33
2.42434e-32
3.26674e-31
3.89304e-30
4.02467e-29
3.80679e-28
3.03753e-64
1.24204e-61
2.47397e-59
3.35313e-57
3.45846e-55
2.85961e-53
1.95357e-51
1.12555e-49
5.55682e-48
2.38671e-46
9.0848e-45
3.13736e-43
1.00508e-41
3.0088e-40
8.29035e-39
2.04979e-37
4.46439e-36
8.57547e-35
1.47937e-33
2.27842e-32
2.98571e-31
4.59537e-30
5.60817e-29
6.21216e-67
2.6858e-64
5.75345e-62
9.07337e-60
1.14529e-57
1.19306e-55
1.04398e-53
7.78318e-52
5.0046e-50
2.80531e-48
1.38519e-46
6.09383e-45
2.41282e-43
8.64694e-42
2.84699e-40
8.40697e-39
2.22074e-37
5.21429e-36
1.08656e-34
2.01117e-33
3.28329e-32
4.66397e-31
5.9516e-30
5.99061e-70
1.68015e-67
3.52957e-65
6.437e-63
1.04171e-60
1.47848e-58
1.81773e-56
1.91991e-54
1.73243e-52
1.3331e-50
8.78265e-49
5.00666e-47
2.50833e-45
1.12229e-43
4.52843e-42
1.6436e-40
5.31223e-39
1.53209e-37
4.00053e-36
8.88416e-35
1.52027e-33
3.58377e-32
6.30005e-31
1.62493e-73
2.95593e-71
5.57104e-69
1.13145e-66
2.34003e-64
4.5352e-62
7.80059e-60
1.16366e-57
1.49608e-55
1.65844e-53
1.59193e-51
1.33441e-49
9.88771e-48
6.55958e-46
3.92674e-44
2.1163e-42
1.01309e-40
4.22887e-39
1.52676e-37
4.80535e-36
1.30364e-34
3.01301e-33
6.05761e-32
1.02454e-78
1.1648e-76
1.87774e-74
4.48302e-72
1.36286e-69
4.36549e-67
1.30405e-64
3.45346e-62
8.01966e-60
1.63837e-57
2.96097e-55
4.75635e-53
6.81471e-51
8.71452e-49
9.89039e-47
9.82365e-45
8.3897e-43
6.07638e-41
3.72908e-39
1.93362e-37
7.87789e-36
2.05316e-34
6.82266e-33
1.61751e-88
1.18551e-86
2.11662e-84
8.46397e-82
5.69657e-79
4.80516e-76
4.09588e-73
3.21536e-70
2.28613e-67
1.49199e-64
9.15622e-62
5.48759e-59
3.38925e-56
2.10259e-53
1.25409e-50
6.56084e-48
2.69595e-45
7.62072e-43
1.27722e-40
1.20817e-38
7.30482e-37
2.98703e-35
8.59467e-34
0.068541
0.0819424
0.105148
0.124269
0.798011
0.822453
0.866793
0.944932
0.999985
0.999984
0.999985
0.999986
0.999986
0.999983
0.999983
0.999986
0.961433
0.928361
0.903113
0.861807
0.290039
0.21816
0.161416
0.0717141
-1.3203e-09
-1.93037e-09
-1.56923e-09
-7.48504e-10
-4.21286e-09
-5.34212e-09
-4.24478e-09
-1.65785e-09
2.64896e-10
1.75323e-10
2.02126e-10
1.23958e-09
3.697e-10
2.99677e-10
1.32401e-10
3.07732e-10
1.52568e-10
1.14431e-10
6.82227e-11
2.64663e-11
4.06069e-11
3.39139e-11
2.84605e-11
2.48601e-11
1.62294e-11
1.26945e-11
1.22084e-11
1.03351e-11
4.47392e-12
3.17081e-12
2.28806e-12
1.69631e-12
4.93448e-13
2.96692e-13
2.22556e-13
1.99469e-13
1.13027e-14
8.27037e-15
6.36613e-15
1.53393e-14
3.76638e-16
2.59573e-16
3.51805e-16
8.12768e-16
2.75765e-17
1.44641e-17
1.3564e-17
3.22606e-17
4.71281e-19
2.6545e-19
4.2887e-19
1.06686e-18
6.63185e-21
3.55774e-21
1.23138e-20
3.07413e-20
6.6958e-23
5.53535e-23
2.65933e-22
8.7951e-23
8.94559e-24
1.95887e-23
4.53728e-23
8.38203e-23
1.52771e-23
3.23945e-23
7.81934e-23
1.4313e-22
2.36123e-23
5.27622e-23
1.17306e-22
2.30266e-22
3.04858e-23
6.55427e-23
1.71989e-22
3.15472e-22
3.4607e-23
8.0479e-23
1.80285e-22
3.68104e-22
2.79125e-23
6.58925e-23
1.8446e-22
3.35459e-22
2.34215e-23
5.91318e-23
1.39195e-22
3.094e-22
1.3833e-23
3.82109e-23
1.0306e-22
2.0471e-22
8.82714e-24
2.49747e-23
6.15722e-23
1.43709e-22
3.32643e-24
9.65183e-24
2.96203e-23
6.96647e-23
1.17651e-24
3.85691e-24
1.20588e-23
3.32696e-23
3.31233e-25
1.18843e-24
3.6372e-24
1.16394e-23
8.97866e-26
2.92305e-25
1.22352e-24
3.96176e-24
2.08125e-26
7.47819e-26
2.72905e-25
1.06255e-24
3.76047e-27
1.51512e-26
6.64026e-26
2.53454e-25
5.62491e-28
2.65591e-27
1.11719e-26
5.5629e-26
7.40619e-29
4.21129e-28
2.10321e-27
9.83558e-27
9.33637e-30
5.97878e-29
3.43562e-28
1.78752e-27
1.05214e-30
8.03e-30
5.06095e-29
2.93953e-28
1.34869e-31
1.10024e-30
7.86969e-30
4.9624e-29
1.78127e-32
1.53844e-31
1.20424e-30
8.16188e-30
0.342416
0.866352
0.998957
0.999485
0.999483
0.999489
0.974927
0.906285
0.84165
0.752765
0.393976
0.0185293
2.13489e-07
2.38374e-06
2.33169e-06
6.61718e-07
2.51593e-09
1.11031e-10
7.92853e-09
0.994419
0.996906
0.998972
0.989376
0.906621
0.690685
0.389382
0.187286
0.0572778
2.88314e-08
2.91422e-08
2.91172e-08
2.34613e-07
2.26149e-07
1.32322e-07
6.0211e-08
7.24929e-10
1.17834e-10
1.87753e-09
0.999788
0.994457
0.841056
0.518348
0.224335
0.00235375
5.12065e-14
1.06396e-16
1.42938e-17
2.88232e-08
1.75975e-07
2.22921e-07
9.88768e-08
2.60244e-08
4.24653e-09
2.20591e-10
2.55974e-10
1.03274e-10
2.03983e-10
0.920566
0.740394
0.296741
-1.38222e-19
9.30395e-17
-6.77549e-24
1.5278e-09
2.286e-08
4.59416e-08
3.53225e-07
2.00041e-07
9.90013e-09
3.41184e-09
2.82457e-09
5.61681e-10
2.13588e-10
2.10272e-10
9.48796e-11
3.68727e-11
0.311548
0.0662137
-3.81731e-19
9.30542e-17
2.3908e-07
1.41304e-06
1.76239e-06
2.13725e-07
2.29272e-07
3.8291e-07
2.49299e-07
1.74272e-09
1.80695e-09
2.67427e-09
1.15949e-09
2.92379e-10
2.24518e-10
9.52095e-11
3.50017e-11
1.54338e-19
-1.70966e-11
3.79461e-09
1.23169e-06
3.80646e-06
4.81766e-06
3.24291e-06
1.6797e-11
1.64559e-11
1.84029e-08
3.46939e-08
1.75145e-09
1.99382e-09
2.73904e-09
1.30945e-09
3.80868e-10
2.31825e-10
1.06885e-10
3.62251e-11
4.64296e-10
2.95107e-08
4.85886e-07
3.74509e-06
6.30281e-06
5.78789e-06
5.11315e-07
1.64717e-11
3.83477e-10
2.53759e-09
3.71831e-09
1.90918e-09
2.34945e-09
2.71455e-09
1.41209e-09
5.50588e-10
2.55949e-10
1.48911e-10
4.96667e-11
1.31902e-08
5.80525e-08
1.32584e-06
6.30855e-06
6.28593e-06
4.38814e-06
2.00473e-11
1.99948e-11
1.76509e-10
8.6082e-10
1.40002e-09
1.72459e-09
2.19144e-09
2.49142e-09
1.6983e-09
7.83053e-10
3.53813e-10
1.8664e-10
6.02715e-11
3.30772e-08
1.15373e-07
9.48396e-07
5.14362e-06
5.05319e-06
1.29952e-06
1.65508e-07
2.01884e-11
9.29719e-11
5.69688e-10
1.02376e-09
1.44225e-09
1.87895e-09
2.09432e-09
1.69175e-09
8.84193e-10
4.70728e-10
2.07674e-10
6.82373e-11
2.3186e-08
1.14445e-08
7.00633e-08
3.94565e-07
4.33709e-07
4.86382e-08
1.91276e-07
2.95144e-08
1.54595e-11
2.95169e-10
6.48195e-10
8.43503e-10
1.15405e-09
1.40366e-09
1.41267e-09
8.51122e-10
4.66253e-10
2.18128e-10
6.9146e-11
9.98472e-12
1.46534e-10
1.54075e-09
6.46765e-09
4.83191e-10
1.30114e-08
4.35091e-08
2.8838e-08
1.41232e-11
1.1517e-10
3.08054e-10
3.8714e-10
5.15216e-10
7.03497e-10
7.89749e-10
6.97127e-10
4.4282e-10
2.11593e-10
6.80769e-11
1.32295e-11
1.20053e-11
3.32693e-11
6.082e-11
1.72673e-10
1.01895e-08
2.33922e-08
1.76163e-08
1.41877e-11
3.12308e-11
1.16188e-10
1.7239e-10
2.26375e-10
3.29404e-10
4.19137e-10
4.28876e-10
3.20007e-10
1.6037e-10
6.37066e-11
6.44344e-12
3.59816e-12
1.26202e-11
9.13014e-11
7.86934e-10
1.29681e-08
2.10789e-08
1.31237e-08
1.36753e-11
1.5439e-11
4.43126e-11
8.279e-11
1.25243e-10
1.66453e-10
2.16987e-10
2.4974e-10
2.02113e-10
1.0129e-10
5.75285e-11
1.36242e-12
1.33798e-12
1.47557e-11
1.61156e-10
1.12513e-09
1.15063e-08
1.77188e-08
1.01692e-08
1.33623e-11
1.32337e-11
2.06792e-11
3.84085e-11
6.08024e-11
8.27093e-11
1.00146e-10
1.1484e-10
1.20495e-10
7.42788e-11
4.78267e-11
1.99837e-13
3.41584e-13
6.22653e-12
1.00459e-10
1.03715e-09
7.24513e-09
1.55037e-08
9.55518e-09
2.1987e-10
9.94399e-12
1.36476e-11
1.77931e-11
3.07663e-11
4.13989e-11
5.20337e-11
5.87685e-11
6.12843e-11
5.29554e-11
3.96253e-11
2.20627e-14
5.7404e-14
1.15103e-12
2.64708e-11
3.87053e-10
2.41e-09
1.11958e-08
7.77361e-09
2.47946e-10
9.84091e-12
9.73123e-12
1.09804e-11
1.69947e-11
2.18289e-11
2.68704e-11
3.06312e-11
3.15695e-11
3.08254e-11
2.61045e-11
1.89239e-15
7.45127e-15
2.03265e-13
5.55728e-12
7.25287e-11
6.54875e-10
1.69069e-09
3.22668e-09
3.80937e-10
3.37354e-11
7.17149e-12
5.29045e-12
9.4573e-12
1.16956e-11
1.25316e-11
1.31083e-11
1.33651e-11
1.22746e-11
1.13298e-11
1.27354e-16
6.61837e-16
2.02297e-14
7.64045e-13
1.60939e-11
1.20323e-10
2.90462e-11
9.88226e-10
3.23117e-10
7.62103e-11
9.97158e-12
2.94441e-12
2.99511e-12
4.91856e-12
5.39511e-12
5.34992e-12
4.90453e-12
4.14317e-12
3.53153e-12
6.8113e-18
5.28483e-17
1.80298e-15
9.60888e-14
2.61574e-12
2.11775e-11
1.98678e-11
1.66375e-10
2.51728e-10
1.29816e-10
2.45633e-11
2.58932e-12
8.72702e-13
1.18641e-12
1.82361e-12
1.97367e-12
1.85003e-12
1.55188e-12
1.35826e-12
2.95803e-19
3.75357e-18
1.40316e-16
1.11064e-14
4.36993e-13
4.70236e-12
1.09672e-11
3.7019e-11
1.94524e-10
1.35939e-10
5.16831e-11
8.42846e-12
7.27634e-13
1.79786e-13
1.98158e-13
3.72991e-13
4.57915e-13
4.98498e-13
4.72877e-13
4.37792e-22
1.46263e-20
9.32761e-18
1.15463e-15
7.26009e-14
1.07855e-12
5.21795e-12
1.61765e-11
8.28753e-11
9.44367e-11
4.72243e-11
1.49832e-11
3.47435e-12
1.99833e-13
2.35242e-14
2.2651e-14
5.02566e-14
1.08049e-13
1.11651e-13
1.49989e-22
4.99213e-22
2.69414e-20
1.06914e-16
1.05865e-14
2.56376e-13
2.19666e-12
6.75899e-12
3.40691e-11
4.30257e-11
2.88719e-11
1.37552e-11
6.50319e-12
1.12948e-12
2.86655e-14
1.05193e-14
1.10161e-14
1.98306e-14
1.83736e-14
2.55481e-22
7.27528e-22
2.63277e-21
5.75918e-19
1.20263e-15
5.69214e-14
7.6704e-13
2.46492e-12
1.37844e-11
2.14774e-11
1.64055e-11
1.03974e-11
6.06203e-12
2.28961e-12
1.08406e-13
1.13094e-14
6.39768e-15
2.97033e-15
2.0597e-15
3.97529e-22
1.05332e-21
2.99046e-21
1.4133e-20
7.01239e-18
6.57043e-15
2.01423e-13
8.62075e-13
5.54929e-12
1.06222e-11
9.1233e-12
7.09225e-12
4.95952e-12
2.31608e-12
2.57819e-13
2.36787e-14
6.11863e-15
1.27836e-15
2.74455e-16
5.53486e-22
1.41495e-21
3.42976e-21
1.05503e-20
4.7552e-20
9.77839e-17
1.78083e-14
3.08639e-13
2.29454e-12
4.95194e-12
4.75159e-12
4.7492e-12
3.77155e-12
1.94782e-12
4.00616e-13
3.84606e-14
5.33505e-15
6.95482e-16
5.1412e-17
6.49498e-22
1.68947e-21
3.85093e-21
9.0271e-21
2.68385e-20
1.39212e-19
1.86129e-16
1.40842e-13
1.11374e-12
2.45644e-12
2.55725e-12
3.09264e-12
2.80689e-12
1.33559e-12
3.17741e-13
3.2133e-14
2.47371e-15
3.26459e-16
1.31217e-17
6.75856e-22
1.85356e-21
4.18762e-21
9.05578e-21
1.95728e-20
5.66402e-20
3.7799e-19
1.73881e-14
5.85609e-13
1.24106e-12
1.39223e-12
2.03692e-12
1.97655e-12
9.48339e-13
1.85029e-13
1.65715e-14
5.41875e-16
1.1172e-16
8.13701e-18
5.93578e-22
1.81427e-21
4.27152e-21
9.19081e-21
1.82246e-20
3.71968e-20
9.06764e-20
2.73973e-16
1.29639e-13
4.67516e-13
7.86939e-13
1.27248e-12
1.28618e-12
6.81907e-13
9.85437e-14
9.62227e-15
1.62571e-16
4.8556e-17
5.13816e-18
4.66088e-22
1.5116e-21
3.96663e-21
8.93821e-21
1.80035e-20
3.36803e-20
6.24283e-20
3.21686e-19
5.98654e-15
3.38936e-14
2.60639e-13
8.77031e-13
8.59188e-13
4.17651e-13
6.7425e-14
5.88598e-15
7.81797e-17
1.2722e-17
2.20931e-18
2.94648e-22
1.03484e-21
3.21459e-21
7.9099e-21
1.70923e-20
3.27573e-20
5.92917e-20
9.90279e-20
2.56087e-17
2.65006e-16
4.16719e-14
4.46318e-13
5.28508e-13
2.75648e-13
4.77298e-14
3.80139e-15
1.54309e-16
5.34149e-18
1.05307e-18
1.74211e-22
6.67591e-22
2.14783e-21
5.90028e-21
1.40829e-20
2.99124e-20
5.69117e-20
9.70423e-20
1.62968e-19
3.89683e-19
1.61289e-15
1.24099e-13
2.22535e-13
1.53978e-13
3.72118e-14
6.05431e-15
5.51246e-16
1.31404e-17
9.10688e-19
8.21624e-23
3.57556e-22
1.25731e-21
3.85093e-21
1.02122e-20
2.35264e-20
4.86857e-20
9.15517e-20
1.52674e-19
2.41392e-19
7.70872e-18
9.74201e-15
8.75589e-14
6.04608e-14
2.43324e-14
5.82034e-15
6.35942e-16
5.00608e-17
1.78266e-18
3.48755e-23
1.59729e-22
6.32229e-22
2.15511e-21
6.34497e-21
1.6521e-20
3.69687e-20
7.649e-20
1.42626e-19
2.33892e-19
3.86763e-19
1.18124e-16
1.04755e-14
1.67387e-14
9.30019e-15
2.08343e-15
1.44684e-16
1.7453e-17
9.63524e-19
1.19117e-23
6.08547e-23
2.65991e-22
1.01588e-21
3.32582e-21
9.54497e-21
2.40609e-20
5.51755e-20
1.16851e-19
2.1348e-19
3.56569e-19
7.55984e-19
3.21386e-16
2.12938e-15
1.59009e-15
3.2333e-16
7.77611e-17
7.31446e-18
5.88894e-19
3.63185e-24
2.0387e-23
9.99327e-23
4.23751e-22
1.54542e-21
4.91972e-21
1.38358e-20
3.52751e-20
8.25227e-20
1.65565e-19
3.12848e-19
5.32308e-19
3.33015e-18
1.89727e-16
1.37687e-16
4.14477e-17
1.38362e-17
3.79685e-18
5.03338e-19
9.27996e-25
6.062e-24
3.32764e-23
1.59446e-22
6.42793e-22
2.21601e-21
6.74272e-21
1.86861e-20
4.84117e-20
1.05462e-19
2.19212e-19
4.42552e-19
1.16874e-18
6.47449e-17
1.83695e-17
7.4617e-18
3.37422e-18
8.87137e-19
1.08787e-19
2.2089e-25
1.55309e-24
9.55281e-24
5.09764e-23
2.25274e-22
8.46243e-22
2.86828e-21
8.71014e-21
2.43951e-20
5.98962e-20
1.20794e-19
2.63991e-19
7.24408e-19
1.5203e-17
4.4527e-18
1.39721e-18
3.56066e-19
1.34987e-19
6.92666e-20
4.40109e-26
3.61405e-25
2.51049e-24
1.45433e-23
7.45613e-23
3.03138e-22
1.09285e-21
3.48661e-21
1.00594e-20
2.85443e-20
6.09501e-20
1.25218e-19
3.09279e-19
2.1478e-18
7.54925e-19
1.77259e-19
9.24688e-20
8.39924e-20
3.29365e-20
8.46581e-27
7.19762e-26
5.29275e-25
3.36969e-24
1.82838e-23
8.55387e-23
3.37965e-22
1.14093e-21
3.59444e-21
9.95319e-21
2.44257e-20
4.96365e-20
9.5564e-20
2.3379e-19
1.1373e-19
5.055e-20
4.96384e-20
4.33529e-20
1.7761e-20
1.53696e-27
1.43282e-26
1.13979e-25
7.89565e-25
4.62422e-24
2.19368e-23
9.5269e-23
3.55064e-22
1.12325e-21
3.33976e-21
8.67633e-21
1.86933e-20
3.35393e-20
5.93873e-20
3.48401e-20
2.07717e-20
2.60687e-20
2.07143e-20
6.82111e-21
2.80817e-28
2.83378e-27
2.39548e-26
1.72145e-25
1.04748e-24
5.30876e-24
2.44528e-23
9.33653e-23
3.09952e-22
9.35517e-22
2.44901e-21
5.32636e-21
1.00618e-20
1.52584e-20
9.34493e-21
8.34568e-21
1.05846e-20
7.69407e-21
2.1286e-21
4.9319e-29
5.22233e-28
4.54797e-27
3.62501e-26
2.27484e-25
1.20714e-24
5.52569e-24
2.17367e-23
7.48377e-23
2.26918e-22
5.88404e-22
1.28396e-21
2.32097e-21
3.27785e-21
2.7612e-21
3.13596e-21
3.40854e-21
2.27211e-21
4.81449e-22
)
;

boundaryField
{
    leftWall
    {
        type            alphaContactAngle;
        contactAngleProperties 
        {
            mercury         
            {
                theta0          90;
            }
            air             
            {
                theta0          90;
            }
            oil             
            {
                theta0          90;
            }
        }
        value           nonuniform List<scalar> 
50
(
1.0254e-12
8.55849e-14
4.38489e-11
0.062216
0.798682
1
1
1
1
1
1
0.69481
0.0364403
1.51348e-18
7.56024e-10
5.7183e-12
-5.37187e-17
-4.70203e-17
-3.66033e-17
-2.52592e-17
-1.52458e-17
-7.86931e-18
-3.36509e-18
-1.14009e-18
-2.86181e-19
-4.73179e-20
-3.88713e-21
3.21981e-33
3.73406e-43
1.06657e-47
1.0449e-47
8.17744e-48
4.93794e-48
2.20998e-48
7.2189e-49
1.507e-49
2.17858e-50
1.91616e-51
1.16177e-52
4.60441e-54
1.06103e-55
1.56184e-57
1.59578e-59
9.61493e-62
3.03753e-64
6.21216e-67
5.99061e-70
1.62493e-73
1.02454e-78
1.61751e-88
)
;
    }
    rightWall
    {
        type            alphaContactAngle;
        contactAngleProperties 
        {
            mercury         
            {
                theta0          90;
            }
            air             
            {
                theta0          90;
            }
            oil             
            {
                theta0          90;
            }
        }
        value           nonuniform List<scalar> 
50
(
6.08624e-10
4.62582e-10
8.64032e-08
6.99407e-07
5.83063e-07
1.03375e-07
4.74591e-08
2.23058e-08
7.92853e-09
1.87753e-09
2.03983e-10
3.68727e-11
3.50017e-11
3.62251e-11
4.96667e-11
6.02715e-11
6.82373e-11
6.9146e-11
6.80769e-11
6.37066e-11
5.75285e-11
4.78267e-11
3.96253e-11
2.61045e-11
1.13298e-11
3.53153e-12
1.35826e-12
4.72877e-13
1.11651e-13
1.83736e-14
2.0597e-15
2.74455e-16
5.1412e-17
1.31217e-17
8.13701e-18
5.13816e-18
2.20931e-18
1.05307e-18
9.10688e-19
1.78266e-18
9.63524e-19
5.88894e-19
5.03338e-19
1.08787e-19
6.92666e-20
3.29365e-20
1.7761e-20
6.82111e-21
2.1286e-21
4.81449e-22
)
;
    }
    lowerWall
    {
        type            alphaContactAngle;
        contactAngleProperties 
        {
            mercury         
            {
                theta0          90;
            }
            air             
            {
                theta0          90;
            }
            oil             
            {
                theta0          90;
            }
        }
        value           nonuniform List<scalar> 
62
(
1.0254e-12
9.21709e-12
2.24157e-11
2.51475e-11
2.59821e-11
2.80063e-11
2.69892e-11
2.39974e-11
2.23748e-11
2.15739e-11
2.19351e-11
2.36963e-11
2.65284e-11
3.05797e-11
3.49878e-11
3.90408e-11
4.31134e-11
4.70085e-11
5.19886e-11
7.1205e-11
5.28851e-10
2.23795e-09
2.59658e-09
2.59658e-09
2.6861e-09
2.74556e-09
2.19977e-09
2.82266e-09
8.53756e-09
1.57719e-08
1.61078e-08
0.068541
0.0819424
0.105148
0.124269
1.52046e-10
1.38043e-09
9.60699e-10
3.74996e-10
2.48802e-10
-2.81807e-11
0.101198
0.279326
1.52046e-10
1.52046e-10
7.13211e-10
8.46889e-07
1.77117e-06
1.76211e-06
0.000126629
0.000328865
0.000219514
0.000116437
0.000110664
8.45604e-05
4.49227e-05
1.36581e-05
4.93425e-06
7.5594e-07
2.53354e-08
4.75979e-10
6.08624e-10
)
;
    }
    atmosphere
    {
        type            inletOutlet;
        inletValue      uniform 0;
        value           nonuniform List<scalar> 
46
(
0
0
0
0
0
0
0
0
0
0
0
0
0
0
0
0
0
0
1.27722e-40
1.20817e-38
7.30482e-37
2.98703e-35
8.59467e-34
1.78127e-32
1.53844e-31
1.20424e-30
8.16188e-30
4.9319e-29
5.22233e-28
4.54797e-27
3.62501e-26
2.27484e-25
1.20714e-24
5.52569e-24
2.17367e-23
7.48377e-23
2.26918e-22
5.88404e-22
1.28396e-21
2.32097e-21
3.27785e-21
2.7612e-21
0
0
0
0
)
;
    }
    defaultFaces
    {
        type            empty;
    }
}


// ************************************************************************* //
