/*--------------------------------*- C++ -*----------------------------------*\
  =========                 |
  \\      /  F ield         | OpenFOAM: The Open Source CFD Toolbox
   \\    /   O peration     | Website:  https://openfoam.org
    \\  /    A nd           | Version:  13
     \\/     M anipulation  |
\*---------------------------------------------------------------------------*/
FoamFile
{
    format      ascii;
    class       volScalarField;
    location    "0.6";
    object      alpha.air;
}
// * * * * * * * * * * * * * * * * * * * * * * * * * * * * * * * * * * * * * //

dimensions      [];

internalField   nonuniform List<scalar> 
2268
(
1.55438e-16
3.38652e-15
5.41831e-15
4.8296e-15
2.78658e-15
2.10728e-15
1.30548e-15
6.65717e-16
2.975e-16
1.25985e-16
5.46292e-17
1.70205e-17
5.23419e-18
1.38287e-18
7.07266e-19
6.89882e-19
8.74099e-19
1.24378e-18
1.63892e-18
1.84277e-18
1.46198e-18
3.76163e-19
1.21834e-19
5.41961e-18
3.27624e-14
4.6174e-14
4.75546e-14
4.14944e-14
3.63164e-14
2.59491e-14
1.67611e-14
8.21777e-15
3.29897e-15
1.48802e-15
7.03574e-16
3.07494e-16
6.15951e-17
8.60679e-18
7.20692e-18
9.01716e-18
1.25883e-17
1.53292e-17
1.54056e-17
9.0516e-18
1.7924e-18
5.03685e-19
1.99983e-13
8.83222e-13
9.73517e-13
8.43789e-13
6.55935e-13
4.28569e-13
3.28602e-13
2.3235e-13
1.224e-13
4.36463e-14
2.1021e-14
9.1225e-15
4.31989e-15
1.46693e-15
3.54808e-16
6.9015e-17
5.94933e-17
6.65574e-17
7.58271e-17
7.51941e-17
4.10197e-17
7.31938e-18
3.8048e-18
3.1447e-11
3.24475e-11
2.94081e-11
2.46686e-11
1.94672e-11
1.42892e-11
8.94186e-12
4.3166e-12
1.73838e-12
7.99904e-13
2.99958e-13
1.0647e-13
3.34877e-14
1.32283e-14
4.33254e-15
1.04992e-15
3.10187e-16
3.16438e-16
3.88769e-16
3.3502e-16
1.39251e-16
7.6167e-17
3.62477e-17
2.40407e-10
2.01177e-10
1.84e-10
1.72492e-10
1.5824e-10
1.39539e-10
1.13861e-10
7.85971e-11
4.68991e-11
2.62229e-11
1.28134e-11
4.86819e-12
1.6762e-12
5.51814e-13
1.45248e-13
2.95009e-14
4.74657e-15
1.5138e-15
1.54715e-15
1.64395e-15
7.63551e-16
4.31738e-16
2.52127e-16
3.9825e-10
3.39783e-10
3.25603e-10
3.20859e-10
3.12545e-10
2.98891e-10
2.77316e-10
2.48202e-10
2.04669e-10
1.46481e-10
9.38292e-11
5.15815e-11
2.15359e-11
6.94585e-12
1.62173e-12
4.7227e-13
9.06014e-14
1.99732e-14
5.87788e-15
4.76331e-15
3.76408e-15
2.41432e-15
9.56432e-16
5.15545e-10
4.62401e-10
4.5374e-10
4.63254e-10
4.62304e-10
4.49468e-10
4.24854e-10
3.81526e-10
3.27496e-10
2.66329e-10
2.08291e-10
1.37775e-10
8.11341e-11
3.68681e-11
1.17612e-11
3.71302e-12
7.72434e-13
1.43912e-13
3.53933e-14
4.28724e-14
1.37735e-14
6.51337e-15
4.46797e-14
6.00708e-10
5.78942e-10
5.725e-10
6.28577e-10
6.60395e-10
6.48428e-10
6.30222e-10
5.83499e-10
5.01826e-10
4.07781e-10
3.09652e-10
2.44443e-10
1.6485e-10
9.66641e-11
4.18463e-11
1.35041e-11
3.85053e-12
1.11396e-12
2.42307e-13
1.00967e-13
2.48062e-15
2.48905e-15
2.87303e-11
6.91755e-06
0.015062
0.0960471
0.208483
0.231959
0.271085
0.271459
0.271586
0.445961
0.694294
0.694432
0.692122
0.687664
0.646239
0.646189
0.635143
0.658226
0.741795
0.761574
6.83064e-06
0.0645238
0.170932
0.106213
0.0450676
0.170337
0.330069
0.446402
0.51926
0.521204
0.416234
0.321091
0.433845
0.61382
0.625821
0.449858
0.177016
0.292833
0.735242
0.000253583
0.00537223
0.00414024
0.000317046
0.000996656
0.000355673
0.00126135
0.000582085
0.00316613
0.0102595
0.00188136
4.95648e-06
0.00330257
0.0357267
0.0606897
0.0396947
0.0021148
0.0634419
0.481993
5.98894e-05
4.46625e-05
0.00362451
0.00582407
0.00546143
0.00605367
0.0122367
0.0133761
0.00782205
0.000748409
4.83445e-06
4.74869e-06
-7.18611e-10
-7.50499e-21
-2.21504e-20
-2.23962e-20
9.59141e-21
1.07034e-18
0.194486
1.39525e-05
0.000482542
0.00437442
0.00420523
0.000417097
2.05216e-10
0.0138236
0.0266006
0.0267291
0.0124342
0.00032181
0.000450401
0.000223453
3.1671e-16
-4.09669e-11
-4.30201e-11
0
0.115167
0.339815
5.69742e-05
0.00238197
0.000387535
3.9324e-22
-1.90001e-08
8.52258e-10
-8.29454e-11
0.00278519
0.00594005
0.00607228
0.00326635
0.000888833
5.29283e-07
5.07054e-07
4.22733e-08
6.63505e-11
0.101161
0.705611
0.760615
0.00298958
0.00227429
0.00032496
2.64562e-22
-2.98063e-10
3.09534e-08
2.76678e-09
-6.7835e-25
-3.60667e-07
5.84223e-10
3.86164e-06
7.2853e-05
4.93975e-05
3.93278e-07
7.4248e-10
0.0082536
0.625539
0.904368
0.904393
0.000189541
5.43562e-08
4.69291e-08
6.86224e-08
2.67564e-08
3.48949e-08
1.7034e-08
3.52052e-10
3.30977e-07
1.79662e-05
1.06436e-06
1.39712e-07
4.31037e-07
1.66531e-07
3.71105e-15
0.276059
0.904368
0.904393
0.904368
6.29869e-10
6.21602e-10
6.1799e-10
7.06509e-10
7.62616e-10
7.54718e-10
8.1169e-10
8.25306e-10
7.69199e-10
6.53914e-10
5.01745e-10
3.81479e-10
2.83898e-10
2.04086e-10
1.22767e-10
6.42547e-11
3.17181e-11
1.65158e-11
7.6436e-12
5.48498e-12
4.62595e-12
7.08091e-11
5.99876e-10
6.23299e-10
6.19639e-10
6.17837e-10
6.5261e-10
7.16212e-10
7.52218e-10
1.04281e-09
1.31158e-09
1.51402e-09
1.5985e-09
1.25301e-09
7.7247e-10
5.68154e-10
4.02966e-10
3.06371e-10
2.47807e-10
1.78097e-10
1.21737e-10
1.09555e-10
1.07346e-10
1.15887e-10
1.18963e-09
1.09026e-09
6.24832e-10
6.23299e-10
6.17981e-10
6.55687e-10
7.19431e-10
7.51097e-10
1.0436e-09
1.18592e-09
1.2864e-09
5.57947e-09
6.00268e-09
3.21018e-09
1.15477e-09
7.71796e-10
6.3108e-10
5.30497e-10
5.23664e-10
3.97746e-10
3.4597e-10
4.26821e-10
4.6971e-10
2.21267e-09
1.61853e-09
0.30519
0.316118
0.288927
0.240795
0.18051
0.117092
0.0598498
0.0189565
0.00107286
3.64934e-09
1.77103e-09
1.59763e-09
1.34884e-09
1.48226e-09
9.60075e-10
9.76439e-10
1.12102e-09
1.3935e-09
1.87908e-09
2.02447e-09
8.4986e-10
9.97295e-11
-2.39667e-11
0.96356
0.967746
0.961292
0.940049
0.902697
0.844564
0.756819
0.62589
0.447557
0.265646
0.129269
0.0389973
0.00333928
1.47468e-09
1.29614e-09
2.34423e-09
2.4328e-09
3.1719e-09
3.93801e-09
3.22602e-09
-1.39494e-18
3.09131e-11
0.0113645
1
1
1
1
1
1
1
1
1
0.977905
0.890472
0.761323
0.584151
0.377156
0.216881
0.146067
0.129335
0.11256
0.1308
0.179161
0.264834
0.399821
0.576913
1
1
1
1
1
1
1
1
1
1
1
1
1
1
1
0.979681
0.940733
0.878134
0.884524
0.918141
0.971997
0.999887
0.999903
1
1
1
1
1
1
1
1
1
1
1
1
1
1
0.999998
0.999992
0.999988
0.999979
0.99997
0.999954
0.999899
0.9999
0.999973
1
1
1
1
1
1
1
1
1
1
1
1
1
1
1
1
1
1
1
1
0.999985
0.999995
1
1
1
1
1
1
1
1
1
1
1
1
1
1
1
1
1
1
1
1
1
1
1
1
1
1
1
1
1
1
1
1
1
1
1
1
1
1
1
1
1
1
1
1
1
1
1
1
1
1
1
1
1
1
1
1
1
1
1
1
1
1
1
1
1
1
1
1
1
1
1
1
1
1
1
1
1
1
1
1
1
1
1
1
1
1
1
1
1
1
1
1
1
1
1
1
1
1
1
1
1
1
1
1
1
1
1
1
1
1
1
1
1
1
1
1
1
1
1
1
1
1
1
1
1
1
1
1
1
1
1
1
1
1
1
1
1
1
1
1
1
1
1
1
1
1
1
1
1
1
1
1
1
1
1
1
1
1
1
1
1
1
1
1
1
1
1
1
1
1
1
1
1
1
1
1
1
1
1
1
1
1
1
1
1
1
1
1
1
1
1
1
1
1
1
1
1
1
1
1
1
1
1
1
1
1
1
1
1
1
1
1
1
1
1
1
1
1
1
1
1
1
1
1
1
1
1
1
1
1
1
1
1
1
1
1
1
1
1
1
1
1
1
1
1
1
1
1
1
1
1
1
1
1
1
1
1
1
1
1
1
1
1
1
1
1
1
1
1
1
1
1
1
1
1
1
1
1
1
1
1
1
1
1
1
1
1
1
1
1
1
1
1
1
1
1
1
1
1
1
1
1
1
1
1
1
1
1
1
1
1
1
1
1
1
1
1
1
1
1
1
1
1
1
1
1
1
1
1
1
1
1
1
1
1
1
1
1
1
1
1
1
1
1
1
1
1
1
1
1
1
1
1
1
1
1
1
1
1
1
1
1
1
1
1
1
1
1
1
1
1
1
1
1
1
1
1
1
1
1
1
1
1
1
1
1
1
1
1
1
1
1
1
1
1
1
1
1
1
1
1
1
1
1
1
1
1
1
1
1
1
1
1
1
1
1
1
1
1
1
1
1
1
1
1
1
1
1
1
1
1
1
1
1
1
1
1
1
1
1
1
1
1
1
1
1
1
1
1
1
1
1
1
1
1
1
1
1
1
1
1
1
1
1
1
1
1
1
1
1
1
1
1
1
1
1
1
1
1
1
1
1
1
1
1
1
1
1
1
1
1
1
1
1
1
1
1
1
1
1
1
1
1
1
1
1
1
1
1
1
1
1
1
1
1
1
1
1
1
1
1
1
1
1
1
1
1
1
1
1
1
1
1
1
1
1
1
1
1
1
1
1
1
1
1
1
1
1
1
1
1
1
1
1
1
1
1
1
1
1
1
1
1
1
1
1
1
1
1
1
1
1
1
1
1
1
1
1
1
1
1
1
1
1
1
1
1
1
1
1
1
1
1
1
1
1
1
1
1
1
1
1
1
1
1
1
1
1
1
1
1
1
1
1
1
1
1
1
1
1
1
1
1
1
1
1
1
1
1
1
1
1
1
1
1
1
1
1
1
1
1
1
1
1
1
1
1
1
1
1
1
1
1
1
1
1
1
1
1
1
1
1
1
1
1
1
1
1
1
1
1
1
1
1
1
1
1
1
1
1
1
1
1
1
1
1
1
1
1
1
1
1
1
1
1
1
1
1
1
1
1
1
1
1
1
1
1
1
1
1
1
1
1
1
1
1
1
1
1
1
1
1
1
1
1
1
1
1
1
1
1
1
1
1
1
1
1
1
1
1
1
1
1
1
1
1
1
1
1
1
1
1
1
1
1
1
1
1
1
1
3.69248e-09
7.74671e-09
4.62007e-09
1.22646e-06
1.18334e-08
3.39597e-08
4.22888e-09
4.57664e-06
2.21081e-09
-1.0248e-10
8.14213e-07
7.74562e-06
2.20294e-19
-6.10158e-15
-2.17803e-08
4.05461e-06
0.0385655
0.0716386
0.0968652
0.138167
0.709926
0.781838
0.838577
0.928272
0.999933
0.999967
0.999983
0.999958
0.999989
0.999997
1
0.999989
1
1
1
1
1
1
1
1
1
1
1
1
1
1
1
1
1
1
1
1
1
1
1
1
1
1
1
1
1
1
1
1
1
1
1
1
1
1
1
1
1
1
1
1
1
1
1
1
1
1
1
1
1
1
1
1
1
1
1
1
1
1
1
1
1
1
1
1
1
1
1
1
1
1
1
1
1
1
1
1
1
1
1
1
1
1
1
1
1
1
1
1
1
1
1
1
1
1
1
1
1
1
1
1
1
1
1
1
1
1
1
1
1
1
1
1
1
1
1
1
1
1
1
1
1
1
1
1
1
1
1
1
1
1
1
1
1.90713e-06
2.30915e-06
3.30748e-07
1.04708e-07
1.63823e-08
1.20925e-09
7.56486e-10
0.00030938
0.000450056
0.000201684
1.59088e-06
1.32711e-07
2.49594e-08
-7.31396e-09
0.149753
0.409778
0.408963
0.710994
0.904393
8.16103e-05
1.41637e-05
5.10574e-08
-5.65863e-10
-3.33405e-12
3.08981e-05
0.00128861
0.00190995
0.00106681
7.48325e-05
3.05216e-05
3.88537e-06
1.46077e-07
6.20351e-09
0.187588
0.165332
2.5357e-05
0.058787
0.661445
0.000212237
-7.94574e-08
-6.65973e-13
0.0220657
0.0576233
0.0287229
0.00636421
0.00225897
0.000617729
-8.67062e-09
1.15837e-10
1.61911e-10
1.62608e-10
6.34914e-05
0.0351003
8.33718e-09
1.95911e-05
0.00161506
0.032567
0.0794336
0.182062
0.236572
0.199581
0.171267
0.152621
0.0961546
0.0284023
0.0012018
0.000441671
4.65616e-06
1.62624e-10
4.39768e-08
2.02358e-05
1.32612e-08
8.08298e-10
9.28532e-11
0.0229039
0.0509445
0.688452
0.822265
0.648728
0.70962
0.807287
0.842834
0.756556
0.564112
0.225703
0.00750057
6.96434e-12
2.24511e-10
6.94394e-10
3.85896e-10
1.16353e-08
7.16494e-11
3.00402e-17
0.0282083
0.0937075
0.997843
0.998956
1
0.999996
0.999996
0.999995
0.999997
0.964684
0.446816
1.71381e-08
6.95229e-12
6.92884e-12
6.95301e-12
6.99048e-12
1.04783e-07
1.3035e-06
1.93323e-07
0.0093998
0.0751712
0.999999
1
1
0.999996
0.999994
0.999994
0.999999
0.989555
0.408139
1.06193e-08
3.10204e-10
7.13996e-08
2.09911e-07
9.65183e-08
7.62806e-08
3.31612e-06
5.28721e-06
2.03542e-06
0.00147219
0.999974
0.999988
0.999999
0.999994
0.999994
0.999996
1
0.99743
0.485592
2.99334e-08
6.95996e-12
4.05603e-07
7.18787e-07
6.9718e-07
6.19606e-08
1.01841e-06
3.59238e-06
1.084e-08
1.08178e-08
1
1
0.999999
0.999995
0.999995
0.999999
1
1
0.652227
0.00263676
5.82703e-09
2.70296e-07
7.24022e-07
5.42403e-07
2.72423e-08
2.61991e-08
3.99676e-08
2.2889e-08
1.22979e-08
1
1
1
1
1
1
1
1
0.781141
0.0592929
1.60488e-08
1.85925e-07
2.09002e-07
6.97088e-08
4.32137e-08
1.01915e-07
1.0667e-07
1.86845e-08
1.73004e-08
1
1
1
1
1
1
1
1
0.89538
0.161066
2.36796e-08
1.86515e-06
4.54146e-06
4.93178e-08
4.8286e-08
1.21873e-07
1.69918e-07
1.93925e-08
1.57477e-08
1
1
1
1
1
1
1
1
0.961022
0.275962
3.57794e-08
6.82257e-08
5.46802e-05
0.000137216
3.31879e-05
6.46714e-08
6.55317e-08
2.70585e-08
9.7629e-09
1
1
1
1
1
1
1
1
0.978673
0.331913
7.12192e-08
9.56837e-08
7.59438e-05
0.000152743
0.000150224
1.53481e-05
7.3098e-09
1.79982e-08
8.66815e-09
1
1
1
1
1
1
1
1
0.987235
0.381067
9.85819e-08
9.91791e-08
1.07715e-05
0.000120193
0.000152018
1.64772e-05
5.01893e-09
6.92526e-09
5.61747e-09
1
1
1
1
1
1
1
1
1
0.595844
1.03061e-07
9.64216e-08
9.74914e-08
2.61035e-06
1.71011e-05
2.30708e-05
1.97004e-06
4.06153e-09
3.81245e-09
1
1
1
1
1
1
0.999999
1
1
0.896105
0.221165
9.78617e-08
9.34405e-08
9.39473e-08
9.25381e-08
1.89339e-06
3.00444e-06
2.12845e-08
5.75975e-09
1
1
1
1
1
1
0.999999
0.999995
0.999998
0.999998
0.776711
0.133543
9.50681e-08
9.25171e-08
1.05318e-07
3.64377e-07
2.69068e-06
1.39121e-05
6.55542e-09
1
1
1
1
1
1
0.999999
0.999993
0.999993
0.999998
0.999999
0.822971
0.215499
0.00592627
1.21083e-07
1.43819e-07
1.89772e-07
0.000100057
0.000826867
1
1
1
1
1
1
1
0.999997
0.999992
0.999992
0.999999
1
0.991577
0.576973
0.201312
0.0639476
0.0251595
0.00121783
0.00170769
1
1
1
1
1
1
1
1
0.999993
0.999992
0.999998
1
1
1
0.987652
0.787912
0.66295
0.411754
0.0193116
1
1
1
1
1
1
1
1
0.999999
0.999996
0.999999
1
1
1
1
1
1
0.938309
0.637518
1
1
1
1
1
1
1
1
1
1
1
1
1
1
1
1
0.999242
0.999279
0.997165
1
1
1
1
1
1
1
1
1
1
1
1
1
1
1
0.999919
0.999135
0.998515
0.618891
1
1
1
1
1
1
1
1
1
1
1
1
1
1
1
1
1
1
0.0905489
1
1
1
1
1
1
1
1
1
1
1
1
1
1
1
1
1
1
0.090708
1
1
1
1
1
1
1
1
1
1
1
1
1
1
1
1
1
0.99861
0.0914882
1
1
1
1
1
1
1
1
1
1
1
1
1
1
1
1
1
0.925421
0.0901249
1
1
1
1
1
1
1
1
1
1
1
1
1
1
1
1
0.9996
0.796814
0.166497
1
1
1
1
1
1
1
1
1
1
1
1
1
1
1
1
0.987913
0.79582
0.866147
1
1
1
1
1
1
1
1
1
1
1
1
1
1
1
1
0.982868
0.988556
1
1
1
1
1
1
1
1
1
1
1
1
1
1
1
1
1
0.99392
1
0.999999
1
1
1
1
1
1
1
1
1
1
1
1
1
1
1
1
1
0.999946
0.999997
1
1
1
1
1
1
1
1
1
1
1
1
1
1
1
1
1
0.999998
0.999998
1
1
1
1
1
1
1
1
1
1
1
1
1
1
1
1
0.999998
0.999995
0.999998
1
1
1
1
1
1
1
1
1
1
1
1
1
1
1
1
0.999995
0.999995
0.999999
1
1
1
1
1
1
1
1
1
1
1
1
1
1
1
1
0.999996
0.999996
1
1
1
1
1
1
1
1
1
1
1
1
1
1
1
1
1
0.999999
1
1
1
1
1
1
1
1
1
1
1
1
1
1
1
1
1
1
1
1
1
1
1
1
1
1
1
1
1
1
1
1
1
1
1
1
1
1
1
1
1
1
1
1
1
1
1
1
1
1
1
1
1
1
1
1
1
1
1
1
1
1
1
1
1
1
1
1
1
1
1
1
1
1
1
1
1
1
1
1
1
1
1
1
1
1
1
1
1
1
1
1
1
1
1
1
1
)
;

boundaryField
{
    leftWall
    {
        type            alphaContactAngle;
        contactAngleProperties 
        {
            mercury         
            {
                theta0          90;
            }
            water           
            {
                theta0          90;
            }
            oil             
            {
                theta0          90;
            }
        }
        value           nonuniform List<scalar> 
50
(
1.55438e-16
5.41961e-18
1.99983e-13
3.1447e-11
2.40407e-10
3.9825e-10
5.15545e-10
6.00708e-10
6.29869e-10
6.23299e-10
6.24832e-10
0.30519
0.96356
1
1
1
1
1
1
1
1
1
1
1
1
1
1
1
1
1
1
1
1
1
1
1
1
1
1
1
1
1
1
1
1
1
1
1
1
1
)
;
    }
    rightWall
    {
        type            alphaContactAngle;
        contactAngleProperties 
        {
            mercury         
            {
                theta0          90;
            }
            water           
            {
                theta0          90;
            }
            oil             
            {
                theta0          90;
            }
        }
        value           nonuniform List<scalar> 
50
(
0.761574
0.735242
0.481993
0.194486
0.339815
0.760615
0.904393
0.904368
0.904393
0.661445
0.032567
0.0509445
0.0937075
0.0751712
0.00147219
1.08178e-08
1.22979e-08
1.73004e-08
1.57477e-08
9.7629e-09
8.66815e-09
5.61747e-09
3.81245e-09
5.75975e-09
6.55542e-09
0.000826867
0.00170769
0.0193116
0.637518
0.997165
0.618891
0.0905489
0.090708
0.0914882
0.0901249
0.166497
0.866147
1
0.999999
0.999997
0.999998
0.999998
0.999999
1
1
1
1
1
1
1
)
;
    }
    lowerWall
    {
        type            alphaContactAngle;
        contactAngleProperties 
        {
            mercury         
            {
                theta0          90;
            }
            water           
            {
                theta0          90;
            }
            oil             
            {
                theta0          90;
            }
        }
        value           nonuniform List<scalar> 
62
(
1.55438e-16
3.38652e-15
5.41831e-15
4.8296e-15
2.78658e-15
2.10728e-15
1.30548e-15
6.65717e-16
2.975e-16
1.25985e-16
5.46292e-17
1.70205e-17
5.23419e-18
1.38287e-18
7.07266e-19
6.89882e-19
8.74099e-19
1.24378e-18
1.63892e-18
1.84277e-18
1.46198e-18
3.76163e-19
1.21834e-19
1.21834e-19
5.03685e-19
3.8048e-18
3.62477e-17
2.52127e-16
9.56432e-16
4.46797e-14
2.87303e-11
3.69248e-09
7.74671e-09
4.62007e-09
1.22646e-06
6.91755e-06
6.83064e-06
0.000253583
5.98894e-05
1.39525e-05
5.69742e-05
0.00298958
0.000189541
6.91755e-06
0.015062
0.0960471
0.208483
0.231959
0.271085
0.271459
0.271586
0.445961
0.694294
0.694432
0.692122
0.687664
0.646239
0.646189
0.635143
0.658226
0.741795
0.761574
)
;
    }
    atmosphere
    {
        type            inletOutlet;
        inletValue      uniform 1;
        value           nonuniform List<scalar> 
46
(
1
1
1
1
1
1
1
1
1
1
1
1
1
1
1
1
1
1
1
1
1
1
1
1
1
1
1
1
1
1
1
1
1
1
1
1
1
1
1
1
1
1
1
1
1
1
)
;
    }
    defaultFaces
    {
        type            empty;
    }
}


// ************************************************************************* //
