/*--------------------------------*- C++ -*----------------------------------*\
  =========                 |
  \\      /  F ield         | OpenFOAM: The Open Source CFD Toolbox
   \\    /   O peration     | Website:  https://openfoam.org
    \\  /    A nd           | Version:  13
     \\/     M anipulation  |
\*---------------------------------------------------------------------------*/
FoamFile
{
    format      ascii;
    class       volScalarField;
    location    "0.6";
    object      alpha.mercury;
}
// * * * * * * * * * * * * * * * * * * * * * * * * * * * * * * * * * * * * * //

dimensions      [];

internalField   nonuniform List<scalar> 
2268
(
1
1
1
1
1
1
1
1
1
1
1
1
1
1
1
1
1
1
1
1
1
0.999869
0.999431
1
1
1
1
1
1
1
1
1
1
1
1
1
1
1
1
1
1
1
1
1
0.999934
0.999431
1
1
1
1
1
1
1
1
1
1
1
1
1
1
1
1
1
1
1
1
1
0.999966
0.999431
0.937784
0.933491
0.93805
0.950247
0.965891
0.981107
0.993389
0.999674
1
1
1
1
1
1
1
1
1
1
1
1
1
0.999988
0.999911
0.201318
0.220635
0.233969
0.260644
0.303868
0.364493
0.448169
0.565749
0.703936
0.835507
0.954043
1
1
1
1
1
1
1
1
1
1
1
1
-5.70291e-19
-1.11695e-19
-1.64461e-20
-1.18548e-19
-2.34418e-19
-3.57347e-16
-4.4424e-16
-1.38865e-16
0.0198775
0.0968022
0.252442
0.541381
0.839243
1
1
1
1
1
1
1
1
1
1
-2.29813e-23
-6.00787e-21
-6.11331e-21
-2.72736e-19
-3.77916e-19
-1.24914e-15
-2.11167e-15
-2.11639e-15
-2.61885e-13
2.13197e-11
2.63616e-15
0.00852756
0.141666
0.508845
0.896419
1
1
1
1
1
1
1
0.999997
-1.38814e-22
-6.18198e-21
-7.21411e-21
-1.28077e-19
-6.03303e-19
-8.10336e-16
-1.58389e-15
-1.83886e-15
1.11107e-11
1.74884e-11
-1.7003e-27
2.70611e-21
7.47304e-20
0.00428018
0.199944
0.704639
0.993576
1
1
0.999999
0.999999
1
0.999964
2.68597e-09
1.18585e-06
8.42561e-06
8.19578e-06
0.000336265
0.0225967
0.0159136
0.0150452
0.00649305
0.00492502
0.0277148
0.0487627
0.0512727
0.0447873
0.0448057
0.077256
0.296552
0.244973
0.182064
2.70209e-09
3.384e-05
0.000497293
0.0459819
0.10735
0.287309
0.293063
0.170584
0.0607587
0.0298063
0.131175
0.309816
0.400501
0.337173
0.325622
0.456556
0.619537
0.623026
0.208667
1.87108e-08
6.46448e-08
0.00322577
0.167593
0.577581
0.760017
0.72008
0.598765
0.446745
0.40451
0.484058
0.683359
0.695905
0.695734
0.684704
0.61731
0.623908
0.624761
0.317166
3.11163e-09
3.17349e-05
0.223704
0.813768
0.923962
0.923108
0.91858
0.909531
0.841054
0.694492
0.646567
0.676084
0.678755
0.568284
0.285184
0.103365
0.153686
0.524326
0.527754
3.11162e-09
0.098189
0.699477
0.885388
0.869343
0.663674
0.414209
0.313694
0.247151
0.134957
0.101748
0.100703
0.0939849
0.0522161
0.00399212
0.000359519
0.00897006
0.299093
0.533141
3.11162e-09
0.598708
0.716732
0.650048
0.24096
3.896e-13
1.96516e-12
-1.96734e-10
-3.61021e-22
-7.36028e-22
-1.98265e-07
3.41215e-13
2.45941e-10
0.000385745
0.000274034
0.000321092
0.0175316
0.0507809
0.226655
0.726724
0.720262
0.635837
0.0869034
-1.16846e-06
-9.94722e-08
-4.52977e-09
-3.17753e-09
0.000690752
0.00139039
0.0013737
0.000544056
6.17289e-05
4.54902e-06
2.58089e-05
0.000997287
0.0177463
0.0622575
0.0829859
0.720262
0.672207
0.109282
0.000102676
2.98597e-05
3.61529e-06
2.0099e-07
9.83157e-20
-2.27502e-09
-3.81871e-10
-1.03396e-13
4.85995e-05
4.17638e-05
1.03731e-06
0.00188624
0.00829593
0.010323
0.065473
0.0826358
-2.36517e-22
-5.14601e-21
-1.08812e-20
-1.21657e-19
-2.13227e-19
-2.45952e-19
-2.07966e-19
8.07312e-18
7.37924e-15
3.35757e-14
5.77769e-14
7.69703e-12
1.34107e-10
5.4099e-11
4.00969e-11
0.0252538
0.210607
0.528255
0.779607
0.945947
0.940432
0.936685
0.93421
-2.0381e-22
-3.28227e-21
-8.5158e-21
-5.64702e-20
-9.30275e-20
-1.04454e-19
-9.73857e-20
-7.97475e-20
2.97441e-20
2.6705e-18
4.00876e-15
1.23209e-12
4.12176e-11
5.33258e-11
3.719e-11
9.54262e-13
1.48276e-10
0.00109418
0.0242462
0.0758794
0.141703
0.201218
0.214378
-6.40014e-23
-9.22803e-22
-9.56002e-22
-8.07753e-22
-6.44998e-22
-5.09616e-22
-4.06181e-22
-3.11863e-22
5.62943e-23
1.12979e-18
1.64572e-16
6.55865e-15
9.3794e-13
4.70037e-12
9.13895e-12
1.4764e-10
2.13414e-10
1.35693e-09
-6.70572e-13
1.40293e-11
-2.39612e-21
-1.00225e-25
0
-9.5938e-24
-1.14157e-22
-1.15843e-22
-9.519e-23
-7.38056e-23
-5.61386e-23
-4.26234e-23
-3.27333e-23
-2.44015e-23
5.28382e-22
1.32315e-19
8.96359e-18
1.30827e-15
2.40055e-14
4.04749e-13
9.25429e-12
1.67152e-11
6.38833e-10
2.05038e-10
2.92798e-09
9.46852e-09
1.78302e-08
2.45668e-08
-1.29845e-25
-4.01032e-25
-7.45301e-27
-2.32589e-36
-2.53381e-34
-2.03224e-32
-1.23255e-30
-5.65766e-29
-1.86973e-27
-3.53328e-26
3.54145e-24
5.51677e-23
2.83676e-20
7.4311e-18
4.74459e-16
3.33647e-13
8.99142e-13
5.27346e-12
3.27655e-12
3.33333e-12
2.49304e-09
1.68689e-08
2.83512e-08
-1.80128e-27
-1.93356e-27
-2.32926e-41
-7.97453e-40
-2.9712e-49
-3.25705e-46
-1.36416e-49
3.35017e-51
2.34236e-51
1.39121e-51
6.05491e-56
5.11525e-56
6.05491e-56
5.93841e-56
1.7971e-20
1.67026e-16
4.85691e-16
1.74671e-13
1.48463e-13
1.55065e-11
1.03412e-15
2.85185e-19
1.43634e-19
-2.00609e-29
-7.49874e-30
-1.06757e-32
-6.15425e-36
-2.01904e-39
-1.91097e-42
-7.16734e-46
-3.5682e-50
1.20245e-50
7.90146e-51
3.0629e-51
2.1275e-51
2.12665e-50
4.41006e-49
2.52262e-65
-1.86195e-42
2.01967e-19
2.14833e-17
1.25621e-16
1.31498e-16
2.35158e-17
2.383e-16
5.55005e-15
-5.34333e-32
-1.33024e-32
-1.6702e-35
-1.25835e-38
-3.42659e-41
-5.71166e-44
-4.21635e-47
6.67026e-50
7.33074e-50
5.9087e-50
7.32131e-50
9.05416e-50
1.2056e-49
2.92797e-48
3.3087e-47
4.93597e-46
1.784e-49
9.50228e-50
2.17999e-21
8.15684e-24
2.52039e-20
2.0374e-16
3.15217e-15
6.52448e-56
-3.92283e-36
-4.70691e-39
-1.61168e-41
-3.02016e-44
-2.29561e-47
1.73066e-49
3.97268e-49
4.87588e-49
3.77412e-49
4.18256e-49
6.16718e-49
1.46924e-48
2.07888e-47
2.12999e-46
6.65295e-45
2.19553e-43
2.08397e-42
7.39018e-42
7.57937e-24
1.03571e-20
7.02242e-20
2.73436e-19
2.27717e-55
8.82126e-54
1.52656e-52
1.9224e-51
1.84296e-50
1.37164e-49
8.37278e-49
2.33778e-48
2.87462e-48
1.97392e-48
1.99843e-48
4.22363e-48
1.00381e-46
8.94195e-47
1.10777e-45
1.59382e-43
1.48558e-41
1.15618e-40
1.78258e-40
6.47252e-40
4.63252e-39
2.9365e-37
7.66837e-25
6.38072e-55
2.7973e-53
5.20022e-52
6.85691e-51
6.53951e-50
5.22975e-49
3.53694e-48
1.16186e-47
1.33327e-47
7.61099e-48
7.37563e-48
3.177e-47
1.41245e-45
1.36447e-45
1.3002e-44
7.22532e-42
1.1749e-40
9.03316e-40
2.66883e-39
2.16842e-38
1.38453e-37
2.05437e-36
2.65341e-35
1.49469e-54
6.92203e-53
1.39484e-51
1.92814e-50
1.84583e-49
1.61225e-48
1.20473e-47
4.84532e-47
4.91149e-47
2.02566e-47
2.66913e-47
2.72203e-46
1.28379e-44
2.18112e-43
2.42375e-42
2.33609e-40
2.22118e-39
2.31469e-38
8.96504e-38
5.05458e-37
3.29421e-36
2.20652e-35
2.36046e-34
2.96865e-54
1.37134e-52
3.02201e-51
4.37869e-50
4.26126e-49
4.07466e-48
3.32519e-47
1.88858e-46
1.60722e-46
1.03585e-45
9.85795e-45
1.37992e-43
1.34108e-42
1.99105e-41
1.63719e-40
2.25433e-39
1.44977e-38
1.46556e-37
8.16512e-37
4.07196e-36
2.3185e-35
1.16337e-34
9.4591e-34
5.36785e-54
2.31842e-52
5.45623e-51
8.07864e-50
8.4923e-49
9.27251e-48
8.65364e-47
7.37843e-46
7.53053e-45
7.83877e-44
7.97366e-43
9.23887e-42
7.96807e-41
5.8696e-40
3.3693e-39
2.23681e-38
1.02674e-37
6.37054e-37
3.02487e-36
1.55721e-35
7.30802e-35
8.40676e-34
3.47589e-33
2.62601e-53
1.17467e-51
2.91949e-50
4.95739e-49
7.42902e-48
1.03597e-46
1.22234e-45
1.42487e-44
1.41115e-43
1.46021e-42
1.44501e-41
1.39175e-40
1.06251e-39
5.52316e-39
2.43397e-38
1.11388e-37
5.35011e-37
2.72774e-36
1.26092e-35
6.53696e-35
6.25996e-34
1.48632e-32
5.58189e-32
8.27295e-53
4.61174e-51
1.27183e-49
2.62528e-48
4.3467e-47
6.08217e-46
7.48462e-45
9.2133e-44
9.91573e-43
9.93164e-42
8.99637e-41
7.48266e-40
5.2374e-39
2.12172e-38
8.57709e-38
3.45771e-37
1.88081e-36
1.00774e-35
8.17504e-35
9.93681e-34
2.30271e-32
4.51262e-31
2.55772e-30
1.84101e-52
1.14964e-50
3.53743e-49
7.99071e-48
1.40044e-46
2.0521e-45
2.66428e-44
3.38247e-43
3.64444e-42
3.47388e-41
2.91447e-40
2.15561e-39
1.40348e-38
5.55777e-38
2.41453e-37
1.35274e-36
1.08438e-35
1.58351e-34
4.71055e-33
7.25409e-32
9.64618e-31
1.49231e-29
1.61515e-28
4.00753e-52
2.47877e-50
8.08251e-49
1.85061e-47
3.41486e-46
5.33708e-45
7.23856e-44
8.62484e-43
9.07855e-42
8.18642e-41
6.47009e-40
4.72466e-39
3.24607e-38
1.77513e-37
1.39059e-36
2.63997e-35
4.52759e-34
9.11547e-33
1.74803e-31
2.64721e-30
3.26084e-29
4.44546e-28
3.79906e-27
8.1785e-52
5.05589e-50
1.65373e-48
3.87283e-47
7.34632e-46
1.16711e-44
1.55336e-43
1.7864e-42
1.85339e-41
1.67857e-40
1.45408e-39
1.29544e-38
1.37738e-37
2.23414e-36
4.23818e-35
8.83246e-34
1.55464e-32
2.51475e-31
3.67361e-30
4.6285e-29
5.64403e-28
5.97603e-27
4.46876e-26
1.64397e-51
9.87793e-50
3.30394e-48
7.89573e-47
1.47127e-45
2.27824e-44
3.05377e-43
3.67034e-42
4.30423e-41
5.39599e-40
6.87692e-39
1.23525e-37
2.55913e-36
5.52063e-35
1.08713e-33
1.84706e-32
2.79782e-31
3.71593e-30
4.90472e-29
5.51777e-28
5.92836e-27
4.97916e-26
3.24303e-25
2.9118e-51
1.95293e-49
6.80053e-48
1.64063e-46
3.07064e-45
5.10602e-44
8.16864e-43
1.34644e-41
2.41985e-40
5.43481e-39
1.05751e-37
2.44593e-36
5.05833e-35
9.29975e-34
1.58143e-32
2.35318e-31
3.23245e-30
4.01104e-29
4.86916e-28
4.78552e-27
4.07707e-26
2.65229e-25
1.65282e-24
4.30775e-51
3.2177e-49
1.2842e-47
3.73163e-46
9.25466e-45
2.19511e-43
5.26727e-42
1.2703e-40
2.97961e-39
6.80597e-38
1.53553e-36
3.16093e-35
5.7799e-34
9.3969e-33
1.48417e-31
2.07209e-30
2.59478e-29
2.88913e-28
2.81188e-27
2.25065e-26
1.50699e-25
9.79029e-25
4.92311e-24
5.408e-51
4.70855e-49
2.34256e-47
9.23612e-46
3.28069e-44
1.07938e-42
3.23719e-41
8.76542e-40
2.17819e-38
5.05661e-37
1.06548e-35
1.96787e-34
3.26554e-33
4.99662e-32
6.99473e-31
8.84861e-30
9.85952e-29
9.9357e-28
8.41773e-27
5.93107e-26
3.72563e-25
1.92971e-24
1.25714e-23
5.99532e-51
6.37556e-49
4.12757e-47
2.10443e-45
9.04807e-44
3.31398e-42
1.04179e-40
2.86948e-39
7.11667e-38
1.60305e-36
3.22174e-35
5.71699e-34
9.08748e-33
1.32104e-31
1.71688e-30
2.04238e-29
2.15891e-28
2.03436e-27
1.60025e-26
1.04337e-25
6.17498e-25
3.94349e-24
1.8412e-23
5.75739e-51
7.48205e-49
5.83216e-47
3.41086e-45
1.58707e-43
6.04722e-42
1.93934e-40
5.38777e-39
1.32708e-37
2.92447e-36
5.74709e-35
9.99465e-34
1.54182e-32
2.15049e-31
2.70725e-30
3.12902e-29
3.20655e-28
2.76843e-27
2.10126e-26
1.37601e-25
8.29997e-25
4.0642e-24
2.86194e-23
4.49633e-51
6.60787e-49
6.36432e-47
3.96711e-45
1.90882e-43
7.42975e-42
2.42793e-40
6.84944e-39
1.69156e-37
3.67427e-36
7.05718e-35
1.20174e-33
1.82137e-32
2.50142e-31
3.13248e-30
3.60603e-29
3.67491e-28
3.15307e-27
2.30135e-26
1.44888e-25
8.74955e-25
5.52525e-24
2.6763e-23
2.67439e-51
4.82683e-49
4.62062e-47
3.02943e-45
1.50443e-43
6.01771e-42
2.02635e-40
5.88918e-39
1.48178e-37
3.21043e-36
6.02124e-35
9.95271e-34
1.48086e-32
2.02376e-31
2.55873e-30
2.9561e-29
2.99286e-28
2.53133e-27
1.82974e-26
1.19659e-25
7.39435e-25
4.17522e-24
2.9764e-23
9.58078e-52
2.01221e-49
2.07641e-47
1.444e-45
7.55009e-44
3.16131e-42
1.10271e-40
3.27037e-39
8.30402e-38
1.81522e-36
3.45966e-35
5.84939e-34
8.93144e-33
1.25051e-31
1.60955e-30
1.88149e-29
1.93644e-28
1.69827e-27
1.2631e-26
8.13307e-26
5.28122e-25
3.27484e-24
1.76671e-23
2.17092e-52
4.7865e-50
5.34489e-48
4.00326e-46
2.25414e-44
1.01115e-42
3.72595e-41
1.15095e-39
3.04058e-38
6.98696e-37
1.40519e-35
2.4807e-34
3.90215e-33
5.56807e-32
7.20522e-31
8.26124e-30
8.03305e-29
6.54727e-28
4.85855e-27
3.58805e-26
2.37283e-25
1.80651e-24
1.21707e-23
2.89688e-53
7.29055e-51
9.11873e-49
7.51853e-47
4.58056e-45
2.19202e-43
8.54755e-42
2.78209e-40
7.70273e-39
1.84779e-37
3.91512e-36
7.45528e-35
1.2877e-33
2.00838e-32
2.78141e-31
3.35039e-30
3.45421e-29
3.03779e-28
2.35225e-27
1.77005e-26
1.42231e-25
1.03178e-24
6.82859e-24
2.46904e-54
7.08191e-52
9.89499e-50
8.97666e-48
5.93505e-46
3.0451e-44
1.26236e-42
4.35776e-41
1.28648e-39
3.33439e-38
7.7669e-37
1.64449e-35
3.13972e-34
5.2806e-33
7.61884e-32
9.26237e-31
9.52342e-30
8.65074e-29
7.48246e-28
6.26889e-27
4.46464e-26
3.79858e-25
2.61676e-24
1.17557e-55
3.86717e-53
6.11019e-51
6.22562e-49
4.60908e-47
2.64623e-45
1.22773e-43
4.738e-42
1.55589e-40
4.43487e-39
1.11682e-37
2.51863e-36
5.11584e-35
9.32123e-34
1.50542e-32
2.12095e-31
2.56289e-30
2.62529e-29
2.31033e-28
1.87139e-27
1.51069e-26
1.09472e-25
7.90533e-25
3.64031e-57
1.37641e-54
2.44219e-52
2.76123e-50
2.25175e-48
1.4163e-46
7.16881e-45
3.01188e-43
1.07804e-41
3.36388e-40
9.30995e-39
2.30082e-37
5.05419e-36
9.7752e-35
1.65766e-33
2.48667e-32
3.36626e-31
4.16895e-30
4.67129e-29
4.62946e-28
4.08569e-27
3.29835e-26
2.3506e-25
5.65364e-59
2.86032e-56
5.85018e-54
7.62187e-52
7.18285e-50
5.24192e-48
3.08886e-46
1.51212e-44
6.28681e-43
2.2625e-41
7.16047e-40
2.01314e-38
5.04068e-37
1.12033e-35
2.19886e-34
3.79512e-33
5.74475e-32
7.61743e-31
8.84371e-30
9.00518e-29
8.07936e-28
6.64045e-27
5.38613e-26
7.37997e-61
3.82398e-58
8.98164e-56
1.32934e-53
1.41227e-51
1.15643e-49
7.64623e-48
4.22184e-46
1.99542e-44
8.20807e-43
2.96326e-41
9.40614e-40
2.62271e-38
6.42819e-37
1.3922e-35
2.68931e-34
4.56039e-33
6.45328e-32
1.04384e-30
1.2708e-29
1.2711e-28
1.35829e-27
1.17882e-26
4.24477e-63
2.59584e-60
7.24458e-58
1.29255e-55
1.67006e-53
1.6672e-51
1.33999e-49
8.93304e-48
5.0533e-46
2.4676e-44
1.05256e-42
3.94903e-41
1.30685e-39
3.81433e-38
9.79211e-37
2.20363e-35
4.40547e-34
7.70332e-33
1.18735e-31
1.61619e-30
1.93294e-29
1.99722e-28
1.88205e-27
1.14125e-65
7.47462e-63
2.35251e-60
4.93595e-58
7.6912e-56
9.35698e-54
9.15909e-52
7.38271e-50
5.0097e-48
2.92859e-46
1.50784e-44
6.93911e-43
2.85697e-41
1.03919e-39
3.27846e-38
8.85222e-37
2.04098e-35
4.07231e-34
7.20619e-33
1.12682e-31
1.48719e-30
2.29256e-29
2.79187e-28
2.1172e-68
1.48855e-65
5.03964e-63
1.2438e-60
2.41432e-58
3.78179e-56
4.848e-54
5.15049e-52
4.59611e-50
3.49375e-48
2.29168e-46
1.30904e-44
6.52492e-43
2.83061e-41
1.07855e-39
3.53978e-38
1.00543e-36
2.47597e-35
5.31382e-34
9.99975e-33
1.64525e-31
2.3422e-30
2.98385e-29
1.94342e-71
9.0061e-69
3.12843e-66
9.27628e-64
2.35864e-61
5.01773e-59
8.78047e-57
1.2603e-54
1.49569e-52
1.48829e-50
1.26112e-48
9.22089e-47
5.86562e-45
3.25469e-43
1.57015e-41
6.52744e-40
2.32147e-38
7.13774e-37
1.94088e-35
4.40454e-34
7.61609e-33
1.80483e-31
3.1715e-30
4.18018e-75
1.19301e-72
3.56451e-70
1.14968e-67
3.73611e-65
1.11253e-62
2.84798e-60
6.10139e-58
1.09046e-55
1.63994e-53
2.10129e-51
2.31961e-49
2.22158e-47
1.84988e-45
1.33595e-43
8.3097e-42
4.40336e-40
1.96629e-38
7.40404e-37
2.38746e-35
6.55685e-34
1.52289e-32
3.06294e-31
2.04479e-80
3.67676e-78
9.54413e-76
3.69653e-73
1.81866e-70
9.32646e-68
4.37204e-65
1.76458e-62
6.02214e-60
1.73827e-57
4.26992e-55
8.98579e-53
1.62761e-50
2.53867e-48
3.38917e-46
3.82502e-44
3.60226e-42
2.80533e-40
1.80801e-38
9.63218e-37
3.97289e-35
1.04017e-33
3.46221e-32
1.89407e-90
2.16409e-88
6.3272e-86
4.3429e-83
5.14778e-80
7.6815e-77
1.14007e-73
1.50851e-70
1.73504e-67
1.75464e-64
1.59477e-61
1.34623e-58
1.08738e-55
8.12732e-53
5.42054e-50
3.01733e-47
1.28394e-44
3.70787e-42
6.30717e-40
6.0356e-38
3.68226e-36
1.51454e-34
4.36959e-33
0.93141
0.917943
0.894776
0.873365
0.201983
0.177543
0.133203
0.0527278
-5.87558e-11
4.14897e-26
4.31078e-25
1.20204e-09
2.46768e-08
2.14421e-08
1.07109e-08
3.2041e-09
2.86942e-08
2.41517e-08
1.1935e-08
1.29694e-09
1.5516e-19
2.26116e-19
2.42695e-19
1.05857e-18
1.69678e-14
3.63519e-14
5.47614e-14
5.98755e-14
8.50757e-15
1.7051e-14
4.44086e-14
6.1823e-14
9.18894e-19
1.70659e-18
2.55894e-18
2.97881e-18
7.88445e-24
4.10647e-23
3.0031e-22
1.14333e-21
3.63801e-35
5.62151e-35
7.55772e-28
1.50651e-21
6.21884e-34
2.42128e-30
8.95331e-25
4.622e-21
2.0256e-33
2.2731e-25
1.26448e-22
1.48535e-20
4.19692e-31
3.43823e-27
5.17047e-23
9.69322e-21
6.63495e-32
1.17454e-26
7.76224e-24
1.36619e-21
8.93625e-30
9.37305e-29
2.55387e-25
8.97938e-23
6.90079e-28
4.41321e-27
2.39932e-26
3.1281e-24
1.87402e-26
8.10575e-26
2.80182e-25
8.90059e-25
2.25265e-25
7.50416e-25
2.21429e-24
5.86461e-24
1.60427e-24
4.79333e-24
1.34156e-23
3.91126e-23
8.05552e-24
2.18513e-23
5.88841e-23
1.12345e-22
2.58559e-23
6.10188e-23
1.35978e-22
2.55309e-22
5.36214e-23
1.15417e-22
2.76801e-22
4.95477e-22
9.13857e-23
2.04181e-22
4.49205e-22
8.58683e-22
1.23973e-22
2.6596e-22
6.87144e-22
1.23933e-21
1.45819e-22
3.36297e-22
7.44851e-22
1.49461e-21
1.20573e-22
2.81809e-22
7.77219e-22
1.39558e-21
1.0268e-22
2.56436e-22
5.95977e-22
1.30432e-21
6.169e-23
1.68276e-22
4.4769e-22
8.76637e-22
3.98341e-23
1.11519e-22
2.71602e-22
6.25323e-22
1.53114e-23
4.39583e-23
1.33226e-22
3.0876e-22
5.50272e-24
1.78693e-23
5.5152e-23
1.50235e-22
1.57889e-24
5.60843e-24
1.69788e-23
5.3423e-23
4.3249e-25
1.39822e-24
5.77985e-24
1.85025e-23
1.01406e-25
3.61961e-25
1.30886e-24
5.0322e-24
1.8488e-26
7.40185e-26
3.21602e-25
1.21596e-24
2.78781e-27
1.30926e-26
5.47059e-26
2.69711e-25
3.6974e-28
2.09184e-27
1.03826e-26
4.81806e-26
4.68592e-29
2.98805e-28
1.7081e-27
8.83273e-27
5.30855e-30
4.03831e-29
2.53322e-28
1.46308e-27
6.8366e-31
5.56169e-30
3.96233e-29
2.48617e-28
9.05896e-32
7.81111e-31
6.09433e-30
4.11276e-29
0.651766
0.12875
7.47906e-19
3.38043e-15
1.15259e-07
2.14597e-07
1.21016e-07
1.41178e-08
1.88793e-08
1.60176e-10
2.64633e-07
1.79206e-05
4.51976e-06
1.18401e-06
0.00208565
0.00384294
0.000489753
0.00354405
0.0787192
3.76168e-19
-7.54245e-23
-8.82005e-15
1.70663e-09
3.44066e-07
5.61717e-07
3.25532e-07
7.98734e-10
5.5936e-07
6.37872e-07
2.44025e-07
1.9475e-09
1.40778e-09
2.04171e-05
0.000440212
0.000429644
7.87394e-08
6.73022e-08
0.00445342
1.69895e-09
1.62714e-09
-5.19248e-14
4.29711e-08
5.09551e-07
5.61722e-07
1.72024e-07
9.26438e-10
7.75089e-07
1.71611e-06
9.10452e-07
1.16647e-08
1.11247e-07
2.71634e-06
3.44127e-05
2.11853e-07
1.93038e-06
1.87946e-07
4.58456e-08
1.97288e-09
2.11239e-09
1.13996e-10
1.12136e-08
6.66288e-08
9.9425e-08
2.09666e-08
7.86541e-10
8.63186e-07
1.72491e-06
9.94457e-07
5.64855e-09
1.26131e-08
8.31049e-08
2.16107e-09
2.09559e-07
1.38123e-06
2.74367e-07
3.42623e-08
5.6234e-10
1.12412e-09
8.51794e-10
-2.22332e-15
2.09558e-18
-1.16154e-13
2.01472e-10
1.81936e-09
3.51708e-07
7.00603e-07
1.0807e-07
4.10156e-09
2.75737e-09
2.15462e-09
2.05763e-09
2.2327e-07
5.27082e-07
9.63601e-08
3.30494e-08
6.79721e-16
4.11628e-13
1.83469e-11
3.21491e-11
1.59128e-11
3.35102e-12
2.97263e-10
8.48759e-11
2.4738e-11
1.58803e-09
4.34764e-08
4.63061e-08
9.85082e-09
5.38318e-09
5.97696e-09
2.15422e-07
3.58238e-07
3.69856e-10
1.18321e-08
3.4643e-13
5.11824e-12
1.52732e-11
3.16828e-11
1.62384e-11
2.55878e-11
6.10539e-11
9.25251e-12
9.48959e-10
2.42609e-08
5.2172e-08
5.18396e-08
4.15871e-08
4.98472e-09
5.2431e-09
1.41879e-07
2.4153e-07
3.49736e-10
3.49015e-10
4.19551e-14
6.2804e-15
1.68684e-16
3.28446e-13
4.58994e-12
9.85528e-12
9.93135e-12
7.84738e-12
1.12161e-09
2.23513e-08
4.93045e-08
4.81497e-08
1.30234e-08
9.09735e-09
7.25619e-09
1.90512e-08
1.20829e-07
4.35192e-10
3.49124e-10
9.35692e-19
1.19146e-19
1.13933e-17
1.88112e-14
7.69229e-13
2.9046e-12
6.05421e-12
4.10073e-11
2.9054e-09
1.25757e-08
1.7815e-08
1.6079e-08
7.23267e-09
5.94445e-09
5.50535e-09
5.56904e-10
5.35488e-10
1.17623e-09
3.49279e-10
7.79088e-21
1.13019e-19
2.60193e-18
4.58931e-16
3.64267e-14
4.84429e-13
2.3674e-12
5.41336e-11
1.09286e-09
3.98101e-09
5.69907e-09
3.72232e-09
1.093e-09
1.23364e-09
1.95692e-09
1.00308e-09
5.24752e-10
1.10019e-09
3.25844e-10
1.57069e-19
3.61676e-18
7.86475e-17
1.13626e-15
4.55387e-14
4.31993e-13
1.66288e-12
2.02017e-11
2.57022e-10
9.54015e-10
1.46606e-09
1.29563e-09
4.65593e-10
2.35208e-10
4.08127e-10
6.54077e-10
5.0854e-10
5.55217e-10
3.0952e-10
2.52461e-19
1.10524e-17
2.4442e-16
2.3393e-15
2.89697e-14
5.00992e-13
1.8008e-12
1.22855e-11
5.82381e-11
1.82675e-10
3.25299e-10
3.45886e-10
2.4644e-10
1.80273e-10
2.3692e-10
3.03025e-10
3.8159e-10
3.52816e-10
2.87636e-10
6.4146e-19
2.15821e-17
2.79339e-16
3.29346e-15
2.78572e-14
7.71741e-13
3.44295e-12
1.29062e-11
2.60545e-11
4.20333e-11
8.21276e-11
1.10912e-10
1.27034e-10
1.41744e-10
1.8537e-10
2.38921e-10
2.66476e-10
2.71672e-10
2.58025e-10
5.42932e-19
1.86363e-17
5.27755e-16
7.53527e-15
5.98842e-14
1.03213e-12
4.3825e-12
1.42885e-11
1.7821e-11
1.77361e-11
2.73066e-11
5.73755e-11
8.82553e-11
1.21541e-10
1.5393e-10
1.84622e-10
2.04521e-10
2.11001e-10
2.0485e-10
1.04033e-19
5.07933e-18
2.13698e-16
4.95338e-15
7.65105e-14
8.3651e-13
3.81717e-12
1.27369e-11
1.54929e-11
1.4352e-11
1.85923e-11
3.60758e-11
6.47265e-11
9.30418e-11
1.19314e-10
1.37214e-10
1.49567e-10
1.57216e-10
1.61821e-10
9.74331e-21
7.19159e-19
3.27804e-17
1.12436e-15
2.5795e-14
3.04739e-13
2.77176e-12
1.06708e-11
1.38302e-11
1.15165e-11
1.19881e-11
2.60181e-11
4.00356e-11
5.52943e-11
7.20764e-11
8.59285e-11
9.26818e-11
9.74879e-11
1.0002e-10
5.34228e-22
7.57386e-20
5.05544e-18
1.97345e-16
3.65382e-15
6.82781e-14
9.95988e-13
6.60515e-12
1.15659e-11
9.10512e-12
6.6418e-12
1.03816e-11
2.25824e-11
3.00477e-11
3.46735e-11
3.88784e-11
4.17391e-11
4.10284e-11
4.01164e-11
1.91288e-23
3.96961e-21
4.09497e-19
2.09915e-17
6.79568e-16
9.75765e-15
1.16791e-13
2.99949e-12
7.09375e-12
8.57783e-12
4.37409e-12
3.20645e-12
7.06602e-12
1.20934e-11
1.46827e-11
1.55608e-11
1.54921e-11
1.40973e-11
1.24604e-11
1.34691e-23
2.3855e-22
3.14877e-20
2.14918e-18
8.51814e-17
1.46137e-15
2.28961e-14
7.16235e-13
3.33273e-12
6.37755e-12
4.91883e-12
1.57649e-12
1.13098e-12
2.85829e-12
4.7561e-12
5.63327e-12
5.80149e-12
5.70219e-12
5.55534e-12
7.48871e-23
1.8777e-22
2.47908e-21
2.17486e-19
1.15678e-17
2.61079e-16
4.55964e-15
1.23457e-13
1.76403e-12
3.73714e-12
4.60301e-12
2.17447e-12
4.64205e-13
1.79584e-13
4.76013e-13
9.80734e-13
1.51708e-12
2.16274e-12
2.46283e-12
1.89025e-22
4.38616e-22
8.88252e-22
2.14851e-20
1.70271e-18
4.53037e-17
9.73287e-16
3.04016e-14
3.53193e-13
1.76117e-12
2.01149e-12
2.15349e-12
1.00924e-12
1.07706e-13
2.3234e-14
5.39733e-14
1.97101e-13
6.47575e-13
8.26205e-13
4.13159e-22
9.54838e-22
1.68484e-21
4.08156e-21
2.29954e-19
8.70008e-18
2.01515e-16
6.70401e-15
9.01871e-14
4.04904e-13
7.45139e-13
1.47993e-12
1.21073e-12
3.43196e-13
1.56735e-14
1.26624e-14
5.12198e-14
1.6948e-13
2.05564e-13
8.25694e-22
1.86659e-21
3.31621e-21
5.02441e-21
2.99358e-20
1.62687e-18
4.31373e-17
1.25697e-15
2.45974e-14
1.38503e-13
3.07412e-13
9.68693e-13
9.96253e-13
5.34212e-13
3.87846e-14
4.82781e-15
1.13393e-14
2.65186e-14
3.75983e-14
1.41932e-21
3.25269e-21
5.97524e-21
9.18171e-21
1.31037e-20
1.71577e-19
7.24301e-18
2.08234e-16
6.00971e-15
4.66787e-14
1.57703e-13
6.00166e-13
7.52796e-13
4.9964e-13
8.54486e-14
4.29362e-15
9.93268e-16
4.51021e-15
6.7585e-15
2.10983e-21
4.96861e-21
9.53175e-21
1.54451e-20
2.1052e-20
3.10245e-20
3.96983e-19
3.03228e-17
1.32531e-15
1.41572e-14
7.63059e-14
3.9067e-13
5.44485e-13
3.93122e-13
1.08616e-13
8.09857e-15
2.94869e-16
4.63767e-16
1.32053e-15
2.58092e-21
6.38193e-21
1.29786e-20
2.26912e-20
3.33394e-20
4.26468e-20
5.87948e-20
6.71129e-18
3.41432e-16
4.6168e-15
3.80971e-14
2.49862e-13
3.86959e-13
2.78918e-13
8.36577e-14
5.87001e-15
2.17353e-16
3.29185e-16
2.53534e-16
2.76276e-21
7.34511e-21
1.55919e-20
2.94268e-20
4.7074e-20
6.42726e-20
7.81661e-20
2.84299e-19
8.22777e-17
1.42461e-15
1.86348e-14
1.58301e-13
2.67829e-13
1.96895e-13
5.13763e-14
1.74182e-15
1.90621e-16
3.05791e-16
4.92772e-17
2.46393e-21
7.34122e-21
1.6762e-20
3.37472e-20
5.87834e-20
8.80451e-20
1.12381e-19
1.48037e-19
4.85481e-18
3.61138e-16
9.77106e-15
9.50449e-14
1.72186e-13
1.39249e-13
2.63424e-14
6.70849e-16
1.82656e-16
1.76582e-16
1.62248e-17
1.9601e-21
6.20689e-21
1.58507e-20
3.44472e-20
6.53611e-20
1.06976e-19
1.52686e-19
1.91039e-19
3.06419e-19
1.13355e-17
2.39333e-15
6.49982e-14
1.12793e-13
8.38561e-14
1.61061e-14
3.75689e-16
1.21223e-16
4.80362e-17
7.96251e-18
1.26222e-21
4.32279e-21
1.30656e-20
3.11915e-20
6.49281e-20
1.1781e-19
1.85555e-19
2.50491e-19
3.22585e-19
4.60491e-19
1.92699e-16
3.2276e-14
6.99139e-14
5.29296e-14
9.32565e-15
2.69802e-16
7.65092e-17
1.53301e-17
4.33238e-18
7.59309e-22
2.84114e-21
8.90854e-21
2.37986e-20
5.4946e-20
1.11948e-19
1.99652e-19
3.00495e-19
3.96929e-19
5.08947e-19
3.31416e-18
8.10578e-15
3.07778e-14
2.78208e-14
6.67231e-15
7.94732e-16
8.92497e-17
1.44201e-17
3.26886e-18
3.65177e-22
1.55335e-21
5.33056e-21
1.58941e-20
4.09124e-20
9.08604e-20
1.7908e-19
3.13903e-19
4.66447e-19
6.14285e-19
8.46791e-19
5.16597e-16
1.29279e-14
1.00445e-14
3.49841e-15
6.55121e-16
9.05596e-17
2.19391e-17
3.58779e-18
1.57768e-22
7.08473e-22
2.74284e-21
9.11929e-21
2.60912e-20
6.57678e-20
1.41157e-19
2.76474e-19
4.79407e-19
6.98705e-19
9.59911e-19
5.88225e-18
1.7708e-15
2.2646e-15
9.71963e-16
1.68686e-16
4.10009e-17
1.96374e-17
3.39089e-18
5.48935e-23
2.75444e-22
1.18041e-21
4.40921e-21
1.40614e-20
3.91316e-20
9.50782e-20
2.08364e-19
4.17118e-19
6.99815e-19
1.05934e-18
1.66481e-18
6.11602e-17
1.85806e-16
1.12405e-16
3.73912e-17
2.81659e-17
1.28973e-17
2.37587e-18
1.70061e-23
9.39785e-23
4.52515e-22
1.88115e-21
6.70049e-21
2.0732e-20
5.63181e-20
1.37793e-19
3.07722e-19
5.86714e-19
1.00789e-18
1.64282e-18
2.72e-18
1.45835e-17
1.29254e-17
1.80069e-17
1.68194e-17
8.10694e-18
1.56367e-18
4.40341e-24
2.83709e-23
1.5331e-22
7.22163e-22
2.85252e-21
9.58601e-21
2.82941e-20
7.55652e-20
1.87902e-19
3.93532e-19
7.71644e-19
1.45726e-18
2.17408e-18
6.95601e-18
5.79857e-18
1.10486e-17
8.5207e-18
3.63589e-18
5.3456e-19
1.06104e-24
7.36867e-24
4.47014e-23
2.35089e-22
1.02128e-21
3.75311e-21
1.23839e-20
3.63552e-20
9.81043e-20
2.3198e-19
4.53702e-19
9.47019e-19
1.69093e-18
3.31234e-18
4.16224e-18
4.42072e-18
2.31661e-18
7.22309e-19
3.23068e-19
2.13634e-25
1.73496e-24
1.19125e-23
6.8169e-23
3.44154e-22
1.37417e-21
4.8427e-21
1.5029e-20
4.20118e-20
1.14916e-19
2.38552e-19
4.77825e-19
9.56853e-19
1.63357e-18
2.04324e-18
1.14568e-18
4.73311e-19
3.89435e-19
1.51261e-19
4.15384e-26
3.49793e-25
2.54466e-24
1.60189e-23
8.58447e-23
3.9601e-22
1.53808e-21
5.08391e-21
1.55808e-20
4.19118e-20
9.9854e-20
1.97915e-19
3.65506e-19
6.12618e-19
5.10651e-19
2.64161e-19
2.28996e-19
1.9791e-19
8.38315e-20
7.60108e-27
7.02867e-26
5.53973e-25
3.80071e-24
2.20324e-23
1.03407e-22
4.4261e-22
1.62146e-21
5.01983e-21
1.45486e-20
3.68e-20
7.73493e-20
1.36194e-19
2.1494e-19
1.6787e-19
1.02179e-19
1.18651e-19
9.60669e-20
3.31305e-20
1.39891e-27
1.40178e-26
1.17589e-25
8.38281e-25
5.05775e-24
2.53954e-23
1.15652e-22
4.35719e-22
1.42365e-21
4.21267e-21
1.07942e-20
2.29977e-20
4.25517e-20
6.21493e-20
4.66841e-20
4.01999e-20
4.90699e-20
3.62725e-20
1.07393e-20
2.47266e-28
2.60248e-27
2.25138e-26
1.78187e-25
1.11026e-24
5.84782e-24
2.65416e-23
1.03419e-22
3.52119e-22
1.05351e-21
2.69266e-21
5.80289e-21
1.03776e-20
1.46745e-20
1.37448e-20
1.5073e-20
1.60962e-20
1.08476e-20
2.51556e-21
)
;

boundaryField
{
    leftWall
    {
        type            alphaContactAngle;
        contactAngleProperties 
        {
            air             
            {
                theta0          90;
            }
            water           
            {
                theta0          90;
            }
            oil             
            {
                theta0          90;
            }
        }
        value           nonuniform List<scalar> 
50
(
1
1
1
0.937784
0.201318
-5.70291e-19
-2.29813e-23
-1.38814e-22
-2.36517e-22
-2.0381e-22
-6.40014e-23
-9.5938e-24
-1.29845e-25
-1.80128e-27
-2.00609e-29
-5.34333e-32
6.52448e-56
2.27717e-55
6.38072e-55
1.49469e-54
2.96865e-54
5.36785e-54
2.62601e-53
8.27295e-53
1.84101e-52
4.00753e-52
8.1785e-52
1.64397e-51
2.9118e-51
4.30775e-51
5.408e-51
5.99532e-51
5.75739e-51
4.49633e-51
2.67439e-51
9.58078e-52
2.17092e-52
2.89688e-53
2.46904e-54
1.17557e-55
3.64031e-57
5.65364e-59
7.37997e-61
4.24477e-63
1.14125e-65
2.1172e-68
1.94342e-71
4.18018e-75
2.04479e-80
1.89407e-90
)
;
    }
    rightWall
    {
        type            alphaContactAngle;
        contactAngleProperties 
        {
            air             
            {
                theta0          90;
            }
            water           
            {
                theta0          90;
            }
            oil             
            {
                theta0          90;
            }
        }
        value           nonuniform List<scalar> 
50
(
0.182064
0.208667
0.317166
0.527754
0.533141
0.226655
0.0829859
0.0826358
0.0787192
0.00445342
4.58456e-08
3.42623e-08
3.30494e-08
1.18321e-08
3.49015e-10
3.49124e-10
3.49279e-10
3.25844e-10
3.0952e-10
2.87636e-10
2.58025e-10
2.0485e-10
1.61821e-10
1.0002e-10
4.01164e-11
1.24604e-11
5.55534e-12
2.46283e-12
8.26205e-13
2.05564e-13
3.75983e-14
6.7585e-15
1.32053e-15
2.53534e-16
4.92772e-17
1.62248e-17
7.96251e-18
4.33238e-18
3.26886e-18
3.58779e-18
3.39089e-18
2.37587e-18
1.56367e-18
5.3456e-19
3.23068e-19
1.51261e-19
8.38315e-20
3.31305e-20
1.07393e-20
2.51556e-21
)
;
    }
    lowerWall
    {
        type            alphaContactAngle;
        contactAngleProperties 
        {
            air             
            {
                theta0          90;
            }
            water           
            {
                theta0          90;
            }
            oil             
            {
                theta0          90;
            }
        }
        value           nonuniform List<scalar> 
62
(
1
1
1
1
1
1
1
1
1
1
1
1
1
1
1
1
1
1
1
1
1
0.999869
0.999431
0.999431
0.999431
0.999431
0.999911
1
1
0.999997
0.999964
0.93141
0.917943
0.894776
0.873365
2.68597e-09
2.70209e-09
1.87108e-08
3.11163e-09
3.11162e-09
3.11162e-09
0.726724
0.720262
2.68597e-09
1.18585e-06
8.42561e-06
8.19578e-06
0.000336265
0.0225967
0.0159136
0.0150452
0.00649305
0.00492502
0.0277148
0.0487627
0.0512727
0.0447873
0.0448057
0.077256
0.296552
0.244973
0.182064
)
;
    }
    atmosphere
    {
        type            inletOutlet;
        inletValue      uniform 0;
        value           nonuniform List<scalar> 
46
(
0
0
0
0
0
0
0
0
0
0
0
0
0
0
0
0
0
0
6.30717e-40
6.0356e-38
3.68226e-36
1.51454e-34
4.36959e-33
9.05896e-32
7.81111e-31
6.09433e-30
4.11276e-29
2.47266e-28
2.60248e-27
2.25138e-26
1.78187e-25
1.11026e-24
5.84782e-24
2.65416e-23
1.03419e-22
3.52119e-22
1.05351e-21
2.69266e-21
5.80289e-21
1.03776e-20
1.46745e-20
1.37448e-20
0
0
0
0
)
;
    }
    defaultFaces
    {
        type            empty;
    }
}


// ************************************************************************* //
