/*--------------------------------*- C++ -*----------------------------------*\
  =========                 |
  \\      /  F ield         | OpenFOAM: The Open Source CFD Toolbox
   \\    /   O peration     | Website:  https://openfoam.org
    \\  /    A nd           | Version:  13
     \\/     M anipulation  |
\*---------------------------------------------------------------------------*/
FoamFile
{
    format      ascii;
    class       volScalarField;
    location    "0.6";
    object      epsilon;
}
// * * * * * * * * * * * * * * * * * * * * * * * * * * * * * * * * * * * * * //

dimensions      [0 2 -3 0 0 0 0];

internalField   nonuniform List<scalar> 
2268
(
0.0109735
0.0413519
0.0758499
0.105539
0.133738
0.160123
0.183928
0.204262
0.220365
0.232825
0.243086
0.251343
0.258251
0.264497
0.269862
0.272782
0.270951
0.260964
0.239144
0.202765
0.150623
0.0900991
0.0407145
0.013104
0.0286491
0.0427736
0.0556984
0.0678922
0.0793701
0.0899727
0.0995092
0.107851
0.115192
0.122078
0.128561
0.134778
0.140696
0.146221
0.150519
0.151933
0.148657
0.139383
0.123585
0.102085
0.0774869
0.05976
0.0218295
0.029624
0.0396595
0.0492096
0.058185
0.0665448
0.0742209
0.0811702
0.0874249
0.0932299
0.0989472
0.104795
0.110867
0.116998
0.122982
0.127917
0.130547
0.129769
0.125018
0.116447
0.105201
0.0934923
0.0945894
0.0305869
0.0331864
0.0409563
0.0488893
0.0564191
0.0633749
0.0696837
0.0753521
0.0804928
0.0853969
0.0904429
0.0959451
0.101994
0.108367
0.114672
0.11997
0.123381
0.12431
0.122755
0.119432
0.115999
0.115479
0.135981
0.0392142
0.0376957
0.0438861
0.0507271
0.057344
0.0634306
0.0688692
0.0736794
0.0780223
0.0822244
0.08673
0.0919249
0.0979192
0.104496
0.111049
0.116688
0.120864
0.123433
0.124917
0.126697
0.131593
0.146109
0.200452
0.0477378
0.0420139
0.0472343
0.0533262
0.0593344
0.0648478
0.0696878
0.0738508
0.0775092
0.0810724
0.0851138
0.0900976
0.0960848
0.102779
0.109539
0.115607
0.120707
0.125086
0.12977
0.136972
0.151738
0.190579
0.332802
0.0554062
0.0449058
0.0495581
0.0552009
0.0607811
0.0658898
0.0703393
0.0740993
0.0773312
0.0805017
0.0842994
0.0893365
0.0955219
0.102423
0.109446
0.116042
0.122253
0.12865
0.136673
0.149375
0.174767
0.248759
0.633396
0.0628178
0.0468604
0.0507737
0.0560079
0.0611729
0.0659089
0.0700899
0.0737197
0.0769486
0.0801435
0.0839142
0.0889731
0.0955295
0.103086
0.110601
0.117868
0.125341
0.133871
0.14515
0.16276
0.196677
0.30258
1.3195
0.833077
2.20392
4.17247
5.46476
5.07661
4.64136
4.27896
3.97118
3.58356
3.26887
3.12326
3.12092
3.0423
2.88106
2.72668
2.61249
2.40111
1.96876
1.28153
0.631943
1.57372
3.19217
3.27204
2.33943
1.77852
1.60463
1.59614
1.66533
1.64213
1.51775
1.44143
1.40935
1.40628
1.4147
1.41316
1.40658
1.42456
1.21294
0.695999
1.4578
1.9434
1.59565
1.28899
1.11405
1.05584
1.06134
1.09721
1.1165
1.09866
1.08619
1.09236
1.11952
1.16132
1.20573
1.24174
1.30606
1.69166
0.602196
1.27816
1.0979
0.963995
0.874112
0.829735
0.827009
0.8515
0.88995
0.922208
0.938024
0.953628
0.983474
1.03456
1.10714
1.19426
1.2565
1.31156
2.05662
0.520616
0.865073
0.782439
0.726611
0.696751
0.6932
0.712776
0.748868
0.794674
0.839149
0.871934
0.903834
0.951741
1.02579
1.12546
1.23348
1.31189
1.36959
2.30365
0.554132
0.756977
0.697144
0.639486
0.618805
0.626992
0.655182
0.697032
0.748084
0.800873
0.846274
0.891559
0.955035
1.04527
1.15237
1.25802
1.368
1.44962
2.42439
1.36323
0.946597
0.705066
0.60881
0.585411
0.597979
0.629908
0.673321
0.725005
0.78031
0.833459
0.889148
0.962337
1.05397
1.1602
1.27428
1.41941
1.52807
2.46071
2.35196
1.02696
0.689789
0.590074
0.572654
0.591239
0.626699
0.670408
0.720204
0.774247
0.829354
0.889616
0.963565
1.05267
1.16232
1.28584
1.45853
1.56434
2.39219
0.0701546
0.049067
0.0520758
0.0567526
0.0613706
0.0656347
0.0695165
0.0730892
0.0765227
0.0801201
0.084334
0.0896851
0.0965596
0.104952
0.113927
0.122827
0.132455
0.144312
0.160227
0.183429
0.222386
0.305623
0.565583
0.0769562
0.0513911
0.0535654
0.0576721
0.0617932
0.0657143
0.0695075
0.0733365
0.077428
0.0820774
0.087618
0.0943544
0.1025
0.112054
0.122548
0.133718
0.146398
0.16241
0.183425
0.210891
0.248472
0.306195
0.411165
0.080795
0.0533835
0.0551343
0.0588818
0.0627474
0.0666047
0.0705971
0.07496
0.0799857
0.0859869
0.0932809
0.102069
0.11242
0.124238
0.136982
0.150495
0.165381
0.183334
0.205389
0.232188
0.264822
0.305314
0.358022
0.0865572
0.0561941
0.057369
0.060768
0.0645133
0.0684972
0.0728774
0.077933
0.0840186
0.0915073
0.100764
0.111987
0.125143
0.13981
0.155343
0.171617
0.188912
0.207852
0.228653
0.251917
0.278037
0.307042
0.33918
0.0912524
0.0606854
0.0608959
0.0637238
0.0674241
0.0716922
0.0765818
0.0823682
0.0894466
0.0982793
0.109514
0.123255
0.139294
0.156573
0.174401
0.192827
0.211909
0.231445
0.251336
0.271827
0.293316
0.3164
0.342008
0.0881738
0.0656343
0.0654023
0.0682149
0.0721599
0.0767657
0.0820872
0.088469
0.0964444
0.106207
0.119224
0.13564
0.154619
0.174164
0.193
0.211597
0.231067
0.25074
0.270155
0.289523
0.309704
0.332627
0.359876
0.0917439
0.0713913
0.0683857
0.0704203
0.0745163
0.0797238
0.0859193
0.0933327
0.102371
0.113022
0.127866
0.14816
0.171589
0.195413
0.215458
0.229653
0.247455
0.266478
0.285807
0.305415
0.327518
0.357366
0.391956
0.10642
0.0798716
0.0730664
0.0717654
0.0738308
0.0783062
0.0847368
0.0926897
0.101009
0.11062
0.123432
0.141133
0.16217
0.184846
0.207567
0.230994
0.256477
0.278508
0.298472
0.317946
0.340855
0.372665
0.411099
0.118244
0.0835512
0.0759255
0.0734864
0.0741184
0.077208
0.0823749
0.0891939
0.0969984
0.105811
0.116677
0.130618
0.146955
0.165206
0.185589
0.208708
0.233679
0.256428
0.278027
0.299854
0.326418
0.364961
0.418074
0.129104
0.0859385
0.0776472
0.0751216
0.0753358
0.0776606
0.0818153
0.0875089
0.0943705
0.102242
0.11155
0.122944
0.136472
0.151949
0.169364
0.188945
0.210479
0.232738
0.255923
0.280583
0.308947
0.346625
0.399499
0.139033
0.0871762
0.0779577
0.075624
0.0760487
0.0783271
0.0821515
0.0873103
0.0935864
0.100846
0.109258
0.119202
0.130896
0.144346
0.159503
0.17635
0.194795
0.214737
0.236625
0.261273
0.290478
0.328653
0.382507
0.147912
0.0879499
0.0775631
0.0752304
0.0759087
0.0783904
0.0822671
0.0873292
0.0934182
0.100435
0.108439
0.117648
0.128254
0.140331
0.153864
0.168822
0.185223
0.203288
0.223638
0.247317
0.276262
0.314406
0.368386
0.155555
0.0884101
0.0768181
0.0742793
0.0750561
0.0777035
0.0817115
0.0868403
0.0929417
0.0999267
0.107802
0.116672
0.126658
0.137827
0.150189
0.163747
0.178606
0.195098
0.213906
0.236196
0.26403
0.301192
0.354
0.16196
0.0886509
0.0759456
0.0730752
0.0737857
0.0764665
0.0805311
0.0857075
0.0918403
0.0988356
0.106662
0.115347
0.124942
0.135477
0.146967
0.159445
0.173054
0.188152
0.205429
0.226086
0.252219
0.28748
0.337786
0.167257
0.088757
0.075087
0.0718379
0.0723688
0.0749574
0.0789659
0.084098
0.0901879
0.0971322
0.104872
0.113384
0.122665
0.132712
0.143526
0.155147
0.167725
0.181601
0.19743
0.21638
0.240486
0.2732
0.319959
0.17162
0.0887959
0.0743241
0.0707028
0.0709973
0.0734088
0.0772666
0.0822585
0.0882105
0.0950107
0.102582
0.110872
0.119842
0.129459
0.139712
0.150632
0.16235
0.175172
0.189695
0.207002
0.228992
0.258843
0.301471
0.175213
0.0888137
0.0736945
0.0697383
0.0697824
0.0719744
0.0756222
0.0804037
0.0861401
0.0927145
0.10004
0.108048
0.116678
0.125882
0.135633
0.145948
0.156931
0.168846
0.182217
0.19802
0.21797
0.244924
0.283248
0.178185
0.0888419
0.0732071
0.0689656
0.0687725
0.0707352
0.074147
0.0786799
0.0841526
0.0904465
0.0974708
0.105148
0.113411
0.1222
0.131475
0.141241
0.151575
0.162697
0.175058
0.189517
0.207591
0.231804
0.266014
0.180706
0.0889097
0.0728542
0.0683767
0.0679735
0.0697179
0.0728923
0.077165
0.082354
0.0883408
0.0950343
0.102355
0.110232
0.118599
0.127412
0.136661
0.146402
0.156814
0.168283
0.181549
0.197936
0.219652
0.25008
0.183097
0.0890787
0.072622
0.067949
0.0673667
0.0689145
0.0718649
0.0758838
0.0807895
0.0864651
0.0928206
0.0997773
0.107262
0.11521
0.12357
0.132322
0.141507
0.151271
0.161936
0.174138
0.189021
0.208499
0.235493
0.18523
0.0892385
0.0724844
0.0676549
0.066923
0.0682987
0.0710451
0.0748261
0.0794616
0.0848363
0.0908621
0.0974618
0.104563
0.112099
0.120018
0.128291
0.136947
0.146111
0.156041
0.167283
0.180812
0.198252
0.22213
0.186698
0.0892969
0.072371
0.0674511
0.0666097
0.0678386
0.070401
0.0739631
0.0783466
0.0834383
0.0891519
0.0954117
0.102146
0.109288
0.116781
0.124594
0.132741
0.141317
0.150549
0.160898
0.173189
0.188799
0.209887
0.187504
0.0892559
0.0722694
0.067307
0.0663855
0.0674916
0.0698915
0.0732547
0.0774059
0.082234
0.0876545
0.0935924
0.0999766
0.10674
0.113825
0.121194
0.128852
0.136871
0.145444
0.154959
0.166111
0.18006
0.198639
0.187711
0.089142
0.0721864
0.0672131
0.0662279
0.0672238
0.0694735
0.0726516
0.0765862
0.0811685
0.0863153
0.0919524
0.0980087
0.104416
0.111115
0.118065
0.125259
0.132754
0.140707
0.149443
0.159543
0.171977
0.188289
0.187421
0.0889984
0.0721437
0.067176
0.0661309
0.0670182
0.0691207
0.0721197
0.0758473
0.0801972
0.0850873
0.0904437
0.0961948
0.102271
0.108612
0.11517
0.121932
0.128938
0.136313
0.144326
0.153456
0.164508
0.178768
0.186767
0.0888841
0.0721767
0.067216
0.0661027
0.0668725
0.0688219
0.07164
0.0751636
0.0792887
0.0839345
0.0890269
0.0944935
0.100263
0.106272
0.112469
0.118833
0.125387
0.13223
0.139578
0.147823
0.157624
0.170035
0.185925
0.088874
0.0723342
0.067366
0.0661643
0.0667979
0.0685797
0.0712077
0.0745234
0.0784256
0.082834
0.0876744
0.0928731
0.0983572
0.104059
0.109924
0.115922
0.122063
0.12842
0.135165
0.142611
0.151292
0.162062
0.1851
0.0890592
0.0726774
0.0676704
0.0663477
0.0668168
0.0684086
0.0708304
0.0739285
0.0776036
0.081776
0.0863708
0.0913131
0.0965277
0.101944
0.107501
0.113163
0.118927
0.124843
0.131043
0.137777
0.145469
0.154799
0.18454
0.089549
0.073281
0.0681844
0.0666948
0.0669615
0.0683336
0.0705271
0.0733922
0.0768309
0.0807633
0.0851138
0.0898055
0.0947611
0.0999062
0.105177
0.110527
0.115944
0.12146
0.127171
0.133274
0.140099
0.148183
0.184533
0.0904721
0.0742327
0.0689731
0.0672561
0.0672724
0.0683882
0.0703263
0.0729387
0.0761272
0.079811
0.0839131
0.0883549
0.0930564
0.09794
0.102937
0.107995
0.11309
0.118237
0.123508
0.12905
0.135121
0.142137
0.185418
0.0919815
0.0756348
0.0701107
0.0680885
0.0677962
0.068613
0.0702643
0.0726009
0.0755222
0.0789451
0.0827906
0.0869779
0.0914249
0.0960505
0.100781
0.105559
0.110349
0.115154
0.120021
0.125062
0.130473
0.136576
0.1876
0.0942609
0.0776055
0.0716794
0.0692536
0.0685836
0.0690533
0.0703838
0.0724198
0.0750549
0.0782018
0.0817787
0.0857029
0.0898901
0.0942563
0.0987235
0.103227
0.107724
0.112204
0.116696
0.121281
0.126108
0.131422
0.191586
0.0975366
0.0802809
0.0737673
0.0708146
0.0696865
0.069757
0.0707323
0.072443
0.0747724
0.0776267
0.0809205
0.0845694
0.0884873
0.092588
0.0967894
0.10102
0.10523
0.109396
0.113533
0.117696
0.121997
0.126618
0.198043
0.102095
0.0838169
0.076464
0.0728306
0.0711536
0.0707723
0.0713606
0.0727243
0.0747302
0.0772752
0.0802695
0.0836275
0.0872629
0.091088
0.0950172
0.0989736
0.102898
0.106758
0.110553
0.11432
0.118137
0.12214
0.207908
0.108314
0.0883897
0.0798523
0.0753489
0.0730254
0.0721446
0.0723221
0.0733238
0.0749926
0.0772129
0.0798904
0.0829395
0.086275
0.08981
0.0934566
0.0971326
0.100771
0.104328
0.107794
0.111185
0.114554
0.117993
0.222597
0.116709
0.0941888
0.0839901
0.0783903
0.0753259
0.0739134
0.0736721
0.0743093
0.0756351
0.077519
0.0798624
0.0825815
0.0855956
0.0888206
0.0921691
0.0955545
0.0989021
0.10216
0.105307
0.108343
0.111292
0.114211
0.244458
0.12801
0.101388
0.088872
0.0819258
0.0780527
0.0761106
0.0754707
0.07576
0.076749
0.0782906
0.0802838
0.0826496
0.085315
0.0882034
0.0912307
0.0943087
0.0973561
0.100314
0.103152
0.105853
0.108413
0.110852
0.277778
0.143262
0.110047
0.0943486
0.0858388
0.0811666
0.0787623
0.0777886
0.0777748
0.0784493
0.0796514
0.0812812
0.0832681
0.0855515
0.088067
0.0907391
0.0934815
0.0962094
0.0988604
0.101397
0.103783
0.105983
0.107979
0.331363
0.163871
0.119822
0.0999653
0.0898733
0.0845889
0.0819021
0.0807234
0.0804867
0.0808891
0.0817655
0.0830232
0.0846047
0.086466
0.0885603
0.0908273
0.0931887
0.0955604
0.0978822
0.100112
0.102196
0.104061
0.105655
0.42737
0.191035
0.129134
0.104683
0.0935968
0.08823
0.0856074
0.0844303
0.0840883
0.0842812
0.0848578
0.0857417
0.086893
0.0882866
0.0898978
0.091689
0.093599
0.0955519
0.0974906
0.0993659
0.101138
0.102681
0.103913
0.649472
0.221187
0.13313
0.106593
0.0964926
0.0921036
0.0900805
0.0891776
0.0888734
0.0889332
0.0892473
0.0897658
0.0904678
0.0913467
0.0924
0.0936195
0.0949749
0.0964043
0.0978038
0.0991793
0.100585
0.101806
0.102719
1.6028
0.216296
0.120595
0.103472
0.0984857
0.0966068
0.0957955
0.0954374
0.0953077
0.095313
0.0954122
0.0955884
0.0958373
0.0961624
0.0965738
0.0970872
0.0977103
0.0983862
0.0985603
0.0991649
0.100145
0.101138
0.101876
2.13401
2.04448
2.13757
2.42893
0.565295
0.630302
0.674852
0.698627
0.404337
0.432995
0.455086
0.469219
0.364331
0.382339
0.400019
0.417812
0.363827
0.38135
0.401471
0.42529
0.38504
0.406504
0.432871
0.465829
0.424031
0.452792
0.489763
0.534882
0.449853
0.483741
0.528975
0.585312
0.467248
0.504127
0.54775
0.602808
0.454161
0.496723
0.547632
0.609549
0.440556
0.486165
0.540959
0.605898
0.42722
0.473385
0.528353
0.592742
0.411605
0.456453
0.509531
0.57137
0.392519
0.434854
0.484904
0.543204
0.37062
0.409783
0.45612
0.510146
0.347483
0.38308
0.425237
0.474478
0.324516
0.356394
0.394189
0.438414
0.302687
0.330936
0.364459
0.403749
0.282503
0.307417
0.336982
0.37172
0.264052
0.28594
0.311916
0.342486
0.247225
0.266391
0.289116
0.315894
0.231898
0.248639
0.268431
0.291741
0.2179
0.232486
0.249674
0.269871
0.205083
0.217744
0.232614
0.250044
0.193338
0.204272
0.217074
0.232047
0.182599
0.19198
0.202927
0.215707
0.172822
0.180812
0.190097
0.200914
0.163963
0.170721
0.178533
0.187602
0.155961
0.161647
0.168171
0.175706
0.148731
0.153498
0.158917
0.16513
0.142167
0.146157
0.150643
0.155739
0.136161
0.139498
0.143203
0.147365
0.130628
0.133411
0.13646
0.139843
0.125512
0.127818
0.130309
0.133037
0.120797
0.122684
0.124691
0.126859
0.1165
0.118014
0.119596
0.121275
0.112672
0.113848
0.11505
0.116298
0.109375
0.110246
0.111107
0.111974
0.10667
0.10727
0.10783
0.108365
0.104597
0.104966
0.105275
0.105538
0.103151
0.103352
0.103482
0.103549
0.102175
0.102292
0.102339
0.102324
1.18478
0.764897
0.615426
0.567663
0.572561
0.604836
0.647888
0.692686
0.738517
0.786759
0.837823
0.894922
0.961263
1.04578
1.1576
1.28133
1.44294
1.58805
2.00786
0.625029
0.560783
0.54657
0.567432
0.617081
0.682353
0.744691
0.790673
0.823476
0.850267
0.876737
0.90929
0.954485
1.02098
1.11245
1.20432
1.30203
1.48909
1.63685
0.47862
0.500308
0.545571
0.620093
0.723616
0.837622
0.925486
0.958091
0.954762
0.938576
0.925281
0.92533
0.943981
0.985136
1.0466
1.11029
1.16435
1.27578
1.3521
0.450052
0.510198
0.602211
0.73848
0.920005
1.11205
1.23
1.20354
1.12113
1.03762
0.974979
0.939776
0.931355
0.948275
0.983722
1.02195
1.04758
1.09797
1.16788
0.474123
0.570987
0.719343
0.944979
1.25662
1.59733
1.75081
1.53222
1.29912
1.12882
1.01727
0.951414
0.920854
0.918084
0.933755
0.953693
0.964085
0.983428
1.07984
0.537342
0.687212
0.916853
1.28712
1.81828
2.44999
2.60702
1.88458
1.44723
1.19266
1.04682
0.962109
0.917555
0.901722
0.904197
0.91264
0.915995
0.925657
1.06867
0.631661
0.84465
1.17772
1.65798
2.20383
2.59101
2.58143
2.1373
1.51016
1.21899
1.06482
0.975678
0.925777
0.903059
0.89759
0.89911
0.899578
0.910907
1.10719
0.695328
0.941638
1.29939
1.64616
1.92755
2.08914
2.12576
1.91658
1.46036
1.21775
1.07863
0.995156
0.946141
0.921367
0.911944
0.909499
0.908777
0.925127
1.16792
0.719379
0.971775
1.27837
1.53925
1.71405
1.81403
1.88573
1.76441
1.42789
1.22368
1.09804
1.02144
0.97606
0.952406
0.942109
0.937948
0.936687
0.956945
1.22862
0.733426
0.970951
1.229
1.43566
1.56894
1.68021
1.8219
1.73682
1.43958
1.24721
1.12569
1.05258
1.01101
0.989914
0.981015
0.977109
0.975652
0.996409
1.27296
0.730243
0.950928
1.17756
1.35653
1.48252
1.62395
1.8344
1.78277
1.48654
1.28717
1.16045
1.08538
1.0452
1.02664
1.02041
1.01842
1.0171
1.03409
1.28937
0.713488
0.920649
1.1302
1.30053
1.4342
1.60037
1.84984
1.85147
1.55872
1.34143
1.20142
1.11747
1.07337
1.05529
1.05147
1.05225
1.05127
1.06024
1.2698
0.686801
0.883587
1.0852
1.25749
1.40387
1.58556
1.85084
1.91892
1.65472
1.41272
1.25123
1.14994
1.09379
1.06981
1.06573
1.06852
1.06734
1.06454
1.20941
0.652298
0.839883
1.03737
1.21524
1.37322
1.56183
1.83498
1.99891
1.79198
1.51158
1.31807
1.18931
1.1107
1.07061
1.05768
1.05808
1.05501
1.03733
1.10787
0.611917
0.789635
0.982696
1.16465
1.32957
1.51646
1.79047
2.09792
1.99294
1.65183
1.41382
1.24674
1.13501
1.06729
1.0328
1.01838
1.0055
0.972319
0.973154
0.568006
0.73422
0.920324
1.10239
1.26889
1.44729
1.71081
2.13009
2.21224
1.84736
1.55189
1.33538
1.18144
1.0773
1.01131
0.970564
0.936799
0.88298
0.830519
0.523108
0.676234
0.852451
1.03029
1.19385
1.35707
1.58072
1.96751
2.37497
2.13649
1.74841
1.46824
1.26373
1.11842
1.01875
0.951965
0.903665
0.853615
0.824351
0.479539
0.618846
0.783212
0.953436
1.11134
1.25959
1.44053
1.73842
2.17624
2.39167
2.01999
1.65707
1.39115
1.20014
1.06832
0.98218
0.93356
0.919702
0.992556
0.439112
0.564543
0.71538
0.875467
1.02634
1.16297
1.31047
1.52643
1.85306
2.17166
2.23668
1.88934
1.56463
1.32097
1.15896
1.05768
1.01333
1.0382
1.24819
0.402004
0.513954
0.650885
0.799508
0.942436
1.07019
1.19463
1.3514
1.57342
1.82655
2.01034
2.0026
1.72581
1.45454
1.27956
1.16669
1.12957
1.17705
1.52115
0.368148
0.467443
0.590791
0.727489
0.861886
0.982432
1.0923
1.21245
1.36692
1.55042
1.71999
1.8099
1.75516
1.56246
1.38357
1.2846
1.26904
1.32318
1.78526
0.337337
0.424962
0.535469
0.660406
0.786047
0.900274
1.0011
1.10027
1.21565
1.35307
1.49551
1.60729
1.65089
1.6155
1.50386
1.36978
1.34605
1.47461
2.0548
0.309291
0.386206
0.48478
0.598515
0.715542
0.823969
0.918881
1.00624
1.09926
1.2076
1.32743
1.43966
1.52048
1.56007
1.54363
1.47846
1.43274
1.51342
2.29227
0.283824
0.350776
0.43829
0.541523
0.650334
0.75339
0.844125
0.924707
1.00477
1.09476
1.19806
1.30746
1.4097
1.49638
1.55638
1.57671
1.54834
1.49418
2.49009
0.260836
0.318312
0.395488
0.488843
0.589903
0.688015
0.775614
0.852228
0.924667
1.00303
1.09509
1.20293
1.32503
1.46262
1.61426
1.73955
1.69693
1.48999
2.35834
0.240084
0.28883
0.355981
0.43985
0.533494
0.627035
0.71222
0.786553
0.854482
0.925274
1.00935
1.116
1.2551
1.44171
1.68447
1.89792
1.80089
1.42539
2.09981
0.221383
0.262427
0.319636
0.394105
0.480373
0.569531
0.652833
0.726046
0.791457
0.8571
0.934624
1.03821
1.18679
1.40825
1.72492
2.02296
1.85273
1.32276
1.80628
0.204622
0.238827
0.286936
0.351464
0.430042
0.514658
0.596382
0.669381
0.733783
0.795953
0.86745
0.964821
1.11254
1.3474
1.7057
2.0924
1.84067
1.18824
1.47414
0.18972
0.21788
0.257878
0.312496
0.382398
0.461826
0.541893
0.615362
0.680105
0.740359
0.806408
0.89476
1.03106
1.25642
1.62608
2.04324
1.67726
1.05632
1.23186
0.176573
0.199463
0.232221
0.277814
0.337929
0.410858
0.488588
0.562824
0.629138
0.689213
0.751109
0.829329
0.946863
1.14126
1.47319
1.82094
1.43631
0.980975
1.17372
0.165023
0.183415
0.209808
0.247151
0.29783
0.362126
0.43603
0.510625
0.579381
0.641126
0.701074
0.770696
0.868498
1.02339
1.27412
1.52341
1.26383
0.981981
1.29077
0.154861
0.169495
0.190427
0.220367
0.262074
0.317102
0.38429
0.457788
0.52903
0.593944
0.654541
0.719093
0.802243
0.926273
1.11338
1.28657
1.18003
0.988901
1.49454
0.145865
0.157403
0.17376
0.197247
0.230609
0.276248
0.33477
0.403842
0.476257
0.544803
0.608087
0.671093
0.745153
0.84761
0.990552
1.11471
1.08833
0.949414
1.51505
0.137835
0.146832
0.159421
0.17745
0.203346
0.239784
0.288681
0.349789
0.419931
0.490853
0.557463
0.621088
0.68943
0.774344
0.878944
0.959277
0.943311
0.846316
1.33234
0.130625
0.137525
0.147031
0.160551
0.180042
0.207964
0.246801
0.297941
0.360635
0.430449
0.498984
0.563481
0.627266
0.696436
0.767959
0.80944
0.780653
0.695579
1.03529
0.124155
0.129302
0.136286
0.146142
0.160336
0.180851
0.210062
0.250136
0.301963
0.364474
0.431214
0.494728
0.553479
0.608023
0.651628
0.660659
0.615117
0.527907
0.71892
0.118406
0.122072
0.126987
0.133896
0.143842
0.15827
0.179067
0.208352
0.247834
0.297897
0.356632
0.415288
0.467323
0.508409
0.529875
0.515087
0.45754
0.370656
0.452631
0.113405
0.115818
0.119041
0.123605
0.130228
0.139889
0.153899
0.173877
0.201474
0.237742
0.282267
0.330949
0.373781
0.402842
0.408839
0.380908
0.320929
0.244491
0.271528
0.109214
0.110583
0.112443
0.115177
0.119269
0.125348
0.13424
0.146982
0.164729
0.188424
0.21813
0.251846
0.283181
0.301779
0.299003
0.268481
0.216096
0.158648
0.170444
0.105913
0.106455
0.107262
0.108622
0.110862
0.114375
0.11964
0.127232
0.137786
0.151821
0.169356
0.189155
0.207491
0.217364
0.210959
0.184836
0.146275
0.112455
0.138659
0.103583
0.103535
0.10361
0.104034
0.105036
0.10686
0.109768
0.114039
0.119935
0.127602
0.13685
0.146749
0.155031
0.157712
0.150226
0.130251
0.111169
0.119037
0.292221
0.102214
0.101896
0.101615
0.101574
0.101951
0.102912
0.104604
0.107149
0.110604
0.114894
0.119673
0.124127
0.126739
0.125262
0.117426
0.104869
0.10925
0.181077
1.45402
)
;

boundaryField
{
    leftWall
    {
        type            epsilonWallFunction;
        value           nonuniform List<scalar> 
50
(
0.0109735
0.013104
0.0218295
0.0305869
0.0392142
0.0477378
0.0554062
0.0628178
0.0701546
0.0769562
0.080795
0.0865572
0.0912524
0.0881738
0.0917439
0.10642
0.118244
0.129104
0.139033
0.147912
0.155555
0.16196
0.167257
0.17162
0.175213
0.178185
0.180706
0.183097
0.18523
0.186698
0.187504
0.187711
0.187421
0.186767
0.185925
0.1851
0.18454
0.184533
0.185418
0.1876
0.191586
0.198043
0.207908
0.222597
0.244458
0.277778
0.331363
0.42737
0.649472
1.6028
)
;
    }
    rightWall
    {
        type            epsilonWallFunction;
        value           nonuniform List<scalar> 
50
(
1.28153
1.21294
1.69166
2.05662
2.30365
2.42439
2.46071
2.39219
2.00786
1.63685
1.3521
1.16788
1.07984
1.06867
1.10719
1.16792
1.22862
1.27296
1.28937
1.2698
1.20941
1.10787
0.973154
0.830519
0.824351
0.992556
1.24819
1.52115
1.78526
2.0548
2.29227
2.49009
2.35834
2.09981
1.80628
1.47414
1.23186
1.17372
1.29077
1.49454
1.51505
1.33234
1.03529
0.71892
0.452631
0.271528
0.170444
0.138659
0.292221
1.45402
)
;
    }
    lowerWall
    {
        type            epsilonWallFunction;
        value           nonuniform List<scalar> 
62
(
0.0109735
0.0413519
0.0758499
0.105539
0.133738
0.160123
0.183928
0.204262
0.220365
0.232825
0.243086
0.251343
0.258251
0.264497
0.269862
0.272782
0.270951
0.260964
0.239144
0.202765
0.150623
0.0900991
0.0407145
0.0407145
0.05976
0.0945894
0.135981
0.200452
0.332802
0.633396
1.3195
2.13401
2.04448
2.13757
2.42893
0.833077
0.631943
0.695999
0.602196
0.520616
0.554132
1.36323
2.35196
0.833077
2.20392
4.17247
5.46476
5.07661
4.64136
4.27896
3.97118
3.58356
3.26887
3.12326
3.12092
3.0423
2.88106
2.72668
2.61249
2.40111
1.96876
1.28153
)
;
    }
    atmosphere
    {
        type            inletOutlet;
        inletValue      uniform 0.1;
        value           nonuniform List<scalar> 
46
(
0.1
0.1
0.1
0.1
0.1
0.1
0.1
0.1
0.1
0.1
0.1
0.1
0.1
0.1
0.1
0.1
0.1
0.1
0.0985603
0.0991649
0.100145
0.101138
0.101876
0.102175
0.102292
0.102339
0.102324
0.102214
0.101896
0.101615
0.101574
0.101951
0.102912
0.104604
0.107149
0.110604
0.114894
0.119673
0.124127
0.126739
0.125262
0.117426
0.1
0.1
0.1
0.1
)
;
    }
    defaultFaces
    {
        type            empty;
    }
}


// ************************************************************************* //
