/*--------------------------------*- C++ -*----------------------------------*\
  =========                 |
  \\      /  F ield         | OpenFOAM: The Open Source CFD Toolbox
   \\    /   O peration     | Website:  https://openfoam.org
    \\  /    A nd           | Version:  13
     \\/     M anipulation  |
\*---------------------------------------------------------------------------*/
FoamFile
{
    format      ascii;
    class       volScalarField;
    location    "0.6";
    object      k;
}
// * * * * * * * * * * * * * * * * * * * * * * * * * * * * * * * * * * * * * //

dimensions      [0 2 -2 0 0 0 0];

internalField   nonuniform List<scalar> 
2268
(
0.00188342
0.00455902
0.00682992
0.00851178
0.0099671
0.0112376
0.0123238
0.0132136
0.0138956
0.0144171
0.0148383
0.0151731
0.0154515
0.0157026
0.015917
0.0160336
0.015967
0.0155747
0.014695
0.0131641
0.0107979
0.00767454
0.00451926
0.00349307
0.00946572
0.0139078
0.0175902
0.0207461
0.0234775
0.0258158
0.0277706
0.0293593
0.0306535
0.0317112
0.0326512
0.033555
0.0344571
0.0352836
0.0358578
0.035916
0.0352005
0.0334757
0.0304667
0.0258408
0.0192515
0.00961126
0.00491019
0.0116104
0.0173337
0.0221029
0.0261611
0.0296427
0.0326073
0.035091
0.0371475
0.0388704
0.0403717
0.0417919
0.0432072
0.044605
0.0458601
0.0467144
0.0469038
0.0462016
0.0443889
0.0411393
0.0359346
0.0276782
0.013068
0.00615138
0.0135072
0.0201048
0.0255779
0.0302232
0.0341947
0.0375653
0.0403889
0.0427483
0.0447576
0.046578
0.0483752
0.0502137
0.0520354
0.0536455
0.0547602
0.0551745
0.0547294
0.0532489
0.0503712
0.0452673
0.0359661
0.0166955
0.00726214
0.015687
0.0228681
0.028778
0.0338189
0.0381374
0.0417981
0.0448599
0.0474254
0.0496319
0.0516864
0.0537795
0.0559691
0.0581698
0.0601116
0.0615277
0.0622912
0.0623325
0.0615382
0.0595358
0.0551836
0.0455807
0.0217363
0.00828135
0.0181774
0.0256599
0.0318258
0.0371496
0.0417401
0.0456336
0.0488768
0.051576
0.0539143
0.0561549
0.058519
0.0610358
0.0635717
0.0658457
0.0676363
0.0688952
0.0696479
0.0698633
0.0692177
0.0664043
0.0579274
0.0306193
0.0091493
0.0204027
0.0280464
0.0343969
0.0399323
0.0447442
0.0488533
0.0522895
0.0551471
0.0576523
0.0601139
0.0628082
0.0656984
0.068594
0.0712328
0.0734703
0.0753602
0.0770192
0.0785023
0.0796063
0.0791141
0.0738681
0.0470311
0.00995799
0.0220314
0.0298602
0.0363611
0.042045
0.047025
0.0513389
0.0550261
0.0581767
0.0609847
0.0637243
0.0667114
0.0700306
0.0734533
0.0765472
0.0793066
0.0819295
0.084624
0.0875191
0.0905691
0.0928558
0.0927016
0.0764276
0.034571
0.0657663
0.100212
0.118994
0.112778
0.105932
0.100515
0.0958906
0.0898138
0.0843133
0.081276
0.0809953
0.0798844
0.0771386
0.0742221
0.0719176
0.0679084
0.0594042
0.0443601
0.0505379
0.11927
0.223649
0.229273
0.193156
0.169164
0.162367
0.162354
0.16488
0.158079
0.154733
0.155444
0.154203
0.149305
0.144263
0.14171
0.13424
0.11676
0.076674
0.0536461
0.146092
0.198855
0.188708
0.182336
0.181005
0.18314
0.186168
0.189036
0.189607
0.191527
0.193365
0.193396
0.191048
0.188108
0.185237
0.175455
0.152183
0.0959014
0.0486122
0.143216
0.154933
0.166825
0.178679
0.188712
0.197078
0.203957
0.209746
0.214352
0.2182
0.22083
0.222126
0.222087
0.221339
0.219406
0.207603
0.177332
0.10935
0.0440176
0.111244
0.13782
0.162995
0.182766
0.197871
0.209792
0.21958
0.22809
0.235507
0.240888
0.244282
0.2467
0.248615
0.249312
0.246161
0.231672
0.196264
0.118148
0.0459132
0.100781
0.140755
0.170121
0.192015
0.209003
0.222762
0.234371
0.244761
0.254012
0.260763
0.265006
0.268365
0.271052
0.270502
0.263751
0.248713
0.210483
0.122613
0.0836212
0.122523
0.156845
0.183351
0.204442
0.221831
0.23638
0.248744
0.25978
0.269592
0.27706
0.281944
0.285532
0.286872
0.284215
0.275594
0.260396
0.219919
0.124415
0.120064
0.149623
0.176296
0.198825
0.2186
0.236083
0.251045
0.263563
0.27437
0.283764
0.290913
0.295579
0.298087
0.29761
0.293655
0.283444
0.266965
0.221634
0.122646
0.0107264
0.0238529
0.0320478
0.038807
0.044724
0.0499679
0.0546208
0.0587508
0.0624461
0.065867
0.0692277
0.0727619
0.0766314
0.080806
0.0848885
0.0886921
0.0925663
0.0969619
0.102099
0.107889
0.113937
0.119844
0.123146
0.0114182
0.025577
0.0342983
0.0414436
0.0477134
0.0533557
0.0585137
0.0633038
0.0678363
0.0722496
0.0767087
0.0813449
0.0862378
0.0913742
0.0965852
0.10185
0.107557
0.114273
0.122215
0.131076
0.140566
0.150671
0.161753
0.0117999
0.026862
0.0361566
0.0437524
0.0504531
0.0565779
0.0623224
0.0678497
0.073311
0.0788395
0.0845904
0.090633
0.0969639
0.103519
0.110094
0.116718
0.123717
0.131721
0.140829
0.150851
0.161561
0.172718
0.184537
0.0123697
0.0281134
0.037919
0.0459754
0.0531593
0.0598317
0.0662172
0.0725144
0.0789158
0.0855858
0.0926799
0.100259
0.108245
0.116405
0.124477
0.132503
0.140711
0.149364
0.158432
0.168032
0.178134
0.188565
0.199365
0.0128068
0.0293598
0.0396899
0.0482005
0.0559321
0.0632288
0.0702978
0.0773519
0.084611
0.0922882
0.100671
0.109744
0.119329
0.128894
0.138159
0.147225
0.156254
0.165252
0.174224
0.183286
0.192604
0.202423
0.21311
0.0125118
0.0294636
0.0407206
0.0501779
0.0587727
0.0668305
0.0746036
0.082367
0.0904219
0.0988393
0.108327
0.118876
0.129981
0.140709
0.150555
0.15974
0.168975
0.178136
0.187115
0.196073
0.205436
0.215964
0.228104
0.0127792
0.0280827
0.0397262
0.0499745
0.0594844
0.068497
0.0772392
0.0859664
0.0949182
0.104058
0.114639
0.127162
0.140349
0.153003
0.16348
0.170835
0.17944
0.188474
0.197598
0.206885
0.217337
0.230851
0.245888
0.0140881
0.0304762
0.040908
0.0501673
0.0591224
0.0680779
0.0771857
0.0863984
0.0951912
0.104036
0.113902
0.125546
0.138047
0.150581
0.162441
0.173919
0.185946
0.196426
0.205984
0.215379
0.226329
0.240737
0.257251
0.0151218
0.0324342
0.0429903
0.0517574
0.0600151
0.0682704
0.0767296
0.0853742
0.0939449
0.102483
0.111545
0.121614
0.132265
0.143231
0.154605
0.166638
0.179133
0.190394
0.200949
0.211516
0.224075
0.241213
0.263065
0.0160434
0.0342065
0.0453041
0.054091
0.0620253
0.0697446
0.0775412
0.0854858
0.093491
0.101522
0.109828
0.118737
0.128233
0.13819
0.148595
0.159568
0.171073
0.182554
0.194105
0.206034
0.219404
0.236343
0.258415
0.0168636
0.0356762
0.0471985
0.0561878
0.0641232
0.0716542
0.0791052
0.0866075
0.0941704
0.101785
0.109571
0.117738
0.126383
0.135491
0.145029
0.154997
0.165363
0.176074
0.187324
0.199487
0.213358
0.230611
0.253209
0.0175801
0.0369122
0.0486674
0.0578059
0.0658178
0.0733291
0.0806569
0.0879536
0.0952726
0.102633
0.110105
0.117822
0.125887
0.13433
0.143137
0.152291
0.161799
0.171759
0.182453
0.194341
0.20823
0.225558
0.248299
0.0181852
0.0379168
0.049752
0.0589346
0.0669799
0.0744936
0.0817772
0.0889836
0.0961818
0.103404
0.110699
0.118147
0.125821
0.133758
0.141958
0.150422
0.159196
0.16844
0.178475
0.189821
0.203321
0.220332
0.242723
0.0186844
0.0387215
0.0505349
0.0596686
0.0676733
0.0751455
0.0823746
0.0895093
0.0966222
0.103749
0.11092
0.11818
0.125569
0.133109
0.140809
0.148683
0.156807
0.165359
0.174677
0.18531
0.19812
0.214418
0.235959
0.0190922
0.0393701
0.0511041
0.0601266
0.0680265
0.0754003
0.0825312
0.0895646
0.0965732
0.103591
0.110636
0.117726
0.124875
0.13209
0.139375
0.146753
0.154306
0.162216
0.170814
0.180648
0.192573
0.207848
0.228116
0.0194249
0.0399032
0.0515335
0.0604128
0.0681669
0.0753969
0.082385
0.0892757
0.0961412
0.103013
0.109903
0.116811
0.123732
0.13066
0.137592
0.14455
0.15161
0.158941
0.166857
0.175878
0.186825
0.200887
0.219594
0.0196968
0.0403509
0.0518757
0.0606039
0.0681942
0.0752544
0.0820683
0.0887816
0.0954676
0.102158
0.108858
0.115561
0.122251
0.12891
0.135528
0.14212
0.14875
0.155568
0.162856
0.171096
0.181048
0.193818
0.210814
0.0199203
0.0407318
0.0521627
0.0607483
0.0681749
0.0750572
0.081682
0.0881977
0.0946798
0.101161
0.107647
0.114125
0.120574
0.126971
0.133297
0.139558
0.145805
0.152163
0.158881
0.16639
0.175382
0.186864
0.202137
0.0201089
0.0410546
0.0524103
0.0608708
0.0681456
0.0748559
0.0812913
0.0876033
0.0938709
0.100129
0.106386
0.112627
0.11883
0.124965
0.131012
0.136965
0.14286
0.1488
0.154998
0.161831
0.169917
0.180163
0.193765
0.0202869
0.0413173
0.0526229
0.0609793
0.0681209
0.0746739
0.0809298
0.0870436
0.0930981
0.0991321
0.105155
0.111156
0.11711
0.122988
0.128762
0.134421
0.139986
0.145539
0.151257
0.157466
0.164706
0.173789
0.185791
0.0204462
0.0415518
0.0528005
0.0610715
0.0680999
0.074516
0.080608
0.0865359
0.092387
0.0982039
0.103999
0.109763
0.115474
0.121099
0.126608
0.131983
0.137234
0.142426
0.147696
0.153324
0.159775
0.167755
0.178237
0.0205561
0.0417387
0.0529529
0.0611564
0.0680888
0.0743785
0.0803217
0.0860793
0.0917414
0.097354
0.102933
0.108471
0.113947
0.119328
0.124582
0.129684
0.134633
0.139473
0.144319
0.149402
0.155116
0.16207
0.171126
0.0206171
0.0418691
0.0530627
0.0612153
0.0680688
0.0742516
0.0800627
0.0856656
0.0911533
0.0965753
0.10195
0.107274
0.112526
0.117675
0.122684
0.127525
0.132187
0.136697
0.141145
0.145718
0.150746
0.156746
0.16447
0.0206339
0.0419449
0.0531259
0.0612393
0.0680268
0.0741165
0.0798092
0.0852711
0.0905986
0.0958445
0.10103
0.106155
0.111198
0.116128
0.120909
0.125506
0.129901
0.134106
0.138185
0.142288
0.146683
0.151802
0.158289
0.0206139
0.0419744
0.0531476
0.0612288
0.067958
0.0739629
0.0795461
0.0848771
0.0900558
0.0951382
0.100149
0.105089
0.10994
0.11467
0.119242
0.123617
0.127768
0.131696
0.135442
0.139118
0.142939
0.147256
0.152612
0.020567
0.041972
0.0531404
0.0611928
0.0678664
0.0737891
0.0792666
0.084472
0.0895089
0.0944371
0.0992845
0.104054
0.108728
0.113277
0.11766
0.121836
0.125772
0.129454
0.132906
0.136208
0.139521
0.143128
0.147467
0.0205058
0.0419576
0.0531243
0.0611482
0.0677644
0.0736028
0.0789729
0.0840525
0.0889498
0.0937285
0.0984198
0.103029
0.107541
0.111924
0.116138
0.120139
0.123887
0.12736
0.130562
0.133543
0.136424
0.139419
0.142877
0.0204454
0.0419572
0.0531266
0.0611201
0.0676733
0.0734201
0.0786758
0.0836241
0.0883785
0.0930073
0.0975453
0.102
0.106359
0.11059
0.114653
0.118501
0.122089
0.125385
0.12838
0.1311
0.133626
0.136115
0.138835
0.020404
0.042003
0.0531821
0.061142
0.0676227
0.0732659
0.078395
0.0832009
0.0878035
0.0922765
0.0966585
0.100961
0.105171
0.109259
0.113184
0.116896
0.120348
0.123499
0.126329
0.128843
0.13109
0.13318
0.135309
0.0204028
0.0421337
0.0533334
0.061255
0.0676506
0.0731736
0.0781585
0.0828056
0.0872422
0.0915478
0.0957656
0.0999099
0.103971
0.10792
0.111714
0.115304
0.118638
0.121671
0.124372
0.12673
0.128769
0.130559
0.132237
0.0204667
0.0423954
0.0536313
0.061509
0.0678029
0.0731845
0.0780027
0.0824691
0.0867198
0.0908409
0.0948806
0.0988566
0.102762
0.106568
0.110235
0.113709
0.116939
0.119873
0.122473
0.124718
0.126609
0.128187
0.12954
0.0206251
0.0428425
0.0541356
0.0619623
0.0681338
0.0733476
0.0779712
0.0822299
0.0862695
0.0901835
0.0940254
0.097817
0.101554
0.10521
0.108744
0.112103
0.115234
0.118082
0.120603
0.122766
0.124558
0.125995
0.127128
0.0209137
0.0435401
0.0549164
0.0626822
0.0687054
0.0737191
0.0781148
0.0821334
0.0859318
0.0896109
0.0932299
0.096815
0.100365
0.103855
0.107246
0.110486
0.113517
0.116284
0.118738
0.120841
0.12257
0.123921
0.124916
0.0213777
0.0445669
0.0560565
0.0637461
0.0695875
0.074362
0.0784904
0.0822316
0.0857538
0.0891654
0.0925315
0.0958826
0.0992208
0.102525
0.105756
0.108863
0.111787
0.114471
0.116863
0.118921
0.120612
0.121916
0.122834
0.0220776
0.046023
0.0576556
0.0652426
0.0708574
0.0753446
0.07916
0.0825817
0.0857887
0.0888964
0.0919751
0.0950596
0.098156
0.101247
0.104294
0.107249
0.110051
0.112644
0.114974
0.116994
0.118664
0.11995
0.120833
0.0231002
0.048041
0.0598368
0.0672741
0.0725992
0.076739
0.0801886
0.0832446
0.086095
0.0888601
0.0916138
0.0943949
0.0972137
0.100057
0.10289
0.105665
0.108325
0.110811
0.113071
0.115056
0.116718
0.118009
0.118888
0.0245818
0.0508097
0.062758
0.0699583
0.074902
0.0786181
0.0816418
0.0842839
0.086736
0.0891195
0.0915095
0.0939477
0.0964484
0.0990032
0.101583
0.104144
0.10663
0.108987
0.111164
0.113115
0.114783
0.1161
0.117001
0.0267581
0.0546177
0.0666275
0.073428
0.0778542
0.0810503
0.0835824
0.0857633
0.087779
0.0897454
0.0917352
0.0937904
0.0959291
0.0981484
0.100427
0.102726
0.104997
0.107191
0.109268
0.111187
0.112879
0.114247
0.115196
0.0300832
0.0599387
0.0717188
0.0778201
0.0815307
0.0840912
0.0860659
0.0877456
0.0892961
0.0908188
0.0923779
0.0940129
0.0957441
0.0975751
0.0994931
0.10147
0.103469
0.105452
0.107406
0.109302
0.111046
0.112499
0.113528
0.0356226
0.0675949
0.0783523
0.0832311
0.0859654
0.087772
0.0891382
0.0902949
0.0913683
0.0924347
0.0935439
0.0947286
0.096009
0.0973941
0.0988818
0.100459
0.102105
0.103813
0.105617
0.107516
0.10936
0.110937
0.112076
0.0470666
0.0789763
0.08671
0.0895991
0.0911077
0.092091
0.0928406
0.0934852
0.0940945
0.0947119
0.0953677
0.0960837
0.0968761
0.0977565
0.0987324
0.0998082
0.100991
0.102324
0.103963
0.105945
0.107951
0.109682
0.110937
0.0863495
0.0950842
0.0960604
0.096494
0.0967957
0.0970341
0.0972385
0.097428
0.0976166
0.0978154
0.0980332
0.0982781
0.0985571
0.098878
0.0992501
0.0996885
0.100223
0.10097
0.102529
0.10474
0.106924
0.108801
0.11016
0.105251
0.102273
0.105334
0.114692
0.169561
0.175628
0.182454
0.189939
0.193548
0.199834
0.205905
0.211701
0.207774
0.213962
0.220496
0.227582
0.222132
0.229161
0.237101
0.246238
0.23885
0.247488
0.257597
0.269555
0.259096
0.270112
0.283446
0.298776
0.272658
0.285185
0.300827
0.319111
0.281747
0.295
0.309832
0.327423
0.279139
0.294314
0.311423
0.330977
0.275246
0.291518
0.309904
0.33041
0.270714
0.287255
0.30581
0.326297
0.264827
0.281047
0.299165
0.319093
0.257211
0.27274
0.290096
0.309206
0.248095
0.262718
0.279101
0.297187
0.238055
0.251611
0.266847
0.283731
0.227649
0.240032
0.254006
0.269558
0.217306
0.228479
0.24114
0.255297
0.2073
0.217289
0.228652
0.24143
0.197752
0.206598
0.216703
0.228129
0.188701
0.196454
0.205348
0.21546
0.180179
0.186897
0.194626
0.203459
0.172198
0.177942
0.184569
0.192176
0.164778
0.169607
0.175197
0.181642
0.15795
0.161928
0.166549
0.171904
0.151756
0.154952
0.158676
0.163018
0.146229
0.148722
0.151634
0.155048
0.141381
0.143263
0.14546
0.148047
0.137192
0.138564
0.140155
0.14203
0.133602
0.134569
0.13567
0.13696
0.130521
0.131181
0.131908
0.132741
0.12784
0.128282
0.128736
0.129231
0.125451
0.125746
0.126012
0.126269
0.12326
0.123462
0.123604
0.123703
0.121198
0.121344
0.12141
0.121406
0.119225
0.119342
0.119364
0.119295
0.117335
0.11744
0.117438
0.11733
0.115548
0.115656
0.115645
0.115515
0.113917
0.114038
0.114029
0.113891
0.112516
0.11266
0.112664
0.112527
0.111437
0.111612
0.111636
0.11151
0.110709
0.11091
0.110959
0.110854
0.154006
0.179328
0.200701
0.220537
0.240085
0.258594
0.274564
0.287243
0.297194
0.30497
0.310297
0.312981
0.312628
0.309466
0.303263
0.289025
0.264876
0.213751
0.11015
0.200078
0.21362
0.231619
0.252441
0.275433
0.297912
0.316151
0.327754
0.33362
0.335313
0.333746
0.329627
0.323322
0.314923
0.303026
0.28086
0.244158
0.190922
0.0962186
0.221346
0.238617
0.261098
0.288645
0.319981
0.350129
0.371374
0.378391
0.374909
0.36571
0.353997
0.341515
0.328395
0.313978
0.295787
0.267505
0.223399
0.166554
0.0845212
0.240994
0.264503
0.295383
0.334464
0.379673
0.422297
0.446283
0.440131
0.419219
0.394521
0.370923
0.349698
0.329929
0.309985
0.286805
0.255021
0.209198
0.150799
0.0761132
0.264175
0.29642
0.339349
0.395616
0.462955
0.527788
0.553169
0.512087
0.46175
0.41849
0.383526
0.354835
0.329891
0.306095
0.280031
0.246972
0.201971
0.143684
0.0715338
0.2939
0.339188
0.398843
0.480883
0.581024
0.683543
0.701548
0.58144
0.494679
0.434262
0.391397
0.358162
0.330172
0.304242
0.276899
0.243884
0.200532
0.143197
0.0704267
0.329498
0.388655
0.467613
0.563365
0.655786
0.714351
0.708771
0.629926
0.509026
0.440552
0.395246
0.360769
0.331805
0.305147
0.277511
0.245025
0.203191
0.146901
0.0717317
0.352648
0.418173
0.499872
0.568866
0.616353
0.638628
0.640378
0.596614
0.500959
0.439883
0.396875
0.36336
0.334792
0.308315
0.280906
0.248991
0.208183
0.152521
0.0741733
0.362406
0.428834
0.499697
0.552396
0.581635
0.59411
0.601452
0.56998
0.493797
0.439239
0.398487
0.366154
0.338394
0.312476
0.285512
0.254077
0.213832
0.158322
0.0766985
0.36783
0.430374
0.49074
0.533157
0.555469
0.570798
0.590245
0.563535
0.493915
0.441295
0.400945
0.368881
0.341578
0.316115
0.289574
0.258522
0.218572
0.162945
0.078568
0.367558
0.426079
0.479689
0.5169
0.538473
0.560016
0.591795
0.570131
0.500497
0.446332
0.404427
0.371228
0.343408
0.31787
0.291487
0.260708
0.220991
0.165303
0.0792875
0.362743
0.418283
0.468439
0.504326
0.527965
0.554564
0.593406
0.580843
0.511883
0.454311
0.409252
0.37334
0.34354
0.316853
0.29007
0.259337
0.219907
0.164528
0.0785139
0.354422
0.407941
0.456877
0.493785
0.520516
0.550303
0.591857
0.591202
0.527783
0.46598
0.416441
0.376221
0.342683
0.313198
0.284848
0.253671
0.214506
0.159994
0.0760071
0.343191
0.395138
0.443939
0.482857
0.512643
0.544092
0.586945
0.603504
0.550997
0.483237
0.427849
0.381845
0.34283
0.308623
0.276771
0.243845
0.20467
0.151482
0.0716586
0.329577
0.379899
0.428689
0.469542
0.501727
0.533547
0.576704
0.618809
0.584796
0.508107
0.445593
0.392677
0.346937
0.306449
0.269157
0.232226
0.191267
0.139427
0.0656438
0.314237
0.362545
0.410853
0.452986
0.486765
0.518153
0.560358
0.62271
0.620146
0.542077
0.471578
0.410945
0.357945
0.310628
0.267031
0.224768
0.180214
0.127509
0.0590878
0.297919
0.343721
0.390856
0.433407
0.468019
0.498012
0.534759
0.593913
0.645397
0.590498
0.507731
0.438187
0.377693
0.323914
0.274672
0.227704
0.179954
0.126245
0.0592635
0.281347
0.324257
0.369606
0.411756
0.446628
0.475265
0.506122
0.553124
0.614712
0.631339
0.555126
0.475077
0.406476
0.346515
0.292764
0.242602
0.19304
0.138773
0.0674106
0.26513
0.304855
0.3478
0.388865
0.423649
0.451509
0.477875
0.51305
0.561714
0.600354
0.591999
0.518132
0.442905
0.376352
0.318901
0.266591
0.215915
0.160058
0.0786305
0.249466
0.285838
0.326027
0.365514
0.399898
0.427422
0.450992
0.477526
0.511905
0.546052
0.562215
0.541953
0.476825
0.407543
0.349168
0.295347
0.244165
0.184798
0.0897334
0.234464
0.267443
0.304677
0.342234
0.37591
0.403296
0.425501
0.446963
0.471887
0.498252
0.517501
0.51813
0.489296
0.433724
0.375348
0.323534
0.273586
0.208882
0.0999554
0.22018
0.249788
0.283969
0.319363
0.352057
0.37931
0.40105
0.420023
0.439718
0.460713
0.479019
0.487447
0.478563
0.449409
0.402077
0.344682
0.291979
0.232133
0.110015
0.206642
0.232921
0.264008
0.29709
0.328582
0.355607
0.377326
0.395312
0.41236
0.430079
0.447024
0.458665
0.459526
0.446381
0.415741
0.369831
0.315566
0.250276
0.11823
0.19392
0.216871
0.244832
0.275493
0.305615
0.332284
0.354148
0.37193
0.387782
0.403648
0.419592
0.433196
0.440614
0.438632
0.423449
0.391535
0.341674
0.260869
0.123951
0.182121
0.201694
0.226477
0.2546
0.283199
0.30938
0.331418
0.349379
0.364838
0.379773
0.395223
0.410525
0.423688
0.432496
0.433512
0.41712
0.365444
0.267771
0.119269
0.171319
0.187571
0.209033
0.234452
0.261346
0.286894
0.309071
0.327391
0.342896
0.357436
0.372664
0.389313
0.407193
0.425575
0.440996
0.436463
0.378519
0.263988
0.11055
0.161592
0.174728
0.192682
0.215166
0.240099
0.264817
0.287053
0.305817
0.321617
0.336046
0.351056
0.368345
0.389184
0.414316
0.441038
0.447594
0.38161
0.252557
0.0999835
0.153018
0.163272
0.177794
0.196958
0.219583
0.243181
0.26533
0.284562
0.300828
0.315327
0.330004
0.347055
0.368732
0.396967
0.43037
0.448496
0.373846
0.231753
0.0874615
0.145641
0.153302
0.164605
0.180242
0.200048
0.222098
0.243902
0.263562
0.280429
0.29518
0.309478
0.325559
0.346016
0.37369
0.409991
0.432618
0.345421
0.207789
0.0783107
0.139443
0.144858
0.153227
0.165456
0.181904
0.201807
0.222835
0.242757
0.260312
0.275543
0.289607
0.304393
0.322245
0.346003
0.378988
0.396169
0.31015
0.193342
0.0768548
0.134333
0.137893
0.1437
0.15274
0.165745
0.182695
0.202298
0.222112
0.240318
0.256254
0.270429
0.284177
0.29931
0.318036
0.34221
0.353022
0.287166
0.198683
0.0825151
0.130154
0.13226
0.135943
0.142145
0.151802
0.165419
0.182608
0.201662
0.22024
0.236973
0.251645
0.264996
0.278395
0.293655
0.311475
0.31769
0.275845
0.202392
0.0903313
0.126715
0.127737
0.129754
0.133575
0.140159
0.15035
0.164402
0.181605
0.19992
0.217241
0.232596
0.246088
0.258667
0.271779
0.285291
0.288129
0.260193
0.197097
0.0903813
0.123822
0.12407
0.124844
0.126783
0.130736
0.137651
0.148237
0.162496
0.179435
0.196708
0.212544
0.226325
0.23842
0.249587
0.258708
0.257473
0.233763
0.181225
0.0826829
0.121308
0.12102
0.120902
0.121429
0.123278
0.127314
0.134428
0.145158
0.159289
0.175402
0.191044
0.204792
0.216241
0.225289
0.230147
0.224714
0.201852
0.156753
0.0698257
0.119056
0.118401
0.117655
0.117164
0.117427
0.119135
0.123122
0.130166
0.1406
0.153964
0.168275
0.181229
0.191548
0.198257
0.199201
0.189974
0.167007
0.1274
0.0547639
0.116999
0.116092
0.114909
0.113698
0.112819
0.112774
0.114223
0.117904
0.124413
0.133829
0.145298
0.156349
0.164856
0.169077
0.166698
0.154615
0.131793
0.0973066
0.0402341
0.115126
0.114043
0.112552
0.110838
0.109161
0.107869
0.107431
0.108411
0.111379
0.116665
0.124001
0.131946
0.13789
0.139577
0.134706
0.12118
0.0995485
0.0706889
0.0285845
0.113467
0.112261
0.110553
0.10849
0.106266
0.104126
0.102381
0.101412
0.101628
0.103348
0.106555
0.110509
0.113332
0.112574
0.106155
0.0927721
0.0737469
0.0510373
0.0209314
0.112089
0.110801
0.108941
0.10664
0.104052
0.101356
0.0987618
0.0965064
0.0948392
0.0939613
0.0938913
0.0942302
0.0938708
0.0909599
0.0838567
0.0720426
0.0574798
0.0414071
0.0184136
0.111071
0.109733
0.107778
0.105327
0.102514
0.0994805
0.0963741
0.0933449
0.0905315
0.0880266
0.0858055
0.0836053
0.0807779
0.076293
0.0694797
0.0632968
0.0594434
0.0524233
0.0307047
0.110442
0.109105
0.10712
0.104609
0.101696
0.098503
0.0951467
0.0917315
0.0883373
0.0849941
0.0816399
0.0780618
0.0738542
0.0686478
0.064823
0.0826114
0.087729
0.0900344
0.0869608
)
;

boundaryField
{
    leftWall
    {
        type            kqRWallFunction;
        value           nonuniform List<scalar> 
50
(
0.00188342
0.00349307
0.00491019
0.00615138
0.00726214
0.00828135
0.0091493
0.00995799
0.0107264
0.0114182
0.0117999
0.0123697
0.0128068
0.0125118
0.0127792
0.0140881
0.0151218
0.0160434
0.0168636
0.0175801
0.0181852
0.0186844
0.0190922
0.0194249
0.0196968
0.0199203
0.0201089
0.0202869
0.0204462
0.0205561
0.0206171
0.0206339
0.0206139
0.020567
0.0205058
0.0204454
0.020404
0.0204028
0.0204667
0.0206251
0.0209137
0.0213777
0.0220776
0.0231002
0.0245818
0.0267581
0.0300832
0.0356226
0.0470666
0.0863495
)
;
    }
    rightWall
    {
        type            kqRWallFunction;
        value           nonuniform List<scalar> 
50
(
0.0443601
0.076674
0.0959014
0.10935
0.118148
0.122613
0.124415
0.122646
0.11015
0.0962186
0.0845212
0.0761132
0.0715338
0.0704267
0.0717317
0.0741733
0.0766985
0.078568
0.0792875
0.0785139
0.0760071
0.0716586
0.0656438
0.0590878
0.0592635
0.0674106
0.0786305
0.0897334
0.0999554
0.110015
0.11823
0.123951
0.119269
0.11055
0.0999835
0.0874615
0.0783107
0.0768548
0.0825151
0.0903313
0.0903813
0.0826829
0.0698257
0.0547639
0.0402341
0.0285845
0.0209314
0.0184136
0.0307047
0.0869608
)
;
    }
    lowerWall
    {
        type            kqRWallFunction;
        value           nonuniform List<scalar> 
62
(
0.00188342
0.00455902
0.00682992
0.00851178
0.0099671
0.0112376
0.0123238
0.0132136
0.0138956
0.0144171
0.0148383
0.0151731
0.0154515
0.0157026
0.015917
0.0160336
0.015967
0.0155747
0.014695
0.0131641
0.0107979
0.00767454
0.00451926
0.00451926
0.00961126
0.013068
0.0166955
0.0217363
0.0306193
0.0470311
0.0764276
0.105251
0.102273
0.105334
0.114692
0.034571
0.0505379
0.0536461
0.0486122
0.0440176
0.0459132
0.0836212
0.120064
0.034571
0.0657663
0.100212
0.118994
0.112778
0.105932
0.100515
0.0958906
0.0898138
0.0843133
0.081276
0.0809953
0.0798844
0.0771386
0.0742221
0.0719176
0.0679084
0.0594042
0.0443601
)
;
    }
    atmosphere
    {
        type            inletOutlet;
        inletValue      uniform 0.1;
        value           nonuniform List<scalar> 
46
(
0.1
0.1
0.1
0.1
0.1
0.1
0.1
0.1
0.1
0.1
0.1
0.1
0.1
0.1
0.1
0.1
0.1
0.1
0.102529
0.10474
0.106924
0.108801
0.11016
0.110709
0.11091
0.110959
0.110854
0.110442
0.109105
0.10712
0.104609
0.101696
0.098503
0.0951467
0.0917315
0.0883373
0.0849941
0.0816399
0.0780618
0.0738542
0.0686478
0.064823
0.1
0.1
0.1
0.1
)
;
    }
    defaultFaces
    {
        type            empty;
    }
}


// ************************************************************************* //
