/*--------------------------------*- C++ -*----------------------------------*\
  =========                 |
  \\      /  F ield         | OpenFOAM: The Open Source CFD Toolbox
   \\    /   O peration     | Website:  https://openfoam.org
    \\  /    A nd           | Version:  13
     \\/     M anipulation  |
\*---------------------------------------------------------------------------*/
FoamFile
{
    format      ascii;
    class       volScalarField;
    location    "0.6";
    object      nut;
}
// * * * * * * * * * * * * * * * * * * * * * * * * * * * * * * * * * * * * * //

dimensions      [0 2 -1 0 0 0 0];

internalField   nonuniform List<scalar> 
2268
(
2.90931e-05
4.52366e-05
5.53502e-05
6.17831e-05
6.68535e-05
7.09799e-05
7.43168e-05
7.69297e-05
7.88594e-05
8.03471e-05
8.15175e-05
8.24371e-05
8.32038e-05
8.39009e-05
8.44935e-05
8.48179e-05
8.46835e-05
8.36572e-05
8.12678e-05
7.69185e-05
6.96677e-05
5.88338e-05
4.51468e-05
8.38018e-05
0.000281475
0.000406992
0.000499965
0.000570553
0.000625014
0.000666659
0.000697509
0.000719295
0.000734143
0.000741364
0.000746333
0.00075186
0.000759483
0.000766263
0.000768806
0.00076413
0.000750165
0.00072359
0.00067597
0.000588702
0.000430473
0.000139121
9.94021e-05
0.000409539
0.000681835
0.000893493
0.00105862
0.0011884
0.00128928
0.00136533
0.00142058
0.00145856
0.0014825
0.00149998
0.00151549
0.0015305
0.00153911
0.00153538
0.00151667
0.00148042
0.00141846
0.00130806
0.00110471
0.000737469
0.000162488
0.00011134
0.000494783
0.000888225
0.00120437
0.00145713
0.00166051
0.00182257
0.00194837
0.00204326
0.00211122
0.00215889
0.00219516
0.0022249
0.00224876
0.00225867
0.00224958
0.00222061
0.0021686
0.00207885
0.001912
0.00158986
0.00100816
0.000184485
0.00012104
0.000587532
0.00107245
0.00146935
0.00179504
0.0020637
0.00228312
0.00245818
0.00259446
0.00269628
0.00277221
0.00283168
0.0028792
0.00291432
0.00292851
0.00291982
0.00288933
0.00283296
0.00272842
0.00251786
0.00208272
0.00127976
0.000212131
0.000129295
0.000707801
0.00125457
0.00170947
0.00209336
0.00241798
0.0026894
0.00291134
0.00308876
0.00322684
0.0033344
0.00342077
0.00348945
0.00353888
0.00356229
0.00356138
0.00353906
0.00349021
0.00338505
0.00314808
0.00261542
0.00158466
0.000253541
0.000135975
0.00083429
0.0014285
0.00192901
0.00236114
0.00273463
0.00305374
0.00332091
0.00353943
0.00371596
0.00385805
0.00397417
0.00406677
0.00413444
0.00417256
0.00418648
0.00418086
0.00414983
0.00405811
0.0038182
0.00322323
0.00197414
0.000314295
0.00014207
0.000932223
0.00158048
0.00212455
0.00260083
0.00301965
0.0033844
0.00369654
0.00395859
0.00417653
0.0043553
0.00450178
0.00462041
0.0047105
0.00476808
0.00480247
0.00481981
0.00481441
0.0047493
0.0045358
0.00394555
0.0025561
0.000398413
0.000129117
0.000176625
0.000216614
0.000233196
0.000225487
0.000217595
0.000212505
0.000208389
0.000202588
0.00019572
0.000190353
0.000189181
0.000188784
0.00018588
0.000181834
0.00017818
0.000172853
0.000161318
0.000138197
0.000363747
0.000813545
0.00141023
0.00144587
0.00143532
0.0014481
0.00147864
0.00148627
0.00146919
0.00136957
0.00141974
0.00150869
0.00151847
0.00142666
0.00132401
0.00127894
0.00115303
0.000861297
0.000436214
0.000372143
0.00131764
0.00183128
0.00200857
0.00232133
0.00264677
0.002859
0.00293899
0.00293118
0.00289795
0.00300497
0.00309807
0.00308157
0.00293423
0.00274225
0.00256123
0.00223123
0.00159592
0.000489304
0.000353179
0.00144423
0.00196774
0.0025983
0.00328717
0.00386281
0.00422675
0.00439679
0.00444902
0.00448401
0.00456812
0.00460234
0.00451523
0.00429076
0.0039825
0.00362778
0.00308709
0.00215788
0.000523267
0.000334949
0.00128748
0.00218482
0.00329071
0.00431476
0.00508335
0.00555736
0.00579461
0.00589205
0.00594854
0.00598946
0.00594208
0.0057552
0.00542296
0.00497048
0.00442128
0.00368207
0.00253123
0.000545358
0.000342377
0.00120758
0.00255769
0.00407312
0.00536239
0.00627025
0.00681652
0.00709249
0.00720738
0.0072508
0.00723142
0.00708929
0.00678695
0.00632581
0.00571469
0.00497672
0.00406963
0.00275058
0.000558101
0.000461642
0.00142729
0.00314017
0.00496969
0.0064257
0.00740632
0.0079834
0.00827036
0.00837748
0.00838278
0.0082891
0.00804624
0.00762477
0.00702732
0.00626618
0.00536434
0.00429935
0.00284856
0.000566144
0.000551616
0.00196192
0.00405518
0.00602946
0.0075102
0.00848415
0.00905081
0.00932547
0.00940718
0.00936004
0.00918394
0.00883869
0.00829943
0.00757258
0.00667718
0.00562329
0.00439782
0.00282608
0.000565921
0.000147602
0.0010436
0.00177502
0.00238824
0.00293335
0.00342367
0.00386252
0.00425027
0.00458631
0.00487346
0.00511445
0.00531288
0.00547344
0.00559937
0.00569265
0.00576393
0.00582212
0.00586331
0.00585531
0.00571124
0.00525366
0.00422949
0.00241317
0.000152473
0.00114566
0.00197653
0.00268035
0.00331575
0.00389891
0.00443328
0.00491793
0.00534895
0.00572387
0.0060442
0.00631162
0.00653001
0.00670598
0.00685106
0.00698187
0.00711191
0.0072363
0.00732879
0.00733216
0.00715694
0.0066727
0.00572702
0.000155102
0.0012165
0.002134
0.00292594
0.00365109
0.00432545
0.00495159
0.00552725
0.0060474
0.00650576
0.00690386
0.00724305
0.00752694
0.00776296
0.00796358
0.00814695
0.00832943
0.00851747
0.00869059
0.00882065
0.00887082
0.00879372
0.0085605
0.000159097
0.00126584
0.00225568
0.00313054
0.00394232
0.00470363
0.0054149
0.00607252
0.00667106
0.00720427
0.00767198
0.00807835
0.00842664
0.00872266
0.00897701
0.00920733
0.00943273
0.00966005
0.00987986
0.0100872
0.0102715
0.0104223
0.0105465
0.000161763
0.00127839
0.00232817
0.00328129
0.00417589
0.00501881
0.00580765
0.00653769
0.00720333
0.0077996
0.00832879
0.00879428
0.00920036
0.00954981
0.0098504
0.0101167
0.0103694
0.0106191
0.0108693
0.0111226
0.0113825
0.0116553
0.0119513
0.000159786
0.00119038
0.00228181
0.00332191
0.00430823
0.00523629
0.0061022
0.00690173
0.00762979
0.00827841
0.00885829
0.00937653
0.0098342
0.0102312
0.01057
0.0108533
0.0111211
0.0113899
0.011664
0.0119507
0.0122645
0.0126197
0.0130123
0.000160203
0.000994202
0.00207697
0.00319184
0.00427363
0.0052966
0.00624924
0.00712633
0.00792071
0.00862244
0.00925028
0.00982267
0.0103316
0.0107818
0.0111638
0.0114373
0.0117108
0.0119974
0.0122952
0.0126128
0.01298
0.0134213
0.0138829
0.000167851
0.00104658
0.0020613
0.00315623
0.00426097
0.00532671
0.00632767
0.00724807
0.00807376
0.00880595
0.00945975
0.0100512
0.0105761
0.0110401
0.0114414
0.0117852
0.012133
0.0124682
0.0127939
0.0131309
0.0135255
0.0139962
0.014488
0.00017405
0.00113317
0.00219076
0.0032808
0.00437359
0.00543307
0.0064324
0.00735463
0.00818888
0.00893345
0.00959747
0.0101908
0.0107139
0.0111762
0.0115914
0.0119743
0.0123588
0.0127228
0.0130715
0.0134283
0.0138437
0.0143482
0.0148976
0.000179431
0.00122538
0.00237898
0.00350532
0.00459599
0.00563719
0.00661414
0.00751586
0.00833577
0.00907269
0.00973186
0.0103207
0.0108443
0.0113109
0.0117336
0.0121283
0.012514
0.0128872
0.0132498
0.0136163
0.0140232
0.0145034
0.0150439
0.000184087
0.00131402
0.00257182
0.00375722
0.0048661
0.00589949
0.00685547
0.00773194
0.00852822
0.00924585
0.00988961
0.0104662
0.0109823
0.0114461
0.0118681
0.0122606
0.0126341
0.0129936
0.0133466
0.0137081
0.0141041
0.0145635
0.0150855
0.000188054
0.00139427
0.0027483
0.00399755
0.00513616
0.00617351
0.00711703
0.00797243
0.00874474
0.00943909
0.0100617
0.0106197
0.0111208
0.0115727
0.0119842
0.0123641
0.0127204
0.0130608
0.0133967
0.0137442
0.0141256
0.0145636
0.0150622
0.000191334
0.00146354
0.00290002
0.00420838
0.00537954
0.00642747
0.00736586
0.00820618
0.00895815
0.00963028
0.0102307
0.0107677
0.0112491
0.0116828
0.0120761
0.0124362
0.0127706
0.0130882
0.0134021
0.0137297
0.0140914
0.0145062
0.0149782
0.000193995
0.00152217
0.00302638
0.00438495
0.00558604
0.00664626
0.00758343
0.00841318
0.00914878
0.00980154
0.0103814
0.0108974
0.0113579
0.0117704
0.0121417
0.0124783
0.0127876
0.0130794
0.0133676
0.01367
0.0140062
0.0143932
0.0148346
0.000196141
0.00157171
0.00313033
0.0045292
0.00575502
0.00682611
0.00776317
0.0085848
0.00930694
0.00994304
0.0105045
0.0110011
0.0114413
0.0118324
0.0121809
0.0124931
0.0127765
0.013041
0.0133007
0.0135734
0.0138785
0.0142317
0.0146372
0.000197875
0.00161386
0.00321582
0.00464583
0.00589044
0.0069695
0.00790583
0.00872023
0.00943064
0.0100521
0.0105971
0.011076
0.0114974
0.0118685
0.0121954
0.0124842
0.0127422
0.0129793
0.0132091
0.013449
0.013718
0.0140318
0.0143959
0.000199281
0.00164995
0.00328651
0.00473994
0.00599779
0.00708155
0.00801575
0.00882291
0.00952246
0.0101307
0.0106608
0.0111238
0.0115282
0.0118809
0.0121881
0.0124553
0.0126895
0.0129
0.0130996
0.0133049
0.0135342
0.0138038
0.0141213
0.00020043
0.0016807
0.00334511
0.00481592
0.00608242
0.00716789
0.00809845
0.00889801
0.00958714
0.010183
0.0106996
0.0111481
0.0115371
0.0118736
0.0121629
0.0124107
0.0126229
0.0128081
0.0129779
0.0131477
0.0133353
0.0135573
0.0138239
0.000201394
0.00170615
0.00339329
0.004877
0.00614864
0.00723352
0.00815923
0.00895083
0.00962987
0.0102142
0.0107184
0.0111536
0.0115289
0.0118506
0.0121241
0.0123542
0.0125463
0.0127076
0.0128486
0.012983
0.0131277
0.0132997
0.0135119
0.000202299
0.00172478
0.00343182
0.00492521
0.00619951
0.00728231
0.00820243
0.00898601
0.00965536
0.0102289
0.0107216
0.0111449
0.0115076
0.0118162
0.0120755
0.0122897
0.0124633
0.0126023
0.0127154
0.0128151
0.0129167
0.0130371
0.0131921
0.000203122
0.00174129
0.00346157
0.00496158
0.00623677
0.00731694
0.00823123
0.00900704
0.00966734
0.010231
0.0107132
0.0111256
0.0114771
0.0117739
0.0120204
0.0122203
0.0123769
0.012495
0.0125817
0.0126476
0.0127067
0.0127755
0.0128715
0.000203697
0.00175584
0.00348705
0.00499043
0.00626406
0.0073394
0.00824763
0.00901623
0.00966836
0.0102231
0.0106959
0.0110986
0.01144
0.0117263
0.0119614
0.0121484
0.0122897
0.0123888
0.0124512
0.0124854
0.0125036
0.0125213
0.0125571
0.000204026
0.00176764
0.00350645
0.00501074
0.00628154
0.00735199
0.00825428
0.00901612
0.00966081
0.0102076
0.010672
0.0110661
0.0113986
0.0116757
0.011901
0.0120768
0.0122048
0.0122871
0.0123276
0.0123326
0.0123122
0.0122806
0.0122561
0.000204133
0.00177631
0.00351885
0.00502167
0.00628872
0.00735444
0.00825143
0.00900744
0.00964574
0.0101857
0.0106429
0.0110296
0.0113546
0.0116239
0.011841
0.0120075
0.0121244
0.0121924
0.0122137
0.0121928
0.0121373
0.0120594
0.0119763
0.000204055
0.00178168
0.0035238
0.00502273
0.00628521
0.00734645
0.00823895
0.00899021
0.00962334
0.0101576
0.0106089
0.0109895
0.0113084
0.0115715
0.0117821
0.0119414
0.0120495
0.0121061
0.0121118
0.0120689
0.0119828
0.0118632
0.0117254
0.000203838
0.00178376
0.00352123
0.00501383
0.00627093
0.0073279
0.00821669
0.00896422
0.0095933
0.0101232
0.0105697
0.0109455
0.0112597
0.0115182
0.0117241
0.0118784
0.0119804
0.0120288
0.0120227
0.0119627
0.0118517
0.0116967
0.0115104
0.000203545
0.00178275
0.00351144
0.00499538
0.00624628
0.00729908
0.00818471
0.0089293
0.0095552
0.0100816
0.0105244
0.0108965
0.0112072
0.0114626
0.0116658
0.0118173
0.011916
0.0119598
0.0119465
0.0118748
0.0117455
0.0115629
0.0113367
0.000203249
0.001779
0.00349516
0.00496835
0.00621228
0.00726083
0.00814356
0.00888557
0.00950875
0.0100322
0.010472
0.0108412
0.0111496
0.0114032
0.0116053
0.0117563
0.0118547
0.0118975
0.0118816
0.0118042
0.0116639
0.0114626
0.0112066
0.00020304
0.00177314
0.00347362
0.00493442
0.00617072
0.00721476
0.0080944
0.00883368
0.00945401
0.00997445
0.0104114
0.0107782
0.0110848
0.0113378
0.0115403
0.0116929
0.0117937
0.0118392
0.0118255
0.0117483
0.0116048
0.0113942
0.0111197
0.000203024
0.00176598
0.00344862
0.00489606
0.00612427
0.00716333
0.00803922
0.00877493
0.00939156
0.00990828
0.0103419
0.0107061
0.0110112
0.0112641
0.0114683
0.0116241
0.0117297
0.0117814
0.0117743
0.0117033
0.011564
0.0113536
0.0110724
0.000203323
0.00175865
0.00342261
0.00485664
0.00607667
0.00711009
0.00798096
0.00871144
0.0093226
0.00983401
0.0102629
0.0106236
0.0109269
0.0111798
0.0113862
0.0115466
0.011659
0.0117197
0.0117232
0.0116638
0.0115358
0.0113346
0.011058
0.00020408
0.00175251
0.00339872
0.00482062
0.00603289
0.00705982
0.00792367
0.00864627
0.00924912
0.00975254
0.0101746
0.0105301
0.0108302
0.0110826
0.0112912
0.0114567
0.0115774
0.0116492
0.0116668
0.0116236
0.0115132
0.0113293
0.0110678
0.000205466
0.00174925
0.00338091
0.00479366
0.00599931
0.00701866
0.00787266
0.0085835
0.0091739
0.00966546
0.0100772
0.0104248
0.0107199
0.0109703
0.0111803
0.0113508
0.0114803
0.0115648
0.0115989
0.0115758
0.0114882
0.0113287
0.0110913
0.000207684
0.00175091
0.00337414
0.00478291
0.00598399
0.00699436
0.00783452
0.00852828
0.00910058
0.009575
0.00997199
0.0103079
0.0105949
0.0108411
0.0110508
0.0112253
0.0113633
0.0114611
0.0115133
0.0115131
0.0114526
0.0113235
0.0111179
0.000210996
0.00175998
0.00338473
0.00479754
0.00599703
0.00699638
0.00781718
0.0084867
0.00903352
0.00948402
0.00986037
0.0101798
0.0104548
0.0106935
0.0109003
0.0110768
0.0112219
0.0113325
0.0114035
0.0114281
0.011398
0.011304
0.0111367
0.000215752
0.00177976
0.00342121
0.00484965
0.00605124
0.00703608
0.00782969
0.00846548
0.0089775
0.00939577
0.00974442
0.0100415
0.0102995
0.0105265
0.0107269
0.0109024
0.0110522
0.0111739
0.0112632
0.0113137
0.0113167
0.0112618
0.0111381
0.000222468
0.00181507
0.00349619
0.00495628
0.00616324
0.00712688
0.00788175
0.00847137
0.0089372
0.00931355
0.00962644
0.00989433
0.0101296
0.0103399
0.0105293
0.0106996
0.0108506
0.0109807
0.0110869
0.0111636
0.0112019
0.0111898
0.0111142
0.000231982
0.00187404
0.00363053
0.00514317
0.00635511
0.00728407
0.00798277
0.00850999
0.00891629
0.00924014
0.0095087
0.00974023
0.00994636
0.010134
0.0103069
0.0104667
0.0106138
0.0107484
0.0108694
0.010973
0.0110494
0.011084
0.0110606
0.000245803
0.00197313
0.00386343
0.00545227
0.00665663
0.00752368
0.00813971
0.00858408
0.00891628
0.00917707
0.00939309
0.00958116
0.00975151
0.00991003
0.0100598
0.0102025
0.0103394
0.0104732
0.0106071
0.0107402
0.0108596
0.0109459
0.0109789
0.000267232
0.00215257
0.00427863
0.00595577
0.00710607
0.00785847
0.00835331
0.00869102
0.00893506
0.00912393
0.00928071
0.00941917
0.00954733
0.0096697
0.00978872
0.00990607
0.0100245
0.0101509
0.0102979
0.01047
0.0106425
0.0107872
0.0108792
0.000306978
0.00253791
0.00508283
0.00677829
0.0077421
0.00828706
0.00861167
0.00882008
0.008966
0.00907795
0.0091717
0.00925616
0.00933645
0.00941545
0.00949489
0.00957655
0.00966487
0.00977469
0.00994593
0.0101855
0.0104272
0.0106351
0.0107832
0.000418679
0.00376193
0.00688657
0.00809878
0.00856213
0.0087717
0.0088833
0.00895141
0.00899833
0.00903451
0.00906537
0.00909391
0.00912188
0.00915032
0.00918006
0.00921236
0.00925199
0.00932585
0.0095992
0.00995649
0.0102745
0.0105341
0.0107206
0.000467198
0.000460451
0.000467155
0.000487407
0.0045774
0.00440433
0.00443955
0.00464756
0.00833827
0.0083004
0.00838459
0.0085963
0.0106642
0.0107763
0.0109386
0.0111567
0.0122059
0.0123936
0.0126024
0.0128312
0.0133349
0.0135608
0.0137964
0.0140382
0.0142484
0.0145022
0.0147638
0.0150203
0.0148734
0.0151315
0.0153972
0.0156581
0.0152902
0.0155363
0.015773
0.016006
0.0154409
0.0156946
0.0159388
0.0161744
0.0154769
0.0157322
0.0159784
0.0162162
0.0154388
0.0156878
0.0159302
0.016166
0.0153351
0.0155741
0.0158086
0.0160383
0.0151691
0.0153957
0.0156196
0.0158407
0.0149469
0.0151589
0.0153705
0.0155814
0.0146779
0.0148734
0.0150708
0.01527
0.0143727
0.0145496
0.0147308
0.0149163
0.0140408
0.0141968
0.0143593
0.0145286
0.0136905
0.0138226
0.0139632
0.0141127
0.0133289
0.0134344
0.0135499
0.0136761
0.0129628
0.013039
0.0131265
0.0132262
0.0125995
0.0126438
0.0127002
0.0127702
0.0122473
0.0122575
0.0122797
0.0123164
0.0119154
0.01189
0.0118757
0.0118757
0.0116136
0.0115525
0.0115006
0.0114615
0.011351
0.0112558
0.0111668
0.011088
0.0111355
0.0110094
0.0108858
0.0107688
0.0109718
0.0108199
0.0106663
0.0105148
0.0108613
0.01069
0.0105126
0.0103328
0.0108011
0.0106176
0.0104242
0.0102236
0.0107846
0.0105966
0.0103952
0.0101825
0.0108024
0.0106171
0.0104157
0.0101995
0.010843
0.0106669
0.0104727
0.0102612
0.0108943
0.0107328
0.010552
0.0103521
0.010944
0.0108017
0.0106394
0.0104569
0.0109812
0.0108617
0.0107219
0.0105612
0.0109971
0.0109031
0.0107888
0.0106534
0.0109863
0.0109198
0.0108331
0.0107252
0.010949
0.010911
0.0108526
0.0107729
0.0108931
0.0108826
0.0108513
0.0107981
0.010835
0.0108478
0.010839
0.0108075
0.0107961
0.0108229
0.0108274
0.0108086
0.00180168
0.00378388
0.0058907
0.00771109
0.00906048
0.00995041
0.010472
0.0107202
0.0107637
0.0106394
0.010343
0.00985127
0.00915072
0.00824192
0.00715028
0.00586752
0.00437604
0.00258936
0.000543852
0.00576423
0.00732371
0.00883372
0.0101076
0.0110645
0.011706
0.0120797
0.0122276
0.0121646
0.0119011
0.0114342
0.0107544
0.00985699
0.00874244
0.00742886
0.00589496
0.00412063
0.0022031
0.00050904
0.00921289
0.0102425
0.011246
0.0120924
0.0127345
0.013172
0.0134121
0.0134499
0.0132495
0.0128247
0.012189
0.011344
0.0102819
0.00900626
0.00752349
0.00580058
0.00385765
0.00195694
0.000475517
0.0116143
0.0123414
0.0130396
0.0136333
0.0141017
0.014433
0.0145733
0.0144858
0.0141081
0.0135003
0.0127003
0.0117113
0.0105189
0.00911989
0.00752565
0.00572749
0.00375985
0.001864
0.000446442
0.0132475
0.0138494
0.0144078
0.0149063
0.0153503
0.0156952
0.0157297
0.0154031
0.0147709
0.0139633
0.0130135
0.0119104
0.0106364
0.00918487
0.00755824
0.00575611
0.00380806
0.00188936
0.000426487
0.0144674
0.0150672
0.0156152
0.0161696
0.0167097
0.0171637
0.0169908
0.016145
0.0152178
0.0142308
0.0131707
0.0119999
0.0106928
0.00923866
0.00763173
0.00586555
0.00395109
0.0019937
0.000417708
0.015469
0.0160951
0.0167099
0.0172282
0.0175626
0.0177254
0.0175144
0.0167092
0.0154419
0.0143296
0.0132038
0.0120059
0.0107029
0.00927994
0.00772189
0.00600964
0.00413058
0.00213216
0.000418255
0.0160967
0.0167136
0.017307
0.0176925
0.0177376
0.01757
0.0173621
0.0167149
0.0154663
0.0143007
0.0131425
0.0119406
0.010662
0.00928535
0.0077875
0.00613493
0.00429215
0.00226308
0.000423959
0.0164315
0.0170316
0.0175793
0.0178416
0.0177632
0.0175118
0.0172649
0.0165715
0.015369
0.0141898
0.0130152
0.0118129
0.0105587
0.00922689
0.00778738
0.00619433
0.00439332
0.00235743
0.000430922
0.0166028
0.0171687
0.0176357
0.0178197
0.0176993
0.0174519
0.0172101
0.0164562
0.0152515
0.0140527
0.0128526
0.0116348
0.0103865
0.00908522
0.0076928
0.00615592
0.00440692
0.00239822
0.000436436
0.0166505
0.0171821
0.0175865
0.0177267
0.0176024
0.0173808
0.0171827
0.0164095
0.0151659
0.0139291
0.0126851
0.0114273
0.0101546
0.00885779
0.00749383
0.00600654
0.00432146
0.00237819
0.000438808
0.016598
0.0171037
0.017474
0.0176013
0.0174922
0.0172952
0.0171322
0.0164
0.0151292
0.0138478
0.0125467
0.0112258
0.00989575
0.00856218
0.00720197
0.00575246
0.00414008
0.00229784
0.000436917
0.0164609
0.0169507
0.0173114
0.0174507
0.0173694
0.0171895
0.0170336
0.016393
0.0151506
0.0138332
0.0124742
0.0110778
0.00966254
0.00825228
0.0068521
0.00541999
0.00387989
0.00216415
0.00042991
0.0162505
0.016731
0.0170984
0.017267
0.0172239
0.017059
0.0168969
0.0163987
0.0152478
0.0139038
0.0124993
0.0110337
0.00952363
0.00800697
0.00651821
0.00505768
0.00357349
0.00199091
0.000417149
0.0159758
0.0164495
0.0168309
0.0170372
0.0170399
0.016895
0.0167179
0.0164273
0.0154439
0.0140666
0.0126393
0.0111311
0.00954433
0.00791912
0.00631303
0.004766
0.00327446
0.0017994
0.000398519
0.015646
0.0161116
0.0165072
0.0167524
0.0168057
0.0166956
0.0165185
0.0163839
0.0156458
0.0143157
0.012897
0.0113817
0.00976033
0.00806096
0.00634571
0.00468477
0.00312013
0.0016572
0.000378345
0.0152703
0.0157238
0.016129
0.0164087
0.0165128
0.0164482
0.0162818
0.0161351
0.0157848
0.0146885
0.0132699
0.0117697
0.0101594
0.00844294
0.00666506
0.0049019
0.00322521
0.00168039
0.000383446
0.014856
0.0152911
0.0156979
0.0160041
0.0161542
0.0161393
0.0160041
0.0158391
0.0156271
0.0149991
0.0137302
0.0122583
0.0106891
0.0090044
0.00722064
0.00539314
0.00359247
0.00188455
0.000412044
0.0144074
0.014816
0.0152182
0.0155453
0.0157385
0.0157764
0.0156836
0.0155197
0.0153244
0.0149371
0.014102
0.0127883
0.0112837
0.00965028
0.00789744
0.00604754
0.00414053
0.00222084
0.000445803
0.0139326
0.0143073
0.0146976
0.0150393
0.0152717
0.0153637
0.0153232
0.0151864
0.0149891
0.014692
0.0141507
0.0131999
0.0118568
0.0102769
0.00857529
0.00672905
0.00475005
0.00261121
0.000476407
0.0134392
0.0137713
0.0141412
0.0144898
0.0147557
0.0149001
0.0149177
0.0148293
0.0146614
0.0144109
0.0140133
0.0133495
0.0122764
0.0108358
0.00916454
0.00733357
0.00530827
0.00296773
0.000503679
0.012934
0.013214
0.0135535
0.0138995
0.0141912
0.0143832
0.0144599
0.0144307
0.0143148
0.0141183
0.0138089
0.0133046
0.0124854
0.0112517
0.00967508
0.00780604
0.00570014
0.00328882
0.000530119
0.0124255
0.0126427
0.0129399
0.0132722
0.0135799
0.0138125
0.013945
0.0139772
0.0139217
0.0137853
0.0135485
0.0131514
0.0124992
0.011495
0.0100773
0.0083261
0.00625541
0.00372496
0.000548821
0.0119245
0.0120675
0.0123088
0.0126138
0.0129257
0.0131899
0.0133723
0.0134636
0.0134694
0.0133946
0.0132257
0.0129177
0.0123945
0.0115718
0.0103688
0.00875047
0.00678578
0.00409906
0.000555304
0.0114445
0.011502
0.0116723
0.0119341
0.0122361
0.0125207
0.0127453
0.0128908
0.0129556
0.0129413
0.0128374
0.012609
0.012193
0.01151
0.0104779
0.00900177
0.00708304
0.00433098
0.000542867
0.0110024
0.010963
0.0110471
0.0112473
0.0115224
0.0118139
0.012071
0.0122645
0.0123841
0.012427
0.0123833
0.012223
0.0118895
0.0113062
0.0103908
0.00903353
0.00716028
0.00440025
0.000523815
0.0106155
0.0104703
0.0104537
0.0105725
0.0108005
0.011082
0.0113596
0.0115931
0.0117623
0.0118579
0.0118675
0.0117616
0.0114863
0.0109705
0.0101491
0.00891303
0.00707406
0.0043399
0.000498097
0.0102986
0.0100458
0.00991493
0.00993361
0.0100909
0.0103415
0.010624
0.0108874
0.0110997
0.0112429
0.0112989
0.0112355
0.0109989
0.0105258
0.00977288
0.00865199
0.00683362
0.00406808
0.000467021
0.0100623
0.00970782
0.0094562
0.00935647
0.00941878
0.00961288
0.00988008
0.0101596
0.0104067
0.0105919
0.0106893
0.010661
0.0104509
0.010003
0.00930357
0.0082439
0.00640235
0.00367869
0.000448046
0.00991086
0.00946817
0.00909944
0.00886859
0.00881251
0.00892119
0.00914674
0.00942351
0.0096936
0.00991443
0.0100498
0.0100551
0.00987027
0.00944095
0.00877473
0.00775725
0.00602751
0.00342956
0.000452918
0.00984154
0.00933024
0.00885793
0.00849539
0.00830142
0.00829535
0.00844715
0.00869527
0.00897123
0.00921811
0.00938826
0.00943057
0.0092836
0.00889523
0.00827215
0.00736258
0.00587248
0.00361793
0.000474745
0.00984504
0.00928849
0.00873434
0.008252
0.00791355
0.00776634
0.00780951
0.00799514
0.0082519
0.00850929
0.00870728
0.00878892
0.00869479
0.00837873
0.00784233
0.00706019
0.00580336
0.00372801
0.000491374
0.00990716
0.00932964
0.00872042
0.00814107
0.00766668
0.00736465
0.00726621
0.00734999
0.00755288
0.00779628
0.00800718
0.0081216
0.00808124
0.00784291
0.00739508
0.00670277
0.00559853
0.00368253
0.000485259
0.010011
0.00943523
0.008799
0.00815244
0.00756475
0.00711179
0.00685077
0.00679397
0.00690049
0.00709471
0.00729333
0.00742257
0.00742056
0.00724021
0.00685335
0.00621961
0.0052136
0.00349258
0.000461805
0.010139
0.00958463
0.00894743
0.00826554
0.00759693
0.00701464
0.00658982
0.00636495
0.00633205
0.00643265
0.00658296
0.00669865
0.00670911
0.00655905
0.0062075
0.0056146
0.00469731
0.00317929
0.000423851
0.0102749
0.00975767
0.00914146
0.00845382
0.00774011
0.00706314
0.00649483
0.00609621
0.00589194
0.00585346
0.00591005
0.00597491
0.00596619
0.0058181
0.00548059
0.00491646
0.0040809
0.00276708
0.000375449
0.0104049
0.0099365
0.00935814
0.00868921
0.00796381
0.00723208
0.00655738
0.00600488
0.00562099
0.00541099
0.00532776
0.00529763
0.00523403
0.00506055
0.00471984
0.00417701
0.00341664
0.00229909
0.000321875
0.0105186
0.0101066
0.00957748
0.00894512
0.0082351
0.00748612
0.00674938
0.00608344
0.00554153
0.00515253
0.00490268
0.00473448
0.00457813
0.00435249
0.00399449
0.00346966
0.0027791
0.00183942
0.000270825
0.0106097
0.0102569
0.00978249
0.00919725
0.00852126
0.00778467
0.0070275
0.00629735
0.00564286
0.00510165
0.00468468
0.00436418
0.0040821
0.00377942
0.00339197
0.00288512
0.00226508
0.00147769
0.000231343
0.0106762
0.0103792
0.00995821
0.00942253
0.00878941
0.00808373
0.00733746
0.00658805
0.00587508
0.0052337
0.00468482
0.0042248
0.00382212
0.00342575
0.00299999
0.00252717
0.00203284
0.00137218
0.000220075
0.010719
0.0104672
0.0100901
0.00959718
0.00900467
0.00833493
0.00761531
0.00687656
0.00615029
0.00546527
0.00484203
0.00428683
0.003788
0.00332161
0.00289211
0.00276837
0.00286066
0.00207782
0.000290363
0.0107398
0.0105142
0.010163
0.0096961
0.00912974
0.0084855
0.00778898
0.00706792
0.00634977
0.00565878
0.00501245
0.00441827
0.00387332
0.00338592
0.0032206
0.00585699
0.00634027
0.004029
0.00046808
)
;

boundaryField
{
    leftWall
    {
        type            nutkWallFunction;
        Cmu             0.09;
        kappa           0.41;
        E               9.8;
        value           nonuniform List<scalar> 
50
(
3.23489e-06
8.49102e-06
9.91368e-06
1.10215e-05
1.29875e-05
1.5136e-05
1.58561e-05
1.64937e-05
1.70734e-05
1.75761e-05
1.78463e-05
1.82488e-05
1.89282e-05
1.39243e-05
1.41745e-05
1.53578e-05
1.62488e-05
1.70142e-05
1.76746e-05
1.82368e-05
1.87014e-05
1.90782e-05
1.93817e-05
1.96266e-05
1.98251e-05
1.9987e-05
2.01228e-05
2.02504e-05
2.0364e-05
2.04421e-05
2.04853e-05
2.04972e-05
2.04831e-05
2.04498e-05
2.04064e-05
2.03634e-05
2.0334e-05
2.03331e-05
2.03786e-05
2.0491e-05
2.06945e-05
2.10184e-05
2.14996e-05
2.21872e-05
2.31536e-05
2.45148e-05
2.64784e-05
2.94935e-05
3.49722e-05
4.94768e-05
)
;
    }
    rightWall
    {
        type            nutkWallFunction;
        Cmu             0.09;
        kappa           0.41;
        E               9.8;
        value           nonuniform List<scalar> 
50
(
1.37942e-05
3.85589e-05
4.29788e-05
4.55049e-05
4.68653e-05
4.75695e-05
4.82556e-05
4.7947e-05
4.57165e-05
5.04369e-05
4.84815e-05
4.6224e-05
4.49408e-05
4.46201e-05
4.49862e-05
4.56774e-05
4.63795e-05
4.68912e-05
4.70863e-05
4.68765e-05
4.61886e-05
4.49652e-05
4.32039e-05
4.11802e-05
4.1236e-05
4.37302e-05
4.69084e-05
4.98193e-05
5.25464e-05
6.30085e-05
5.67031e-05
5.77236e-05
5.67208e-05
5.47944e-05
5.23447e-05
4.92626e-05
4.74977e-05
5.20907e-05
5.41377e-05
5.68426e-05
5.68568e-05
5.42005e-05
4.94293e-05
4.3161e-05
3.61075e-05
2.93174e-05
2.3947e-05
2.194e-05
3.06564e-05
5.5689e-05
)
;
    }
    lowerWall
    {
        type            nutkWallFunction;
        Cmu             0.09;
        kappa           0.41;
        E               9.8;
        value           nonuniform List<scalar> 
62
(
3.23489e-06
4.84461e-06
5.82412e-06
6.43799e-06
6.91743e-06
7.30553e-06
7.61873e-06
7.86421e-06
8.04633e-06
8.18233e-06
8.29022e-06
8.37478e-06
8.44435e-06
8.50649e-06
8.55912e-06
8.58758e-06
8.57135e-06
8.47491e-06
8.25369e-06
7.8508e-06
7.17406e-06
6.14164e-06
4.82537e-06
4.82537e-06
1.34577e-05
1.54784e-05
1.73056e-05
1.95169e-05
2.28182e-05
2.7757e-05
3.46539e-05
4.04528e-05
3.99542e-05
4.05496e-05
4.22098e-05
1.46489e-05
3.83462e-05
3.94048e-05
3.76723e-05
3.60028e-05
3.67027e-05
4.02257e-05
4.77177e-05
1.46489e-05
1.9751e-05
2.39877e-05
2.59668e-05
2.53161e-05
2.35406e-05
2.32324e-05
2.27723e-05
2.23975e-05
2.16907e-05
2.00152e-05
1.94221e-05
1.92631e-05
1.92001e-05
1.88661e-05
1.81127e-05
1.66585e-05
1.56464e-05
1.37942e-05
)
;
    }
    atmosphere
    {
        type            calculated;
        value           nonuniform List<scalar> 
46
(
0.009
0.009
0.009
0.009
0.009
0.009
0.009
0.009
0.009
0.009
0.009
0.009
0.009
0.009
0.009
0.009
0.009
0.009
0.0095992
0.00995649
0.0102745
0.0105341
0.0107206
0.0107961
0.0108229
0.0108274
0.0108086
0.0107398
0.0105142
0.010163
0.0096961
0.00912974
0.0084855
0.00778898
0.00706792
0.00634977
0.00565878
0.00501245
0.00441827
0.00387332
0.00338592
0.0032206
0.009
0.009
0.009
0.009
)
;
    }
    defaultFaces
    {
        type            empty;
    }
}


// ************************************************************************* //
