/*--------------------------------*- C++ -*----------------------------------*\
  =========                 |
  \\      /  F ield         | OpenFOAM: The Open Source CFD Toolbox
   \\    /   O peration     | Website:  https://openfoam.org
    \\  /    A nd           | Version:  13
     \\/     M anipulation  |
\*---------------------------------------------------------------------------*/
FoamFile
{
    format      ascii;
    class       volScalarField;
    location    "0.6";
    object      p;
}
// * * * * * * * * * * * * * * * * * * * * * * * * * * * * * * * * * * * * * //

dimensions      [1 -1 -2 0 0 0 0];

internalField   nonuniform List<scalar> 
2268
(
3662.58
3683.53
3727.47
3778.87
3839.62
3916.48
4015.21
4141.32
4299.98
4498.05
4738.85
5019.98
5335.31
5674.53
6022.94
6370.47
6706.81
7023.57
7314.11
7567.48
7769.23
7904.84
7956.17
2863.52
2873.68
2910.09
2958.81
3019.83
3098.42
3199.87
3329.75
3492.21
3698.78
3946.51
4235.03
4557.58
4903.08
5255.6
5605.15
5940.4
6255.14
6541.95
6791.71
6993.39
7110.78
7153.41
2063.73
2076.67
2100.36
2142.13
2200.32
2278.37
2381.12
2514.76
2685.78
2896.19
3152.88
3451.12
3782.53
4135.69
4492.22
4843.22
5177.66
5489.4
5771.44
6015.65
6211.96
6323.91
6368.71
1279.88
1302.24
1315.87
1347.12
1395.87
1465.23
1560.97
1692.02
1863.71
2079.86
2347.51
2658.76
3001.91
3365.14
3725.37
4078.69
4413.34
4723.99
5003.9
5246.64
5442.38
5553.4
5600.48
799.544
813.928
821.088
837.288
862.657
899.461
951.245
1024.74
1132.82
1293.07
1521.11
1831.08
2197.56
2584.97
2952.53
3310.02
3645.77
3957.47
4238.01
4482.71
4681.57
4795.9
4847.46
666.26
670.814
674.842
682.18
692.206
705.75
723.355
746.263
781.419
841.56
941.466
1114.47
1390.18
1764.34
2162.09
2535.45
2874.64
3188.66
3471.07
3718.93
3921.25
4041
4112.51
605.995
609.16
614.049
621.884
632.35
645.773
662.193
681.37
702.545
726.475
755.869
795.054
879.686
1062.8
1362.82
1743.66
2098.86
2417.66
2702.2
2951.62
3149.99
3271.51
3396.87
545.323
547.465
552.277
560.039
570.457
583.722
599.828
618.457
639.003
661.064
684.788
708.664
732.426
761.973
842.732
1042.57
1324.43
1656.73
1949.4
2197.03
2368.82
2478.43
2666.8
2449.41
2415.9
2528.86
2842.13
3254.13
3573.29
3452.05
2979.35
2619.36
2466.87
2399.62
2326.79
2234.27
2168.47
2197.9
2394.99
3089.53
4732.91
6871.69
2404.28
2373.43
2474.46
2727.75
3102.03
3285.61
3181.61
2810.52
2536
2418.76
2296.55
2145.17
2025.95
2001.28
2048.32
2196.27
2752
4394.15
6938.48
2343.39
2333.09
2420.41
2556.24
2697.93
2616.51
2460.87
2248.1
2138.48
2082.46
1831.42
1598.24
1501.79
1487.37
1493.14
1527.91
1940.21
3374.8
6529.04
2290.41
2291.11
2282.93
2129.43
1968.71
1695.09
1471.96
1310.28
1244.23
1158.99
1057.4
957.528
924.653
909.944
925.843
992.875
1226.11
2088.88
5411.35
2268.95
2202.51
1905.93
1481.68
1200.93
954.885
832.606
765.936
748.387
750.312
717.549
668.977
651.346
672.731
741.857
835.324
950.061
1165.5
3707.18
2174.22
1965.53
1337.4
909.899
750.59
670.14
656.065
651.884
665.017
683.498
654.287
610.766
605.143
635.283
688.958
754.721
820.078
814.41
1802.35
1581.37
1461.84
835.43
631.607
614.491
614.841
610.641
611.789
622.599
625.556
594.606
565.634
575.498
605.482
645.193
693.359
731.718
665.592
992.512
392.231
917.484
580.546
553.108
550.939
545.567
540.843
540.051
546.593
547.962
530.011
524.871
546.595
573.28
603.605
642.998
678.414
589.014
804.237
450.192
451.34
455.655
463.141
473.398
486.377
502.007
520.051
540.042
561.336
583.16
603.415
619.572
633.098
646.119
664.071
737.707
883.387
1030.52
1148.53
1241.18
1326.2
1430.21
318.135
318.921
322.853
330.202
340.402
353.193
368.379
385.696
404.766
425.065
445.966
465.97
482.828
494.788
499.69
497.697
482.001
458.192
436.586
430.527
445.75
453.07
430.64
185.787
184.646
187.448
194.677
205.141
218.252
233.593
250.801
269.416
288.83
308.719
327.892
344.68
357.403
363.482
362.466
355.096
344.489
334.058
318.023
295.974
266.92
236.477
55.8239
56.5945
60.8377
67.4487
75.9933
86.9982
100.52
116.649
134.708
153.593
172.486
190.287
206.061
219.048
227.388
229.847
225.921
218.289
209.45
198.545
184.949
167.34
147.517
7.80128
7.68534
8.17657
9.58982
11.9942
15.5124
20.5801
27.6027
36.1283
45.2212
55.6022
66.1973
77.1281
88.0506
96.4664
100.894
101.479
98.969
92.6005
82.7977
70.5446
57.5117
46.0708
5.36101
5.36319
5.3722
5.37254
5.36053
5.32954
5.27982
5.21175
5.16047
6.07381
9.01917
12.5154
16.2304
19.2074
20.3106
20.4738
20.6481
21.236
20.4512
18.585
16.8
15.3454
13.6011
5.20337
5.19969
5.19373
5.18521
5.17584
5.167
5.16326
5.16555
5.19341
5.15183
4.93384
4.74687
4.67245
4.57509
4.37388
3.748
3.75624
4.79874
5.03166
4.77698
4.56051
4.57331
4.71491
5.05528
5.05609
5.05672
5.05352
5.04677
5.03818
5.02526
5.01393
5.01027
5.00913
5.00279
5.00178
5.00928
5.01192
4.98113
4.78189
4.51634
4.47222
4.55615
4.73809
5.18433
5.38206
5.42431
4.90144
4.90535
4.90752
4.90625
4.90171
4.89439
4.88522
4.87485
4.86458
4.85018
4.82818
4.80815
4.79704
4.79563
4.81571
4.88228
4.91978
4.95863
5.0041
5.0627
5.13986
5.18094
5.23151
4.7515
4.75509
4.75767
4.75757
4.75481
4.74984
4.74324
4.73537
4.72627
4.71332
4.69548
4.67885
4.66787
4.66334
4.6711
4.69578
4.71844
4.75047
4.79723
4.85963
4.92972
4.99797
5.07746
4.6014
4.6046
4.60732
4.6081
4.60677
4.60364
4.59908
4.59338
4.58657
4.57778
4.5672
4.55786
4.55231
4.55142
4.5566
4.56931
4.58666
4.61566
4.65867
4.71575
4.78488
4.8575
4.94121
4.45169
4.45452
4.45723
4.45853
4.45819
4.45642
4.45348
4.44961
4.44494
4.43942
4.43358
4.42911
4.42768
4.43037
4.43815
4.45175
4.47139
4.50011
4.53921
4.58891
4.64855
4.71493
4.7901
4.30256
4.30501
4.30759
4.30916
4.30947
4.30869
4.30701
4.30465
4.3018
4.29869
4.29588
4.29447
4.29568
4.30053
4.30991
4.3245
4.3447
4.37195
4.40715
4.4505
4.50151
4.55895
4.62357
4.15403
4.1561
4.15845
4.1601
4.16082
4.16072
4.15999
4.1588
4.15739
4.15605
4.15529
4.1559
4.15876
4.16471
4.17446
4.18862
4.20765
4.23237
4.26336
4.30071
4.34399
4.39254
4.44635
4.00608
4.00775
4.0098
4.01139
4.01232
4.01267
4.01259
4.01225
4.01189
4.01178
4.01236
4.01421
4.01798
4.02431
4.03375
4.04681
4.06391
4.08557
4.11209
4.14348
4.17932
4.21902
4.26212
3.85864
3.85991
3.86159
3.86302
3.86401
3.86461
3.86495
3.86519
3.86551
3.86618
3.86754
3.87003
3.87413
3.88031
3.889
3.90058
3.91538
3.9337
3.95569
3.98124
4.00991
4.04105
4.07393
3.71164
3.71251
3.7138
3.71499
3.71591
3.71661
3.71718
3.71774
3.71845
3.71954
3.72127
3.72396
3.72796
3.73361
3.74123
3.75108
3.76339
3.77831
3.79585
3.81583
3.83774
3.86088
3.88435
3.565
3.56549
3.56637
3.56726
3.56803
3.56871
3.56934
3.57004
3.57091
3.57214
3.57393
3.5765
3.5801
3.58497
3.59132
3.59933
3.60911
3.6207
3.63403
3.64882
3.66454
3.68041
3.69549
3.41865
3.41877
3.41924
3.41981
3.42038
3.42093
3.42152
3.42219
3.42306
3.42423
3.42585
3.42808
3.43109
3.43503
3.44002
3.44616
3.45349
3.46194
3.47139
3.48147
3.49165
3.50112
3.50892
3.27253
3.27228
3.27238
3.27262
3.27294
3.27331
3.27376
3.27431
3.27503
3.276
3.27732
3.27907
3.28138
3.28431
3.28793
3.29227
3.29728
3.30286
3.3088
3.31474
3.3201
3.32412
3.32583
3.12658
3.12601
3.12574
3.12565
3.12571
3.12587
3.12612
3.12647
3.12697
3.12764
3.12856
3.12976
3.13131
3.13323
3.13553
3.13817
3.14109
3.14412
3.147
3.14936
3.15064
3.1501
3.14683
2.98075
2.9799
2.97929
2.9789
2.97869
2.97861
2.97863
2.97875
2.97897
2.9793
2.97977
2.9804
2.98119
2.98214
2.98321
2.98433
2.98538
2.98619
2.98648
2.98584
2.98374
2.97946
2.97218
2.83501
2.83392
2.83301
2.83233
2.83187
2.83155
2.83134
2.83119
2.83111
2.83109
2.83111
2.83117
2.83125
2.8313
2.83126
2.83104
2.83049
2.82942
2.82753
2.82442
2.81959
2.81236
2.80199
2.68934
2.68805
2.68688
2.68595
2.68526
2.68471
2.68426
2.68386
2.68348
2.6831
2.6827
2.68223
2.68165
2.6809
2.6799
2.67853
2.67663
2.67399
2.67032
2.66525
2.65827
2.6488
2.63616
2.54371
2.54226
2.54089
2.53975
2.53884
2.53809
2.53741
2.53677
2.53612
2.53542
2.53462
2.53368
2.53253
2.53109
2.52927
2.52694
2.52392
2.52002
2.51495
2.50835
2.49978
2.48868
2.47443
2.39812
2.39655
2.39502
2.39371
2.39263
2.39169
2.39082
2.38996
2.38907
2.38808
2.38694
2.38559
2.38396
2.38195
2.37946
2.37634
2.37245
2.36757
2.36143
2.3537
2.34398
2.33177
2.31651
2.25256
2.25092
2.24927
2.24783
2.24661
2.24552
2.24449
2.24345
2.24235
2.24112
2.23971
2.23803
2.236
2.23353
2.23051
2.2268
2.22223
2.21662
2.20971
2.2012
2.19072
2.17784
2.16206
2.10702
2.10535
2.10364
2.10211
2.10079
2.09959
2.09842
2.09724
2.09598
2.09457
2.09294
2.091
2.08868
2.08587
2.08245
2.07831
2.07327
2.06715
2.05973
2.05073
2.03982
2.02663
2.01073
1.96152
1.95986
1.95813
1.95655
1.95516
1.95387
1.95262
1.95134
1.94997
1.94842
1.94664
1.94453
1.942
1.93896
1.93528
1.93085
1.92551
1.91909
1.91139
1.90215
1.89109
1.87788
1.86218
1.81606
1.81444
1.81272
1.81113
1.8097
1.80838
1.80707
1.80574
1.8043
1.80268
1.80081
1.7986
1.79596
1.79279
1.78897
1.7844
1.77892
1.77238
1.76459
1.75532
1.74434
1.73137
1.71612
1.67065
1.66909
1.66742
1.66585
1.66443
1.66309
1.66178
1.66043
1.65897
1.65734
1.65544
1.6532
1.65053
1.64733
1.64349
1.63889
1.63342
1.62691
1.61921
1.61011
1.59941
1.58686
1.57226
1.52529
1.52382
1.52223
1.5207
1.51931
1.518
1.51671
1.51539
1.51396
1.51236
1.5105
1.5083
1.50568
1.50253
1.49877
1.49428
1.48893
1.48261
1.47515
1.46638
1.45611
1.44416
1.43036
1.38001
1.37863
1.37713
1.37568
1.37434
1.37309
1.37186
1.3706
1.36925
1.36772
1.36595
1.36386
1.36135
1.35835
1.35476
1.35047
1.34539
1.33937
1.33229
1.32399
1.31431
1.30309
1.29022
1.2348
1.23351
1.23212
1.23076
1.22951
1.22834
1.2272
1.22605
1.2248
1.22339
1.22176
1.21982
1.2175
1.21471
1.21138
1.20741
1.20269
1.1971
1.19052
1.18281
1.17383
1.16346
1.15163
1.08967
1.08845
1.08717
1.08592
1.08478
1.08372
1.08271
1.08168
1.08058
1.07932
1.07786
1.07613
1.07405
1.07155
1.06856
1.06499
1.06074
1.05569
1.04973
1.04272
1.03454
1.02511
1.0144
0.944621
0.943417
0.942274
0.941144
0.940136
0.939223
0.938357
0.937479
0.936533
0.93546
0.934205
0.932712
0.930922
0.928773
0.926198
0.923118
0.919438
0.915049
0.909815
0.903598
0.896307
0.887891
0.878365
0.799664
0.798371
0.797374
0.796396
0.79555
0.794803
0.794101
0.793389
0.792619
0.791742
0.790715
0.789493
0.788032
0.786283
0.78419
0.781686
0.778688
0.775078
0.770688
0.765351
0.759008
0.751659
0.743372
0.654784
0.653232
0.652422
0.651635
0.650984
0.650423
0.649896
0.649356
0.648766
0.648093
0.647306
0.646376
0.645271
0.64396
0.642408
0.640566
0.638366
0.635682
0.632264
0.627874
0.622504
0.616256
0.609262
0.509901
0.507924
0.507382
0.506851
0.506429
0.506064
0.505708
0.505332
0.504917
0.504447
0.503904
0.503272
0.502535
0.501683
0.500708
0.499597
0.49832
0.496752
0.494426
0.49098
0.486562
0.48145
0.475813
0.364646
0.362225
0.362201
0.362154
0.36201
0.361818
0.361605
0.361373
0.36112
0.360842
0.360532
0.360185
0.359799
0.359387
0.358978
0.358619
0.358421
0.358457
0.357375
0.354561
0.351163
0.347336
0.343046
0.217929
0.215056
0.216301
0.217448
0.217698
0.217645
0.217541
0.217434
0.217331
0.217234
0.217142
0.217052
0.216973
0.216938
0.217016
0.217379
0.218676
0.222177
0.222931
0.219833
0.217942
0.215645
0.212483
0.073702
0.064694
0.0680792
0.0707045
0.0713131
0.0714468
0.0715072
0.0715713
0.0716627
0.0717883
0.0719468
0.0721374
0.0723694
0.0726848
0.0732063
0.0743016
0.0774769
0.0868639
0.0915246
0.0900149
0.0874389
0.0849063
0.0832749
1696.92
1647.24
1526.77
1293.93
409.136
387.564
345.533
273.884
221.033
213.599
205.84
190.12
131.245
120.851
111.191
100.069
36.246
34.9024
38.6982
39.548
12.3723
12.6835
13.4248
10.4359
4.83629
5.22711
5.97143
6.29295
5.50042
5.56278
5.63892
5.72657
5.29629
5.36581
5.45273
5.54719
5.16382
5.23111
5.30491
5.38226
5.02094
5.07852
5.1393
5.20212
4.85804
4.90644
4.95703
5.00873
4.68037
4.72046
4.76191
4.80402
4.49262
4.52491
4.55802
4.59117
4.29852
4.32359
4.3488
4.37344
4.10117
4.11958
4.1375
4.15436
3.90319
3.91557
3.92701
3.93702
3.70684
3.71391
3.71977
3.72388
3.51392
3.51652
3.51767
3.51694
3.32564
3.32463
3.32204
3.31749
3.14248
3.1386
3.13309
3.12571
2.96456
2.95846
2.95077
2.94126
2.79191
2.78417
2.77489
2.76398
2.6243
2.61541
2.60504
2.5932
2.46139
2.45173
2.44068
2.42831
2.30277
2.29268
2.28128
2.26872
2.14802
2.13777
2.12628
2.11378
1.9967
1.9865
1.97515
1.96292
1.84842
1.83845
1.82742
1.8156
1.70283
1.69322
1.68264
1.67135
1.55959
1.55046
1.54044
1.52977
1.41844
1.40987
1.40048
1.39052
1.27914
1.27119
1.26251
1.25331
1.14148
1.1342
1.12627
1.11787
1.00524
0.998676
0.991544
0.983979
0.870247
0.864432
0.858122
0.85143
0.736343
0.731306
0.725852
0.720051
0.603382
0.59915
0.594559
0.589662
0.471143
0.467746
0.464041
0.460045
0.339363
0.336766
0.333959
0.330947
0.208665
0.206408
0.204527
0.202931
0.0834913
0.0829591
0.0816668
0.0796031
458.116
520.554
479.867
455.548
443.762
437.059
432.37
433.445
441.998
454.204
466.439
483.782
503.391
523.174
549.715
585.487
614.024
534.555
657.299
167.321
290.464
323.318
311.055
305.81
309.902
320.699
335.27
353.291
374.707
398.981
421.789
441.407
463.78
492.213
519.987
550.917
483.903
562.636
157.62
181.145
190.035
189.036
199.022
218.58
243.932
270.735
295.648
317.375
339.135
362.011
384.906
410.2
437.779
462.709
486.799
472.937
512.566
84.2006
86.4994
90.9821
94.8681
104.691
124.558
157.349
202.086
241.482
265.858
286.361
310.11
335.143
361.797
389.845
416.273
441.697
452.656
474.619
28.9015
21.171
26.2635
27.1097
27.8747
34.2406
54.5875
110.3
173.394
212.674
238.249
264.692
292.184
320.634
350.045
379.003
407.302
427.577
442.878
6.63759
6.90866
6.79696
7.10701
7.88418
9.62711
15.1527
43.6924
94.6501
155.882
195.347
226.118
256.13
286.382
317.079
347.498
376.644
398.824
407.888
6.22387
6.23963
6.32037
6.50589
6.89207
7.46733
8.78353
13.0435
45.3136
115.265
162.022
195.209
226.768
258.256
289.669
320.303
348.384
368.615
372.39
5.90559
6.07415
6.26434
6.55337
6.91223
7.27474
7.54556
8.77769
27.4148
88.6116
136.525
170.811
203.102
235.26
266.81
296.802
322.873
339.992
340.769
5.70722
5.89431
6.0962
6.35071
6.64591
6.91867
7.05138
7.58177
15.1594
63.5785
114.604
150.828
183.924
216.27
247.55
276.497
300.343
314.353
313.381
5.5108
5.68049
5.86284
6.06696
6.28368
6.48652
6.62897
6.82225
9.50112
43.9593
96.2428
134.312
167.878
200.107
230.924
258.797
280.716
292.127
289.603
5.30657
5.45128
5.60393
5.76332
5.91857
6.06542
6.18554
6.1092
6.88946
29.2748
80.3794
119.734
153.472
185.643
215.926
242.947
263.558
273.222
269.416
5.09355
5.21101
5.33056
5.44824
5.55293
5.6451
5.71458
5.49126
5.80843
18.87
65.7716
105.507
139.243
171.302
201.365
227.976
248.085
257.015
252.274
4.87169
4.96138
5.04732
5.12452
5.18173
5.21555
5.22074
4.9563
5.24822
12.6728
52.1167
90.2939
123.606
155.462
185.706
212.654
233.192
242.516
237.225
4.64259
4.70573
4.75941
4.79717
4.80701
4.78033
4.70207
4.36745
4.71474
8.1355
38.1643
72.8481
105.161
136.687
167.049
194.982
217.361
228.477
223.059
4.40987
4.44876
4.4731
4.4748
4.44117
4.35211
4.21027
3.97543
3.86371
3.2967
22.5986
52.2243
82.6648
113.477
143.657
172.409
197.432
211.826
208.013
4.17735
4.19506
4.19445
4.16668
4.09925
3.97771
3.82662
3.67072
2.91373
1.93204
10.6909
29.9978
55.6708
84.6056
113.903
142.497
168.957
187.114
184.158
3.94834
3.94841
3.92807
3.87862
3.78871
3.64411
3.44327
3.21393
2.81215
2.49254
4.80285
12.2563
27.3942
50.4001
76.6536
103.64
129.805
149.416
146.265
3.72542
3.71177
3.67756
3.6149
3.51463
3.36604
3.16421
2.92725
2.64879
2.46191
2.37182
5.79749
10.2296
18.8189
36.2212
57.3695
80.2939
100.242
99.3569
3.51074
3.48714
3.44407
3.37486
3.27253
3.13063
2.94744
2.7343
2.50034
2.3257
2.23881
2.12803
1.61069
6.60346
11.5558
18.2353
31.6401
49.8965
51.7949
3.30541
3.27491
3.22663
3.15532
3.05587
2.92453
2.76165
2.57531
2.37548
2.19904
2.06882
1.96778
1.94632
1.57881
1.31358
3.91465
8.54593
18.6508
24.3466
3.10936
3.07433
3.02354
2.95305
2.85931
2.74024
2.59718
2.43692
2.2695
2.11572
1.98655
1.89135
1.87409
1.90117
1.86592
1.60396
1.97533
4.87989
14.6164
2.92211
2.88439
2.83301
2.7651
2.67837
2.57192
2.44758
2.31119
2.17195
2.04433
1.93821
1.85939
1.82905
1.86372
1.95545
2.08701
2.27073
3.04237
7.52625
2.74292
2.70398
2.65329
2.58886
2.50938
2.41477
2.30705
2.19118
2.07484
1.96881
1.88223
1.8208
1.79338
1.80876
1.85901
1.94217
1.98943
2.25503
3.65696
2.57096
2.53205
2.48279
2.42217
2.34957
2.26538
2.17166
2.07259
1.97443
1.88541
1.81348
1.76466
1.74404
1.75328
1.78496
1.81378
1.84456
1.93042
5.9008
2.4056
2.36737
2.32007
2.26333
2.19694
2.1216
2.03927
1.95346
1.86928
1.79325
1.73207
1.69143
1.6759
1.68629
1.71389
1.74344
1.83944
1.73572
5.15278
2.24606
2.2088
2.16399
2.11099
2.0501
1.98213
1.90885
1.83318
1.75925
1.69224
1.6377
1.60083
1.58605
1.59567
1.6258
1.6804
1.92764
1.65582
3.05553
2.09152
2.05565
2.01343
1.96411
1.90808
1.84622
1.78007
1.71197
1.64512
1.58348
1.53145
1.49316
1.47271
1.47229
1.50085
1.59669
1.78923
0.723686
-1.94164
1.94135
1.90719
1.86746
1.82182
1.77019
1.71351
1.65305
1.59057
1.52839
1.46928
1.41611
1.37166
1.33828
1.31724
1.3365
1.52739
1.22846
-0.671868
1.02998
1.79493
1.76269
1.72556
1.68331
1.63596
1.58385
1.52813
1.47002
1.41101
1.3526
1.29605
1.24189
1.1891
1.14302
1.12875
1.21098
0.562976
3.2078
3.53032
1.65176
1.62159
1.58714
1.54818
1.50482
1.45714
1.40571
1.35141
1.29499
1.23686
1.17658
1.11207
1.0394
0.956091
0.873165
0.671107
0.245128
0.602255
0.0319597
1.51139
1.48341
1.4517
1.41605
1.37646
1.33314
1.28602
1.23557
1.18208
1.12519
1.0633
0.992699
0.906687
0.797008
0.650449
0.389089
0.185593
0.271826
0.259591
1.37346
1.34774
1.31882
1.28647
1.25069
1.21153
1.16899
1.12288
1.07327
1.01954
0.959855
0.890526
0.805303
0.695772
0.551254
0.348302
0.233771
0.318031
0.346475
1.23762
1.21423
1.1881
1.15905
1.12707
1.09215
1.05423
1.01315
0.968466
0.919922
0.866047
0.804299
0.730894
0.642014
0.536997
0.420884
0.350841
0.390106
0.451249
1.10362
1.08257
1.05922
1.03344
1.00522
0.974548
0.941372
0.905522
0.866757
0.824685
0.778665
0.727426
0.669315
0.603591
0.533073
0.466865
0.432157
0.45813
0.522753
0.971207
0.95251
0.9319
0.909305
0.88475
0.858258
0.82981
0.799295
0.766709
0.731582
0.694008
0.65354
0.609774
0.563299
0.517478
0.480427
0.466404
0.490351
0.547964
0.840167
0.82382
0.805908
0.786405
0.765376
0.742889
0.718997
0.693705
0.66697
0.63877
0.609164
0.578483
0.546773
0.514995
0.486038
0.46548
0.462005
0.483543
0.52927
0.710311
0.696307
0.681042
0.664527
0.64686
0.628148
0.608505
0.58804
0.566809
0.544811
0.522345
0.49994
0.477828
0.456866
0.439051
0.427776
0.427794
0.444279
0.476907
0.581445
0.569765
0.557102
0.543481
0.529016
0.513837
0.498096
0.481965
0.465608
0.449118
0.432734
0.416852
0.402099
0.388862
0.378197
0.37164
0.371621
0.38167
0.402481
0.453339
0.443979
0.433883
0.42308
0.41168
0.399819
0.387656
0.375389
0.363236
0.351401
0.340049
0.329363
0.319879
0.312004
0.30602
0.301783
0.300321
0.303966
0.315585
0.326071
0.31908
0.311461
0.303336
0.294814
0.286014
0.277084
0.268213
0.259623
0.251549
0.2442
0.237699
0.232212
0.227719
0.22532
0.222256
0.219283
0.217187
0.222369
0.20076
0.196017
0.190532
0.184684
0.178592
0.172357
0.166104
0.160004
0.154252
0.149064
0.144656
0.141169
0.138628
0.137073
0.13734
0.137056
0.130945
0.123739
0.127192
0.0754787
0.0719338
0.0686333
0.0652044
0.0616858
0.0581366
0.0546211
0.0512169
0.0480405
0.0452418
0.0429848
0.0413903
0.0403629
0.0393429
0.0381651
0.0378182
0.0388949
0.0250675
0.0389358
)
;

boundaryField
{
    leftWall
    {
        type            calculated;
        value           nonuniform List<scalar> 
50
(
3662.58
2863.52
2063.73
1279.88
799.544
666.26
605.995
545.323
450.192
318.135
185.787
55.8239
7.80128
5.36101
5.20337
5.05528
4.90144
4.7515
4.6014
4.45169
4.30256
4.15403
4.00608
3.85864
3.71164
3.565
3.41865
3.27253
3.12658
2.98075
2.83501
2.68934
2.54371
2.39812
2.25256
2.10702
1.96152
1.81606
1.67065
1.52529
1.38001
1.2348
1.08967
0.944621
0.799664
0.654784
0.509901
0.364646
0.217929
0.073702
)
;
    }
    rightWall
    {
        type            calculated;
        value           nonuniform List<scalar> 
50
(
6871.69
6938.48
6529.04
5411.35
3707.18
1802.35
992.512
804.237
657.299
562.636
512.566
474.619
442.878
407.888
372.39
340.769
313.381
289.603
269.416
252.274
237.225
223.059
208.013
184.158
146.265
99.3569
51.7949
24.3466
14.6164
7.52625
3.65696
5.9008
5.15278
3.05553
-1.94164
1.02998
3.53032
0.0319597
0.259591
0.346475
0.451249
0.522753
0.547964
0.52927
0.476907
0.402481
0.315585
0.222369
0.127192
0.0389358
)
;
    }
    lowerWall
    {
        type            calculated;
        value           nonuniform List<scalar> 
62
(
4060.73
4081.68
4125.62
4177.02
4237.77
4314.63
4413.36
4539.47
4698.13
4896.2
5137
5418.13
5733.46
6072.68
6421.09
6768.62
7104.96
7421.72
7712.26
7965.63
8167.38
8302.94
8354.1
7956.17
7153.41
6368.71
5600.48
4847.46
4112.51
3396.87
2666.8
2490.01
2429.76
2291.13
2041.42
2449.41
2404.28
2343.39
2290.41
2268.95
2174.22
1581.37
392.231
2464.12
2430.39
2542.16
2853.79
3265.57
3592.69
3468.88
2995.85
2630.02
2473.28
2414.76
2350.04
2258.55
2190.87
2220.3
2430
3208.29
4830.66
6945.03
)
;
    }
    atmosphere
    {
        type            calculated;
        value           nonuniform List<scalar> 
46
(
-0.000204457
-0.00335656
-0.00368711
-0.00366944
-0.00360262
-0.00350199
-0.00336298
-0.00317882
-0.00294598
-0.00266526
-0.00234155
-0.0019833
-0.00160193
-0.00121155
-0.000829294
-0.000478037
-0.00019417
-3.63271e-05
0
0
0
0
0
0
0
0
0
0
0
0
0
0
0
0
0
0
0
0
0
0
0
0
-0.000302074
-0.00171808
-0.00469651
-0.00670065
)
;
    }
    defaultFaces
    {
        type            empty;
    }
}


// ************************************************************************* //
