/*--------------------------------*- C++ -*----------------------------------*\
  =========                 |
  \\      /  F ield         | OpenFOAM: The Open Source CFD Toolbox
   \\    /   O peration     | Website:  https://openfoam.org
    \\  /    A nd           | Version:  13
     \\/     M anipulation  |
\*---------------------------------------------------------------------------*/
FoamFile
{
    format      ascii;
    class       surfaceScalarField;
    location    "0.6";
    object      phi;
}
// * * * * * * * * * * * * * * * * * * * * * * * * * * * * * * * * * * * * * //

dimensions      [0 3 -1 0 0 0 0];

internalField   nonuniform List<scalar> 
4432
(
-1.54014e-06
1.54014e-06
3.5756e-07
-1.8977e-06
2.52105e-06
-2.16349e-06
4.3062e-06
-1.78515e-06
5.73414e-06
-1.42794e-06
6.85126e-06
-1.11712e-06
7.66337e-06
-8.12104e-07
8.14206e-06
-4.78692e-07
8.23191e-06
-8.98484e-08
7.87599e-06
3.55919e-07
7.06709e-06
8.08899e-07
5.86956e-06
1.19753e-06
4.36803e-06
1.50152e-06
2.70732e-06
1.66071e-06
9.55855e-07
1.75147e-06
-7.78691e-07
1.73455e-06
-2.40623e-06
1.62754e-06
-3.76461e-06
1.35838e-06
-4.72225e-06
9.57637e-07
-5.1493e-06
4.27054e-07
-5.09315e-06
-5.61477e-08
-4.20992e-06
-8.83235e-07
-4.20992e-06
8.40879e-07
6.99265e-07
2.59845e-06
-3.65528e-06
4.14081e-06
-3.70585e-06
5.45285e-06
-3.09719e-06
6.53724e-06
-2.51233e-06
7.38725e-06
-1.96714e-06
7.96919e-06
-1.39404e-06
8.23393e-06
-7.43429e-07
8.0991e-06
4.49809e-08
7.51433e-06
9.40686e-07
6.46995e-06
1.85327e-06
5.01491e-06
2.65258e-06
3.25345e-06
3.26298e-06
1.34692e-06
3.56725e-06
-6.1418e-07
3.71257e-06
-2.49808e-06
3.61845e-06
-4.12594e-06
3.25539e-06
-5.33983e-06
2.57227e-06
-5.97468e-06
1.59249e-06
-5.90096e-06
3.53333e-07
-4.95781e-06
-9.99289e-07
-3.04015e-06
-2.8009e-06
-7.25007e-06
2.63627e-06
-1.93701e-06
3.91034e-06
-4.92934e-06
4.95745e-06
-4.75296e-06
5.9155e-06
-4.05524e-06
6.7508e-06
-3.34763e-06
7.40877e-06
-2.62511e-06
7.82178e-06
-1.80705e-06
7.91959e-06
-8.41243e-07
7.6248e-06
3.39774e-07
6.86538e-06
1.70011e-06
5.64239e-06
3.07626e-06
4.01586e-06
4.27911e-06
2.10612e-06
5.17272e-06
8.92689e-08
5.5841e-06
-1.93226e-06
5.73409e-06
-3.78328e-06
5.46947e-06
-5.30741e-06
4.77953e-06
-6.34509e-06
3.60994e-06
-6.74866e-06
1.99606e-06
-6.39641e-06
1.07868e-09
-5.16309e-06
-2.23261e-06
-2.90373e-06
-5.06026e-06
-1.01538e-05
3.56818e-06
-5.50519e-06
4.48529e-06
-5.84646e-06
5.22578e-06
-5.49344e-06
5.96327e-06
-4.79273e-06
6.64303e-06
-4.02739e-06
7.17547e-06
-3.15754e-06
7.46429e-06
-2.09587e-06
7.42764e-06
-8.04591e-07
6.99609e-06
7.7132e-07
6.08127e-06
2.61492e-06
4.7116e-06
4.44594e-06
2.95676e-06
6.03396e-06
9.5254e-07
7.17693e-06
-1.09674e-06
7.63338e-06
-3.09042e-06
7.72777e-06
-4.84009e-06
7.21915e-06
-6.20888e-06
6.14831e-06
-7.05004e-06
4.4511e-06
-7.24872e-06
2.19474e-06
-6.72887e-06
-5.18764e-07
-5.41428e-06
-3.5472e-06
-3.11848e-06
-7.35606e-06
-1.32723e-05
3.54846e-06
-9.05365e-06
4.24777e-06
-6.54577e-06
4.85631e-06
-6.10198e-06
5.48333e-06
-5.41975e-06
6.08541e-06
-4.62947e-06
6.56456e-06
-3.63669e-06
6.81331e-06
-2.34462e-06
6.71514e-06
-7.06424e-07
6.18048e-06
1.30598e-06
5.18621e-06
3.60919e-06
3.70316e-06
5.92899e-06
1.85299e-06
7.88412e-06
-1.82465e-07
9.21239e-06
-2.18907e-06
9.63998e-06
-4.0856e-06
9.6243e-06
-5.66883e-06
8.80238e-06
-6.82815e-06
7.30763e-06
-7.43099e-06
5.05394e-06
-7.40405e-06
2.16779e-06
-6.73151e-06
-1.1913e-06
-5.42866e-06
-4.85006e-06
-3.29322e-06
-9.4915e-06
-1.65655e-05
2.02785e-06
-1.10815e-05
2.8818e-06
-7.39971e-06
3.49287e-06
-6.71305e-06
4.06603e-06
-5.99291e-06
4.62081e-06
-5.18425e-06
5.09439e-06
-4.11027e-06
5.37784e-06
-2.62808e-06
5.27412e-06
-6.027e-07
4.70489e-06
1.87522e-06
3.75482e-06
4.55926e-06
2.37817e-06
7.30564e-06
6.65468e-07
9.59682e-06
-1.24654e-06
1.11244e-05
-3.15901e-06
1.15525e-05
-4.86661e-06
1.13319e-05
-6.21164e-06
1.01474e-05
-7.10307e-06
8.19907e-06
-7.41251e-06
5.36338e-06
-7.1092e-06
1.86448e-06
-6.24177e-06
-2.05873e-06
-4.93232e-06
-6.1595e-06
-3.01314e-06
-1.14107e-05
-1.95786e-05
1.64008e-07
-1.12455e-05
7.90487e-07
-8.02619e-06
1.16079e-06
-7.08336e-06
1.47727e-06
-6.30939e-06
1.786e-06
-5.49298e-06
2.07331e-06
-4.39758e-06
2.29483e-06
-2.84961e-06
2.43251e-06
-7.4038e-07
2.41114e-06
1.8966e-06
2.04821e-06
4.92219e-06
1.13681e-06
8.21704e-06
-5.19384e-07
1.1253e-05
-2.33874e-06
1.29437e-05
-3.97169e-06
1.31854e-05
-5.39611e-06
1.27563e-05
-6.41113e-06
1.11624e-05
-6.96324e-06
8.75117e-06
-6.92975e-06
5.32989e-06
-6.2951e-06
1.22983e-06
-5.16232e-06
-3.1915e-06
-3.73642e-06
-7.5854e-06
-1.88906e-06
-1.3258e-05
-2.14677e-05
-7.42411e-07
-1.05031e-05
-5.93995e-07
-8.17461e-06
-5.10957e-07
-7.1664e-06
-4.32036e-07
-6.38831e-06
-3.20978e-07
-5.60404e-06
-1.76526e-07
-4.54203e-06
-8.26151e-09
-3.01787e-06
1.65053e-07
-9.13694e-07
2.83049e-07
1.7786e-06
2.04545e-07
5.00069e-06
-2.1425e-07
8.63583e-06
-1.09397e-06
1.21327e-05
-2.50055e-06
1.43503e-05
-4.2801e-06
1.4965e-05
-5.58245e-06
1.40587e-05
-6.19154e-06
1.17715e-05
-6.40174e-06
8.96137e-06
-5.95346e-06
4.88162e-06
-4.95984e-06
2.36205e-07
-3.5042e-06
-4.64714e-06
-1.82458e-06
-9.26503e-06
3.78219e-07
-1.54608e-05
-2.10895e-05
-3.87551e-05
3.87551e-05
-5.65173e-05
1.77622e-05
-5.21992e-05
-4.31816e-06
-2.34698e-05
-2.87293e-05
1.93025e-05
-4.27724e-05
5.97274e-05
-4.04249e-05
8.79538e-05
-2.82264e-05
0.000104415
-1.64613e-05
0.000106963
-2.54816e-06
9.78763e-05
9.08695e-06
9.20406e-05
5.83566e-06
9.23378e-05
-2.97165e-07
9.30442e-05
-7.06473e-07
8.94289e-05
3.61533e-06
8.03577e-05
9.07119e-06
7.05006e-05
9.85717e-06
5.78354e-05
1.26652e-05
3.1917e-05
2.59184e-05
3.1917e-05
-2.41521e-05
6.29072e-05
-2.08922e-05
1.45024e-05
4.14491e-06
-2.93553e-05
3.05401e-05
-5.51245e-05
4.5737e-05
-5.79693e-05
5.57397e-05
-5.04276e-05
6.46417e-05
-3.71284e-05
7.07707e-05
-2.25902e-05
7.46117e-05
-6.38917e-06
7.87008e-05
4.99789e-06
8.17873e-05
2.74919e-06
8.40994e-05
-2.60929e-06
8.5895e-05
-2.50206e-06
8.65203e-05
2.98999e-06
8.50627e-05
1.05288e-05
8.02923e-05
1.46276e-05
7.04832e-05
2.24742e-05
4.89469e-05
4.74547e-05
8.08639e-05
-1.0009e-05
7.29163e-05
1.11911e-05
-6.69773e-06
3.55393e-05
-5.37035e-05
4.56177e-05
-6.52029e-05
5.04601e-05
-6.28116e-05
5.47993e-05
-5.47668e-05
5.95343e-05
-4.18635e-05
6.40695e-05
-2.71254e-05
6.88169e-05
-1.11365e-05
7.39768e-05
-1.62012e-07
7.75406e-05
-8.14597e-07
8.0223e-05
-5.29174e-06
8.24843e-05
-4.76332e-06
8.41477e-05
1.32653e-06
8.38461e-05
1.08304e-05
7.93694e-05
1.91043e-05
7.01437e-05
3.16999e-05
5.15289e-05
6.60695e-05
0.000132393
8.02699e-06
6.48893e-05
3.65833e-05
-3.5254e-05
4.55919e-05
-6.27121e-05
4.82345e-05
-6.78455e-05
5.08445e-05
-6.54216e-05
5.36088e-05
-5.75312e-05
5.69867e-05
-4.52413e-05
6.09401e-05
-3.10788e-05
6.57893e-05
-1.59858e-05
7.08644e-05
-5.23707e-06
7.4967e-05
-4.91721e-06
7.76996e-05
-8.02438e-06
7.97098e-05
-6.77347e-06
8.10253e-05
1.0985e-08
8.01856e-05
1.16701e-05
7.38354e-05
2.54545e-05
6.30459e-05
4.24894e-05
4.87635e-05
8.03518e-05
0.000181156
2.29583e-05
4.1931e-05
4.48167e-05
-5.71124e-05
4.73907e-05
-6.52862e-05
4.86687e-05
-6.91234e-05
5.01355e-05
-6.68884e-05
5.1903e-05
-5.92987e-05
5.45432e-05
-4.78815e-05
5.81212e-05
-3.46567e-05
6.29142e-05
-2.07788e-05
6.85238e-05
-1.08467e-05
7.28686e-05
-9.262e-06
7.51741e-05
-1.03299e-05
7.62855e-05
-7.88483e-06
7.57853e-05
5.11156e-07
7.21977e-05
1.52578e-05
6.43584e-05
3.32938e-05
5.44147e-05
5.24332e-05
4.21571e-05
9.26093e-05
0.000223314
4.39224e-05
-1.99137e-06
4.54804e-05
-5.86704e-05
4.73291e-05
-6.71349e-05
4.81822e-05
-6.99766e-05
4.88961e-05
-6.76022e-05
4.97811e-05
-6.01838e-05
5.17723e-05
-4.98727e-05
5.48174e-05
-3.77019e-05
5.90917e-05
-2.50531e-05
6.41669e-05
-1.59219e-05
6.7765e-05
-1.28601e-05
6.91072e-05
-1.16721e-05
6.82318e-05
-7.00943e-06
6.51665e-05
3.57643e-06
6.10746e-05
1.93496e-05
5.58776e-05
3.84908e-05
4.65823e-05
6.17285e-05
3.21947e-05
0.000106997
0.000255508
3.90217e-05
-4.10131e-05
4.40298e-05
-6.36785e-05
4.6272e-05
-6.9377e-05
4.68047e-05
-7.05093e-05
4.68642e-05
-6.76617e-05
4.7373e-05
-6.06926e-05
4.86298e-05
-5.11295e-05
5.08322e-05
-3.99044e-05
5.42116e-05
-2.84325e-05
5.80725e-05
-1.97828e-05
6.06066e-05
-1.53942e-05
6.08249e-05
-1.18904e-05
5.86442e-05
-4.82872e-06
5.52694e-05
6.9512e-06
5.19787e-05
2.26404e-05
4.81349e-05
4.23346e-05
3.84545e-05
7.14089e-05
2.70218e-05
0.00011843
0.00028253
3.61848e-05
-7.71979e-05
4.21179e-05
-6.96116e-05
4.38178e-05
-7.10769e-05
4.46027e-05
-7.12942e-05
4.47171e-05
-6.77761e-05
4.49516e-05
-6.09271e-05
4.56561e-05
-5.1834e-05
4.71093e-05
-4.13575e-05
4.95163e-05
-3.08395e-05
5.22376e-05
-2.2504e-05
5.36802e-05
-1.68369e-05
5.27497e-05
-1.09599e-05
4.99603e-05
-2.03934e-06
4.66716e-05
1.02399e-05
4.35011e-05
2.58109e-05
3.8955e-05
4.68808e-05
3.12795e-05
7.90844e-05
1.9626e-05
0.000130083
0.000302156
-2.79428e-06
-7.70882e-06
-4.01523e-06
-6.95366e-06
-4.86368e-06
-6.31794e-06
-5.44086e-06
-5.81113e-06
-5.792e-06
-5.2529e-06
-5.91593e-06
-4.4181e-06
-5.80338e-06
-3.13042e-06
-5.45395e-06
-1.26312e-06
-4.92522e-06
1.24987e-06
-4.33391e-06
4.40938e-06
-3.76893e-06
8.07086e-06
-3.46303e-06
1.18268e-05
-4.0958e-06
1.49831e-05
-6.06886e-06
1.6938e-05
-8.60083e-06
1.65906e-05
-1.07665e-05
1.39372e-05
-1.0158e-05
8.35283e-06
-7.57759e-06
2.30121e-06
-4.49586e-06
-2.84553e-06
-7.67619e-07
-8.37538e-06
3.54322e-06
-1.35759e-05
8.37682e-06
-2.02944e-05
-2.63809e-05
1.36682e-05
-3.62634e-06
-4.08248e-06
-5.98627e-06
-4.59373e-06
-7.75481e-06
-4.5494e-06
-9.03909e-06
-4.52684e-06
-9.90142e-06
-4.39057e-06
-1.03633e-05
-3.95618e-06
-1.04175e-05
-3.07625e-06
-1.00433e-05
-1.63731e-06
-9.23855e-06
4.45099e-07
-8.01541e-06
3.18624e-06
-6.38106e-06
6.43651e-06
-4.4149e-06
9.86068e-06
-2.3633e-06
1.29315e-05
-4.11092e-07
1.49858e-05
1.08258e-06
1.5097e-05
2.30736e-06
1.27124e-05
2.92581e-06
7.73439e-06
4.05765e-06
1.16936e-06
6.78765e-06
-5.57552e-06
1.11217e-05
-1.27094e-05
1.72265e-05
-1.96807e-05
2.45294e-05
-2.75973e-05
-3.61601e-05
3.43087e-05
-3.65616e-06
-4.26321e-07
-7.01756e-06
-1.23233e-06
-9.5321e-06
-2.03486e-06
-1.13125e-05
-2.74643e-06
-1.24925e-05
-3.2106e-06
-1.31285e-05
-3.32022e-06
-1.32182e-05
-2.98648e-06
-1.27181e-05
-2.13746e-06
-1.1602e-05
-6.70942e-07
-9.84361e-06
1.42782e-06
-7.42577e-06
4.01867e-06
-4.33752e-06
6.77243e-06
-6.44369e-07
9.23835e-06
3.55327e-06
1.07882e-05
7.99554e-06
1.06547e-05
1.2369e-05
8.33896e-06
1.64397e-05
3.6637e-06
2.04041e-05
-2.79506e-06
2.48313e-05
-1.00027e-05
2.98377e-05
-1.77158e-05
3.59619e-05
-2.58049e-05
4.31664e-05
-3.48018e-05
-4.46105e-05
5.16168e-05
-4.9735e-06
4.54718e-06
-8.54023e-06
2.3344e-06
-1.10494e-05
4.74342e-07
-1.28916e-05
-9.04288e-07
-1.41222e-05
-1.97998e-06
-1.47707e-05
-2.67176e-06
-1.48159e-05
-2.94121e-06
-1.41379e-05
-2.8155e-06
-1.26525e-05
-2.1563e-06
-1.03907e-05
-8.33948e-07
-7.26551e-06
8.93434e-07
-3.33156e-06
2.83848e-06
1.39591e-06
4.51088e-06
6.89411e-06
5.28997e-06
1.29449e-05
4.60391e-06
1.92546e-05
2.02928e-06
2.55119e-05
-2.59361e-06
3.16026e-05
-8.88573e-06
3.77835e-05
-1.61837e-05
4.42001e-05
-2.41323e-05
5.1019e-05
-3.26239e-05
5.80049e-05
-4.17877e-05
-5.14498e-05
6.48441e-05
-4.18296e-06
8.73019e-06
-8.80564e-06
6.95711e-06
-1.2513e-05
4.18171e-06
-1.47028e-05
1.28553e-06
-1.59558e-05
-7.26936e-07
-1.63931e-05
-2.23451e-06
-1.59961e-05
-3.33819e-06
-1.46686e-05
-4.14295e-06
-1.25129e-05
-4.31204e-06
-9.70337e-06
-3.64345e-06
-6.01005e-06
-2.79989e-06
-1.44228e-06
-1.72929e-06
4.05017e-06
-9.81575e-07
1.04454e-05
-1.10524e-06
1.74783e-05
-2.42901e-06
2.47929e-05
-5.28532e-06
3.20933e-05
-9.89407e-06
3.93666e-05
-1.6159e-05
4.6499e-05
-2.33161e-05
5.34921e-05
-3.11255e-05
6.03163e-05
-3.9448e-05
6.6731e-05
-4.82024e-05
-5.71524e-05
7.24336e-05
-2.47349e-06
1.12038e-05
-5.89536e-06
1.03791e-05
-9.01106e-06
7.2975e-06
-1.18349e-05
4.10948e-06
-1.40079e-05
1.44606e-06
-1.52346e-05
-1.00775e-06
-1.5453e-05
-3.1198e-06
-1.46516e-05
-4.94429e-06
-1.31941e-05
-5.76945e-06
-1.00143e-05
-6.82331e-06
-4.97984e-06
-7.83431e-06
8.75864e-07
-7.585e-06
7.60682e-06
-7.71253e-06
1.49346e-05
-8.43298e-06
2.26048e-05
-1.00993e-05
3.03607e-05
-1.30412e-05
3.80091e-05
-1.75425e-05
4.54958e-05
-2.36456e-05
5.26737e-05
-3.0494e-05
5.95158e-05
-3.79676e-05
6.60404e-05
-4.59727e-05
7.23137e-05
-5.44757e-05
-6.27987e-05
7.79601e-05
6.43392e-06
4.77004e-06
7.20503e-06
9.60813e-06
6.88358e-06
7.61907e-06
5.86563e-06
5.12755e-06
4.52908e-06
2.78271e-06
2.83765e-06
6.83775e-07
9.65486e-07
-1.24754e-06
-1.40009e-06
-2.57863e-06
-4.11343e-06
-3.05602e-06
-6.12652e-06
-4.81017e-06
-4.8068e-06
-9.154e-06
5.95452e-07
-1.29872e-05
7.9938e-06
-1.51109e-05
1.71383e-05
-1.75774e-05
2.76408e-05
-2.06018e-05
3.69335e-05
-2.23339e-05
4.47561e-05
-2.5365e-05
5.19985e-05
-3.08881e-05
5.88092e-05
-3.73046e-05
6.53683e-05
-4.45267e-05
7.22936e-05
-5.2898e-05
7.98423e-05
-6.20243e-05
-6.91725e-05
8.6216e-05
4.94216e-06
-1.71955e-07
1.01273e-05
4.42313e-06
1.33308e-05
4.41569e-06
1.51376e-05
3.32087e-06
1.59563e-05
1.96404e-06
1.60108e-05
6.29431e-07
1.52946e-05
-5.31295e-07
1.4228e-05
-1.5119e-06
1.35592e-05
-2.38716e-06
1.38268e-05
-5.07776e-06
1.51747e-05
-1.05018e-05
1.80833e-05
-1.58958e-05
2.30218e-05
-2.00493e-05
2.95424e-05
-2.4098e-05
3.72141e-05
-2.82735e-05
4.17422e-05
-2.68619e-05
4.96104e-05
-3.32332e-05
5.79587e-05
-3.92363e-05
6.53461e-05
-4.4692e-05
6.9565e-05
-4.87457e-05
6.70495e-05
-5.03825e-05
6.23762e-05
-5.7351e-05
-6.18156e-05
5.50194e-05
4.6893e-06
-4.86114e-06
1.03563e-05
-1.24378e-06
1.49393e-05
-1.67127e-07
1.83692e-05
-1.08948e-07
2.08417e-05
-5.08397e-07
2.25929e-05
-1.12174e-06
2.39096e-05
-1.84785e-06
2.5133e-05
-2.73528e-06
2.68152e-05
-4.06929e-06
2.87212e-05
-6.98369e-06
3.004e-05
-1.18206e-05
3.10682e-05
-1.6924e-05
3.23872e-05
-2.13683e-05
3.3671e-05
-2.53818e-05
3.4301e-05
-2.89035e-05
3.92319e-05
-3.17928e-05
4.35854e-05
-3.75867e-05
4.73166e-05
-4.29675e-05
4.97851e-05
-4.71605e-05
5.05026e-05
-4.94632e-05
5.00377e-05
-4.99176e-05
4.41897e-05
-5.1503e-05
-5.20477e-05
3.44219e-05
4.43751e-06
-9.2985e-06
9.67556e-06
-6.48172e-06
1.44779e-05
-4.96939e-06
1.86067e-05
-4.23767e-06
2.20956e-05
-3.99717e-06
2.50838e-05
-4.10986e-06
2.77721e-05
-4.53613e-06
3.03963e-05
-5.35935e-06
3.31648e-05
-6.83776e-06
3.56988e-05
-9.51767e-06
3.7325e-05
-1.34468e-05
3.81778e-05
-1.77768e-05
3.87014e-05
-2.18919e-05
3.90644e-05
-2.57447e-05
3.96267e-05
-2.94657e-05
4.12793e-05
-3.34454e-05
4.20854e-05
-3.83929e-05
4.18424e-05
-4.27245e-05
4.05178e-05
-4.5836e-05
3.83338e-05
-4.72792e-05
3.50867e-05
-4.66706e-05
2.89336e-05
-4.53498e-05
-4.22785e-05
1.91645e-05
3.9477e-06
-1.32461e-05
8.5888e-06
-1.11227e-05
1.3147e-05
-9.52751e-06
1.73993e-05
-8.48986e-06
2.13054e-05
-7.90326e-06
2.491e-05
-7.71436e-06
2.8304e-05
-7.93009e-06
3.15795e-05
-8.63479e-06
3.47427e-05
-1.00009e-05
3.74904e-05
-1.22654e-05
3.94361e-05
-1.53924e-05
4.0604e-05
-1.89446e-05
4.12568e-05
-2.25447e-05
4.1602e-05
-2.60899e-05
4.17896e-05
-2.96533e-05
4.17421e-05
-3.33979e-05
4.0651e-05
-3.73017e-05
3.84645e-05
-4.0538e-05
3.52356e-05
-4.26071e-05
3.10637e-05
-4.31073e-05
2.60571e-05
-4.1664e-05
1.92036e-05
-3.84963e-05
-3.30535e-05
9.97869e-06
3.3802e-06
-1.66262e-05
7.39906e-06
-1.51415e-05
1.15195e-05
-1.36478e-05
1.55598e-05
-1.25301e-05
1.94548e-05
-1.17982e-05
2.31936e-05
-1.14531e-05
2.67879e-05
-1.15243e-05
3.02339e-05
-1.20808e-05
3.3458e-05
-1.32249e-05
3.62466e-05
-1.5054e-05
3.83707e-05
-1.75165e-05
3.97977e-05
-2.03715e-05
4.06373e-05
-2.33843e-05
4.0988e-05
-2.64406e-05
4.08494e-05
-2.95147e-05
4.00338e-05
-3.25823e-05
3.8192e-05
-3.54599e-05
3.52853e-05
-3.76313e-05
3.135e-05
-3.86718e-05
2.64451e-05
-3.82025e-05
2.06354e-05
-3.58544e-05
1.3569e-05
-3.14299e-05
-2.44367e-05
4.95224e-06
2.80486e-06
-1.94309e-05
6.20984e-06
-1.85464e-05
9.81314e-06
-1.7251e-05
1.34657e-05
-1.61826e-05
1.70955e-05
-1.54279e-05
2.06628e-05
-1.50203e-05
2.41356e-05
-1.49971e-05
2.74644e-05
-1.54096e-05
3.05547e-05
-1.63151e-05
3.32492e-05
-1.77486e-05
3.53923e-05
-1.96596e-05
3.69224e-05
-2.19015e-05
3.78529e-05
-2.43148e-05
3.81948e-05
-2.67825e-05
3.78974e-05
-2.92173e-05
3.68213e-05
-3.15062e-05
3.47878e-05
-3.34264e-05
3.17612e-05
-3.46048e-05
2.7767e-05
-3.46776e-05
2.2853e-05
-3.32885e-05
1.70672e-05
-3.00686e-05
1.03083e-05
-2.46711e-05
-1.6618e-05
2.48967e-06
2.25458e-06
-2.16854e-05
5.07017e-06
-2.13619e-05
8.13124e-06
-2.0312e-05
1.13126e-05
-1.93639e-05
1.4542e-05
-1.86573e-05
1.77667e-05
-1.82449e-05
2.09349e-05
-1.81652e-05
2.39804e-05
-1.84551e-05
2.68096e-05
-1.91444e-05
2.92998e-05
-2.02388e-05
3.13321e-05
-2.16918e-05
3.28324e-05
-2.34018e-05
3.37652e-05
-2.52476e-05
3.40962e-05
-2.71136e-05
3.37623e-05
-2.88833e-05
3.26644e-05
-3.04084e-05
3.07053e-05
-3.14673e-05
2.78609e-05
-3.17604e-05
2.41532e-05
-3.09699e-05
1.96272e-05
-2.87626e-05
1.43354e-05
-2.47768e-05
8.2887e-06
-1.86244e-05
-9.84494e-06
1.51568e-06
1.74538e-06
-2.34307e-05
4.00605e-06
-2.36225e-05
6.52956e-06
-2.28355e-05
9.20959e-06
-2.20439e-05
1.19774e-05
-2.1425e-05
1.47758e-05
-2.10433e-05
1.75466e-05
-2.0936e-05
2.02208e-05
-2.11293e-05
2.2713e-05
-2.16365e-05
2.49232e-05
-2.24489e-05
2.67541e-05
-2.35227e-05
2.81302e-05
-2.47779e-05
2.8996e-05
-2.61134e-05
2.93e-05
-2.74176e-05
2.89811e-05
-2.85645e-05
2.797e-05
-2.93973e-05
2.62122e-05
-2.97095e-05
2.36973e-05
-2.92454e-05
2.04501e-05
-2.77228e-05
1.652e-05
-2.48324e-05
1.1972e-05
-2.02288e-05
6.874e-06
-1.35263e-05
-4.29407e-06
1.32317e-06
1.28344e-06
-2.47141e-05
3.0303e-06
-2.53693e-05
5.03913e-06
-2.48443e-05
7.21991e-06
-2.42246e-05
9.5092e-06
-2.37143e-05
1.18507e-05
-2.33848e-05
1.41865e-05
-2.32717e-05
1.64509e-05
-2.33937e-05
1.85683e-05
-2.3754e-05
2.04555e-05
-2.43361e-05
2.20306e-05
-2.50978e-05
2.32228e-05
-2.59701e-05
2.3973e-05
-2.68636e-05
2.42278e-05
-2.76725e-05
2.39353e-05
-2.8272e-05
2.30482e-05
-2.85102e-05
2.15376e-05
-2.81989e-05
1.94063e-05
-2.71142e-05
1.66868e-05
-2.50033e-05
1.34366e-05
-2.15823e-05
9.73647e-06
-1.65287e-05
5.68801e-06
-9.47788e-06
-3.56827e-08
1.42966e-06
8.6995e-07
-2.5584e-05
2.14773e-06
-2.6647e-05
3.67587e-06
-2.63724e-05
5.37877e-06
-2.59275e-05
7.19936e-06
-2.55349e-05
9.08489e-06
-2.52703e-05
1.09809e-05
-2.51677e-05
1.28276e-05
-2.52404e-05
1.45593e-05
-2.54856e-05
1.61057e-05
-2.58825e-05
1.73978e-05
-2.63899e-05
1.83729e-05
-2.69452e-05
1.89764e-05
-2.74672e-05
1.9161e-05
-2.7857e-05
1.88858e-05
-2.79968e-05
1.8121e-05
-2.77454e-05
1.68556e-05
-2.69335e-05
1.51048e-05
-2.53634e-05
1.29109e-05
-2.28094e-05
1.03425e-05
-1.9014e-05
7.49502e-06
-1.36813e-05
4.49382e-06
-6.4767e-06
2.95247e-06
1.50569e-06
5.05892e-07
-2.60899e-05
1.35829e-06
-2.74994e-05
2.44598e-06
-2.74601e-05
3.70383e-06
-2.71853e-05
5.08121e-06
-2.69122e-05
6.53016e-06
-2.67193e-05
8.00119e-06
-2.66387e-05
9.44128e-06
-2.66805e-05
1.07936e-05
-2.6838e-05
1.19992e-05
-2.70881e-05
1.30001e-05
-2.73908e-05
1.37432e-05
-2.76882e-05
1.41819e-05
-2.79059e-05
1.42777e-05
-2.79528e-05
1.40014e-05
-2.77206e-05
1.33374e-05
-2.70813e-05
1.22885e-05
-2.58846e-05
1.08811e-05
-2.39561e-05
9.16777e-06
-2.10961e-05
7.22814e-06
-1.70744e-05
5.17202e-06
-1.16252e-05
3.14195e-06
-4.44665e-06
4.77166e-06
1.32278e-06
1.80072e-07
-2.627e-05
6.57526e-07
-2.79769e-05
1.34955e-06
-2.81521e-05
2.20159e-06
-2.80374e-05
3.17021e-06
-2.78808e-05
4.21271e-06
-2.77618e-05
5.28506e-06
-2.77111e-05
6.3409e-06
-2.77364e-05
7.33168e-06
-2.78288e-05
8.20803e-06
-2.79645e-05
8.92206e-06
-2.81048e-05
9.43002e-06
-2.81962e-05
9.69454e-06
-2.81704e-05
9.68658e-06
-2.79448e-05
9.38778e-06
-2.74218e-05
8.79394e-06
-2.64875e-05
7.91909e-06
-2.50098e-05
6.79925e-06
-2.28363e-05
5.49595e-06
-1.97928e-05
4.09912e-06
-1.56776e-05
2.72967e-06
-1.02558e-05
1.54303e-06
-3.26004e-06
5.58003e-06
7.34669e-07
-1.09371e-07
-2.61605e-05
4.58566e-08
-2.81321e-05
3.83889e-07
-2.84901e-05
8.71866e-07
-2.85254e-05
1.4708e-06
-2.84798e-05
2.14276e-06
-2.84337e-05
2.84911e-06
-2.84174e-05
3.54978e-06
-2.8437e-05
4.20368e-06
-2.84827e-05
4.76982e-06
-2.85306e-05
5.20918e-06
-2.85442e-05
5.48686e-06
-2.84739e-05
5.57423e-06
-2.82578e-05
5.45118e-06
-2.78218e-05
5.10865e-06
-2.70793e-05
4.55178e-06
-2.59307e-05
3.80343e-06
-2.42615e-05
2.90707e-06
-2.19399e-05
1.93154e-06
-1.88173e-05
9.73783e-07
-1.47199e-05
1.63059e-07
-9.44514e-06
-3.36708e-07
-2.76028e-06
5.5703e-06
-3.26983e-07
-3.51875e-07
-2.58087e-05
-4.90713e-07
-2.79933e-05
-4.57099e-07
-2.85237e-05
-2.894e-07
-2.86931e-05
-1.92597e-08
-2.87499e-05
3.20714e-07
-2.87737e-05
6.96949e-07
-2.87937e-05
1.07516e-06
-2.88153e-05
1.42086e-06
-2.88284e-05
1.70037e-06
-2.88102e-05
1.88237e-06
-2.87263e-05
1.93982e-06
-2.85314e-05
1.85187e-06
-2.81699e-05
1.60618e-06
-2.75761e-05
1.2013e-06
-2.66745e-05
6.49556e-07
-2.5379e-05
-1.97288e-08
-2.35922e-05
-7.56887e-07
-2.12028e-05
-1.48812e-06
-1.80861e-05
-2.11245e-06
-1.40956e-05
-2.49777e-06
-9.05985e-06
-2.47662e-06
-2.78147e-06
4.94785e-06
-1.85417e-06
-5.61739e-07
-2.52469e-05
-9.45009e-07
-2.761e-05
-1.17702e-06
-2.82917e-05
-1.28789e-06
-2.85822e-05
-1.3057e-06
-2.87321e-05
-1.25867e-06
-2.88208e-05
-1.17562e-06
-2.88767e-05
-1.08562e-06
-2.89053e-05
-1.0174e-06
-2.88966e-05
-9.98357e-07
-2.88292e-05
-1.05319e-06
-2.86714e-05
-1.20227e-06
-2.83823e-05
-1.45977e-06
-2.79124e-05
-1.83158e-06
-2.72044e-05
-2.31307e-06
-2.6193e-05
-2.88646e-06
-2.48056e-05
-3.51793e-06
-2.29608e-05
-4.15382e-06
-2.0567e-05
-4.71899e-06
-1.7521e-05
-5.11211e-06
-1.37025e-05
-5.20171e-06
-8.97029e-06
-4.82457e-06
-3.15862e-06
3.91541e-06
-3.79215e-06
-7.37245e-07
-2.45098e-05
-1.32607e-06
-2.70212e-05
-1.78266e-06
-2.78352e-05
-2.13173e-06
-2.82332e-05
-2.39763e-06
-2.84663e-05
-2.60482e-06
-2.86136e-05
-2.77794e-06
-2.87036e-05
-2.94144e-06
-2.87418e-05
-3.11904e-06
-2.87191e-05
-3.33275e-06
-2.86156e-05
-3.60167e-06
-2.84026e-05
-3.94052e-06
-2.80435e-05
-4.35797e-06
-2.7495e-05
-4.85478e-06
-2.67076e-05
-5.42171e-06
-2.56261e-05
-6.03726e-06
-2.41901e-05
-6.66507e-06
-2.2333e-05
-7.25099e-06
-1.99811e-05
-7.72058e-06
-1.70514e-05
-7.97524e-06
-1.34479e-05
-7.88906e-06
-9.05649e-06
-7.30655e-06
-3.74116e-06
2.65601e-06
-6.04718e-06
-8.78625e-07
-2.36312e-05
-1.63614e-06
-2.62637e-05
-2.27923e-06
-2.71921e-05
-2.82828e-06
-2.76841e-05
-3.30436e-06
-2.79902e-05
-3.72856e-06
-2.81894e-05
-4.12181e-06
-2.83104e-05
-4.50457e-06
-2.83591e-05
-4.8962e-06
-2.83274e-05
-5.31417e-06
-2.81976e-05
-5.77289e-06
-2.79439e-05
-6.28248e-06
-2.7534e-05
-6.84721e-06
-2.69303e-05
-7.46392e-06
-2.60909e-05
-8.12021e-06
-2.49699e-05
-8.7925e-06
-2.35178e-05
-9.44384e-06
-2.16817e-05
-1.00214e-05
-1.94035e-05
-1.04542e-05
-1.66187e-05
-1.06494e-05
-1.32526e-05
-1.04896e-05
-9.21638e-06
-9.83014e-06
-4.40058e-06
1.32774e-06
-8.5019e-06
-9.86376e-07
-2.26448e-05
-1.87749e-06
-2.53727e-05
-2.6714e-06
-2.63982e-05
-3.38459e-06
-2.6971e-05
-4.0351e-06
-2.73397e-05
-4.64094e-06
-2.75836e-05
-5.21978e-06
-2.77316e-05
-5.78858e-06
-2.77903e-05
-6.36303e-06
-2.7753e-05
-6.95677e-06
-2.76039e-05
-7.58041e-06
-2.73203e-05
-8.24033e-06
-2.68741e-05
-8.93744e-06
-2.62332e-05
-9.66578e-06
-2.53626e-05
-1.0411e-05
-2.42247e-05
-1.11487e-05
-2.27801e-05
-1.1843e-05
-2.09875e-05
-1.24439e-05
-1.88026e-05
-1.28856e-05
-1.6177e-05
-1.30834e-05
-1.30549e-05
-1.29309e-05
-9.36889e-06
-1.22972e-05
-5.03441e-06
5.63302e-08
-1.10258e-05
-1.06146e-06
-2.15834e-05
-2.0528e-06
-2.43814e-05
-2.964e-06
-2.54871e-05
-3.80773e-06
-2.61273e-05
-4.59908e-06
-2.65484e-05
-5.35323e-06
-2.68295e-05
-6.08489e-06
-2.7e-05
-6.80799e-06
-2.70672e-05
-7.53512e-06
-2.70259e-05
-8.27678e-06
-2.68623e-05
-9.0405e-06
-2.65566e-05
-9.82978e-06
-2.60848e-05
-1.0643e-05
-2.54201e-05
-1.14723e-05
-2.45334e-05
-1.23022e-05
-2.33948e-05
-1.31088e-05
-2.19735e-05
-1.3858e-05
-2.02383e-05
-1.45038e-05
-1.81568e-05
-1.4987e-05
-1.56938e-05
-1.52324e-05
-1.28095e-05
-1.51458e-05
-9.45546e-06
-1.46118e-05
-5.56843e-06
-1.06454e-06
-1.3491e-05
-1.10524e-06
-2.04783e-05
-2.16529e-06
-2.33214e-05
-3.16231e-06
-2.44901e-05
-4.10511e-06
-2.51846e-05
-5.00585e-06
-2.56477e-05
-5.87697e-06
-2.59584e-05
-6.73054e-06
-2.61465e-05
-7.57787e-06
-2.622e-05
-8.42896e-06
-2.61749e-05
-9.29177e-06
-2.59995e-05
-1.01714e-05
-2.5677e-05
-1.10691e-05
-2.51871e-05
-1.19815e-05
-2.45077e-05
-1.28993e-05
-2.36155e-05
-1.38071e-05
-2.24871e-05
-1.46815e-05
-2.10991e-05
-1.5491e-05
-1.94288e-05
-1.61945e-05
-1.74534e-05
-1.67396e-05
-1.51488e-05
-1.7061e-05
-1.24881e-05
-1.70782e-05
-9.43825e-06
-1.6692e-05
-5.95475e-06
-1.97526e-06
-1.57813e-05
-1.11967e-06
-1.93586e-05
-2.21891e-06
-2.22222e-05
-3.27231e-06
-2.34368e-05
-4.28474e-06
-2.41722e-05
-5.26538e-06
-2.46671e-05
-6.22406e-06
-2.49998e-05
-7.17048e-06
-2.52001e-05
-8.11369e-06
-2.52768e-05
-9.06159e-06
-2.5227e-05
-1.00201e-05
-2.5041e-05
-1.09925e-05
-2.47047e-05
-1.19783e-05
-2.42014e-05
-1.29728e-05
-2.35133e-05
-1.39661e-05
-2.26223e-05
-1.49426e-05
-2.15105e-05
-1.58805e-05
-2.01613e-05
-1.67508e-05
-1.85585e-05
-1.75171e-05
-1.66871e-05
-1.81341e-05
-1.45317e-05
-1.85466e-05
-1.20756e-05
-1.8687e-05
-9.29785e-06
-1.84727e-05
-6.16905e-06
-2.64572e-06
-1.78023e-05
-1.10709e-06
-1.82516e-05
-2.21832e-06
-2.1111e-05
-3.30077e-06
-2.23544e-05
-4.35532e-06
-2.31177e-05
-5.38821e-06
-2.36343e-05
-6.40682e-06
-2.39812e-05
-7.41873e-06
-2.41882e-05
-8.43116e-06
-2.42644e-05
-9.45032e-06
-2.42079e-05
-1.04806e-05
-2.40108e-05
-1.15238e-05
-2.36615e-05
-1.25782e-05
-2.3147e-05
-1.36383e-05
-2.24533e-05
-1.46936e-05
-2.15669e-05
-1.5729e-05
-2.04752e-05
-1.67237e-05
-1.91666e-05
-1.76516e-05
-1.76307e-05
-1.84804e-05
-1.58583e-05
-1.91717e-05
-1.38405e-05
-1.96792e-05
-1.15681e-05
-1.9948e-05
-9.02912e-06
-1.99109e-05
-6.20614e-06
-3.07091e-06
-1.94857e-05
-1.07043e-06
-1.71813e-05
-2.16908e-06
-2.00124e-05
-3.2554e-06
-2.12681e-05
-4.32641e-06
-2.20467e-05
-5.38555e-06
-2.25752e-05
-6.43799e-06
-2.29288e-05
-7.48959e-06
-2.31366e-05
-8.54611e-06
-2.32079e-05
-9.6125e-06
-2.31415e-05
-1.0692e-05
-2.29313e-05
-1.17854e-05
-2.25682e-05
-1.28901e-05
-2.20422e-05
-1.39999e-05
-2.13435e-05
-1.51043e-05
-2.04626e-05
-1.61881e-05
-1.93914e-05
-1.7232e-05
-1.81227e-05
-1.8212e-05
-1.66508e-05
-1.90996e-05
-1.49707e-05
-1.9862e-05
-1.30781e-05
-2.04613e-05
-1.09688e-05
-2.08533e-05
-8.63716e-06
-2.09853e-05
-6.07412e-06
-3.26358e-06
-2.07926e-05
-1.01299e-06
-1.61684e-05
-2.07759e-06
-1.89479e-05
-3.14494e-06
-2.02008e-05
-4.20853e-06
-2.09832e-05
-5.26937e-06
-2.15144e-05
-6.33089e-06
-2.18673e-05
-7.39766e-06
-2.20699e-05
-8.47445e-06
-2.21311e-05
-9.56535e-06
-2.20507e-05
-1.06729e-05
-2.18238e-05
-1.1797e-05
-2.1444e-05
-1.29348e-05
-2.09045e-05
-1.40794e-05
-2.01989e-05
-1.52202e-05
-1.93219e-05
-1.63424e-05
-1.82692e-05
-1.74275e-05
-1.70377e-05
-1.84531e-05
-1.56252e-05
-1.93939e-05
-1.40299e-05
-2.02215e-05
-1.22505e-05
-2.09049e-05
-1.02854e-05
-2.14092e-05
-8.13278e-06
-2.16942e-05
-5.78914e-06
-3.24692e-06
-2.17109e-05
-9.3887e-07
-1.52295e-05
-1.95145e-06
-1.79354e-05
-2.9794e-06
-1.91729e-05
-4.01331e-06
-1.99493e-05
-5.05252e-06
-2.04752e-05
-6.09942e-06
-2.08204e-05
-7.15787e-06
-2.10115e-05
-8.23216e-06
-2.10569e-05
-9.32593e-06
-2.09569e-05
-1.04412e-05
-2.07085e-05
-1.15777e-05
-2.03076e-05
-1.27321e-05
-1.97502e-05
-1.38972e-05
-1.90338e-05
-1.50625e-05
-1.81565e-05
-1.62135e-05
-1.71182e-05
-1.73321e-05
-1.59192e-05
-1.8397e-05
-1.45603e-05
-1.93848e-05
-1.30421e-05
-2.02706e-05
-1.13647e-05
-2.10289e-05
-9.52717e-06
-2.16325e-05
-7.52916e-06
-2.20515e-05
-5.37012e-06
-3.04874e-06
-2.22497e-05
-8.53037e-07
-1.43766e-05
-1.79973e-06
-1.69887e-05
-2.77028e-06
-1.82024e-05
-3.75369e-06
-1.89659e-05
-4.74888e-06
-1.94801e-05
-5.75821e-06
-1.98111e-05
-6.78565e-06
-1.99841e-05
-7.83547e-06
-2.00071e-05
-8.91124e-06
-1.98812e-05
-1.00149e-05
-1.96049e-05
-1.11458e-05
-1.91766e-05
-1.23007e-05
-1.85954e-05
-1.34725e-05
-1.7862e-05
-1.46507e-05
-1.69783e-05
-1.58211e-05
-1.59478e-05
-1.69657e-05
-1.47745e-05
-1.80639e-05
-1.34621e-05
-1.90932e-05
-1.20129e-05
-2.00307e-05
-1.04271e-05
-2.0855e-05
-8.70284e-06
-2.15455e-05
-6.83865e-06
-2.20806e-05
-4.83509e-06
-2.69463e-06
-2.24347e-05
-7.62257e-07
-1.36144e-05
-1.63358e-06
-1.61175e-05
-2.53093e-06
-1.73051e-05
-3.44398e-06
-1.80529e-05
-4.37331e-06
-1.85508e-05
-5.3227e-06
-1.88618e-05
-6.29703e-06
-1.90098e-05
-7.30106e-06
-1.90031e-05
-8.3385e-06
-1.88438e-05
-9.41125e-06
-1.85322e-05
-1.05188e-05
-1.8069e-05
-1.1658e-05
-1.74563e-05
-1.28222e-05
-1.66978e-05
-1.40013e-05
-1.57992e-05
-1.51816e-05
-1.47676e-05
-1.63453e-05
-1.36109e-05
-1.74714e-05
-1.2336e-05
-1.85373e-05
-1.0947e-05
-1.95213e-05
-9.44318e-06
-2.04047e-05
-7.81937e-06
-2.11725e-05
-6.07082e-06
-2.18102e-05
-4.19741e-06
-2.20485e-06
-2.23e-05
-6.75915e-07
-1.29385e-05
-1.46717e-06
-1.53263e-05
-2.27684e-06
-1.64955e-05
-3.09982e-06
-1.723e-05
-3.94157e-06
-1.77091e-05
-4.80906e-06
-1.79943e-05
-5.70886e-06
-1.811e-05
-6.6464e-06
-1.80655e-05
-7.62554e-06
-1.78646e-05
-8.64817e-06
-1.75096e-05
-9.71399e-06
-1.70032e-05
-1.08202e-05
-1.63501e-05
-1.19612e-05
-1.55568e-05
-1.3128e-05
-1.46324e-05
-1.43076e-05
-1.3588e-05
-1.54827e-05
-1.24357e-05
-1.66318e-05
-1.11869e-05
-1.77308e-05
-9.848e-06
-1.87574e-05
-8.41664e-06
-1.96957e-05
-6.88104e-06
-2.05359e-05
-5.23059e-06
-2.12694e-05
-3.46391e-06
-1.58958e-06
-2.18847e-05
-6.08314e-07
-1.23303e-05
-1.31904e-06
-1.46156e-05
-2.02572e-06
-1.57888e-05
-2.73763e-06
-1.65181e-05
-3.46975e-06
-1.6977e-05
-4.23399e-06
-1.72301e-05
-5.03885e-06
-1.73052e-05
-5.89012e-06
-1.72143e-05
-6.79137e-06
-1.69634e-05
-7.74427e-06
-1.65567e-05
-8.74872e-06
-1.59988e-05
-9.80284e-06
-1.5296e-05
-1.09026e-05
-1.44571e-05
-1.20409e-05
-1.34941e-05
-1.32071e-05
-1.24219e-05
-1.43847e-05
-1.12581e-05
-1.55515e-05
-1.00201e-05
-1.66805e-05
-8.71897e-06
-1.77474e-05
-7.34973e-06
-1.87397e-05
-5.88881e-06
-1.96536e-05
-4.31667e-06
-2.04859e-05
-2.6316e-06
-8.47641e-07
-2.12278e-05
-5.85119e-07
-1.17452e-05
-1.21337e-06
-1.39874e-05
-1.79657e-06
-1.52057e-05
-2.37312e-06
-1.59416e-05
-2.97308e-06
-1.6377e-05
-3.61409e-06
-1.65891e-05
-4.30556e-06
-1.66137e-05
-5.05235e-06
-1.64675e-05
-5.85678e-06
-1.6159e-05
-6.71979e-06
-1.56937e-05
-7.64151e-06
-1.50771e-05
-8.62135e-06
-1.43161e-05
-9.65775e-06
-1.34207e-05
-1.07473e-05
-1.24046e-05