/*--------------------------------*- C++ -*----------------------------------*\
  =========                 |
  \\      /  F ield         | OpenFOAM: The Open Source CFD Toolbox
   \\    /   O peration     | Website:  https://openfoam.org
    \\  /    A nd           | Version:  13
     \\/     M anipulation  |
\*---------------------------------------------------------------------------*/
FoamFile
{
    format      ascii;
    class       volScalarField;
    location    "0.6";
    object      rho;
}
// * * * * * * * * * * * * * * * * * * * * * * * * * * * * * * * * * * * * * //

dimensions      [1 -3 0 0 0 0 0];

internalField   nonuniform List<scalar> 
2268
(
13529
13529
13529
13529
13529
13529
13529
13529
13529
13529
13529
13529
13529
13529
13529
13529
13529
13529
13529
13529
13529
13527.3
13521.6
13529
13529
13529
13529
13529
13529
13529
13529
13529
13529
13529
13529
13529
13529
13529
13529
13529
13529
13529
13529
13529
13528.1
13521.6
13529
13529
13529
13529
13529
13529
13529
13529
13529
13529
13529
13529
13529
13529
13529
13529
13529
13529
13529
13529
13529
13528.6
13521.6
12749.5
12695.7
12752.8
12905.7
13101.7
13292.3
13446.2
13524.9
13529
13529
13529
13529
13529
13529
13529
13529
13529
13529
13529
13529
13529
13528.8
13527.8
3522.31
3764.34
3931.39
4265.61
4807.16
5566.73
6615.11
8088.27
9819.62
11468.1
12953.2
13529
13529
13529
13529
13529
13529
13529
13529
13529
13529
13529
13529
1000
1000
1000
1000
1000
1000
1000
1000
1249.05
2212.84
4162.85
7782.96
11514.9
13529
13529
13529
13529
13529
13529
13529
13529
13529
13529
1000
1000
1000
1000
1000
1000
1000
1000
1000
1000
1000
1106.84
2774.94
7375.32
12231.2
13529
13529
13529
13529
13529
13529
13529
13529
1000
1000
1000
1000
1000
1000
1000
1000
1000
1000
1000
1000
1000
1053.63
3505.1
9828.42
13448.5
13529
13529
13529
13529
13529
13528.5
499.997
492.5
452.182
396.074
388.635
659.142
571.944
560.667
362.173
217.774
514.63
790.003
824.909
761.067
761.328
1189.63
4035.32
3321.6
2492.08
499.997
468.244
421.184
1046.1
1876.18
4158.38
4153.96
2500.48
1033.58
629.171
2002.68
4377.52
5502.02
4586.77
4430.25
6223.99
8483.62
8471.29
2851.83
499.874
497.32
539.963
2683.41
8024.8
10405.5
9887.68
8306.4
6328.25
5785.01
6832.34
9428.15
9581.67
9550.33
9390.72
8523.12
8627.84
8608.35
4391.84
499.97
500.391
3412.83
11099.7
12550.8
12557.7
12494.8
12380.3
11522.6
9691.44
9098.48
9468.9
9434.92
7907.75
4215.66
1846.75
2502.37
7331.44
7279.06
499.993
1779.06
9611.82
12069.7
11886.6
9309.39
6170.33
4901.62
4068.61
2676.86
2273.07
2259.68
2001.9
1185.73
552.013
504.685
616.875
4339.41
7276.72
499.972
8312.29
9937.59
9143.2
4006.16
986.039
985.932
993.361
992.905
992.655
995.502
996.693
797.7
510.04
503.57
504.184
677.942
809.525
3073.54
10017.6
10016.6
8965.88
2087.95
997.001
994.274
996.428
998.838
1007.95
1016.47
1016.11
963.297
651.285
500.075
500.342
508.876
419.072
859.873
1129.93
10023.9
9421.97
2368.99
1001.08
1000.13
999.791
999.747
999.741
999.744
999.709
973.856
737.292
511.872
500.04
524.586
470.337
183.219
901.756
1125.38
1000
1000
1000
1000
1000
1000
1000
1000
1000
1000
1000
1000
1000
1000
1000
1316.4
3638.69
7618.51
10767.7
12851.8
12782.7
12735.7
12704.7
1000
1000
1000
1000
1000
1000
1000
1000
1000
1000
1000
1000
1000
1000
1000
1000
1000
1013.71
1303.78
1950.69
2775.4
3521.06
3685.93
1000
1000
1000
1000
1000
1000
1000
1000
1000
1000
1000
1000
1000
1000
1000
1000
1000
1000
1000
1000
1000
999.999
999.995
695.116
684.199
711.362
759.446
819.671
883.025
940.21
981.062
998.928
1000
1000
1000
1000
1000
1000
1000
1000
1000
1000
1000
1000
1000
999.998
37.4039
33.2215
39.6698
60.8911
98.2061
156.28
243.938
374.735
552.891
734.619
870.86
961.042
996.664
1000
1000
1000
1000
1000
1000
1000
999.995
999.986
988.639
1
1
1
1
1
1
1
1
1
23.0724
110.419
239.438
416.433
623.221
783.336
854.079
870.792
887.551
869.327
821.002
735.381
600.523
423.613
1
1
1
1
1
1
1
1
1
1
1
1
1
1.00001
1.00022
21.2975
60.2004
122.734
116.337
82.7206
28.9188
1.05635
1.04843
1
1
1
1
1
1
1
1
1
1
1
1
1
1
1.00103
1.00382
1.00596
1.01064
1.01486
1.02315
1.05048
1.04988
1.01348
1
1
1
1
1
1
1
1
1
1
1
1
1
1
1
1
1
1
1
1
1.00737
1.00249
1
1
1
1
1
1
1
1
1
1
1
1
1
1
1
1.00001
1.00002
1.00002
1.00002
1.00001
1
1
1
1
1
1
1
1
1
1
1
1
1
1
1
1
1
1
1.00001
1.00002
1.00002
1.00002
1.00001
1
1
1
1
1
1
1
1
1
1
1
1
1
1
1
1
1
1
1
1
1.00001
1.00001
1
1
1
1
1
1
1
1
1
1
1
1
1
1
1
1
1
1
1
1
1
1
1
1
1
1
1
1
1
1
1
1
1
1
1
1
1
1
1
1
1
1
1
1
1
1
1
1
1
1
1
1
1
1
1
1
1
1
1
1
1
1
1
1
1
1
1
1
1
1
1
1
1
1
1
1
1
1
1
1
1
1
1
1
1
1
1
1
1
1
1
1
1
1
1
1
1
1
1
1
1
1
1
1
1
1
1
1
1
1
1
1
1
1
1
1
1
1
1
1
1
1
1
1
1
1
1
1
1
1
1
1
1
1
1
1
1
1
1
1
1
1
1
1
1
1
1
1
1
1
1
1
1
1
1
1
1
1
1
1
1
1
1
1
1
1
1
1
1
1
1
1
1
1
1
1
1
1
1
1
1
1
1
1
1
1
1
1
1
1
1
1
1
1
1
1
1
1
1
1
1
1
1
1
1
1
1
1
1
1
1
1
1
1
1
1
1
1
1
1
1
1
1
1
1
1
1
1
1
1
1
1
1
1
1
1
1
1
1
1
1
1
1
1
1
1
1
1
1
1
1
1
1
1
1
1
1
1
1
1
1
1
1
1
1
1
1
1
1
1
1
1
1
1
1
1
1
1
1
1
1
1
1
1
1
1
1
1
1
1
1
1
1
1
1
1
1
1
1
1
1
1
1
1
1
1
1
1
1
1
1
1
1
1
1
1
1
1
1
1
1
1
1
1
1
1
1
1
1
1
1
1
1
1
1
1
1
1
1
1
1
1
1
1
1
1
1
1
1
1
1
1
1
1
1
1
1
1
1
1
1
1
1
1
1
1
1
1
1
1
1
1
1
1
1
1
1
1
1
1
1
1
1
1
1
1
1
1
1
1
1
1
1
1
1
1
1
1
1
1
1
1
1
1
1
1
1
1
1
1
1
1
1
1
1
1
1
1
1
1
1
1
1
1
1
1
1
1
1
1
1
1
1
1
1
1
1
1
1
1
1
1
1
1
1
1
1
1
1
1
1
1
1
1
1
1
1
1
1
1
1
1
1
1
1
1
1
1
1
1
1
1
1
1
1
1
1
1
1
1
1
1
1
1
1
1
1
1
1
1
1
1
1
1
1
1
1
1
1
1
1
1
1
1
1
1
1
1
1
1
1
1
1
1
1
1
1
1
1
1
1
1
1
1
1
1
1
1
1
1
1
1
1
1
1
1
1
1
1
1
1
1
1
1
1
1
1
1
1
1
1
1
1
1
1
1
1
1
1
1
1
1
1
1
1
1
1
1
1
1
1
1
1
1
1
1
1
1
1
1
1
1
1
1
1
1
1
1
1
1
1
1
1
1
1
1
1
1
1
1
1
1
1
1
1
1
1
1
1
1
1
1
1
1
1
1
1
1
1
1
1
1
1
1
1
1
1
1
1
1
1
1
1
1
1
1
1
1
1
1
1
1
1
1
1
1
1
1
1
1
1
1
1
1
1
1
1
1
1
1
1
1
1
1
1
1
1
1
1
1
1
1
1
1
1
1
1
1
1
1
1
1
1
1
1
1
1
1
1
1
1
1
1
1
1
12669.6
12500.9
12210.6
11941.2
3530.65
3224.43
2668.9
1659.45
999.992
999.992
999.992
999.989
999.993
999.992
999.992
999.991
961.473
928.433
903.221
861.959
290.767
218.943
162.258
72.6492
1.03341
1.01657
1.00851
1.02105
1.00552
1.00166
1.00003
1.00547
1
1
1.00001
1.00001
1
1
1
1.00001
1
1
1
1
1
1
1
1
1
1
1
1
1
1
1
1
1
1
1
1
1
1
1
1
1
1
1
1
1
1
1
1
1
1
1
1
1
1
1
1
1
1
1
1
1
1
1
1
1
1
1
1
1
1
1
1
1
1
1
1
1
1
1
1
1
1
1
1
1
1
1
1
1
1
1
1
1
1
1
1
1
1
1
1
1
1
1
1
1
1
1
1
1
1
1
1
1
1
1
1
1
1
1
1
1
1
1
1
1
1
1
1
1
1
1
1
1
1
1
1
1
1
1
1
1
1
1
1
9163.07
2610.66
999.478
999.743
999.743
999.747
987.465
952.988
920.601
876.282
696.991
509.498
500.059
500.017
452.448
345.591
302.308
191.389
1074.34
997.169
998.446
999.486
994.688
953.315
845.335
694.052
592.69
528.114
499.971
499.988
499.998
500
500.266
412.129
423.097
499.988
470.666
227.963
999.788
997.229
920.528
748.164
583.42
486.851
496.827
498.873
499.702
500.022
500.012
500
500.001
500.004
482.933
500.003
500.015
499.197
483.75
920.646
779.348
530.321
400.409
414.539
423.844
452.019
485.827
499.412
499.802
500.011
500
500
499.991
500
500.003
500.018
488.575
474.579
312.236
122.797
176.285
145.899
97.164
79.4265
122.48
218.508
387.379
496.267
500.002
500
500
500
500
500.003
500.007
485.925
453.24
2.07626
1.52103
1.00023
1.00248
1.0038
1.00481
1.00324
18.6228
277.039
500
500.001
500.001
500
500
500
500.002
500.005
495.31
462.49
1.00031
1.00024
1.00049
1.00374
1.0063
1.00578
1.00051
6.21219
296.339
500
500.001
500.001
500
500
500
500
500.001
499.999
499.265
1.01301
1.00587
1.00132
1.0063
1.00628
1.00439
1.00023
2.28224
257.69
500
500.001
500
500
500
500
500
500
500
500
1.00004
1.00012
1.00095
1.00514
1.00505
1.0013
1.00021
1.00005
174.539
498.684
500
500
500
500
500
500
500
500
500
1.00003
1.00002
1.00007
1.00039
1.00043
1.00005
1.00019
1.00011
110.211
470.413
500
500
500
500
500
500
500
500
500
1
1
1
1.00001
1
1.00001
1.00005
1.00004
53.2053
419.628
500
499.999
499.998
500
500
500
500
500
500
1
1
1
1.00001
1.00001
1.00001
1.00002
1.00005
20.4502
362.295
500
500
499.973
499.932
499.983
500
500
500
500
1
1
1
1.00001
1.00002
1.00002
1.00002
1.00004
11.6423
334.375
500
500
499.962
499.924
499.925
499.992
500
500
500
1
1
1
1.00001
1.00002
1.00002
1.00002
1.00005
7.3696
309.847
500
500
499.995
499.94
499.924
499.992
500
500
500
1
1
1
1.00001
1.00002
1.00004
1.00002
1.00002
1.00003
202.674
500
500
500
499.999
499.991
499.988
499.999
500
500
1
1
1
1.00001
1.00002
1.00006
1.00028
1.00002
1.00013
52.8435
389.639
500
500
500
500
499.999
499.999
500
500
1
1
1
1
1.00001
1.00004
1.00068
1.00243
1.0011
1.00119
112.421
433.362
500
500
500
500
499.999
499.993
500
1
1
1
1
1
1.00002
1.00032
1.00371
1.00372
1.00102
1.00033
89.3375
392.466
497.043
500
500
500
499.95
499.587
1
1
1
1
1
1.00001
1.00009
1.00164
1.00381
1.00377
1.00026
1.00005
5.2033
212.09
399.545
468.09
487.445
499.392
499.148
1
1
1
1
1
1
1.00002
1.00007
1.00372
1.00401
1.00104
1.00003
1.00003
1.00003
7.16147
106.832
169.188
294.535
490.364
1
1
1
1
1
1
1.00001
1.00003
1.00054
1.00205
1.00057
1.00006
1.00003
1.00003
1.00003
1.00003
1.00006
31.7838
181.878
1
1
1
1
1
1
1
1.00001
1.00008
1.00013
1.00013
1.00004
1.00003
1.00002
1.00004
1.00006
1.3783
1.35996
2.41457
1
1
1
1
1
1
1
1
1.00002
1.00004
1.00004
1.00003
1.00002
1.00002
1.00003
1.04036
1.43147
1.74085
191.174
1
1
1
1
1
1
1
1
1.00001
1.00001
1.00002
1.00002
1.00002
1.00001
1.00002
1.00023
1.00001
1.00003
454.816
1
1
1
1
1
1
1
1
1
1.00001
1.00001
1.00001
1.00001
1.00001
1.00001
1.00001
1.00001
1.00002
454.737
1
1
1
1
1
1
1
1
1
1
1
1.00001
1.00001
1.00001
1.00001
1.00001
1.00002
1.69337
454.347
1
1
1
1
1
1
1
1
1
1
1
1.00001
1.00001
1.00001
1.00001
1.00001
1.00002
38.2149
455.028
1
1
1
1
1
1
1
1
1
1
1
1.00001
1.00001
1.00001
1.00001
1.00001
1.1997
102.39
416.918
1
1
1
1
1
1
1
1
1
1
1
1.00001
1.00001
1.00001
1.00001
1.00001
7.03123
102.886
67.7926
1
1
1
1
1
1
1
1
1
1
1
1.00001
1.00001
1.00001
1.00001
1.00001
9.54876
6.71032
1.0001
1
1
1
1
1
1
1
1
1.00001
1.00001
1.00001
1.00001
1.00001
1.00001
1.00001
1.00001
4.0341
1.00021
1.0003
1
1
1
1
1
1
1
1
1.00001
1.00001
1.00001
1.00001
1.00001
1.00001
1.00001
1.00001
1.00001
1.02695
1.00162
1
1
1
1
1
1
1
1
1.00001
1.00001
1.00001
1.00002
1.00001
1.00001
1.00001
1.00002
1.00002
1.0012
1.00092
1
1
1
1
1
1
1
1
1
1.00001
1.00002
1.00003
1.00004
1.00004
1.00002
1.00002
1.00086
1.00231
1.00112
1
1
1
1
1
1
1
1
1
1.00001
1.00002
1.00005
1.00007
1.00008
1.00005
1.00002
1.00231
1.00265
1.00043
1
1
1
1
1
1
1
1
1
1
1.00001
1.00004
1.00007
1.00008
1.00005
1.00002
1.00199
1.00177
1.00007
1
1
1
1
1
1
1
1
1
1
1.00001
1.00001
1.00005
1.00007
1.00005
1.00023
1.00042
1.00001
1.00001
1
1
1
1
1
1
1
1
1
1
1
1.00001
1.00002
1.00003
1.00005
1.00014
1.00004
1.00003
1
1
1
1
1
1
1
1
1
1
1
1
1
1.00001
1.00001
1.00003
1.00002
1.00001
1
1
1
1
1
1
1
1
1
1
1
1
1
1
1
1.00001
1.00001
1
1
1
1
1
1
1
1
1
1
1
1
1
1
1
1
1
1
1
1
1
1
1
1
1
1
1
1
1
1
1
1
1
1
1
1
1
1
1
1
1
1
)
;

boundaryField
{
    leftWall
    {
        type            calculated;
        value           nonuniform List<scalar> 
50
(
13529
13529
13529
12749.5
3522.31
1000
1000
1000
1000
1000
1000
695.116
37.4039
1
1
1
1
1
1
1
1
1
1
1
1
1
1
1
1
1
1
1
1
1
1
1
1
1
1
1
1
1
1
1
1
1
1
1
1
1
)
;
    }
    rightWall
    {
        type            calculated;
        value           nonuniform List<scalar> 
50
(
2492.08
2851.83
4391.84
7279.06
7276.72
3073.54
1129.93
1125.38
1074.34
227.963
483.75
474.579
453.24
462.49
499.265
500
500
500
500
500
500
500
500
500
500
499.587
499.148
490.364
181.878
2.41457
191.174
454.816
454.737
454.347
455.028
416.918
67.7926
1.0001
1.0003
1.00162
1.00092
1.00112
1.00043
1.00007
1.00001
1
1
1
1
1
)
;
    }
    lowerWall
    {
        type            calculated;
        value           nonuniform List<scalar> 
62
(
13529
13529
13529
13529
13529
13529
13529
13529
13529
13529
13529
13529
13529
13529
13529
13529
13529
13529
13529
13529
13529
13527.3
13521.6
13521.6
13521.6
13521.6
13527.8
13529
13529
13529
13528.5
12669.6
12500.9
12210.6
11941.2
499.997
499.997
499.874
499.97
499.993
499.972
10017.6
10023.9
499.997
492.5
452.182
396.074
388.635
659.142
571.944
560.667
362.173
217.774
514.63
790.003
824.909
761.067
761.328
1189.63
4035.32
3321.6
2492.08
)
;
    }
    atmosphere
    {
        type            calculated;
        value           nonuniform List<scalar> 
46
(
1
1
1
1
1
1
1
1
1
1
1
1
1
1
1
1
1
1
1
1
1
1
1
1
1
1
1
1
1
1
1
1
1
1
1
1
1
1
1
1
1
1
1
1
1
1
)
;
    }
    defaultFaces
    {
        type            empty;
    }
}


// ************************************************************************* //
