# vtk DataFile Version 2.0
sampleSurface
ASCII
DATASET POLYDATA
POINTS 1819 float
-0.00737698 5e-05 0 -0.0075 5e-05 0 -0.0075 0 0 -0.00737698 0
0 -0.00725396 5e-05 0 -0.00725396 0 0 -0.00713094 5e-05 0
-0.00713094 0 0 -0.00700792 5e-05 0 -0.00700792 0 0 -0.00688489
5e-05 0 -0.00688489 0 0 -0.00676186 5e-05 0 -0.00676186 0
0 -0.00663776 5e-05 0 -0.00663775 0 0 -0.0065 0 0
-0.0065 5e-05 0 -0.00737698 0.0001 0 -0.0075 0.0001 0 -0.00725396
0.0001 0 -0.00713094 0.0001 0 -0.00700792 0.0001 0 -0.00688489 0.0001
0 -0.00676186 0.0001 0 -0.00663777 0.0001 0 -0.0065 0.0001 0
-0.00737698 0.00015 0 -0.0075 0.00015 0 -0.00725396 0.00015 0 -0.00713094
0.00015 0 -0.00700792 0.00015 0 -0.00688489 0.00015 0 -0.00676186 0.00015
0 -0.0066378 0.00015 0 -0.0065 0.00015 0 -0.00737698 0.0002 0
-0.0075 0.0002 0 -0.00725396 0.0002 0 -0.00713094 0.0002 0 -0.00700792
0.0002 0 -0.00688489 0.0002 0 -0.00676186 0.0002 0 -0.00663784 0.0002
0 -0.0065 0.0002 0 -0.00737698 0.00025 0 -0.0075 0.00025 0
-0.00725396 0.00025 0 -0.00713094 0.00025 0 -0.00700792 0.00025 0 -0.00688489
0.00025 0 -0.00676186 0.00025 0 -0.00663789 0.00025 0 -0.0065 0.00025
0 -0.00737698 0.0003 0 -0.0075 0.0003 0 -0.00725396 0.0003 0
-0.00713094 0.0003 0 -0.00700792 0.0003 0 -0.00688489 0.0003 0 -0.00676186
0.0003 0 -0.00663795 0.0003 0 -0.0065 0.0003 0 -0.00737698 0.00035
0 -0.0075 0.00035 0 -0.00725396 0.00035 0 -0.00713094 0.00035 0
-0.00700792 0.00035 0 -0.00688489 0.00035 0 -0.00676186 0.00035 0 -0.00663802
0.00035 0 -0.0065 0.00035 0 -0.00737698 0.0004 0 -0.0075 0.0004
0 -0.00725396 0.0004 0 -0.00713094 0.0004 0 -0.00700792 0.0004 0
-0.00688489 0.0004 0 -0.00676186 0.0004 0 -0.0066381 0.0004 0 -0.0065
0.0004 0 -0.00737698 0.00045 0 -0.0075 0.00045 0 -0.00725396 0.00045
0 -0.00713094 0.00045 0 -0.00700792 0.00045 0 -0.00688489 0.00045 0
-0.00676186 0.00045 0 -0.00663819 0.00045 0 -0.0065 0.00045 0 -0.00737698
0.0005 0 -0.0075 0.0005 0 -0.00725396 0.0005 0 -0.00713094 0.0005
0 -0.00700792 0.0005 0 -0.00688489 0.0005 0 -0.00676186 0.0005 0
-0.0066383 0.0005 0 -0.0065 0.0005 0 -0.00737698 0.00055 0 -0.0075
0.00055 0 -0.00725396 0.00055 0 -0.00713094 0.00055 0 -0.00700792 0.00055
0 -0.00688489 0.00055 0 -0.00676186 0.00055 0 -0.00663841 0.00055 0
-0.0065 0.00055 0 -0.00737698 0.0006 0 -0.0075 0.0006 0 -0.00725396
0.0006 0 -0.00713094 0.0006 0 -0.00700792 0.0006 0 -0.00688489 0.0006
0 -0.00676185 0.0006 0 -0.00663854 0.0006 0 -0.0065 0.0006 0
-0.00737698 0.00065 0 -0.0075 0.00065 0 -0.00725396 0.00065 0 -0.00713094
0.00065 0 -0.00700792 0.00065 0 -0.00688489 0.00065 0 -0.00676185 0.00065
0 -0.00663868 0.00065 0 -0.0065 0.00065 0 -0.00737698 0.0007 0
-0.0075 0.0007 0 -0.00725396 0.0007 0 -0.00713094 0.0007 0 -0.00700792
0.0007 0 -0.00688489 0.0007 0 -0.00676185 0.0007 0 -0.00663885 0.0007
0 -0.0065 0.0007 0 -0.00737698 0.00075 0 -0.0075 0.00075 0
-0.00725396 0.00075 0 -0.00713094 0.00075 0 -0.00700792 0.00075 0 -0.00688489
0.00075 0 -0.00676184 0.00075 0 -0.00663847 0.00075 0 -0.0065 0.00075
0 -0.00289719 0.000183339 0 -0.003 0.000183339 0 -0.003 0 0
-0.00289719 0 0 -0.00278975 0.000183339 0 -0.00278975 0 0 -0.00267814
0.000183339 0 -0.00267814 0 0 -0.00256235 0.000183339 0 -0.00256235 0
0 -0.00244225 0.000183339 0 -0.00244225 0 0 -0.00231769 0.000183339 0
-0.00231769 0 0 -0.0021885 0.000183339 0 -0.0021885 0 0 -0.00205451
0.000183339 0 -0.00205451 0 0 -0.00191554 0.000183339 0 -0.00191554 0
0 -0.00177141 0.000183339 0 -0.00177141 0 0 -0.00162192 0.000183339 0
-0.00162192 0 0 -0.00146687 0.000183339 0 -0.00146688 0 0 -0.00130607
0.000183339 0 -0.00130608 0 0 -0.00113929 0.000183339 0 -0.0011393 0
0 -0.000966316 0.000183339 0 -0.000966321 0 0 -0.000786913 0.000183339 0
-0.000786918 0 0 -0.000600843 0.000183339 0 -0.000600849 0 0 -0.000407861
0.000183339 0 -0.000407866 0 0 -0.000207707 0.000183339 0 -0.000207712 0
0 0 0 0 0 0.000183339 0 -0.00289719 0.000353777 0
-0.003 0.000353777 0 -0.00278975 0.000353777 0 -0.00267813 0.000353777 0 -0.00256234
0.000353777 0 -0.00244224 0.000353777 0 -0.00231768 0.000353777 0 -0.00218849 0.000353777
0 -0.0020545 0.000353777 0 -0.00191553 0.000353777 0 -0.0017714 0.000353777 0
-0.00162191 0.000353777 0 -0.00146687 0.000353777 0 -0.00130606 0.000353777 0 -0.00113928
0.000353777 0 -0.000966306 0.000353777 0 -0.000786903 0.000353777 0 -0.000600833 0.000353777
0 -0.00040785 0.000353777 0 -0.000207696 0.000353777 0 0 0.000353777 0
-0.0028972 0.000512223 0 -0.003 0.000512223 0 -0.00278974 0.000512223 0 -0.00267813
0.000512223 0 -0.00256234 0.000512223 0 -0.00244224 0.000512223 0 -0.00231767 0.000512223
0 -0.00218848 0.000512223 0 -0.00205449 0.000512223 0 -0.00191552 0.000512223 0
-0.00177139 0.000512223 0 -0.0016219 0.000512223 0 -0.00146686 0.000512223 0 -0.00130605
0.000512223 0 -0.00113927 0.000512223 0 -0.000966297 0.000512223 0 -0.000786893 0.000512223
0 -0.000600824 0.000512223 0 -0.00040784 0.000512223 0 -0.000207686 0.000512223 0
0 0.000512223 0 -0.0028972 0.000659519 0 -0.003 0.000659519 0 -0.00278974
0.000659519 0 -0.00267812 0.000659519 0 -0.00256233 0.000659519 0 -0.00244223 0.000659519
0 -0.00231767 0.000659519 0 -0.00218848 0.000659519 0 -0.00205449 0.000659519 0
-0.00191552 0.000659519 0 -0.00177138 0.000659519 0 -0.00162189 0.000659519 0 -0.00146685
0.000659519 0 -0.00130604 0.000659519 0 -0.00113926 0.000659519 0 -0.000966288 0.000659519
0 -0.000786884 0.000659519 0 -0.000600814 0.000659519 0 -0.000407831 0.000659519 0
-0.000207677 0.000659519 0 0 0.000659519 0 -0.00289721 0.000796451 0 -0.003
0.000796451 0 -0.00278974 0.000796451 0 -0.00267812 0.000796451 0 -0.00256232 0.000796451
0 -0.00244222 0.000796451 0 -0.00231766 0.000796451 0 -0.00218847 0.000796451 0
-0.00205448 0.000796451 0 -0.00191551 0.000796451 0 -0.00177137 0.000796451 0 -0.00162188
0.000796451 0 -0.00146684 0.000796451 0 -0.00130604 0.000796451 0 -0.00113926 0.000796451
0 -0.000966279 0.000796451 0 -0.000786875 0.000796451 0 -0.000600805 0.000796451 0
-0.000407822 0.000796451 0 -0.000207668 0.000796451 0 0 0.000796451 0 -0.00289722
0.000923748 0 -0.003 0.000923748 0 -0.00278974 0.000923748 0 -0.00267811 0.000923748
0 -0.00256232 0.000923748 0 -0.00244222 0.000923748 0 -0.00231765 0.000923748 0
-0.00218846 0.000923748 0 -0.00205447 0.000923748 0 -0.0019155 0.000923748 0 -0.00177137
0.000923748 0 -0.00162188 0.000923748 0 -0.00146683 0.000923748 0 -0.00130603 0.000923748
0 -0.00113925 0.000923748 0 -0.000966271 0.000923748 0 -0.000786867 0.000923748 0
-0.000600797 0.000923748 0 -0.000407813 0.000923748 0 -0.000207659 0.000923748 0 0
0.000923748 0 -0.00289723 0.00104209 0 -0.003 0.00104209 0 -0.00278973 0.00104209
0 -0.00267811 0.00104209 0 -0.00256231 0.00104209 0 -0.00244221 0.00104209 0
-0.00231765 0.00104209 0 -0.00218846 0.00104209 0 -0.00205446 0.00104209 0 -0.00191549
0.00104209 0 -0.00177136 0.00104209 0 -0.00162187 0.00104209 0 -0.00146682 0.00104209
0 -0.00130602 0.00104209 0 -0.00113924 0.00104209 0 -0.000966263 0.00104209 0
-0.000786859 0.00104209 0 -0.000600789 0.00104209 0 -0.000407806 0.00104209 0 -0.000207652
0.00104209 0 0 0.00104209 0 -0.00289724 0.0011521 0 -0.003 0.0011521
0 -0.00278973 0.0011521 0 -0.0026781 0.0011521 0 -0.0025623 0.0011521 0
-0.0024422 0.0011521 0 -0.00231764 0.0011521 0 -0.00218845 0.0011521 0 -0.00205446
0.0011521 0 -0.00191549 0.0011521 0 -0.00177135 0.0011521 0 -0.00162186 0.0011521
0 -0.00146682 0.0011521 0 -0.00130601 0.0011521 0 -0.00113923 0.0011521 0
-0.000966256 0.0011521 0 -0.000786852 0.0011521 0 -0.000600782 0.0011521 0 -0.000407798
0.0011521 0 -0.000207645 0.0011521 0 0 0.0011521 0 -0.00289726 0.00125437
0 -0.003 0.00125437 0 -0.00278973 0.00125437 0 -0.00267809 0.00125437 0
-0.0025623 0.00125437 0 -0.0024422 0.00125437 0 -0.00231763 0.00125437 0 -0.00218844
0.00125437 0 -0.00205445 0.00125437 0 -0.00191548 0.00125437 0 -0.00177135 0.00125437
0 -0.00162186 0.00125437 0 -0.00146681 0.00125437 0 -0.00130601 0.00125437 0
-0.00113923 0.00125437 0 -0.000966249 0.00125437 0 -0.000786845 0.00125437 0 -0.000600775
0.00125437 0 -0.000407792 0.00125437 0 -0.000207638 0.00125437 0 0 0.00125437
0 -0.00289727 0.00134945 0 -0.003 0.00134945 0 -0.00278973 0.00134945 0
-0.00267809 0.00134945 0 -0.00256229 0.00134945 0 -0.00244219 0.00134945 0 -0.00231763
0.00134945 0 -0.00218844 0.00134945 0 -0.00205444 0.00134945 0 -0.00191547 0.00134945
0 -0.00177134 0.00134945 0 -0.00162185 0.00134945 0 -0.0014668 0.00134945 0
-0.001306 0.00134945 0 -0.00113922 0.00134945 0 -0.000966243 0.00134945 0 -0.000786839
0.00134945 0 -0.000600769 0.00134945 0 -0.000407786 0.00134945 0 -0.000207632 0.00134945
0 0 0.00134945 0 -0.00289728 0.00143783 0 -0.003 0.00143783 0
-0.00278973 0.00143783 0 -0.00267808 0.00143783 0 -0.00256229 0.00143783 0 -0.00244219
0.00143783 0 -0.00231762 0.00143783 0 -0.00218843 0.00143783 0 -0.00205444 0.00143783
0 -0.00191547 0.00143783 0 -0.00177133 0.00143783 0 -0.00162184 0.00143783 0
-0.0014668 0.00143783 0 -0.00130599 0.00143783 0 -0.00113921 0.00143783 0 -0.000966237
0.00143783 0 -0.000786833 0.00143783 0 -0.000600763 0.00143783 0 -0.00040778 0.00143783
0 -0.000207627 0.00143783 0 0 0.00143783 0 -0.0028973 0.00152 0
-0.003 0.00152 0 -0.00278972 0.00152 0 -0.00267808 0.00152 0 -0.00256228
0.00152 0 -0.00244218 0.00152 0 -0.00231762 0.00152 0 -0.00218843 0.00152
0 -0.00205443 0.00152 0 -0.00191546 0.00152 0 -0.00177133 0.00152 0
-0.00162184 0.00152 0 -0.00146679 0.00152 0 -0.00130599 0.00152 0 -0.00113921
0.00152 0 -0.000966232 0.00152 0 -0.000786828 0.00152 0 -0.000600758 0.00152
0 -0.000407775 0.00152 0 -0.000207622 0.00152 0 0 0.00152 0
-0.00289731 0.00159638 0 -0.003 0.00159638 0 -0.00278972 0.00159638 0 -0.00267807
0.00159638 0 -0.00256228 0.00159638 0 -0.00244218 0.00159638 0 -0.00231761 0.00159638
0 -0.00218842 0.00159638 0 -0.00205443 0.00159638 0 -0.00191546 0.00159638 0
-0.00177132 0.00159638 0 -0.00162183 0.00159638 0 -0.00146679 0.00159638 0 -0.00130598
0.00159638 0 -0.0011392 0.00159638 0 -0.000966227 0.00159638 0 -0.000786823 0.00159638
[...]
POINT_DATA 1819
FIELD attributes 2
p 1 1819 float
-0.0285437 -0.0805092 -0.0723511 -0.0289956 0.0208208 0.0202913 0.0601249 0.0594941 0.0865726 0.0859181 0.0932088
0.0925748 0.079443 0.0791864 0.0497593 0.049958 0.0296237 0.0294039 -0.0274915 -0.0781737 0.0217426
0.0609986 0.0873265 0.0936834 0.0789779 0.048222 0.0275924 -0.0259832 -0.07584 0.0227417 0.061645
0.0876541 0.0933674 0.0772326 0.0448377 0.0234627 -0.0238941 -0.0727447 0.024132 0.0625703 0.0881865
0.0930011 0.0747892 0.0399445 0.0174013 -0.021307 -0.0688997 0.0258143 0.0636588 0.0887895 0.0924321
0.0714085 0.0332838 0.00921675 -0.0183224 -0.0643837 0.0276662 0.064769 0.0893043 0.0914564 0.0667654
0.0244761 -0.00143925 -0.0150523 -0.0593038 0.0295579 0.0657503 0.0895512 0.0897979 0.0604038 0.0129902
-0.0150699 -0.0116251 -0.0537895 0.0313404 0.0664215 0.0892844 0.0870192 0.0516362 -0.00191831 -0.0323701
-0.00818313 -0.0479897 0.0328463 0.0665729 0.0881899 0.0825345 0.039617 -0.0210598 -0.0540414 -0.00487596
-0.0420681 0.0338997 0.065973 0.0859301 0.0759124 0.0239251 -0.0453813 -0.081643 -0.00184856 -0.0361951
0.0343357 0.0643679 0.0821724 0.0673582 0.00575732 -0.0734478 -0.113999 0.000772833 -0.0305356 0.0340329
0.0615347 0.0766395 0.0576827 -0.0116459 -0.0989284 -0.142908 0.00289229 -0.0252353 0.0329258 0.0573494
0.0692286 0.0475327 -0.025723 -0.12242 -0.173777 0.00445556 -0.0204076 0.0310047 0.0518486 0.0601647
0.0369175 -0.0371659 -0.150201 -0.218894 0.00568659 -0.0152001 0.0277937 0.0440563 0.0482693 0.0240554
-0.0462386 -0.150872 -0.210389 4.27164 4.27669 4.27949 4.27482 4.26037 4.26367 4.24253
4.24597 4.21759 4.22108 4.18735 4.19094 4.1522 4.15583 4.11361 4.11721 4.0731
4.07662 4.03226 4.03561 3.99252 3.99563 3.95508 3.95792 3.92089 3.92342 3.89058
3.89278 3.86449 3.86638 3.84276 3.84435 3.82533 3.82668 3.81207 3.81322 3.80286
3.80386 3.79782 3.79873 3.79726 3.7965 4.26337 4.2682 4.25191 4.2338 4.20861
4.17808 4.14276 4.10414 4.06381 4.02335 3.98419 3.94748 3.91412 3.88466 3.85942
3.83846 3.8217 3.80898 3.80017 3.79535 3.79403 4.25041 4.25535 4.23877 4.22036
4.19469 4.16379 4.12818 4.08955 4.04954 4.00972 3.97149 3.93595 3.90388 3.87577
3.85182 3.83205 3.81631 3.80441 3.79618 3.7917 3.79046 4.23226 4.23735 4.22041
4.20164 4.17544 4.14416 4.10836 4.06992 4.03053 3.99177 3.95495 3.92108 3.89081
3.8645 3.84228 3.82404 3.80962 3.79877 3.79129 3.78723 3.7861 4.20885 4.2141
4.19683 4.17773 4.15107 4.11954 4.08377 4.04587 4.00753 3.97031 3.93542 3.90371
3.8757 3.85162 3.83145 3.81504 3.80215 3.79251 3.78589 3.78232 3.78131 4.1797
4.18504 4.1676 4.14832 4.12141 4.08994 4.05461 4.01776 3.98105 3.94597 3.91356
3.88452 3.85921 3.8377 3.81987 3.8055 3.7943 3.78597 3.78028 3.77722 3.77636
4.14396 4.1493 4.13203 4.11287 4.08612 4.05524 4.02098 3.9859 3.95155 3.91928
3.88997 3.86411 3.84188 3.82324 3.80797 3.79579 3.78637 3.77941 3.77468 3.77216
3.77145 4.1005 4.10566 4.08916 4.07068 4.04479 4.01531 3.98304 3.95065 3.91951
3.89081 3.8652 3.843 3.82421 3.80867 3.79611 3.78619 3.77859 3.77303 3.76927
3.76727 3.76672 4.0478 4.05246 4.03779 4.02091 3.99698 3.97007 3.94099 3.9124
3.88545 3.8611 3.83981 3.82168 3.8066 3.79433 3.78456 3.77693 3.77116 3.76696
3.76415 3.76268 3.76227 3.98383 3.98744 3.97638 3.96259 3.94226 3.91952 3.89513
3.87164 3.84992 3.83072 3.81428 3.80058 3.78941 3.7805 3.77353 3.76818 3.76418
3.76131 3.75941 3.75843 3.75816 3.90586 3.90745 3.90305 3.89469 3.88027 3.86381
3.84591 3.82895 3.81351 3.80019 3.78907 3.78006 3.77292 3.76739 3.76317 3.76003
3.75774 3.75613 3.75508 3.75456 3.75442 3.8102 3.80802 3.81557 3.81614 3.81082
3.80325 3.79391 3.78497 3.77684 3.77004 3.7646 3.76043 3.75735 3.75513 3.75359
3.75255 3.75186 3.75143 3.75118 3.75108 3.75106 3.69181 3.68258 3.71137 3.72595
3.73397 3.7384 3.73986 3.7404 3.7405 3.74073 3.7412 3.74193 3.74284 3.74384
3.74484 3.74577 3.74658 3.74723 3.74771 3.74799 3.74808 3.5437 3.5211 3.5877
3.62338 3.65015 3.67008 3.68462 3.69599 3.70505 3.71266 3.71914 3.72472 3.7295
3.73355 3.73694 3.73969 3.74186 3.7435 3.74464 3.74527 3.74545 3.35598 3.3078
3.44192 3.50802 3.56022 3.59932 3.62911 3.65245 3.67103 3.68618 3.69862 3.70891
3.71737 3.72429 3.72987 3.73429 3.7377 3.74022 3.74195 3.74289 3.74316 3.11413
3.01718 3.27198 3.38001 3.46552 3.52738 3.57436 3.61047 3.63885 3.66152 3.67978
3.69455 3.70646 3.71602 3.72361 3.72954 3.73406 3.73736 3.73961 3.74083 3.74117
2.79636 2.60832 3.07694 3.24034 3.36792 3.45575 3.52133 3.57065 3.60884 3.63886
3.66267 3.68165 3.69675 3.70872 3.71811 3.72539 3.73089 3.73489 3.7376 3.73905
3.73945 2.36692 2.01527 2.85629 3.09193 3.26975 3.38597 3.47088 3.53346 3.58125
3.61828 3.6473 3.67016 3.68817 3.70231 3.71332 3.72178 3.72815 3.73276 3.73587
3.73753 3.73799 1.78019 1.15346 2.6113 2.94037 3.17371 3.3195 3.42377 3.49926
3.55619 3.5998 3.63364 3.66004 3.68066 3.69674 3.70917 3.71868 3.7258 3.73094
3.73439 3.73623 3.73674 1.04689 -3.6951 2.34653 2.79954 3.08694 3.26064 3.38257
3.46969 3.53475 3.58414 3.62215 3.65159 3.67444 3.69214 3.70577 3.71615 3.72389
3.72946 3.7332 3.73519 3.73572 0.00649969 -0.00800972 0.0217928 0.0315807 0.03107 0.0087324
-0.0461837 -0.109066 -0.146739 0.00601387 -0.0032701 0.0151145 0.0195639 0.0160049 -0.00197226 -0.0387344
-0.0766013 -0.100759 0.00462521 -0.000591757 0.0088292 0.00933779 0.00382052 -0.0108501 -0.0356198 -0.0613592
-0.0804187 0.00293067 0.000735621 0.00322153 0.000885673 -0.00581389 -0.0183794 -0.0364252 -0.055355 -0.0712127
0.000890654 0.000950323 -0.00169525 -0.00599316 -0.0134454 -0.0247301 -0.0392476 -0.0545825 -0.0686049 -0.00171118
0.000125456 -0.00597732 -0.0116499 -0.0196363 -0.0301755 -0.04276 -0.0561054 -0.0688562 -0.00412901 -0.000851779
-0.00959326 -0.0163517 -0.0247908 -0.035008 -0.0466637 -0.0590284 -0.0710862 -0.0059203 -0.00148297 -0.0125534
-0.0202032 -0.0290863 -0.0392566 -0.050526 -0.06246 -0.0741704 -0.00731802 -0.00196768 -0.0149539 -0.0233675
-0.0327008 -0.0430062 -0.0542112 -0.0660494 -0.0776552 -0.00841536 -0.00235308 -0.0168941 -0.0259682 -0.0357445
-0.0462865 -0.0576073 -0.0695481 -0.0812137 -0.0092801 -0.00266585 -0.0184589 -0.0281008 -0.0382975 -0.049124
-0.060652 -0.0728059 -0.084635 -0.0099612 -0.00292238 -0.0197156 -0.029839 -0.0404241 -0.0515595 -0.0633399
-0.0757484 -0.0877901 -0.0104927 -0.00313118 -0.0207156 -0.03123 -0.0421435 -0.0535765 -0.0655949 -0.0781371
-0.0903648 -0.0108828 -0.00329093 -0.0214774 -0.0322963 -0.0434812 -0.0552706 -0.0676624 -0.0800567 -0.0925198
-0.0110411 -0.00404572 -0.0217982 -0.0327504 -0.0440642 -0.0560723 -0.068737 -0.0810686 -0.0942642 -0.146455
-0.172095 -0.136434 -0.15361 -0.13123 -0.143029 -0.1293 -0.137763 -0.129719 -0.135868 -0.132015
-0.1365 -0.135896 -0.139141 -0.141158 -0.143445 -0.14766 -0.149179 -0.1553 -0.156183 -0.164013
-0.164351 -0.173758 -0.173615 -0.184512 -0.183935 -0.196266 -0.19529 -0.209026 -0.207679 -0.222817
-0.221114 -0.237674 -0.235623 -0.25364 -0.251245 -0.270768 -0.268028 -0.289115 -0.286026 -0.308743
-0.305302 -0.329719 -0.325919 -0.352106 -0.347943 -0.375968 -0.371434 -0.401356 -0.396446 -0.428295
-0.423006 -0.456733 -0.451084 -0.486448 -0.480516 -0.516961 -0.510916 -0.547551 -0.541653 -0.577636
-0.572095 -0.607645 -0.602312 -0.640397 -0.634361 -0.682933 -0.674177 -0.748884 -0.733945 -0.861124
-0.834747 -1.05504 -1.00954 -1.37754 -1.30246 -1.87403 -1.75803 -2.56278 -2.40007 -3.40265
-3.20202 -4.27008 -4.05982 -4.99026 -4.81155 -5.43148 -5.31972 -5.58324 -5.5466 -5.56328
-5.57544 -5.54919 -5.57468 -5.71455 -5.70587 -6.96052 -7.08238 -4.96817 -0.109858 -0.112099
-0.114248 -0.117082 -0.120837 -0.125557 -0.131248 -0.137894 -0.14548 -0.153989 -0.163413 -0.173754
-0.185017 -0.197222 -0.210399 -0.224586 -0.239827 -0.256178 -0.273695 -0.292436 -0.312465 -0.333853
-0.356671 -0.380984 -0.406843 -0.434259 -0.463139 -0.493197 -0.523884 -0.554498 -0.5847 -0.615492
-0.650606 -0.698439 -0.774792 -0.905411 -1.13006 -1.50057 -2.06336 -2.82755 -3.72829 -4.61063
-5.27897 -5.61063 -5.63746 -5.53048 -5.48786 -5.68815 -6.31793 -4.2022 -0.0914452 -0.0979267
-0.103501 -0.109022 -0.114883 -0.121261 -0.128261 -0.135944 -0.144354 -0.153524 -0.163483 -0.17426
-0.185889 -0.198413 -0.211876 -0.226326 -0.241815 -0.258402 -0.27615 -0.295128 -0.315411 -0.337078
-0.360205 -0.38486 -0.411093 -0.438912 -0.468229 -0.498789 -0.530145 -0.561817 -0.593801 -0.627529
-0.667347 -0.722788 -0.811733 -0.963304 -1.22201 -1.64271 -2.2712 -3.10679 -4.06081 -4.94739
-5.55604 -5.78032 -5.6879 -5.49539 -5.42862 -5.58366 -5.60221 -3.38222 -0.0824651 -0.0904464
-0.097602 -0.104633 -0.111836 -0.119369 -0.127344 -0.135845 -0.14494 -0.154686 -0.165132 -0.176327
-0.18832 -0.201163 -0.214907 -0.229611 -0.245334 -0.262141 -0.280105 -0.299311 -0.319842 -0.341782
-0.365216 -0.390224 -0.416879 -0.445223 -0.475224 -0.506726 -0.539442 -0.573133 -0.608124 -0.6463
-0.692715 -0.757998 -0.861588 -1.03535 -1.32578 -1.78818 -2.46557 -3.34814 -4.32948 -5.20356
-5.75661 -5.89669 -5.71577 -5.4652 -5.35371 -5.34501 -4.83619 -2.63001 -0.0797839 -0.0884013
-0.0962934 -0.104082 -0.112018 -0.120232 -0.128824 -0.137875 -0.147455 -0.157627 -0.168448 -0.179975
-0.192267 -0.20538 -0.219377 -0.234321 -0.250284 -0.267338 -0.285567 -0.305057 -0.325902 -0.348196
-0.372041 -0.397545 -0.424812 -0.453927 -0.484917 -0.517721 -0.552207 -0.588389 -0.626987 -0.670433
-0.724478 -0.800562 -0.918884 -1.11158 -1.42375 -1.9072 -2.59961 -3.48466 -4.4503 -5.28873
-5.79381 -5.88453 -5.66852 -5.38326 -5.17323 -4.91027 -4.0032 -1.96268 -0.0797517 -0.0885699
-0.0968135 -0.105038 -0.113445 -0.122137 -0.131194 -0.140686 -0.150678 -0.161234 -0.172415 -0.18428
-0.196893 -0.210316 -0.224617 -0.239868 -0.256146 -0.273533 -0.29212 -0.312004 -0.333291 -0.356094
-0.380535 -0.406747 -0.434865 -0.465009 -0.497261 -0.531646 -0.568208 -0.607276 -0.65005 -0.699552
-0.762069 -0.84921 -0.980452 -1.18543 -1.50399 -1.98025 -2.64401 -3.47631 -4.37241 -5.14302
-5.60037 -5.67523 -5.46189 -5.14068 -4.80408 -4.30388 -3.18565 -1.40922 -0.0817593 -0.0906532
-0.0990753 -0.10755 -0.116253 -0.125266 -0.134654 -0.144479 -0.154801 -0.16568 -0.177177 -0.189355
-0.202278 -0.216015 -0.230639 -0.246227 -0.262864 -0.280643 -0.299664 -0.320037 -0.341883 -0.365334
-0.390538 -0.417653 -0.446848 -0.478288 -0.512121 -0.548503 -0.587722 -0.630504 -0.678566 -0.735417
-0.807497 -0.90571 -1.0472 -1.25675 -1.56616 -2.00892 -2.60523 -3.33536 -4.11101 -4.77677
-5.17604 -5.24467 -5.04518 -4.70141 -4.27447 -3.63695 -2.48855 -0.997756 -0.0846914 -0.0936127
-0.102141 -0.110785 -0.119701 -0.128958 -0.13861 -0.148713 -0.159321 -0.170494 -0.18229 -0.194775
-0.208015 -0.222084 -0.237059 -0.253024 -0.270074 -0.28831 -0.307845 -0.328805 -0.35133 -0.375575
-0.401717 -0.429949 -0.460486 -0.49356 -0.529439 -0.568481 -0.611299 -0.659068 -0.713977 -0.779799
-0.862617 -0.971759 -1.12083 -1.32847 -1.61755 -2.01072 -2.51916 -3.12357 -3.7544 -4.29362
-4.61988 -4.67773 -4.49964 -4.16238 -3.70385 -3.02615 -1.95366 -0.715049 -0.0881064 -0.0970532
-0.105663 -0.114441 -0.123527 -0.132983 -0.142858 -0.153202 -0.164067 -0.175509 -0.18759 -0.200375
-0.213934 -0.228344 -0.243688 -0.260059 -0.277558 -0.2963 -0.316412 -0.338038 -0.361341 -0.386507
-0.413746 -0.443305 -0.475464 -0.510564 -0.549049 -0.591545 -0.639035 -0.693151 -0.756486 -0.832847
-0.927463 -1.04738 -1.20196 -1.4034 -1.66646 -2.00518 -2.42469 -2.90786 -3.40225 -3.82186
-4.07697 -4.12105 -3.96504 -3.65115 -3.19693 -2.53041 -1.56478 -0.523583 -0.0916654 -0.100649
-0.109336 -0.118235 -0.127473 -0.137106 -0.147179 -0.15774 -0.16884 -0.180536 -0.192888 -0.205965
-0.21984 -0.234593 -0.250314 -0.267104 -0.285074 -0.304351 -0.325079 -0.347423 -0.371574 -0.397751
-0.426214 -0.457271 -0.491298 -0.528768 -0.570358 -0.616998 -0.670029 -0.731503 -0.804379 -0.892392
-0.999561 -1.13026 -1.2893 -1.48258 -1.71807 -2.00417 -2.34384 -2.72438 -3.10785 -3.43193
-3.62992 -3.66112 -3.52212 -3.23163 -2.79228 -2.15358 -1.28657 -0.389821 -0.0951319 -0.104158
-0.112927 -0.121945 -0.131327 -0.141123 -0.151378 -0.162139 -0.173457 -0.18539 -0.197999 -0.211355
-0.225535 -0.240624 -0.256719 -0.273926 -0.292368 -0.312184 -0.333536 -0.356612 -0.381634 -0.408856
-0.438584 -0.471204 -0.507198 -0.54715 -0.592066 -0.64318 -0.702084 -0.771284 -0.853974 -0.953598
-1.07291 -1.21413 -1.37764 -1.56312 -1.77301 -2.01213 -2.2838 -2.58136 -2.8793 -3.13232
-3.28834 -3.30934 -3.18168 -2.90845 -2.48399 -1.8754 -1.08779 -0.293317 -0.0983708 -0.107465
-0.116332 -0.125476 -0.134999 -0.14495 -0.155375 -0.166321 -0.17784 -0.189991 -0.202838 -0.216453
-0.230918 -0.246321 -0.262764 -0.280361 -0.29924 -0.319556 -0.341486 -0.365241 -0.391067 -0.419259
-0.450167 -0.484244 -0.522083 -0.564453 -0.612421 -0.667432 -0.73155 -0.807539 -0.898666 -1.0081
-1.13789 -1.28792 -1.45494 -1.63475 -1.82523 -2.02821 -2.24738 -2.48098 -2.71357 -2.91298
-3.03753 -3.05028 -2.92963 -2.66802 -2.25627 -1.67548 -0.948254 -0.22432 -0.10115 -0.110392
-0.119382 -0.128655 -0.138311 -0.148405 -0.158981 -0.17009 -0.181786 -0.194127 -0.207181 -0.22102
-0.235728 -0.251395 -0.268142 -0.286078 -0.305323 -0.326053 -0.348455 -0.37275 -0.399202 -0.428131
-0.459932 -0.495113 -0.53433 -0.578495 -0.628632 -0.686372 -0.754067 -0.83452 -0.930972 -1.04641
-1.18245 -1.33723 -1.50605 -1.68321 -1.86421 -2.04835 -2.23761 -2.4314 -2.61972 -2.77949
-2.87773 -2.88034 -2.76125 -2.50543 -2.10232 -1.54352 -0.858468 -0.178352 -0.103778 -0.113182
-0.122172 -0.13152 -0.141261 -0.151451 -0.162133 -0.173353 -0.185166 -0.197631 -0.210814 -0.224789
-0.239641 -0.255462 -0.272359 -0.290457 -0.309903 -0.330859 -0.353512 -0.378088 -0.404859 -0.434157
-0.466409 -0.502149 -0.542049 -0.587013 -0.638229 -0.697369 -0.766691 -0.84898 -0.947343 -1.06453
-1.20177 -1.35741 -1.52719 -1.70532 -1.88678 -2.06937 -2.25253 -2.4333 -2.60167 -2.7381
-2.81533 -2.80386 -2.67834 -2.42068 -2.01906 -1.47122 -0.808797 -0.148619 -0.10523 -0.114636
-0.123562 -0.13292 -0.142684 -0.152905 -0.16362 -0.174876 -0.186725 -0.199226 -0.212446 -0.226456
-0.241342 -0.2572 -0.274104 -0.292209 -0.311692 -0.33269 -0.355389 -0.380016 -0.406846 -0.436223
-0.468579 -0.50445 -0.544516 -0.589679 -0.641151 -0.700598 -0.770236 -0.852801 -0.951319 -1.06847
-1.20542 -1.36077 -1.5309 -1.71048 -1.89429 -2.07969 -2.26503 -2.4456 -2.61019 -2.73958
-2.80823 -2.78898 -2.65823 -2.3978 -1.99495 -1.44928 -0.793304 -0.0934079 0.520547 2.1091
2.68545 3.01596 3.21309 3.34938 3.44605 3.51772 3.57178 3.61314 3.64501 3.66961
3.68859 3.70315 3.7142 3.72243 3.72833 3.73229 3.73439 3.73495 0.395117 1.93147
2.58999 2.95262 3.17079 3.31983 3.42512 3.50274 3.56098 3.60532 3.63932 3.66546
3.68556 3.70092 3.71255 3.72119 3.72738 3.73152 3.73372 3.73431 0.458975 1.81164
2.50747 2.89298 3.13044 3.29152 3.40517 3.48852 3.55079 3.59798 3.63401 3.66161
3.68275 3.69887 3.71103 3.72005 3.7265 3.73082 3.7331 3.73371 0.538549 1.73102
2.43735 2.83838 3.09259 3.26479 3.38636 3.47517 3.54127 3.59116 3.6291 3.65806
3.68018 3.69699 3.70965 3.71902 3.72571 3.73018 3.73255 3.73318 0.592213 1.67328
2.37721 2.78926 3.05761 3.23991 3.36886 3.46279 3.5325 3.58491 3.62462 3.65484
3.67785 3.6953 3.70841 3.7181 3.72501 3.72962 3.73205 3.7327 0.631751 1.63187
2.32529 2.74561 3.02571 3.21707 3.35279 3.45148 3.52451 3.57925 3.6206 3.65196
3.67578 3.6938 3.70732 3.71729 3.72439 3.72912 3.73162 3.73229 0.662312 1.60282
2.28083 2.70728 2.99705 3.19644 3.33829 3.4413 3.51738 3.57422 3.61704 3.64943
3.67396 3.69249 3.70637 3.71658 3.72385 3.7287 3.73125 3.73193 0.684771 1.58221
2.24327 2.67413 2.97176 3.17817 3.32546 3.43235 3.51114 3.56986 3.61397 3.64726
3.67242 3.69138 3.70556 3.71599 3.7234 3.72834 3.73094 3.73163 0.702342 1.56713
2.21197 2.64598 2.94994 3.16239 3.31441 3.42469 3.50584 3.56619 3.61142 3.64547
3.67115 3.69048 3.70491 3.71552 3.72304 3.72806 3.73069 3.73139 0.718009 1.55595
2.18641 2.6227 2.93171 3.14924 3.30526 3.4184 3.50155 3.56325 3.60939 3.64406
3.67017 3.68978 3.70441 3.71515 3.72277 3.72784 3.73051 3.73121 0.732396 1.54783
2.1663 2.60431 2.91727 3.13891 3.29815 3.4136 3.49832 3.56107 3.60791 3.64305
3.66947 3.6893 3.70407 3.71491 3.72259 3.7277 3.73038 3.7311 0.744898 1.54265
2.15194 2.59119 2.90705 3.13173 3.29333 3.41042 3.49624 3.55971 3.60702 3.64246
3.66907 3.68903 3.70389 3.71478 3.72249 3.72762 3.73032 3.73104 0.756595 1.5418
2.14463 2.58438 2.90183 3.12823 3.29112 3.40908 3.49545 3.55925 3.60675 3.64231
3.66899 3.68899 3.70387 3.71477 3.72249 3.72763 3.73033 3.73106 0.769622 1.54605
2.14482 2.58405 2.90163 3.12834 3.29142 3.40946 3.49583 3.55959 3.60705 3.64255
3.66919 3.68914 3.70399 3.71486 3.72257 3.72769 3.7304 3.73113 0.777879 1.55056
2.14757 2.58605 2.90316 3.12955 3.29238 3.41021 3.49641 3.56004 3.60739 3.64281
3.66938 3.68929 3.7041 3.71495 3.72264 3.72774 3.73045 3.73118 
U 3 1819 float
0.432585 -0.00575622 -3.25261e-19 0.420367 -0.000682004 -4.91279e-20 0.421283 -0.000793611 -3.46166e-05 0.433725 -0.00318797
-0.000139057 0.471507 -0.0117069 -3.79471e-19 0.472652 -0.00646289 -0.000281907 0.537779 -0.0177204 7.04731e-19
0.538822 -0.00977212 -0.000426253 0.630948 -0.0229678 -7.58942e-19 0.631744 -0.0126257 -0.000550726 0.742718
-0.0262277 -9.75782e-19 0.742995 -0.0144213 -0.000629047 0.866072 -0.0246079 1.0842e-19 0.865716 -0.0134712
-0.000587603 0.960974 -0.0148523 -6.50521e-19 0.960553 -0.00814009 -0.000355065 0.996675 -0.00190068 -8.29059e-05
0.998493 -0.00156782 -3.32037e-19 0.42929 -0.010759 -1.0842e-19 0.417031 -0.00143572 6.77626e-20 0.468187
-0.0219129 -1.19262e-18 0.534695 -0.0332331 -1.0842e-19 0.62858 -0.0433065 1.73472e-18 0.741851 -0.0494716
1.51788e-18 0.867055 -0.0465689 -1.73472e-18 0.962306 -0.0278308 -3.46945e-18 0.998497 -0.00311933 -2.71051e-19
0.423887 -0.015773 9.75782e-19 0.411678 -0.00216129 -2.03288e-19 0.462714 -0.0321704 2.1684e-19 0.529503
-0.0489538 -2.1684e-19 0.624552 -0.0641975 -2.38524e-18 0.74032 -0.0735002 3.68629e-18 0.868689 -0.0692084
-5.85469e-18 0.964846 -0.0406836 6.50521e-19 0.998936 -0.00435466 -2.30393e-19 0.416285 -0.0208942 5.42101e-19
0.404171 -0.00292226 -3.25261e-19 0.454951 -0.0427372 3.79471e-18 0.522011 -0.0653565 4.33681e-19 0.618649
-0.0863133 1.73472e-18 0.738045 -0.0992753 -4.33681e-18 0.871196 -0.0932702 8.67362e-19 0.968952 -0.0536704
-4.77049e-18 0.999765 -0.00544561 -2.30393e-19 0.40648 -0.0259777 -1.73472e-18 0.394526 -0.00371051 -8.13152e-20
0.444828 -0.0533424 6.50521e-19 0.512053 -0.0821188 4.55365e-18 0.610633 -0.109424 1.30104e-18 0.734944
-0.12675 -4.33681e-19 0.874884 -0.118646 -3.46945e-18 0.97498 -0.0663341 -1.27936e-17 1.00105 -0.00622211
-7.86047e-19 0.39449 -0.0309599 -1.51788e-18 0.382781 -0.00452317 -8.13152e-20 0.432284 -0.0638815 -2.81893e-18
0.499427 -0.0991847 -1.73472e-18 0.600168 -0.133707 3.46945e-18 0.730841 -0.156436 2.1684e-18 0.880076
-0.145749 -6.50521e-18 0.983405 -0.0784244 -4.33681e-18 1.00292 -0.00647157 -9.21572e-19 0.380356 -0.0357758
-1.51788e-18 0.369003 -0.00535331 -8.13152e-20 0.417256 -0.0742441 -1.51788e-18 0.483856 -0.116496 3.46945e-18
0.586713 -0.159406 -8.67362e-19 0.725142 -0.189043 -4.33681e-18 0.886414 -0.175194 1.04083e-17 0.994256
-0.0897286 2.1684e-18 1.0055 -0.00593192 -1.6263e-19 0.364148 -0.0403374 -7.15573e-18 0.353291 -0.00618799
-1.24683e-18 0.399686 -0.0842575 -2.1684e-18 0.464967 -0.133891 3.46945e-18 0.56934 -0.186657 2.60209e-18
0.716012 -0.22525 1.12757e-17 0.891042 -0.207731 -1.12757e-17 1.00559 -0.100303 9.97466e-18 1.00874
-0.00439126 4.20128e-19 0.345982 -0.0445283 -8.99888e-18 0.335789 -0.00700784 -1.27394e-18 0.379538 -0.0936581
-5.63785e-18 0.442276 -0.150993 8.23994e-18 0.546472 -0.215173 -1.73472e-18 0.699217 -0.265125 -4.33681e-18
0.886148 -0.244095 1.73472e-18 1.01127 -0.111142 3.55618e-17 1.01196 -0.00199345 4.26905e-19 0.326036
-0.0482018 6.50521e-19 0.3167 -0.00778726 7.04731e-19 0.356836 -0.102064 -4.33681e-18 0.415284 -0.167064
1.30104e-18 0.515877 -0.243688 1.73472e-18 0.667952 -0.307004 -1.73472e-17 0.858752 -0.284391 3.20924e-17
1.00026 -0.124958 2.0383e-17 1.0134 0.000245642 -3.3119e-19 0.304568 -0.0511862 6.93889e-18 0.296285
-0.00849538 1.35525e-18 0.331762 -0.108979 3.03577e-18 0.383812 -0.18095 -5.20417e-18 0.475494 -0.269637