/*--------------------------------*- C++ -*----------------------------------*\
  =========                 |
  \\      /  F ield         | OpenFOAM: The Open Source CFD Toolbox
   \\    /   O peration     | Website:  https://openfoam.org
    \\  /    A nd           | Version:  13
     \\/     M anipulation  |
\*---------------------------------------------------------------------------*/
FoamFile
{
    format      ascii;
    class       volScalarField;
    location    "0.65";
    object      alpha.water;
}
// * * * * * * * * * * * * * * * * * * * * * * * * * * * * * * * * * * * * * //

dimensions      [];

internalField   nonuniform List<scalar> 
2268
(
1.55304e-12
1.05612e-11
2.5759e-11
2.93482e-11
3.0894e-11
3.34364e-11
3.07882e-11
2.63906e-11
2.30871e-11
2.18142e-11
2.1792e-11
2.34207e-11
2.64416e-11
3.07946e-11
3.56144e-11
3.9977e-11
4.43252e-11
5.1363e-11
8.10074e-11
2.35939e-10
9.09357e-10
2.39659e-09
2.62891e-09
1.66404e-13
3.52084e-11
6.22754e-11
8.74792e-11
1.23318e-10
1.89483e-10
2.21614e-10
2.38574e-10
2.24611e-10
1.88778e-10
1.52264e-10
1.16272e-10
8.59632e-11
9.35841e-11
1.0855e-10
1.28371e-10
1.42615e-10
1.56146e-10
2.11063e-10
4.32869e-10
1.26122e-09
2.57149e-09
2.67655e-09
2.51174e-10
5.71678e-10
6.4787e-10
6.63883e-10
2.33134e-10
2.09759e-11
2.22326e-11
2.02471e-10
8.02879e-10
1.04469e-09
1.02873e-09
9.04057e-10
5.40511e-10
2.61549e-10
2.19767e-10
2.4528e-10
2.68535e-10
2.88249e-10
3.71645e-10
6.758e-10
1.47067e-09
2.5422e-09
2.67026e-09
0.158138
0.164576
0.14928
0.116719
0.0780816
0.0409903
0.0103459
2.05393e-10
2.03011e-10
2.17386e-10
2.00916e-10
2.90452e-10
2.37344e-09
2.51174e-09
9.58127e-10
3.64833e-10
3.60016e-10
4.02803e-10
5.21053e-10
7.63545e-10
1.50262e-09
2.73251e-09
3.26839e-09
0.927549
0.90423
0.883561
0.849314
0.79505
0.71321
0.590417
0.409913
0.211766
0.0572116
6.68033e-09
2.95906e-10
9.04223e-10
1.03538e-09
4.68297e-10
2.823e-10
4.20408e-10
5.52801e-10
6.32816e-10
9.81577e-10
2.79259e-09
7.58774e-09
6.0985e-09
1
1
1
1
1
1
0.999897
0.991039
0.92854
0.748291
0.403147
0.0971626
1.30929e-09
1.67348e-10
1.70358e-10
1.7192e-10
2.83957e-10
4.42284e-10
5.73389e-10
1.57427e-09
7.8305e-09
1.60773e-08
8.77114e-09
1
1
1
1
1
1
1
1
1
1
0.986272
0.805293
0.371282
0.0427458
1.53979e-10
1.50277e-10
1.94882e-10
1.954e-10
2.92924e-10
1.43205e-09
1.03933e-08
1.00847e-07
8.70366e-09
1
1
1
1
1
1
1
1
1
1
1
1
0.982142
0.730146
0.258694
0.0157659
2.09294e-09
0.000867003
1.52487e-10
1.24496e-10
1.45201e-10
6.34841e-07
8.67986e-09
3.18846e-08
4.4446e-07
4.87461e-07
3.71161e-07
2.54875e-07
2.7722e-07
3.10447e-07
2.77244e-07
7.84973e-05
0.000104905
0.000154451
0.000207344
0.000169827
0.000125753
4.17816e-05
1.94447e-05
4.32752e-07
1.99134e-08
2.08961e-09
6.4686e-09
2.67584e-08
1.87228e-10
3.82286e-28
-1.79214e-09
0.00857858
0.0171433
0.0210428
0.0188352
0.00718391
0.00252627
0.000182361
1.65322e-05
1.447e-05
1.52758e-05
5.64224e-06
1.45933e-06
9.36956e-06
6.95711e-07
2.37273e-09
1.56253e-09
4.52224e-10
1.54251e-18
0.0253499
0.0921289
0.101817
0.110458
0.104809
0.0924589
0.0481058
0.0234825
0.0212
0.0204877
0.0136725
0.00924803
0.0047022
3.44389e-09
3.73861e-10
1.59493e-09
1.67905e-10
1.54349e-10
0.0731226
0.255231
0.439729
0.664543
0.746603
0.706966
0.482938
0.284413
0.224814
0.231996
0.272053
0.287057
0.156647
0.0155667
1.5393e-09
1.74686e-25
1.25606e-09
1.66991e-10
0.136448
0.465381
0.827628
0.999549
0.994705
0.987053
0.985501
0.985062
0.943823
0.848843
0.843229
0.865916
0.824436
0.419985
0.0027945
1.36297e-07
1.05606e-09
0.0155225
0.119764
0.349008
0.852108
0.999598
0.99958
0.999584
0.998688
0.996095
0.997302
0.998281
0.996682
0.996155
0.993893
0.986666
0.341747
2.4571e-10
1.80378e-06
8.21692e-07
0.272731
0.336685
0.795361
0.999598
0.999581
0.999602
0.99958
0.999584
0.999545
0.99953
0.999502
0.99869
0.998456
0.998357
0.679873
0.0561404
0.000167873
1.94578e-06
2.05039e-06
0.281808
0.848031
0.998538
0.999534
0.999626
0.999593
0.999617
0.999546
0.986712
0.984123
0.987717
0.985339
0.903305
0.464266
0.0311553
7.92355e-05
4.00871e-05
2.10992e-06
1.72635e-06
1
1
1
1
1
1
1
1
1
1
1
1
1
1
0.974057
0.843133
0.63248
0.436027
0.308328
0.245964
0.290722
0.35101
0.427787
1
1
1
1
1
1
1
1
1
1
1
1
1
1
1
1
1
1
1
0.999995
0.999997
0.999999
0.999998
1
1
1
1
1
1
1
1
1
1
1
1
1
1
1
1
1
1
1
1
1
0.999999
0.999997
0.809215
0.777846
0.780233
0.812839
0.86291
0.918741
0.966707
0.994764
1
1
1
1
1
1
1
1
1
1
1
1
1
0.999992
0.999346
0.112694
0.0887686
0.0841253
0.101949
0.137702
0.195767
0.287681
0.429977
0.616699
0.783836
0.894707
0.962791
0.990209
0.995881
0.999081
0.999609
0.998054
0.994787
0.986143
0.959845
0.895073
0.76946
0.547046
1.13163e-06
6.62527e-07
4.99539e-07
3.71585e-07
2.94742e-07
2.23497e-07
2.01193e-07
9.54918e-05
0.000402064
0.0210375
0.101802
0.205046
0.31167
0.433106
0.52261
0.544441
0.499939
0.449037
0.383233
0.282293
0.157291
0.0353829
9.14179e-20
1.41447e-08
8.46898e-09
7.02744e-09
3.95008e-09
1.92953e-09
7.91709e-10
1.94893e-10
1.63619e-08
-1.16998e-13
-3.14302e-14
2.20956e-15
2.76944e-14
7.74416e-14
2.52333e-13
-1.80652e-14
2.22618e-28
4.00473e-29
1.37551e-28
1.10041e-27
3.514e-22
-2.0454e-10
-1.03177e-09
-1.07639e-09
1.9197e-09
1.22102e-09
8.03031e-10
3.71118e-10
1.61024e-10
4.36324e-11
4.75218e-12
-1.61795e-13
-2.24554e-13
-1.31139e-13
1.73702e-13
1.02597e-12
3.09725e-12
8.52335e-12
2.01828e-11
3.31369e-11
4.636e-11
7.14262e-11
1.14789e-10
1.76603e-10
-1.85851e-10
-1.33611e-09
-1.57916e-09
1.22944e-10
9.63854e-11
5.35288e-11
2.0813e-11
7.39974e-12
1.32533e-12
-1.10116e-13
-2.20829e-13
-2.10725e-13
-1.28498e-13
1.78792e-13
1.09926e-12
3.97798e-12
1.31125e-11
3.68196e-11
7.74093e-11
1.36711e-10
2.19525e-10
3.39691e-10
4.16641e-10
4.20026e-10
3.55905e-10
3.24887e-10
3.64397e-12
3.68175e-12
1.95911e-12
5.12999e-13
8.04737e-14
-1.14672e-13
-1.52388e-13
-1.50471e-13
-1.31561e-13
-4.62495e-14
2.53751e-13
1.07907e-12
3.8938e-12
1.28084e-11
3.47538e-11
6.87576e-11
1.06849e-10
1.68782e-10
2.76704e-10
3.32045e-10
3.58472e-10
3.67848e-10
3.75233e-10
3.77884e-14
5.55008e-14
2.77456e-14
-3.56583e-14
-7.09909e-14
-8.26559e-14
-8.0355e-14
-7.30443e-14
-5.18655e-14
3.58988e-14
3.26375e-13
1.20117e-12
3.76284e-12
1.19187e-11
2.93497e-11
5.3581e-11
7.75472e-11
1.08688e-10
1.38253e-10
1.31513e-10
1.27239e-10
1.38056e-10
1.6417e-10
6.28089e-17
-3.05464e-17
-2.31006e-15
-2.34738e-14
-3.52146e-14
-3.50814e-14
-3.09154e-14
-2.46536e-14
-4.26532e-15
7.85628e-14
3.53603e-13
1.23579e-12
3.76875e-12
9.64552e-12
1.96515e-11
3.50117e-11
5.20085e-11
7.14407e-11
7.48769e-11
7.16377e-11
6.27085e-11
5.6328e-11
5.47336e-11
-1.35059e-17
-1.66384e-16
-1.38658e-15
-1.02749e-14
-1.30824e-14
-1.12299e-14
-8.71611e-15
-4.29007e-15
1.25558e-14
8.25531e-14
2.99098e-13
1.03862e-12
2.9583e-12
6.99329e-12
1.30862e-11
1.91409e-11
2.4885e-11
2.81329e-11
3.24456e-11
3.23569e-11
2.93197e-11
2.16752e-11
2.3314e-11
-6.61994e-18
-8.06385e-17
-6.25165e-16
-3.6155e-15
-3.833e-15
-2.73981e-15
-1.59837e-15
1.25849e-15
1.36236e-14
5.872e-14
2.06137e-13
6.75246e-13
1.88547e-12
3.79825e-12
6.55509e-12
8.88097e-12
1.00735e-11
1.00179e-11
1.06732e-11
1.03672e-11
8.96118e-12
8.69113e-12
9.42051e-12
-2.6849e-18
-3.14306e-17
-2.22105e-16
-1.0016e-15
-8.62023e-16
-4.74348e-16
-2.57599e-17
1.5644e-15
8.2467e-15
3.14334e-14
1.11739e-13
3.31584e-13
8.43686e-13
1.64548e-12
2.41764e-12
3.05297e-12
3.2625e-12
3.33546e-12
3.01476e-12
2.65111e-12
2.48873e-12
2.39661e-12
3.19464e-12
-8.63909e-19
-9.4666e-18
-5.98474e-17
-2.11008e-16
-1.42602e-16
-4.59345e-17
1.12324e-16
8.17508e-16
3.70125e-15
1.39325e-14
4.47634e-14
1.22791e-13
2.80405e-13
4.89093e-13
6.6132e-13
7.27683e-13
7.21145e-13
6.16108e-13
5.07336e-13
4.54154e-13
4.35258e-13
5.06728e-13
7.89086e-13
-2.06672e-19
-2.06676e-18
-1.15117e-17
-3.21205e-17
-1.60938e-17
2.13288e-18
4.92014e-17
2.68009e-16
1.15629e-15
4.09304e-15
1.29426e-14
3.20401e-14
6.43653e-14
9.22486e-14
1.05422e-13
1.00811e-13
8.53392e-14
6.26371e-14
4.02621e-14
3.1702e-14
3.16441e-14
4.82822e-14
1.08923e-13
-3.2729e-20
-2.92694e-19
-1.41753e-18
-3.19753e-18
-1.01337e-18
1.55707e-18
1.12628e-17
5.51981e-17
2.39463e-16
8.56527e-16
2.3836e-15
5.54511e-15
9.28744e-15
1.08068e-14
9.75635e-15
6.94501e-15
3.68392e-15
1.52872e-15
1.35108e-15
1.91071e-15
1.72811e-15
4.96264e-15
1.69979e-14
-2.58917e-21
-2.04246e-20
-8.54835e-20
-1.57265e-19
-1.27757e-20
2.03908e-19
1.21499e-18
5.35155e-18
2.50375e-17
7.49965e-17
2.13887e-16
4.34483e-16
5.38034e-16
4.77228e-16
2.1619e-16
2.6291e-17
3.50247e-18
1.51669e-17
2.18145e-17
6.77084e-17
9.50721e-17
2.76971e-16
1.5181e-15
2.19986e-33
3.63534e-32
3.34743e-31
6.80876e-33
5.67775e-30
4.25334e-31
2.25499e-32
1.04443e-33
4.46478e-35
2.75171e-36
9.29171e-36
9.03399e-35
8.51036e-34
5.57928e-33
5.87562e-32
5.83588e-31
8.17663e-22
5.66746e-20
1.85319e-19
1.42482e-18
3.40285e-18
8.74117e-18
1.15319e-16
2.86258e-43
5.62306e-42
5.16261e-41
2.79277e-40
6.57426e-40
1.22912e-40
1.31412e-39
1.52475e-38
1.6385e-37
1.69525e-36
1.72096e-35
1.82296e-34
1.84166e-33
1.80321e-32
1.7035e-31
1.47635e-30
1.20589e-29
5.14447e-23
8.42723e-22
1.74925e-20
5.79084e-20
3.70361e-19
6.11964e-18
2.08485e-47
1.23881e-45
3.91131e-44
8.71414e-43
1.5495e-41
2.4038e-40
3.69625e-39
4.68776e-38
5.65784e-37
6.70995e-36
7.91366e-35
9.03679e-34
9.57442e-33
9.89122e-32
9.4192e-31
8.26041e-30
6.51724e-29
4.89154e-28
2.00761e-24
1.19905e-22
1.39569e-21
6.03347e-21
2.65671e-19
2.52008e-47
1.64696e-45
5.8061e-44
1.46146e-42
2.94054e-41
5.06085e-40
7.79526e-39
1.11594e-37
1.51852e-36
1.98e-35
2.4311e-34
2.75032e-33
2.86922e-32
2.85655e-31
2.6205e-30
2.18343e-29
1.61446e-28
9.72872e-28
7.99588e-27
4.66158e-25
2.88402e-24
1.66983e-22
2.89656e-21
2.44804e-47
1.74537e-45
6.66881e-44
1.81225e-42
3.98703e-41
7.56518e-40
1.28439e-38
2.00094e-37
2.90104e-36
3.90788e-35
4.83509e-34
5.45223e-33
5.62242e-32
5.4014e-31
4.91511e-30
3.95761e-29
2.78941e-28
1.58292e-27
9.90509e-27
5.64389e-26
2.91802e-25
2.21425e-24
2.62231e-22
1.85693e-47
1.46373e-45
6.16845e-44
1.84837e-42
4.41864e-41
8.97587e-40
1.60999e-38
2.61436e-37
3.88988e-36
5.30124e-35
6.57929e-34
7.42617e-33
7.68219e-32
7.39767e-31
6.65308e-30
5.31736e-29
3.62249e-28
1.94985e-27
1.29479e-26
7.52878e-26
3.4864e-25
1.63633e-24
1.09576e-23
1.05633e-47
9.31292e-46
4.35874e-44
1.42799e-42
3.71127e-41
8.06242e-40
1.53159e-38
2.59135e-37
3.94449e-36
5.42551e-35
6.77016e-34
7.71055e-33
8.0734e-32
7.81943e-31
7.04348e-30
5.75457e-29
3.89219e-28
2.08603e-27
1.34847e-26
8.89222e-26
4.35078e-25
2.07439e-24
9.18298e-24
4.4271e-48
4.29014e-46
2.18467e-44
7.76276e-43
2.1504e-41
5.01531e-40
1.00562e-38
1.77351e-37
2.77459e-36
3.88457e-35
4.93309e-34
5.76188e-33
6.24303e-32
6.27513e-31
5.75096e-30
4.64473e-29
3.14284e-28
1.72589e-27
1.27402e-26
7.73798e-26
3.96509e-25
2.16485e-24
9.73087e-24
1.22059e-48
1.32175e-46
7.41405e-45
2.87679e-43
8.66903e-42
2.16013e-40
4.5743e-39
8.4518e-38
1.37914e-36
2.01649e-35
2.68271e-34
3.28951e-33
3.73931e-32
3.91952e-31
3.72236e-30
3.11776e-29
2.22062e-28
1.2918e-27
8.43908e-27
6.6433e-26
3.38699e-25
1.81255e-24
8.39541e-24
2.12528e-49
2.56778e-47
1.598e-45
6.82885e-44
2.25093e-42
6.0329e-41
1.39418e-39
2.77328e-38
4.85755e-37
7.58571e-36
1.06981e-34
1.37749e-33
1.62189e-32
1.72889e-31
1.64404e-30
1.36891e-29
9.4853e-29
6.45504e-28
4.02617e-27
3.37214e-26
2.08963e-25
1.24432e-24
6.01166e-24
2.39828e-50
3.33954e-48
2.3713e-46
1.14383e-44
4.20106e-43
1.24748e-41
3.11365e-40
6.68928e-39
1.27028e-37
2.16875e-36
3.367e-35
4.76275e-34
6.09797e-33
6.90362e-32
6.50517e-31
6.39682e-30
4.9205e-29
3.35571e-28
2.34831e-27
2.04935e-26
1.36793e-25
8.54763e-25
4.2705e-24
1.85869e-51
2.99417e-49
2.41932e-47
1.31065e-45
5.34728e-44
1.74996e-42
4.75115e-41
1.13483e-39
2.37864e-38
4.49628e-37
7.68847e-36
1.18202e-34
1.5909e-33
1.76114e-32
2.10281e-31
1.96144e-30
1.62448e-29
1.19071e-28
8.78965e-28
7.71557e-27
5.5928e-26
3.65272e-25
1.99787e-24
9.12791e-53
1.70485e-50
1.57409e-48
9.68003e-47
4.47066e-45
1.65403e-43
5.10968e-42
1.34585e-40
3.15318e-39
6.49609e-38
1.186e-36
1.87679e-35
3.47885e-34
4.68641e-33
5.59755e-32
5.82364e-31
5.22872e-30
4.06406e-29
3.05494e-28
2.56485e-27
1.83476e-26
1.42163e-25
7.67825e-25
2.67881e-54
5.96e-52
6.41703e-50
4.53101e-48
2.37268e-46
9.85896e-45
3.40004e-43
1.00644e-41
2.6224e-40
6.11373e-39
1.28477e-37
2.43654e-36
4.16586e-35
6.41435e-34
8.88004e-33
1.10152e-31
1.2187e-30
1.20037e-29
1.05909e-28
8.51061e-28
6.22656e-27
4.05805e-26
2.61242e-25
5.2998e-56
1.40886e-53
1.78083e-51
1.47093e-49
9.0224e-48
4.40826e-46
1.79538e-44
6.29384e-43
1.94142e-41
5.33581e-40
1.07426e-38
2.89921e-37
5.59472e-36
9.61184e-35
1.45333e-33
1.93095e-32
2.25281e-31
2.30837e-30
2.0982e-29
1.78194e-28
1.51166e-27
1.21128e-26
7.50866e-26
6.46618e-58
2.07691e-55
3.10952e-53
3.00705e-51
2.14169e-49
1.20703e-47
5.63823e-46
2.25408e-44
7.88216e-43
2.44265e-41
6.75095e-40
1.66766e-38
3.68491e-37
7.28849e-36
1.08096e-34
2.05006e-33
2.81508e-32
3.00411e-31
3.76176e-30
3.68397e-29
3.28711e-28
2.54529e-27
2.00073e-26
2.99406e-60
1.31179e-57
3.21759e-55
3.7367e-53
3.23208e-51
2.22561e-49
1.2737e-47
6.23648e-46
2.66314e-44
1.00333e-42
3.35191e-41
9.92788e-40
2.59879e-38
5.98955e-37
1.2118e-35
2.14864e-34
3.33423e-33
4.50291e-32
5.23733e-31
5.317e-30
5.35849e-29
5.5814e-28
4.12128e-27
1.80246e-62
7.12464e-60
1.42011e-57
1.91823e-55
1.97593e-53
1.64707e-51
1.15377e-49
6.97837e-48
3.70912e-46
1.74444e-44
7.24067e-43
2.63321e-41
8.33674e-40
2.29343e-38
5.50318e-37
1.16191e-35
2.17631e-34
3.60732e-33
5.32677e-32
7.36441e-31
9.586e-30
1.04891e-28
9.80115e-28
4.51263e-65
1.67988e-62
4.06981e-60
6.53214e-58
8.46356e-56
9.14521e-54
8.38818e-52
6.61727e-50
4.53529e-48
2.7173e-46
1.42542e-44
6.52907e-43
2.59884e-41
8.95454e-40
2.6677e-38
6.88394e-37
1.54578e-35
3.07708e-34
5.38201e-33
8.12935e-32
1.17298e-30
1.43822e-29
1.46318e-28
9.89548e-68
1.56262e-65
3.47251e-63
6.61685e-61
1.10724e-58
1.60636e-56
1.99544e-54
2.11777e-52
1.93173e-50
1.52729e-48
1.05272e-46
6.32647e-45
3.30011e-43
1.48933e-41
5.82723e-40
2.00338e-38
6.24929e-37
1.70876e-35
4.05231e-34
8.72737e-33
1.65549e-31
2.41117e-30
2.47801e-29
2.05852e-70
2.97672e-69
5.88826e-67
1.23507e-64
2.65237e-62
5.43685e-60
1.00798e-57
1.64844e-55
2.36671e-53
2.99271e-51
3.33559e-49
3.25063e-47
2.72896e-45
1.96066e-43
1.21829e-41
6.70791e-40
3.15079e-38
1.23469e-36
3.00382e-35
1.04824e-33
2.19364e-32
3.59948e-31
4.62174e-30
3.92082e-73
1.23859e-74
2.2826e-72
6.03889e-70
2.05693e-67
7.7125e-65
2.8285e-62
9.54117e-60
2.89687e-57
7.89328e-55
1.92607e-52
4.13202e-50
7.52662e-48
1.21725e-45
1.78364e-43
1.9491e-41
1.53808e-39
8.67906e-38
3.49635e-36
9.50748e-35
2.04369e-33
4.16928e-32
9.00401e-31
6.90471e-76
7.43757e-85
1.84733e-82
1.02822e-79
1.08106e-76
1.75583e-73
3.57919e-70
7.70037e-67
1.5773e-63
2.998e-60
5.46073e-57
9.50504e-54
1.33964e-50
1.17444e-47
4.59871e-45
9.44607e-43
1.13752e-40
8.69048e-39
4.47637e-37
1.63036e-35
4.37972e-34
8.99777e-33
1.5036e-31
0.359242
0.357609
0.347189
0.35406
0.999995
0.999985
0.999978
0.999972
0.999996
0.999995
0.999995
0.999987
0.982784
0.950087
0.881959
0.826242
0.383452
0.26662
0.141563
0.0536853
-2.08912e-11
-1.07068e-10
-5.08716e-10
-6.29535e-10
-1.36912e-09
-1.28035e-09
-1.71387e-09
-1.2367e-09
-1.67604e-09
-1.85821e-09
-1.07398e-09
2.92629e-10
1.33935e-09
5.82119e-09
1.24098e-08
-2.23134e-09
7.77116e-10
6.03285e-09
7.86218e-09
4.77307e-09
4.12115e-10
1.6246e-09
5.50366e-09
4.32948e-09
1.05481e-10
3.98214e-10
1.50949e-09
3.30476e-09
2.71453e-11
7.43861e-11
3.02481e-10
9.20242e-10
9.99081e-12
1.57216e-11
5.59408e-11
1.78821e-10
3.48982e-12
3.84125e-12
9.30433e-12
2.99568e-11
1.03534e-12
1.14687e-12
1.93759e-12
4.73634e-12
2.26013e-13
2.01925e-13
4.75226e-13
8.19716e-13
3.61584e-14
3.52956e-14
6.62858e-14
1.58732e-13
4.39073e-15
4.29892e-15
8.56642e-15
2.31035e-14
4.54839e-16
4.0268e-16
1.1862e-15
3.33646e-15
3.94358e-17
3.42982e-17
1.21918e-16
3.98534e-16
2.54513e-18
1.67799e-18
8.1298e-18
1.96785e-17
1.08145e-19
1.9856e-20
1.34821e-21
1.40215e-20
9.37441e-23
4.87378e-23
8.44927e-23
1.59408e-22
2.7714e-23
5.70223e-23
1.3073e-22
2.27153e-22
3.6309e-23
8.01937e-23
1.70569e-22
3.11394e-22
3.54921e-23
9.16933e-23
1.99124e-22
3.57317e-22
3.53605e-23
8.42634e-23
1.94387e-22
3.61905e-22
2.45088e-23
7.4027e-23
1.56916e-22
3.13301e-22
1.98894e-23
4.89463e-23
1.14679e-22
2.40971e-22
9.94665e-24
2.64484e-23
7.0713e-23
1.48851e-22
4.6979e-24
1.28586e-23
3.54969e-23
8.64706e-23
1.54052e-24
5.25284e-24
1.55984e-23
4.04217e-23
5.4863e-25
1.87524e-24
6.09315e-24
1.65213e-23
1.55752e-25
5.87173e-25
1.87364e-24
5.95351e-24
3.80003e-26
1.47542e-25
5.79839e-25
1.81095e-24
8.50343e-27
3.73968e-26
1.46533e-25
5.34094e-25
1.61657e-27
8.41565e-27
3.54653e-26
1.36561e-25
3.39398e-28
1.69978e-27
7.81889e-27
3.31265e-26
6.09375e-29
3.4487e-28
1.68589e-27
7.39585e-27
1.11336e-29
6.20915e-29
2.88516e-28
1.33484e-27
2.19318e-30
1.25527e-29
6.71522e-29
3.21755e-28
0.76493
0.998245
0.99794
0.999425
0.993138
0.944686
0.833168
0.655007
0.466805
0.449528
0.471756
0.36948
0.0963865
0.00116892
0.00014885
4.54811e-05
2.5019e-05
2.46494e-06
2.8038e-06
0.999967
0.999874
0.999085
0.854716
0.53968
0.270245
0.0770018
-2.78582e-16
2.78112e-16
7.1587e-22
-3.99414e-25
1.37572e-26
-9.6704e-20
4.72142e-06
1.02609e-05
1.36854e-05
1.78754e-06
1.20775e-06
3.10207e-06
0.999979
0.777429
0.626188
0.285938
-3.22517e-18
8.53863e-17
1.0001e-15
2.05519e-08
2.43752e-09
6.62456e-08
1.20297e-07
1.66276e-07
1.49608e-07
4.3299e-07
4.44477e-09
1.07514e-10
1.07535e-10
3.32921e-07
5.64597e-07
0.592338
0.103008
0.020139
-5.07675e-20
8.53863e-17
3.80684e-08
3.03921e-07
3.83254e-08
1.52708e-07
3.02903e-07
1.97104e-07
2.0643e-09
1.61758e-08
6.08223e-08
1.085e-10
1.07513e-10
1.07493e-10
1.07535e-10
-2.93907e-10
0.000197032
1.46553e-18
6.15725e-13
2.70446e-07
8.15528e-07
1.45955e-06
1.09822e-06
9.62479e-10
1.73523e-07
2.27351e-07
1.60143e-08
1.87773e-09
1.8572e-09
1.19172e-09
3.11227e-10
1.44632e-10
1.26201e-10
1.2125e-10
7.21457e-09
-1.53574e-10
3.93384e-08
7.15427e-07
1.92331e-06
2.03276e-06
8.8154e-07
2.55533e-10
1.51929e-09
4.94347e-09
1.27817e-09
1.60167e-09
1.92611e-09
2.07082e-09
1.59733e-09
4.39984e-10
1.86915e-10
1.53037e-10
4.83889e-10
9.73527e-09
6.76297e-24
6.36167e-07
2.51255e-06
4.10548e-06
5.24063e-07
1.64984e-11
3.89856e-10
1.06336e-09
8.86591e-10
1.30993e-09
1.72473e-09
2.3089e-09
2.33426e-09
1.51188e-09
4.32511e-10
2.05464e-10
1.40196e-10
2.05172e-10
3.93517e-09
1.93865e-07
3.66133e-06
4.90735e-06
3.834e-06
8.19626e-07
1.67975e-11
1.19733e-09
5.03949e-10
8.16697e-10
1.50922e-09
1.92354e-09
2.28984e-09
2.30613e-09
1.33968e-09
4.70159e-10
2.26873e-10
1.28629e-10
6.04859e-11
6.3937e-11
1.01964e-06
4.20039e-06
5.08191e-06
3.85183e-06
4.46255e-07
1.64984e-11
3.69159e-09
2.09592e-10
6.38017e-10
1.11413e-09
1.53985e-09
1.87073e-09
1.8845e-09
1.39872e-09
6.29787e-10
2.91253e-10
1.48129e-10
6.7942e-11
3.85066e-11
3.6704e-07
4.27908e-06
4.95092e-06
3.63684e-06
1.64988e-11
1.67975e-11
3.59609e-09
1.55041e-11
2.47795e-10
4.8954e-10
7.42858e-10
1.04132e-09
1.20477e-09
1.21245e-09
7.61804e-10
3.83337e-10
1.94121e-10
9.89674e-11
4.76136e-11
7.52394e-08
1.03057e-06
4.14558e-06
1.51077e-06
1.43458e-08
1.54061e-08
9.81963e-12
1.84945e-11
1.01526e-10
1.95276e-10
3.01027e-10
4.69885e-10
6.3637e-10
6.98109e-10
6.24742e-10
4.2045e-10
2.49134e-10
1.1768e-10
6.45642e-11
3.84054e-09
1.03676e-07
7.26218e-08
4.08986e-09
1.55833e-08
1.64617e-08
1.13591e-11
1.40031e-11
4.9079e-11
9.19924e-11
1.45668e-10
2.09944e-10
2.8924e-10
3.61662e-10
3.85338e-10
3.53656e-10
2.02855e-10
1.29994e-10
6.70843e-11
1.44035e-09
2.14358e-10
2.74918e-10
4.40266e-09
1.43239e-08
1.08629e-08
8.52282e-12
8.55179e-12
2.28481e-11
4.29253e-11
6.48172e-11
1.00767e-10
1.32015e-10
1.65948e-10
1.86192e-10
1.8203e-10
1.50339e-10
9.33788e-11
6.31752e-11
3.61336e-10
2.31337e-10
5.97251e-10
4.8155e-09
1.43101e-08
1.30744e-08
7.25832e-10
8.52283e-12
1.22433e-11
2.19828e-11
2.90161e-11
4.12275e-11
5.47829e-11
6.89692e-11
8.02054e-11
8.01015e-11
7.32532e-11
5.96848e-11
5.09907e-11
8.00851e-11
1.41434e-10
5.13659e-10
3.4482e-09
1.16591e-08
1.52495e-08
4.48521e-09
8.55178e-12
8.93486e-12
1.20736e-11
1.61557e-11
2.26404e-11
2.71756e-11
2.95143e-11
3.36105e-11
3.72305e-11
3.34607e-11
3.05495e-11
2.74342e-11
1.54409e-11
5.44436e-11
2.55046e-10
1.22321e-09
8.0694e-09
1.52463e-08
8.51762e-09
1.43689e-10
8.4245e-12
8.37096e-12
7.65827e-12
1.085e-11
1.22208e-11
1.3996e-11
1.46437e-11
1.37922e-11
1.05743e-11
8.97702e-12
8.95876e-12
2.8188e-12
1.68272e-11
1.1146e-10
7.10906e-10
2.21629e-09
1.16166e-08
1.05186e-08
1.95627e-09
8.41772e-12
9.67567e-12
3.8051e-12
3.17396e-12
3.72765e-12
3.96358e-12
3.86901e-12
3.34301e-12
2.45252e-12
1.58445e-12
1.05715e-12
4.32685e-13
4.35064e-12
4.19279e-11
2.98075e-10
1.32677e-09
2.55847e-09
6.31224e-09
3.07637e-09
1.48778e-10
3.17404e-11
4.08272e-12
1.73783e-12
1.08932e-12
1.06938e-12
1.05709e-12
7.93364e-13
5.06628e-13
2.39481e-13
8.69575e-14
7.47864e-14
9.69118e-13
1.30247e-11
1.14998e-10
7.13219e-10
1.42969e-09
2.77533e-09
1.94623e-09
5.063e-10
9.41019e-11
2.18301e-11
2.84773e-12
6.495e-13
2.18453e-13
1.62784e-13
1.52233e-13
9.68022e-14
3.42342e-14
6.10021e-15
1.44804e-14
1.83199e-13
3.32542e-12
4.06994e-11
2.47087e-10
6.8006e-10
9.90146e-10
5.28733e-10
2.62847e-10
1.76693e-10
5.62152e-11
1.21635e-11
2.29286e-12
1.99072e-13
2.74551e-14
2.07749e-14
1.51338e-14
3.4005e-15
2.541e-16
1.98727e-15
2.8675e-14
6.98764e-13
1.13483e-11
8.10983e-11
2.38932e-10
2.97538e-10
1.42336e-10
1.17131e-10
1.3211e-10
9.02906e-11
2.65787e-11
5.12743e-12
6.55193e-13
2.01634e-14
1.06e-14
5.16597e-15
8.17416e-16
5.85089e-17
2.342e-16
3.72514e-15
1.19858e-13
2.57952e-12
2.32216e-11
7.84133e-11
7.64419e-11
4.17902e-11
5.35369e-11
7.68894e-11
6.41697e-11
3.07039e-11
9.97922e-12
1.86143e-12
9.61992e-14
1.4332e-14
4.28376e-15
5.77725e-16
1.96493e-17
1.82685e-18
3.56432e-16
1.70497e-14
4.82177e-13
4.97749e-12
2.10364e-11
1.99414e-11
1.29488e-11
2.45994e-11
4.14258e-11
3.81312e-11
2.26592e-11
1.1487e-11
3.40534e-12
4.24321e-13
3.16887e-14
3.77113e-15
3.50092e-16
8.28209e-18
5.69511e-22
9.3918e-19
1.65478e-15
7.6855e-14
9.08137e-13
4.4049e-12
4.91536e-12
5.49291e-12
1.23937e-11
2.15942e-11
2.14748e-11
1.49442e-11
8.52441e-12
3.95437e-12
8.47432e-13
5.51105e-14
2.72537e-15
8.7461e-17
3.19345e-18
3.9927e-22
9.72516e-22
3.55621e-18
6.18561e-15
1.55532e-13
8.17068e-13
1.26925e-12
2.28735e-12
6.69683e-12
1.07886e-11
1.15945e-11
9.59247e-12
5.99976e-12
2.89627e-12
9.7157e-13
4.85958e-14
1.64362e-15
1.91645e-17
2.31216e-18
5.34811e-22
1.21285e-21
2.84071e-21
2.17075e-18
3.09628e-15
1.45758e-13
3.42531e-13
7.69081e-13
2.62094e-12
4.74105e-12
6.27816e-12
5.80747e-12
4.45814e-12
2.44435e-12
8.31806e-13
3.81079e-14
1.20107e-15
1.12277e-17
2.46296e-18
6.38113e-22
1.50347e-21
3.215e-21
7.15812e-21
2.7447e-18
2.92389e-15
7.01231e-14
3.07063e-13
1.09787e-12
2.53679e-12
3.51455e-12
3.61507e-12
3.18883e-12
1.85423e-12
7.07647e-13
3.87631e-14
1.26548e-15
2.10733e-17
3.72351e-18
6.59972e-22
1.69709e-21
3.6372e-21
7.51356e-21
1.46634e-20
2.17581e-18
1.4728e-15
5.51363e-14
5.98447e-13
1.4738e-12
2.02639e-12
2.19455e-12
2.16654e-12
1.50229e-12
5.915e-13
5.81e-14
3.8356e-15
1.71673e-16
1.18571e-17
5.92527e-22
1.65884e-21
3.8136e-21
7.91817e-21
1.50941e-20
2.72347e-20
2.02712e-18
2.69362e-15
2.15229e-13
7.57783e-13
1.18271e-12
1.3871e-12
1.4677e-12
1.0822e-12
5.32373e-13
1.06235e-13
5.89047e-15
4.33834e-16
2.05851e-17
4.53003e-22
1.35905e-21
3.55067e-21
7.83926e-21
1.54222e-20
2.77572e-20
4.79436e-20
2.35972e-17
3.72434e-14
1.67096e-13
4.23069e-13
8.76061e-13
9.93271e-13
7.70456e-13
4.0428e-13
1.20495e-13
1.56295e-14
7.52791e-16
8.05471e-18
3.02022e-22
9.98753e-22
2.83104e-21
6.85566e-21
1.46043e-20
2.77279e-20
4.85621e-20
1.04291e-19
1.36228e-15
8.86359e-15
6.84221e-14
3.88833e-13
6.43887e-13
5.3031e-13
2.9289e-13
8.49198e-14
1.07849e-14
2.02585e-16
1.09792e-17
1.81985e-22
6.39756e-22
1.95033e-21
5.21179e-21
1.22455e-20
2.54131e-20
4.74131e-20
7.92831e-20
4.1849e-18
5.45493e-17
3.27773e-15
9.53761e-14
2.69475e-13
2.81585e-13
1.54473e-13
5.25363e-14
7.62007e-15
1.36866e-16
5.81541e-18
9.47664e-23
3.56777e-22
1.17556e-21
3.44334e-21
8.90423e-21
2.05972e-20
4.19213e-20
7.62301e-20
1.24286e-19
2.18592e-19
2.98888e-17
8.12877e-15
7.23283e-14
8.59572e-14
5.28498e-14
1.84805e-14
1.65365e-15
4.18133e-17
3.43527e-18
4.16651e-23
1.7264e-22
6.22124e-22
1.97218e-21
5.59254e-21
1.43554e-20
3.23879e-20
6.58295e-20
1.18142e-19
1.86009e-19
3.19251e-19
2.19902e-16
8.59885e-15
1.19897e-14
8.13383e-15
2.27588e-15
3.01313e-16
5.75232e-17
2.19202e-18
1.61129e-23
7.36311e-23
2.93034e-22
1.02114e-21
3.03897e-21
8.47449e-21
2.1241e-20
4.8515e-20
9.82436e-20
1.72711e-19
2.70659e-19
1.19896e-18
2.32658e-16
4.91775e-16
3.7026e-16
1.64674e-16
2.71992e-17
2.3096e-18
3.8632e-19
5.58816e-24
2.83109e-23
1.2487e-22
4.66428e-22
1.55617e-21
4.61317e-21
1.2371e-20
3.0774e-20
7.09264e-20
1.3416e-19
2.43874e-19
3.93114e-19
1.45013e-18
1.18145e-16
8.18439e-17
2.36018e-17
3.28802e-18
5.52294e-19
1.00611e-19
1.73416e-24
9.69519e-24
4.60518e-23
1.93138e-22
6.92835e-22
2.23139e-21
6.38777e-21
1.67867e-20
4.20303e-20
9.03825e-20
1.68327e-19
3.10088e-19
6.75309e-19
2.74135e-17
1.55805e-17
6.24393e-18
1.20907e-18
1.53048e-19
5.13959e-20
4.9768e-25
3.04444e-24
1.59851e-23
7.17384e-23
2.77579e-22
9.54272e-22
3.01687e-21
8.22278e-21
2.13048e-20
5.01834e-20
9.97074e-20
1.94422e-19
3.90832e-19
5.87952e-18
2.98252e-18
4.69669e-19
1.21112e-19
6.39496e-20
2.35436e-20
1.15343e-25
8.50873e-25
4.77578e-24
2.30354e-23
9.67845e-23
3.60368e-22
1.17258e-21
3.34058e-21
8.84499e-21
2.20862e-20
4.50404e-20
8.29019e-20
1.66156e-19
8.48984e-19
2.83168e-19
8.67098e-20
4.65647e-20
2.92323e-20
1.26252e-20
3.07182e-26
2.12287e-25
1.25799e-24
6.54082e-24
2.98266e-23
1.13516e-22
3.8909e-22
1.21471e-21
3.33677e-21
8.36275e-21
1.82524e-20
3.30138e-20
5.50471e-20
1.09286e-19
4.16222e-20
2.0701e-20
1.98092e-20
1.48031e-20
4.96185e-21
7.35607e-27
5.11608e-26
3.23896e-25
1.77464e-24
8.17337e-24
3.36538e-23
1.21057e-22
3.78065e-22
1.07048e-21
2.62467e-21
5.65021e-21
1.02775e-20
1.56919e-20
1.9481e-20
9.32013e-21
7.14463e-21
7.67564e-21
5.36258e-21
1.45001e-21
1.48772e-27
1.20115e-26
8.0345e-26
4.48648e-25
2.09916e-24
8.65016e-24
3.1871e-23
1.02135e-22
2.88065e-22
7.1065e-22
1.49132e-21
2.61187e-21
3.56622e-21
3.78849e-21
2.49874e-21
2.41014e-21
2.29766e-21
1.28334e-21
2.69853e-22
)
;

boundaryField
{
    leftWall
    {
        type            alphaContactAngle;
        contactAngleProperties 
        {
            mercury         
            {
                theta0          90;
            }
            air             
            {
                theta0          90;
            }
            oil             
            {
                theta0          90;
            }
        }
        value           nonuniform List<scalar> 
50
(
1.55304e-12
1.66404e-13
2.51174e-10
0.158138
0.927549
1
1
1
1
1
1
0.809215
0.112694
1.13163e-06
1.41447e-08
1.9197e-09
1.22944e-10
3.64397e-12
3.77884e-14
6.28089e-17
-1.35059e-17
-6.61994e-18
-2.6849e-18
-8.63909e-19
-2.06672e-19
-3.2729e-20
-2.58917e-21
2.19986e-33
2.86258e-43
2.08485e-47
2.52008e-47
2.44804e-47
1.85693e-47
1.05633e-47
4.4271e-48
1.22059e-48
2.12528e-49
2.39828e-50
1.85869e-51
9.12791e-53
2.67881e-54
5.2998e-56
6.46618e-58
2.99406e-60
1.80246e-62
4.51263e-65
9.89548e-68
2.05852e-70
3.92082e-73
6.90471e-76
)
;
    }
    rightWall
    {
        type            alphaContactAngle;
        contactAngleProperties 
        {
            mercury         
            {
                theta0          90;
            }
            air             
            {
                theta0          90;
            }
            oil             
            {
                theta0          90;
            }
        }
        value           nonuniform List<scalar> 
50
(
2.08961e-09
6.95711e-07
3.73861e-10
1.74686e-25
1.05606e-09
8.21692e-07
2.05039e-06
1.72635e-06
2.8038e-06
3.10207e-06
5.64597e-07
-2.93907e-10
7.21457e-09
9.73527e-09
3.93517e-09
6.3937e-11
3.85066e-11
4.76136e-11
6.45642e-11
6.70843e-11
6.31752e-11
5.09907e-11
2.74342e-11
8.95876e-12
1.05715e-12
8.69575e-14
6.10021e-15
2.541e-16
5.85089e-17
1.96493e-17
8.28209e-18
3.19345e-18
2.31216e-18
2.46296e-18
3.72351e-18
1.18571e-17
2.05851e-17
8.05471e-18
1.09792e-17
5.81541e-18
3.43527e-18
2.19202e-18
3.8632e-19
1.00611e-19
5.13959e-20
2.35436e-20
1.26252e-20
4.96185e-21
1.45001e-21
2.69853e-22
)
;
    }
    lowerWall
    {
        type            alphaContactAngle;
        contactAngleProperties 
        {
            mercury         
            {
                theta0          90;
            }
            air             
            {
                theta0          90;
            }
            oil             
            {
                theta0          90;
            }
        }
        value           nonuniform List<scalar> 
62
(
1.55304e-12
1.05612e-11
2.5759e-11
2.93482e-11
3.0894e-11
3.34364e-11
3.07882e-11
2.63906e-11
2.30871e-11
2.18142e-11
2.1792e-11
2.34207e-11
2.64416e-11
3.07946e-11
3.56144e-11
3.9977e-11
4.43252e-11
5.1363e-11
8.10074e-11
2.35939e-10
9.09357e-10
2.39659e-09
2.62891e-09
2.62891e-09
2.67655e-09
2.67026e-09
3.26839e-09
6.0985e-09
8.77114e-09
8.70366e-09
8.67986e-09
0.359242
0.357609
0.347189
0.35406
3.18846e-08
6.4686e-09
2.37273e-09
1.59493e-09
1.25606e-09
0.0155225
0.272731
0.281808
3.18846e-08
4.4446e-07
4.87461e-07
3.71161e-07
2.54875e-07
2.7722e-07
3.10447e-07
2.77244e-07
7.84973e-05
0.000104905
0.000154451
0.000207344
0.000169827
0.000125753
4.17816e-05
1.94447e-05
4.32752e-07
1.99134e-08
2.08961e-09
)
;
    }
    atmosphere
    {
        type            inletOutlet;
        inletValue      uniform 0;
        value           nonuniform List<scalar> 
46
(
6.90471e-76
0
0
0
0
0
0
0
0
0
0
0
1.33964e-50
1.17444e-47
4.59871e-45
9.44607e-43
1.13752e-40
8.69048e-39
4.47637e-37
1.63036e-35
4.37972e-34
8.99777e-33
1.5036e-31
2.19318e-30
1.25527e-29
6.71522e-29
3.21755e-28
1.48772e-27
1.20115e-26
8.0345e-26
4.48648e-25
2.09916e-24
8.65016e-24
3.1871e-23
1.02135e-22
2.88065e-22
7.1065e-22
1.49132e-21
0
0
0
0
0
0
0
0
)
;
    }
    defaultFaces
    {
        type            empty;
    }
}

