/*--------------------------------*- C++ -*----------------------------------*\
  =========                 |
  \\      /  F ield         | OpenFOAM: The Open Source CFD Toolbox
   \\    /   O peration     | Website:  https://openfoam.org
    \\  /    A nd           | Version:  13
     \\/     M anipulation  |
\*---------------------------------------------------------------------------*/
FoamFile
{
    format      ascii;
    class       volScalarField;
    location    "0.65";
    object      alpha.mercury;
}
// * * * * * * * * * * * * * * * * * * * * * * * * * * * * * * * * * * * * * //

dimensions      [];

internalField   nonuniform List<scalar> 
2268
(
1
1
1
1
1
1
1
1
1
1
1
1
1
1
1
1
1
1
1
1
1
0.999739
0.999431
1
1
1
1
1
1
1
1
1
1
1
1
1
1
1
1
1
1
1
1
1
0.999839
0.999431
1
1
1
1
1
1
1
1
1
1
1
1
1
1
1
1
1
1
1
1
1
0.999923
0.999601
0.841862
0.835424
0.85072
0.883281
0.921918
0.95901
0.989654
1
1
1
1
1
1
1
1
1
1
1
1
1
0.999999
0.999998
1
0.0724507
0.09577
0.116439
0.150686
0.20495
0.28679
0.409583
0.590087
0.788234
0.942788
1
1
1
1
1
1
1
1
1
1
1
1
1
-3.6967e-19
-1.0912e-19
-2.22961e-20
-1.33777e-19
-4.27319e-19
1.75137e-08
0.000103017
0.00896089
0.0714604
0.251709
0.596853
0.902837
1
1
1
1
1
1
1
1
1
1
0.999999
-1.47831e-22
-6.04684e-21
-9.62653e-21
-3.79651e-19
-1.87732e-17
4.07311e-11
1.95523e-08
9.9735e-09
8.3045e-20
1.37626e-13
0.0137283
0.194707
0.628718
0.957254
1
1
1
1
1
1
1
0.999999
0.999974
-4.51925e-22
-6.62951e-21
-5.22103e-20
-2.18046e-18
-5.99237e-17
-6.94895e-16
7.41344e-11
7.1481e-13
9.31429e-12
2.14091e-12
7.95082e-13
2.05964e-12
0.0178577
0.269854
0.741306
0.984234
1
0.999133
0.999999
0.999995
0.999997
0.999999
0.999972
2.41452e-08
0.0044253
0.0103921
0.065517
0.103253
0.168991
0.200976
0.188621
0.148159
0.0819451
0.0314223
0.0153024
0.0140461
0.0269647
0.0309778
0.0377823
0.0424281
0.109851
0.2001
1.21185e-08
1.33996e-05
0.00512773
0.0718343
0.490307
0.745779
0.857885
0.853622
0.81597
0.635992
0.197344
0.0398366
0.0139287
0.0473935
0.1762
0.182733
0.12502
0.173264
0.204394
1.21883e-08
4.34559e-07
0.0120208
0.43712
0.90515
0.906319
0.896412
0.886631
0.891201
0.896162
0.559621
0.358497
0.327746
0.398551
0.598323
0.681275
0.608815
0.56731
0.25017
3.11319e-09
0.000191347
0.197233
0.725483
0.738212
0.559175
0.329784
0.242278
0.279669
0.501016
0.695205
0.701003
0.663482
0.669639
0.693012
0.697749
0.693012
0.695826
0.428193
3.11272e-09
0.230719
0.648551
0.530426
0.171983
-1.84792e-06
-3.79702e-06
-7.97522e-07
-2.86543e-08
-1.93234e-08
0.0373586
0.1334
0.149145
0.133563
0.17498
0.343963
0.537269
0.688377
0.670416
0.118557
0.646938
0.644678
0.14757
8.92323e-05
8.52747e-05
2.17489e-05
1.39611e-06
3.31295e-07
3.06988e-09
1.9911e-15
2.98414e-10
-5.14821e-06
0.00393863
0.00942714
0.0080674
0.0216209
0.493765
0.66223
0.726724
0.662457
0.204252
-1.33693e-05
9.54507e-05
8.44649e-05
4.41958e-05
5.07046e-06
1.83327e-06
1.56088e-11
3.90316e-05
0.000855427
0.000943618
0.00103933
4.8892e-07
5.20934e-19
-1.10108e-06
0.0297772
0.645946
0.718183
0.150025
-3.94453e-19
-9.81897e-09
6.37794e-06
6.21488e-07
1.02509e-08
3.3794e-12
7.69654e-09
3.99381e-09
3.29175e-09
2.44784e-08
3.74811e-05
4.12013e-07
5.53875e-19
1.13432e-18
9.21481e-06
0.00161275
0.448557
-6.16338e-22
-6.48101e-21
-2.66668e-20
-1.23942e-19
7.23606e-20
4.28232e-18
1.29206e-16
6.64071e-14
1.34396e-12
2.27321e-12
8.26774e-13
4.11343e-12
4.19098e-12
8.03141e-09
0.025943
0.156867
0.36752
0.563973
0.691668
0.754028
0.709272
0.64899
0.572188
-5.40083e-22
-4.7462e-21
-1.83247e-20
-6.3183e-20
-8.72164e-20
1.4326e-19
7.45337e-18
2.21847e-16
4.2548e-15
1.14915e-13
6.96169e-13
1.09318e-11
4.60181e-11
6.16796e-11
2.30718e-08
3.12152e-08
1.78213e-12
8.09718e-23
2.26703e-29
1.00899e-26
-6.13295e-11
-3.61977e-09
-7.15514e-22
-1.54268e-22
-9.77068e-22
-1.13306e-21
-1.50475e-21
-1.69258e-21
3.71027e-22
6.69522e-20
2.04466e-18
6.41509e-17
2.35873e-15
1.70441e-14
1.13831e-12
9.90154e-12
1.35872e-11
7.50741e-11
1.47019e-10
1.61938e-10
6.10381e-11
3.18032e-11
3.61412e-11
1.03094e-10
1.43937e-10
-3.01697e-11
-3.2659e-23
-1.74076e-22
-1.55584e-22
-1.21264e-22
-9.18199e-23
-5.81101e-23
3.04695e-23
1.07314e-20
4.9953e-19
8.48356e-18
1.43695e-16
4.25787e-15
8.66365e-14
7.99966e-13
1.09895e-12
1.35963e-11
1.5624e-11
2.68054e-10
2.11947e-10
4.02214e-10
1.14173e-09
2.34533e-09
3.95493e-09
-4.67868e-24
-2.1558e-23
-1.41528e-23
-7.54153e-24
-3.84189e-24
-1.90326e-24
-7.76955e-27
5.07763e-25
2.64778e-23
2.02936e-21
7.84966e-19
2.60893e-17
7.66488e-16
6.15837e-15
1.94218e-15
1.33728e-13
3.33742e-13
1.70676e-12
1.41399e-12
1.49102e-12
7.02513e-13
1.56889e-13
1.19512e-10
-5.66505e-25
-2.31251e-24
-1.10309e-24
-3.78625e-25
-1.17743e-25
-3.56902e-26
-4.11762e-27
7.87039e-32
4.85031e-30
1.47127e-28
-6.41531e-47
-5.67212e-49
-1.89831e-51
5.39884e-61
4.18479e-21
3.42792e-17
8.31547e-17
1.93438e-14
3.44958e-14
1.93486e-12
1.72859e-12
2.52203e-13
1.63025e-19
-5.97288e-26
-1.87796e-25
-7.54613e-26
-1.75959e-26
-3.20296e-27
-5.10123e-28
-3.80736e-29
6.90872e-37
-5.51789e-39
-2.63307e-41
-8.49116e-44
-2.39557e-46
-1.10911e-48
6.22652e-49
-4.63022e-65
-1.28219e-42
1.78884e-20
9.11311e-19
6.75026e-18
2.66994e-17
1.51647e-21
1.60668e-17
2.87049e-16
-3.96932e-27
-1.23179e-26
-4.13034e-27
-7.07138e-28
-8.19226e-29
-7.06352e-30
-3.18284e-31
-2.46715e-33
-1.17669e-35
-3.22696e-38
-6.08736e-41
-9.05302e-44
-1.92226e-46
1.91968e-48
7.12312e-47
7.98743e-46
1.27329e-47
1.59969e-47
1.00821e-22
8.65922e-25
1.48922e-21
5.7204e-18
2.59344e-16
-1.50743e-28
-5.38384e-28
-1.54011e-28
-2.06751e-29
-1.69571e-30
-9.09179e-32
-2.66227e-33
-3.07876e-35
-2.27962e-37
-1.29613e-39
-6.65322e-42
-3.72924e-44
-1.60148e-46
2.56385e-47
3.03695e-46
9.15257e-45
2.84034e-42
1.86407e-41
6.1981e-41
8.01104e-25
1.26863e-21
1.70776e-20
1.83907e-19
-3.00722e-30
-1.3353e-29
-3.3843e-30
-3.73291e-31
-2.33435e-32
-8.79137e-34
-1.85477e-35
-2.12546e-37
-1.67852e-39
-1.20911e-41
-8.50727e-44
-5.49249e-46
1.11069e-45
3.65318e-46
8.35272e-46
5.09933e-43
4.37823e-41
4.01862e-40
9.09342e-40
5.47154e-36
1.83507e-30
2.02378e-24
4.91725e-21
-2.56318e-32
-1.57468e-31
-3.73216e-32
-3.49489e-33
-1.72248e-34
-4.79791e-36
-7.49954e-38
-6.90124e-40
-4.48672e-42
-2.61321e-44
-1.12558e-46
1.47883e-46
8.85859e-45
6.92301e-45
9.79659e-44
2.95718e-41
3.98592e-40
6.00069e-39
2.07536e-38
2.00829e-34
1.99667e-28
1.88627e-23
1.06635e-20
-5.69339e-35
-6.21917e-34
-1.55119e-34
-1.28619e-35
-4.99593e-37
-9.90324e-39
-9.94314e-41
-4.36357e-43
-1.10847e-45
1.81454e-46
1.0829e-46
1.70363e-45
7.63414e-44
1.4682e-42
1.7597e-41
7.01799e-40
5.5268e-39
5.48746e-38
2.3768e-37
2.71909e-35
6.93681e-28
4.45453e-23
1.45244e-20
3.69494e-54
-1.63874e-37
-9.09403e-38
-8.21099e-39
-2.38153e-40
-2.20511e-42
-3.29123e-46
2.01878e-46
8.18502e-46
2.0161e-45
2.60402e-44
4.22889e-43
4.84447e-42
7.70808e-41
6.03782e-40
4.58744e-39
2.28633e-38
1.61575e-37
1.76068e-36
3.62883e-33
4.65564e-28
3.47441e-22
3.2216e-20
7.56881e-54
3.00056e-52
6.48659e-51
9.00499e-50
9.73528e-49
1.08542e-47
1.05575e-46
1.03011e-45
1.10062e-44
1.27602e-43
1.44421e-42
1.69075e-41
1.5818e-40
1.01519e-39
5.61462e-39
3.2224e-38
1.32268e-37
6.68779e-37
2.99322e-36
1.81671e-31
1.70077e-24
1.76056e-22
5.44728e-21
3.90391e-53
1.8234e-51
4.35252e-50
7.41271e-49
1.07563e-47
1.40338e-46
1.59167e-45
1.85138e-44
1.91569e-43
1.99948e-42
1.98042e-41
1.82023e-40
1.40025e-39
6.72067e-39
2.81725e-38
1.13315e-37
4.64784e-37
2.36605e-36
1.22453e-35
2.79037e-34
2.07378e-27
3.76055e-23
1.7898e-21
1.10033e-52
6.3279e-51
1.74124e-49
3.5497e-48
5.69778e-47
7.7164e-46
9.27359e-45
1.14177e-43
1.21404e-42
1.1787e-41
1.03604e-40
8.0021e-40
5.39514e-39
2.15548e-38
8.4375e-38
2.76735e-37
1.60868e-36
9.67428e-36
2.22039e-34
1.77838e-31
2.69438e-27
1.60019e-24
2.02475e-22
2.44582e-52
1.52409e-50
4.67648e-49
1.02554e-47
1.77291e-46
2.58321e-45
3.32036e-44
3.97886e-43
4.15099e-42
3.73035e-41
2.98393e-40
2.09764e-39
1.34825e-38
5.5049e-38
2.52064e-37
1.4564e-36
1.47508e-35
2.51423e-34
7.33438e-33
8.75266e-32
1.82288e-29
2.86586e-26
2.52448e-24
5.24917e-52
3.256e-50
1.04627e-48
2.36126e-47
4.3094e-46
6.60714e-45
8.61709e-44
9.70503e-43
9.81776e-42
8.44854e-41
6.52945e-40
4.79329e-39
3.43159e-38
2.31539e-37
2.14384e-36
4.62772e-35
7.95745e-34
1.32998e-32
2.01178e-31
2.47404e-30
2.26484e-29
4.82792e-28
1.97787e-25
1.09306e-51
6.6089e-50
2.149e-48
4.96543e-47
9.11387e-46
1.38768e-44
1.7803e-43
1.98855e-42
2.04032e-41
1.8975e-40
1.71212e-39
1.75306e-38
2.32185e-37
4.33814e-36
8.48058e-35
1.58155e-33
2.4677e-32
3.29754e-31
4.11966e-30
4.19734e-29
3.89651e-28
2.87366e-27
1.80297e-26
2.40152e-51
1.38732e-49
4.51084e-48
1.02785e-46
1.82633e-45
2.78098e-44
3.76046e-43
4.70505e-42
5.9751e-41
8.93144e-40
1.34392e-38
2.80862e-37
5.93008e-36
1.17229e-34
2.12123e-33
3.24553e-32
4.41387e-31
5.17308e-30
5.8258e-29
5.27624e-28
4.22041e-27
2.66548e-26
1.14832e-25
5.52226e-51
3.44488e-49
1.11438e-47
2.54123e-46
4.78619e-45
8.83198e-44
1.6401e-42
3.20221e-41
6.59786e-40
1.50746e-38
3.22072e-37
6.98158e-36
1.33615e-34
2.31198e-33
3.66238e-32
4.99078e-31
6.02756e-30
6.56064e-29
6.33209e-28
5.10968e-27
3.34294e-26
1.64547e-25
7.33025e-25
1.12566e-50
8.50141e-49
3.58845e-47
1.17047e-45
3.38615e-44
9.18519e-43
2.36813e-41
5.80457e-40
1.3574e-38
3.02481e-37
6.29842e-36
1.18158e-34
1.99798e-33
3.23239e-32
4.56593e-31
5.67265e-30
6.03841e-29
5.16951e-28
3.99037e-27
2.78831e-26
1.48051e-25
7.42765e-25
2.77428e-24
2.33415e-50
2.41802e-48
1.46312e-46
6.75019e-45
2.57447e-43
8.41584e-42
2.42144e-40
6.26618e-39
1.47287e-37
3.1277e-36
5.93515e-35
1.0042e-33
1.53586e-32
2.17058e-31
2.71303e-30
2.9277e-29
2.67511e-28
1.8861e-27
1.36984e-26
8.60525e-26
4.29452e-25
1.93838e-24
8.69501e-24
4.92629e-50
6.68332e-48
5.02007e-46
2.66352e-44
1.09601e-42
3.75867e-41
1.10566e-39
2.85221e-38
6.51366e-37
1.31906e-35
2.36805e-34
3.77121e-33
5.3554e-32
6.90345e-31
8.08532e-30
7.96524e-29
6.56121e-28
4.17657e-27
2.94399e-26
1.80993e-25
8.99328e-25
4.30055e-24
1.73922e-23
8.31028e-50
1.30113e-47
1.06241e-45
5.97086e-44
2.58503e-42
9.0854e-41
2.69486e-39
6.89192e-38
1.53801e-36
3.01607e-35
5.22386e-34
8.02517e-33
1.1006e-31
1.35933e-30
1.49797e-29
1.40192e-28
1.06705e-27
6.21445e-27
4.47731e-26
2.76845e-25
1.338e-24
6.43884e-24
3.05058e-23
1.01561e-49
1.69573e-47
1.44811e-45
8.39505e-44
3.70787e-42
1.32245e-40
3.94388e-39
1.00377e-37
2.21278e-36
4.27596e-35
7.30933e-34
1.11135e-32
1.50499e-31
1.81583e-30
1.9481e-29
1.8021e-28
1.32872e-27
7.57958e-27
5.22825e-26
3.60389e-25
1.80233e-24
8.69059e-24
3.82446e-23
8.48671e-50
1.49696e-47
1.33914e-45
8.07872e-44
3.67845e-42
1.33966e-40
4.02952e-39
1.02385e-37
2.23907e-36
4.28784e-35
7.29154e-34
1.10914e-32
1.50725e-31
1.81211e-30
1.89311e-29
1.67324e-28
1.20304e-27
6.90392e-27
5.31633e-26
3.30355e-25
1.70983e-24
9.38378e-24
4.21361e-23
4.28261e-50
8.10415e-48
7.67476e-46
4.84575e-44
2.28554e-42
8.56686e-41
2.62776e-39
6.81888e-38
1.52443e-36
2.98477e-35
5.17603e-34
7.98684e-33
1.09409e-31
1.31956e-30
1.38307e-29
1.23728e-28
9.19982e-28
5.5124e-27
3.69466e-26
2.94627e-25
1.50419e-24
8.00702e-24
3.68005e-23
1.2358e-50
2.55488e-48
2.6122e-46
1.7616e-44
8.79906e-43
3.44418e-41
1.11804e-39
3.03406e-38
7.05291e-37
1.42369e-35
2.51911e-34
3.92078e-33
5.34946e-32
6.35103e-31
6.51397e-30
5.71575e-29
4.10357e-28
2.8685e-27
1.81724e-26
1.52993e-25
9.44739e-25
5.59595e-24
2.67772e-23
2.26196e-51
5.15704e-49
5.72228e-47
4.14365e-45
2.20807e-43
9.25274e-42
3.18646e-40
9.24681e-39
2.31464e-37
5.04237e-36
9.5866e-35
1.58723e-33
2.27933e-32
2.79119e-31
2.76863e-30
2.83019e-29
2.2265e-28
1.53925e-27
1.08399e-26
9.45091e-26
6.26794e-25
3.8819e-24
1.92306e-23
2.47968e-52
6.28023e-50
7.6381e-48
6.02442e-46
3.49383e-44
1.59829e-42
5.9809e-41
1.92479e-39
5.26205e-38
1.23951e-36
2.50986e-35
4.35897e-34
6.37389e-33
7.45917e-32
9.3154e-31
8.93517e-30
7.53663e-29
5.58257e-28
4.13447e-27
3.61734e-26
2.60351e-25
1.68812e-24
9.13251e-24
1.55047e-53
4.53137e-51
6.28185e-49
5.60097e-47
3.64272e-45
1.85212e-43
7.68155e-42
2.64237e-40
7.79069e-39
1.94492e-37
4.12779e-36
7.29765e-35
1.47046e-33
2.08128e-32
2.56618e-31
2.72441e-30
2.47681e-29
1.93839e-28
1.45979e-27
1.22165e-26
8.66428e-26
6.65514e-25
3.56447e-24
5.60954e-55
1.86593e-52
2.90252e-50
2.88602e-48
2.0876e-46
1.17894e-44
5.4251e-43
2.08804e-41
6.826e-40
1.91274e-38
4.62469e-37
9.71176e-36
1.78412e-34
2.88654e-33
4.13061e-32
5.23186e-31
5.85729e-30
5.7998e-29
5.12059e-28
4.10365e-27
2.98709e-26
1.93263e-25
1.23108e-24
1.27653e-56
5.08895e-54
9.3677e-52
1.09716e-49
9.31549e-48
6.15116e-46
3.296e-44
1.47173e-42
5.56537e-41
1.79893e-39
4.0151e-38
1.20546e-36
2.47154e-35
4.42252e-34
6.86739e-33
9.27814e-32
1.09299e-30
1.12503e-29
1.02313e-28
8.66168e-28
7.30463e-27
5.81503e-26
3.578e-25
1.64625e-58
7.57762e-56
1.59608e-53
2.14374e-51
2.09593e-49
1.59705e-47
9.86217e-46
5.05342e-44
2.18099e-42
8.01019e-41
2.52332e-39
6.86524e-38
1.62448e-36
3.36603e-35
5.12559e-34
9.92894e-33
1.3763e-31
1.47451e-30
1.84748e-29
1.80565e-28
1.60517e-27
1.23587e-26
9.62592e-26
7.88975e-61
4.98324e-58
1.8074e-55
2.90287e-53
3.41755e-51
3.14768e-49
2.35447e-47
1.46211e-45
7.63998e-44
3.38837e-42
1.28289e-40
4.16323e-39
1.16159e-37
2.79412e-36
5.8105e-35
1.04768e-33
1.64114e-32
2.22612e-31
2.59173e-30
2.62649e-29
2.63482e-28
2.73012e-27
2.00122e-26
4.49318e-63
2.58569e-60
7.33639e-58
1.38585e-55
1.96836e-53
2.23018e-51
2.0812e-49
1.62626e-47
1.07126e-45
5.95723e-44
2.79617e-42
1.10868e-40
3.72526e-39
1.06744e-37
2.63355e-36
5.66404e-35
1.07304e-33
1.78907e-32
2.64636e-31
3.65326e-30
4.73897e-29
5.1575e-28
4.78578e-27
1.14571e-65
6.4502e-63
2.25078e-60
5.08277e-58
9.03597e-56
1.30664e-53
1.56111e-51
1.55525e-49
1.29973e-47
9.14726e-46
5.43445e-44
2.72921e-42
1.15996e-40
4.18184e-39
1.2841e-37
3.37817e-36
7.67247e-35
1.53583e-33
2.69019e-32
4.05777e-31
5.83278e-30
7.12195e-29
7.19794e-28
2.585e-68
6.66004e-66
2.04921e-63
5.22857e-61
1.14441e-58
2.13753e-56
3.37605e-54
4.49087e-52
5.03088e-50
4.75175e-48
3.78626e-46
2.54316e-44
1.43835e-42
6.86695e-41
2.78982e-39
9.82348e-38
3.10659e-36
8.54917e-35
2.03093e-33
4.36843e-32
8.26258e-31
1.19858e-29
1.22672e-28
5.03244e-71
1.01435e-69
2.90256e-67
8.55542e-65
2.52412e-62
6.96869e-60
1.70485e-57
3.58962e-55
6.43137e-53
9.77309e-51
1.25669e-48
1.35923e-46
1.22638e-44
9.24617e-43
5.92604e-41
3.3234e-39
1.57668e-37
6.20539e-36
1.51133e-34
5.26626e-33
1.09921e-31
1.7976e-30
2.29784e-29
8.57106e-74
4.36645e-75
1.2395e-72
4.85362e-70
2.3563e-67
1.21126e-64
5.84698e-62
2.49011e-59
9.15817e-57
2.90308e-54
7.9315e-52
1.84144e-49
3.53555e-47
5.91556e-45
8.83176e-43
9.75852e-41
7.74453e-39
4.38046e-37
1.76537e-35
4.79752e-34
1.02893e-32
2.09028e-31
4.49785e-30
1.2532e-76
2.42068e-85
1.17474e-82
1.22094e-79
2.20577e-76
5.35016e-73
1.39246e-69
3.40286e-66
7.41851e-63
1.45543e-59
2.69868e-56
4.74594e-53
6.71817e-50
5.88517e-47
2.31378e-44
4.76797e-42
5.7535e-40
4.40017e-38
2.26665e-36
8.24837e-35
2.21186e-33
4.53209e-32
7.54641e-31
0.640702
0.642335
0.652791
0.645929
6.24998e-08
8.18168e-19
1.95556e-18
1.39955e-18
1.92439e-09
3.45347e-09
4.81927e-09
3.46963e-09
9.3888e-09
2.15641e-08
2.12619e-08
2.15642e-08
7.46929e-10
8.45498e-09
1.73762e-08
1.26998e-08
1.66428e-19
1.53597e-19
1.66407e-19
1.53597e-19
1.07349e-15
3.27686e-15
1.18057e-14
1.76681e-16
1.89565e-15
8.62935e-15
1.9406e-14
1.65457e-15
2.84561e-18
4.66016e-17
4.68318e-16
4.18393e-18
1.46968e-19
2.24422e-18
1.4403e-17
3.9559e-16
1.11647e-19
6.86137e-19
5.34273e-18
1.07018e-17
1.19821e-18
9.33695e-18
4.6936e-17
1.97113e-16
1.02094e-18
1.08504e-17
9.06283e-17
4.83334e-16
4.76814e-19
6.06235e-18
4.86632e-17
3.08555e-16
8.49326e-20
1.50297e-18
1.65769e-17
1.19299e-16
1.29297e-20
2.40718e-19
3.33379e-18
3.03714e-17
5.58194e-22
1.95969e-20
4.19606e-19
5.21438e-18
2.84591e-23
5.51935e-22
3.12953e-20
7.29624e-19
1.20934e-24
3.70256e-23
9.22204e-22
6.50311e-20
4.17847e-25
1.81834e-24
8.51188e-23
4.57915e-21
2.36298e-24
6.10523e-24
2.51964e-23
4.17404e-22
1.30074e-23
3.1365e-23
5.98957e-23
1.21125e-22
3.41408e-23
6.56502e-23
1.47401e-22
2.48267e-22
6.78335e-23
1.41945e-22
2.71917e-22
5.01338e-22
1.06033e-22
2.23724e-22
5.12481e-22
8.62426e-22
1.50942e-22
3.29583e-22
6.90083e-22
1.23741e-21
1.51509e-22
3.87629e-22
8.30897e-22
1.46474e-21
1.53407e-22
3.61238e-22
8.21716e-22
1.51038e-21
1.079e-22
3.21295e-22
6.71844e-22
1.32169e-21
8.85002e-23
2.15257e-22
4.97946e-22
1.02994e-21
4.49075e-23
1.18146e-22
3.10962e-22
6.45928e-22
2.1509e-23
5.82188e-23
1.58572e-22
3.80529e-22
7.16887e-24
2.41171e-23
7.05861e-23
1.80531e-22
2.58009e-24
8.72119e-24
2.79771e-23
7.49225e-23
7.40277e-25
2.76205e-24
8.72468e-24
2.73833e-23
1.82358e-25
7.0223e-25
2.72822e-24
8.43703e-24
4.11454e-26
1.79361e-25
6.96754e-25
2.51486e-24
7.88174e-27
4.07054e-26
1.70101e-25
6.49503e-25
1.66659e-27
8.28778e-27
3.78379e-26
1.59039e-25
3.01059e-28
1.69357e-27
8.22398e-27
3.58351e-26
5.53508e-29
3.07225e-28
1.42019e-27
6.52411e-27
1.09614e-29
6.24762e-29
3.32587e-28
1.58473e-27
0.235062
1.64448e-11
8.09802e-14
-1.53526e-08
-8.75877e-11
1.74254e-08
5.97629e-08
1.96834e-08
5.7656e-08
2.10414e-07
7.60263e-09
2.49169e-06
4.55585e-06
-8.96702e-12
8.01588e-05
0.00056477
7.7711e-05
0.00936263
0.327968
2.6874e-19
2.30452e-10
3.56554e-10
5.1572e-16
1.73317e-08
3.78503e-07
3.78039e-07
4.7275e-08
1.27176e-07
1.01887e-06
7.60653e-07
2.18273e-07
1.983e-09
-3.19519e-09
0.000406169
0.00118908
3.87589e-05
0.0233148
0.425356
2.25686e-09
1.20388e-09
9.12407e-10
4.0963e-11
5.96389e-08
2.2504e-07
9.91996e-08
1.34293e-08
5.65419e-07
1.49986e-06
1.46049e-06
1.04294e-07
1.91489e-08
3.27233e-15
0.000188093
0.00121435
5.69396e-05
0.0119467
0.3752
6.0151e-09
7.09268e-10
8.19773e-10
1.54156e-09
9.32494e-15
2.72594e-18
1.10774e-17
3.33846e-08
9.7786e-07
1.42571e-06
4.22552e-07
5.37964e-09
9.53941e-08
7.59092e-07
3.10391e-06
0.00011984
0.000152204
0.000646852
0.0634816
1.6097e-09
9.73639e-11
2.13146e-10
2.11611e-10
7.65293e-12
1.0845e-15
6.05908e-10
1.08403e-07
2.04284e-07
1.59265e-07
5.37964e-09
5.46129e-09
4.34277e-08
1.65124e-07
2.44583e-08
-3.96976e-12
7.49116e-06
-7.15514e-22
0.039658
-2.29746e-16
8.84232e-13
1.49053e-11
4.39537e-11
8.4204e-11
8.99941e-11
8.15101e-11
1.67257e-09
2.64322e-08
3.08062e-08
4.01473e-08
1.66973e-08
4.46695e-09
5.63606e-09
2.41823e-08
1.60586e-07
2.09272e-06
3.25629e-05
0.00385492
1.26816e-12
1.29056e-11
2.76369e-11
4.7842e-11
6.12426e-11
5.01475e-11
1.97172e-10
1.51474e-08
3.63936e-08
5.19829e-08
5.03949e-08
2.30952e-08
4.01293e-09
1.60965e-08
1.141e-07
3.98952e-07
1.16439e-06
8.27623e-06
8.42481e-09
9.80249e-13
1.06406e-11
2.33651e-11
3.67671e-11
3.94912e-11
6.38685e-11
1.85286e-09
1.48299e-08
3.08969e-08
3.75383e-08
1.28762e-08
6.97573e-09
3.60522e-09
3.81771e-08
9.46363e-08
1.45732e-07
3.64304e-09
1.43571e-10
5.90095e-09
4.24385e-13
3.36693e-12
1.28927e-11
2.51636e-11
7.41344e-11
4.90999e-10
4.00589e-09
5.89114e-09
3.01163e-09
3.55202e-10
2.98772e-09
4.40683e-09
3.42824e-09
8.35372e-09
4.77556e-08
5.81322e-08
1.46283e-08
1.67275e-10
1.00356e-08
5.41907e-14
9.72687e-13
4.00844e-12
1.88603e-11
4.97862e-11
1.76783e-10
6.00858e-10
9.92934e-10
8.42387e-10
3.15279e-10
2.80206e-10
6.90555e-10
1.28777e-09
1.4921e-09
3.06825e-09
1.10493e-08
9.39387e-09
3.71803e-10
5.38917e-09
9.45951e-16
3.76505e-14
9.41342e-13
5.11215e-12
1.1937e-11
3.79817e-11
1.34162e-10
2.54163e-10
3.15226e-10
2.82167e-10
2.31521e-10
2.17503e-10
3.2511e-10
5.03626e-10
5.40705e-10
4.91546e-10
1.22092e-09
5.20336e-10
4.21586e-10
3.92758e-16
4.8249e-15
2.1878e-13
1.1491e-12
3.32859e-12
1.5653e-11
3.7729e-11
6.94938e-11
9.9506e-11
1.08726e-10
1.3346e-10
1.58724e-10
1.96964e-10
2.94593e-10
3.76378e-10
4.18418e-10
4.47543e-10
5.09097e-10
3.09697e-10
1.90056e-15
7.94519e-15
7.39635e-14
8.98568e-13
2.78927e-12
1.13239e-11
1.79869e-11
2.50166e-11
4.1765e-11
6.02404e-11
8.94894e-11
1.2745e-10
1.64819e-10
2.05728e-10
2.47105e-10
2.79701e-10
3.0944e-10
3.2181e-10
2.87012e-10
1.54111e-15
1.11074e-14
6.74637e-14
7.21296e-13
2.85846e-12
1.01099e-11
1.39165e-11
1.53039e-11
2.23832e-11
4.28931e-11
6.13578e-11
8.80341e-11
1.15648e-10
1.41955e-10
1.65442e-10
1.78748e-10
1.99624e-10
2.13081e-10
2.22129e-10
6.79999e-16
6.16822e-15
4.6369e-14
4.37802e-13
2.43217e-12
8.16554e-12
1.22736e-11
1.222e-11
1.3813e-11
2.55009e-11
4.10592e-11
5.80113e-11
7.14275e-11
8.02771e-11
9.26741e-11
1.05572e-10
1.07202e-10
1.12069e-10
1.08969e-10
2.03546e-16
2.22389e-15
1.97995e-14
1.37024e-13
1.42586e-12
5.37479e-12
1.01915e-11
1.01099e-11
8.43162e-12
9.91621e-12
2.01914e-11
2.94602e-11
3.40434e-11
4.05725e-11
4.39632e-11
4.3049e-11
3.61716e-11
3.22672e-11
3.31567e-11
4.84929e-17
7.22938e-16
7.98111e-15
6.99944e-14
3.90729e-13
2.94685e-12
7.49183e-12
9.67281e-12
6.70481e-12
4.98249e-12
4.68864e-12
7.94482e-12
1.05026e-11
1.15082e-11
1.16163e-11
1.08073e-11
8.64142e-12
6.02488e-12
4.18039e-12
7.86285e-18
1.93891e-16
2.78906e-15
2.58569e-14
1.72437e-13
7.14759e-13
2.73486e-12
7.18032e-12
6.87089e-12
4.30146e-12
2.36209e-12
1.85904e-12
2.54091e-12
2.98799e-12
3.07712e-12
2.65672e-12
2.08173e-12
1.19521e-12
5.01217e-13
1.16004e-18
4.24667e-17
7.96277e-16
8.91377e-15
7.69392e-14
3.33048e-13
1.16225e-12
3.25519e-12
5.28244e-12
5.0021e-12
2.41129e-12
1.02024e-12
5.44537e-13
4.35902e-13
4.9025e-13
5.23407e-13
5.01125e-13
2.30665e-13
5.17936e-14
1.80245e-19
7.54116e-18
1.87103e-16
2.90468e-15
2.38999e-14
1.26555e-13
4.33856e-13
7.80537e-13
2.23174e-12
4.12877e-12
3.75635e-12
1.53393e-12
4.9863e-13
1.22663e-13
5.97777e-14
8.09768e-14
8.74271e-14
2.66578e-14
3.35896e-15
1.77374e-20
1.06815e-18
3.61527e-17
7.41643e-16
7.14821e-15
3.6923e-14
1.35725e-13
2.52155e-13
6.3782e-13
2.04471e-12
2.67833e-12
2.06755e-12
8.99334e-13
1.67237e-13
2.24191e-14
1.91195e-14
1.78351e-14
2.72489e-15
8.02512e-16
1.5514e-21
1.21674e-19
5.64804e-18
1.54544e-16
1.89396e-15
1.1069e-14
3.40958e-14
8.73254e-14
2.38953e-13
6.87392e-13
1.0026e-12
1.28722e-12
1.18923e-12
4.36054e-13
2.82897e-14
5.39578e-15
2.1025e-15
5.6703e-16
1.69569e-16
4.55684e-22
1.09026e-20
7.1966e-19
2.62269e-17
3.61086e-16
2.68867e-15
9.23617e-15
2.46239e-14
8.85439e-14
2.52478e-13
4.13676e-13
6.95294e-13
9.57734e-13
6.28996e-13
1.13471e-13
5.99226e-15
5.36872e-16
2.71541e-16
5.07651e-17
8.19303e-22
1.61638e-21
6.5348e-20
3.7211e-18
5.69793e-17
4.76534e-16
2.10694e-15
1.02863e-14
3.57306e-14
9.90209e-14
1.78496e-13
3.89092e-13
6.89294e-13
5.87122e-13
1.92256e-13
1.23043e-14
4.87662e-16
1.4613e-16
1.38528e-17
1.42147e-21
2.75009e-21
5.03073e-21
2.78294e-19
8.26327e-18
7.20669e-17
3.95575e-16
3.11699e-15
1.54171e-14
4.23289e-14
8.88114e-14
2.4088e-13
4.46415e-13
4.52488e-13
2.03421e-13
1.14141e-14
4.41888e-16
7.74165e-17
6.10009e-18
2.06305e-21
4.25895e-21
7.38489e-21
1.264e-20
1.40225e-19
1.03052e-17
6.46854e-17
6.25911e-16
4.17507e-15
1.38471e-14
4.62592e-14
1.64566e-13
3.38209e-13
3.55058e-13
1.6298e-13
8.60063e-15
2.77116e-16
3.23824e-17
5.12041e-18
2.55351e-21
5.70651e-21
1.06489e-20
1.7211e-20
2.69623e-20
1.783e-19
7.88687e-18
1.35978e-16
1.08405e-15
5.79343e-15
2.4829e-14
1.17118e-13
2.49057e-13
2.59302e-13
1.30203e-13
8.38722e-15
2.69486e-16
2.19957e-17
5.20584e-18
2.71031e-21
6.75045e-21
1.34096e-20
2.34238e-20
3.56079e-20
5.25291e-20
1.29646e-19
1.07709e-17
4.03449e-16
2.62339e-15
1.32762e-14
7.74783e-14
1.82258e-13
1.98678e-13
1.04979e-13
1.19557e-14
7.2355e-16
3.82601e-17
6.11055e-18
2.46403e-21
6.72973e-21
1.49662e-20
2.83426e-20
4.6462e-20
6.71468e-20
9.36503e-20
2.46722e-19
6.10382e-17
9.8743e-16
8.0125e-15
5.3505e-14
1.27353e-13
1.43131e-13
8.75649e-14
2.00788e-14
1.06458e-15
8.25474e-17
7.97859e-18
1.90858e-21
5.60071e-21
1.42338e-20
3.01845e-20
5.46677e-20
8.50626e-20
1.18399e-19
1.65042e-19
3.3115e-18
1.19613e-16
3.39973e-15
4.07996e-14
8.93781e-14
1.00375e-13
6.28626e-14
2.11122e-14
2.75428e-15
1.39583e-16
5.54988e-18
1.29222e-21
4.17688e-21
1.15469e-20
2.71125e-20
5.52004e-20
9.72867e-20
1.46109e-19
2.00208e-19
3.23802e-19
3.10219e-18
5.86092e-16
2.3698e-14
6.29071e-14
6.68971e-14
4.68877e-14
1.5612e-14
1.85373e-15
4.36735e-17
6.04718e-18
7.89851e-22
2.72011e-21
8.10101e-21
2.10752e-20
4.78776e-20
9.47458e-20
1.63972e-19
2.38391e-19
3.35504e-19
4.71501e-19
1.97706e-17
6.73717e-15
2.87322e-14
3.82311e-14
2.39808e-14
8.5063e-15
1.09082e-15
2.97664e-17
4.57544e-18
4.17634e-22
1.54283e-21
4.97688e-21
1.42259e-20
3.57324e-20
7.96054e-20
1.53346e-19
2.59009e-19
3.76852e-19
5.11613e-19
7.55077e-19
5.45235e-16
8.22671e-15
1.2873e-14
8.07928e-15
2.62207e-15
1.94206e-16
1.43396e-17
3.56193e-18
1.8655e-22
7.59448e-22
2.68396e-21
8.32368e-21
2.29902e-20
5.71057e-20
1.23263e-19
2.36069e-19
3.93828e-19
5.6645e-19
7.65879e-19
1.26938e-17
1.28847e-15
1.79818e-15
1.09175e-15
2.31095e-16
3.55152e-17
1.39854e-17
2.47947e-18
7.32477e-23
3.29324e-22
1.28726e-21
4.3956e-21
1.27906e-20
3.46548e-20
8.37169e-20
1.8231e-19
3.48675e-19
5.65984e-19
8.28053e-19
1.3258e-18
5.06923e-17
6.3141e-17
3.52976e-17
1.67881e-17
1.04536e-17
5.55973e-18
1.23251e-18
2.57402e-23
1.28533e-22
5.57784e-22
2.04686e-21
6.67934e-21
1.92906e-20
5.01063e-20
1.19705e-19
2.6276e-19
4.72143e-19
7.97217e-19
1.27323e-18
1.9804e-18
1.266e-17
8.40149e-18
7.0942e-18
5.73683e-18
2.72004e-18
5.42602e-19
8.08435e-24
4.46158e-23
2.08993e-22
8.61881e-22
3.03077e-21
9.52874e-21
2.65253e-20
6.73962e-20
1.62035e-19
3.33917e-19
5.94272e-19
1.06762e-18
1.57304e-18
3.98293e-18
4.1364e-18
3.89585e-18
2.26375e-18
7.23125e-19
2.60707e-19
2.34534e-24
1.4186e-23
7.35563e-23
3.25373e-22
1.23711e-21
4.16191e-21
1.28211e-20
3.394e-20
8.50972e-20
1.93571e-19
3.72461e-19
7.06346e-19
1.10997e-18
1.90604e-18
2.11862e-18
1.40813e-18
5.73545e-19
3.14872e-19
1.07604e-19
5.49856e-25
4.00997e-24
2.22579e-23
1.06012e-22
4.38764e-22
1.60446e-21
5.10976e-21
1.42053e-20
3.65979e-20
8.86652e-20
1.76408e-19
3.18806e-19
5.58008e-19
8.19345e-19
6.44445e-19
3.37377e-19
2.14862e-19
1.34088e-19
5.95403e-20
1.47715e-25
1.01223e-24
5.94225e-24
3.05476e-23
1.37549e-22
5.16112e-22
1.73931e-21
5.3137e-21
1.42654e-20
3.48781e-20
7.44933e-20
1.32553e-19
2.11199e-19
2.80435e-19
1.79771e-19
1.00268e-19
9.13528e-20
6.8731e-20
2.40251e-20
3.57151e-26
2.46529e-25
1.54803e-24
8.40802e-24
3.83167e-23
1.55773e-22
5.52467e-22
1.69584e-21
4.71022e-21
1.13346e-20
2.3954e-20
4.29038e-20
6.44555e-20
7.58892e-20
4.63658e-20
3.444e-20
3.57294e-20
2.52987e-20
7.28354e-21
7.2833e-27
5.84064e-26
3.88059e-25
2.15109e-24
9.98084e-24
4.07266e-23
1.4839e-22
4.69561e-22
1.30527e-21
3.1734e-21
6.57222e-21
1.13992e-20
1.55261e-20
1.66545e-20
1.24304e-20
1.15776e-20
1.08506e-20
6.12577e-21
1.38561e-21
)
;

boundaryField
{
    leftWall
    {
        type            alphaContactAngle;
        contactAngleProperties 
        {
            air             
            {
                theta0          90;
            }
            water           
            {
                theta0          90;
            }
            oil             
            {
                theta0          90;
            }
        }
        value           nonuniform List<scalar> 
50
(
1
1
1
0.841862
0.0724507
-3.6967e-19
-1.47831e-22
-4.51925e-22
-6.16338e-22
-5.40083e-22
-1.54268e-22
-3.2659e-23
-4.67868e-24
-5.66505e-25
-5.97288e-26
-3.96932e-27
-1.50743e-28
-3.00722e-30
-2.56318e-32
-5.69339e-35
3.69494e-54
7.56881e-54
3.90391e-53
1.10033e-52
2.44582e-52
5.24917e-52
1.09306e-51
2.40152e-51
5.52226e-51
1.12566e-50
2.33415e-50
4.92629e-50
8.31028e-50
1.01561e-49
8.48671e-50
4.28261e-50
1.2358e-50
2.26196e-51
2.47968e-52
1.55047e-53
5.60954e-55
1.27653e-56
1.64625e-58
7.88975e-61
4.49318e-63
1.14571e-65
2.585e-68
5.03244e-71
8.57106e-74
1.2532e-76
)
;
    }
    rightWall
    {
        type            alphaContactAngle;
        contactAngleProperties 
        {
            air             
            {
                theta0          90;
            }
            water           
            {
                theta0          90;
            }
            oil             
            {
                theta0          90;
            }
        }
        value           nonuniform List<scalar> 
50
(
0.2001
0.204394
0.25017
0.428193
0.670416
0.66223
0.645946
0.448557
0.327968
0.425356
0.3752
0.0634816
0.039658
0.00385492
8.42481e-09
5.90095e-09
1.00356e-08
5.38917e-09
4.21586e-10
3.09697e-10
2.87012e-10
2.22129e-10
1.08969e-10
3.31567e-11
4.18039e-12
5.01217e-13
5.17936e-14
3.35896e-15
8.02512e-16
1.69569e-16
5.07651e-17
1.38528e-17
6.10009e-18
5.12041e-18
5.20584e-18
6.11055e-18
7.97859e-18
5.54988e-18
6.04718e-18
4.57544e-18
3.56193e-18
2.47947e-18
1.23251e-18
5.42602e-19
2.60707e-19
1.07604e-19
5.95403e-20
2.40251e-20
7.28354e-21
1.38561e-21
)
;
    }
    lowerWall
    {
        type            alphaContactAngle;
        contactAngleProperties 
        {
            air             
            {
                theta0          90;
            }
            water           
            {
                theta0          90;
            }
            oil             
            {
                theta0          90;
            }
        }
        value           nonuniform List<scalar> 
62
(
1
1
1
1
1
1
1
1
1
1
1
1
1
1
1
1
1
1
1
1
1
0.999739
0.999431
0.999431
0.999431
0.999601
1
1
0.999999
0.999974
0.999972
0.640702
0.642335
0.652791
0.645929
2.41452e-08
1.21185e-08
1.21883e-08
3.11319e-09
3.11272e-09
0.118557
0.726724
0.718183
2.41452e-08
0.0044253
0.0103921
0.065517
0.103253
0.168991
0.200976
0.188621
0.148159
0.0819451
0.0314223
0.0153024
0.0140461
0.0269647
0.0309778
0.0377823
0.0424281
0.109851
0.2001
)
;
    }
    atmosphere
    {
        type            inletOutlet;
        inletValue      uniform 0;
        value           nonuniform List<scalar> 
46
(
1.2532e-76
0
0
0
0
0
0
0
0
0
0
0
6.71817e-50
5.88517e-47
2.31378e-44
4.76797e-42
5.7535e-40
4.40017e-38
2.26665e-36
8.24837e-35
2.21186e-33
4.53209e-32
7.54641e-31
1.09614e-29
6.24762e-29
3.32586e-28
1.58473e-27
7.2833e-27
5.84064e-26
3.88059e-25
2.15109e-24
9.98084e-24
4.07266e-23
1.4839e-22
4.69561e-22
1.30527e-21
3.1734e-21
6.57222e-21
0
0
0
0
0
0
0
0
)
;
    }
    defaultFaces
    {
        type            empty;
    }
}


// ************************************************************************* //
