/*--------------------------------*- C++ -*----------------------------------*\
  =========                 |
  \\      /  F ield         | OpenFOAM: The Open Source CFD Toolbox
   \\    /   O peration     | Website:  https://openfoam.org
    \\  /    A nd           | Version:  13
     \\/     M anipulation  |
\*---------------------------------------------------------------------------*/
FoamFile
{
    format      ascii;
    class       volScalarField;
    location    "0.65";
    object      alpha.oil;
}
// * * * * * * * * * * * * * * * * * * * * * * * * * * * * * * * * * * * * * //

dimensions      [];

internalField   nonuniform List<scalar> 
2268
(
3.71518e-40
2.24121e-38
1.40618e-37
4.42028e-37
1.24133e-36
4.56941e-36
8.98426e-36
2.09146e-35
-9.84966e-33
-7.37051e-29
2.37114e-26
7.18765e-21
7.42537e-19
2.11532e-17
5.22583e-16
8.71105e-15
1.87581e-13
5.67453e-12
9.14442e-11
7.38751e-10
3.67853e-10
0.000261016
0.000569264
1.33357e-41
8.98036e-37
4.44667e-36
8.86886e-36
2.31945e-35
5.99106e-35
1.73983e-34
5.70974e-34
-5.4003e-32
-1.22364e-27
2.15745e-27
1.61893e-21
4.09618e-18
1.3117e-16
2.927e-15
5.29831e-14
6.96671e-13
5.7193e-12
5.04952e-11
3.08017e-10
3.14109e-10
0.000160977
0.000569156
6.14003e-36
1.53935e-35
7.4911e-35
2.81267e-34
6.46168e-34
1.3914e-33
3.58784e-33
1.24523e-32
8.27277e-38
-1.14295e-26
-6.31792e-26
1.00451e-23
2.05592e-19
1.48653e-16
1.55948e-14
1.46442e-13
1.12815e-12
9.22096e-12
9.60522e-11
7.10721e-10
3.67853e-10
7.672e-05
0.000399057
3.44999e-33
3.50228e-33
2.40872e-32
1.33387e-31
4.18353e-31
1.24948e-30
2.4685e-30
1.13889e-30
1.88997e-30
-2.74408e-26
2.63197e-22
3.77381e-20
1.21977e-18
2.32294e-16
2.76487e-15
6.44717e-14
2.04347e-12
2.04179e-11
1.71469e-10
1.7354e-10
1.36117e-06
2.47894e-06
3.42081e-09
6.83405e-32
8.23658e-32
7.96479e-31
5.68637e-30
2.35944e-29
9.3255e-29
2.30856e-28
2.28536e-28
-8.20461e-28
-4.07894e-25
2.48724e-25
1.33875e-21
1.02216e-19
1.24341e-16
2.07879e-13
1.27576e-11
1.01621e-10
5.35139e-10
1.4346e-09
1.9412e-09
2.66382e-09
2.55142e-09
5.41291e-08
2.21232e-31
3.88679e-31
4.33809e-30
3.35197e-29
1.60503e-28
7.25115e-28
1.71904e-27
2.95163e-27
-2.32251e-26
-1.99935e-24
4.20827e-27
5.70935e-22
1.48702e-17
9.56903e-14
3.58793e-12
3.72392e-11
2.58595e-10
1.45381e-09
2.62862e-09
3.13872e-09
9.68495e-09
1.5868e-07
1.47085e-06
6.75037e-31
2.17365e-30
2.51732e-29
1.89871e-28
1.01392e-27
5.17555e-27
1.18476e-26
1.99524e-26
-3.03076e-25
-7.58982e-24
3.85986e-26
4.12428e-21
7.98087e-17
4.45423e-13
1.19754e-11
7.83761e-11
3.36555e-10
2.30378e-09
7.80027e-09
3.78003e-08
2.30502e-08
5.85547e-07
2.56691e-05
2.19429e-30
1.45599e-29
1.62923e-28
1.27216e-27
7.15925e-27
3.29954e-26
8.78318e-26
1.04768e-25
-2.29226e-24
-2.07872e-23
1.39535e-22
2.39562e-19
4.91523e-17
1.48491e-14
4.63597e-12
2.09735e-10
1.26477e-09
1.03125e-07
1.08718e-06
4.89886e-06
2.58798e-06
1.91935e-08
2.78372e-05
0.907323
0.818311
0.817542
0.847262
0.833992
0.798796
0.775112
0.766122
0.640513
0.60366
0.659427
0.669855
0.357075
0.278419
0.274423
0.291547
0.291789
0.132681
0.0420406
0.943097
0.883927
0.944865
0.928161
0.509711
0.245628
0.124955
0.125297
0.165189
0.271451
0.287759
0.42025
0.461889
0.454662
0.389708
0.217441
0.142516
0.0689364
0.0377374
0.9835
0.98848
0.987434
0.562034
0.0687096
0.000905196
0.00113024
0.00180401
0.00204279
0.0095968
0.378255
0.52366
0.521422
0.516916
0.367427
0.168465
0.0379452
0.0374206
0.0375679
0.999849
0.999658
0.802321
0.200503
0.00578044
0.00073974
0.00567203
0.0107733
0.0056479
0.00269095
0.006706
0.0707931
0.104522
0.058307
0.0197914
0.136986
0.171674
0.128261
0.0555263
0.99985
0.768842
0.21414
0.00338878
0.000322213
0.000452368
0.00529889
0.012948
0.014115
0.00656862
0.00143664
0.000460635
0.000496882
0.000521181
0.00054441
0.236052
0.459937
0.311623
0.0686324
0.86561
0.2327
0.00582325
0.000322112
0.000312782
0.000334241
0.000393821
0.00131109
0.00390513
0.00269831
0.00098214
0.000462106
0.000458134
0.000536881
0.00343941
0.650185
0.978379
0.506233
0.0782411
5.93852e-05
0.000312527
0.00033498
0.000415387
0.000323144
0.000313878
0.000376023
0.000409827
0.000443323
0.000458969
0.000458441
0.000454929
0.000461706
0.00046346
0.320068
0.943854
0.999833
0.970222
0.218439
9.23043e-06
0.00192645
0.00143589
0.00046302
0.000367814
0.000406132
0.000382365
0.000418741
0.0130234
0.0155869
0.0121316
0.0146408
0.0966551
0.535733
0.968843
0.999919
0.999951
0.998386
0.551441
7.83445e-30
7.625e-29
9.11818e-28
7.34654e-27
4.54715e-26
1.77469e-25
5.24756e-25
3.71531e-25
-5.0573e-24
8.14059e-24
1.59614e-19
6.40463e-17
2.17701e-15
2.47209e-14
2.28215e-12
6.34239e-11
1.87598e-10
8.40659e-15
3.31212e-06
8.86877e-06
6.53099e-06
2.0063e-08
2.49094e-05
7.63279e-29
1.36721e-27
1.46689e-26
1.04767e-25
5.68908e-25
2.31021e-24
6.78976e-24
1.4347e-23
1.62884e-23
2.60162e-19
4.92578e-16
3.40301e-14
1.71458e-13
1.66076e-13
5.64706e-13
7.39649e-12
1.52164e-11
8.01133e-15
2.91727e-07
5.04202e-06
2.51315e-06
9.30689e-07
2.12842e-06
4.85177e-28
1.24484e-26
2.84462e-25
1.37534e-23
5.49743e-22
2.54929e-20
1.08205e-18
2.77328e-17
4.77521e-16
4.88662e-15
3.27456e-14
1.0516e-12
5.62201e-12
3.37219e-12
2.22853e-12
4.26055e-12
8.20409e-12
-4.5118e-14
9.46936e-08
6.77226e-09
8.02296e-10
9.74342e-07
3.28839e-06
4.14138e-27
3.52672e-26
1.1133e-24
1.84768e-23
1.61751e-22
7.99431e-22
9.08159e-21
4.74841e-17
1.92357e-14
2.61668e-13
2.64903e-12
2.43213e-11
2.01499e-10
1.20634e-10
7.36809e-11
4.36144e-11
1.72732e-11
6.6144e-12
9.13456e-12
7.09456e-12
1.01002e-08
8.16399e-06
3.86097e-05
2.18307e-26
2.13937e-25
7.6688e-24
1.29853e-22
1.39697e-21
9.66061e-21
4.37575e-20
4.02752e-19
1.56877e-16
4.45889e-15
1.56928e-13
7.07592e-11
1.45524e-09
2.02301e-09
4.20425e-11
3.9938e-11
7.75247e-08
2.20119e-07
4.30052e-13
2.47338e-06
3.47283e-05
9.8441e-05
0.000112884
9.01883e-26
3.98865e-24
8.42555e-23
1.31533e-21
1.08027e-20
6.25469e-20
2.54497e-19
8.87775e-19
2.49033e-18
4.12578e-18
1.13381e-18
-9.12346e-31
2.02714e-10
5.18867e-09
9.19395e-08
1.40929e-08
2.76123e-06
7.21768e-06
5.45963e-06
2.65712e-05
0.000112398
0.000112884
0.00011223
1.50405e-25
1.28923e-24
2.37008e-23
2.7869e-22
2.10323e-21
1.30725e-20
8.68808e-20
5.41779e-19
2.60252e-18
8.22125e-18
9.64657e-18
-2.46397e-17
4.14299e-10
7.49003e-09
2.83183e-07
1.35034e-06
5.89611e-06
1.1946e-05
1.61329e-05
3.18767e-05
3.17847e-05
7.51441e-05
6.01337e-05
3.03212e-25
2.08137e-24
2.15393e-23
2.13261e-22
1.77834e-21
1.31749e-20
8.74972e-20
4.69411e-19
2.17598e-18
8.96387e-18
3.30467e-17
1.32224e-17
8.54433e-11
6.74984e-10
8.10262e-10
7.39012e-07
2.46649e-06
3.08992e-06
2.51577e-06
1.21053e-09
1.32339e-09
2.34342e-10
2.77058e-10
6.20888e-25
6.45588e-24
6.00127e-23
4.86839e-22
3.6836e-21
2.65179e-20
1.47703e-19
7.34793e-19
3.25993e-18
1.32067e-17
4.76115e-17
1.72328e-17
1.14105e-10
2.20484e-09
5.66854e-09
6.65155e-09
1.4132e-08
1.51611e-08
7.51149e-09
1.7791e-09
1.10659e-09
2.43315e-10
2.8835e-10
1.08708e-24
1.55079e-23
1.62082e-22
1.31213e-21
8.93847e-21
5.36754e-20
2.87852e-19
1.3736e-18
5.90596e-18
2.27475e-17
8.07764e-17
2.85987e-17
4.61909e-12
3.05234e-10
7.01547e-09
2.35019e-08
3.59867e-08
3.46061e-08
2.21427e-08
9.69262e-09
2.03923e-09
4.94491e-10
4.85032e-10
1.62375e-24
2.97942e-23
3.27997e-22
2.62225e-21
1.77705e-20
1.04457e-19
5.39473e-19
2.49947e-18
1.04289e-17
3.8868e-17
1.33331e-16
1.12694e-16
2.93836e-11
2.7567e-10
5.12679e-09
1.54805e-08
2.74933e-08
2.70335e-08
1.81296e-08
7.89086e-09
2.60629e-09
7.09873e-10
4.64493e-10
2.08719e-24
4.34386e-23
4.995e-22
4.21439e-21
2.91476e-20
1.71025e-19
8.75682e-19
3.99781e-18
1.62939e-17
6.00497e-17
1.95585e-16
3.31089e-16
7.33938e-11
3.62792e-10
6.41398e-10
1.90032e-09
4.43328e-09
4.83232e-09
3.88172e-09
2.80174e-09
1.5348e-09
6.71057e-10
2.32626e-10
2.35643e-24
5.19676e-23
6.33391e-22
5.5413e-21
3.89971e-20
2.2967e-19
1.17375e-18
5.33122e-18
2.11728e-17
8.10132e-17
2.60297e-16
7.91459e-16
1.08228e-15
3.21166e-11
4.41374e-11
2.31386e-12
-5.58704e-14
-3.98895e-13
9.47933e-11
3.01698e-10
3.28742e-10
1.90036e-10
1.16982e-10
2.35527e-24
5.35325e-23
6.78328e-22
6.09941e-21
4.35906e-20
2.57495e-19
1.31483e-18
5.93548e-18
2.41207e-17
8.47757e-17
2.79284e-16
8.68813e-16
2.25366e-15
9.01408e-16
-5.5868e-14
-2.95919e-13
-8.2925e-13
-1.65068e-12
-2.61458e-12
-2.38652e-12
7.38689e-12
2.41532e-11
3.54506e-11
2.09183e-24
4.81977e-23
6.24708e-22
5.71169e-21
4.11954e-20
2.43692e-19
1.24278e-18
5.65179e-18
2.23063e-17
7.79701e-17
2.62592e-16
7.83773e-16
2.15233e-15
3.90517e-15
-2.11263e-14
-1.17141e-13
-2.99106e-13
-5.22426e-13
-6.80495e-13
-6.70333e-13
-1.03752e-13
2.7573e-12
1.35449e-11
1.64343e-24
3.8075e-23
4.97406e-22
4.58767e-21
3.31494e-20
1.95736e-19
9.9031e-19
4.55127e-18
1.76599e-17
6.26322e-17
2.04579e-16
6.07344e-16
1.67878e-15
3.61857e-15
-2.27863e-15
-2.37681e-14
-5.13327e-14
-4.97658e-14
1.49516e-14
2.48906e-13
7.33813e-13
2.54113e-12
8.62442e-12
1.13919e-24
2.63313e-23
3.44225e-22
3.17965e-21
2.28476e-20
1.34095e-19
6.80814e-19
3.03951e-18
1.18173e-17
4.14724e-17
1.35931e-16
3.9896e-16
1.10736e-15
2.5149e-15
3.62029e-15
5.93655e-15
1.66208e-14
5.79235e-14
1.75031e-13
4.2671e-13
9.51968e-13
2.20513e-12
6.16036e-12
7.1035e-25
1.58426e-23
2.06265e-22
1.88339e-21
1.34007e-20
7.8186e-20
3.95862e-19
1.71603e-18
6.75287e-18
2.38061e-17
7.47146e-17
2.2485e-16
6.15902e-16
1.44656e-15
3.24138e-15
9.21666e-15
2.52772e-14
6.36726e-14
1.60324e-13
3.90057e-13
8.6147e-13
1.93711e-12
4.52976e-12
3.8371e-25
8.31513e-24
1.06173e-22
9.50748e-22
6.69255e-21
3.9088e-20
1.94177e-19
8.40042e-19
3.26267e-18
1.13014e-17
3.58749e-17
1.08642e-16
3.07255e-16
8.17553e-16
2.51854e-15
7.23003e-15
1.98658e-14
5.31222e-14
1.44558e-13
3.56582e-13
8.08714e-13
1.6922e-12
3.62949e-12
1.86834e-25
3.83706e-24
4.73663e-23
4.1618e-22
2.88387e-21
1.67797e-20
8.16528e-20
3.52272e-19
1.3509e-18
4.77363e-18
1.565e-17
5.08535e-17
1.641e-16
5.36403e-16
1.78034e-15
5.65525e-15
1.71894e-14
4.90022e-14
1.33098e-13
3.24107e-13
7.1437e-13
1.50445e-12
2.88011e-12
7.54106e-26
1.60551e-24
1.90585e-23
1.63192e-22
1.08708e-21
6.1397e-21
2.98236e-20
1.30994e-19
5.214e-19
1.99039e-18
7.42811e-18
2.86252e-17
1.10043e-16
4.17951e-16
1.52646e-15
5.11971e-15
1.59475e-14
4.57979e-14
1.2148e-13
2.81824e-13
6.10218e-13
1.18563e-12
2.32115e-12
2.44021e-26
5.26096e-25
6.45484e-24
5.63653e-23
3.8476e-22
2.18905e-21
1.1151e-20
5.29691e-20
2.40308e-19
1.07356e-18
4.8971e-18
2.24142e-17
9.631e-17
3.92353e-16
1.465e-15
4.92376e-15
1.50676e-14
4.08219e-14
1.00964e-13
2.25633e-13
4.52486e-13
9.4157e-13
1.73971e-12
5.27603e-27
1.2246e-25
1.60729e-24
1.51375e-23
1.13949e-22
7.51378e-22
4.59169e-21
2.66652e-20
1.48688e-19
8.00644e-19
4.1319e-18
2.00323e-17
8.73861e-17
3.52094e-16
1.26927e-15
4.1067e-15
1.19535e-14
3.05419e-14
7.33396e-14
1.59675e-13
3.33599e-13
6.60838e-13
1.44647e-12
8.15681e-28
2.17015e-26
3.33316e-25
3.78089e-24
3.54797e-23
2.94983e-22
2.22466e-21
1.53879e-20
9.80501e-20
5.76195e-19
3.1042e-18
1.51764e-17
6.56906e-17
2.55864e-16
9.02822e-16
2.84601e-15
8.02403e-15
1.99293e-14
4.77023e-14
1.06122e-13
2.2245e-13
5.36144e-13
1.30023e-12
1.18871e-28
4.06267e-27
7.84836e-26
1.12346e-24
1.31478e-23
1.29563e-22
1.11249e-21
8.44496e-21
5.72602e-20
3.49668e-19
1.92316e-18
9.41659e-18
4.0484e-17
1.55722e-16
5.41226e-16
1.6743e-15
4.69973e-15
1.14203e-14
2.85064e-14
6.78776e-14
1.60907e-13
4.21101e-13
1.3451e-12
2.00624e-29
8.80052e-28
2.13353e-26
3.61313e-25
4.80021e-24
5.23113e-23
4.86407e-22
3.92403e-21
2.78118e-20
1.74309e-19
9.67609e-19
4.75145e-18
2.05923e-17
7.95671e-17
2.74051e-16
8.71314e-16
2.45746e-15
6.05873e-15
1.53389e-14
4.19165e-14
1.13156e-13
3.65923e-13
1.24444e-12
3.56893e-30
1.87431e-28
5.19603e-27
9.9034e-26
1.43222e-24
1.70979e-23
1.69606e-22
1.44199e-21
1.06575e-20
6.88822e-20
3.90804e-19
1.96445e-18
8.6785e-18
3.41993e-17
1.20617e-16
3.83176e-16
1.10404e-15
2.82551e-15
8.26403e-15
2.42121e-14
7.49775e-14
2.90216e-13
1.11948e-12
5.17067e-31
3.19105e-29
1.00226e-27
2.1208e-26
3.38248e-25
4.32974e-24
4.59064e-23
4.15116e-22
3.23994e-21
2.19463e-20
1.29578e-19
6.72377e-19
3.08105e-18
1.25459e-17
4.5629e-17
1.50173e-16
4.58576e-16
1.27269e-15
3.66733e-15
1.41192e-14
4.90511e-14
2.07037e-13
8.35022e-13
5.80305e-32
4.06895e-30
1.43046e-28
3.33641e-27
5.80052e-26
7.93239e-25
9.14826e-24
8.858e-23
7.38478e-22
5.33926e-21
3.35759e-20
1.84536e-19
8.96231e-19
3.86059e-18
1.48866e-17
5.20373e-17
1.63084e-16
4.94437e-16
1.45709e-15
6.18944e-15
2.59895e-14
1.26608e-13
5.52691e-13
4.57335e-33
3.66791e-31
1.45566e-29
3.80873e-28
7.39877e-27
1.137e-25
1.43701e-24
1.52331e-23
1.37779e-22
1.07066e-21
7.19871e-21
4.22463e-20
2.18379e-19
1.00025e-18
3.9992e-18
1.54618e-17
5.30842e-17
1.74672e-16
5.96252e-16
2.96362e-15
1.47419e-14
7.8522e-14
3.6048e-13
2.75303e-34
2.56439e-32
1.16252e-30
3.43098e-29
7.43418e-28
1.26188e-26
1.72872e-25
2.01967e-24
1.98198e-23
1.67235e-22
1.22214e-21
7.79395e-21
4.36315e-20
2.09613e-19
9.79108e-19
3.95222e-18
1.49384e-17
5.38361e-17
2.04392e-16
1.07586e-15
5.79807e-15
3.30503e-14
1.65731e-13
1.08394e-35
1.19681e-33
6.32308e-32
2.15026e-30
5.31739e-29
1.02174e-27
1.58915e-26
2.03507e-25
2.24129e-24
2.08322e-23
1.64922e-22
1.09258e-21
7.39436e-21
3.96973e-20
1.94337e-19
8.77946e-19
3.73731e-18
1.52347e-17
6.42e-17
3.49887e-16
1.90438e-15
1.27402e-14
6.38534e-14
2.84676e-37
3.77693e-35
2.35843e-33
9.38324e-32
2.69084e-30
5.94263e-29
1.05285e-27
1.53804e-26
1.88847e-25
1.97514e-24
1.77596e-23
1.38269e-22
9.39799e-22
5.64772e-21
3.05986e-20
1.53499e-19
7.39356e-19
3.60417e-18
1.88567e-17
1.08313e-16
6.50483e-16
3.77396e-15
2.23582e-14
5.03442e-39
8.15707e-37
6.07128e-35
2.85853e-33
9.65537e-32
2.50087e-30
5.17111e-29
8.76401e-28
1.24022e-26
1.48616e-25
1.41592e-24
1.36464e-23
1.04837e-22
7.16038e-22
4.38605e-21
2.47552e-20
1.3366e-19
7.19891e-19
4.00229e-18
2.38646e-17
1.60459e-16
1.13817e-15
6.60138e-15
5.4725e-41
1.07263e-38
9.61446e-37
5.44258e-35
2.20926e-33
6.86948e-32
1.70209e-30
3.44746e-29
5.80695e-28
8.2338e-27
9.91869e-26
1.02301e-24
9.10105e-24
7.04258e-23
4.52649e-22
2.99872e-21
1.75657e-20
9.89629e-20
6.97421e-19
4.86626e-18
3.57545e-17
2.48417e-16
1.80805e-15
2.63303e-43
7.22129e-41
9.9214e-39
6.80637e-37
3.37498e-35
1.28444e-33
3.89095e-32
9.61152e-31
1.96774e-29
3.37178e-28
4.87461e-27
6.00249e-26
6.34114e-25
5.79933e-24
4.65923e-23
3.37071e-22
2.28435e-21
1.5306e-20
1.05934e-19
7.59996e-19
6.05951e-18
5.58254e-17
3.8524e-16
1.65856e-45
4.26249e-43
5.40064e-41
4.50546e-39
2.76534e-37
1.31406e-35
4.97256e-34
1.5259e-32
3.84681e-31
8.04732e-30
1.40871e-28
2.08051e-27
2.61737e-26
2.84095e-25
2.70791e-24
2.32227e-23
1.85393e-22
1.44504e-21
1.1721e-20
1.06371e-19
1.09804e-18
1.06874e-17
9.3478e-17
4.41992e-48
1.09455e-45
1.68583e-43
1.66706e-41
1.27258e-39
7.71093e-38
3.75744e-36
1.48858e-34
4.85078e-33
1.31375e-31
2.98498e-30
5.73306e-29
9.36032e-28
1.30511e-26
1.5644e-25
1.63741e-24
1.54557e-23
1.40687e-22
1.31566e-21
1.29091e-20
1.4266e-19
1.53305e-18
1.44765e-17
1.06203e-50
1.05918e-48
1.47657e-46
1.70015e-44
1.65561e-42
1.34772e-40
9.06509e-39
5.0243e-37
2.30411e-35
8.80324e-34
2.81921e-32
7.58987e-31
1.71669e-29
3.25571e-28
5.17751e-27
6.97722e-26
8.36782e-25
9.40604e-24
1.08074e-22
1.4077e-21
2.0533e-20
2.62003e-19
2.52379e-18
2.46527e-53
2.65605e-52
3.43831e-50
4.52982e-48
5.81572e-46
6.75085e-44
6.70185e-42
5.54264e-40
3.79534e-38
2.16105e-36
1.03074e-34
4.13862e-33
1.39787e-31
3.95861e-30
9.46029e-29
1.97808e-27
3.58597e-26
5.96904e-25
8.27407e-24
1.69771e-22
2.79304e-21
4.03301e-20
4.814e-19
5.2356e-56
1.58775e-57
1.84703e-55
2.91708e-53
5.531e-51
1.06723e-48
1.85929e-46
2.75978e-44
3.43669e-42
3.61643e-40
3.2707e-38
2.5799e-36
1.76485e-34
1.09706e-32
6.93024e-31
3.1881e-29
1.13142e-27
3.30561e-26
8.24078e-25
1.63248e-23
2.8295e-22
4.84253e-21
9.64723e-20
1.06199e-58
1.7289e-67
2.58221e-65
7.6204e-63
3.4741e-60
1.88354e-57
9.94379e-55
4.62333e-52
1.85878e-49
6.85665e-47
2.78362e-44
1.65359e-41
1.70555e-38
2.21251e-35
5.17532e-33
6.38967e-31
4.95305e-29
2.58968e-27
9.71696e-26
2.75412e-24
6.12159e-23
1.09826e-21
1.67556e-20
5.54192e-05
5.46532e-05
1.60305e-05
9.21718e-06
5.06763e-06
4.16898e-06
5.63206e-06
1.51736e-05
3.72174e-06
4.33443e-06
3.59659e-06
1.226e-05
5.75502e-05
5.34108e-05
3.27211e-05
9.03683e-06
0.00011292
0.000112884
0.000112822
1.7651e-05
0.000108982
0.000101698
8.27931e-05
5.6703e-05
2.43242e-05
6.82255e-06
6.12746e-06
7.5776e-06
1.90111e-09
4.1765e-09
5.96358e-07
4.77784e-06
1.26856e-09
7.85791e-09
4.09353e-08
2.49146e-07
1.71752e-09
8.51567e-09
1.05106e-08
1.17464e-08
1.70049e-09
3.77352e-09
8.39041e-09
7.57522e-09
5.51842e-10
1.91781e-09
3.7739e-09
5.70623e-09
1.68976e-10
6.16928e-10
1.94177e-09
3.75256e-09
6.79437e-11
2.75911e-10
9.15436e-10
2.25503e-09
3.4435e-11
1.09436e-10
4.16989e-10
1.221e-09
1.94031e-11
5.54117e-11
1.68696e-10
5.63277e-10
1.20773e-11
2.40259e-11
7.05112e-11
2.15848e-10
7.8601e-12
1.42607e-11
2.58272e-11
8.21844e-11
5.76561e-12
8.3254e-12
1.43728e-11
2.93767e-11
4.59877e-12
6.41037e-12
8.94731e-12
1.51416e-11
3.71468e-12
4.89514e-12
7.19267e-12
1.01823e-11
3.152e-12
4.5965e-12
6.82952e-12
1.02437e-11
3.09265e-12
4.78201e-12
8.43035e-12
1.28403e-11
3.40352e-12
6.11525e-12
1.07223e-11
1.82366e-11
3.84102e-12
7.36389e-12
1.54587e-11
2.5353e-11
4.2806e-12
8.93877e-12
1.80511e-11
3.17911e-11
3.70656e-12
8.87442e-12
1.87965e-11
3.33072e-11
3.25956e-12
7.48728e-12
1.68747e-11
3.11647e-11
2.10775e-12
6.07295e-12
1.27472e-11
2.5252e-11
1.59187e-12
3.80774e-12
8.74658e-12
1.83283e-11
7.73911e-13
1.99704e-12
5.21947e-12
1.08144e-11
3.67017e-13
9.71159e-13
2.60462e-12
6.20851e-12
1.24015e-13
4.05539e-13
1.16148e-12
2.92926e-12
4.53266e-14
1.49223e-13
4.68186e-13
1.23195e-12
1.32862e-14
4.83904e-14
1.50073e-13
4.62262e-13
3.35707e-15
1.26843e-14
4.83798e-14
1.47727e-13
7.76321e-16
3.32625e-15
1.27974e-14
4.57862e-14
1.52522e-16
7.76744e-16
3.22785e-15
1.23232e-14
3.29414e-17
1.61916e-16
7.38252e-16
3.11773e-15
6.06887e-18
3.37428e-17
1.64008e-16
7.22012e-16
1.13882e-18
6.2178e-18
2.86574e-17
1.33246e-16
2.30604e-19
1.28543e-18
6.80234e-18
3.27109e-17
6.9521e-06
0.00152931
0.00196506
0.00057341
0.00686234
0.0553141
0.165372
0.34385
0.53232
0.549671
0.52791
0.630518
0.903609
0.998831
0.999771
0.99939
0.999897
0.990636
0.672029
7.02939e-06
-1.30741e-06
3.91256e-05
0.144383
0.446025
0.705976
0.914444
0.998317
0.999081
0.999666
0.99988
0.999949
0.999997
0.999995
0.992483
0.908684
0.629651
0.342475
0.370172
1.21696e-06
3.32021e-24
0.0253473
0.412058
0.846784
0.94489
0.996733
0.997741
0.996438
0.999879
0.999998
1
1
1
0.93182
0.830133
0.60814
0.24854
0.0464089
1.12558e-06
9.48177e-07
0.0649322
0.352955
0.501265
0.555546
0.689929
0.856249
0.983793
0.999998
0.999999
1
1
0.999284
0.97809
0.970061
0.956537
0.447491
0.0433525
1.0654e-06
0.00384519
0.0122114
1.75185e-06
0.015614
0.0629308
0.190608
0.776277
1
1
1
1
0.999996
0.99996
1
1
0.999992
0.924729
0.0555399
0.000174405
1.11096e-06
1.05308e-19
1.35887e-08
1.70256e-07
1.20427e-06
0.367964
1
1
1
1
1
1
1
1
1
0.999998
0.909105
0.0916697
1.60141e-05
6.99299e-07
1.23364e-10
3.27957e-08
1.00723e-06
0.0114372
0.661862
1
1
1
1
1
1
1
1
1
0.997023
0.910122
0.32072
1.13033e-05
8.33983e-07
6.99689e-13
1.53237e-07
1.19455e-06
0.0168118
0.699445
1
1
1
0.999999
0.999999
1
0.999999
0.999999
1
0.99454
0.963252
0.964702
9.56336e-07
9.74677e-07
-1.74207e-12
8.18472e-08
6.64965e-07
0.00302765
0.58992
1
1
1
1
0.999999
1
1
0.999999
1
0.999679
0.996259
0.983873
1.93475e-08
2.70373e-07
2.25108e-11
2.53056e-08
8.11974e-08
8.40925e-07
0.447441
1
1
1
1
1
1
1
1
1
1
0.999998
0.995556
1.81479e-09
-2.31918e-10
1.05892e-10
3.83507e-10
4.51457e-10
6.92355e-07
0.327355
1
1
1
0.999969
0.999937
0.999976
1
1
1
1
1
1
4.92279e-09
2.98139e-09
1.20903e-09
1.96686e-10
2.96967e-24
7.17991e-07
0.240177
0.993184
1
1
0.999917
0.999857
0.999862
0.999995
1
1
1
1
1
5.25942e-09
6.88485e-09
5.51226e-09
2.69809e-09
-2.25461e-11
3.53294e-07
0.135072
0.893179
1
1
0.999967
0.999856
0.999858
0.999925
1
1
1
1
1
4.24932e-09
8.67703e-09
1.30339e-08
7.94004e-09
4.16675e-09
7.75354e-10
0.0116686
0.541601
1
1
1
0.999986
0.999946
0.99999
1
0.999999
1
1
1
2.84181e-09
7.80183e-09
1.50078e-08
1.65923e-08
8.2279e-09
1.3243e-08
5.80663e-07
0.085708
0.722301
1
1
1
1
1
0.999997
0.999997
0.999999
0.999998
0.999996
1.54349e-09
5.55139e-09
1.387e-08
2.62059e-08
2.19917e-08
1.96247e-08
1.80233e-08
1.02632e-06
0.0981352
0.695747
0.992182
1
1
1
1
1
0.999999
0.999991
0.99999
7.46619e-10
3.32083e-09
1.00983e-08
2.3232e-08
3.95628e-08
4.0793e-08
2.62934e-07
4.34272e-07
7.99716e-07
0.00390464
0.408005
0.805946
0.972256
1
1
1
1
1
0.998251
2.81431e-10
1.67775e-09
6.31601e-09
1.49489e-08
3.34991e-08
6.32577e-08
2.77648e-07
4.13178e-06
2.83686e-06
4.2907e-07
5.0575e-08
0.039625
0.32401
0.534287
0.637714
0.64248
0.614156
0.591057
0.470406
1.12183e-10
7.3278e-10
3.35205e-09
9.23461e-09
2.59398e-08
5.52546e-08
1.33099e-07
5.09629e-06
7.63505e-06
4.14894e-06
4.41364e-07
4.27645e-08
1.56991e-08
3.22995e-08
1.92773e-08
3.87308e-08
3.72846e-08
0.00548048
0.154324
4.51776e-11
2.81488e-10
1.52358e-09
5.38004e-09
1.16834e-08
2.66793e-08
1.35915e-07
8.90291e-07
7.60029e-06
7.77744e-06
2.58275e-06
1.13571e-07
5.14417e-08
1.39534e-07
3.87112e-08
1.92774e-08
3.87112e-08
0.0329703
0.888007
2.16851e-11
1.02001e-10
6.05953e-10
2.56948e-09
6.40316e-09
1.01877e-08
6.57381e-08
2.69952e-07
2.08722e-06
7.65407e-06
3.97744e-06
4.80402e-07
1.09315e-07
1.03349e-06
7.63068e-06
3.4228e-05
1.95397e-07
0.00370407
0.884235
1.69351e-11
4.60414e-11
2.24871e-10
1.0568e-09
3.12813e-09
6.67417e-09
2.33335e-08
1.10371e-07
5.84282e-07
2.36535e-06
1.44427e-06
3.27e-07
6.71177e-08
4.05172e-07
1.10447e-05
0.000110277
9.47277e-05
0.000110414
0.876312
2.03942e-11
3.92908e-11
1.04003e-10
4.16673e-10
1.30497e-09
3.28482e-09
1.3245e-08
2.38797e-08
1.42981e-07
4.32382e-07
3.43003e-07
1.22931e-07
6.26853e-08
3.91352e-08
4.37571e-07
1.23885e-05
5.12886e-06
0.00902526
0.882135
2.91585e-11
5.2491e-11
9.34979e-11
2.13453e-10
5.73963e-10
1.43354e-09
5.31798e-09
1.73772e-08
4.94437e-08
9.38336e-08
8.46601e-08
5.26722e-08
4.10509e-08
3.00785e-08
1.18751e-08
1.32284e-08
3.76693e-06
0.151042
0.753078
4.15453e-11
8.05554e-11
1.29427e-10
2.06156e-10
3.69158e-10
7.57907e-10
2.085e-09
6.45685e-09
2.2454e-08
2.42593e-08
2.64586e-08
2.38525e-08
2.53323e-08
2.7415e-08
1.89894e-08
1.32467e-08
0.00557006
0.206161
0.0156021
5.31285e-11
1.1082e-10
1.95566e-10
2.96952e-10
4.14056e-10
6.2598e-10
1.06365e-09
2.45598e-09
6.47259e-09
7.22487e-09
1.31773e-08
1.61152e-08
2.19938e-08
2.44306e-08
1.994e-08
1.33751e-08
0.0200025
0.115758
2.11561e-06
5.89752e-11
1.35529e-10
2.5843e-10
4.21876e-10
6.07626e-10
7.96953e-10
1.03259e-09
1.72346e-09
3.24929e-09
5.63383e-09
8.98469e-09
1.30449e-08
1.83101e-08
1.9833e-08
1.87872e-08
1.36152e-08
0.0185889
2.11561e-06
2.30857e-06
5.68479e-11
1.45253e-10
3.0227e-10
5.44785e-10
8.41083e-10
1.14073e-09
1.40621e-09
1.85967e-09
3.00661e-09
4.60048e-09
6.5543e-09
1.01515e-08
1.56226e-08
1.8123e-08
1.42629e-08
1.2935e-08
0.00691572
0.000157068
1.17745e-05
4.78056e-11
1.35092e-10
3.10065e-10
6.18997e-10
1.05679e-09
1.55437e-09
2.02791e-09
2.49008e-09
3.36017e-09
4.37025e-09
5.70287e-09
8.89701e-09
1.31877e-08
1.56115e-08
1.49704e-08
1.29952e-08
1.22687e-08
0.000109947
2.37666e-05
3.45205e-11
1.04216e-10
2.76251e-10
6.11919e-10
1.16674e-09
1.91147e-09
2.74029e-09
3.52623e-09
4.38461e-09
5.15555e-09
6.24972e-09
8.7683e-09
1.19373e-08
1.40356e-08
1.29825e-08
1.22981e-08
1.24487e-08
2.77548e-05
6.93805e-06
2.18418e-11
7.25741e-11
2.08099e-10
5.11501e-10
1.09666e-09
2.03545e-09
3.29971e-09
4.64853e-09
5.91963e-09
6.93422e-09
8.0061e-09
9.81286e-09
1.17436e-08
1.29954e-08
1.26252e-08
1.23688e-08
5.29814e-08
5.23138e-08
1.90181e-07
1.28836e-11
4.47643e-11
1.36182e-10
3.66533e-10
8.72623e-10
1.82612e-09
3.37289e-09
5.36553e-09
7.53759e-09
9.31098e-09
1.12311e-08
1.18562e-08
1.19447e-08
1.24373e-08
1.2376e-08
1.21388e-08
9.72924e-08
8.64194e-07
3.7478e-07
6.71904e-12
2.46722e-11
7.97944e-11
2.31243e-10
5.97399e-10
1.39417e-09
2.88429e-09
5.29091e-09
8.57756e-09
1.24598e-08
1.5094e-08
1.52737e-08
1.42621e-08
1.32417e-08
1.25306e-08
1.75911e-08
3.94239e-07
2.52642e-06
1.12066e-06
3.02232e-12
1.21035e-11
4.22613e-11
1.30301e-10
3.61606e-10
9.20075e-10
2.10367e-09
4.43854e-09
8.46723e-09
1.41096e-08
2.17027e-08
2.65558e-08
3.29707e-08
3.55884e-08
3.09989e-08
2.10308e-08
1.59534e-06
3.22219e-06
1.6218e-06
1.21677e-12
5.35992e-12
2.05424e-11
6.89027e-11
1.97565e-10
5.33967e-10
1.32641e-09
3.13472e-09
6.79816e-09
1.31391e-08
2.39519e-08
4.92818e-08
7.17636e-08
9.79158e-08
8.72493e-08
4.2657e-08
2.03533e-06
3.29305e-06
5.38807e-07
4.44293e-13
2.18101e-12
9.29021e-12
3.34654e-11
1.0708e-10
3.05585e-10
8.02067e-10
2.02785e-09
5.04833e-09
9.68886e-09
2.16848e-08
5.74111e-08
1.13412e-07
1.40096e-07
1.17856e-07
9.62706e-08
3.64027e-07
6.29624e-07
1.03535e-07
1.46141e-13
7.99242e-13
3.71054e-12
1.5097e-11
5.2407e-11
1.63368e-10
4.57368e-10
1.20624e-09
3.18316e-09
7.22052e-09
1.32656e-08
3.88945e-08
9.42239e-08
1.18334e-07
1.34236e-07
2.57406e-07
9.20321e-08
1.38998e-08
4.66709e-09
4.44769e-14
2.69442e-13
1.39902e-12
6.19313e-12
2.35612e-11
7.95056e-11
2.4835e-10
6.77668e-10
1.82128e-09
4.57058e-09
9.04726e-09
2.09676e-08
5.01326e-08
6.21472e-08
8.50149e-08
1.81416e-07
6.55607e-08
2.78266e-08
2.21037e-09
1.08715e-14
8.02603e-14
4.52e-13
2.1889e-12
9.23495e-12
3.4561e-11
1.13385e-10
3.27077e-10
8.90593e-10
2.34006e-09
4.90573e-09
8.60668e-09
1.83513e-08
2.80301e-08
4.76129e-08
3.69219e-08
2.01393e-08
2.69411e-09
1.18426e-09
3.01726e-15
2.11408e-14
1.27235e-13
6.72614e-13
3.13914e-12
1.22942e-11
4.33844e-11
1.40493e-10
4.01903e-10
1.05517e-09
2.45345e-09
4.52353e-09
7.65183e-09
1.34217e-08
2.12092e-08
9.69695e-09
3.31303e-09
1.72821e-09
4.53107e-10
7.44838e-16
5.2961e-15
3.44865e-14
1.95342e-13
9.35237e-13
4.02052e-12
1.5196e-11
5.00653e-11
1.50476e-10
3.9525e-10
9.1826e-10
1.8253e-09
3.18148e-09
4.96312e-09
5.79148e-09
1.69768e-09
1.11137e-09
5.25604e-10
1.09471e-10
1.53438e-16
1.26964e-15
8.776e-15
5.09931e-14
2.50487e-13
1.09371e-12
4.29934e-12
1.47799e-11
4.49093e-11
1.2023e-10
2.7754e-10
5.47279e-10
8.7753e-10
1.15937e-09
1.05119e-09
3.96136e-10
3.2487e-10
1.07372e-10
1.9032e-11
)
;

boundaryField
{
    leftWall
    {
        type            alphaContactAngle;
        contactAngleProperties 
        {
            mercury         
            {
                theta0          90;
            }
            air             
            {
                theta0          90;
            }
            water           
            {
                theta0          90;
            }
        }
        value           nonuniform List<scalar> 
50
(
3.71518e-40
1.33357e-41
6.14003e-36
3.44999e-33
6.83405e-32
2.21232e-31
6.75037e-31
2.19429e-30
7.83445e-30
7.63279e-29
4.85177e-28
4.14138e-27
2.18307e-26
9.01883e-26
1.50405e-25
3.03212e-25
6.20888e-25
1.08708e-24
1.62375e-24
2.08719e-24
2.35643e-24
2.35527e-24
2.09183e-24
1.64343e-24
1.13919e-24
7.1035e-25
3.8371e-25
1.86834e-25
7.54106e-26
2.44021e-26
5.27603e-27
8.15681e-28
1.18871e-28
2.00624e-29
3.56893e-30
5.17067e-31
5.80305e-32
4.57335e-33
2.75303e-34
1.08394e-35
2.84676e-37
5.03442e-39
5.4725e-41
2.63303e-43
1.65856e-45
4.41992e-48
1.06203e-50
2.46527e-53
5.2356e-56
1.06199e-58
)
;
    }
    rightWall
    {
        type            alphaContactAngle;
        contactAngleProperties 
        {
            mercury         
            {
                theta0          90;
            }
            air             
            {
                theta0          90;
            }
            water           
            {
                theta0          90;
            }
        }
        value           nonuniform List<scalar> 
50
(
0.0420406
0.0377374
0.0375679
0.0555263
0.0686324
0.0782411
0.218439
0.551441
0.672029
0.370172
0.0464089
0.0433525
0.0555399
0.0916697
0.32072
0.964702
0.983873
0.995556
1
1
1
1
0.999996
0.99999
0.998251
0.470406
0.154324
0.888007
0.884235
0.876312
0.882135
0.753078
0.0156021
2.11561e-06
2.30857e-06
1.17745e-05
2.37666e-05
6.93805e-06
1.90181e-07
3.7478e-07
1.12066e-06
1.6218e-06
5.38807e-07
1.03535e-07
4.66709e-09
2.21037e-09
1.18426e-09
4.53107e-10
1.09471e-10
1.9032e-11
)
;
    }
    lowerWall
    {
        type            alphaContactAngle;
        contactAngleProperties 
        {
            mercury         
            {
                theta0          90;
            }
            air             
            {
                theta0          90;
            }
            water           
            {
                theta0          90;
            }
        }
        value           nonuniform List<scalar> 
62
(
3.71518e-40
2.24121e-38
1.40618e-37
4.42028e-37
1.24133e-36
4.56941e-36
8.98426e-36
2.09146e-35
-9.84966e-33
-7.37051e-29
2.37114e-26
7.18765e-21
7.42537e-19
2.11532e-17
5.22583e-16
8.71105e-15
1.87581e-13
5.67453e-12
9.14442e-11
7.38751e-10
3.67853e-10
0.000261016
0.000569264
0.000569264
0.000569156
0.000399057
3.42081e-09
5.41291e-08
1.47085e-06
2.56691e-05
2.78372e-05
5.54192e-05
5.46532e-05
1.60305e-05
9.21718e-06
0.907323
0.943097
0.9835
0.999849
0.99985
0.86561
5.93852e-05
9.23043e-06
0.907323
0.818311
0.817542
0.847262
0.833992
0.798796
0.775112
0.766122
0.640513
0.60366
0.659427
0.669855
0.357075
0.278419
0.274423
0.291547
0.291789
0.132681
0.0420406
)
;
    }
    atmosphere
    {
        type            inletOutlet;
        inletValue      uniform 0;
        value           nonuniform List<scalar> 
46
(
1.06199e-58
0
0
0
0
0
0
0
0
0
0
0
1.70555e-38
2.21251e-35
5.17532e-33
6.38967e-31
4.95305e-29
2.58968e-27
9.71696e-26
2.75412e-24
6.12159e-23
1.09826e-21
1.67556e-20
2.30604e-19
1.28543e-18
6.80233e-18
3.27109e-17
1.53438e-16
1.26964e-15
8.776e-15
5.09931e-14
2.50487e-13
1.09371e-12
4.29934e-12
1.47799e-11
4.49092e-11
1.20229e-10
2.7754e-10
0
0
0
0
0
0
0
0
)
;
    }
    defaultFaces
    {
        type            empty;
    }
}


// ************************************************************************* //
