/*--------------------------------*- C++ -*----------------------------------*\
  =========                 |
  \\      /  F ield         | OpenFOAM: The Open Source CFD Toolbox
   \\    /   O peration     | Website:  https://openfoam.org
    \\  /    A nd           | Version:  13
     \\/     M anipulation  |
\*---------------------------------------------------------------------------*/
FoamFile
{
    format      ascii;
    class       volScalarField;
    location    "0.65";
    object      alpha.air;
}
// * * * * * * * * * * * * * * * * * * * * * * * * * * * * * * * * * * * * * //

dimensions      [];

internalField   nonuniform List<scalar> 
2268
(
4.99054e-16
1.01419e-14
1.32181e-14
9.28903e-15
5.68374e-15
3.48659e-15
2.01266e-15
9.97543e-16
4.25056e-16
1.69298e-16
7.49973e-17
2.03355e-17
5.4564e-18
1.34962e-18
7.1007e-19
7.38611e-19
9.76129e-19
1.37299e-18
1.73725e-18
2.04303e-18
1.33074e-18
3.11651e-19
2.06883e-19
2.47403e-17
2.08322e-13
2.10091e-13
1.13403e-13
7.58742e-14
4.54623e-14
3.16404e-14
1.96324e-14
1.02081e-14
4.30699e-15
1.75634e-15
7.09088e-16
2.58658e-16
4.7173e-17
6.9226e-18
6.79424e-18
9.50147e-18
1.28491e-17
1.55272e-17
1.67182e-17
7.23179e-18
1.53743e-18
1.57506e-18
7.24119e-13
2.39038e-12
2.29225e-12
1.71478e-12
1.11978e-12
6.54805e-13
3.87495e-13
2.59133e-13
1.35373e-13
5.30932e-14
1.80229e-14
7.27508e-15
3.41512e-15
1.07203e-15
2.34025e-16
5.73278e-17
5.66863e-17
6.66316e-17
8.11534e-17
8.75267e-17
3.43027e-17
2.56361e-17
9.65112e-16
6.47707e-11
6.23625e-11
5.42082e-11
4.34272e-11
3.23365e-11
2.15477e-11
1.19449e-11
4.90054e-12
1.85511e-12
8.00674e-13
2.77999e-13
8.11306e-14
1.84386e-14
9.07509e-15
1.80805e-15
4.76699e-16
2.50997e-16
3.08277e-16
3.92333e-16
3.53209e-16
2.19609e-16
9.42325e-16
2.31769e-14
3.12994e-10
2.57746e-10
2.30166e-10
2.12685e-10
1.9146e-10
1.62766e-10
1.25142e-10
7.89999e-11
4.01505e-11
1.80987e-11
8.07378e-12
2.76222e-12
9.57052e-13
2.69663e-13
5.6212e-14
1.18443e-14
2.34313e-15
1.42534e-15
1.76099e-15
2.66272e-15
2.67575e-15
2.86185e-14
4.01251e-13
4.45172e-10
3.75889e-10
3.55811e-10
3.48625e-10
3.35731e-10
3.14313e-10
2.82107e-10
2.36874e-10
1.74117e-10
1.04862e-10
5.31809e-11
2.30187e-11
8.32778e-12
3.42773e-12
7.99914e-13
1.72576e-13
3.68685e-14
1.16402e-14
8.40201e-15
1.09531e-14
1.27868e-14
3.03952e-13
5.56364e-12
5.45518e-10
4.91754e-10
4.78906e-10
4.91667e-10
4.86715e-10
4.64934e-10
4.27582e-10
3.75286e-10
3.11493e-10
2.3182e-10
1.49673e-10
7.75331e-11
3.58692e-11
1.31773e-11
4.86524e-12
1.63044e-12
3.19385e-13
8.53279e-14
3.33822e-14
2.80557e-14
2.01456e-14
1.57248e-12
9.32645e-11
6.10102e-10
5.8889e-10
5.86546e-10
6.4543e-10
6.7583e-10
6.55565e-10
6.24383e-10
5.51613e-10
4.537e-10
3.56219e-10
2.62905e-10
1.76697e-10
9.60374e-11
4.46287e-11
1.66229e-11
5.64232e-12
1.95532e-12
5.24998e-13
2.83981e-15
2.72547e-15
2.84036e-15
8.34801e-14
2.72068e-10
0.092677
0.177263
0.172065
0.0872204
0.0627544
0.0322127
0.0239114
0.0452573
0.211249
0.31429
0.308996
0.314636
0.62871
0.694491
0.694557
0.670651
0.665782
0.757468
0.75786
0.0569027
0.11606
0.0500071
4.82482e-06
-1.80621e-05
1.36506e-05
1.62399e-05
3.80156e-05
5.76905e-06
0.0853724
0.51237
0.539731
0.524166
0.49793
0.434076
0.59982
0.732463
0.75779
0.757868
0.0164997
0.0115197
0.000545099
0.000846365
0.000789987
0.000647026
0.00064055
0.00110771
0.00194753
0.00178257
0.0140176
0.0943604
0.129632
0.0640453
0.0205772
0.141012
0.348538
0.395269
0.712262
0.000150798
0.000150718
0.000446655
0.000891806
0.000776451
0.000356306
7.48768e-07
0.000345202
0.00771689
0.0133546
0.0136753
0.00339011
5.18773e-08
-1.91467e-19
0.00013976
0.00861835
0.119747
0.175913
0.516281
0.000150013
0.000439306
0.000860487
0.000803552
6.61605e-05
5.52886e-12
5.37305e-11
-9.87168e-13
0.000384063
0.00836965
0.0173816
0.0172963
0.0071295
-1.9874e-08
3.94485e-05
5.10035e-09
3.92087e-12
-3.5629e-18
0.260951
0.000310393
0.000597562
0.000491503
5.38563e-12
4.66478e-12
4.69487e-09
8.7343e-25
2.24228e-10
4.99776e-10
1.64088e-09
0.000736784
0.00285568
0.00339187
0.00163187
0.000467733
5.09937e-07
1.80746e-12
-2.66205e-07
0.259528
0.000485957
0.000545317
5.24368e-05
1.58351e-08
1.9776e-08
1.13196e-08
6.37967e-08
7.93108e-07
9.49134e-06
1.05645e-05
1.41203e-07
1.02534e-07
0.000138285
0.000140323
5.82862e-05
6.09753e-06
4.42299e-08
-7.21663e-07
0.135614
3.16237e-07
1.77144e-05
2.59389e-05
2.94108e-06
3.27112e-08
3.26245e-09
2.37957e-07
3.48036e-05
0.000264561
0.000290096
0.000151452
2.02248e-05
2.09139e-06
4.00014e-08
1.4187e-06
2.2305e-06
4.46814e-10
-1.19612e-06
-6.15239e-14
6.28215e-10
6.21724e-10
6.30129e-10
7.12946e-10
7.60113e-10
7.6571e-10
8.13963e-10
8.02712e-10
6.99059e-10
5.38259e-10
4.1202e-10
3.18733e-10
2.26667e-10
1.50032e-10
7.655e-11
3.91875e-11
2.35932e-11
2.0119e-11
2.29711e-11
2.42028e-11
3.50031e-11
5.26997e-10
4.82954e-10
6.17853e-10
6.1981e-10
6.23198e-10
6.56481e-10
7.18692e-10
8.12108e-10
1.08374e-09
1.2972e-09
1.40853e-09
1.3989e-09
9.92235e-10
5.99687e-10
4.55959e-10
3.3869e-10
2.5523e-10
2.1149e-10
1.69587e-10
1.56181e-10
1.74025e-10
2.21421e-10
2.49661e-10
2.04365e-09
1.12163e-09
6.15401e-10
6.15192e-10
6.15213e-10
6.15404e-10
6.1591e-10
6.16749e-10
6.20201e-10
6.34719e-10
1.44722e-09
4.82221e-09
4.3475e-09
2.24047e-09
8.45063e-10
5.73665e-10
5.55803e-10
4.99074e-10
1.67946e-09
2.55974e-09
2.69605e-09
3.05763e-09
2.48683e-09
1.68092e-09
1.54875e-09
0.190785
0.222154
0.219767
0.187161
0.13709
0.0812592
0.0332926
0.00523595
3.15756e-09
1.26662e-09
7.15701e-10
6.57436e-10
6.09255e-10
5.91775e-10
9.47102e-08
1.04871e-07
1.11436e-07
1.11168e-07
1.66162e-07
8.01794e-08
4.56217e-08
5.14826e-19
0.000615016
0.887306
0.911231
0.915875
0.898051
0.862298
0.804233
0.712319
0.570023
0.383301
0.216164
0.105293
0.0372087
0.00979069
0.00411931
0.000919329
0.000391283
0.00194564
0.00521286
0.0138568
0.0401526
0.104892
0.230442
0.452841
0.999999
0.999999
1
1
1
1
1
0.999905
0.999598
0.978962
0.898198
0.794954
0.68833
0.566894
0.47739
0.455559
0.500058
0.550956
0.616761
0.717681
0.842596
0.964504
0.999888
1
1
1
1
1
1
1
1
1
1
1
1
1
1
1
0.999999
0.999994
0.999988
0.999984
0.999968
0.999968
0.999925
0.99994
1
1
1
1
1
1
1
1
1
1
1
1
1
1
1
0.999999
0.999998
0.999997
0.999997
1
1
1
1
1
1
1
1
1
1
1
1
1
1
1
1
1
1
1
1
1
1
1
1
1
1
1
1
1
1
1
1
1
1
1
1
1
1
1
1
1
1
1
1
1
1
1
1
1
1
1
1
1
1
1
1
1
1
1
1
1
1
1
1
1
1
1
1
1
1
1
1
1
1
1
1
1
1
1
1
1
1
1
1
1
1
1
1
1
1
1
1
1
1
1
1
1
1
1
1
1
1
1
1
1
1
1
1
1
1
1
1
1
1
1
1
1
1
1
1
1
1
1
1
1
1
1
1
1
1
1
1
1
1
1
1
1
1
1
1
1
1
1
1
1
1
1
1
1
1
1
1
1
1
1
1
1
1
1
1
1
1
1
1
1
1
1
1
1
1
1
1
1
1
1
1
1
1
1
1
1
1
1
1
1
1
1
1
1
1
1
1
1
1
1
1
1
1
1
1
1
1
1
1
1
1
1
1
1
1
1
1
1
1
1
1
1
1
1
1
1
1
1
1
1
1
1
1
1
1
1
1
1
1
1
1
1
1
1
1
1
1
1
1
1
1
1
1
1
1
1
1
1
1
1
1
1
1
1
1
1
1
1
1
1
1
1
1
1
1
1
1
1
1
1
1
1
1
1
1
1
1
1
1
1
1
1
1
1
1
1
1
1
1
1
1
1
1
1
1
1
1
1
1
1
1
1
1
1
1
1
1
1
1
1
1
1
1
1
1
1
1
1
1
1
1
1
1
1
1
1
1
1
1
1
1
1
1
1
1
1
1
1
1
1
1
1
1
1
1
1
1
1
1
1
1
1
1
1
1
1
1
1
1
1
1
1
1
1
1
1
1
1
1
1
1
1
1
1
1
1
1
1
1
1
1
1
1
1
1
1
1
1
1
1
1
1
1
1
1
1
1
1
1
1
1
1
1
1
1
1
1
1
1
1
1
1
1
1
1
1
1
1
1
1
1
1
1
1
1
1
1
1
1
1
1
1
1
1
1
1
1
1
1
1
1
1
1
1
1
1
1
1
1
1
1
1
1
1
1
1
1
1
1
1
1
1
1
1
1
1
1
1
1
1
1
1
1
1
1
1
1
1
1
1
1
1
1
1
1
1
1
1
1
1
1
1
1
1
1
1
1
1
1
1
1
1
1
1
1
1
1
1
1
1
1
1
1
1
1
1
1
1
1
1
1
1
1
1
1
1
1
1
1
1
1
1
1
1
1
1
1
1
1
1
1
1
1
1
1
1
1
1
1
1
1
1
1
1
1
1
1
1
1
1
1
1
1
1
1
1
1
1
1
1
1
1
1
1
1
1
1
1
1
1
1
1
1
1
1
1
1
1
1
1
1
1
1
1
1
1
1
1
1
1
1
1
1
1
1
1
1
1
1
1
1
1
1
1
1
1
1
1
1
1
1
1
1
1
1
1
1
1
1
1
1
1
1
1
1
1
1
1
1
1
1
1
1
1
1
1
1
1
1
1
1
1
1
1
1
1
1
1
1
1
1
1
1
1
1
1
1
1
1
1
1
1
1
1
1
1
1
1
1
1
1
1
1
1
1
1
1
1
1
1
1
1
1
1
1
1
1
1
1
1
1
1
1
1
1
1
1
1
1
1
1
1
1
1
1
1
1
1
1
1
1
1
1
1
1
1
1
1
1
1
1
1
1
1
1
1
1
1
1
1
1
1
1
1
1
1
1
1
1
1
1
1
1
1
1
1
1
1
1
1
1
1
1
1
1
1
1
1
1
1
1
1
1
1
1
1
1
1
1
1
1
4.6849e-10
1.46226e-06
3.22909e-06
1.88825e-06
6.41465e-08
1.08581e-05
1.59428e-05
1.29632e-05
3.3777e-07
9.98067e-07
9.82454e-07
8.72489e-07
0.0171585
0.0498592
0.118008
0.173749
0.616435
0.733267
0.858325
0.946297
0.999891
0.999898
0.999917
0.999943
0.999976
0.999993
0.999994
0.999992
1
1
0.999999
0.999995
1
1
1
1
1
1
1
1
1
1
1
1
1
1
1
1
1
1
1
1
1
1
1
1
1
1
1
1
1
1
1
1
1
1
1
1
1
1
1
1
1
1
1
1
1
1
1
1
1
1
1
1
1
1
1
1
1
1
1
1
1
1
1
1
1
1
1
1
1
1
1
1
1
1
1
1
1
1
1
1
1
1
1
1
1
1
1
1
1
1
1
1
1
1
1
1
1
1
1
1
1
1
1
1
1
1
1
1
1
1
1
1
1
1
1
1
1
1
1
1
1
1
1
1
1
1
1
1
1
1
1
1
1
1
1
1
6.89729e-07
0.000225428
9.47125e-05
1.71984e-06
-1.89426e-10
-4.14228e-12
0.0014598
0.00114295
0.000874673
0.000801396
0.000334233
1.14732e-07
7.21461e-12
1.36007e-11
6.37024e-12
4.60487e-11
5.87701e-07
-8.54909e-07
2.67189e-07
2.62942e-05
0.000127247
0.000876092
0.000900173
0.0142951
0.0237791
0.00855422
0.00168315
0.000918848
0.000333309
0.000119561
5.09414e-05
2.68913e-06
3.11889e-11
0.00710021
0.090113
0.370308
0.634209
0.204469
1.9999e-05
0.222571
0.348465
0.302004
0.153216
0.0551099
0.00326645
0.00225874
0.00356185
0.000119733
5.39133e-13
8.19907e-09
6.56504e-08
1.36007e-11
0.0679923
0.168652
0.391803
0.739513
0.57839
0.407661
0.896991
0.914929
0.647045
0.498735
0.444454
0.310071
0.143751
0.0162054
5.39133e-13
5.74e-10
1.94637e-08
2.03675e-08
0.000714966
0.0219067
0.0298192
0.0433108
0.551863
0.893166
0.999802
0.996155
0.987789
0.999998
0.984385
0.937068
0.809391
0.223723
8.34439e-11
4.94169e-10
6.09619e-09
6.33972e-09
4.1464e-06
3.99365e-05
1.15591e-08
1.21299e-08
9.69108e-09
0.0752714
0.904802
0.999826
0.999999
0.999999
0.999998
0.999998
0.999998
0.632036
2.17424e-07
6.25712e-09
8.34989e-11
3.51418e-10
1.372e-08
2.87771e-08
1.15579e-08
1.14841e-08
1.0086e-08
1.27361e-08
0.0908629
0.904475
0.999984
0.999999
0.999997
0.999996
0.999998
0.988563
0.338138
1.1641e-07
2.14017e-08
5.52734e-08
2.55012e-07
2.38183e-07
8.43027e-08
2.04207e-07
2.36018e-07
9.3135e-09
0.00297549
0.0898701
0.67928
0.999989
0.999996
0.999995
0.999996
0.999998
0.983188
0.300555
2.00835e-07
1.84825e-08
1.43807e-07
5.44943e-07
5.70275e-07
3.55995e-07
7.02245e-07
7.71078e-07
1.92578e-07
0.00546029
0.0367476
0.0352984
0.999998
0.999995
0.999995
0.999996
0.999999
0.996972
0.41008
2.31365e-07
2.86878e-08
4.96907e-08
2.27602e-07
5.18361e-07
1.67611e-07
1.28215e-07
8.27729e-07
2.11504e-07
0.000320506
0.00374133
0.0161273
1
0.999995
0.999995
0.999996
1
0.999999
0.552559
2.87888e-07
3.58528e-08
2.82419e-07
2.7449e-07
4.64679e-08
4.23871e-08
3.81066e-08
1.34401e-07
4.21659e-07
5.80254e-08
1.8141e-06
0.00444411
1
0.999999
0.999996
0.999998
1
0.999999
0.672645
3.79363e-07
5.73492e-08
1.48929e-07
3.14118e-05
6.28586e-05
2.44715e-05
2.80773e-08
2.79686e-08
4.78386e-08
8.12523e-08
1.40796e-08
1.36316e-07
1
1
1
1
1
0.999999
0.759823
0.00681592
6.63284e-08
5.99367e-08
8.30893e-05
0.000143318
0.000138128
5.35369e-06
2.81844e-08
2.8675e-08
2.98335e-08
1.43917e-08
1.68052e-08
1
1
1
1
1
1
0.864928
0.106821
1.03881e-07
5.05381e-08
3.34985e-05
0.000143984
0.000142352
7.46435e-05
3.4341e-08
6.14559e-08
2.53004e-08
1.35276e-08
9.60073e-09
1
1
1
1
1
1
0.988331
0.458399
2.6797e-07
6.0205e-08
8.85209e-08
1.37766e-05
5.35584e-05
1.00471e-05
1.91092e-07
8.39286e-07
1.80552e-07
1.46144e-07
1.55079e-07
1
1
1
1
1
1
0.999999
0.914292
0.277699
1.2241e-07
1.07051e-07
5.48427e-08
7.5566e-08
3.20882e-07
3.1255e-06
3.35585e-06
1.24066e-06
2.0021e-06
4.39673e-06
1
1
1
1
1
1
1
0.999999
0.901865
0.304253
0.00781753
1.49195e-07
2.73762e-07
6.45144e-08
1.71592e-07
4.7399e-07
1.26962e-06
8.56028e-06
9.64183e-06
1
1
1
1
1
1
1
1
0.999999
0.996095
0.591995
0.194054
0.0277439
5.09774e-08
9.44552e-08
8.38508e-08
5.26241e-08
5.90153e-08
0.00174933
1
1
1
1
1
1
1
0.999996
0.999997
1
1
0.960375
0.67599
0.465713
0.362286
0.35752
0.385844
0.408943
0.529594
1
1
1
1
1
1
1
0.999995
0.999992
0.999996
1
1
1
1
1
1
1
0.99452
0.845676
1
1
1
1
1
1
1
0.999999
0.999992
0.999992
0.999997
1
1
1
1
1
1
0.96703
0.111993
1
1
1
1
1
1
1
1
0.999998
0.999992
0.999996
1
1
0.999999
0.999992
0.999966
1
0.996296
0.115765
1
1
1
1
1
1
1
1
0.999999
0.999998
0.999999
1
1
1
0.999989
0.99989
0.999905
0.99989
0.123688
1
1
1
1
1
1
1
1
1
1
1
1
1
1
1
0.999988
0.999995
0.990975
0.117865
1
1
1
1
1
1
1
1
1
1
1
1
1
1
1
1
0.999996
0.848958
0.246922
1
1
1
1
1
1
1
1
1
1
1
1
1
1
1
1
0.99443
0.793839
0.984398
1
1
1
1
1
1
1
1
1
1
1
1
1
1
1
1
0.979998
0.884242
0.999998
1
1
1
1
1
1
1
1
1
1
1
1
1
1
1
1
0.981411
0.999998
0.999998
1
1
1
1
1
1
1
1
1
1
1
1
1
1
1
1
0.993084
0.999843
0.999988
1
1
1
1
1
1
1
1
1
1
1
1
1
1
1
1
1
0.99989
0.999976
1
1
1
1
1
1
1
1
1
1
1
1
1
1
1
1
1
0.999972
0.999993
1
1
1
1
1
1
1
1
1
1
1
1
1
1
1
1
1
1
1
1
1
1
1
1
1
1
1
1
1
1
1
1
1
1
1
1
0.999999
1
1
1
1
1
1
1
1
1
1
1
1
1
1
1
1
1
1
0.999997
0.999999
1
1
1
1
1
1
1
1
1
1
1
1
1
1
1
1
0.999998
0.999997
0.999998
1
1
1
1
1
1
1
1
1
1
1
1
1
1
1
1
0.999998
0.999997
0.999999
1
1
1
1
1
1
1
1
1
1
1
1
1
1
1
1
1
0.999999
1
1
1
1
1
1
1
1
1
1
1
1
1
1
1
1
1
1
1
1
1
1
1
1
1
1
1
1
1
1
1
1
1
1
1
1
1
1
1
1
1
1
1
1
1
1
1
1
1
1
1
1
1
1
1
1
1
1
1
1
1
1
1
1
1
1
1
1
1
1
1
1
1
1
1
1
1
1
1
1
1
1
1
1
1
1
1
1
1
1
1
1
1
1
1
1
1
1
1
1
1
1
1
1
1
1
1
1
1
1
1
1
1
1
1
)
;

boundaryField
{
    leftWall
    {
        type            alphaContactAngle;
        contactAngleProperties 
        {
            mercury         
            {
                theta0          90;
            }
            water           
            {
                theta0          90;
            }
            oil             
            {
                theta0          90;
            }
        }
        value           nonuniform List<scalar> 
50
(
4.99054e-16
2.47403e-17
7.24119e-13
6.47707e-11
3.12994e-10
4.45172e-10
5.45518e-10
6.10102e-10
6.28215e-10
6.17853e-10
6.15401e-10
0.190785
0.887306
0.999999
1
1
1
1
1
1
1
1
1
1
1
1
1
1
1
1
1
1
1
1
1
1
1
1
1
1
1
1
1
1
1
1
1
1
1
1
)
;
    }
    rightWall
    {
        type            alphaContactAngle;
        contactAngleProperties 
        {
            mercury         
            {
                theta0          90;
            }
            water           
            {
                theta0          90;
            }
            oil             
            {
                theta0          90;
            }
        }
        value           nonuniform List<scalar> 
50
(
0.75786
0.757868
0.712262
0.516281
0.260951
0.259528
0.135614
-6.15239e-14
2.67189e-07
0.204469
0.57839
0.893166
0.904802
0.904475
0.67928
0.0352984
0.0161273
0.00444411
1.36316e-07
1.68052e-08
9.60073e-09
1.55079e-07
4.39673e-06
9.64183e-06
0.00174933
0.529594
0.845676
0.111993
0.115765
0.123688
0.117865
0.246922
0.984398
0.999998
0.999998
0.999988
0.999976
0.999993
1
1
0.999999
0.999998
0.999999
1
1
1
1
1
1
1
)
;
    }
    lowerWall
    {
        type            alphaContactAngle;
        contactAngleProperties 
        {
            mercury         
            {
                theta0          90;
            }
            water           
            {
                theta0          90;
            }
            oil             
            {
                theta0          90;
            }
        }
        value           nonuniform List<scalar> 
62
(
4.99054e-16
1.01419e-14
1.32181e-14
9.28903e-15
5.68374e-15
3.48659e-15
2.01266e-15
9.97543e-16
4.25056e-16
1.69298e-16
7.49973e-17
2.03355e-17
5.4564e-18
1.34962e-18
7.1007e-19
7.38611e-19
9.76129e-19
1.37299e-18
1.73725e-18
2.04303e-18
1.33074e-18
3.11651e-19
2.06883e-19
2.06883e-19
1.57506e-18
9.65112e-16
2.31769e-14
4.01251e-13
5.56364e-12
9.32645e-11
2.72068e-10
4.6849e-10
1.46226e-06
3.22909e-06
1.88825e-06
0.092677
0.0569027
0.0164997
0.000150798
0.000150013
0.000310393
0.000485957
3.16237e-07
0.092677
0.177263
0.172065
0.0872204
0.0627544
0.0322127
0.0239114
0.0452573
0.211249
0.31429
0.308996
0.314636
0.62871
0.694491
0.694557
0.670651
0.665782
0.757468
0.75786
)
;
    }
    atmosphere
    {
        type            inletOutlet;
        inletValue      uniform 1;
        value           nonuniform List<scalar> 
46
(
1
1
1
1
1
1
1
1
1
1
1
1
1
1
1
1
1
1
1
1
1
1
1
1
0.999999
1
1
1
1
1
1
1
1
1
1
1
1
1
1
1
1
1
1
1
1
1
)
;
    }
    defaultFaces
    {
        type            empty;
    }
}


// ************************************************************************* //
