/*--------------------------------*- C++ -*----------------------------------*\
  =========                 |
  \\      /  F ield         | OpenFOAM: The Open Source CFD Toolbox
   \\    /   O peration     | Website:  https://openfoam.org
    \\  /    A nd           | Version:  13
     \\/     M anipulation  |
\*---------------------------------------------------------------------------*/
FoamFile
{
    format      ascii;
    class       volScalarField;
    location    "0.65";
    object      alphas;
}
// * * * * * * * * * * * * * * * * * * * * * * * * * * * * * * * * * * * * * //

dimensions      [];

internalField   nonuniform List<scalar> 
2268
(
2
2
2
2
2
2
2
2
2
2
2
2
2
2
2
2
2
2
2
2
2
1.99974
1.99943
2
2
2
2
2
2
2
2
2
2
2
2
2
2
2
2
2
2
2
2
2
1.99984
1.99943
2
2
2
2
2
2
2
2
2
2
2
2
2
2
2
2
2
2
2
2
2
1.99992
1.9996
1.68372
1.67085
1.70144
1.76656
1.84384
1.91802
1.97931
2
2
2
2
2
2
2
2
2
2
2
2
2
2
2
2
0.144901
0.19154
0.232878
0.301372
0.409899
0.57358
0.819166
1.18017
1.57647
1.88558
2
2
2
2
2
2
2
2
2
2
2
2
2
1.33552e-09
1.12767e-09
1.06743e-09
1.04587e-09
1.00719e-09
3.59703e-08
0.000206034
0.0179218
0.142921
0.503417
1.19371
1.80567
2
2
2
2
2
2
2
2
2
2
2
1.63655e-09
1.47526e-09
1.43672e-09
1.475e-09
1.46015e-09
1.47626e-09
4.03874e-08
2.10729e-08
9.34478e-10
6.95735e-10
0.0274566
0.389414
1.25744
1.91451
2
2
2
2
2
2
2
2
1.99997
1.83031e-09
1.76667e-09
1.75964e-09
1.93629e-09
2.02749e-09
1.96669e-09
2.02142e-09
1.65627e-09
1.37973e-09
1.07294e-09
7.90305e-10
5.34211e-10
0.0357155
0.539708
1.48261
1.96847
2
1.99827
2
2
2
2
1.99997
1.18535
1.35895
1.35452
1.23996
1.22876
1.23342
1.2488
1.27913
1.57058
1.71042
1.64926
1.64437
2.2713
2.41582
2.42005
2.37906
2.37399
2.62479
2.71582
1.11381
1.23213
1.10514
1.07184
1.49027
1.73723
1.84077
1.83266
1.79715
1.79955
2.21956
2.11912
2.06224
2.04324
2.04434
2.38237
2.58994
2.68884
2.72013
1.033
1.02304
1.01311
1.43881
1.88138
1.81548
1.79588
1.77839
1.79029
1.80727
1.53955
1.52374
1.56581
1.50615
1.62581
1.95405
2.30119
2.35785
2.67469
1.0003
1.00049
1.19813
1.65414
1.48453
1.12016
0.665242
0.496366
0.588137
1.04479
1.43814
1.48297
1.43149
1.39759
1.40623
1.55834
1.91694
2.04765
2.46075
1.0003
1.2316
1.51382
1.06665
0.344488
0.000448672
0.0052913
0.0129464
0.0152672
0.0316775
0.128299
0.31915
0.320174
0.267647
0.350622
0.923979
1.53447
1.68838
2.19232
1.10365
1.52837
1.29665
0.295463
0.000491247
0.000504805
0.000437318
0.00131388
0.0039058
0.00269832
0.00319249
0.00902916
0.0106234
0.0133098
0.0236969
0.666321
1.02162
1.49376
2.18129
1.45496
1.32686
0.408996
0.000388696
0.000514105
0.000482842
0.000464606
0.000422347
0.000475463
0.000490662
0.000536928
0.00216609
0.0027638
0.00296308
0.320244
0.943872
0.999831
1.02977
1.91717
1.43638
0.302029
0.00151371
0.000471824
0.000380668
0.000407385
0.0003831
0.000523152
0.0138171
0.0164572
0.0125859
0.0147015
0.0967364
0.535734
0.968848
0.999925
0.999969
1.00161
1.44856
1.88465e-09
1.86517e-09
1.89039e-09
2.13884e-09
2.28034e-09
2.29713e-09
2.44189e-09
2.40827e-09
2.09986e-09
1.61932e-09
1.23771e-09
9.64425e-10
6.88384e-10
1.65129e-08
0.0518861
0.313733
0.735041
1.12795
1.38334
1.50806
1.41855
1.29798
1.1444
1.85356e-09
1.85943e-09
1.86959e-09
1.96944e-09
2.15608e-09
2.43632e-09
3.25121e-09
3.89159e-09
4.22561e-09
4.19693e-09
2.9781e-09
1.82096e-09
1.46008e-09
1.13959e-09
4.69098e-08
6.30722e-08
5.27543e-10
4.68551e-10
2.92249e-07
5.04269e-06
2.51378e-06
9.2958e-07
2.13178e-06
1.8462e-09
1.84557e-09
1.84564e-09
1.84621e-09
1.84773e-09
1.85025e-09
1.8606e-09
1.90416e-09
4.34166e-09
1.44666e-08
1.30426e-08
6.72474e-09
2.56061e-09
1.75154e-09
1.81979e-09
1.79552e-09
5.37046e-09
7.80126e-09
1.02845e-07
1.60174e-08
8.46897e-09
9.79673e-07
3.29298e-06
0.572356
0.666463
0.659301
0.561483
0.411269
0.243778
0.0998778
0.0157078
9.47269e-09
3.80013e-09
2.14975e-09
1.99664e-09
2.02944e-09
1.89756e-09
2.84207e-07
3.14684e-07
3.34357e-07
3.34048e-07
4.98919e-07
2.4135e-07
1.49249e-07
8.16868e-06
0.00188367
2.66192
2.73369
2.74762
2.69415
2.58689
2.4127
2.13696
1.71007
1.1499
0.648493
0.315879
0.111626
0.0293721
0.0123579
0.00275799
0.00117385
0.005837
0.0156388
0.0415704
0.12046
0.314711
0.691424
1.35864
3
3
3
3
3
3
3
2.99971
2.99879
2.93689
2.69459
2.38486
2.06499
1.70068
1.43217
1.36668
1.50018
1.65287
1.85029
2.15307
2.5279
2.89363
2.99978
3
3
3
3
3
3
3
3
3
3
3
3
3
3
3
3
2.99999
2.99998
2.99997
2.99994
2.99994
2.99985
2.99988
3
3
3
3
3
3
3
3
3
3
3
3
3
3
3
3
3
2.99999
2.99999
3
3
3
3
3
3
3
3
3
3
3
3
3
3
3
3
3
3
3
3
3
3
3
3
3
3
3
3
3
3
3
3
3
3
3
3
3
3
3
3
3
3
3
3
3
3
3
3
3
3
3
3
3
3
3
3
3
3
3
3
3
3
3
3
3
3
3
3
3
3
3
3
3
3
3
3
3
3
3
3
3
3
3
3
3
3
3
3
3
3
3
3
3
3
3
3
3
3
3
3
3
3
3
3
3
3
3
3
3
3
3
3
3
3
3
3
3
3
3
3
3
3
3
3
3
3
3
3
3
3
3
3
3
3
3
3
3
3
3
3
3
3
3
3
3
3
3
3
3
3
3
3
3
3
3
3
3
3
3
3
3
3
3
3
3
3
3
3
3
3
3
3
3
3
3
3
3
3
3
3
3
3
3
3
3
3
3
3
3
3
3
3
3
3
3
3
3
3
3
3
3
3
3
3
3
3
3
3
3
3
3
3
3
3
3
3
3
3
3
3
3
3
3
3
3
3
3
3
3
3
3
3
3
3
3
3
3
3
3
3
3
3
3
3
3
3
3
3
3
3
3
3
3
3
3
3
3
3
3
3
3
3
3
3
3
3
3
3
3
3
3
3
3
3
3
3
3
3
3
3
3
3
3
3
3
3
3
3
3
3
3
3
3
3
3
3
3
3
3
3
3
3
3
3
3
3
3
3
3
3
3
3
3
3
3
3
3
3
3
3
3
3
3
3
3
3
3
3
3
3
3
3
3
3
3
3
3
3
3
3
3
3
3
3
3
3
3
3
3
3
3
3
3
3
3
3
3
3
3
3
3
3
3
3
3
3
3
3
3
3
3
3
3
3
3
3
3
3
3
3
3
3
3
3
3
3
3
3
3
3
3
3
3
3
3
3
3
3
3
3
3
3
3
3
3
3
3
3
3
3
3
3
3
3
3
3
3
3
3
3
3
3
3
3
3
3
3
3
3
3
3
3
3
3
3
3
3
3
3
3
3
3
3
3
3
3
3
3
3
3
3
3
3
3
3
3
3
3
3
3
3
3
3
3
3
3
3
3
3
3
3
3
3
3
3
3
3
3
3
3
3
3
3
3
3
3
3
3
3
3
3
3
3
3
3
3
3
3
3
3
3
3
3
3
3
3
3
3
3
3
3
3
3
3
3
3
3
3
3
3
3
3
3
3
3
3
3
3
3
3
3
3
3
3
3
3
3
3
3
3
3
3
3
3
3
3
3
3
3
3
3
3
3
3
3
3
3
3
3
3
3
3
3
3
3
3
3
3
3
3
3
3
3
3
3
3
3
3
3
3
3
3
3
3
3
3
3
3
3
3
3
3
3
3
3
3
3
3
3
3
3
3
3
3
3
3
3
3
3
3
3
3
3
3
3
3
3
3
3
3
3
3
3
3
3
3
3
3
3
3
3
3
3
3
3
3
3
3
3
3
3
3
3
3
3
3
3
3
3
3
3
3
3
3
3
3
3
3
3
3
3
3
3
3
3
3
3
3
3
3
3
3
3
3
3
3
3
3
3
3
3
3
3
3
3
3
3
3
3
3
3
3
3
3
3
3
3
3
3
3
3
3
3
3
3
3
3
3
3
3
3
3
3
3
3
3
3
3
3
3
3
3
3
3
3
3
3
3
3
3
3
3
3
3
3
3
3
3
3
3
3
3
3
3
3
3
3
3
3
3
3
3
3
3
3
3
3
3
3
3
3
3
3
3
3
3
3
3
3
3
3
3
3
3
3
3
3
3
3
3
3
3
3
3
3
3
1.28146
1.28473
1.30561
1.29187
5.38506e-06
3.67433e-05
5.34604e-05
5.40631e-05
4.73889e-06
7.33554e-06
6.55359e-06
1.48844e-05
0.051533
0.149631
0.354058
0.521255
1.84942
2.19991
2.57509
2.83891
2.99978
2.9998
2.99983
2.99989
2.99995
2.99999
2.99999
2.99998
3
3
3
2.99999
3
3
3
3
3
3
3
3
3
3
3
3
3
3
3
3
3
3
3
3
3
3
3
3
3
3
3
3
3
3
3
3
3
3
3
3
3
3
3
3
3
3
3
3
3
3
3
3
3
3
3
3
3
3
3
3
3
3
3
3
3
3
3
3
3
3
3
3
3
3
3
3
3
3
3
3
3
3
3
3
3
3
3
3
3
3
3
3
3
3
3
3
3
3
3
3
3
3
3
3
3
3
3
3
3
3
3
3
3
3
3
3
3
3
3
3
3
3
3
3
3
3
3
3
3
3
3
3
3
3
3
3
3
3
3
3
0.470133
0.0022056
0.00224919
0.000578539
0.00686234
0.0553142
0.169752
0.347279
0.534944
0.552075
0.528913
0.630523
0.903618
0.998831
0.999931
1.00052
1.00005
1.00936
1.32797
8.59121e-05
0.000380434
0.0026674
0.147084
0.48891
0.777314
0.940107
1.00337
1.00184
1.00067
1.00024
1.0001
1.00001
0.999995
1.0146
1.1814
1.74065
2.29173
1.83429
6.12184e-05
0.667714
1.07074
1.31807
1.30643
1.11022
1.00653
1.00452
1.00712
1.00024
1
1
1
1
1.13617
1.33852
1.78366
2.49097
2.53198
1.22298
2.69097
2.80972
2.29409
1.99747
1.88891
1.62014
1.2875
1.03241
1
1
1
1
1.00143
1.04382
1.05976
1.08677
2.10437
2.84981
2.99941
2.99231
2.97558
3
2.96877
2.87413
2.61878
1.44745
1
1
1
1
1.00001
1.00008
1
1
1.00001
1.15054
2.84926
2.99965
3
3
2.99999
2.99999
2.99999
2.26407
1
1
1
1
1
1
1
1
1
1
1.18176
2.81281
2.99997
3
2.99999
2.99999
3
2.97713
1.67628
1
1
1
1
1
1
1
1
1
1.00595
1.17975
2.35856
2.99998
2.99999
2.99999
2.99999
3
2.96638
1.60111
1
1
1
1
1
1
1
1
1
1.01092
1.0735
1.0706
3
2.99999
2.99998
2.99999
3
2.99394
1.82016
1
1
1
1
1
1
1
1
1
1.00064
1.00748
1.03225
3
2.99999
2.99999
2.99999
3
3
2.10512
1
1
1
1
1
1
1
1
1
1
1
1.00889
3
3
2.99999
3
3
3
2.34529
1
1
1
1.00006
1.00013
1.00005
1
1
1
1
1
1
3
3
3
3
3
3
2.51965
1.01363
1
1
1.00017
1.00029
1.00028
1.00001
1
1
1
1
1
3
3
3
3
3
3
2.72986
1.21364
1
1
1.00007
1.00029
1.00028
1.00015
1
1
1
1
1
3
3
3
3
3
3
2.97666
1.9168
1
1
1
1.00003
1.00011
1.00002
1
1
1
1
1
3
3
3
3
3
3
3
2.82858
1.5554
1
1
1
1
1
1.00001
1.00001
1
1
1.00001
3
3
3
3
3
3
3
3
2.80373
1.60851
1.01564
1
1
1
1
1
1
1.00002
1.00002
3
3
3
3
3
3
3
3
3
2.99219
2.18399
1.38811
1.05549
1
1
1
1
1
1.0035
3
3
3
3
3
3
3
2.99999
2.99999
3
3
2.92075
2.35198
1.93143
1.72457
1.71504
1.77169
1.81789
2.05919
3
3
3
3
3
3
3
2.99999
2.99998
2.99999
3
3
3
3
3
3
3
2.98904
2.69135
3
3
3
3
3
3
3
3
2.99998
2.99998
2.99999
3
3
3
3
3
3
2.93406
1.22399
3
3
3
3
3
3
3
3
3
2.99998
2.99999
3
3
3
2.99998
2.99993
3
2.99259
1.23153
3
3
3
3
3
3
3
3
3
3
3
3
3
3
2.99998
2.99978
2.99981
2.99978
1.24738
3
3
3
3
3
3
3
3
3
3
3
3
3
3
3
2.99998
2.99999
2.98195
1.23573
3
3
3
3
3
3
3
3
3
3
3
3
3
3
3
3
2.99999
2.69792
1.49384
3
3
3
3
3
3
3
3
3
3
3
3
3
3
3
3
2.98886
2.58768
2.9688
3
3
3
3
3
3
3
3
3
3
3
3
3
3
3
3
2.96
2.76848
3
3
3
3
3
3
3
3
3
3
3
3
3
3
3
3
3
2.96282
3
3
3
3
3
3
3
3
3
3
3
3
3
3
3
3
3
3
2.98617
2.99969
2.99998
3
3
3
3
3
3
3
3
3
3
3
3
3
3
3
3
3
2.99978
2.99995
3
3
3
3
3
3
3
3
3
3
3
3
3
3
3
3
3
2.99994
2.99999
3
3
3
3
3
3
3
3
3
3
3
3
3
3
3
3
3
3
3
3
3
3
3
3
3
3
3
3
3
3
3
3
3
3
3
3
3
3
3
3
3
3
3
3
3
3
3
3
3
3
3
3
3
3
3
2.99999
3
3
3
3
3
3
3
3
3
3
3
3
3
3
3
3
3
3
2.99999
3
3
3
3
3
3
3
3
3
3
3
3
3
3
3
3
3
3
2.99999
3
3
3
3
3
3
3
3
3
3
3
3
3
3
3
3
3
3
3
3
3
3
3
3
3
3
3
3
3
3
3
3
3
3
3
3
3
3
3
3
3
3
3
3
3
3
3
3
3
3
3
3
3
3
3
3
3
3
3
3
3
3
3
3
3
3
3
3
3
3
3
3
3
3
3
3
3
3
3
3
3
3
3
3
3
3
3
3
3
3
3
3
3
3
3
3
3
3
3
3
3
3
3
3
3
3
3
3
3
3
3
3
3
3
3
3
3
3
3
3
3
3
3
3
3
3
3
3
3
3
3
3
3
3
)
;

boundaryField
{
    leftWall
    {
        type            calculated;
        value           nonuniform List<scalar> 
50
(
2
2
2
1.68372
0.144901
1.33552e-09
1.63655e-09
1.83031e-09
1.88465e-09
1.85356e-09
1.8462e-09
0.572356
2.66192
3
3
3
3
3
3
3
3
3
3
3
3
3
3
3
3
3
3
3
3
3
3
3
3
3
3
3
3
3
3
3
3
3
3
3
3
3
)
;
    }
    rightWall
    {
        type            calculated;
        value           nonuniform List<scalar> 
50
(
2.71582
2.72013
2.67469
2.46075
2.19232
2.18129
1.91717
1.44856
1.32797
1.83429
2.53198
2.84981
2.84926
2.81281
2.35856
1.0706
1.03225
1.00889
1
1
1
1
1.00001
1.00002
1.0035
2.05919
2.69135
1.22399
1.23153
1.24738
1.23573
1.49384
2.9688
3
3
2.99998
2.99995
2.99999
3
3
3
3
3
3
3
3
3
3
3
3
)
;
    }
    lowerWall
    {
        type            calculated;
        value           nonuniform List<scalar> 
62
(
2
2
2
2
2
2
2
2
2
2
2
2
2
2
2
2
2
2
2
2
2
1.99974
1.99943
1.99943
1.99943
1.9996
2
2
2
1.99997
1.99997
1.28146
1.28473
1.30561
1.29187
1.18535
1.11381
1.033
1.0003
1.0003
1.10365
1.45496
1.43638
1.18535
1.35895
1.35452
1.23996
1.22876
1.23342
1.2488
1.27913
1.57058
1.71042
1.64926
1.64437
2.2713
2.41582
2.42005
2.37906
2.37399
2.62479
2.71582
)
;
    }
    atmosphere
    {
        type            calculated;
        value           nonuniform List<scalar> 
46
(
3
3
3
3
3
3
3
3
3
3
3
3
3
3
3
3
3
3
3
3
3
3
3
3
3
3
3
3
3
3
3
3
3
3
3
3
3
3
3
3
3
3
3
3
3
3
)
;
    }
    defaultFaces
    {
        type            empty;
    }
}


// ************************************************************************* //
