/*--------------------------------*- C++ -*----------------------------------*\
  =========                 |
  \\      /  F ield         | OpenFOAM: The Open Source CFD Toolbox
   \\    /   O peration     | Website:  https://openfoam.org
    \\  /    A nd           | Version:  13
     \\/     M anipulation  |
\*---------------------------------------------------------------------------*/
FoamFile
{
    format      ascii;
    class       volScalarField;
    location    "0.65";
    object      epsilon;
}
// * * * * * * * * * * * * * * * * * * * * * * * * * * * * * * * * * * * * * //

dimensions      [0 2 -3 0 0 0 0];

internalField   nonuniform List<scalar> 
2268
(
0.0095869
0.0353375
0.0644365
0.0894686
0.113187
0.134909
0.153785
0.170204
0.183887
0.19473
0.203479
0.211783
0.220997
0.230855
0.239639
0.245433
0.246237
0.240062
0.225112
0.199769
0.155193
0.0935733
0.0379558
0.0113155
0.0244543
0.0366363
0.0479275
0.0586892
0.0688267
0.0781449
0.0867946
0.0948294
0.102281
0.109236
0.115763
0.121762
0.127067
0.131123
0.133002
0.131817
0.127015
0.118777
0.107637
0.092366
0.0732908
0.0563377
0.0190317
0.0254314
0.0342463
0.0427833
0.050895
0.0585064
0.0655845
0.0722492
0.0786669
0.0850415
0.0914285
0.0976468
0.103322
0.108167
0.111856
0.113888
0.113943
0.112101
0.109018
0.10535
0.101027
0.0962572
0.0977417
0.0272557
0.0288039
0.0356984
0.042919
0.0498379
0.0562818
0.0622498
0.0678775
0.0734047
0.0791241
0.0850945
0.0911054
0.096671
0.101493
0.10536
0.108093
0.109769
0.110878
0.112411
0.115403
0.121202
0.132623
0.16349
0.0354534
0.0329728
0.0385278
0.044882
0.0510564
0.0567544
0.0619571
0.0668425
0.071706
0.0768218
0.0823595
0.0881335
0.0936763
0.0986872
0.10302
0.106759
0.110286
0.11442
0.120429
0.130104
0.147473
0.183678
0.281187
0.043722
0.0368
0.041581
0.0473889
0.0530756
0.0582446
0.0628453
0.0671282
0.0714043
0.0759992
0.0812254
0.0868313
0.0924253
0.0977823
0.102818
0.107793
0.11332
0.120476
0.130737
0.146872
0.176762
0.248469
0.495313
0.0522034
0.0397572
0.0439508
0.0493865
0.0547061
0.0594834
0.0636298
0.0673852
0.0712023
0.0756169
0.0809409
0.0866106
0.0924083
0.0982564
0.104154
0.1105
0.11806
0.128078
0.142133
0.163853
0.204954
0.317793
0.886569
0.061547
0.0422885
0.0456035
0.0506216
0.0555657
0.0600259
0.063947
0.0675405
0.0712249
0.0755367
0.0809228
0.0870587
0.0934824
0.0999555
0.106813
0.114574
0.1241
0.136688
0.153892
0.179768
0.227859
0.370549
1.65935
1.36841
2.83161
4.54151
4.68262
3.9781
3.50021
3.25102
3.19718
3.25794
3.23056
2.98816
2.66966
2.34868
2.17272
2.04502
1.8389
1.56912
1.14217
0.659811
0.90283
2.31167
3.94915
2.70754
1.82487
1.44343
1.29742
1.27385
1.30665
1.36213
1.40085
1.38161
1.29777
1.23472
1.21134
1.25968
1.38599
1.31582
1.0332
0.85167
1.88605
2.01338
1.45524
1.12842
0.970696
0.907081
0.901786
0.926004
0.963297
0.997266
1.01356
0.997673
0.970039
0.959153
0.994605
1.09784
1.16831
1.516
0.719062
1.19159
1.07898
0.929152
0.828411
0.774802
0.759769
0.771498
0.795345
0.824444
0.853846
0.877069
0.883271
0.878541
0.882828
0.924435
1.03525
1.1569
1.84523
0.614141
0.820626
0.794921
0.744029
0.709353
0.696061
0.705344
0.728004
0.753122
0.778233
0.804519
0.829162
0.844993
0.853035
0.869388
0.927291
1.06819
1.2002
2.06382
0.796259
0.86681
0.76685
0.700281
0.677302
0.679286
0.699381
0.726031
0.75054
0.77242
0.796342
0.821511
0.842041
0.856427
0.880804
0.960086
1.14763
1.25961
2.17319
1.77183
1.11163
0.807637
0.707429
0.688451
0.700262
0.725363
0.750908
0.770058
0.785142
0.803514
0.826282
0.847941
0.865884
0.893761
0.974805
1.19022
1.31856
2.16393
2.93661
1.1938
0.816659
0.729565
0.727162
0.750853
0.779291
0.800123
0.809436
0.813149
0.820917
0.835855
0.853912
0.871772
0.897742
0.966742
1.18455
1.2953
2.10947
0.0712399
0.0454404
0.0476341
0.0520295
0.0564558
0.0605453
0.0643318
0.0680281
0.0719606
0.0765175
0.0820568
0.088669
0.0961966
0.104212
0.112839
0.122817
0.135215
0.151061
0.171891
0.201557
0.250804
0.355075
0.670261
0.0819276
0.0490904
0.050067
0.0537624
0.0577206
0.0616392
0.065627
0.0699227
0.0748043
0.0805343
0.0873063
0.0951647
0.10403
0.113774
0.124598
0.137141
0.152609
0.171935
0.196486
0.228723
0.274268
0.346942
0.480724
0.0894973
0.0520658
0.0523532
0.0556844
0.0595104
0.0635862
0.0680675
0.0732304
0.0793651
0.0867017
0.0953669
0.105312
0.116394
0.128462
0.141401
0.155494
0.171971
0.1919
0.216433
0.247036
0.286388
0.340063
0.417741
0.098493
0.0552962
0.0550555
0.0582183
0.062121
0.066539
0.0716512
0.0777674
0.0851936
0.0941706
0.10489
0.117274
0.131069
0.14591
0.161016
0.176367
0.192685
0.21139
0.233918
0.262065
0.298987
0.350647
0.426627
0.10276
0.059101
0.0588943
0.0618408
0.0658359
0.0706201
0.0763456
0.0833204
0.0918074
0.102047
0.114544
0.12921
0.145575
0.162547
0.179097
0.19522
0.21171
0.230196
0.252924
0.28305
0.326101
0.392907
0.500653
0.10596
0.0614202
0.0635586
0.0669607
0.0711319
0.0760373
0.082057
0.0896404
0.0990503
0.109926
0.123581
0.14014
0.1585
0.176626
0.194119
0.211152
0.228533
0.248414
0.274524
0.312126
0.370862
0.471965
0.648122
0.0883374
0.0627797
0.0637597
0.0673218
0.0722889
0.0781127
0.0848525
0.0928009
0.102464
0.11387
0.129069
0.148682
0.169645
0.189277
0.207883
0.226313
0.245653
0.269014
0.302218
0.352996
0.436192
0.591727
0.858701
0.0895899
0.0676395
0.0660635
0.0676861
0.0712689
0.0765631
0.0833752
0.0912754
0.0996655
0.109184
0.121607
0.137813
0.155914
0.174258
0.192918
0.212778
0.235672
0.265816
0.309636
0.374126
0.476175
0.662823
0.974372
0.0980102
0.0724077
0.0687318
0.0686632
0.070698
0.0745754
0.0800658
0.086816
0.0944452
0.103101
0.113686
0.126762
0.141506
0.157465
0.175098
0.195462
0.220574
0.254661
0.304715
0.37996
0.493405
0.671585
0.951214
0.10786
0.0767142
0.0716266
0.0706051
0.0716046
0.0742934
0.0784991
0.0839955
0.0905531
0.0981882
0.107247
0.11808
0.130614
0.144853
0.161222
0.180687
0.205267
0.239176
0.29012
0.369152
0.488144
0.664296
0.919924
0.117754
0.0795392
0.0732842
0.0719676
0.0726857
0.0748907
0.0784123
0.0831185
0.0888946
0.0957312
0.103778
0.113269
0.124365
0.137282
0.152477
0.170891
0.194511
0.227516
0.277993
0.356627
0.475538
0.647162
0.882328
0.127041
0.0812074
0.0736705
0.0722111
0.0730093
0.0752141
0.0785694
0.0829587
0.0883142
0.0946283
0.101992
0.110586
0.120636
0.132436
0.146481
0.16371
0.186065
0.217568
0.265872
0.340897
0.454096
0.616028
0.832245
0.135266
0.0821028
0.0732506
0.0715614
0.0724522
0.0747953
0.0782167
0.0825611
0.0877551
0.0937838
0.100708
0.108676
0.117907
0.128715
0.141605
0.157508
0.178265
0.207566
0.252241
0.321133
0.42496
0.573384
0.769956
0.142165
0.0825136
0.072453
0.0704339
0.0713028
0.0737297
0.0772376
0.0816177
0.0867691
0.0926563
0.0993104
0.106839
0.11543
0.125377
0.137167
0.151683
0.17061
0.197184
0.237277
0.298695
0.391246
0.523843
0.699857
0.147872
0.0826575
0.0715491
0.0691571
0.0698969
0.0723023
0.0758249
0.0802125
0.0853351
0.0911316
0.0976016
0.104811
0.112903
0.122129
0.132929
0.146102
0.163136
0.18678
0.221928
0.27554
0.356131
0.472014
0.627066
0.152582
0.082678
0.0706886
0.0679246
0.0684708
0.0707686
0.074224
0.0785558
0.0836119
0.0893096
0.09562
0.102571
0.110262
0.118893
0.128838
0.14079
0.156021
0.176814
0.207218
0.253217
0.32213
0.421585
0.55606
0.156478
0.0826642
0.0699525
0.066845
0.0671704
0.0693066
0.0726315
0.0768468
0.0817863
0.0873519
0.0934935
0.100209
0.107559
0.115692
0.124913
0.135802
0.149416
0.167656
0.193775
0.232777
0.290952
0.37513
0.490188
0.159707
0.0826696
0.0693742
0.0659641
0.0660674
0.0680169
0.071173
0.0752277
0.0800076
0.0854053
0.0913568
0.0978385
0.104879
0.112584
0.121193
0.131178
0.143406
0.159441
0.181901
0.214807
0.263558
0.33423
0.431655
0.16242
0.0827331
0.0689592
0.065288
0.0651829
0.066941
0.069911
0.07378
0.0783714
0.0835735
0.089314
0.0955549
0.102302
0.109625
0.117708
0.126927
0.137985
0.15215
0.171529
0.199375
0.240165
0.299124
0.380753
0.164902
0.0829034
0.0687
0.0648004
0.0645065
0.0660813
0.0688632
0.0725368
0.0769251
0.0819148
0.0874297
0.0934228
0.0998829
0.106854
0.114471
0.12303
0.133097
0.145685
0.162486
0.186121
0.220255
0.269294
0.337306
0.167487
0.0832155
0.0685822
0.0644749
0.0640123
0.0654181
0.0680191
0.0714983
0.0756795
0.0804501
0.0857321
0.0914731
0.0976505
0.104286
0.111479
0.119457
0.128669
0.139921
0.154564
0.1747
0.203309
0.244065
0.300578
0.169481
0.0834548
0.0685239
0.0642677
0.0636683
0.0649225
0.0673535
0.0706449
0.074622
0.0791737
0.0842218
0.0897105
0.0956084
0.101921
0.108716
0.116167
0.124627
0.134733
0.147557
0.164781
0.188814
0.222705
0.269613
0.170825
0.0835964
0.0684881
0.0641359
0.0634314
0.0645562
0.0668328
0.0699471
0.0737272
0.0780643
0.0828805
0.0881182
0.09374
0.0997388
0.106157
0.113124
0.120911
0.130014
0.141294
0.156082
0.176319
0.204522
0.243438
0.171553
0.0836476
0.0684656
0.064059
0.0632726
0.0642837
0.0664176
0.0693643
0.0729554
0.0770844
0.0816745
0.0866668
0.0920193
0.0977144
0.103775
0.110293
0.117476
0.125705
0.135647
0.148381
0.165454
0.188932
0.221186
0.171736
0.0836358
0.068466
0.0640341
0.0631789
0.064084
0.0660813
0.0688661
0.072274
0.0762014
0.0805723
0.0853269
0.0904191
0.0958227
0.101544
0.107646
0.114281
0.121744
0.130542
0.141518
0.155939
0.175474
0.20215
0.171478
0.0836041
0.0685133
0.0640724
0.0631515
0.0639501
0.06581
0.0684335
0.0716607
0.0753906
0.0795484
0.0840732
0.0889152
0.0940405
0.0994419
0.105157
0.111296
0.118081
0.125899
0.135391
0.147567
0.163801
0.185794
0.170918
0.0836115
0.0686448
0.0641978
0.063204
0.0638871
0.0656021
0.0680591
0.0711036
0.0746371
0.0785856
0.0828871
0.0874884
0.0923489
0.0974493
0.102806
0.108495
0.114681
0.121656
0.129905
0.140193
0.15366
0.17172
0.170225
0.0837326
0.0689107
0.0644463
0.0633616
0.0639114
0.0654668
0.0677468
0.0706018
0.073936
0.077676
0.0817585
0.0861269
0.0907346
0.0955519
0.100578
0.105859
0.111515
0.117762
0.124967
0.133706
0.144852
0.159621
0.169608
0.0840592
0.0693741
0.0648647
0.0636595
0.0640496
0.0654238
0.0675103
0.0701645
0.0732926
0.0768214
0.080686
0.0848267
0.0891912
0.0937408
0.0984606
0.103373
0.108558
0.114177
0.120502
0.127968
0.137228
0.149245
0.169307
0.0847008
0.0701115
0.0655109
0.0641425
0.0643371
0.0655014
0.0673728
0.0698105
0.0727219
0.0760332
0.0796778
0.0835926
0.0877203
0.0920145
0.0964478
0.101024
0.105792
0.110866
0.116448
0.122862
0.130601
0.140386
0.169611
0.085789
0.0712139
0.066453
0.0648638
0.0648169
0.065736
0.0673658
0.0695674
0.0722481
0.0753324
0.0787514
0.0824388
0.0863325
0.0903793
0.0945417
0.0988074
0.103201
0.107801
0.112752
0.118295
0.124797
0.132802
0.170862
0.0874812
0.0727885
0.0677697
0.0658841
0.0655386
0.0661706
0.067528
0.0694711
0.0719043
0.0747494
0.0779342
0.0813891
0.0850478
0.0888511
0.0927529
0.0967282
0.100782
0.104963
0.109373
0.114187
0.11968
0.126257
0.173485
0.0899712
0.0749619
0.0695498
0.06727
0.0665567
0.0668534
0.067905
0.0695653
0.0717328
0.0743242
0.0772634
0.0804775
0.0838962
0.0874555
0.0911022
0.0948006
0.0985403
0.102346
0.106285
0.110483
0.115142
0.120562
0.178017
0.0935026
0.0778837
0.0718914
0.0690916
0.0679282
0.0678371
0.0685484
0.0699021
0.0717855
0.0741076
0.0767876
0.0797492
0.0829192
0.0862295
0.0896212
0.0930502
0.0964933
0.0999553
0.103478
0.107146
0.111105
0.115578
0.185205
0.0983963
0.0817327
0.0748985
0.0714176
0.0697095
0.0691765
0.0695162
0.0705427
0.0721255
0.074163
0.0765687
0.0792631
0.0821714
0.0852228
0.0883544
0.0915153
0.0946719
0.0978137
0.100959
0.104163
0.107525
0.111207
0.196138
0.105093
0.0867211
0.0786732
0.0743069
0.0719509
0.0709279
0.0708739
0.0715605
0.0728314
0.0745708
0.076686
0.0790957
0.0817244
0.0845011
0.0873607
0.0902478
0.0931206
0.0959563
0.0987542
0.101542
0.104385
0.107397
0.212598
0.114238
0.0930915
0.0832918
0.0777899
0.0746879
0.0731473
0.0726976
0.0730469
0.0740037
0.0754357
0.0772443
0.079348
0.0816733
0.0841511
0.086717
0.089314
0.0918961
0.0944301
0.096899
0.0993079
0.101692
0.104126
0.237723
0.12681
0.101072
0.0887433
0.0818334
0.0779308
0.0758935
0.0750835
0.0751223
0.0757772
0.0768992
0.0783858
0.0801577
0.0821456
0.0842862
0.0865205
0.0887949
0.0910634
0.0932866
0.0954339
0.0974899
0.0994629
0.101396
0.277787
0.144305
0.110662
0.0947719
0.0862776
0.081654
0.0792402
0.0781672
0.0779583
0.078343
0.0791613
0.0803102
0.081714
0.0833094
0.0850467
0.0868806
0.0887703
0.0906785
0.0925649
0.0943871
0.0961092
0.097714
0.0992155
0.347878
0.16835
0.120794
0.100517
0.0907496
0.0858089
0.0833146
0.0821652
0.0818163
0.0819852
0.0825145
0.0832987
0.084264
0.0853518
0.0865543
0.0878644
0.0892678
0.090745
0.0922576
0.0937489
0.0951585
0.0964412
0.0975844
0.499551
0.194894
0.126677
0.10396
0.0946735
0.0904282
0.0883945
0.0874542
0.0871158
0.0871433
0.0873965
0.0876944
0.0880124
0.0882962
0.0887146
0.089323
0.0901264
0.0911154
0.0922421
0.0934243
0.0945692
0.0956002
0.0964786
0.906091
0.179197
0.11608
0.102356
0.0978237
0.0959669
0.0951172
0.0947223
0.0945643
0.0945389
0.0945018
0.0933559
0.0923625
0.091287
0.0906905
0.0905547
0.0908045
0.091391
0.0922316
0.0932087
0.0941971
0.095093
0.0958333
2.47599
2.3893
2.54107
2.97658
0.669355
0.752693
0.816564
0.858956
0.495026
0.550951
0.607777
0.666331
0.508372
0.577901
0.661973
0.763818
0.625415
0.736053
0.876861
1.05575
0.85196
1.03455
1.27436
1.58013
1.14206
1.37391
1.66193
1.99015
1.29542
1.51465
1.74081
1.97962
1.24559
1.44745
1.65316
1.85715
1.17972
1.35672
1.53594
1.70944
1.11148
1.2653
1.41947
1.56701
1.03583
1.17094
1.3054
1.43378
0.951552
1.07166
1.1912
1.30597
0.861411
0.968695
1.07621
1.18061
0.769639
0.865178
0.962016
1.05741
0.680518
0.764901
0.851605
0.938375
0.597655
0.671518
0.748639
0.827129
0.523462
0.587658
0.655542
0.725857
0.458458
0.513774
0.572989
0.635258
0.402672
0.449929
0.501094
0.555624
0.355348
0.395439
0.439295
0.486595
0.31539
0.349215
0.38656
0.42727
0.281627
0.310034
0.341659
0.376468
0.252975
0.276722
0.303359
0.332936
0.228526
0.248269
0.270567
0.295528
0.207573
0.223876
0.242398
0.26329
0.189592
0.202943
0.218186
0.235494
0.174191
0.185026
0.197439
0.211607
0.161052
0.169774
0.179775
0.191223
0.149884
0.156865
0.164851
0.17399
0.140435
0.145994
0.152322
0.159549
0.132403
0.136838
0.141849
0.14753
0.125517
0.129057
0.133024
0.137492
0.119566
0.122385
0.125516
0.129017
0.114401
0.116632
0.119084
0.121803
0.109928
0.111671
0.113565
0.115645
0.106097
0.107433
0.108864
0.110417
0.102893
0.103887
0.104933
0.106051
0.100315
0.101026
0.101756
0.102521
0.0983648
0.0988517
0.0993346
0.0998251
0.0970326
0.0973619
0.0976713
0.0979703
0.0962696
0.0965187
0.0967435
0.096951
1.39546
0.919577
0.790807
0.783967
0.822572
0.867601
0.899134
0.907037
0.894101
0.87379
0.859628
0.856914
0.862265
0.869653
0.884793
0.94353
1.14592
1.21856
2.08992
0.806906
0.808649
0.878267
0.992855
1.10583
1.17574
1.18608
1.13908
1.06005
0.981704
0.921321
0.881506
0.85771
0.845096
0.852143
0.908907
1.07155
1.18218
2.08438
0.767926
0.944785
1.18101
1.45611
1.65205
1.69052
1.5987
1.42368
1.23272
1.07587
0.963269
0.8881
0.841268
0.817436
0.822255
0.87648
0.997041
1.1642
2.07703
0.969501
1.33692
1.83681
2.4132
2.67016
2.47079
2.11609
1.71645
1.37982
1.14252
0.98543
0.884592
0.823483
0.793811
0.797136
0.846254
0.943718
1.13822
1.9383
1.43325
2.12255
3.06689
4.46673
4.57828
3.41289
2.60554
1.91845
1.4553
1.16787
0.988194
0.875862
0.808825
0.776542
0.776993
0.816265
0.893401
1.08292
1.67365
2.18644
3.2319
4.64094
5.65743
5.10596
4.09291
2.7395
1.9051
1.4302
1.14829
0.973924
0.865281
0.8
0.767113
0.763113
0.790058
0.850356
1.00699
1.4023
2.5079
3.31993
4.16505
4.38972
4.33817
3.74079
2.44978
1.7489
1.34677
1.10486
0.953742
0.858744
0.800555
0.76895
0.760396
0.775321
0.818006
0.927595
1.17761
2.35923
2.9077
3.34852
3.51639
3.59051
3.06547
2.13348
1.58941
1.26497
1.06564
0.940165
0.861285
0.812619
0.784575
0.77264
0.776951
0.800167
0.859628
1.00708
2.15416
2.52773
2.78529
2.9488
3.08077
2.62366
1.91535
1.48252
1.21349
1.04485
0.938697
0.873229
0.834024
0.81138
0.798836
0.795333
0.800663
0.818758
0.899389
1.95192
2.22482
2.41106
2.60246
2.79055
2.4079
1.81772
1.44273
1.20091
1.04627
0.949026
0.890831
0.858491
0.841852
0.832757
0.825459
0.818326
0.80796
0.848199
1.77195
1.9932
2.15887
2.38544
2.65
2.36571
1.82536
1.468
1.22832
1.07044
0.96971
0.909893
0.878722
0.865791
0.861556
0.856506
0.843418
0.816273
0.830246
1.61456
1.81131
1.97489
2.23045
2.5997
2.45834
1.92634
1.55637
1.29727
1.11975
1.00233
0.929894
0.890869
0.874998
0.872217
0.87166
0.859736
0.823332
0.812276
1.47188
1.6575
1.82323
2.09753
2.59456
2.64444
2.12512
1.71242
1.41309
1.20043
1.05333
0.95657
0.898593
0.869212
0.858347
0.854816
0.844045
0.805791
0.76497
1.33651
1.51648
1.68085
1.94496
2.4782
2.89162
2.44727
1.94576
1.58465
1.32182
1.13295
1.00131
0.914252
0.860638
0.829897
0.810724
0.78811
0.739399
0.666892
1.20508
1.38086
1.53956
1.77583
2.26189
2.95928
2.83842
2.26045
1.82371
1.49504
1.25217
1.07692
0.954349
0.870976
0.814923
0.775066
0.738193
0.683066
0.607608
1.07767
1.24891
1.40043
1.59842
1.97732
2.63347
3.11847
2.6946
2.1503
1.73369
1.42122
1.19258
1.03037
0.91731
0.839602
0.78735
0.753307
0.726051
0.70881
0.957307
1.12193
1.26606
1.43054
1.70705
2.18962
2.7981
3.05285
2.57548
2.05416
1.64986
1.35457
1.14689
1.00382
0.909309
0.855988
0.844845
0.877602
0.961925
0.845079
1.00036
1.13742
1.27707
1.47734
1.8056
2.26489
2.71016
2.82992
2.41389
1.93434
1.56486
1.30573
1.13043
1.01979
0.974936
1.01105
1.14483
1.3097
0.74271
0.886699
1.01638
1.13899
1.28866
1.51029
1.82157
2.17401
2.45467
2.46242
2.19343
1.79673
1.5
1.29495
1.16045
1.128
1.24329
1.53549
1.71335
0.651168
0.782759
0.904542
1.01548
1.13381
1.28843
1.49769
1.74636
1.97918
2.11757
2.08245
1.89464
1.63792
1.42752
1.2814
1.26204
1.43096
1.74776
2.08664
0.570591
0.689444
0.802825
0.905236
1.00475
1.11923
1.26414
1.43831
1.61686
1.75684
1.82333
1.80457
1.70512
1.54431
1.38395
1.35393
1.4912
1.62175
2.34122
0.500441
0.606796
0.711471
0.806961
0.895106
0.986196
1.09219
1.21763
1.35388
1.48177
1.58496
1.64135
1.62916
1.53976
1.43851
1.43298
1.51933
1.564
2.48436
0.439719
0.534203
0.630118
0.719429
0.800315
0.877924
0.960933
1.05581
1.16233
1.27358
1.38066
1.47265
1.51911
1.51125
1.48908
1.53731
1.60146
1.57255
2.47557
0.387231
0.470662
0.55798
0.641437
0.7172
0.786958
0.856577
0.932627
1.019
1.11569
1.21978
1.32494
1.41995
1.49337
1.57408
1.69602
1.69387
1.53191
2.31367
0.34179
0.415029
0.494041
0.571805
0.643494
0.708488
0.77033
0.834812
0.907573
0.99265
1.09232
1.2075
1.33945
1.48761
1.67058
1.83507
1.71764
1.47515
2.18124
0.302364
0.366208
0.437247
0.509409
0.577512
0.6394
0.696707
0.754037
0.817385
0.892901
0.986621
1.10551
1.25918
1.46259
1.72147
1.87295
1.64329
1.43469
2.16906
0.268139
0.323278
0.386638
0.453236
0.517953
0.577627
0.632315
0.685253
0.74194
0.809192
0.894913
1.00901
1.16511
1.3832
1.67465
1.81659
1.56177
1.47674
2.27533
0.238525
0.285549
0.34144
0.402426
0.463774
0.521705
0.574975
0.625406
0.67749
0.737713
0.814256
0.917513
1.06138
1.26403
1.54164
1.69216
1.49815
1.45789
2.4632
0.213093
0.25255
0.301111
0.356315
0.414121
0.470491
0.523126
0.572464
0.621734
0.676515
0.744406
0.835278
0.962248
1.14196
1.38135
1.54455
1.45994
1.41909
2.61753
0.191492
0.223964
0.265331
0.314465
0.368329
0.423014
0.475448
0.524772
0.572841
0.624065
0.685133
0.7652
0.876756
1.03508
1.24065
1.40407
1.39507
1.3828
2.62293
0.17336
0.199533
0.233941
0.276677
0.325955
0.378456
0.430709
0.480717
0.528936
0.578478
0.634985
0.706777
0.805304
0.942918
1.11575
1.25909
1.29064
1.31097
2.51367
0.158286
0.178954
0.206837
0.242946
0.286834
0.336232
0.387789
0.438663
0.48795
0.537366
0.591357
0.657153
0.74454
0.862214
1.00294
1.1203
1.16059
1.19803
2.29235
0.145844
0.161834
0.183842
0.213361
0.251091
0.296123
0.345851
0.397083
0.447721
0.497998
0.550939
0.612312
0.689681
0.78798
0.897847
0.985502
1.01633
1.04752
1.9757
0.135484
0.147756
0.164661
0.187953
0.21906
0.258377
0.30458
0.354843
0.406276
0.457625
0.510236
0.56801
0.63593
0.715484
0.796216
0.853324
0.864722
0.874528
1.60102
0.126768
0.136087
0.148898
0.166663
0.191095
0.223668
0.264399
0.311583
0.362258
0.413933
0.466095
0.520442
0.579235
0.641073
0.695203
0.723648
0.71262
0.695976
1.21252
0.119399
0.126353
0.135871
0.14912
0.167573
0.192878
0.226487
0.268064
0.315467
0.365625
0.416287
0.46679
0.516715
0.56236
0.593272
0.597115
0.566335
0.526308
0.852842
0.113184
0.118237
0.125115
0.134706
0.148174
0.166957
0.192585
0.226203
0.267343
0.313124
0.360227
0.405831
0.447063
0.478458
0.49028
0.475327
0.431128
0.377311
0.556403
0.108016
0.111543
0.116322
0.123001
0.132437
0.145733
0.164188
0.189055
0.220966
0.259145
0.299772
0.338734
0.371185
0.390446
0.387966
0.36131
0.312595
0.25872
0.350698
0.103841
0.106164
0.109309
0.113733
0.120031
0.128968
0.14148
0.158569
0.180987
0.208626
0.239711
0.269868
0.292959
0.301839
0.290471
0.260327
0.218056
0.181402
0.257173
0.10065
0.102063
0.103987
0.106744
0.11073
0.116436
0.124446
0.13539
0.149772
0.167574
0.187623
0.206721
0.219456
0.21935
0.205262
0.181385
0.158153
0.158882
0.316171
0.0984534
0.0992467
0.100348
0.101989
0.104435
0.107988
0.112976
0.119718
0.128408
0.138849
0.149845
0.157548
0.158773
0.153809
0.144122
0.133996
0.13409
0.187982
0.647467
0.0972697
0.0977553
0.0984423
0.0995194
0.101184
0.103638
0.107069
0.111613
0.117263
0.123599
0.128579
0.120398
0.115051
0.112161
0.109844
0.108968
0.117313
0.193345
1.49627
)
;

boundaryField
{
    leftWall
    {
        type            epsilonWallFunction;
        value           nonuniform List<scalar> 
50
(
0.0095869
0.0113155
0.0190317
0.0272557
0.0354534
0.043722
0.0522034
0.061547
0.0712399
0.0819276
0.0894973
0.098493
0.10276
0.10596
0.0883374
0.0895899
0.0980102
0.10786
0.117754
0.127041
0.135266
0.142165
0.147872
0.152582
0.156478
0.159707
0.16242
0.164902
0.167487
0.169481
0.170825
0.171553
0.171736
0.171478
0.170918
0.170225
0.169608
0.169307
0.169611
0.170862
0.173485
0.178017
0.185205
0.196138
0.212598
0.237723
0.277787
0.347878
0.499551
0.906091
)
;
    }
    rightWall
    {
        type            epsilonWallFunction;
        value           nonuniform List<scalar> 
50
(
0.659811
1.0332
1.516
1.84523
2.06382
2.17319
2.16393
2.10947
2.08992
2.08438
2.07703
1.9383
1.67365
1.4023
1.17761
1.00708
0.899389
0.848199
0.830246
0.812276
0.76497
0.666892
0.607608
0.70881
0.961925
1.3097
1.71335
2.08664
2.34122
2.48436
2.47557
2.31367
2.18124
2.16906
2.27533
2.4632
2.61753
2.62293
2.51367
2.29235
1.9757
1.60102
1.21252
0.852842
0.556403
0.350698
0.257173
0.316171
0.647467
1.49627
)
;
    }
    lowerWall
    {
        type            epsilonWallFunction;
        value           nonuniform List<scalar> 
62
(
0.0095869
0.0353375
0.0644365
0.0894686
0.113187
0.134909
0.153785
0.170204
0.183887
0.19473
0.203479
0.211783
0.220997
0.230855
0.239639
0.245433
0.246237
0.240062
0.225112
0.199769
0.155193
0.0935733
0.0379558
0.0379558
0.0563377
0.0977417
0.16349
0.281187
0.495313
0.886569
1.65935
2.47599
2.3893
2.54107
2.97658
1.36841
0.90283
0.85167
0.719062
0.614141
0.796259
1.77183
2.93661
1.36841
2.83161
4.54151
4.68262
3.9781
3.50021
3.25102
3.19718
3.25794
3.23056
2.98816
2.66966
2.34868
2.17272
2.04502
1.8389
1.56912
1.14217
0.659811
)
;
    }
    atmosphere
    {
        type            inletOutlet;
        inletValue      uniform 0.1;
        value           nonuniform List<scalar> 
46
(
0.906091
0.1
0.1
0.1
0.1
0.1
0.1
0.1
0.1
0.1
0.1
0.0933559
0.0923625
0.091287
0.0906905
0.0905547
0.0908045
0.091391
0.0922316
0.0932087
0.0941971
0.095093
0.0958333
0.0962696
0.0965187
0.0967435
0.096951
0.0972697
0.0977553
0.0984423
0.0995194
0.101184
0.103638
0.107069
0.111613
0.117263
0.123599
0.128579
0.1
0.1
0.1
0.1
0.1
0.1
0.1
0.1
)
;
    }
    defaultFaces
    {
        type            empty;
    }
}


// ************************************************************************* //
