/*--------------------------------*- C++ -*----------------------------------*\
  =========                 |
  \\      /  F ield         | OpenFOAM: The Open Source CFD Toolbox
   \\    /   O peration     | Website:  https://openfoam.org
    \\  /    A nd           | Version:  13
     \\/     M anipulation  |
\*---------------------------------------------------------------------------*/
FoamFile
{
    format      ascii;
    class       volScalarField;
    location    "0.65";
    object      k;
}
// * * * * * * * * * * * * * * * * * * * * * * * * * * * * * * * * * * * * * //

dimensions      [0 2 -2 0 0 0 0];

internalField   nonuniform List<scalar> 
2268
(
0.00171677
0.00409149
0.00610523
0.00759861
0.00888724
0.00998762
0.0108974
0.0116642
0.0122812
0.0127586
0.0131429
0.0135175
0.0139258
0.0143504
0.0147205
0.014964
0.0150085
0.0147788
0.0142065
0.0131605
0.0111398
0.00793878
0.00431202
0.00315821
0.00855263
0.012632
0.0160259
0.0189324
0.0214234
0.0235412
0.025309
0.0267636
0.0279902
0.0291124
0.0301985
0.0312623
0.0322448
0.0330435
0.0335682
0.0337507
0.0335092
0.0326683
0.0307009
0.026731
0.019846
0.00927706
0.00446757
0.010645
0.0159848
0.0204185
0.0241742
0.0273704
0.030091
0.0323876
0.0343456
0.0360903
0.0377405
0.0393269
0.0408216
0.0421575
0.0432567
0.044074
0.0445835
0.0447202
0.0442555
0.0424366
0.0380199
0.0292875
0.0134709
0.00568237
0.0126298
0.0188186
0.0239214
0.0282288
0.0318837
0.0349869
0.037621
0.0399141
0.0420234
0.0440592
0.0460353
0.0478868
0.0495538
0.0509965
0.052231
0.0532872
0.0541317
0.054479
0.0534196
0.049403
0.0397787
0.0190915
0.00677571
0.014931
0.0216601
0.0271868
0.0318723
0.035848
0.0392071
0.0420711
0.0446014
0.046955
0.0492768
0.0515724
0.0537687
0.0558083
0.0576827
0.0594721
0.0612647
0.0630727
0.0645378
0.064711
0.0618809
0.0525713
0.0274697
0.00779854
0.0174091
0.0244636
0.0302773
0.0352449
0.0394609
0.0430037
0.0460351
0.0487291
0.0512755
0.0538672
0.0564677
0.0590179
0.0614834
0.0638841
0.0663473
0.0690148
0.0719469
0.0747316
0.0764883
0.0755877
0.0682121
0.0399994
0.00879298
0.0196557
0.0269432
0.0329743
0.0381583
0.0425747
0.0462784
0.0494303
0.0522761
0.0550951
0.0580692
0.0610306
0.0639776
0.0669205
0.0699156
0.0731288
0.0767455
0.0808678
0.0850567
0.0885885
0.0901658
0.086481
0.0587939
0.00982753
0.0215096
0.0289981
0.0351934
0.0405363
0.0451314
0.0490451
0.0524299
0.055523
0.0586073
0.0619183
0.0653809
0.0688724
0.0723352
0.075962
0.0799555
0.0845367
0.0898343
0.0954062
0.100739
0.105013
0.106373
0.0891572
0.0472213
0.0760352
0.103748
0.105982
0.0952135
0.0873037
0.0828643
0.0817455
0.0828088
0.0828397
0.0788659
0.0733392
0.0670424
0.0631174
0.0605439
0.0564932
0.0508491
0.0408713
0.0294802
0.0632305
0.138404
0.224149
0.192109
0.16308
0.150289
0.1464
0.147951
0.151282
0.153513
0.150804
0.140082
0.128984
0.126456
0.126187
0.124244
0.123201
0.109885
0.0685596
0.0606708
0.151951
0.177775
0.167874
0.167695
0.170867
0.17508
0.180282
0.184656
0.18642
0.184101
0.177488
0.170825
0.166919
0.163094
0.157259
0.150962
0.13643
0.0892442
0.0542714
0.121794
0.140544
0.158024
0.174773
0.18732
0.197256
0.205338
0.210567
0.212424
0.211027
0.206759
0.201828
0.19726
0.191841
0.185094
0.178249
0.16059
0.101526
0.049026
0.0989775
0.134858
0.165294
0.188863
0.205788
0.218986
0.228866
0.234573
0.236313
0.235211
0.231929
0.227538
0.222238
0.215754
0.209309
0.204138
0.181155
0.109401
0.0593768
0.107967
0.150634
0.183719
0.208758
0.227209
0.241653
0.251946
0.257421
0.258636
0.257308
0.254232
0.249622
0.243215
0.23555
0.230023
0.228087
0.197381
0.113337
0.100784
0.140143
0.177798
0.20842
0.232703
0.251465
0.265906
0.275414
0.279486
0.279172
0.276626
0.272827
0.267339
0.2597
0.25049
0.243302
0.242942
0.209644
0.113205
0.141268
0.175871
0.208077
0.236089
0.259842
0.278795
0.292671
0.300482
0.302061
0.299073
0.29403
0.288132
0.28093
0.271671
0.260354
0.249819
0.248712
0.210837
0.110782
0.0108553
0.0238173
0.0317066
0.0381662
0.0437606
0.0486472
0.0529471
0.0568193
0.0604644
0.0641011
0.0679273
0.0720348
0.0764007
0.0808828
0.0855841
0.0907983
0.0968456
0.103702
0.111102
0.118837
0.126625
0.133999
0.137795
0.0119499
0.026301
0.0347287
0.0415387
0.0474788
0.0528124
0.057721
0.0623834
0.0669771
0.0716585
0.0765424
0.0816799
0.087076
0.0927319
0.0987863
0.105503
0.113235
0.121986
0.131749
0.142453
0.15412
0.167178
0.18259
0.0127041
0.0282541
0.0372661
0.044511
0.0509045
0.0567951
0.0624126
0.067962
0.0736237
0.0795275
0.0857414
0.0922497
0.0990082
0.105996
0.113218
0.120832
0.129264
0.138765
0.149533
0.161658
0.175328
0.191203
0.210724
0.0135467
0.0299286
0.0395329
0.0472732
0.0541937
0.0607008
0.0670575
0.0734936
0.0801925
0.087277
0.0948317
0.102805
0.111076
0.119512
0.127843
0.136122
0.14468
0.154115
0.164933
0.177644
0.193058
0.212619
0.238445
0.0139358
0.0312597
0.0416244
0.0498842
0.0573651
0.0645034
0.0715749
0.0788181
0.0863925
0.0944098
0.103101
0.112391
0.122038
0.131581
0.140658
0.149404
0.158281
0.168043
0.179591
0.19403
0.213032
0.239398
0.2766
0.0142853
0.0311146
0.0429295
0.0521238
0.0603452
0.0680977
0.0757817
0.0837243
0.0920942
0.100698
0.110173
0.12053
0.131222
0.141396
0.151024
0.160367
0.169941
0.180716
0.194131
0.211984
0.237113
0.274858
0.331124
0.0125733
0.0283457
0.0407943
0.0509218
0.0602407
0.0690538
0.0776176
0.0861797
0.0950345
0.104206
0.114689
0.126679
0.13869
0.149652
0.159917
0.170092
0.180834
0.193452
0.210048
0.233048
0.266491
0.320214
0.397886
0.0125783
0.0282796
0.0399776
0.0498228
0.0589845
0.0679587
0.0769213
0.0857835
0.0943094
0.102865
0.112355
0.123165
0.134347
0.145213
0.155973
0.167234
0.17995
0.195834
0.217051
0.245326
0.28482
0.346508
0.432839
0.0133147
0.0295874
0.0406675
0.0499501
0.0585508
0.0669744
0.0754093
0.0838338
0.0921454
0.100479
0.109331
0.118974
0.128981
0.13919
0.149935
0.161851
0.175942
0.193921
0.218069
0.250536
0.293423
0.351531
0.429502
0.0141864
0.0314462
0.0425527
0.0515249
0.0596215
0.0674122
0.0751559
0.0829245
0.0907122
0.0985955
0.106801
0.11552
0.124713
0.134411
0.144898
0.156739
0.170941
0.18924
0.214186
0.248376
0.293252
0.350767
0.422973
0.015043
0.0332449
0.0446107
0.0535519
0.061424
0.0688336
0.0760896
0.0833358
0.0906379
0.0980664
0.105752
0.113839
0.122421
0.131629
0.141746
0.153304
0.16729
0.185435
0.210438
0.244723
0.28987
0.346484
0.414056
0.0158254
0.0347633
0.0463387
0.0553403
0.0631703
0.07043
0.0774366
0.0843635
0.091307
0.0983495
0.105594
0.113168
0.12121
0.129898
0.139525
0.150616
0.164126
0.181729
0.205992
0.239176
0.282863
0.337315
0.400947
0.0165073
0.0359646
0.0476326
0.0566621
0.0644911
0.0717018
0.0785957
0.0853438
0.0920526
0.0988049
0.105692
0.112832
0.120371
0.128507
0.137543
0.147996
0.160776
0.177435
0.200297
0.231437
0.2725
0.32379
0.383434
0.0170725
0.0368901
0.0485511
0.0575416
0.0653364
0.0725041
0.0793278
0.0859669
0.0925202
0.0990623
0.105673
0.112454
0.119545
0.127141
0.135542
0.145249
0.157107
0.172505
0.193498
0.222027
0.259775
0.307172
0.362546
0.0175334
0.0376193
0.0492068
0.0580994
0.0658108
0.0729039
0.0796483
0.0861906
0.0926186
0.0989957
0.105386
0.111875
0.118582
0.125686
0.13347
0.142398
0.153239
0.167206
0.186083
0.211757
0.245809
0.288863
0.339663
0.0179094
0.0382107
0.0496936
0.0584537
0.0660427
0.0730246
0.079662
0.0860929
0.0923958
0.0986239
0.104827
0.11107
0.117451
0.124124
0.131343
0.139523
0.149343
0.161851
0.178594
0.201338
0.231574
0.270096
0.316126
0.0182175
0.0387041
0.050075
0.0586897
0.0661349
0.0729794
0.079484
0.0857825
0.0919481
0.0980259
0.104054
0.11008
0.11618
0.122482
0.129202
0.136701
0.145564
0.1567
0.171415
0.19131
0.217819
0.251845
0.293054
0.0184709
0.0391241
0.0503912
0.0588637
0.066159
0.072853
0.0792079
0.0853571
0.0913714
0.0972912
0.103146
0.10897
0.114821
0.120801
0.127087
0.133986
0.141993
0.151888
0.164775
0.182032
0.20505
0.234812
0.271294
0.0186823
0.039484
0.0506639
0.0590069
0.066158
0.0727001
0.0788986
0.0848887
0.0907417
0.0964959
0.102176
0.107806
0.113428
0.119121
0.125029
0.131403
0.138661
0.147456
0.158724
0.173652
0.193508
0.21929
0.251202
0.0188736
0.0397898
0.0509015
0.0591326
0.0661525
0.0725499
0.0785937
0.0844225
0.0901098
0.095694
0.101197
0.106636
0.112043
0.117475
0.123046
0.128961
0.135563
0.143395
0.15324
0.166116
0.183154
0.20532
0.232985
0.0190735
0.0400502
0.0511036
0.0592417
0.0661483
0.0724131
0.0783097
0.0839811
0.0895038
0.0949177
0.100243
0.105495
0.110694
0.115883
0.121149
0.126654
0.132678
0.139666
0.148267
0.159346
0.173895
0.192829
0.216632
0.0192278
0.0402778
0.0512861
0.0593453
0.0661472
0.0722896
0.0780488
0.0835705
0.0889338
0.0941808
0.0993324
0.1044
0.109398
0.114356
0.119339
0.124473
0.129983
0.136227
0.14374
0.153247
0.165613
0.181684
0.202014
0.0193324
0.0404534
0.0514311
0.0594278
0.0661428
0.0721771
0.0778102
0.0831907
0.0884012
0.093486
0.0984671
0.103355
0.108158
0.112896
0.117615
0.122411
0.127458
0.13304
0.1396
0.147736
0.158189
0.171732
0.188958
0.0193898
0.040574
0.0515315
0.0594797
0.0661218
0.0720608
0.0775789
0.082828
0.0878938
0.0928235
0.0976405
0.102354
0.10697
0.111499
0.115972
0.120459
0.125092
0.130091
0.135808
0.142745
0.151524
0.162839
0.177293
0.0194057
0.040644
0.0515886
0.0594984
0.066078
0.0719315
0.0773437
0.0824698
0.0873989
0.0921811
0.0968416
0.10139
0.105828
0.11016
0.114405
0.11861
0.122872
0.12736
0.132344
0.138229
0.145548
0.154904
0.166885
0.0193879
0.0406736
0.0516107
0.059489
0.0660127
0.0717867
0.0770988
0.0821077
0.0869063
0.0915477
0.096059
0.10045
0.104721
0.10887
0.112905
0.116856
0.120789
0.12483
0.129184
0.134163
0.140212
0.147855
0.157639
0.0193467
0.0406782
0.0516129
0.0594641
0.0659347
0.0716314
0.0768453
0.0817394
0.0864105
0.0909154
0.0952833
0.0995246
0.103638
0.107618
0.111462
0.115185
0.11883
0.122487
0.126305
0.130521
0.13548
0.141641
0.149495
0.0192947
0.0406792
0.0516172
0.0594436
0.0658607
0.0714779
0.0765913
0.0813688
0.085912
0.0902813
0.0945089
0.0986062
0.102571
0.106393
0.110065
0.113588
0.116984
0.120313
0.123682
0.127265
0.131323
0.136219
0.142406
0.0192474
0.0407037
0.0516529
0.0594554
0.0658151
0.0713467
0.0763527
0.0810073
0.0854177
0.0896486
0.0937354
0.0976909
0.101513
0.105188
0.108703
0.11205
0.115234
0.118289
0.121289
0.124356
0.127683
0.131546
0.136316
0.019223
0.040785
0.0517567
0.0595351
0.0658305
0.0712662
0.0761533
0.0806739
0.0849418
0.0890269
0.092968
0.0967801
0.100461
0.103996
0.107368
0.110559
0.113562
0.116394
0.119095
0.121751
0.124498
0.12754
0.131161
0.0192433
0.0409639
0.0519736
0.059727
0.0659479
0.0712729
0.0760246
0.0803951
0.0845057
0.0884326
0.0922185
0.095881
0.0994186
0.102816
0.106052
0.109103
0.111954
0.114602
0.117068
0.119404
0.121702
0.124107
0.12683
0.0193338
0.0412891
0.052358
0.0600846
0.0662173
0.0714117
0.0760063
0.0802051
0.0841386
0.0878896
0.0915055
0.0950071
0.0983941
0.101651
0.104755
0.107677
0.110394
0.112892
0.115174
0.117266
0.119226
0.121151
0.123193
0.0195256
0.0418197
0.0529753
0.060672
0.066698
0.0717366
0.0761465
0.0801464
0.0838773
0.0874292
0.0908551
0.0941789
0.0974024
0.100511
0.103479
0.106276
0.108872
0.111246
0.113385
0.115295
0.117007
0.118581
0.12012
0.0198574
0.0426282
0.0539049
0.0615659
0.0674605
0.072311
0.076502
0.0802696
0.0837666
0.0870911
0.0903012
0.0934248
0.0964659
0.099411
0.102234
0.104904
0.107386
0.109651
0.111677
0.113453
0.114989
0.116314
0.117494
0.0203814
0.0438076
0.0552458
0.0628589
0.068588
0.0732086
0.0771384
0.0806339
0.0838601
0.0869231
0.0898865
0.0927818
0.0956159
0.0983769
0.10104
0.103573
0.105939
0.108104
0.110038
0.111716
0.11313
0.114286
0.115217
0.0211676
0.0454829
0.0571257
0.0646653
0.0701785
0.0745141
0.0781308
0.0813072
0.0842203
0.0869832
0.089664
0.0922976
0.0948939
0.0974434
0.0999234
0.102303
0.104545
0.106612
0.108466
0.110074
0.111407
0.112454
0.11322
0.022325
0.0478357
0.0597187
0.0671293
0.072348
0.0763238
0.0795632
0.0823664
0.0849198
0.0873404
0.0896989
0.0920328
0.0943545
0.0966581
0.0989246
0.101126
0.103229
0.105193
0.106976
0.108531
0.109816
0.110798
0.111462
0.0240365
0.0511549
0.0632749
0.0704356
0.0752316
0.0787437
0.0815277
0.083898
0.0860429
0.0880779
0.0900727
0.092065
0.0940695
0.0960845
0.0980978
0.100089
0.102029
0.103881
0.105595
0.107112
0.108372
0.109324
0.109931
0.0266469
0.0559506
0.0681671
0.0748149
0.0789773
0.0818847
0.0841224
0.0859986
0.087689
0.0892983
0.0908889
0.0924949
0.0941317
0.0958037
0.0975116
0.0992493
0.100999
0.102724
0.104368
0.105857
0.10711
0.108056
0.108639
0.0309291
0.0632066
0.0749272
0.0805118
0.0837171
0.0858483
0.0874489
0.0887793
0.0899798
0.0911316
0.0922814
0.0934497
0.0946522
0.0959038
0.0972368
0.0986693
0.100196
0.101781
0.103354
0.104821
0.106078
0.107032
0.107612
0.0392654
0.0748329
0.0840755
0.0876339
0.0895004
0.0907083
0.0916153
0.092377
0.0930742
0.0937525
0.0944279
0.0950613
0.0957095
0.0964136
0.0972868
0.0983703
0.0996581
0.101101
0.102607
0.104057
0.105323
0.106292
0.106879
0.0576331
0.0922412
0.0950337
0.0958003
0.0962173
0.0965196
0.0967693
0.0969937
0.0972091
0.0974216
0.0975872
0.0972151
0.0970619
0.0970808
0.0974832
0.0982579
0.0993535
0.100689
0.102147
0.103587
0.104862
0.105847
0.106444
0.116976
0.114436
0.119534
0.133274
0.194312
0.203762
0.215036
0.227982
0.22852
0.24237
0.25783
0.275183
0.263676
0.283878
0.307203
0.334005
0.314011
0.344248
0.379829
0.421582
0.386563
0.43146
0.485438
0.548204
0.466649
0.517705
0.575729
0.636379
0.507242
0.554042
0.598576
0.642044
0.49906
0.543239
0.584972
0.623399
0.485797
0.525743
0.563534
0.59776
0.470967
0.506854
0.540682
0.571173
0.453115
0.485791
0.516527
0.544307
0.431677
0.461884
0.490395
0.516398
0.407234
0.435379
0.462181
0.486961
0.380881
0.4071
0.432383
0.456136
0.353839
0.378124
0.401879
0.42457
0.327238
0.349554
0.371733
0.39328
0.301945
0.322288
0.342772
0.363015
0.278403
0.296767
0.315495
0.33428
0.256911
0.273314
0.290243
0.307459
0.237508
0.25201
0.267151
0.282743
0.220086
0.232781
0.246179
0.260143
0.204469
0.215465
0.227194
0.23956
0.19047
0.199884
0.210029
0.220846
0.177936
0.185881
0.194531
0.203859
0.166759
0.173349
0.180596
0.188499
0.156875
0.162227
0.16817
0.174723
0.148242
0.152483
0.157233
0.162527
0.140818
0.144088
0.147774
0.15192
0.134534
0.136982
0.139752
0.142887
0.129295
0.13107
0.133076
0.135356
0.124955
0.126206
0.127608
0.129196
0.121355
0.122209
0.12315
0.124206
0.118345
0.118907
0.119505
0.120161
0.115796
0.116149
0.116499
0.116862
0.113612
0.113819
0.113994
0.114146
0.11173
0.11184
0.111893
0.111898
0.110122
0.110168
0.110139
0.110043
0.108786
0.108791
0.10871
0.108546
0.107736
0.107718
0.107604
0.107396
0.106994
0.106966
0.106833
0.106599
0.10656
0.106529
0.106392
0.106151
0.183499
0.219307
0.250133
0.279028
0.304679
0.32468
0.33732
0.341322
0.337512
0.328899
0.318656
0.30824
0.297087
0.283766
0.268308
0.254332
0.250162
0.205601
0.109116
0.250416
0.283359
0.31971
0.357242
0.389089
0.409148
0.414844
0.406318
0.388012
0.366333
0.345135
0.325386
0.306317
0.286729
0.267473
0.251587
0.241387
0.200872
0.108467
0.307708
0.357839
0.414126
0.471237
0.510699
0.521341
0.50677
0.47381
0.433361
0.394976
0.361636
0.332889
0.307274
0.283557
0.262154
0.244718
0.228289
0.195605
0.108333
0.384994
0.464693
0.557882
0.651234
0.691814
0.663718
0.606371
0.535403
0.468242
0.413345
0.369636
0.334074
0.304012
0.277657
0.254682
0.235552
0.215147
0.186709
0.105156
0.502984
0.627934
0.772328
0.960342
0.96942
0.813087
0.690953
0.5751
0.485495
0.419939
0.370304
0.331054
0.29862
0.270723
0.246146
0.224219
0.200695
0.172608
0.0962292
0.6612
0.817934
0.999334
1.11774
1.049
0.914977
0.71589
0.575447
0.481661
0.415215
0.365132
0.325572
0.292772
0.264223
0.238129
0.21302
0.185604
0.154273
0.0856077
0.725086
0.842483
0.951299
0.972918
0.963234
0.874221
0.676572
0.550579
0.465411
0.404046
0.357138
0.319596
0.287935
0.259594
0.232539
0.204901
0.173974
0.137369
0.0762046
0.707396
0.788257
0.845563
0.863993
0.872508
0.787697
0.630527
0.523253
0.447973
0.392478
0.349483
0.314699
0.284924
0.257563
0.230392
0.201333
0.167889
0.12697
0.0683714
0.676659
0.733707
0.767935
0.789684
0.808258
0.72786
0.596585
0.503256
0.435203
0.383956
0.343892
0.311382
0.283467
0.257525
0.231037
0.20166
0.166741
0.122493
0.0628899
0.643577
0.687392
0.713587
0.742334
0.769875
0.69684
0.580097
0.494225
0.429585
0.379997
0.34096
0.309353
0.282473
0.257735
0.232449
0.203712
0.168492
0.122325
0.0599409
0.61195
0.649632
0.674687
0.710599
0.750334
0.690803
0.58058
0.496964
0.43217
0.381441
0.341086
0.308389
0.280955
0.256374
0.231974
0.204549
0.170147
0.123684
0.0587294
0.582079
0.617656
0.643979
0.685548
0.74283
0.705761
0.596947
0.511638
0.443659
0.389214
0.34519
0.309159
0.279045
0.252735
0.227793
0.201137
0.168472
0.123326
0.0577151
0.552717
0.588244
0.616335
0.661746
0.740937
0.734693
0.62947
0.538721
0.464841
0.404545
0.354884
0.313527
0.278591
0.248255
0.220448
0.192486
0.160483
0.118202
0.0553535
0.52268
0.55905
0.588328
0.632782
0.718767
0.771
0.681015
0.578867
0.496566
0.428733
0.37205
0.324068
0.282881
0.246746
0.213864
0.182057
0.148136
0.106926
0.0503765
0.491543
0.529012
0.55879
0.599449
0.678474
0.778398
0.741027
0.631164
0.539713
0.462917
0.398144
0.342939
0.295182
0.252902
0.214297
0.177584
0.140446
0.0989646
0.0481655
0.459546
0.498008
0.528086
0.563348
0.626238
0.724658
0.780961
0.699941
0.596197
0.508279
0.43399
0.370927
0.316818
0.269206
0.225953
0.185353
0.145723
0.103914
0.0545341
0.427475
0.466367
0.496686
0.527323
0.574643
0.650647
0.733918
0.753648
0.665788
0.566097
0.480031
0.407908
0.347222
0.294844
0.248108
0.205174
0.164285
0.121698
0.0674507
0.395813
0.434408
0.464971
0.492494
0.528145
0.582234
0.650841
0.706814
0.706678
0.627897
0.534315
0.452964
0.385288
0.328092
0.277975
0.233798
0.193712
0.152298
0.0830597
0.365241
0.402876
0.433495
0.459256
0.487312
0.525564
0.575208
0.625372
0.656383
0.64129
0.582894
0.500701
0.42878
0.367405
0.312451
0.267052
0.230618
0.197948
0.0991576
0.33627
0.372397
0.402771
0.427658
0.451294
0.479415
0.51476
0.553229
0.58409
0.594422
0.573792
0.525986
0.462394
0.400947
0.343653
0.298938
0.270103
0.241913
0.112006
0.309203
0.343407
0.373188
0.39764
0.41896
0.441106
0.467017
0.495882
0.522369
0.538393
0.537918
0.519425
0.482686
0.431166
0.373936
0.331955
0.30665
0.258694
0.120288
0.284152
0.316141
0.34499
0.369127
0.389361
0.408258
0.428431
0.450615
0.472679
0.49046
0.500193
0.497373
0.477844
0.43965
0.394543
0.36008
0.330219
0.267684
0.12483
0.261087
0.290669
0.318288
0.342042
0.361817
0.379114
0.396047
0.413985
0.432621
0.450041
0.463667
0.470249
0.46354
0.441539
0.410907
0.384704
0.350982
0.276383
0.123794
0.239908
0.266959
0.293094
0.316301
0.335866
0.352489
0.367745
0.383166
0.399415
0.415994
0.431407
0.44312
0.447475
0.441146
0.427915
0.41157
0.367632
0.273669
0.118255
0.220497
0.244932
0.269368
0.291823
0.311209
0.327622
0.342126
0.356151
0.370828
0.386563
0.402893
0.41852
0.431573
0.439417
0.442567
0.431222
0.371615
0.264871
0.115062
0.202773
0.224523
0.247065
0.268547
0.287664
0.30406
0.318325
0.331645
0.345296
0.360203
0.376716
0.394622
0.413238
0.431774
0.447203
0.434446
0.361381
0.260872
0.116192
0.186709
0.205713
0.226171
0.246445
0.265139
0.281552
0.29585
0.308896
0.321883
0.33595
0.351906
0.370157
0.390706
0.413416
0.43594
0.424705
0.350961
0.267702
0.120907
0.172331
0.188544
0.206729
0.225544
0.243609
0.259981
0.274445
0.287501
0.300118
0.31341
0.328345
0.345578
0.365424
0.387849
0.41183
0.40609
0.343096
0.267191
0.127138
0.15969
0.173109
0.188843
0.205925
0.223105
0.2393
0.253968
0.267234
0.27976
0.292491
0.306371
0.322169
0.340445
0.361498
0.383427
0.384026
0.338519
0.263991
0.130948
0.148822
0.159517
0.172666
0.187728
0.203708
0.219504
0.234319
0.247914
0.260606
0.273088
0.286201
0.30078
0.317643
0.337356
0.357336
0.361574
0.328784
0.260425
0.130219
0.139702
0.147847
0.158366
0.171144
0.185553
0.200621
0.215405
0.229341
0.242382
0.254926
0.267653
0.281397
0.297069
0.315091
0.3325
0.336679
0.31191
0.25159
0.125971
0.132221
0.138095
0.14607
0.156382
0.168832
0.182736
0.197159
0.211292
0.224734
0.237553
0.250202
0.263406
0.27796
0.293912
0.308056
0.310666
0.289686
0.236651
0.118018
0.126201
0.130153
0.135807
0.143618
0.153778
0.166011
0.179581
0.193577
0.207286
0.22042
0.233134
0.245913
0.25926
0.272772
0.283212
0.283116
0.263438
0.215725
0.106595
0.121381
0.123823
0.127484
0.132931
0.140624
0.150703
0.162804
0.176117
0.189733
0.203008
0.215726
0.228014
0.239968
0.250752
0.257264
0.253881
0.233993
0.190286
0.0925218
0.117512
0.11881
0.120893
0.124273
0.129524
0.137126
0.147127
0.159041
0.171961
0.18496
0.19741
0.208995
0.219346
0.227261
0.229875
0.223126
0.202401
0.162142
0.0768717
0.114385
0.114836
0.115712
0.117434
0.120527
0.125562
0.132996
0.142752
0.154175
0.166234
0.177932
0.18848
0.197032
0.202096
0.201093
0.191325
0.169884
0.133055
0.0608787
0.111846
0.11168
0.111655
0.112098
0.113437
0.116195
0.120899
0.127891
0.136974
0.147241
0.157505
0.166564
0.173139
0.17551
0.171406
0.159361
0.13789
0.10497
0.0459327
0.109788
0.109181
0.1085
0.107987
0.107972
0.108869
0.111154
0.115247
0.121299
0.128926
0.136948
0.143966
0.148386
0.148347
0.141961
0.128846
0.108645
0.0804946
0.0339737
0.108151
0.107235
0.106085
0.104883
0.103869
0.103351
0.103691
0.105255
0.108281
0.112664
0.117735
0.12219
0.124345
0.122385
0.11516
0.103009
0.0862487
0.0640803
0.0279605
0.10691
0.105782
0.104309
0.102629
0.10092
0.0993998
0.0983213
0.0979452
0.0984668
0.0998852
0.101861
0.103652
0.103988
0.101467
0.0960255
0.0880286
0.0774614
0.0620805
0.0323286
0.106057
0.104797
0.10312
0.101137
0.0989862
0.0968265
0.0948316
0.0931717
0.0919764
0.0912886
0.0911377
0.0919513
0.0927409
0.0924582
0.0910394
0.0883955
0.0840672
0.0757844
0.0514141
0.10559
0.104273
0.1025
0.100372
0.0980067
0.095531
0.0930763
0.0907632
0.0886909
0.0870082
0.0866335
0.0927206
0.0954889
0.0963718
0.0965201
0.0962206
0.0956626
0.0947552
0.0885366
)
;

boundaryField
{
    leftWall
    {
        type            kqRWallFunction;
        value           nonuniform List<scalar> 
50
(
0.00171677
0.00315821
0.00446757
0.00568237
0.00677571
0.00779854
0.00879298
0.00982753
0.0108553
0.0119499
0.0127041
0.0135467
0.0139358
0.0142853
0.0125733
0.0125783
0.0133147
0.0141864
0.015043
0.0158254
0.0165073
0.0170725
0.0175334
0.0179094
0.0182175
0.0184709
0.0186823
0.0188736
0.0190735
0.0192278
0.0193324
0.0193898
0.0194057
0.0193879
0.0193467
0.0192947
0.0192474
0.019223
0.0192433
0.0193338
0.0195256
0.0198574
0.0203814
0.0211676
0.022325
0.0240365
0.0266469
0.0309291
0.0392654
0.0576331
)
;
    }
    rightWall
    {
        type            kqRWallFunction;
        value           nonuniform List<scalar> 
50
(
0.0294802
0.0685596
0.0892442
0.101526
0.109401
0.113337
0.113205
0.110782
0.109116
0.108467
0.108333
0.105156
0.0962292
0.0856077
0.0762046
0.0683714
0.0628899
0.0599409
0.0587294
0.0577151
0.0553535
0.0503765
0.0481655
0.0545341
0.0674507
0.0830597
0.0991576
0.112006
0.120288
0.12483
0.123794
0.118255
0.115062
0.116192
0.120907
0.127138
0.130948
0.130219
0.125971
0.118018
0.106595
0.0925218
0.0768717
0.0608787
0.0459327
0.0339737
0.0279605
0.0323286
0.0514141
0.0885366
)
;
    }
    lowerWall
    {
        type            kqRWallFunction;
        value           nonuniform List<scalar> 
62
(
0.00171677
0.00409149
0.00610523
0.00759861
0.00888724
0.00998762
0.0108974
0.0116642
0.0122812
0.0127586
0.0131429
0.0135175
0.0139258
0.0143504
0.0147205
0.014964
0.0150085
0.0147788
0.0142065
0.0131605
0.0111398
0.00793878
0.00431202
0.00431202
0.00927706
0.0134709
0.0190915
0.0274697
0.0399994
0.0587939
0.0891572
0.116976
0.114436
0.119534
0.133274
0.0472213
0.0632305
0.0606708
0.0542714
0.049026
0.0593768
0.100784
0.141268
0.0472213
0.0760352
0.103748
0.105982
0.0952135
0.0873037
0.0828643
0.0817455
0.0828088
0.0828397
0.0788659
0.0733392
0.0670424
0.0631174
0.0605439
0.0564932
0.0508491
0.0408713
0.0294802
)
;
    }
    atmosphere
    {
        type            inletOutlet;
        inletValue      uniform 0.1;
        value           nonuniform List<scalar> 
46
(
0.0576331
0.1
0.1
0.1
0.1
0.1
0.1
0.1
0.1
0.1
0.1
0.0972151
0.0970619
0.0970808
0.0974832
0.0982579
0.0993535
0.100689
0.102147
0.103587
0.104862
0.105847
0.106444
0.10656
0.106529
0.106392
0.106151
0.10559
0.104273
0.1025
0.100372
0.0980067
0.095531
0.0930763
0.0907632
0.0886909
0.0870082
0.0866335
0.1
0.1
0.1
0.1
0.1
0.1
0.1
0.1
)
;
    }
    defaultFaces
    {
        type            empty;
    }
}


// ************************************************************************* //
