/*--------------------------------*- C++ -*----------------------------------*\
  =========                 |
  \\      /  F ield         | OpenFOAM: The Open Source CFD Toolbox
   \\    /   O peration     | Website:  https://openfoam.org
    \\  /    A nd           | Version:  13
     \\/     M anipulation  |
\*---------------------------------------------------------------------------*/
FoamFile
{
    format      ascii;
    class       volScalarField;
    location    "0.65";
    object      nut;
}
// * * * * * * * * * * * * * * * * * * * * * * * * * * * * * * * * * * * * * //

dimensions      [0 2 -1 0 0 0 0];

internalField   nonuniform List<scalar> 
2268
(
2.76687e-05
4.26354e-05
5.20612e-05
5.80818e-05
6.2803e-05
6.65464e-05
6.94988e-05
7.19419e-05
7.38193e-05
7.52342e-05
7.64019e-05
7.76499e-05
7.89763e-05
8.0285e-05
8.13829e-05
8.21119e-05
8.23314e-05
8.18833e-05
8.06896e-05
7.80298e-05
7.19662e-05
6.06175e-05
4.40886e-05
7.93327e-05
0.000269207
0.000391988
0.000482285
0.00054966
0.000600155
0.000638263
0.000664203
0.000679812
0.000689381
0.000698281
0.000708992
0.000722393
0.000736427
0.000749435
0.000762498
0.000777745
0.000795639
0.000808657
0.000788103
0.000696242
0.000483658
0.000137488
9.43858e-05
0.000401021
0.000671494
0.000877029
0.00103341
0.00115239
0.00124255
0.00130667
0.00134956
0.00137846
0.00140209
0.00142549
0.00145155
0.00147875
0.00150554
0.00153507
0.00157001
0.00160561
0.00161688
0.00153846
0.00128773
0.000802
0.000167093
0.000106621
0.000498404
0.000892834
0.00119996
0.00143902
0.0016256
0.00176976
0.00187662
0.00195331
0.0020087
0.00205312
0.00209354
0.00213491
0.00217752
0.00222152
0.00227144
0.00232815
0.00237848
0.00237625
0.00222549
0.00181233
0.0010738
0.000200646
0.000116545
0.000608509
0.00109595
0.00148214
0.00179068
0.00203785
0.00223295
0.00238318
0.0024968
0.00258298
0.00265347
0.00271604
0.00277761
0.0028404
0.00290678
0.0029817
0.00306296
0.00312912
0.00311273
0.00289674
0.00233691
0.0013542
0.000241521
0.00012519
0.000741221
0.00129535
0.001741
0.0021064
0.00240614
0.00264839
0.00284128
0.00299291
0.00311353
0.00321513
0.00330497
0.00339172
0.00347935
0.0035724
0.00367535
0.00378287
0.00386694
0.00384461
0.00358503
0.00290908
0.00168536
0.000290717
0.000133296
0.000874589
0.00148654
0.00198146
0.00239544
0.00274252
0.00302927
0.00326336
0.00345426
0.00361285
0.00374944
0.0038705
0.00398646
0.00410204
0.0042239
0.0043557
0.00449001
0.00459535
0.00458104
0.00431064
0.00357001
0.00211807
0.000350909
0.000141229
0.000984654
0.00165952
0.00220206
0.00266148
0.00305395
0.00338542
0.003663
0.00389545
0.00409249
0.00426392
0.00441908
0.00456671
0.00471124
0.00486195
0.0050217
0.00518275
0.00531369
0.00532327
0.00508074
0.00435578
0.00274825
0.00043114
0.000146657
0.000183755
0.000213305
0.000215881
0.000205099
0.000195981
0.000190089
0.000188106
0.000189432
0.00019118
0.000187334
0.000181325
0.000172233
0.000165021
0.000161319
0.000156198
0.000148304
0.000131628
0.000118545
0.000398556
0.000745785
0.00114502
0.00122676
0.00131162
0.00140832
0.00148678
0.00154654
0.00157637
0.00155709
0.00146108
0.00127828
0.00115375
0.00116561
0.00118306
0.00110289
0.000985633
0.000825884
0.000409443
0.000388983
0.00110178
0.00141272
0.00174291
0.00224291
0.00270692
0.00304139
0.00324371
0.00331404
0.00324689
0.00305876
0.00279727
0.00263244
0.00258501
0.00249592
0.0022378
0.00186826
0.00143384
0.000472829
0.000368653
0.00112038
0.00164761
0.00241882
0.00331854
0.00407585
0.00460914
0.00491867
0.0050173
0.00492594
0.00469397
0.00438668
0.00415062
0.00398618
0.0037519
0.00333541
0.00276217
0.00200624
0.00050274
0.00035223
0.00107441
0.00205909
0.00330495
0.00452558
0.00547563
0.00611893
0.0064755
0.00657557
0.00645812
0.00618903
0.00583867
0.0055144
0.00521091
0.00481888
0.00425209
0.00351106
0.0024609
0.000521934
0.000398494
0.00121031
0.00266303
0.00433788
0.00579091
0.00683974
0.00751473
0.00786867
0.00794616
0.0077941
0.00748256
0.00708093
0.00666001
0.00621634
0.0056693
0.00495994
0.00407983
0.00278368
0.000531974
0.00051595
0.00159011
0.00352274
0.00552636
0.00707899
0.00812714
0.00877289
0.00909132
0.00912932
0.00893386
0.0085711
0.0081075
0.00758579
0.00701014
0.00631832
0.00546534
0.00446295
0.00299991
0.000533009
0.000611619
0.00233184
0.00477145
0.00687593
0.0083566
0.00931657
0.00989244
0.010156
0.010145
0.00989983
0.0094782
0.00893909
0.00831813
0.00761951
0.00679545
0.00581011
0.00469981
0.00308864
0.000523611
0.000148869
0.00112353
0.00189943
0.00251971
0.00305282
0.00351785
0.00392193
0.00427116
0.00457243
0.00483296
0.00506077
0.0052669
0.00546107
0.00564982
0.00584213
0.00604144
0.00624278
0.00640713
0.00646294
0.00630597
0.00575373
0.00455118
0.00254955
0.000156869
0.0012682
0.00216804
0.00288848
0.00351489
0.00407247
0.00456907
0.00500913
0.00539721
0.00573848
0.0060395
0.00630953
0.00655964
0.00680234
0.00704894
0.00730477
0.0075617
0.00778932
0.00795066
0.00798499
0.00779444
0.00725008
0.0062417
0.0001623
0.00137992
0.00238741
0.00320216
0.00391887
0.00456563
0.00515047
0.00567654
0.00614679
0.00656523
0.00693787
0.00727267
0.00757976
0.00787124
0.00815872
0.00845065
0.00874462
0.00903084
0.00929806
0.00952091
0.00966031
0.00967554
0.00956676
0.000167689
0.00145787
0.00255481
0.00345472
0.00425503
0.00498373
0.00564825
0.00625092
0.00679365
0.00727992
0.00771642
0.00811083
0.00847198
0.00880999
0.00913549
0.00945545
0.00977717
0.0101123
0.0104664
0.0108376
0.0112193
0.0116032
0.0119942
0.000170093
0.00148805
0.00264768
0.00362154
0.00449857
0.00530248
0.0060392
0.00671032
0.00731672
0.00786095
0.00835209
0.00879845
0.00920754
0.00958619
0.00994216
0.0102906
0.0106502
0.0110404
0.0114769
0.0119706
0.012525
0.0131279
0.0137534
0.000173331
0.00141859
0.00260963
0.0036517
0.00460748
0.00548884
0.00629876
0.00703787
0.00770639
0.00830201
0.00883971
0.00932982
0.00977753
0.0101873
0.0105746
0.0109617
0.0113734
0.011832
0.0123553
0.0129575
0.013644
0.0144062
0.0152253
0.000161063
0.00115185
0.00234906
0.00346652
0.00451804
0.00549409
0.00638996
0.00720278
0.0079329
0.00858266
0.00917194
0.00971388
0.0102046
0.0106491
0.0110717
0.0115053
0.0119807
0.0125204
0.0131389
0.0138473
0.0146532
0.0155956
0.0165927
0.000158938
0.00106412
0.00217729
0.00330065
0.00439357
0.00542891
0.00638703
0.00725598
0.00803171
0.00872202
0.00934258
0.00990671
0.0104187
0.0108908
0.0113493
0.0118294
0.0123662
0.0129848
0.0136935
0.014478
0.0153326
0.0163032
0.0173049
0.000162792
0.00108811
0.00216561
0.00327033
0.00436416
0.00541333
0.00639212
0.00728587
0.00809115
0.00881311
0.00946289
0.0100498
0.0105808
0.0110732
0.011555
0.0120618
0.0126307
0.0132901
0.0140454
0.0148677
0.0157046
0.0165603
0.017454
0.000167929
0.00116012
0.00227521
0.00338408
0.00446794
0.00550515
0.00647595
0.00736805
0.00817843
0.00891041
0.00957212
0.0101714
0.010717
0.0112249
0.0117204
0.0122369
0.012812
0.0134757
0.0142314
0.0150404
0.0158553
0.0166693
0.0175032
0.000172957
0.00125058
0.00244405
0.00358636
0.00467165
0.00569398
0.00664521
0.00751982
0.00831739
0.00904128
0.0096987
0.0102971
0.0108456
0.0113588
0.0118592
0.0123775
0.0129491
0.0136023
0.0143369
0.015114
0.0159025
0.0166954
0.0174876
0.000177423
0.00133933
0.00262323
0.00381699
0.00491916
0.00593551
0.00686881
0.00772128
0.00849612
0.00919953
0.00983911
0.010423
0.0109608
0.0114667
0.0119609
0.0124712
0.0130297
0.0136615
0.0143638
0.0151027
0.015858
0.0166232
0.0173846
0.000181303
0.00141786
0.00278766
0.00403785
0.00516643
0.00618626
0.0071079
0.00793982
0.00869045
0.00936854
0.00998302
0.0105432
0.0110599
0.011547
0.0120237
0.0125152
0.0130503
0.0136511
0.0143145
0.0150115
0.0157264
0.016456
0.0171854
0.000184519
0.00148435
0.00292808
0.00423082
0.00538824
0.0064169
0.00733272
0.00814931
0.00887871
0.00953201
0.0101198
0.0106527
0.0111426
0.0116037
0.0120543
0.0125179
0.0130206
0.0135823
0.0142017
0.0148534
0.0155234
0.0162108
0.0169028
0.000187106
0.00154093
0.00304571
0.00439288
0.00557671
0.00661593
0.0075298
0.00833528
0.00904713
0.00967846
0.0102413
0.0107474
0.0112092
0.0116412
0.0120611
0.0124909
0.0129547
0.0134715
0.0140425
0.0146465
0.0152696
0.01591
0.0165587
0.000189191
0.00158936
0.00314408
0.0045273
0.00573306
0.00678173
0.00769487
0.00849178
0.00918923
0.00980186
0.0103428
0.0108245
0.0112597
0.0116627
0.0120507
0.0124441
0.0128657
0.0133339
0.0138532
0.0144079
0.0149827
0.0155738
0.0161749
0.000190882
0.00163094
0.00322612
0.00463765
0.00586039
0.00691622
0.00782846
0.00861814
0.00930352
0.00990037
0.0104226
0.010883
0.0112943
0.0116704
0.0120274
0.0123846
0.0127631
0.0131814
0.0136472
0.0141507
0.0146761
0.015217
0.0157679
0.000192263
0.00166643
0.00329423
0.00472748
0.00596257
0.00702297
0.0079335
0.00871653
0.00939144
0.00997482
0.0104811
0.0109232
0.0113136
0.0116656
0.0119941
0.0123168
0.0126534
0.0130223
0.0134336
0.0138832
0.0143576
0.0148469
0.0153457
0.000193402
0.00169592
0.00335003
0.00479971
0.0060433
0.00710592
0.00801376
0.0087903
0.00945581
0.0100275
0.01052
0.0109464
0.0113188
0.0116496
0.0119525
0.0122434
0.0125406
0.0128617
0.0132188
0.0136123
0.0140324
0.0144687
0.0149157
0.000194414
0.00171875
0.00339427
0.00485645
0.00610565
0.00716865
0.00807292
0.00884302
0.0094999
0.0100612
0.0105418
0.0109547
0.0113115
0.0116237
0.0119037
0.012166
0.0124267
0.0127026
0.0130068
0.0133435
0.0137072
0.014089
0.0144835
0.000195489
0.0017348
0.00342716
0.00489899
0.006152
0.00721405
0.00811415
0.0088779
0.00952681
0.0100788
0.010549
0.01095
0.0112932
0.0115892
0.0118492
0.0120857
0.0123131
0.0125469
0.0128004
0.0130807
0.0133864
0.0137115
0.0140517
0.000196328
0.00174953
0.00345462
0.00493198
0.00618503
0.00724434
0.00813983
0.00889749
0.00953914
0.0100829
0.0105439
0.0109346
0.0112659
0.0115477
0.01179
0.0120037
0.0122012
0.0123963
0.0126019
0.0128269
0.0130736
0.0133397
0.0136228
0.000196906
0.00176183
0.00347599
0.00495589
0.00620731
0.00726278
0.00815315
0.00890477
0.00953961
0.0100759
0.0105286
0.0109103
0.0112313
0.0115009
0.0117278
0.0119214
0.0120923
0.0122523
0.0124134
0.0125853
0.012773
0.0129778
0.0132003
0.000197238
0.00177127
0.00349073
0.00497049
0.00621894
0.00727009
0.00815542
0.00890145
0.00953019
0.0100599
0.0105055
0.0108793
0.0111915
0.0114506
0.0116643
0.0118406
0.0119881
0.0121167
0.0122372
0.012359
0.0124891
0.0126315
0.01279
0.000197352
0.00177764
0.00349845
0.00497556
0.00621991
0.00726659
0.0081473
0.00888846
0.009512
0.0100361
0.0104756
0.0108429
0.0111476
0.0113979
0.0116006
0.0117622
0.0118898
0.0119912
0.0120754
0.0121514
0.0122265
0.0123071
0.0123995
0.000197287
0.0017809
0.00349903
0.00497102
0.00621032
0.00725253
0.00812916
0.0088663
0.00948559
0.0100051
0.0104397
0.0108015
0.0111002
0.0113434
0.0115372
0.0116871
0.0117983
0.0118769
0.01193
0.0119652
0.0119901
0.0120114
0.0120376
0.000197092
0.00178115
0.00349262
0.00495714
0.0061905
0.00722829
0.00810139
0.00883525
0.00945114
0.00996696
0.0103976
0.0107552
0.0110492
0.011287
0.0114741
0.011615
0.0117136
0.0117742
0.0118018
0.0118026
0.0117833
0.0117506
0.0117133
0.000196832
0.00177866
0.00347973
0.00493463
0.00616125
0.00719462
0.00806455
0.00879568
0.0094088
0.00992162
0.0103491
0.0107033
0.0109939
0.0112279
0.0114105
0.0115452
0.011635
0.0116825
0.0116909
0.0116644
0.0116084
0.0115291
0.0114342
0.000196581
0.00177388
0.00346126
0.00490474
0.00612393
0.00715277
0.00801967
0.00874825
0.00935881
0.00986892
0.0102936
0.0106452
0.0109333
0.0111649
0.0113449
0.0114763
0.011561
0.0116003
0.0115959
0.0115499
0.0114659
0.0113489
0.0112057
0.000196432
0.00176749
0.00343864
0.00486939
0.00608067
0.00710475
0.00796837
0.00869409
0.00930174
0.00980888
0.0102307
0.0105798
0.010866
0.0110963
0.0112755
0.011406
0.0114892
0.0115252
0.0115142
0.0114566
0.011354
0.0112095
0.0110287
0.000196493
0.00176041
0.00341385
0.00483136
0.00603452
0.00705348
0.00791311
0.00863499
0.00923866
0.00974183
0.0101601
0.0105063
0.0107906
0.0110203
0.0111999
0.0113317
0.0114165
0.0114535
0.0114418
0.0113803
0.0112686
0.0111078
0.0109013
0.000196893
0.00175388
0.00338958
0.00479439
0.00598969
0.007003
0.00785737
0.00857359
0.00917126
0.00966857
0.0100816
0.0104238
0.0107057
0.0109347
0.0111154
0.0112501
0.0113391
0.0113811
0.0113741
0.0113157
0.0112038
0.0110377
0.0108183
0.000197784
0.00174945
0.00336937
0.00476346
0.00595177
0.00695877
0.00780583
0.00851352
0.00910203
0.00959043
0.00999565
0.0103318
0.0106098
0.0108374
0.0110193
0.0111579
0.011253
0.011303
0.0113053
0.0112562
0.0111524
0.0109911
0.0107712
0.000199354
0.0017491
0.00335778
0.0047451
0.00592812
0.00692789
0.00776463
0.00845956
0.0090343
0.0095094
0.009903
0.01023
0.0105018
0.0107264
0.0109089
0.0110513
0.0111538
0.0112143
0.0112295
0.0111952
0.0111065
0.0109591
0.0107498
0.000201863
0.00175535
0.00336082
0.00474791
0.00592834
0.0069195
0.00774151
0.00841766
0.00897225
0.0094281
0.00980492
0.0101185
0.0103808
0.0106001
0.0107813
0.0109271
0.0110372
0.0111098
0.011141
0.0111258
0.0110583
0.0109325
0.0107435
0.000205601
0.00177159
0.00338673
0.00478364
0.00596515
0.00694519
0.00774588
0.00839487
0.00892077
0.00934963
0.00970307
0.00999787
0.0102463
0.0104567
0.0106344
0.010782
0.0108997
0.0109852
0.0110347
0.0110422
0.0110008
0.0109031
0.0107424
0.000210993
0.00180276
0.00344788
0.00486928
0.00605581
0.00701959
0.00778877
0.0083989
0.00888503
0.00927726
0.00959931
0.00986873
0.0100979
0.0102953
0.0104663
0.0106137
0.010738
0.0108373
0.010907
0.0109404
0.0109293
0.0108648
0.0107384
0.000218733
0.00185722
0.00356513
0.00503143
0.00622462
0.00716086
0.00788222
0.00843725
0.00886959
0.00921379
0.00949527
0.00973183
0.00993562
0.010115
0.0102755
0.0104206
0.0105512
0.0106653
0.0107575
0.0108198
0.0108423
0.0108146
0.0107267
0.00023005
0.00195241
0.00377916
0.00531544
0.00650652
0.00739045
0.00803749
0.00851532
0.00887708
0.00916069
0.00939184
0.00958753
0.00975928
0.00991547
0.0100623
0.0102041
0.0103421
0.0104733
0.0105909
0.0106848
0.0107433
0.0107542
0.0107062
0.000247485
0.00213577
0.00418289
0.00580396
0.00695066
0.00772989
0.00826094
0.00863332
0.0089062
0.00911685
0.00928839
0.0094354
0.0095689
0.00969844
0.00983139
0.00997227
0.0101216
0.0102744
0.0104207
0.0105481
0.0106426
0.0106908
0.0106804
0.000277769
0.002586
0.00502207
0.00664848
0.00761491
0.00818904
0.00854581
0.00878192
0.00894962
0.00907767
0.00918225
0.00927423
0.00936717
0.00947495
0.00960186
0.00975005
0.00991781
0.0100963
0.0102724
0.010431
0.010557
0.0106361
0.010656
0.000329925
0.00427328
0.00700228
0.00806979
0.00851735
0.00873679
0.0088605
0.00893876
0.0089935
0.00903529
0.00906961
0.00911105
0.00918004
0.00929182
0.00943062
0.00959548
0.00978366
0.00998396
0.0101816
0.0103608
0.0105061
0.0106035
0.0106407
0.000497378
0.000493284
0.000506069
0.000537048
0.00507674
0.00496446
0.00509654
0.00544594
0.00949429
0.00959597
0.00984386
0.0102281
0.0123084
0.0125502
0.0128308
0.013145
0.0141894
0.0144903
0.0148077
0.0151512
0.0157857
0.0161947
0.0166424
0.0171172
0.0171606
0.017557
0.0179501
0.0183142
0.0178756
0.0182396
0.0185238
0.0187409
0.0179959
0.0183494
0.0186294
0.0188333
0.0180042
0.0183358
0.0186084
0.0188123
0.0179606
0.0182732
0.0185353
0.0187372
0.017839
0.0181388
0.0183944
0.0185973
0.017625
0.0179165
0.0181698
0.0183772
0.0173269
0.0176113
0.0178635
0.0180769
0.0169643
0.0172401
0.0174903
0.0177086
0.0165583
0.0168231
0.0170685
0.0172888
0.0161257
0.0163762
0.0166124
0.0168296
0.0156752
0.0159077
0.0161307
0.0163395
0.0152156
0.0154277
0.0156344
0.0158312
0.0147522
0.0149424
0.0151303
0.0153122
0.0142872
0.0144544
0.0146217
0.0147863
0.0138223
0.0139651
0.01411
0.0142549
0.0133605
0.0134768
0.013597
0.0137197
0.0129068
0.0129943
0.0130871
0.0131844
0.0124691
0.0125253
0.0125877
0.0126561
0.0120573
0.0120803
0.0121097
0.0121458
0.0116823
0.0116712
0.0116657
0.0116671
0.0113543
0.0113097
0.0112693
0.0112347
0.0110814
0.0110059
0.0109322
0.0108626
0.0108681
0.0107658
0.0106626
0.0105609
0.0107135
0.0105904
0.0104635
0.0103349
0.0106134
0.0104759
0.0103316
0.0101827
0.0105599
0.0104152
0.0102608
0.0100983
0.0105422
0.0103975
0.0102403
0.0100721
0.0105487
0.0104102
0.0102573
0.0100909
0.0105677
0.0104408
0.0102982
0.0101401
0.0105897
0.0104784
0.0103505
0.0102059
0.0106074
0.0105145
0.0104044
0.0102767
0.0106174
0.0105438
0.0104525
0.0103432
0.01062
0.0105642
0.0104906
0.0103987
0.0106181
0.0105765
0.0105169
0.0104388
0.0106155
0.010582
0.0105303
0.0104601
0.00217167
0.00470716
0.00712054
0.00893801
0.0101567
0.0109354
0.0113894
0.0115597
0.0114666
0.0111419
0.010631
0.00997889
0.00921233
0.00833332
0.00732266
0.00617007
0.00491507
0.00312209
0.000512727
0.00699427
0.00893629
0.0104744
0.0115686
0.0123211
0.0128143
0.0130586
0.0130442
0.0127822
0.0123031
0.0116362
0.0108098
0.00984566
0.00875548
0.00755595
0.0062676
0.00489391
0.00307186
0.000507994
0.0110969
0.0121979
0.0130694
0.0137255
0.0142085
0.0144699
0.0144576
0.0141918
0.0137113
0.0130504
0.0122191
0.01123
0.0101009
0.00885258
0.00752226
0.00614941
0.00470435
0.00295785
0.000508537
0.0137595
0.0145368
0.0152498
0.015817
0.0161319
0.0160463
0.0156381
0.0150305
0.0143008
0.0134587
0.0124786
0.0113549
0.0101011
0.00874064
0.00732327
0.00590088
0.00441441
0.00275642
0.000513439
0.0158865
0.0167191
0.0175044
0.0185825
0.0184742
0.0174339
0.0164908
0.015516
0.0145767
0.01359
0.0124887
0.0112617
0.00992259
0.00849431
0.00701795
0.00554315
0.0040576
0.0024761
0.000497957
0.0179958
0.0186304
0.0193668
0.0198748
0.0193963
0.018409
0.016837
0.0156435
0.0145991
0.0135126
0.0123202
0.011025
0.00964298
0.00819074
0.0066877
0.00516923
0.00364599
0.00212714
0.000470355
0.0188674
0.0192414
0.0195549
0.019407
0.0192486
0.0183875
0.0168168
0.0155997
0.0144751
0.0132984
0.012036
0.0107048
0.0093205
0.00788742
0.00640019
0.00487359
0.00333006
0.00183088
0.000443817
0.0190896
0.0192322
0.0192168
0.0191059
0.0190821
0.0182164
0.0167711
0.0155035
0.0142779
0.0130096
0.011692
0.0103487
0.00899109
0.00760985
0.00618301
0.00469548
0.00317035
0.00168786
0.000417758
0.0191296
0.0191672
0.0190555
0.0190329
0.0190846
0.0181731
0.016724
0.0153752
0.0140472
0.0126985
0.0113386
0.00999316
0.00867096
0.00735624
0.0060138
0.00460184
0.0031252
0.00164934
0.000395782
0.0190977
0.0191142
0.0190076
0.0190571
0.0191158
0.0181498
0.0166616
0.0152372
0.0138302
0.0124211
0.0110248
0.00966844
0.00836487
0.00710155
0.00583955
0.00452461
0.00312232
0.00166679
0.000381234
0.0190205
0.0190558
0.0189767
0.0190513
0.0191208
0.0181547
0.0166195
0.0151414
0.0136849
0.0122331
0.0107976
0.00940694
0.0080847
0.00683248
0.00562133
0.00439651
0.00308921
0.00168667
0.000373893
0.0188865
0.0189559
0.0188992
0.0189638
0.0191028
0.0182355
0.0166487
0.0151375
0.0136556
0.0121759
0.0106991
0.00925066
0.0078664
0.00657004
0.00535428
0.00417712
0.00297119
0.00166256
0.000369077
0.01868
0.0187891
0.0187514
0.0187896
0.0190433
0.0183705
0.0167807
0.0152532
0.013762
0.0122699
0.010761
0.00924861
0.00777343
0.00638136
0.00509557
0.00390095
0.0027462
0.00156052
0.000360486
0.0183967
0.0185485
0.0185333
0.0185285
0.0187622
0.0185016
0.0170559
0.0154992
0.0140043
0.0125154
0.010996
0.00943946
0.00787744
0.00636683
0.00496013
0.00367945
0.00250597
0.00139164
0.000342487
0.0180448
0.01824
0.0182534
0.0182115
0.0183163
0.0184273
0.0174114
0.0158611
0.0143752
0.0129002
0.0113936
0.00982865
0.00821705
0.00660908
0.00507176
0.00366195
0.00240488
0.00129044
0.00034363
0.0176366
0.0178725
0.0179222
0.0178692
0.0178503
0.0179465
0.0176019
0.0163633
0.0148773
0.0134114
0.0119273
0.0103833
0.0087674
0.00711042
0.00547272
0.00392712
0.00253705
0.00133853
0.000377615
0.0171796
0.0174474
0.0175369
0.0174943
0.0174098
0.0174006
0.017325
0.0167446
0.0154902
0.0140408
0.01257
0.0110551
0.00946099
0.00779422
0.00609275
0.00442609
0.00287517
0.00151885
0.000425672
0.0166849
0.0169777
0.017107
0.0170935
0.016993
0.0168973
0.0168323
0.0165904
0.0158823
0.0146995
0.0132833
0.0118003
0.010232
0.00857017
0.00681935
0.00504601
0.0033403
0.00182343
0.000474081
0.0161652
0.0164744
0.01664
0.016666
0.0165851
0.0164601
0.0163473
0.0161904
0.0157966
0.015031
0.0139411
0.0125579
0.0110311
0.00938165
0.00757141
0.00569018
0.00384998
0.00229665
0.000516474
0.0156288
0.0159451
0.016141
0.0162092
0.0161668
0.0160548
0.0159232
0.0157732
0.0155137
0.0150174
0.0142291
0.0131421
0.0117483
0.0101353
0.0082947
0.00637281
0.00458852
0.00301354
0.000541102
0.0150801
0.0153944
0.0156127
0.0157203
0.0157228
0.0156462
0.0155278
0.0153868
0.0151889
0.0148494
0.0142827
0.0134559
0.0122975
0.0108342
0.0090932
0.00732496
0.00567536
0.00371391
0.000556222
0.0145208
0.0148238
0.0150556
0.0151964
0.0152431
0.0152106
0.0151254
0.0150085
0.0148523
0.0146106
0.0142069
0.0135645
0.012614
0.011298
0.00973911
0.00814334
0.00645943
0.00412334
0.0005645
0.0139521
0.0142342
0.0144698
0.0146357
0.0147218
0.0147342
0.0146907
0.0146092
0.0144919
0.0143127
0.0140143
0.0135144
0.01273
0.0116103
0.0102049
0.00866433
0.00692304
0.00437181
0.000557145
0.0133771
0.0136277
0.013856
0.0140375
0.0141558
0.0142096
0.0142092
0.014168
0.0140903
0.0139596
0.0137321
0.0133379
0.0126913
0.0117285
0.0104696
0.00898877
0.00718106
0.0044001
0.00054398
0.0128023
0.0130094
0.0132182
0.013404
0.0135458
0.0136351
0.0136753
0.0136748
0.0136366
0.0135483
0.0133744
0.0130554
0.0125148
0.0116817
0.010552
0.00911991
0.007236
0.00428032
0.000546266
0.0122386
0.012389
0.0125643
0.0127413
0.012896
0.0130133
0.0130898
0.013128
0.013128
0.0130778
0.0129456
0.0126778
0.0122055
0.0114718
0.0104557
0.00906962
0.00715253
0.00426914
0.000560173
0.0117007
0.0117812
0.0119073
0.0120603
0.0122151
0.0123513
0.0124581
0.0125319
0.0125681
0.0125528
0.0124542
0.0122213
0.0117917
0.0111207
0.0102134
0.00893637
0.00709812
0.00436757
0.000578234
0.0112055
0.0112044
0.011265
0.0113768
0.0115165
0.01166
0.0117898
0.0118948
0.0119653
0.0119834
0.0119163
0.0117145
0.0113232
0.0107105
0.0099014
0.00877095
0.00707163
0.00440718
0.000590604
0.0107703
0.0106791
0.010659
0.0107109
0.0108176
0.0109541
0.0110967
0.0112273
0.0113295
0.0113813
0.0113483
0.0111836
0.0108405
0.0102991
0.00957862
0.00859336
0.00706433
0.0044199
0.000589585
0.0104094
0.0102253
0.0101128
0.0100862
0.0101396
0.0102511
0.0103933
0.0105408
0.0106703
0.0107552
0.0107599
0.0106406
0.0103572
0.00989567
0.00926288
0.00838007
0.00697377
0.00441416
0.000581838
0.010132
0.00985938
0.00964851
0.00952785
0.00950655
0.00957153
0.00969553
0.0098473
0.00999631
0.0101108
0.0101537
0.0100832
0.00986273
0.00947635
0.00891786
0.00810247
0.00678415
0.00434548
0.000568164
0.00994036
0.00959083
0.00928398
0.0090596
0.0089438
0.00893823
0.0090215
0.00915966
0.0093155
0.00945132
0.0095274
0.00950225
0.00933938
0.009017
0.00851582
0.00775346
0.00650754
0.00420719
0.000546841
0.00982829
0.00942057
0.00902905
0.00870057
0.00847621
0.00837617
0.00839217
0.00849314
0.00863728
0.00878049
0.00887873
0.00888859
0.00877131
0.00849819
0.00804014
0.00732004
0.00614561
0.00399835
0.000517604
0.00978711
0.00933906
0.00888308
0.00846142
0.00812452
0.00791106
0.00783194
0.00786696
0.00797457
0.00810513
0.00820871
0.00823779
0.00814967
0.00790919
0.00748115
0.0067981
0.00569866
0.00372635
0.000481208
0.00980378
0.00933529
0.00883401
0.00833978
0.00790119
0.00756618
0.00736831
0.00730614
0.0073466
0.00743823
0.00752498
0.00755341
0.00747558
0.00725076
0.00684091
0.00619176
0.00517378
0.00339968
0.000438618
0.00986243
0.00939315
0.00886889
0.00832319
0.00780206
0.00735665
0.00702867
0.00684176
0.00678133
0.00680212
0.00684476
0.00684937
0.00676186
0.00653648
0.00613457
0.00551733
0.00458641
0.00302735
0.000391116
0.00994706
0.00949384
0.00896796
0.00839559
0.00781595
0.007278
0.00683071
0.00650763
0.0063161
0.00623134
0.00619807
0.0061526
0.00603483
0.00579429
0.00539324
0.00480856
0.00396921
0.0026283
0.000341269
0.010043
0.00961832
0.00910832
0.00853256
0.00792232
0.00731972
0.00677249
0.00632286
0.00599277
0.00577273
0.00563072
0.00550686
0.00533876
0.00507272
0.00467505
0.0041353
0.00339847
0.00225396
0.000296207
0.0101376
0.00974846
0.00926599
0.00870487
0.0080895
0.00745397
0.00683953
0.00628794
0.00583046
0.00547576
0.00520436
0.00497923
0.00475002
0.00446605
0.00410904
0.00366839
0.0030703
0.00203727
0.000273595
0.0102203
0.0098673
0.0094168
0.00888051
0.00827809
0.00763707
0.00699131
0.00637707
0.00582629
0.00535844
0.00497705
0.00467746
0.00443468
0.00422428
0.00404303
0.00384492
0.00341456
0.00218313
0.000297505
0.0102822
0.0099592
0.00953711
0.00902631
0.00844398
0.00781372
0.00716411
0.00652608
0.0059293
0.00540174
0.0049888
0.00482999
0.00487537
0.00500208
0.00517571
0.00524819
0.00474349
0.0027497
0.000367443
0.010316
0.0100103
0.00960529
0.00911096
0.00854359
0.0079252
0.00728209
0.00664273
0.00603724
0.00551249
0.00525345
0.00642651
0.00713276
0.0074525
0.00763315
0.00764681
0.00702068
0.00417942
0.000471497
)
;

boundaryField
{
    leftWall
    {
        type            nutkWallFunction;
        Cmu             0.09;
        kappa           0.41;
        E               9.8;
        value           nonuniform List<scalar> 
50
(
3.10041e-06
8.11056e-06
9.49667e-06
1.06932e-05
1.31834e-05
1.47173e-05
1.55653e-05
1.63928e-05
1.71685e-05
1.79511e-05
1.84675e-05
1.90295e-05
1.94212e-05
1.55405e-05
1.39823e-05
1.39869e-05
1.46666e-05
1.54441e-05
1.61821e-05
1.68355e-05
1.739e-05
1.78399e-05
1.82005e-05
1.84907e-05
1.8726e-05
1.89177e-05
1.90766e-05
1.92195e-05
1.93679e-05
1.94819e-05
1.95588e-05
1.96009e-05
1.96126e-05
1.95996e-05
1.95693e-05
1.95311e-05
1.94963e-05
1.94783e-05
1.94933e-05
1.95598e-05
1.97004e-05
1.99416e-05
2.03178e-05
2.08723e-05
2.16676e-05
2.28018e-05
2.44468e-05
2.69581e-05
3.13334e-05
3.93933e-05
)
;
    }
    rightWall
    {
        type            nutkWallFunction;
        Cmu             0.09;
        kappa           0.41;
        E               9.8;
        value           nonuniform List<scalar> 
50
(
1.14241e-05
3.65728e-05
4.12025e-05
4.36323e-05
4.50937e-05
4.58467e-05
4.60438e-05
4.63695e-05
4.66326e-05
4.56454e-05
4.49539e-05
4.52294e-05
4.413e-05
4.69632e-05
4.64756e-05
4.4017e-05
4.23696e-05
4.14507e-05
4.10661e-05
4.07411e-05
3.99721e-05
3.82903e-05
3.75139e-05
3.97011e-05
4.37421e-05
4.82246e-05
5.27862e-05
5.51253e-05
5.69453e-05
5.79153e-05
5.76951e-05
5.65325e-05
6.04665e-05
6.49386e-05
6.63024e-05
6.80705e-05
6.91337e-05
6.89151e-05
6.7731e-05
6.5468e-05
6.2063e-05
5.75724e-05
5.20976e-05
4.58095e-05
3.9022e-05
3.26221e-05
2.89128e-05
3.16469e-05
4.16385e-05
5.62285e-05
)
;
    }
    lowerWall
    {
        type            nutkWallFunction;
        Cmu             0.09;
        kappa           0.41;
        E               9.8;
        value           nonuniform List<scalar> 
62
(
3.10041e-06
4.61141e-06
5.5341e-06
6.11388e-06
6.56572e-06
6.9239e-06
7.20408e-06
7.43043e-06
7.60672e-06
7.73985e-06
7.84505e-06
7.94598e-06
8.05429e-06
8.16509e-06
8.26022e-06
8.32209e-06
8.33334e-06
8.27507e-06
8.12773e-06
7.84983e-06
7.27655e-06
6.23703e-06
4.7232e-06
4.7232e-06
1.32426e-05
1.56938e-05
1.83961e-05
2.17158e-05
2.57783e-05
3.07375e-05
3.71843e-05
4.32989e-05
4.28605e-05
4.36849e-05
4.59401e-05
1.69433e-05
4.24786e-05
4.16813e-05
3.96137e-05
3.78183e-05
3.71166e-05
4.40232e-05
5.14147e-05
1.69433e-05
2.09299e-05
2.38647e-05
2.27351e-05
2.1203e-05
1.99119e-05
1.92854e-05
1.92066e-05
1.93766e-05
1.98366e-05
2.02893e-05
2.01054e-05
1.90256e-05
1.78623e-05
1.74062e-05
1.67534e-05
1.58859e-05
1.35498e-05
1.14241e-05
)
;
    }
    atmosphere
    {
        type            calculated;
        value           nonuniform List<scalar> 
46
(
0.000329925
0.009
0.009
0.009
0.009
0.009
0.009
0.009
0.009
0.009
0.009
0.00911105
0.00918004
0.00929182
0.00943062
0.00959548
0.00978366
0.00998396
0.0101816
0.0103608
0.0105061
0.0106035
0.0106407
0.0106155
0.010582
0.0105303
0.0104601
0.010316
0.0100103
0.00960529
0.00911096
0.00854359
0.0079252
0.00728209
0.00664273
0.00603724
0.00551249
0.00525345
0.009
0.009
0.009
0.009
0.009
0.009
0.009
0.009
)
;
    }
    defaultFaces
    {
        type            empty;
    }
}


// ************************************************************************* //
