/*--------------------------------*- C++ -*----------------------------------*\
  =========                 |
  \\      /  F ield         | OpenFOAM: The Open Source CFD Toolbox
   \\    /   O peration     | Website:  https://openfoam.org
    \\  /    A nd           | Version:  13
     \\/     M anipulation  |
\*---------------------------------------------------------------------------*/
FoamFile
{
    format      ascii;
    class       volScalarField;
    location    "0.65";
    object      p;
}
// * * * * * * * * * * * * * * * * * * * * * * * * * * * * * * * * * * * * * //

dimensions      [1 -1 -2 0 0 0 0];

internalField   nonuniform List<scalar> 
2268
(
3530.1
3552.19
3603.37
3671.44
3759.35
3873.8
4019.47
4202.93
4427.57
4690.87
4985.06
5297.11
5613.19
5923.78
6221.69
6502.1
6762.96
7002.63
7217.62
7396.99
7527.1
7589.05
7582.74
2730.63
2744.98
2791.41
2859
2948.68
3066.3
3215.84
3405.58
3636.55
3906.96
4208.21
4525.59
4845.57
5157.11
5453.92
5730.9
5985.94
6217.57
6421.31
6591.36
6715.25
6770.66
6763.17
1927.97
1945.13
1982.33
2045.74
2134.83
2255.11
2408.13
2603.92
2843.73
3123.96
3434.44
3758.54
4082.76
4395.14
4690.2
4962.32
5209.66
5431.42
5624.36
5784.77
5903.58
5955.42
5949.53
1177.36
1200.75
1225.7
1272.32
1343.43
1448.75
1587.99
1783.37
2032.84
2327.76
2652.91
2986.99
3317.02
3630.43
3924.3
4192.09
4432.54
4646.23
4830.66
4984.38
5099.96
5147.12
5139.03
779.321
791.626
801.774
820.863
851.781
898.475
971.688
1084.94
1257.62
1507.34
1837.41
2197.73
2544.5
2862.54
3156.28
3419.99
3654.5
3862.11
4039.75
4187.63
4298.48
4337.68
4331.52
692.206
693.823
696.443
702.138
711.157
724.183
743.16
771.226
823.638
926.055
1110.78
1392.3
1745.63
2088.32
2388.09
2647.92
2875.86
3077.92
3248.59
3388.48
3489.92
3519.53
3532.02
631.267
631.935
634.842
640.504
649.125
660.961
676.108
693.604
713.049
735.649
766.816
853.628
1039.8
1307.77
1617.62
1880.63
2100.9
2297.99
2460.61
2587.38
2670.25
2690.05
2741.89
570.375
570.235
572.981
578.588
587.072
598.59
613.08
629.491
646.402
662.88
677.941
690.718
706.511
782.506
946.432
1137.71
1352.48
1556.24
1712.32
1818.34
1864
1865.51
1937.02
2003.94
1952.95
2030.88
2362.67
3236.22
3855.68
3777.42
3399.42
3012.14
2571.43
2261.03
2194.79
2255.77
2362.75
2588.53
2966.01
3365.09
3751.28
4373.16
1961.92
1910.67
1966.85
2200.6
2780.21
3158.77
2969.36
2665.37
2425.76
2201.49
2130.43
2145.28
2220.43
2314.49
2510.33
2904.76
3354.03
3731.78
4341.4
1911.89
1880.08
1938.72
2008.26
2112.93
2052.93
1745.86
1545.37
1493.96
1543.71
1747.09
1906.84
2016.65
2072.79
2191.46
2588.55
3156.08
3580.79
4465.23
1874.72
1839.76
1839.72
1616.05
1364.72
1164.34
1015.41
951.372
941.22
980.849
1110.97
1268.28
1369.83
1427.05
1551.89
1917.55
2540.14
3097.35
4502.24
1845.47
1720.17
1457.64
1087.61
894.825
841.747
827.466
818.566
799.51
780.71
803.82
855.554
907.061
951.037
1030.55
1233.78
1672.6
2299.53
4083.24
1699.58
1426.89
946.487
753.423
737.973
761.974
768.406
762.987
747.931
736.407
744.625
758.343
782.265
801.722
827.819
890.239
1046.93
1426.57
3164.93
839.798
946.653
637.025
626.734
657.303
681.18
689.502
686.719
677.66
671.831
681.407
697.349
712.335
722.331
743.26
786.666
863.001
937.073
2228.58
-74.8842
576.552
524.499
553.759
580.101
601.155
610.656
612.524
609.461
609.528
618.089
630.776
645.23
665.132
694.63
740.714
807.729
792.771
1563.37
474.978
473.838
475.917
481.275
489.506
500.533
514.252
529.875
545.983
560.898
572.614
579.44
584.289
586.253
590.278
633.999
728.155
826.219
891.584
921.217
920.144
915.934
933.803
342.581
340.605
342.116
347.277
355.356
365.988
378.913
393.586
409.028
423.959
436.686
445.244
449.001
447.437
441.275
427.138
406.669
383.453
363.98
347.717
337.398
323.506
304.169
207.082
204.255
205.35
210.742
219.269
230.16
242.968
257.238
272.188
286.917
300.151
310.092
315.448
315.623
311.393
303.737
294.59
285.376
276.029
265.126
249.968
227.154
200.196
77.5237
74.2783
75.0116
79.5378
86.7942
96.2655
108.001
122.077
137.343
151.997
164.972
175.127
181.583
184.333
182.489
176.371
167.704
158.103
147.704
135.289
119.071
98.0698
75.0678
12.7067
11.5613
11.6873
12.9117
15.1416
18.4743
23.296
29.8788
37.038
43.623
50.4343
56.8094
61.8408
65.4884
66.6849
63.6741
57.7536
51.5444
45.4341
38.7313
31.5554
23.8212
17.2921
5.39234
5.36675
5.43365
5.42151
5.38533
5.33131
5.26206
5.18995
5.13432
5.82379
8.18757
10.472
12.1631
14.3036
15.7992
15.5054
14.0069
12.8476
11.7291
9.88999
7.8696
6.14906
5.24527
5.20393
5.1889
5.18573
5.1769
5.16666
5.15743
5.15123
5.1555
5.16891
5.12006
4.92795
4.77784
4.72705
4.72887
4.74951
4.76547
4.79523
4.85134
4.91697
4.96047
5.25097
6.03522
6.21742
5.05794
5.05715
5.05808
5.05269
5.04271
5.03067
5.01898
5.00847
5.00614
5.01612
5.01982
5.02906
5.05145
5.08162
5.11634
5.15558
5.20258
5.25987
5.32654
5.40391
5.52943
5.73916
5.9328
4.9094
4.912
4.91444
4.912
4.90524
4.89587
4.88569
4.87621
4.86968
4.86494
4.85822
4.85773
4.86902
4.89139
4.92284
4.96279
5.01263
5.07407
5.14889
5.24191
5.36554
5.51512
5.69408
4.75977
4.76278
4.76521
4.76451
4.76086
4.75531
4.74911
4.7435
4.73931
4.73424
4.72899
4.72871
4.73785
4.75713
4.78591
4.82394
4.87211
4.9318
5.00447
5.09245
5.20387
5.34042
5.48977
4.61006
4.61315
4.61578
4.61634
4.61489
4.61215
4.609
4.60627
4.60453
4.60351
4.60387
4.6085
4.62011
4.6398
4.66785
4.70453
4.75058
4.80699
4.87424
4.95336
5.04767
5.15845
5.28158
4.46073
4.46372
4.46655
4.46799
4.46805
4.46726
4.46624
4.46561
4.46594
4.46769
4.47161
4.47938
4.49267
4.51255
4.53959
4.57427
4.61715
4.6688
4.72897
4.7977
4.8759
4.96343
5.05658
4.31167
4.31441
4.31729
4.31927
4.32032
4.32085
4.32131
4.32222
4.32413
4.32758
4.33332
4.34246
4.35616
4.3753
4.40047
4.43207
4.47046
4.51583
4.56748
4.62474
4.68758
4.75354
4.8183
4.16286
4.16526
4.16804
4.17027
4.1719
4.17325
4.17471
4.17668
4.17964
4.18407
4.19061
4.20009
4.21331
4.23096
4.2535
4.28122
4.31421
4.35236
4.39484
4.44052
4.48811
4.53406
4.57368
4.01442
4.01643
4.01894
4.02118
4.02308
4.0249
4.02693
4.02949
4.03296
4.03777
4.04442
4.0535
4.06559
4.08117
4.10056
4.12389
4.15104
4.18164
4.21488
4.24929
4.28236
4.31069
4.32917
3.86629
3.86788
3.87003
3.87211
3.87405
3.87602
3.87826
3.88101
3.88457
3.88928
3.89551
3.90367
3.91417
3.9273
3.94324
3.96197
3.98323
4.0065
4.0309
4.05449
4.07468
4.08813
4.08983
3.7184
3.71957
3.72129
3.72309
3.72487
3.72678
3.72896
3.7316
3.73492
3.73917
3.74461
3.75152
3.76013
3.77063
3.78303
3.79721
3.8128
3.82914
3.84519
3.85917
3.86843
3.86978
3.85862
3.5707
3.57146
3.57271
3.57414
3.57565
3.57731
3.57924
3.58155
3.5844
3.58794
3.59236
3.59782
3.60443
3.61225
3.6212
3.63107
3.6414
3.65146
3.66011
3.66577
3.66603
3.65794
3.63763
3.42314
3.4235
3.42429
3.42529
3.42644
3.42775
3.42929
3.43112
3.43334
3.43604
3.43931
3.44323
3.44783
3.45307
3.4588
3.46473
3.47035
3.47491
3.47733
3.47612
3.46923
3.45413
3.4275
3.27571
3.27567
3.27601
3.27658
3.27731
3.2782
3.27927
3.28053
3.28203
3.28381
3.2859
3.28831
3.29098
3.29383
3.29663
3.29907
3.30062
3.30055
3.29787
3.29124
3.2789
3.25872
3.22797
3.12837
3.128
3.1279
3.12803
3.12834
3.12877
3.12932
3.12997
3.13073
3.13158
3.13251
3.13346
3.13437
3.13506
3.1353
3.13473
3.13287
3.12902
3.12228
3.11148
3.09515
3.0715
3.03831
2.98113
2.98046
2.97996
2.97968
2.97956
2.97954
2.97956
2.9796
2.97962
2.97957
2.97941
2.97905
2.97836
2.97717
2.97522
2.97216
2.96749
2.96071
2.95082
2.93692
2.91778
2.89196
2.85767
2.834
2.83307
2.83222
2.83156
2.83104
2.83057
2.83009
2.82954
2.82886
2.82799
2.82685
2.82532
2.82326
2.82047
2.81671
2.81162
2.80477
2.79564
2.78347
2.76742
2.74647
2.71948
2.68506
2.687
2.68585
2.6847
2.6837
2.68282
2.68194
2.68099
2.67991
2.6786
2.67699
2.67499
2.67245
2.66924
2.66515
2.65992
2.65324
2.64472
2.63388
2.62011
2.60268
2.58073
2.55339
2.51958
2.54014
2.53882
2.53742
2.53614
2.53493
2.5337
2.53234
2.53077
2.52892
2.52668
2.52395
2.52058
2.51644
2.51131
2.50496
2.49709
2.48735
2.47533
2.46052
2.44233
2.42007
2.39298
2.36028
2.39346
2.39201
2.39042
2.38889
2.38742
2.38587
2.38416
2.3822
2.37989
2.37713
2.3738
2.36978
2.36491
2.359
2.35182
2.34311
2.33256
2.31982
2.30447
2.28601
2.26391
2.23754
2.20633
2.24697
2.24544
2.2437
2.242
2.24031
2.23851
2.23651
2.23422
2.23155
2.22838
2.2246
2.22009
2.21469
2.20822
2.20048
2.19124
2.18023
2.16714
2.15164
2.13332
2.11174
2.08645
2.05694
2.1007
2.09912
2.09729
2.09546
2.09361
2.09162
2.0894
2.08687
2.08392
2.08046
2.07636
2.07151
2.06576
2.05894
2.05089
2.04138
2.03019
2.01707
2.00173
1.98386
1.9631
1.93909
1.91149
1.95466
1.95309
1.95121
1.9493
1.94734
1.94522
1.94285
1.94015
1.93702
1.93337
1.92908
1.92403
1.91809
1.91111
1.90294
1.89339
1.88227
1.86936
1.85444
1.83725
1.81753
1.79498
1.76935
1.80889
1.80734
1.80547
1.80352
1.8015
1.7993
1.79685
1.79406
1.79084
1.78709
1.78272
1.7776
1.77162
1.76464
1.75653
1.74713
1.73627
1.72378
1.70948
1.69317
1.67463
1.65366
1.63004
1.66338
1.66189
1.66006
1.65812
1.65608
1.65386
1.65139
1.64858
1.64535
1.64161
1.63725
1.63219
1.62629
1.61946
1.61156
1.60246
1.59203
1.58013
1.5666
1.5513
1.53406
1.51473
1.49313
1.51816
1.51675
1.51498
1.51309
1.51108
1.50889
1.50645
1.50369
1.50052
1.49687
1.49263
1.48772
1.48202
1.47545
1.46789
1.45924
1.44937
1.43819
1.42556
1.41137
1.3955
1.37784
1.35825
1.37322
1.37191
1.37023
1.36841
1.36647
1.36436
1.36201
1.35936
1.35633
1.35283
1.34879
1.34412
1.33872
1.33252
1.32541
1.31731
1.30813
1.29776
1.28613
1.27313
1.25868
1.2427
1.2251
1.22857
1.22735
1.22579
1.22407
1.22224
1.22025
1.21804
1.21555
1.21271
1.20944
1.20567
1.20132
1.19631
1.19056
1.18399
1.17654
1.16812
1.15867
1.1481
1.13635
1.12336
1.10907
1.09342
1.08418
1.08306
1.08162
1.08003
1.07834
1.07651
1.07449
1.07221
1.06962
1.06664
1.0632
1.05923
1.05467
1.04945
1.04351
1.03678
1.02921
1.02073
1.01129
1.00084
0.989326
0.976717
0.962991
0.940054
0.939001
0.937686
0.936251
0.934741
0.933114
0.93132
0.9293
0.926996
0.924345
0.921288
0.917765
0.913716
0.909088
0.90383
0.897894
0.891228
0.883788
0.875528
0.866407
0.856388
0.845453
0.833608
0.796149
0.795112
0.793936
0.79269
0.791397
0.79001
0.788479
0.786749
0.784769
0.782489
0.779859
0.776826
0.773338
0.76935
0.764831
0.75974
0.754037
0.747689
0.740651
0.732887
0.724372
0.715099
0.705101
0.652424
0.651309
0.650292
0.649281
0.64825
0.64714
0.645898
0.644482
0.642852
0.640974
0.638808
0.636308
0.633414
0.630105
0.626363
0.622165
0.617481
0.612266
0.606481
0.600099
0.593097
0.58548
0.577301
0.508806
0.507475
0.506679
0.505989
0.505278
0.504472
0.503535
0.502442
0.501176
0.499721
0.498055
0.496123
0.493827
0.491194
0.488256
0.484993
0.481368
0.477324
0.472826
0.467848
0.462372
0.456405
0.450026
0.365164
0.363514
0.363104
0.362955
0.362653
0.362161
0.361516
0.360736
0.35983
0.358807
0.357675
0.356388
0.354615
0.352618
0.350534
0.348287
0.345796
0.342996
0.339842
0.336305
0.332367
0.328034
0.323339
0.221036
0.219199
0.219414
0.220248
0.220443
0.220222
0.219821
0.219319
0.218752
0.218162
0.21767
0.217439
0.216069
0.214887
0.213769
0.212721
0.211566
0.210179
0.208491
0.206464
0.204077
0.201316
0.198093
0.0749574
0.0726324
0.0733614
0.0749002
0.0752997
0.075266
0.0751104
0.0749152
0.0747245
0.0746146
0.0749126
0.0765104
0.0764958
0.0761186
0.0759908
0.0760665
0.0761544
0.076096
0.0758092
0.0752632
0.0744404
0.0733591
0.0723786
1105.06
1082.94
1027.58
872.442
293.172
287.13
274.64
243.799
184.941
175.762
161.856
143.957
56.6987
48.7224
46.5432
50.6492
15.4317
14.6372
13.4924
11.9154
4.99151
5.55279
6.8731
7.7684
6.28435
6.38527
6.56656
6.79885
6.04524
6.16724
6.34475
6.53871
5.83883
5.95744
6.09842
6.25108
5.62386
5.72185
5.82909
5.94295
5.38729
5.46044
5.53815
5.62133
5.1321
5.18185
5.23356
5.29046
4.86624
4.89549
4.92456
4.95793
4.59796
4.61005
4.62047
4.63341
4.33452
4.33322
4.32886
4.32522
4.08076
4.06949
4.05443
4.03815
3.83924
3.82105
3.79844
3.77364
3.61127
3.58862
3.56166
3.5319
3.39684
3.37174
3.34252
3.31052
3.19488
3.16874
3.13902
3.10665
3.00433
2.9782
2.94895
2.91746
2.82385
2.79842
2.77042
2.74051
2.6522
2.62793
2.60152
2.5736
2.48819
2.46536
2.44079
2.41497
2.3307
2.30947
2.28676
2.26305
2.17872
2.15913
2.1383
2.11664
2.03139
2.01344
1.99442
1.9747
1.88799
1.87162
1.85434
1.83645
1.74787
1.73303
1.71738
1.70121
1.61051
1.59707
1.58298
1.56844
1.47545
1.46337
1.45075
1.43772
1.34235
1.33153
1.32028
1.3087
1.21091
1.2013
1.19133
1.18111
1.08088
1.07242
1.06366
1.05471
0.952045
0.944683
0.93708
0.929314
0.824211
0.817905
0.811397
0.804753
0.697204
0.691908
0.686455
0.680876
0.570874
0.56656
0.56211
0.557548
0.445046
0.441687
0.438213
0.434618
0.319574
0.317099
0.314562
0.311945
0.194929
0.193042
0.191396
0.189917
0.072504
0.0721209
0.0712275
0.0698297
229.671
400.957
429.352
442.182
461.998
482.241
503.425
521.431
531.4
537.717
547.929
562.757
584.141
610.063
638.822
681.181
739.582
680.824
1052.58
180.794
258.913
285.918
304.074
331.744
370.066
412.739
444.719
460.102
468.645
480.335
497.36
517.671
538.073
561.677
595.699
641.833
585.56
903.845
124.578
133.431
140.065
178.303
223.278
276.984
348.02
392.856
406.235
413.917
425.667
440.46
457.005
474.783
494.759
519.569
557.227
513.722
685.508
53.0228
32.3737
32.8353
60.4265
100.917
167.067
275.548
340.979
353.864
362.087
375.09
389.829
405.224
421.318
437.719
452.539
480.404
442.353
465.81
8.19236
9.89767
11.2624
12.2672
23.2632
82.2695
180.402
258.936
292.436
312.222
330.026
346.563
361.909
376.862
391.296
403.419
418.56
393.127
416.313
7.77725
8.07748
9.12362
10.2242
14.263
29.9381
90.6908
182.912
239.709
268.889
291.382
310.244
326.498
341.623
355.842
367.755
376.088
359.361
378.387
7.24986
7.68541
8.32163
9.12798
10.7192
15.2033
65.7153
155.434
205.903
234.773
259.153
279.832
297.65
314.106
329.553
343.389
355.019
355.891
353.463
6.88205
7.29725
7.70525
7.97291
8.47641
11.5227
50.8205
132.132
176.304
205.205
231.054
253.532
273.404
291.781
309.274
326.038
340.588
346.992
338.223
6.50165
6.81605
7.04881
7.08405
6.96712
8.19036
31.6191
102.775
148.067
178.167
205.432
229.596
251.498
272.168
292.512
312.299
330.629
342.428
336.791
6.12735
6.34313
6.47186
6.46517
6.37511
7.06052
19.2956
76.442
122.291
152.89
181.036
206.625
230.412
253.455
276.456
299.237
320.787
335.977
332.738
5.75294
5.89258
5.95478
5.93709
5.95881
6.51862
12.414
55.3158
98.1581
128.186
156.631
183.253
208.588
233.55
258.782
284.389
308.258
324.676
322.292
5.37699
5.45057
5.45402
5.40832
5.43686
5.58941
7.55499
37.34
74.5236
102.923
131.018
158.212
184.631
210.966
237.825
265.425
291.606
308.928
307.083
5.00373
5.01543
4.95779
4.86897
4.79648
4.02076
3.90144
20.817
50.226
76.0657
103.138
130.382
157.264
184.227
211.774
240.335
268.436
288.076
288.35
4.64353
4.60179
4.48731
4.32149
4.12776
3.39763
3.26149
8.26317
25.4549
47.0433
71.9258
98.4696
125.209
151.968
179.096
207.269
236.066
258.724
261.611
4.30676
4.2245
4.07182
3.83739
3.56635
3.10475
2.57161
2.761
10.2707
19.8137
37.7155
60.9695
86.4459
112.008
137.453
163.669
191.342
215.195
217.214
3.9988
3.89139
3.7188
3.47036
3.15543
2.78101
2.4281
2.33806
5.01236
6.93754
10.4552
22.2056
40.888
61.9899
83.5943
105.833
129.818
153.752
159.53
3.72147
3.60237
3.42581
3.18529
2.88856
2.55847
2.27043
2.13048
2.13855
1.4379
4.29698
3.5835
6.66252
15.9879
29.2443
44.0331
60.6931
85.7618
106.157
3.47313
3.35152
3.18074
2.95926
2.69635
2.41535
2.15645
1.9541
1.8054
1.84746
1.6232
1.24515
2.98298
5.20047
8.24409
11.8749
17.7072
38.972
78.6217
3.2497
3.13178
2.97331
2.7759
2.54962
2.31433
2.09663
1.91988
1.78454
1.79718
1.818
1.72747
1.17468
0.895193
0.996497
1.42199
3.7619
16.605
42.2664
3.0468
2.93638
2.79335
2.62091
2.42822
2.23106
2.04836
1.89638
1.78399
1.71868
1.69162
1.64714
1.63705
1.65929
1.73427
1.85001
2.50733
4.84604
19.3564
2.86053
2.75939
2.63241
2.48337
2.31985
2.15349
1.99741
1.86254
1.75431
1.67666
1.62147
1.55573
1.55194
1.56519
1.58111
1.60746
1.69213
1.7137
6.27835
2.68742
2.59599
2.48423
2.35594
2.21709
2.07608
1.94202
1.8224
1.7211
1.63884
1.57134
1.51499
1.47148
1.45812
1.43758
1.43985
1.5902
1.15835
1.72089
2.52472
2.44262
2.34456
2.23407
2.11575
1.9957
1.88036
1.77507
1.68277
1.60407
1.53704
1.47794
1.42841
1.39018
1.35511
1.4333
1.59654
0.438248
-6.74654
2.37022
2.29669
2.21063
2.11513
2.01375
1.91091
1.81129
1.71878
1.63567
1.56269
1.49916
1.44339
1.39408
1.34488
1.3495
1.47953
1.21958
-1.21048
-11.5096
2.22223
2.15638
2.08066
1.99771
1.91023
1.82149
1.73492
1.65338
1.57867
1.51151
1.45177
1.39802
1.34535
1.3046
1.31984
1.3829
0.632447
0.771903
-5.15943
2.07945
2.0204
1.95358
1.8811
1.80506
1.7279
1.65213
1.5799
1.51253
1.45058
1.39381
1.34033
1.28717
1.25091
1.2665
1.19286
0.684514
0.943721
0.220002
1.94086
1.88787
1.82871
1.76505
1.69851
1.63094
1.56422
1.49992
1.43898
1.38164
1.32728
1.27376
1.21976
1.1746
1.15406
0.981132
0.508155
0.527218
1.11765
1.80569
1.75813
1.70565
1.6495
1.59098
1.5315
1.47251
1.41518
1.36014
1.30741
1.25621
1.2046
1.1518
1.10131
1.05036
0.919659
0.866279
1.04363
1.03341
1.67334
1.6307
1.58412
1.5345
1.48288
1.43041
1.37822
1.32725
1.27798
1.2304
1.18387
1.13699
1.08874
1.04119
0.983833
0.880298
0.863308
1.00218
1.04609
1.54329
1.50519
1.46389
1.42006
1.37454
1.32829
1.28227
1.23729
1.19384
1.15205
1.11167
1.07203
1.03271
0.994763
0.957181
0.908333
0.901262
0.986453
1.05754
1.41516
1.38127
1.34478
1.30617
1.26616
1.22556
1.18523
1.14595
1.10832
1.07265
1.03908
1.00755
0.978139
0.951988
0.930407
0.91486
0.923356
0.98118
1.05903
1.28864
1.25865
1.22657
1.19276
1.1578
1.1224
1.08738
1.05352
1.0215
0.991846
0.964967
0.94116
0.920768
0.904819
0.895359
0.894899
0.914008
0.964658
1.04275
1.16341
1.13709
1.10907
1.07969
1.0494
1.01884
0.988769
0.959978
0.933224
0.90917
0.888378
0.871308
0.858384
0.850505
0.849516
0.857771
0.881023
0.92939
1.00366
1.03923
1.01633
0.992107
0.966804
0.940858
0.914796
0.889325
0.865213
0.843258
0.824199
0.808666
0.797155
0.790065
0.78807
0.79257
0.805264
0.82989
0.874738
0.941217
0.915923
0.896219
0.875498
0.853993
0.832035
0.810134
0.788899
0.769047
0.751366
0.736623
0.725463
0.718351
0.715575
0.717535
0.725038
0.739221
0.76268
0.802217
0.858063
0.793325
0.776613
0.759135
0.741109
0.722842
0.704735
0.687335
0.671308
0.657355
0.646246
0.638612
0.634868
0.635147
0.639493
0.648114
0.661617
0.682004
0.714604
0.758433
0.671305
0.657401
0.642935
0.628101
0.613174
0.598509
0.584566
0.57187
0.561103
0.552961
0.548086
0.546866
0.549258
0.554865
0.563225
0.574522
0.5904
0.615068
0.647181
0.549731
0.538469
0.526806
0.514909
0.503011
0.491414
0.480506
0.470739
0.462597
0.456772
0.453949
0.454605
0.458521
0.464657
0.471843
0.479878
0.490309
0.506838
0.528969
0.428468
0.419706
0.410665
0.401478
0.392332
0.383466
0.375186
0.367861
0.361901
0.357804
0.356291
0.358384
0.363539
0.369556
0.374842
0.379149
0.384044
0.393037
0.4075
0.307576
0.301214
0.294588
0.287856
0.281163
0.274676
0.268609
0.263222
0.258803
0.255662
0.254523
0.257916
0.264094
0.268848
0.271528
0.272514
0.273102
0.275692
0.284499
0.187637
0.18346
0.178916
0.174252
0.169575
0.164983
0.160591
0.156516
0.152807
0.149147
0.145619
0.150273
0.157668
0.161177
0.161762
0.160932
0.158948
0.15416
0.162478
0.0670297
0.064546
0.0621883
0.0597328
0.0572104
0.0546471
0.0520374
0.0493267
0.0462493
0.0415091
0.0328147
0.0318852
0.0460272
0.0506501
0.0501342
0.0483424
0.0446734
0.0251505
0.0474775
)
;

boundaryField
{
    leftWall
    {
        type            calculated;
        value           nonuniform List<scalar> 
50
(
3530.1
2730.63
1927.97
1177.36
779.321
692.206
631.267
570.375
474.978
342.581
207.082
77.5237
12.7067
5.39234
5.20393
5.05794
4.9094
4.75977
4.61006
4.46073
4.31167
4.16286
4.01442
3.86629
3.7184
3.5707
3.42314
3.27571
3.12837
2.98113
2.834
2.687
2.54014
2.39346
2.24697
2.1007
1.95466
1.80889
1.66338
1.51816
1.37322
1.22857
1.08418
0.940054
0.796149
0.652424
0.508806
0.365164
0.221036
0.0749574
)
;
    }
    rightWall
    {
        type            calculated;
        value           nonuniform List<scalar> 
50
(
4373.16
4341.4
4465.23
4502.24
4083.24
3164.93
2228.58
1563.37
1052.58
903.845
685.508
465.81
416.313
378.387
353.463
338.223
336.791
332.738
322.292
307.083
288.35
261.611
217.214
159.53
106.157
78.6217
42.2664
19.3564
6.27835
1.72089
-6.74654
-11.5096
-5.15943
0.220002
1.11765
1.03341
1.04609
1.05754
1.05903
1.04275
1.00366
0.941217
0.858063
0.758433
0.647181
0.528969
0.4075
0.284499
0.162478
0.0474775
)
;
    }
    lowerWall
    {
        type            calculated;
        value           nonuniform List<scalar> 
62
(
3928.25
3950.34
4001.52
4069.59
4157.5
4271.95
4417.62
4601.08
4825.72
5089.02
5383.21
5695.26
6011.34
6321.93
6619.84
6900.25
7161.11
7400.78
7615.77
7795.14
7925.25
7987.1
7980.67
7582.74
6763.17
5949.53
5139.03
4331.52
3532.02
2741.89
1937.02
1670.15
1649.3
1602.15
1441.63
2003.94
1961.92
1911.89
1874.72
1845.47
1699.58
839.798
-74.8842
2017.3
1966.76
2047.06
2401.23
3289.61
3934.72
3868.85
3485.79
3080.56
2612.95
2283.26
2210.75
2266.64
2377.61
2604.93
2985.36
3386.3
3796.99
4453.47
)
;
    }
    atmosphere
    {
        type            calculated;
        value           nonuniform List<scalar> 
46
(
0
-2.69169e-06
-5.96692e-05
-8.49698e-05
-9.37948e-05
-9.32878e-05
-8.54442e-05
-7.10807e-05
-5.15696e-05
-2.96075e-05
-9.91074e-06
0
0
0
0
0
0
0
0
0
0
0
0
0
0
0
0
0
0
0
0
0
0
0
0
0
0
0
-2.55643e-05
-0.000288747
-0.00101349
-0.00250263
-0.00503085
-0.00869737
-0.0153365
-0.0146173
)
;
    }
    defaultFaces
    {
        type            empty;
    }
}


// ************************************************************************* //
