/*--------------------------------*- C++ -*----------------------------------*\
  =========                 |
  \\      /  F ield         | OpenFOAM: The Open Source CFD Toolbox
   \\    /   O peration     | Website:  https://openfoam.org
    \\  /    A nd           | Version:  13
     \\/     M anipulation  |
\*---------------------------------------------------------------------------*/
FoamFile
{
    format      ascii;
    class       volScalarField;
    location    "0.65";
    object      p_rgh;
}
// * * * * * * * * * * * * * * * * * * * * * * * * * * * * * * * * * * * * * //

dimensions      [1 -1 -2 0 0 0 0];

internalField   nonuniform List<scalar> 
2268
(
3928.25
3950.34
4001.52
4069.59
4157.5
4271.95
4417.62
4601.08
4825.72
5089.02
5383.21
5695.26
6011.34
6321.93
6619.84
6900.25
7161.11
7400.78
7615.77
7795.14
7925.25
7987.1
7980.67
3925.08
3939.43
3985.86
4053.45
4143.13
4260.75
4410.29
4600.03
4831
5101.41
5402.66
5720.04
6040.02
6351.56
6648.37
6925.35
7180.39
7412.02
7615.76
7785.81
7909.7
7964.93
7956.96
3918.72
3935.88
3973.08
4036.49
4125.58
4245.86
4398.87
4594.67
4834.48
5114.71
5425.18
5749.29
6073.5
6385.89
6680.95
6953.07
7200.41
7422.17
7615.11
7775.52
7894.33
7946.02
7939.51
3556.24
3563.02
3627.45
3758.11
3928.95
4130
4348.34
4570.42
4819.89
5114.81
5439.96
5774.04
6104.07
6417.48
6711.35
6979.14
7219.59
7433.28
7617.7
7771.43
7887.01
7934.16
7926.08
1284.61
1374.3
1453.04
1585.78
1796.77
2115.05
2595.75
3308
4138.23
4900.83
5420.76
5781.08
6127.85
6445.89
6739.63
7003.34
7237.85
7445.46
7623.1
7770.98
7881.83
7921.03
7914.87
1015.93
1017.55
1020.17
1025.86
1034.88
1047.91
1067.3
1131.29
1437.2
2270.69
3855.29
5377.86
6125.28
6467.97
6767.74
7027.56
7255.51
7457.57
7628.24
7768.13
7869.57
7899.18
7911.67
1013.85
1014.52
1017.42
1023.09
1031.71
1043.54
1058.69
1076.19
1095.63
1118.23
1215.2
2169.51
4436.05
6278.82
6793.56
7056.58
7276.85
7473.94
7636.55
7763.33
7846.2
7866
7917.71
1011.82
1011.68
1014.42
1020.03
1028.51
1040.03
1054.52
1070.93
1087.84
1104.32
1119.38
1132.16
1246.72
2716.46
5487.89
7022.76
7324.73
7523.69
7684.56
7790.56
7836.23
7837.75
7909.11
2017.3
1966.76
2047.06
2401.23
3289.61
3934.72
3868.85
3485.79
3080.56
2612.95
2283.26
2210.75
2266.64
2377.61
2604.93
2985.36
3386.3
3796.99
4453.47
2003.56
1949.72
2014.69
2327.38
3388.35
4061.17
4001.09
3692.37
3409.35
2973.78
2379.12
2211.48
2257.5
2391.22
2738.03
3132.68
3509.72
3941.84
4587.27
1984.25
1952.8
2035.3
2919.8
3923.64
3870.81
3545.46
3326.81
3283.69
3342.05
2896.07
2662.52
2710.62
2907.26
3411.62
3958.58
4371.61
4712.97
4966.12
1977.71
1943.26
2472.06
3673.72
3475.32
2813.45
2072.02
1781.53
1866.89
2476.97
3107.83
3275.62
3277.54
3355.42
3544.52
3908.59
4492.51
5049.9
5701.46
1977.88
2648.74
3846.13
3112.03
1730.35
1106.55
1091.62
1081.71
1062.4
1042.49
1187.87
1558.47
1664.91
1659.06
1876
2608.82
3659.47
4807.5
6494.74
2363.95
4336.68
3883.87
1675.63
1062.01
1085.99
1092.15
1086.5
1071.02
1059.69
1067.95
1081.07
1104.8
1140.8
1189.07
1141.44
1299.98
3671.03
6078.01
4705.64
4504.37
1998.58
1009.17
1040.28
1064.11
1072.22
1069.25
1060.16
1054.32
1064.09
1083.94
1099.3
1109.75
1064.6
988.694
1054.32
1276.79
5613.8
4338.68
1847.32
965.612
995.096
1021.5
1042.51
1052.01
1053.86
1047.91
1047.4
1056.78
1068.98
1065.54
988.328
922.226
961.451
1028.51
1022.77
4363.98
1008.44
1007.31
1009.38
1014.74
1022.97
1034
1047.72
1063.34
1079.45
1094.36
1106.08
1112.91
1117.76
1119.72
1297.14
2215.93
3718.06
5129.17
6048.03
6494.46
6194.25
5787.13
5291.66
1001.24
999.266
1000.78
1005.94
1014.02
1024.65
1037.57
1052.25
1067.69
1082.62
1095.35
1103.91
1107.66
1106.1
1099.94
1085.8
1065.33
1042.11
1022.64
1006.38
996.058
982.167
962.83
990.938
988.111
989.206
994.598
1003.12
1014.02
1026.82
1041.09
1056.04
1070.77
1084.01
1093.95
1099.3
1099.48
1095.25
1087.59
1078.45
1069.23
1059.89
1048.98
1033.82
1011.01
984.051
813.314
781.581
784.483
818.62
871.348
931.521
986.817
1026.37
1046.39
1061.05
1074.02
1084.18
1090.63
1093.38
1091.54
1085.42
1076.75
1067.15
1056.75
1044.34
1028.12
1007.12
983.542
130.177
104.312
99.6407
119.281
158.452
221.777
321.565
475.17
675.252
854.525
975.89
1052.61
1085.97
1095.48
1099.98
1097.52
1089.99
1080.4
1065.36
1031.49
957.407
819.921
583.598
6.55309
6.52696
6.59367
6.58138
6.54511
6.49101
6.42173
6.45999
6.75947
31.3506
127.263
249.132
374.324
517.121
622.288
647.281
594.237
534.122
456.783
338.039
191.282
48.3572
6.46964
6.48859
6.47355
6.47037
6.46154
6.4513
6.44206
6.43586
6.44015
6.45354
6.4047
6.21259
6.06247
6.01169
6.01351
6.03432
6.05097
6.08364
6.14364
6.21195
6.26554
6.55598
7.36802
7.5406
6.46777
6.46698
6.46791
6.46252
6.45254
6.4405
6.42881
6.4183
6.41597
6.42595
6.42965
6.43889
6.46128
6.49145
6.52617
6.56593
6.61414
6.67188
6.73813
6.81374
6.93926
7.14899
7.34263
6.44442
6.44702
6.44946
6.44702
6.44027
6.4309
6.42071
6.41123
6.4047
6.39997
6.39324
6.39275
6.40404
6.42642
6.45787
6.49782
6.54766
6.60911
6.68392
6.77693
6.90056
7.05014
7.2291
6.41999
6.42299
6.42543
6.42473
6.42108
6.41553
6.40933
6.40371
6.39953
6.39445
6.38921
6.38893
6.39807
6.41735
6.44613
6.48418
6.53236
6.59205
6.66471
6.75268
6.86409
7.00064
7.14998
6.39547
6.39856
6.4012
6.40175
6.4003
6.39756
6.39441
6.39169
6.38994
6.38892
6.38928
6.39391
6.40552
6.42521
6.45326
6.48995
6.53602
6.59243
6.65967
6.73878
6.83308
6.94386
7.06699
6.37134
6.37433
6.37716
6.3786
6.37865
6.37786
6.37685
6.37621
6.37655
6.3783
6.38222
6.38998
6.40328
6.42315
6.4502
6.48488
6.52776
6.57941
6.63959
6.70831
6.78651
6.87404
6.96719
6.34747
6.35021
6.35309
6.35507
6.35612
6.35665
6.35711
6.35802
6.35993
6.36338
6.36912
6.37826
6.39196
6.4111
6.43627
6.46788
6.50626
6.55163
6.60328
6.66055
6.72338
6.78934
6.8541
6.32386
6.32626
6.32903
6.33126
6.3329
6.33425
6.3357
6.33768
6.34063
6.34506
6.35161
6.36108
6.37431
6.39196
6.4145
6.44221
6.47521
6.51336
6.55583
6.60152
6.64911
6.69505
6.73467
6.30061
6.30262
6.30513
6.30737
6.30927
6.31109
6.31312
6.31568
6.31915
6.32396
6.33061
6.33969
6.35178
6.36736
6.38675
6.41008
6.43723
6.46783
6.50107
6.53548
6.56855
6.59688
6.61536
6.27767
6.27927
6.28141
6.28349
6.28543
6.28741
6.28964
6.2924
6.29596
6.30066
6.30689
6.31506
6.32555
6.33869
6.35463
6.37336
6.39462
6.41788
6.44228
6.46588
6.48606
6.49951
6.50121
6.25498
6.25615
6.25787
6.25966
6.26145
6.26336
6.26554
6.26818
6.2715
6.27575
6.28119
6.28809
6.29671
6.30721
6.31961
6.33379
6.34937
6.36572
6.38177
6.39575
6.40501
6.40635
6.3952
6.23248
6.23323
6.23449
6.23591
6.23742
6.23909
6.24101
6.24332
6.24617
6.24972
6.25414
6.25959
6.2662
6.27402
6.28298
6.29284
6.30317
6.31323
6.32188
6.32754
6.32781
6.31972
6.2994
6.21011
6.21047
6.21126
6.21226
6.2134
6.21472
6.21625
6.21809
6.22031
6.22301
6.22628
6.2302
6.2348
6.24004
6.24577
6.2517
6.25732
6.26188
6.2643
6.26309
6.2562
6.2411
6.21447
6.18788
6.18783
6.18818
6.18874
6.18948
6.19037
6.19143
6.19269
6.1942
6.19598
6.19807
6.20047
6.20315
6.20599
6.2088
6.21123
6.21278
6.21272
6.21003
6.2034
6.19107
6.17088
6.14014
6.16573
6.16535
6.16526
6.16539
6.16569
6.16613
6.16668
6.16733
6.16808
6.16893
6.16986
6.17082
6.17172
6.17241
6.17265
6.17209
6.17022
6.16638
6.15964
6.14884
6.1325
6.10886
6.07567
6.14368
6.14301
6.14251
6.14223
6.14211
6.14209
6.14211
6.14215
6.14217
6.14212
6.14196
6.1416
6.14092
6.13973
6.13778
6.13471
6.13004
6.12326
6.11337
6.09948
6.08034
6.05451
6.02022
6.12175
6.12081
6.11997
6.11931
6.11879
6.11832
6.11784
6.11729
6.11661
6.11574
6.11459
6.11306
6.111
6.10822
6.10445
6.09936
6.09251
6.08338
6.07122
6.05516
6.03421
6.00723
5.97281
6.09994
6.09879
6.09764
6.09664
6.09576
6.09488
6.09394
6.09285
6.09154
6.08993
6.08793
6.08539
6.08218
6.07809
6.07287
6.06619
6.05766
6.04682
6.03305
6.01562
5.99367
5.96633
5.93252
6.07828
6.07696
6.07556
6.07427
6.07307
6.07183
6.07047
6.06891
6.06705
6.06482
6.06208
6.05872
6.05457
6.04944
6.04309
6.03522
6.02548
6.01346
5.99866
5.98047
5.9582
5.93111
5.89842
6.05679
6.05534
6.05375
6.05222
6.05075
6.04921
6.04749
6.04553
6.04322
6.04046
6.03713
6.03311
6.02824
6.02233
6.01515
6.00644
5.99589
5.98315
5.9678
5.94934
5.92724
5.90087
5.86966
6.03549
6.03396
6.03222
6.03052
6.02883
6.02703
6.02504
6.02275
6.02007
6.0169
6.01313
6.00862
6.00321
5.99674
5.98901
5.97977
5.96875
5.95567
5.94017
5.92185
5.90027
5.87497
5.84547
6.01442
6.01284
6.01101
6.00918
6.00733
6.00534
6.00312
6.00059
5.99764
5.99418
5.99008
5.98523
5.97948
5.97266
5.96461
5.9551
5.94391
5.93079
5.91545
5.89758
5.87682
5.85281
5.82521
5.99358
5.992
5.99013
5.98821
5.98625
5.98413
5.98176
5.97906
5.97594
5.97228
5.96799
5.96294
5.957
5.95002
5.94185
5.9323
5.92118
5.90827
5.89335
5.87617
5.85644
5.8339
5.80826
5.97299
5.97145
5.96958
5.96763
5.9656
5.96341
5.96096
5.95816
5.95495
5.9512
5.94683
5.94171
5.93573
5.92875
5.92064
5.91124
5.90038
5.88789
5.87359
5.85728
5.83874
5.81777
5.79415
5.95268
5.9512
5.94936
5.94742
5.94538
5.94317
5.94069
5.93788
5.93465
5.93091
5.92656
5.92149
5.9156
5.90876
5.90086
5.89176
5.88134
5.86943
5.85591
5.8406
5.82336
5.80403
5.78243
5.93266
5.93125
5.92948
5.92758
5.92558
5.92339
5.92095
5.91819
5.91502
5.91137
5.90713
5.90221
5.89652
5.88995
5.88239
5.87373
5.86387
5.85269
5.84006
5.82587
5.81
5.79234
5.77275
5.91291
5.9116
5.90992
5.9081
5.90617
5.90405
5.90171
5.89905
5.89602
5.89253
5.88848
5.88381
5.87842
5.87221
5.8651
5.857
5.84782
5.83745
5.82582
5.81282
5.79837
5.78239
5.7648
5.89345
5.89224
5.89067
5.88895
5.88713
5.88513
5.88293
5.88044
5.8776
5.87433
5.87056
5.86621
5.86119
5.85544
5.84888
5.84143
5.83301
5.82355
5.81299
5.80124
5.78825
5.77396
5.75831
5.87426
5.87314
5.8717
5.87011
5.86842
5.86659
5.86457
5.86229
5.8597
5.85672
5.85328
5.84931
5.84475
5.83953
5.83359
5.82686
5.81929
5.81081
5.80137
5.79092
5.77941
5.7668
5.75307
5.85533
5.85428
5.85296
5.85153
5.85002
5.84839
5.8466
5.84458
5.84227
5.83962
5.83656
5.83304
5.82899
5.82436
5.81911
5.81317
5.8065
5.79906
5.7908
5.78168
5.77166
5.76073
5.74888
5.83662
5.83558
5.83441
5.83316
5.83187
5.83048
5.82895
5.82722
5.82524
5.82296
5.82033
5.8173
5.81381
5.80982
5.8053
5.80021
5.79451
5.78816
5.78112
5.77336
5.76484
5.75557
5.74557
5.81809
5.81697
5.81596
5.81495
5.81391
5.8128
5.81156
5.81015
5.80852
5.80664
5.80447
5.80197
5.79908
5.79577
5.79203
5.78783
5.78315
5.77793
5.77215
5.76576
5.75876
5.75114
5.74297
5.79967
5.79833
5.79754
5.79685
5.79614
5.79533
5.79439
5.7933
5.79204
5.79058
5.78891
5.78698
5.78469
5.78205
5.77912
5.77585
5.77223
5.76818
5.76369
5.75871
5.75323
5.74726
5.74089
5.78122
5.77957
5.77916
5.77901
5.77871
5.77821
5.77757
5.77679
5.77588
5.77486
5.77373
5.77244
5.77067
5.76867
5.76659
5.76434
5.76185
5.75905
5.7559
5.75236
5.74842
5.74409
5.73939
5.76228
5.76045
5.76066
5.7615
5.76169
5.76147
5.76107
5.76057
5.76
5.75941
5.75892
5.75869
5.75732
5.75614
5.75502
5.75397
5.75281
5.75143
5.74974
5.74771
5.74533
5.74256
5.73934
5.7414
5.73908
5.7398
5.74134
5.74174
5.74171
5.74155
5.74136
5.74117
5.74106
5.74136
5.74295
5.74294
5.74256
5.74243
5.74251
5.7426
5.74254
5.74225
5.74171
5.74088
5.7398
5.73882
5920.85
5909.64
5924.17
5723.17
951.832
945.783
933.289
902.447
968.795
959.615
945.71
927.807
950.141
912.47
848.411
801.908
412.711
291.205
160.849
68.4271
6.21401
6.77106
8.08044
8.96065
7.58458
7.67427
7.85512
8.08834
7.45507
7.57707
7.75499
7.9519
7.37385
7.49248
7.63349
7.78629
7.28408
7.38209
7.48933
7.60319
7.1727
7.24586
7.32358
7.40675
7.04271
7.09246
7.14417
7.20108
6.90204
6.93129
6.96036
6.99373
6.75896
6.77105
6.78146
6.7944
6.62071
6.61941
6.61505
6.61141
6.49215
6.48088
6.46581
6.44954
6.37582
6.35763
6.33502
6.31022
6.27305
6.25039
6.22343
6.19367
6.18381
6.15871
6.12949
6.09749
6.10704
6.0809
6.05118
6.01881
6.04169
6.01556
5.98631
5.95481
5.9864
5.96097
5.93297
5.90307
5.93995
5.91567
5.88927
5.86135
5.90113
5.8783
5.85373
5.82791
5.86884
5.84761
5.8249
5.80119
5.84205
5.82246
5.80163
5.77997
5.81992
5.80196
5.78295
5.76323
5.80171
5.78534
5.76806
5.75017
5.78678
5.77194
5.7563
5.74012
5.77462
5.76118
5.74709
5.73255
5.76475
5.75267
5.74005
5.72702
5.75684
5.74603
5.73477
5.7232
5.7506
5.74099
5.73102
5.7208
5.74577
5.73731
5.72855
5.7196
5.74213
5.73476
5.72716
5.71939
5.73949
5.73318
5.72667
5.72003
5.73767
5.73238
5.72692
5.72135
5.73654
5.73223
5.72778
5.72321
5.7359
5.73255
5.72907
5.72548
5.73563
5.73315
5.73062
5.728
5.73618
5.73429
5.73264
5.73117
5.73895
5.73856
5.73767
5.73627
2334.25
933.896
962.245
975.496
993.635
1000.95
992.004
962.572
922.414
924.142
940.407
928.06
876.616
877.109
906.152
951.852
1006.86
1012.63
3598.87
839.436
917.491
943.99
914.594
834.11
780.584
764.621
773.497
789.132
797.875
809.633
826.676
847.001
867.405
892.164
905.621
849.787
906.525
4816.25
908.418
742.998
641.113
564.171
555.277
647.359
738.672
783.901
796.776
805.814
817.61
832.389
848.933
866.711
862.013
857.932
796.485
738.405
4683.07
591.859
126.829
81.4876
221.442
329.208
419.981
589.42
730.297
801.05
816.63
829.621
844.354
859.75
875.528
882.344
894.957
917.086
654.206
1267.06
9.43075
12.9164
18.5988
13.3026
32.3566
115.783
279.807
660.599
809.561
829.347
847.148
863.686
879.03
893.966
908.419
920.541
935.784
871.403
1000.88
9.0376
9.2376
10.2839
11.3859
15.4249
31.0992
304.74
762.632
819.429
848.609
871.102
889.964
906.218
921.343
935.563
947.477
955.839
887.003
493.047
8.54476
8.97131
9.60949
10.4179
12.0052
23.8195
491.275
797.751
848.221
877.091
901.471
922.149
939.967
956.423
971.872
985.713
995.448
940.737
560.34
8.3001
8.71282
9.12199
9.38824
9.88823
24.7597
544.293
837.047
881.219
910.12
935.968
958.446
978.319
996.696
1014.19
1030.95
1041.66
1026.05
1018.3
8.03897
8.35827
8.59163
8.62505
8.50334
12.0445
485.019
870.286
915.578
945.679
972.943
997.107
1019.01
1039.68
1060.02
1079.81
1097.9
1107.07
1091.95
7.78819
8.01067
8.14029
8.13145
8.03539
8.72143
391.638
906.551
952.4
982.998
1011.14
1036.73
1060.52
1083.56
1106.57
1129.35
1150.9
1166.08
1159.16
7.53849
7.67983
7.74758
7.7252
7.74425
8.30467
305.847
948.022
990.864
1020.89
1049.31
1075.9
1101.27
1126.26
1151.49
1177.1
1200.96
1217.38
1215
7.28761
7.36138
7.36477
7.31893
7.3475
7.50073
238.448
986.145
1029.83
1058.23
1086.24
1113.38
1139.8
1166.26
1193.13
1220.73
1246.91
1264.23
1262.39
7.03954
7.05124
6.9936
6.90478
6.83231
6.05694
143.152
930.202
1068.13
1093.97
1121
1148.14
1175.02
1202.05
1229.67
1258.24
1286.34
1305.98
1306.25
6.80453
6.7628
6.64833
6.4825
6.28879
5.55865
18.0052
594.452
1105.95
1127.54
1152.42
1178.95
1205.65
1232.46
1259.59
1287.77
1316.56
1339.22
1342.11
6.59295
6.5107
6.35803
6.12361
5.85258
5.39099
4.85847
102.824
836.565
1162.91
1180.81
1204.06
1229.54
1255.1
1280.54
1306.76
1334.44
1358.29
1360.3
6.41018
6.30279
6.1302
5.88178
5.56686
5.19245
4.83953
4.75068
125.508
846.529
1206.74
1227.9
1246.58
1267.68
1289.29
1311.53
1335.51
1359.43
1365.21
6.25805
6.13896
5.9624
5.7219
5.4252
5.09513
4.80737
4.66761
4.67615
8.91679
523.267
1026.25
1239.84
1284.28
1297.53
1312.32
1328.98
1354.05
1372.23
6.1349
6.0133
5.84252
5.62106
5.35817
5.07721
4.81861
4.62137
4.47094
4.5098
4.28504
56.5379
436.003
717.516
857.934
867.895
836.107
826.691
706.089
6.03667
5.91875
5.76028
5.56288
5.33663
5.10138
4.88379
4.71394
4.58213
4.58992
4.60559
4.5145
3.96167
3.68221
3.78349
4.20901
6.54893
27.0137
259.672
5.95896
5.84855
5.70552
5.53308
5.3404
5.14327
4.96073
4.80984
4.7072
4.64214
4.60753
4.55947
4.54929
4.57165
4.64649
4.7622
5.41955
55.6696
1312.69
5.89789
5.79674
5.66977
5.52073
5.35722
5.19087
5.03487
4.90031
4.79483
4.72562
4.66486
4.59382
4.58946
4.60411
4.63004
4.6967
4.72978
10.3651
1349.5
5.84997
5.75855
5.64678
5.51849
5.37965
5.23864
5.10461
4.98512
4.88458
4.80513
4.73617
4.67806
4.63414
4.62132
4.61756
4.77643
4.90225
4.49514
1387.8
5.81247
5.73037
5.63231
5.52181
5.4035
5.28345
5.16813
5.06286
4.97075
4.89253
4.82535
4.76589
4.71626
4.67799
4.64357
4.74137
4.8927
18.5327
1443.76
5.78316
5.70963
5.62357
5.52807
5.42669
5.32385
5.22424
5.13175
5.04869
4.97579
4.91224
4.85642
4.80709
4.75788
4.76246
4.89249
4.63893
259.436
1274.44
5.76037
5.69451
5.6188
5.53584
5.44836
5.35962
5.27305
5.19153
5.11684
5.04969
4.98995
4.9362
4.88353
4.84278
4.85801
4.92106
14.0047
368.293
25.9247
5.74278
5.68373
5.61691
5.54443
5.46839
5.39123
5.31547
5.24323
5.17587
5.11393
5.05717
5.00369
4.95054
4.91428
4.92987
4.85621
40.9124
216.212
3.8872
5.72939
5.6764
5.61724
5.55357
5.48703
5.41946
5.35275
5.28845
5.22751
5.17017
5.11582
5.06231
5.00832
4.96316
4.94262
4.76968
39.4385
4.31974
4.91054
5.71941
5.67185
5.61937
5.56322
5.5047
5.44522
5.38624
5.3289
5.27386
5.22114
5.16994
5.11834
5.06555
5.01507
4.96411
4.8334
18.286
5.2641
4.97012
5.71225
5.66962
5.62303
5.57341
5.5218
5.46932
5.41714
5.36617
5.3169
5.26932
5.22279
5.17593
5.12768
5.08014
5.02278
4.91924
4.90225
5.26269
5.1329
5.7074
5.6693
5.628
5.58417
5.53865
5.4924
5.44638
5.4014
5.35796
5.31617
5.27579
5.23616
5.19684
5.1589
5.12132
5.07247
5.0654
5.20823
5.23606
5.70447
5.67057
5.63408
5.59548
5.55547
5.51486
5.47454
5.43527
5.39763
5.36197
5.3284
5.29688
5.26747
5.24132
5.21974
5.20419
5.21277
5.27059
5.34874
5.70313
5.67315
5.64107
5.60726
5.5723
5.5369
5.50188
5.46803
5.43601
5.40636
5.37949
5.35568
5.33529
5.31934
5.30988
5.30942
5.32872
5.38106
5.45807
5.7031
5.67678
5.64876
5.61938
5.58909
5.55854
5.52847
5.49968
5.47294
5.44889
5.4281
5.41103
5.39811
5.39023
5.38924
5.3975
5.42161
5.47481
5.54589
5.70412
5.68122
5.65699
5.63169
5.60575
5.57968
5.55422
5.53011
5.50816
5.48912
5.4736
5.4621
5.45503
5.45304
5.45753
5.4702
5.49849
5.54713
5.60988
5.706
5.6863
5.66558
5.64407
5.62212
5.60022
5.57898
5.55914
5.54146
5.52674
5.5156
5.50855
5.50583
5.50785
5.51533
5.5294
5.55763
5.60017
5.64943
5.7086
5.69189
5.67441
5.65638
5.63812
5.62001
5.60261
5.58659
5.57264
5.56155
5.55394
5.55028
5.5507
5.55511
5.56368
5.57713
5.59817
5.63142
5.67396
5.71178
5.69787
5.6834
5.66857
5.65364
5.63898
5.62504
5.61234
5.60158
5.59345
5.58859
5.58743
5.58997
5.59563
5.60403
5.61564
5.6311
5.65557
5.68766
5.7154
5.70413
5.69247
5.68057
5.66868
5.65708
5.64617
5.63641
5.62827
5.62245
5.61964
5.62032
5.62431
5.63048
5.63773
5.64601
5.65614
5.67257
5.69464
5.71933
5.71056
5.70152
5.69234
5.68319
5.67433
5.66605
5.65872
5.65276
5.64867
5.64716
5.64927
5.65445
5.66049
5.66583
5.67011
5.67496
5.6839
5.69836
5.72363
5.71727
5.71064
5.70391
5.69722
5.69073
5.68466
5.67928
5.67486
5.67172
5.67058
5.67398
5.68017
5.68494
5.68764
5.68859
5.68916
5.69175
5.70055
5.72889
5.72471
5.72016
5.7155
5.71082
5.70623
5.70184
5.69776
5.69406
5.6904
5.68687
5.69153
5.69893
5.70244
5.70303
5.70218
5.7002
5.69541
5.70373
5.73347
5.73099
5.72863
5.72618
5.72365
5.72109
5.71848
5.71577
5.71269
5.70795
5.69926
5.69833
5.71247
5.7171
5.71658
5.71479
5.71112
5.69159
5.71392
)
;

boundaryField
{
    leftWall
    {
        type            fixedFluxPressure;
        gradient        uniform 0;
        value           nonuniform List<scalar> 
50
(
3928.25
3925.08
3918.72
3556.24
1284.61
1015.93
1013.85
1011.82
1008.44
1001.24
990.938
813.314
130.177
6.55309
6.48859
6.46777
6.44442
6.41999
6.39547
6.37134
6.34747
6.32386
6.30061
6.27767
6.25498
6.23248
6.21011
6.18788
6.16573
6.14368
6.12175
6.09994
6.07828
6.05679
6.03549
6.01442
5.99358
5.97299
5.95268
5.93266
5.91291
5.89345
5.87426
5.85533
5.83662
5.81809
5.79967
5.78122
5.76228
5.7414
)
;
    }
    rightWall
    {
        type            fixedFluxPressure;
        gradient        uniform 0;
        value           nonuniform List<scalar> 
50
(
4453.47
4587.27
4966.12
5701.46
6494.74
6078.01
5613.8
4363.98
3598.87
4816.25
4683.07
1267.06
1000.88
493.047
560.34
1018.3
1091.95
1159.16
1215
1262.39
1306.25
1342.11
1360.3
1365.21
1372.23
706.089
259.672
1312.69
1349.5
1387.8
1443.76
1274.44
25.9247
3.8872
4.91054
4.97012
5.1329
5.23606
5.34874
5.45807
5.54589
5.60988
5.64943
5.67396
5.68766
5.69464
5.69836
5.70055
5.70373
5.71392
)
;
    }
    lowerWall
    {
        type            fixedFluxPressure;
        gradient        uniform 0;
        value           nonuniform List<scalar> 
62
(
3928.25
3950.34
4001.52
4069.59
4157.5
4271.95
4417.62
4601.08
4825.72
5089.02
5383.21
5695.26
6011.34
6321.93
6619.84
6900.25
7161.11
7400.78
7615.77
7795.14
7925.25
7987.1
7980.67
7980.67
7956.96
7939.51
7926.08
7914.87
7911.67
7917.71
7909.11
5920.85
5909.64
5924.17
5723.17
2017.3
2003.56
1984.25
1977.71
1977.88
2363.95
4705.64
4338.68
2017.3
1966.76
2047.06
2401.23
3289.61
3934.72
3868.85
3485.79
3080.56
2612.95
2283.26
2210.75
2266.64
2377.61
2604.93
2985.36
3386.3
3796.99
4453.47
)
;
    }
    atmosphere
    {
        type            prghTotalPressure;
        rho             rho;
        psi             none;
        gamma           1;
        p0              uniform 0;
        value           nonuniform List<scalar> 
46
(
5.72904
5.72904
5.72898
5.72896
5.72895
5.72895
5.72895
5.72897
5.72899
5.72901
5.72903
5.72904
5.72904
5.72904
5.72904
5.72904
5.72904
5.72904
5.72904
5.72904
5.72904
5.72904
5.72904
5.72904
5.72904
5.72904
5.72904
5.72904
5.72904
5.72904
5.72904
5.72904
5.72904
5.72904
5.72904
5.72904
5.72904
5.72904
5.72901
5.72875
5.72803
5.72654
5.72401
5.72034
5.7137
5.71442
)
;
        rho             rho;
    }
    defaultFaces
    {
        type            empty;
    }
}


// ************************************************************************* //
