/*--------------------------------*- C++ -*----------------------------------*\
  =========                 |
  \\      /  F ield         | OpenFOAM: The Open Source CFD Toolbox
   \\    /   O peration     | Website:  https://openfoam.org
    \\  /    A nd           | Version:  13
     \\/     M anipulation  |
\*---------------------------------------------------------------------------*/
FoamFile
{
    format      ascii;
    class       surfaceScalarField;
    location    "0.65";
    object      phi;
}
// * * * * * * * * * * * * * * * * * * * * * * * * * * * * * * * * * * * * * //

dimensions      [0 3 -1 0 0 0 0];

internalField   nonuniform List<scalar> 
4432
(
-1.5746e-06
1.5746e-06
-5.68978e-08
-1.5177e-06
1.50751e-06
-1.56441e-06
2.62322e-06
-1.11572e-06
3.3208e-06
-6.97575e-07
3.62509e-06
-3.04293e-07
3.53258e-06
9.25188e-08
3.01158e-06
5.20997e-07
2.05757e-06
9.54014e-07
6.95708e-07
1.36187e-06
-9.65028e-07
1.66074e-06
-2.82868e-06
1.86365e-06
-4.72162e-06
1.89295e-06
-6.53004e-06
1.80842e-06
-8.15591e-06
1.62587e-06
-9.5028e-06
1.34689e-06
-1.04422e-05
9.39375e-07
-1.07974e-05
3.55259e-07
-1.04151e-05
-3.82315e-07
-9.16521e-06
-1.2499e-06
-7.09865e-06
-2.06656e-06
-4.3876e-06
-2.71106e-06
-4.3876e-06
5.88269e-07
9.86326e-07
1.80824e-06
-2.73767e-06
2.73616e-06
-2.49232e-06
3.37667e-06
-1.75623e-06
3.72466e-06
-1.04556e-06
3.75033e-06
-3.29958e-07
3.38307e-06
4.59783e-07
2.60869e-06
1.29538e-06
1.39952e-06
2.16319e-06
-2.16493e-07
2.97788e-06
-2.13151e-06
3.57576e-06
-4.20362e-06
3.93577e-06
-6.24048e-06
3.92982e-06
-8.10055e-06
3.66849e-06
-9.68735e-06
3.21268e-06
-1.08993e-05
2.55882e-06
-1.16139e-05
1.65403e-06
-1.16844e-05
4.25756e-07
-1.0996e-05
-1.07072e-06
-9.50395e-06
-2.74192e-06
-7.18034e-06
-4.39016e-06
-4.00038e-06
-5.89101e-06
-8.38795e-06
2.20446e-06
-1.21814e-06
2.83914e-06
-3.37235e-06
3.26025e-06
-2.91343e-06
3.56368e-06
-2.05966e-06
3.66851e-06
-1.1504e-06
3.49202e-06
-1.53466e-07
2.94182e-06
1.00998e-06
1.97641e-06
2.26079e-06
5.79776e-07
3.55982e-06
-1.20406e-06
4.76173e-06
-3.24239e-06
5.61409e-06
-5.36532e-06
6.05871e-06
-7.3758e-06
5.9403e-06
-9.14616e-06
5.43885e-06
-1.05733e-05
4.63978e-06
-1.15718e-05
3.5574e-06
-1.20415e-05
2.12369e-06
-1.1871e-05
2.55231e-07
-1.10122e-05
-1.92952e-06
-9.46987e-06
-4.28422e-06
-7.22828e-06
-6.63175e-06
-4.129e-06
-8.99029e-06
-1.2517e-05
2.90234e-06
-4.12048e-06
3.1777e-06
-3.64771e-06
3.31725e-06
-3.05299e-06
3.41648e-06
-2.15889e-06
3.36044e-06
-1.09435e-06
3.04652e-06
1.60456e-07
2.3404e-06
1.71609e-06
1.2163e-06
3.3849e-06
-3.32518e-07
5.10864e-06
-2.23925e-06
6.66847e-06
-4.32449e-06
7.69934e-06
-6.42097e-06
8.1552e-06
-8.32079e-06
7.84013e-06
-9.92462e-06
7.0427e-06
-1.11322e-05
5.84736e-06
-1.18776e-05
4.30279e-06
-1.20849e-05
2.33104e-06
-1.16741e-05
-1.55583e-07
-1.06561e-05
-2.94751e-06
-9.09069e-06
-5.84962e-06
-6.99058e-06
-8.73185e-06
-4.14085e-06
-1.184e-05
-1.66578e-05
2.42847e-06
-6.54896e-06
2.64007e-06
-3.85931e-06
2.68287e-06
-3.09578e-06
2.66537e-06
-2.14139e-06
2.53312e-06
-9.62099e-07
2.15465e-06
5.38928e-07
1.43107e-06
2.43967e-06
2.75969e-07
4.53999e-06
-1.33118e-06
6.71579e-06
-3.29393e-06
8.6312e-06
-5.36887e-06
9.77428e-06
-7.35379e-06
1.01401e-05
-9.07681e-06
9.56314e-06
-1.04582e-05
8.42412e-06
-1.13985e-05
6.78765e-06
-1.18611e-05
4.76539e-06
-1.17876e-05
2.25755e-06
-1.11196e-05
-8.23567e-07
-9.92102e-06
-4.14612e-06
-8.30011e-06
-7.47053e-06
-6.31024e-06
-1.07217e-05
-3.72528e-06
-1.4425e-05
-2.03831e-05
1.11525e-06
-7.66422e-06
1.30256e-06
-4.04662e-06
1.245e-06
-3.03823e-06
1.14517e-06
-2.04156e-06
9.99407e-07
-8.16337e-07
6.77935e-07
8.60399e-07
4.56003e-08
3.07201e-06
-1.13081e-06
5.71639e-06
-2.74455e-06
8.32953e-06
-4.53374e-06
1.04204e-05
-6.3697e-06
1.16102e-05
-8.13722e-06
1.19076e-05
-9.61166e-06
1.10376e-05
-1.07053e-05
9.5178e-06
-1.13543e-05
7.4366e-06
-1.15197e-05
4.93086e-06
-1.11544e-05
1.89223e-06
-1.0217e-05
-1.76101e-06
-8.81551e-06
-5.5476e-06
-7.09518e-06
-9.19087e-06
-5.15038e-06
-1.26665e-05
-2.78513e-06
-1.67902e-05
-2.31682e-05
-3.8632e-07
-7.2779e-06
-4.68364e-07
-3.96458e-06
-8.00644e-07
-2.70596e-06
-1.16979e-06
-1.67242e-06
-1.53264e-06
-4.53485e-07
-1.91376e-06
1.24151e-06
-2.37703e-06
3.53528e-06
-2.99309e-06
6.33246e-06
-3.8912e-06
9.22765e-06
-5.22545e-06
1.17546e-05
-7.12455e-06
1.35093e-05
-8.7445e-06
1.35276e-05
-9.86724e-06
1.21603e-05
-1.0662e-05
1.03125e-05
-1.09778e-05
7.7524e-06
-1.08468e-05
4.79984e-06
-1.02042e-05
1.24972e-06
-9.00208e-06
-2.96317e-06
-7.39416e-06
-7.15553e-06
-5.54548e-06
-1.10396e-05
-3.58514e-06
-1.46269e-05
-1.37233e-06
-1.9003e-05
-2.45406e-05
-1.25241e-06
-6.02549e-06
-1.82393e-06
-3.39307e-06
-2.44489e-06
-2.085e-06
-3.03307e-06
-1.08425e-06
-3.54715e-06
6.05879e-08
-3.97711e-06
1.67147e-06
-4.33171e-06
3.88989e-06
-4.64976e-06
6.65053e-06
-5.05426e-06
9.63216e-06
-5.75154e-06
1.24519e-05
-6.83512e-06
1.45929e-05
-8.18657e-06
1.4879e-05
-9.6005e-06
1.35742e-05
-1.02359e-05
1.09479e-05
-1.02475e-05
7.76403e-06
-9.88576e-06
4.43806e-06
-8.9704e-06
3.34357e-07
-7.52128e-06
-4.41229e-06
-5.74634e-06
-8.93046e-06
-3.77568e-06
-1.30102e-05
-1.75317e-06
-1.66494e-05
4.20082e-07
-2.11763e-05
-2.41205e-05
-4.30688e-05
4.30688e-05
-5.51074e-05
1.20386e-05
-4.54553e-05
-9.65212e-06
-1.2828e-05
-3.26273e-05
2.36736e-05
-3.65016e-05
4.77557e-05
-2.40822e-05
6.11419e-05
-1.33862e-05
6.99698e-05
-8.82789e-06
7.87952e-05
-8.82548e-06
8.66725e-05
-7.8773e-06
8.67988e-05
-1.26251e-07
7.81983e-05
8.60052e-06
6.19458e-05
1.62525e-05
4.69229e-05
1.50229e-05
3.49629e-05
1.19599e-05
1.99746e-05
1.49883e-05
1.66538e-06
1.83092e-05
-1.51477e-05
1.68131e-05
-1.51478e-05
-2.10749e-05
6.41436e-05
-1.20347e-05
2.99837e-06
9.27424e-06
-3.09611e-05
3.00499e-05
-5.34029e-05
4.17703e-05
-4.8222e-05
4.99621e-05
-3.2274e-05
5.66354e-05
-2.00594e-05
6.20927e-05
-1.42852e-05
6.61827e-05
-1.29154e-05
6.85677e-05
-1.02623e-05
6.8961e-05
-5.19562e-07
6.75396e-05
1.00219e-05
6.71478e-05
1.66444e-05
6.61924e-05
1.59783e-05
6.31763e-05
1.4976e-05
5.65719e-05
2.15927e-05
4.22588e-05
3.26224e-05
2.08274e-05
3.82445e-05
5.67962e-06
-3.57082e-06
6.77145e-05
2.07411e-05
-2.13135e-05
3.90194e-05
-4.92393e-05
4.36818e-05
-5.80653e-05
4.66079e-05
-5.11482e-05
5.06014e-05
-3.62675e-05
5.47886e-05
-2.42466e-05
5.8707e-05
-1.82035e-05
6.1607e-05
-1.58155e-05
6.33419e-05
-1.19972e-05
6.50915e-05
-2.26911e-06
6.70234e-05
8.09001e-06
6.8928e-05
1.47397e-05
6.92623e-05
1.56439e-05
6.72725e-05
1.69658e-05
6.24291e-05
2.6436e-05
5.23663e-05
4.26852e-05
3.48834e-05
5.57273e-05
4.05631e-05
1.28747e-05
5.48397e-05
3.84503e-05
-4.68892e-05
4.66467e-05
-5.74358e-05
4.70315e-05
-5.84501e-05
4.7567e-05
-5.16837e-05
4.95992e-05
-3.82997e-05
5.29619e-05
-2.76093e-05
5.65259e-05
-2.17676e-05
5.91993e-05
-1.84888e-05
6.10913e-05
-1.38893e-05
6.31984e-05
-4.37618e-06
6.57917e-05
5.49674e-06
6.80101e-05
1.25213e-05
6.84136e-05
1.52405e-05
6.62243e-05
1.91552e-05
6.10651e-05
3.15952e-05
5.13511e-05
5.23993e-05
3.4979e-05
7.20995e-05
7.55421e-05
3.29019e-05
2.19377e-05
4.38189e-05
-5.78061e-05
4.70009e-05
-6.06179e-05
4.70801e-05
-5.85293e-05
4.64223e-05
-5.10258e-05
4.73269e-05
-3.92043e-05
5.01281e-05
-3.04105e-05
5.33541e-05
-2.49935e-05
5.60867e-05
-2.12213e-05
5.82172e-05
-1.60198e-05
6.07058e-05
-6.86481e-06
6.35552e-05
2.64734e-06
6.58099e-05
1.02667e-05
6.58641e-05
1.51862e-05
6.2881e-05
2.21382e-05
5.66258e-05
3.78503e-05
4.54549e-05
6.35702e-05
3.02211e-05
8.73333e-05
0.000105763
4.16983e-05
-1.97606e-05
4.36074e-05
-5.97151e-05
4.54682e-05
-6.24786e-05
4.48615e-05
-5.79226e-05
4.33746e-05
-4.95389e-05
4.37071e-05
-3.95368e-05
4.55348e-05
-3.22382e-05
4.78775e-05
-2.73362e-05
5.00787e-05
-2.34226e-05
5.23581e-05
-1.82991e-05
5.54565e-05
-9.96323e-06
5.86609e-05
-5.57009e-07
6.09371e-05
7.99052e-06
6.1045e-05
1.50784e-05
5.79356e-05
2.52476e-05
4.96559e-05
4.61301e-05
3.6009e-05
7.7217e-05
2.27695e-05
0.000100573
0.000128533
3.63573e-05
-5.61179e-05
4.08922e-05
-6.425e-05
4.20721e-05
-6.36585e-05
4.10003e-05
-5.68509e-05
3.97759e-05
-4.83146e-05
3.99175e-05
-3.96784e-05
4.1122e-05
-3.34426e-05
4.2846e-05
-2.90603e-05
4.46404e-05
-2.5217e-05
4.65947e-05
-2.02535e-05
4.9156e-05
-1.25246e-05
5.19094e-05
-3.31031e-06
5.39516e-05
5.94831e-06
5.38221e-05
1.5208e-05
4.99222e-05
2.91475e-05
4.12186e-05
5.48338e-05
2.91991e-05
8.92365e-05
1.32941e-05
0.000116478
0.000141827
3.26861e-05
-8.8804e-05
3.74145e-05
-6.89785e-05
3.77284e-05
-6.39724e-05
3.70719e-05
-5.61944e-05
3.61486e-05
-4.73913e-05
3.60098e-05
-3.95396e-05
3.67037e-05
-3.41365e-05
3.79909e-05
-3.03475e-05
3.94828e-05
-2.67089e-05
4.11645e-05
-2.19352e-05
4.32775e-05
-1.46375e-05
4.54817e-05
-5.51453e-06
4.67947e-05
4.63535e-06
4.57774e-05
1.62253e-05
4.12611e-05
3.36638e-05
3.35917e-05
6.25032e-05
2.08919e-05
0.000101936
5.28018e-06
0.000132089
0.000147107
-4.20728e-06
-1.81821e-06
-7.06751e-06
-5.32848e-07
-9.40444e-06
2.51926e-07
-1.13268e-05
8.38148e-07
-1.28384e-05
1.57219e-06
-1.38983e-05
2.73129e-06
-1.44536e-05
4.4452e-06
-1.44955e-05
6.69245e-06
-1.41556e-05
9.29225e-06
-1.36618e-05
1.19581e-05
-1.33033e-05
1.42344e-05
-1.38477e-05
1.54235e-05
-1.5377e-05
1.51035e-05
-1.71407e-05
1.27117e-05
-1.81651e-05
8.7884e-06
-1.68554e-05
3.1283e-06
-1.39092e-05
-2.61184e-06
-1.02667e-05
-8.05481e-06
-6.36706e-06
-1.28301e-05
-2.15796e-06
-1.72193e-05
2.12599e-06
-2.09333e-05
6.14905e-06
-2.51993e-05
-2.76332e-05
9.66178e-06
-5.6081e-06
3.78988e-06
-9.75325e-06
3.6123e-06
-1.29723e-05
3.47093e-06
-1.54489e-05
3.31478e-06
-1.72331e-05
3.35635e-06
-1.83188e-05
3.81708e-06
-1.86606e-05
4.78698e-06
-1.82199e-05
6.25174e-06
-1.70368e-05
8.1091e-06
-1.52233e-05
1.01447e-05
-1.29648e-05
1.1976e-05
-1.06113e-05
1.30699e-05
-8.42412e-06
1.29164e-05
-6.67141e-06
1.0959e-05
-5.06152e-06
7.17852e-06
-3.73899e-06
1.80576e-06
-2.01943e-06
-4.33141e-06
3.77559e-07
-1.04518e-05
3.87662e-06
-1.63291e-05
8.49829e-06
-2.1841e-05
1.47905e-05
-2.72255e-05
2.27981e-05
-3.3207e-05
-3.9674e-05
3.48389e-05
-6.03889e-06
9.82877e-06
-1.12093e-05
8.7827e-06
-1.51256e-05
7.38725e-06
-1.79731e-05
6.1623e-06
-1.98926e-05
5.27579e-06
-2.09261e-05
4.85059e-06
-2.10539e-05
4.91483e-06
-2.02199e-05
5.4177e-06
-1.8438e-05
6.32723e-06
-1.57689e-05
7.47557e-06
-1.23111e-05
8.51812e-06
-8.29131e-06
9.05018e-06
-3.93896e-06
8.56401e-06
5.25185e-07
6.49482e-06
4.92825e-06
2.77545e-06
9.17163e-06
-2.43764e-06
1.33708e-05
-8.53058e-06
1.79714e-05
-1.50525e-05
2.32511e-05
-2.16088e-05
2.93984e-05
-2.79883e-05
3.64203e-05
-3.42475e-05
4.39637e-05
-4.07504e-05
-4.7477e-05
5.17667e-05
-6.60125e-06
1.643e-05
-1.21334e-05
1.43148e-05
-1.63449e-05
1.15987e-05
-1.93442e-05
9.16155e-06
-2.12688e-05
7.20038e-06
-2.22026e-05
5.78435e-06
-2.21251e-05
4.83727e-06
-2.09171e-05
4.20974e-06
-1.8566e-05
3.97612e-06
-1.52187e-05
4.12828e-06
-1.0974e-05
4.27338e-06
-5.96739e-06
4.04355e-06
-3.73299e-07
2.96991e-06
5.6515e-06
4.69996e-07
1.18228e-05
-3.39587e-06
1.78131e-05
-8.42795e-06
2.36274e-05
-1.4345e-05
2.94805e-05
-2.09056e-05
3.55498e-05
-2.76782e-05
4.18768e-05
-3.43153e-05
4.83683e-05
-4.07391e-05
5.46459e-05
-4.7028e-05
-5.316e-05
6.03289e-05
-5.43289e-06
2.18628e-05
-1.14285e-05
2.03103e-05
-1.65313e-05
1.67013e-05
-2.00333e-05
1.26635e-05
-2.21142e-05
9.2812e-06
-2.28768e-05
6.54698e-06
-2.22523e-05
4.21277e-06
-2.02367e-05
2.19413e-06
-1.716e-05
8.99389e-07
-1.33663e-05
3.34522e-07
-8.70242e-06
-3.9048e-07
-3.16487e-06
-1.49401e-06
3.11409e-06
-3.30905e-06
9.92715e-06
-6.34305e-06
1.69548e-05
-1.04235e-05
2.38526e-05
-1.53258e-05
3.04551e-05
-2.09474e-05
3.6843e-05
-2.72934e-05
4.30228e-05
-3.38579e-05
4.8933e-05
-4.02254e-05
5.45109e-05
-4.63169e-05
5.97531e-05
-5.22702e-05
-5.79187e-05
6.4512e-05
-8.1712e-06
3.00336e-05
-9.12816e-06
2.12671e-05
-1.28547e-05
2.04277e-05
-1.67514e-05
1.65602e-05
-1.95908e-05
1.21205e-05
-2.09783e-05
7.93448e-06
-2.08255e-05
4.05997e-06
-1.91373e-05
5.05785e-07
-1.6218e-05
-2.01992e-06
-1.20224e-05
-3.86114e-06
-6.30928e-06
-6.10363e-06
6.78765e-08
-7.87115e-06
6.9932e-06
-1.02344e-05
1.41985e-05
-1.35483e-05
2.14221e-05
-1.76471e-05
2.85524e-05
-2.2456e-05
3.5461e-05
-2.78561e-05
4.20499e-05
-3.38823e-05
4.81826e-05
-3.99906e-05
5.37355e-05
-4.57783e-05
5.87509e-05
-5.1332e-05
6.40778e-05
-5.75969e-05
-6.40688e-05
7.02284e-05
4.76465e-06
2.5269e-05
2.83205e-06
2.31997e-05
1.47428e-06
2.17855e-05
-6.74037e-08
1.81019e-05
-1.7247e-06
1.37778e-05
-3.28649e-06
9.49626e-06
-4.96984e-06
5.74329e-06
-6.42815e-06
1.96405e-06
-7.15673e-06
-1.2914e-06
-7.4925e-06
-3.52544e-06
-4.71637e-06
-8.87978e-06
1.72184e-06
-1.43094e-05
9.66557e-06
-1.81781e-05
1.7879e-05
-2.17618e-05
2.59611e-05
-2.57291e-05
3.38978e-05
-3.03927e-05
4.15053e-05
-3.54635e-05
4.8357e-05
-4.07339e-05
5.43899e-05
-4.60234e-05
5.94111e-05
-5.07994e-05
5.86182e-05
-5.05389e-05
4.46191e-05
-4.35975e-05
-3.85335e-05
1.90835e-05
5.7817e-06
1.94873e-05
8.29512e-06
2.06863e-05
1.03527e-05
1.9728e-05
1.14352e-05
1.70194e-05
1.15771e-05
1.36359e-05
1.09868e-05
1.00866e-05
1.0082e-05
6.64804e-06
8.72986e-06
3.31622e-06
7.2241e-06
2.14389e-07
7.55656e-06
-3.85788e-06
8.77016e-06
-1.00934e-05
1.08451e-05
-1.63843e-05
1.39979e-05
-2.13308e-05
1.76259e-05
-2.53897e-05
2.11806e-05
-2.92839e-05
2.41171e-05
-3.33292e-05
2.60032e-05
-3.73496e-05
2.64135e-05
-4.11443e-05
2.48054e-05
-4.44152e-05
1.96634e-05
-4.56574e-05
9.89277e-06
-4.07684e-05
-3.77248e-06
-2.99326e-05
-1.70252e-05
-2.52816e-05
5.21559e-06
1.42716e-05
9.91467e-06
1.59871e-05
1.3938e-05
1.57045e-05
1.68206e-05
1.41367e-05
1.86025e-05
1.1854e-05
1.94932e-05
9.19583e-06
1.97852e-05
6.35608e-06
1.97288e-05
3.37264e-06
1.98296e-05
1.13596e-07
2.02742e-05
-4.30243e-06
2.03013e-05
-1.01205e-05
2.00128e-05
-1.60959e-05
1.98651e-05
-2.11831e-05
1.98792e-05
-2.54038e-05
1.96928e-05
-2.90976e-05
1.87751e-05
-3.24114e-05
1.6607e-05
-3.51816e-05
1.26245e-05
-3.71618e-05
6.07986e-06
-3.78707e-05
-3.73456e-06
-3.58431e-05
-1.61763e-05
-2.83269e-05
-3.1793e-05
-1.43164e-05
2.71904e-06
-5.15376e-05
5.07524e-06
9.19612e-06
1.01708e-05
1.08913e-05
1.47393e-05
1.11359e-05
1.84387e-05
1.04373e-05
2.12277e-05
9.06493e-06
2.32172e-05
7.20626e-06
2.46014e-05
4.97195e-06
2.56111e-05
2.36292e-06
2.64929e-05
-7.6822e-07
2.69801e-05
-4.78957e-06
2.65987e-05
-9.73915e-06
2.53741e-05
-1.48712e-05
2.36713e-05
-1.94803e-05
2.16373e-05
-2.33697e-05
1.91072e-05
-2.65675e-05
1.57257e-05
-2.90299e-05
1.10865e-05
-3.05424e-05
4.71074e-06
-3.07861e-05
-3.99697e-06
-2.9163e-05
-1.54198e-05
-2.44202e-05
-2.89965e-05
-1.47502e-05
-4.40116e-05
6.98519e-07
2.04435e-05
-6.17361e-05
4.59277e-06
4.60332e-06
9.41842e-06
6.06561e-06
1.39189e-05
6.63542e-06
1.78433e-05
6.51286e-06
2.11071e-05
5.80115e-06
2.37314e-05
4.58196e-06
2.57996e-05
2.90377e-06
2.74068e-05
7.55721e-07
2.85811e-05
-1.94251e-06
2.91106e-05
-5.31905e-06
2.86716e-05
-9.30005e-06
2.72342e-05
-1.34338e-05
2.49897e-05
-1.72358e-05
2.20569e-05
-2.04369e-05
1.83796e-05
-2.28901e-05
1.37671e-05
-2.44175e-05
7.96401e-06
-2.47392e-05
6.43257e-07
-2.34653e-05
-8.56844e-06
-1.99512e-05
-1.98191e-05
-1.31694e-05
-3.26614e-05
-1.90801e-06
-4.64307e-05
1.44679e-05
3.52217e-05
-6.12091e-05
3.93891e-06
6.6427e-07
8.20972e-06
1.79473e-06
1.23369e-05
2.50817e-06
1.61188e-05
2.73099e-06
1.94539e-05
2.46601e-06
2.23041e-05
1.73185e-06
2.46646e-05
5.43276e-07
2.65299e-05
-1.10954e-06
2.78411e-05
-3.25374e-06
2.84279e-05
-5.90585e-06
2.80809e-05
-8.95294e-06
2.67377e-05
-1.20906e-05
2.44697e-05
-1.49677e-05
2.13422e-05
-1.73094e-05
1.73425e-05
-1.88903e-05
1.23842e-05
-1.94592e-05
6.33409e-06
-1.8689e-05
-9.84127e-07
-1.6147e-05
-9.74278e-06
-1.11925e-05
-1.99186e-05
-2.99366e-06
-3.11166e-05
9.29003e-06
-4.27277e-05
2.60788e-05
4.69762e-05
-5.44823e-05
3.26037e-06
-2.59607e-06
6.8871e-06
-1.832e-06
1.04963e-05
-1.10097e-06
1.39224e-05
-6.95168e-07
1.70624e-05
-6.73994e-07
1.98469e-05
-1.05253e-06
2.22237e-05
-1.83358e-06
2.41328e-05
-3.0186e-06
2.54825e-05
-4.60341e-06
2.61305e-05
-6.55374e-06
2.59278e-05
-8.75026e-06
2.48034e-05
-1.09661e-05
2.27655e-05
-1.29298e-05
1.98399e-05
-1.43837e-05
1.60274e-05
-1.50778e-05
1.12992e-05
-1.4731e-05
5.60717e-06
-1.29969e-05
-1.10513e-06
-9.43468e-06
-8.8523e-06
-3.44537e-06
-1.75001e-05
5.65417e-06
-2.66516e-05
1.84413e-05
-3.57899e-05
3.52171e-05
5.5722e-05
-4.45358e-05
2.61776e-06
-5.21391e-06
5.60915e-06
-4.82339e-06
8.65909e-06
-4.15089e-06
1.16308e-05
-3.66687e-06
1.44283e-05
-3.47146e-06
1.69721e-05
-3.59631e-06
1.91888e-05
-4.05016e-06
2.09983e-05
-4.82808e-06
2.23024e-05
-5.90754e-06
2.29816e-05
-7.23286e-06
2.29209e-05
-8.68955e-06
2.20505e-05
-1.00957e-05
2.03506e-05
-1.12298e-05
1.78248e-05
-1.18578e-05
1.44785e-05
-1.17315e-05
1.03152e-05
-1.05676e-05
5.34323e-06
-8.02496e-06
-4.0986e-07
-3.68159e-06
-6.84861e-06
2.99338e-06
-1.37645e-05
1.257e-05
-2.07689e-05
2.54457e-05
-2.74179e-05
4.1866e-05
6.16188e-05
-3.33149e-05
2.02424e-06
-7.23804e-06
4.41877e-06
-7.21787e-06
6.91968e-06
-6.65175e-06
9.40982e-06
-6.15696e-06
1.18019e-05
-5.86353e-06
1.40178e-05
-5.81214e-06
1.59803e-05
-6.01261e-06
1.7607e-05
-6.45477e-06
1.88059e-05
-7.10642e-06
1.94775e-05
-7.90441e-06
1.95303e-05
-8.74237e-06
1.89019e-05
-9.46723e-06
1.75634e-05
-9.89135e-06
1.55103e-05
-9.80472e-06
1.27526e-05
-8.97381e-06
9.31453e-06
-7.12954e-06
5.24179e-06
-3.95221e-06
6.17121e-07
9.43081e-07
-4.40398e-06
8.01446e-06
-9.55255e-06
1.77185e-05
-1.44839e-05
3.03769e-05
-1.87893e-05
4.61714e-05
6.4915e-05
-2.20855e-05
1.49194e-06
-8.73004e-06
3.3381e-06
-9.06402e-06
5.3202e-06
-8.63381e-06
7.33716e-06
-8.17388e-06
9.31059e-06
-7.83691e-06
1.11678e-05
-7.66934e-06
1.28361e-05
-7.68083e-06
1.42392e-05
-7.85783e-06
1.52966e-05
-8.16382e-06
1.5927e-05
-8.53475e-06
1.60578e-05
-8.87313e-06
1.5637e-05
-9.04644e-06
1.4638e-05
-8.89232e-06
1.3057e-05
-8.22375e-06
1.0911e-05
-6.82774e-06
8.23939e-06
-4.45796e-06
5.11252e-06
-8.2534e-07
1.64585e-06
4.40974e-06
-1.96325e-06
1.16235e-05
-5.44344e-06
2.11986e-05
-8.46883e-06
3.34022e-05
-1.06649e-05
4.83672e-05
6.59377e-05
-1.16877e-05
1.02472e-06
-9.75466e-06
2.37787e-06
-1.04171e-05
3.8829e-06
-1.01388e-05
5.45381e-06
-9.74474e-06
7.02133e-06
-9.40438e-06
8.52029e-06
-9.16826e-06
9.88558e-06
-9.04608e-06
1.10505e-05
-9.02277e-06
1.19476e-05
-9.06085e-06
1.25116e-05
-9.09868e-06
1.26861e-05
-9.04768e-06
1.24313e-05
-8.79162e-06
1.17278e-05
-8.18879e-06
1.0578e-05
-7.07396e-06
9.00737e-06
-5.25708e-06
7.06802e-06
-2.51862e-06
4.84672e-06
1.39594e-06
2.48019e-06
6.77626e-06
1.70734e-07
1.3933e-05
-1.81076e-06
2.318e-05
-3.15984e-06
3.47512e-05
-3.53811e-06
4.87455e-05
6.50271e-05
-2.62758e-06
6.21641e-07
-1.03764e-05
1.53849e-06
-1.1334e-05
2.61426e-06
-1.12145e-05
3.77647e-06
-1.09069e-05
4.96499e-06
-1.05929e-05
6.12294e-06
-1.03262e-05
7.19396e-06
-1.01171e-05
8.12172e-06
-9.9505e-06
8.85109e-06
-9.7902e-06
9.33107e-06
-9.57864e-06
9.51951e-06
-9.23611e-06
9.38834e-06
-8.66045e-06
8.92753e-06
-7.72798e-06
8.14776e-06
-6.29419e-06
7.08328e-06
-4.1926e-06
5.79651e-06
-1.23185e-06
4.38554e-06
2.8069e-06
2.99588e-06
8.1659e-06
1.82393e-06
1.51049e-05
1.1239e-06
2.388e-05
1.18509e-06
3.46899e-05
2.31095e-06
4.76195e-05
6.25492e-05
4.78886e-06
2.80816e-07
-1.0657e-05
8.14613e-07
-1.18677e-05
1.51094e-06
-1.19108e-05
2.30669e-06
-1.17026e-05
3.1504e-06
-1.14365e-05
3.99347e-06
-1.11692e-05
4.78831e-06
-1.09119e-05
5.48852e-06
-1.06507e-05
6.05021e-06
-1.03519e-05
6.4346e-06
-9.96302e-06
6.61168e-06
-9.41319e-06
6.56424e-06
-8.61301e-06
6.2915e-06
-7.45524e-06
5.81234e-06
-5.81504e-06
5.16886e-06
-3.54914e-06
4.43108e-06
-4.9409e-07
3.70366e-06
3.53429e-06
3.132e-06
8.73753e-06
2.90451e-06
1.53323e-05
3.25517e-06
2.35293e-05
4.4484e-06
3.34966e-05
6.75977e-06
4.5308e-05
5.88582e-05
1.04508e-05
-2.30123e-08
-1.06341e-05
1.96107e-07
-1.20868e-05
5.63942e-07
-1.22786e-05
1.03705e-06
-1.21757e-05
1.5732e-06
-1.19727e-05
2.13168e-06
-1.17276e-05
2.67317e-06
-1.14533e-05
3.16023e-06
-1.11377e-05
3.5588e-06
-1.07504e-05
3.84046e-06
-1.02447e-05
3.98534e-06
-9.55808e-06
3.9855e-06
-8.61319e-06
3.84824e-06
-7.31799e-06
3.59936e-06
-5.56618e-06
3.28692e-06
-3.23673e-06
2.98564e-06
-1.92829e-07
2.802e-06
3.7179e-06
2.87767e-06
8.66184e-06
3.3914e-06
1.48186e-05
4.55721e-06
2.23634e-05
6.61501e-06
3.14387e-05
9.81186e-06
4.21111e-05
5.42977e-05
1.43723e-05
-2.61315e-07
-1.03727e-05
-3.23443e-07
-1.20247e-05
-2.37817e-07
-1.23642e-05
-4.44898e-08
-1.2369e-05
2.21675e-07
-1.22388e-05
5.27185e-07
-1.20331e-05
8.40078e-07
-1.17662e-05
1.13082e-06
-1.14285e-05
1.37373e-06
-1.09933e-05
1.54891e-06
-1.04199e-05
1.64479e-06
-9.65398e-06
1.66094e-06
-8.62935e-06
1.61099e-06
-7.26806e-06
1.52586e-06
-5.48107e-06
1.45722e-06
-3.16813e-06
1.48149e-06
-2.17125e-07
1.70337e-06
3.49598e-06
2.2596e-06
8.10557e-06
3.31651e-06
1.37616e-05
5.07087e-06
2.0609e-05
7.73869e-06
2.87708e-05
1.15389e-05
3.83108e-05
4.91701e-05
1.66664e-05
-4.63889e-07
-9.90893e-06
-7.54161e-07
-1.17344e-05
-9.06452e-07
-1.22119e-05
-9.5201e-07
-1.23234e-05
-9.19366e-07
-1.22714e-05
-8.35645e-07
-1.21168e-05
-7.2626e-07
-1.18756e-05
-6.13961e-07
-1.15408e-05
-5.17473e-07
-1.10898e-05
-4.49734e-07
-1.04876e-05
-4.15768e-07
-9.68796e-06
-4.10269e-07
-8.63487e-06
-4.14978e-07
-7.26338e-06
-3.95858e-07
-5.50022e-06
-2.99946e-07
-3.26407e-06
-5.17309e-08
-4.65377e-07
4.50115e-07
2.9941e-06
1.33057e-06
7.22507e-06
2.74852e-06
1.23436e-05
4.88194e-06
1.84755e-05
7.9261e-06
2.57266e-05
1.20758e-05
3.4161e-05
4.37484e-05
1.74976e-05
-6.28162e-07
-9.28064e-06
-1.10532e-06
-1.12572e-05
-1.45468e-06
-1.18625e-05
-1.70094e-06
-1.20771e-05
-1.86718e-06
-1.21052e-05
-1.97508e-06
-1.20089e-05
-2.04444e-06
-1.18062e-05
-2.09229e-06
-1.14929e-05
-2.1316e-06
-1.10505e-05
-2.1698e-06
-1.04494e-05
-2.20688e-06
-9.6509e-06
-2.23337e-06
-8.60841e-06
-2.22807e-06
-7.26871e-06
-2.15563e-06
-5.5727e-06
-1.96389e-06
-3.45585e-06
-1.58119e-06
-8.48123e-07
-9.14164e-07
2.32703e-06
1.57387e-07
6.15348e-06
1.77617e-06
1.07248e-05
4.10539e-06
1.61462e-05
7.32037e-06
2.25115e-05
1.15961e-05
2.98852e-05
3.82635e-05
1.70809e-05
-7.56795e-07
-8.52396e-06
-1.38352e-06
-1.06305e-05
-1.89325e-06
-1.13528e-05
-2.30545e-06
-1.16649e-05
-2.63859e-06
-1.1772e-05
-2.90976e-06
-1.17378e-05
-3.13404e-06
-1.15819e-05
-3.32374e-06
-1.13032e-05
-3.48722e-06
-1.08871e-05
-3.62762e-06
-1.0309e-05
-3.74126e-06
-9.53729e-06
-3.81592e-06
-8.53379e-06
-3.8289e-06
-7.25576e-06
-3.74507e-06
-5.65657e-06
-3.51463e-06
-3.68633e-06
-3.07092e-06
-1.29189e-06
-2.32832e-06
1.58438e-06
-1.18035e-06
5.00547e-06
5.0292e-07
9.04146e-06
2.87252e-06
1.37765e-05
6.08555e-06
1.92984e-05
1.02998e-05
2.5671e-05
3.29146e-05
1.56488e-05
-8.51853e-07
-7.67203e-06
-1.59431e-06
-9.88802e-06
-2.23143e-06
-1.07157e-05
-2.77809e-06
-1.11183e-05
-3.24888e-06
-1.13012e-05
-3.657e-06
-1.13296e-05
-4.01364e-06
-1.12253e-05
-4.32724e-06
-1.09897e-05
-4.60258e-06
-1.06117e-05
-4.8396e-06
-1.00721e-05
-5.03209e-06
-9.34483e-06
-5.16624e-06
-8.39968e-06
-5.21907e-06
-7.20298e-06
-5.1568e-06
-5.71888e-06
-4.93316e-06
-3.91003e-06
-4.48757e-06
-1.73752e-06
-3.74319e-06
8.39947e-07
-2.60609e-06
3.86833e-06
-9.63083e-07
7.3984e-06
1.32188e-06
1.14915e-05
4.39427e-06
1.6226e-05
8.39506e-06
2.16701e-05
2.786e-05
1.34497e-05
-9.15783e-07
-6.75638e-06
-1.74302e-06
-9.06082e-06
-2.47758e-06
-9.98113e-06
-3.13018e-06
-1.04657e-05
-3.71193e-06
-1.07195e-05
-4.23271e-06
-1.08089e-05
-4.70047e-06
-1.07576e-05
-5.12058e-06
-1.05696e-05
-5.49509e-06
-1.02373e-05
-5.82165e-06
-9.74553e-06
-6.09246e-06
-9.07406e-06
-6.29305e-06
-8.19913e-06
-6.40101e-06
-7.09506e-06
-6.38475e-06
-5.7352e-06
-6.20214e-06
-4.09268e-06
-5.79919e-06
-2.14052e-06
-5.10855e-06
1.49256e-07
-4.0484e-06
2.80813e-06
-2.52134e-06
5.87129e-06
-4.1228e-07
9.38234e-06
2.4138e-06
1.33998e-05
6.08812e-06
1.79958e-05
2.32233e-05
1.07248e-05
-9.50606e-07
-5.80565e-06
-1.83447e-06
-8.17694e-06
-2.63942e-06
-9.1762e-06
-3.37208e-06
-9.73302e-06
-4.04043e-06
-1.00511e-05
-4.65145e-06
-1.01979e-05
-5.21039e-06
-1.01987e-05
-5.72024e-06
-1.00597e-05
-6.181e-06
-9.77653e-06
-6.58882e-06
-9.33775e-06
-6.93503e-06
-8.72789e-06
-7.20518e-06
-7.92903e-06
-7.37804e-06
-6.92224e-06
-7.42465e-06
-5.68863e-06
-7.30736e-06
-4.21002e-06
-6.97886e-06
-2.46906e-06
-6.38113e-06
-4.48529e-07
-5.44406e-06
1.87103e-06
-4.08525e-06
4.51244e-06
-2.20785e-06
7.50489e-06
3.02079e-07
1.08898e-05
3.56958e-06
1.47282e-05
1.90884e-05
7.70456e-06
-9.59001e-07
-4.84681e-06
-1.87376e-06
-7.26224e-06
-2.72439e-06
-8.32559e-06
-3.51353e-06
-8.9439e-06
-4.24614e-06
-9.31853e-06
-4.9266e-06
-9.51744e-06
-5.55797e-06
-9.56733e-06
-6.14138e-06
-9.47636e-06
-6.6754e-06
-9.24255e-06
-7.15525e-06
-8.85794e-06
-7.57196e-06
-8.31122e-06
-7.91159e-06
-7.58944e-06
-8.15443e-06
-6.67945e-06
-8.27431e-06
-5.5688e-06
-8.23802e-06
-4.24636e-06
-8.00466e-06
-2.70247e-06
-7.52489e-06
-9.28342e-07
-6.73986e-06
1.08596e-06
-5.58081e-06
3.35336e-06
-3.96779e-06
5.89181e-06
-1.80752e-06
8.72948e-06
1.00912e-06
1.19116e-05
1.5506e-05
4.59154e-06
-9.43365e-07
-3.90336e-06
-1.86588e-06
-6.33972e-06
-2.73987e-06
-7.45162e-06
-3.56394e-06
-8.11986e-06
-4.34017e-06
-8.54232e-06
-5.07066e-06
-8.78696e-06
-5.75668e-06
-8.88135e-06
-6.39797e-06
-8.83509e-06
-6.99221e-06
-8.64835e-06
-7.53414e-06
-8.31605e-06
-8.01492e-06
-7.83048e-06
-8.42138e-06
-7.18302e-06
-8.73547e-06
-6.36541e-06
-8.93378e-06
-5.37053e-06
-8.98724e-06
-4.19294e-06
-8.86081e-06
-2.82896e-06
-8.51304e-06
-1.27615e-06
-7.89517e-06
4.68053e-07
-6.95089e-06
2.40904e-06
-5.6152e-06
4.55607e-06
-3.81281e-06
6.92711e-06
-1.45607e-06
9.55471e-06
1.24926e-05
1.55737e-06
-9.06858e-07
-2.99664e-06
-1.81646e-06
-5.43016e-06
-2.69352e-06
-6.57457e-06
-3.53268e-06
-7.28072e-06
-4.33329e-06
-7.74173e-06
-5.0955e-06
-8.02479e-06
-5.81912e-06
-8.15775e-06
-6.50303e-06
-8.15122e-06
-7.14437e-06
-8.00704e-06
-7.73786e-06
-7.7226e-06
-8.27503e-06
-7.29335e-06
-8.74365e-06
-6.71444e-06
-9.12731e-06
-5.98179e-06
-9.40514e-06
-5.09273e-06
-9.55175e-06
-4.04638e-06
-9.53715e-06
-2.84359e-06
-9.32672e-06
-1.48661e-06
-8.88076e-06
2.20594e-08
-8.15375e-06
1.682e-06
-7.09404e-06
3.4963e-06
-5.64191e-06
5.47489e-06
-3.72741e-06
7.64033e-06
1.00335e-05
-1.2683e-06
-8.52476e-07
-2.14403e-06
-1.73139e-06
-4.55122e-06
-2.59342e-06
-5.71254e-06
-3.4294e-06
-6.44476e-06
-4.23627e-06
-6.93487e-06
-5.01261e-06
-7.24847e-06
-5.7573e-06
-7.41308e-06
-6.46874e-06
-7.4398e-06
-7.14399e-06
-7.33181e-06
-7.778e-06
-7.08862e-06
-8.36289e-06
-6.70849e-06
-8.88743e-06
-6.18993e-06
-9.33672e-06
-5.53252e-06
-9.69213e-06
-4.73736e-06
-9.93136e-06
-3.80718e-06
-1.00287e-05
-2.74629e-06
-9.95521e-06
-1.56013e-06
-9.67871e-06
-2.54465e-07
-9.16308e-06
1.16634e-06
-8.36785e-06
2.70103e-06
-7.24685e-06
4.3539e-06
-5.74594e-06
6.13922e-06
8.08679e-06
-3.79918e-06
-7.843e-07
-1.35982e-06
-1.61769e-06
-3.71784e-06
-2.44856e-06
-4.88166e-06
-3.26435e-06
-5.62897e-06
-4.06012e-06
-6.1391e-06
-4.83345e-06
-6.47514e-06
-5.58286e-06
-6.66368e-06
-6.30676e-06
-6.71592e-06
-7.00248e-06
-6.63611e-06
-7.66546e-06
-6.42565e-06
-8.28854e-06
-6.08543e-06
-8.86147e-06
-5.61702e-06
-9.37072e-06
-5.0233e-06
-9.7995e-06
-4.30859e-06
-1.01281e-05
-3.47864e-06
-1.03341e-05
-2.54025e-06
-1.03934e-05
-1.50091e-06
-1.02796e-05
-3.68215e-07
-9.9646e-06
8.51314e-07
-9.4173e-06
2.1537e-06
-8.60272e-06
3.53925e-06
-7.4796e-06
5.01629e-06
6.60492e-06
-5.99776e-06
-7.06771e-07
-6.52903e-07
-1.48338e-06
-2.94116e-06
-2.26911e-06
-4.09589e-06
-3.04873e-06
-4.84933e-06
-3.81643e-06
-5.37139e-06
-4.5697e-06
-5.72186e-06
-5.3074e-06
-5.92597e-06
-6.02846e-06
-5.99486e-06
-6.73083e-06
-5.93373e-06
-7.41064e-06
-5.74585e-06
-8.06151e-06
-5.43457e-06
-8.67413e-06
-5.00441e-06
-9.23616e-06
-4.46127e-06
-9.73236e-06
-3.8124e-06
-1.0145e-05
-3.06602e-06
-1.04545e-05
-2.23076e-06
-1.06401e-05
-1.31526e-06
-1.06806e-05
-3.27727e-07
-1.05539e-05
7.24563e-07
-1.02364e-05
1.83621e-06
-9.70221e-06
3.00517e-06
-8.9211e-06
4.23504e-06
5.53865e-06
-7.85467e-06
-6.2626e-07
-2.66767e-08
-1.33862e-06
-2.22876e-06
-2.06697e-06
-3.36749e-06
-2.79497e-06
-4.12128e-06
-3.51755e-06
-4.64879e-06
-4.23342e-06
-5.00596e-06
-4.94264e-06
-5.21673e-06
-5.64518e-06
-5.29231e-06
-6.33988e-06
-5.23902e-06
-7.02364e-06
-5.06207e-06
-7.69091e-06
-4.7673e-06
-8.33328e-06
-4.36202e-06
-8.93948e-06
-3.85506e-06
-9.49557e-06
-3.25629e-06
-9.9855e-06
-2.57608e-06
-1.03918e-05
-1.8244e-06
-1.06968e-05
-1.01029e-06
-1.08828e-05
-1.41697e-07
-1.09326e-05
7.74409e-07
-1.08287e-05
1.7323e-06
-1.0552e-05
2.72842e-06
-1.008e-05
3.76334e-06
4.84359e-06
-9.38498e-06
-5.50951e-07
5.24504e-07
-1.196e-06
-1.58358e-06
-1.85608e-06
-2.70733e-06
-2.51679e-06
-3.46051e-06
-3.17657e-06
-3.98896e-06
-3.83713e-06
-4.34535e-06
-4.50068e-06
-4.55315e-06
-5.16858e-06
-4.62436e-06
-5.84067e-06
-4.56691e-06
-6.51465e-06
-4.38806e-06
-7.18572e-06
-4.09619e-06
-7.8464e-06
-3.70132e-06
-8.48646e-06
-3.21497e-06
-9.0933e-06
-2.64942e-06
-9.65242e-06
-2.01693e-06
-1.01483e-05
-1.32848e-06
-1.05656e-05
-5.92973e-07
-1.08898e-05
1.82536e-07
-1.11073e-05
9.91991e-07
-1.12048e-05
1.82979e-06
-1.11678e-05
2.69162e-06
-1.09799e-05
3.57531e-06
4.483e-06
-1.06192e-05
-4.93828e-07
1.01834e-06
-1.07244e-06
-1.00489e-06
-1.65277e-06
-2.12692e-06
-2.22886e-06
-2.88435e-06
-2.80686e-06
-3.4109e-06
-3.39356e-06
-3.75859e-06
-3.99396e-06
-3.9527e-06
-4.61087e-06
-4.00741e-06
-5.24487e-06
-3.93286e-06
-5.89431e-06
-3.73858e-06
-6.55513e-06
-3.43533e-06
-7.22075e-06
-3.03566e-06
-7.88223e-06
-2.55343e-06
-8.52873e-06
-2.00288e-06
-9.14765e-06
-1.39796e-06
-9.72555e-06
-7.50523e-07
-1.02494e-05
-6.90446e-08
-1.07073e-05
6.4049e-07
-1.10881e-05
1.37286e-06
-1.1381e-05
2.12273e-06
-1.15741e-05
2.88468e-06
-1.16531e-05
3.65465e-06
4.43056e-06
-1.16006e-05
-4.76575e-07
1.49513e-06
-9.899e-07
-4.91439e-07
-1.47475e-06
-1.64197e-06
-1.94527e-06
-2.41374e-06
-2.42084e-06
-2.93526e-06
-2.91495e-06
-3.26441e-06
-3.43519e-06
-3.43239e-06
-3.98504e-06
-3.45751e-06
-4.5652e-06
-3.35264e-06
-5.1743e-06
-3.12942e-06
-5.80896e-06
-2.80062e-06
-6.46368e-06
-2.38088e-06
-7.13142e-06
-1.88564e-06
-7.80423e-06
-1.33002e-06
-8.47255e-06
-7.29581e-07
-9.1257e-06
-9.73106e-08
-9.7533e-06
5.58622e-07
-1.03452e-05
1.23241e-06
-1.08915e-05
1.91925e-06
-1.13814e-05
2.61271e-06
-1.18025e-05
3.30601e-06