/*--------------------------------*- C++ -*----------------------------------*\
  =========                 |
  \\      /  F ield         | OpenFOAM: The Open Source CFD Toolbox
   \\    /   O peration     | Website:  https://openfoam.org
    \\  /    A nd           | Version:  13
     \\/     M anipulation  |
\*---------------------------------------------------------------------------*/
FoamFile
{
    format      ascii;
    class       volScalarField;
    location    "0.65";
    object      rho;
}
// * * * * * * * * * * * * * * * * * * * * * * * * * * * * * * * * * * * * * //

dimensions      [1 -3 0 0 0 0 0];

internalField   nonuniform List<scalar> 
2268
(
13529
13529
13529
13529
13529
13529
13529
13529
13529
13529
13529
13529
13529
13529
13529
13529
13529
13529
13529
13529
13529
13525.6
13521.6
13529
13529
13529
13529
13529
13529
13529
13529
13529
13529
13529
13529
13529
13529
13529
13529
13529
13529
13529
13529
13529
13526.9
13521.6
13529
13529
13529
13529
13529
13529
13529
13529
13529
13529
13529
13529
13529
13529
13529
13529
13529
13529
13529
13529
13529
13528
13523.8
11547.7
11467
11658.7
12066.6
12550.7
13015.4
13399.4
13529
13529
13529
13529
13529
13529
13529
13529
13529
13529
13529
13529
13529
13529
13529
13529
1907.74
2199.9
2458.86
2887.94
3567.81
4593.19
6131.66
8393.2
10875.8
12812.2
13529
13529
13529
13529
13529
13529
13529
13529
13529
13529
13529
13529
13529
1000
1000
1000
1000
1000
1000
1001.29
1112.27
1895.33
4153.66
8477.97
12311.7
13529
13529
13529
13529
13529
13529
13529
13529
13529
13529
13529
1000
1000
1000
1000
1000
1000
1000
1000
1000
1000
1172
3439.48
8877.21
12993.4
13529
13529
13529
13529
13529
13529
13529
13529
13528.7
1000
1000
1000
1000
1000
1000
1000
1000
1000
1000
1000
1000
1223.74
4381
10287.8
13331.5
13529
13518.1
13529
13528.9
13529
13529
13528.6
453.755
469.203
549.538
1310.1
1813.97
2685.71
3106.59
2934.95
2324.99
1410.89
755.289
542.476
369.365
504.836
557.047
657.621
720.571
1553.28
2728.93
471.606
442.261
541.856
1435.93
6888.22
10221
11685.9
11632.3
11140.7
8747.34
2816.79
749.797
419.927
869.03
2579.12
2581.52
1763.38
2379.32
2784.88
491.767
494.257
656.346
6194.81
12305.5
12354.2
12229.9
12106.6
12162.9
12221.4
7808.37
5135.52
4716.11
5671
8292.12
9310.59
8260.67
7694.25
3404.05
499.925
502.418
3069.52
9988.43
10245.4
8005.18
5129.02
4029.77
4493.45
7262.55
9693.21
9744.08
9260.51
9360.76
9672.71
9665
9477.28
9478.13
5821.3
499.925
3505.82
9017.77
7643.22
3154.55
999.751
997.303
993.516
992.558
988.354
1449.98
2653.86
2861.26
2673.15
3192.01
5191.49
7501.47
9468.87
9104.64
2052.28
8988.54
9073.76
2848.75
1000.96
1000.9
1000.08
999.362
998.052
998.651
998.773
996.916
996.318
1047.45
1115.93
775.984
781.698
6933.27
8998.69
10104.6
9299.22
3558.85
999.625
1001.03
1000.9
1000.37
999.858
999.792
999.76
1000.26
1010.49
1011.45
1012.65
839.914
528.067
500.07
887.968
8848.36
9998.11
2878.68
999.256
999.765
999.896
999.805
999.809
999.756
993.224
991.917
993.783
992.66
952.14
732.138
515.577
500.039
500.14
521.014
6344.25
1000
1000
1000
1000
1000
1000
1000
1000
1000
1000
1000
1000
1000
1000
1325.04
2965.38
5604.66
8066.02
9665.91
10447.2
9886.46
9131.2
8168.93
1000
1000
1000
1000
1000
1000
1000
1000
1000
1000
1000
1000
1000
1000
1000
1000
1000
1000
1000
999.997
999.999
999.999
999.999
1000
1000
1000
1000
1000
1000
1000
1000
1000
1000
1000
1000
1000
1000
1000
1000
1000
1000
1000
1000
1000
1000
999.998
809.406
778.068
780.453
813.026
863.048
918.822
966.741
994.769
1000
1000
1000
1000
1000
1000
1000
1000
1000
1000
1000
1000
1000
999.996
999.366
113.581
89.6799
85.0412
102.847
138.565
196.571
288.393
430.547
617.082
784.052
894.812
962.828
990.219
995.885
999.082
999.609
998.056
994.792
986.157
959.886
895.195
769.739
547.555
1.00113
1.00066
1.0005
1.00037
1.00029
1.00022
1.0002
1.0954
1.40166
22.0165
102.701
205.841
312.358
433.673
523.088
544.897
500.44
449.592
383.853
283.024
158.19
36.4039
1.056
1.00001
1.00001
1.00001
1
1
1
1
1.00002
1
1
1
1
1
1
1.00014
1.00067
1.00294
1.00596
1.00805
1.01591
1.01586
1.0375
1.03001
1
1
1
1
1
1
1
1
1
1
1
1
1
1
1
1.00037
1.00123
1.00154
1.00126
1
1
0.999999
0.999999
1
1
1
1
1
1
1
1
1
1
1
1
1
1
1
1
1.00001
1.00001
1
1
1
1
1
1
1
1
1
1
1
1
1
1
1
1
1
1
1
1
1.00001
1.00002
1.00002
1.00001
1.00001
1
1
1
1
1
1
1
1
1
1
1
1
1
1
1
1
1
1
1.00001
1.00001
1.00001
1.00001
1
1
1
1
1
1
1
1
1
1
1
1
1
1
1
1
1
1
1
1
1
1
1
1
1
1
1
1
1
1
1
1
1
1
1
1
1
1
1
1
1
1
1
1
1
1
1
1
1
1
1
1
1
1
1
1
1
1
1
1
1
1
1
1
1
1
1
1
1
1
1
1
1
1
1
1
1
1
1
1
1
1
1
1
1
1
1
1
1
1
1
1
1
1
1
1
1
1
1
1
1
1
1
1
1
1
1
1
1
1
1
1
1
1
1
1
1
1
1
1
1
1
1
1
1
1
1
1
1
1
1
1
1
1
1
1
1
1
1
1
1
1
1
1
1
1
1
1
1
1
1
1
1
1
1
1
1
1
1
1
1
1
1
1
1
1
1
1
1
1
1
1
1
1
1
1
1
1
1
1
1
1
1
1
1
1
1
1
1
1
1
1
1
1
1
1
1
1
1
1
1
1
1
1
1
1
1
1
1
1
1
1
1
1
1
1
1
1
1
1
1
1
1
1
1
1
1
1
1
1
1
1
1
1
1
1
1
1
1
1
1
1
1
1
1
1
1
1
1
1
1
1
1
1
1
1
1
1
1
1
1
1
1
1
1
1
1
1
1
1
1
1
1
1
1
1
1
1
1
1
1
1
1
1
1
1
1
1
1
1
1
1
1
1
1
1
1
1
1
1
1
1
1
1
1
1
1
1
1
1
1
1
1
1
1
1
1
1
1
1
1
1
1
1
1
1
1
1
1
1
1
1
1
1
1
1
1
1
1
1
1
1
1
1
1
1
1
1
1
1
1
1
1
1
1
1
1
1
1
1
1
1
1
1
1
1
1
1
1
1
1
1
1
1
1
1
1
1
1
1
1
1
1
1
1
1
1
1
1
1
1
1
1
1
1
1
1
1
1
1
1
1
1
1
1
1
1
1
1
1
1
1
1
1
1
1
1
1
1
1
1
1
1
1
1
1
1
1
1
1
1
1
1
1
1
1
1
1
1
1
1
1
1
1
1
1
1
1
1
1
1
1
1
1
1
1
1
1
1
1
1
1
1
1
1
1
1
1
1
1
1
1
1
1
1
1
1
1
1
1
1
1
1
1
1
1
1
1
1
1
1
1
1
1
1
1
1
1
1
1
1
1
1
1
1
1
1
1
1
1
1
1
1
1
1
1
1
1
1
1
1
1
1
1
1
1
1
1
1
1
1
1
1
1
1
1
1
1
1
1
1
1
1
1
1
1
1
1
1
1
1
1
1
1
1
1
1
1
1
1
1
1
1
1
1
1
1
1
1
1
1
1
1
1
1
1
1
1
1
1
1
1
1
1
1
1
1
1
1
1
1
1
1
1
1
1
1
1
1
1
1
1
1
1
1
1
1
1
1
1
1
1
1
1
1
1
1
1
1
1
1
1
1
1
1
1
1
1
1
1
1
1
1
1
1
1
1
1
1
1
1
1
1
1
1
1
1
1
1
1
1
1
1
1
1
1
1
1
1
1
1
1
1
1
1
1
1
1
1
1
1
1
1
1
1
1
1
1
1
1
1
1
1
1
1
1
1
1
1
1
1
1
1
1
1
1
1
1
1
1
1
1
1
1
1
1
1
1
1
1
1
1
1
1
1
1
1
9027.33
9047.79
9178.81
9092.84
999.998
999.987
999.981
999.979
999.998
999.997
999.997
999.993
982.83
950.164
882.094
826.421
384.125
267.41
142.478
54.6406
1.05438
1.05075
1.04131
1.02829
1.01214
1.0034
1.00306
1.00378
0.999999
1
1.0003
1.00238
1
1.00001
1.00003
1.00012
1
1.00001
1.00001
1.00001
1
1
1.00001
1.00001
1
1
1
1.00001
1
1
1
1
1
1
1
1
1
1
1
1
1
1
1
1
1
1
1
1
1
1
1
1
1
1
1
1
1
1
1
1
1
1
1
1
1
1
1
1
1
1
1
1
1
1
1
1
1
1
1
1
1
1
1
1
1
1
1
1
1
1
1
1
1
1
1
1
1
1
1
1
1
1
1
1
1
1
1
1
1
1
1
1
1
1
1
1
1
1
1
1
1
1
1
1
1
1
1
1
1
1
1
1
1
1
1
1
1
1
1
1
1
1
1
1
1
1
1
1
3945.09
999.01
998.923
999.711
996.569
972.343
915.856
826.934
732.967
724.367
735.711
684.772
548.253
500.584
501.119
507.381
501.025
621.987
4773.1
999.97
999.874
999.105
926.909
762.707
623.261
534.237
499.161
499.543
499.847
499.95
499.977
499.999
500.002
501.754
470.533
315.722
487.299
5939.93
999.979
777.651
639.21
492.269
423.546
472.503
498.371
498.873
498.23
499.96
500.019
500.001
500
500
468.523
431.664
305.232
286.637
5099.86
592.747
103.906
53.52
177.125
251.131
278.218
345.275
428.269
491.926
500.019
500.006
500
500.001
499.653
489.109
486.682
480.371
233.048
881.412
1.19739
2.91875
7.0935
1.00115
8.79222
32.404
96.1143
388.364
500.003
500.002
500
500
499.998
499.982
500
500
500.098
462.44
565.208
1.08703
1.00059
1.00071
1.00193
1.00212
1.00148
184.614
500
500
500
500.001
500
500
500
500
500.002
500.027
455.084
98.8926
1.00799
1.00098
1.00251
1.00412
1.00103
6.70716
331.269
500
500
500.001
500.001
500
500
500
500.001
500.005
498.53
455.263
161.04
1.00583
1.00407
1.0049
1.00391
1.00142
9.38907
350.023
500
500
500
500
500
500
500
500.001
500.002
497.275
481.663
482.386
1.0015
1.00468
1.00508
1.00389
1.00078
2.5108
295.37
500
500
500
500
500
500
500
500
500.001
499.84
498.133
491.953
1.00038
1.00441
1.00495
1.00365
1.00004
1.00042
224.273
500
500
500
500
500
500
500
500
500
500
499.999
497.782
1.00008
1.00103
1.00414
1.00151
1.00001
1.00036
164.35
500
500
500
499.984
499.969
499.988
500
500
500
500
500
500
1.00001
1.00011
1.00007
1
1.00002
1.00037
120.848
496.599
500
500
499.959
499.928
499.931
499.997
500
500
500
500
500
1
1
1
1.00001
1.00001
1.00019
68.4009
446.696
500
500
499.983
499.928
499.929
499.963
500
500
500
500
500
1
1
1.00001
1.00001
1.00002
1.00001
6.82264
271.259
500
500
500
499.993
499.973
499.995
500
500
500
500
500
1
1
1.00001
1.00001
1.00002
1.00002
1.00029
43.7683
361.428
500
500
500
500
500
499.998
499.998
499.999
499.999
499.998
1
1
1.00001
1.00001
1.00002
1.00003
1.00002
1.00051
49.9695
348.178
496.099
500
500
500
500
500
499.999
499.996
499.995
1
1
1.00001
1.00001
1.00002
1.00003
1.00014
1.00022
1.0004
2.94841
204.594
403.167
486.156
500
500
500
500
500
499.127
1
1
1
1.00001
1.00002
1.00003
1.00014
1.00206
1.00142
1.00021
1.00003
20.7729
162.681
267.609
319.219
321.598
307.464
295.938
235.733
1
1
1
1
1.00001
1.00003
1.00007
1.00255
1.00381
1.00207
1.00022
1.00002
1.00001
1.00002
1.00001
1.00002
1.00002
3.73476
78.0079
1
1
1
1
1.00001
1.00001
1.00007
1.00044
1.00379
1.00388
1.00129
1.00006
1.00003
1.00007
1.00002
1.00001
1.00002
17.4522
444.116
1
1
1
1
1
1.00001
1.00003
1.00013
1.00104
1.00382
1.00198
1.00024
1.00005
1.00052
1.00381
1.01708
1.0001
2.84833
442.233
1
1
1
1
1
1
1.00001
1.00006
1.00029
1.00118
1.00072
1.00016
1.00003
1.0002
1.00551
1.05503
1.04727
1.0551
438.28
1
1
1
1
1
1
1.00001
1.00001
1.00007
1.00022
1.00017
1.00006
1.00003
1.00002
1.00022
1.00618
1.00256
5.5036
441.185
1
1
1
1
1
1
1
1.00001
1.00002
1.00005
1.00004
1.00003
1.00002
1.00002
1.00001
1.00001
1.00188
76.3701
376.786
1
1
1
1
1
1
1
1
1.00001
1.00001
1.00001
1.00001
1.00001
1.00001
1.00001
1.00001
3.77946
103.874
8.78545
1
1
1
1
1
1
1
1
1
1
1.00001
1.00001
1.00001
1.00001
1.00001
1.00001
10.9812
58.7631
1.00106
1
1
1
1
1
1
1
1
1
1
1
1.00001
1.00001
1.00001
1.00001
1.00001
10.2759
1.00106
1.00115
1
1
1
1
1
1
1
1
1
1
1
1.00001
1.00001
1.00001
1.00001
1.00001
4.45095
1.07838
1.00588
1
1
1
1
1
1
1
1
1
1
1
1
1.00001
1.00001
1.00001
1.00001
1.00001
1.05486
1.01186
1
1
1
1
1
1
1
1
1
1
1
1
1.00001
1.00001
1.00001
1.00001
1.00001
1.01385
1.00346
1
1
1
1
1
1
1
1
1
1
1
1
1.00001
1.00001
1.00001
1.00001
1.00003
1.00003
1.00009
1
1
1
1
1
1
1
1
1
1
1.00001
1.00001
1.00001
1.00001
1.00001
1.00001
1.00005
1.00043
1.00019
1
1
1
1
1
1
1
1
1
1.00001
1.00001
1.00001
1.00001
1.00001
1.00001
1.00001
1.0002
1.00126
1.00056
1
1
1
1
1
1
1
1
1
1.00001
1.00001
1.00001
1.00002
1.00002
1.00002
1.00001
1.0008
1.00161
1.00081
1
1
1
1
1
1
1
1
1
1.00001
1.00001
1.00002
1.00004
1.00005
1.00004
1.00002
1.00102
1.00164
1.00027
1
1
1
1
1
1
1
1
1
1
1.00001
1.00003
1.00006
1.00007
1.00006
1.00005
1.00018
1.00031
1.00005
1
1
1
1
1
1
1
1
1
1
1.00001
1.00002
1.00005
1.00006
1.00007
1.00013
1.00005
1.00001
1
1
1
1
1
1
1
1
1
1
1
1
1.00001
1.00003
1.00003
1.00004
1.00009
1.00003
1.00001
1
1
1
1
1
1
1
1
1
1
1
1
1
1.00001
1.00001
1.00002
1.00002
1.00001
1
1
1
1
1
1
1
1
1
1
1
1
1
1
1
1.00001
1.00001
1
1
1
1
1
1
1
1
1
1
1
1
1
1
1
1
1
1
1
1
1
1
1
1
1
1
1
1
1
1
1
1
1
1
1
1
1
1
1
1
1
1
)
;

boundaryField
{
    leftWall
    {
        type            calculated;
        value           nonuniform List<scalar> 
50
(
13529
13529
13529
11547.7
1907.74
1000
1000
1000
1000
1000
1000
809.406
113.581
1.00113
1.00001
1
1
1
1
1
1
1
1
1
1
1
1
1
1
1
1
1
1
1
1
1
1
1
1
1
1
1
1
1
1
1
1
1
1
1
)
;
    }
    rightWall
    {
        type            calculated;
        value           nonuniform List<scalar> 
50
(
2728.93
2784.88
3404.05
5821.3
9104.64
8998.69
8848.36
6344.25
4773.1
5939.93
5099.86
881.412
565.208
98.8926
161.04
482.386
491.953
497.782
500
500
500
500
499.998
499.995
499.127
235.733
78.0079
444.116
442.233
438.28
441.185
376.786
8.78545
1.00106
1.00115
1.00588
1.01186
1.00346
1.00009
1.00019
1.00056
1.00081
1.00027
1.00005
1
1
1
1
1
1
)
;
    }
    lowerWall
    {
        type            calculated;
        value           nonuniform List<scalar> 
62
(
13529
13529
13529
13529
13529
13529
13529
13529
13529
13529
13529
13529
13529
13529
13529
13529
13529
13529
13529
13529
13529
13525.6
13521.6
13521.6
13521.6
13523.8
13529
13529
13529
13528.7
13528.6
9027.33
9047.79
9178.81
9092.84
453.755
471.606
491.767
499.925
499.925
2052.28
10104.6
9998.11
453.755
469.203
549.538
1310.1
1813.97
2685.71
3106.59
2934.95
2324.99
1410.89
755.289
542.476
369.365
504.836
557.047
657.621
720.571
1553.28
2728.93
)
;
    }
    atmosphere
    {
        type            calculated;
        value           nonuniform List<scalar> 
46
(
1
1
1
1
1
1
1
1
1
1
1
1
1
1
1
1
1
1
1
1
1
1
1
1
0.999999
1
1
1
1
1
1
1
1
1
1
1
1
1
1
1
1
1
1
1
1
1
)
;
    }
    defaultFaces
    {
        type            empty;
    }
}


// ************************************************************************* //
