/*--------------------------------*- C++ -*----------------------------------*\
  =========                 |
  \\      /  F ield         | OpenFOAM: The Open Source CFD Toolbox
   \\    /   O peration     | Website:  https://openfoam.org
    \\  /    A nd           | Version:  13
     \\/     M anipulation  |
\*---------------------------------------------------------------------------*/
FoamFile
{
    format      ascii;
    class       volVectorField;
    location    "0.65";
    object      U;
}
// * * * * * * * * * * * * * * * * * * * * * * * * * * * * * * * * * * * * * //

dimensions      [0 1 -1 0 0 0 0];

internalField   nonuniform List<vector> 
2268
(
(-0.0252702 0.00648739 0)
(-0.0110281 -0.00726666 0)
(0.00992975 -0.00786615 0)
(0.02429 -0.00564604 0)
(0.0345682 -0.00376996 0)
(0.0403549 -0.00216807 0)
(0.0416542 -0.000588369 0)
(0.0382872 0.000791921 0)
(0.0300345 0.00229611 0)
(0.0169285 0.00382628 0)
(-0.000365146 0.00507234 0)
(-0.0208272 0.0060249 0)
(-0.0428616 0.006419 0)
(-0.0643261 0.00641475 0)
(-0.0840907 0.00605567 0)
(-0.101478 0.00536127 0)
(-0.114965 0.00420419 0)
(-0.122732 0.00235724 0)
(-0.122764 -4.70062e-05 0)
(-0.113403 -0.00273775 0)
(-0.0935178 -0.00521407 0)
(-0.067788 -0.00765963 0)
(-0.0375318 -0.0172633 0)
(-0.00327827 0.0101329 0)
(0.0154807 -0.0112978 0)
(0.0269437 -0.0112324 0)
(0.0355063 -0.00809805 0)
(0.0412234 -0.00496515 0)
(0.0435045 -0.00185362 0)
(0.0417177 0.00146637 0)
(0.0353571 0.00487956 0)
(0.0241525 0.00847219 0)
(0.00800268 0.0118533 0)
(-0.0124083 0.0143468 0)
(-0.0356719 0.0160129 0)
(-0.0597239 0.0162068 0)
(-0.0823442 0.0153421 0)
(-0.102315 0.0136575 0)
(-0.11866 0.0111202 0)
(-0.130055 0.00749192 0)
(-0.134881 0.00240764 0)
(-0.131524 -0.00389672 0)
(-0.118989 -0.0110739 0)
(-0.0966927 -0.0181144 0)
(-0.0673496 -0.0239921 0)
(-0.0278567 -0.0344198 0)
(0.0212964 0.00113199 0)
(0.0292548 -0.0164833 0)
(0.0351947 -0.015032 0)
(0.0393254 -0.0107644 0)
(0.0418779 -0.0062734 0)
(0.041722 -0.00144496 0)
(0.0377908 0.00399571 0)
(0.0292885 0.00984816 0)
(0.0158754 0.0158081 0)
(-0.00244033 0.0212166 0)
(-0.024686 0.0250452 0)
(-0.0489856 0.0271451 0)
(-0.0731554 0.0267847 0)
(-0.0950691 0.0248064 0)
(-0.113589 0.0215016 0)
(-0.127731 0.0168582 0)
(-0.136439 0.0105504 0)
(-0.138391 0.00214847 0)
(-0.132523 -0.00788923 0)
(-0.118655 -0.018905 0)
(-0.0967204 -0.0298097 0)
(-0.0685245 -0.0401456 0)
(-0.0283618 -0.0557937 0)
(0.0345742 -0.0163182 0)
(0.03411 -0.0204971 0)
(0.0371025 -0.0172725 0)
(0.0386201 -0.012385 0)
(0.0391903 -0.00698412 0)
(0.0373867 -0.000633923 0)
(0.0318305 0.0066905 0)
(0.0215858 0.0148882 0)
(0.00635124 0.0235669 0)
(-0.0136986 0.0315183 0)
(-0.036991 0.0367378 0)
(-0.0615152 0.0389229 0)
(-0.084814 0.037538 0)
(-0.105098 0.0339149 0)
(-0.121377 0.028556 0)
(-0.132745 0.021535 0)
(-0.138446 0.0123747 0)
(-0.137418 0.000614126 0)
(-0.129085 -0.0128843 0)
(-0.114061 -0.0271881 0)
(-0.092802 -0.041433 0)
(-0.0669918 -0.0562431 0)
(-0.0296868 -0.0790323 0)
(0.0314605 -0.0269362 0)
(0.0280424 -0.020116 0)
(0.0305668 -0.0164891 0)
(0.030645 -0.0117189 0)
(0.0301309 -0.00595769 0)
(0.0274737 0.00136961 0)
(0.0214611 0.00978702 0)
(0.0110182 0.0193425 0)
(-0.00477449 0.0297879 0)
(-0.0254653 0.0399023 0)
(-0.04889 0.0470838 0)
(-0.0729508 0.0501875 0)
(-0.0946476 0.0477783 0)
(-0.112657 0.04224 0)
(-0.126045 0.0344884 0)
(-0.134199 0.0248291 0)
(-0.136642 0.0127635 0)
(-0.132437 -0.00225305 0)
(-0.121443 -0.0188196 0)
(-0.104954 -0.0357258 0)
(-0.0839389 -0.0524141 0)
(-0.0604861 -0.070968 0)
(-0.0260595 -0.101363 0)
(0.0126103 -0.0412673 0)
(0.0140554 -0.020837 0)
(0.014875 -0.0161182 0)
(0.0136037 -0.0108178 0)
(0.0124718 -0.00416583 0)
(0.0101448 0.00442674 0)
(0.00507285 0.0152742 0)
(-0.0050912 0.0267463 0)
(-0.0213932 0.0381475 0)
(-0.0409517 0.0483934 0)
(-0.0615655 0.0552492 0)
(-0.0827717 0.0583258 0)
(-0.101794 0.055809 0)
(-0.117143 0.0490968 0)
(-0.127303 0.0388597 0)
(-0.132022 0.0264914 0)
(-0.131067 0.0114978 0)
(-0.123541 -0.00671263 0)
(-0.109736 -0.025992 0)
(-0.091436 -0.0448852 0)
(-0.0700687 -0.0631295 0)
(-0.0482957 -0.0844386 0)
(-0.0150884 -0.118745 0)
(-0.00543372 -0.0432801 0)
(-0.00389836 -0.022453 0)
(-0.00691849 -0.0160389 0)
(-0.0113304 -0.0103882 0)
(-0.0154196 -0.00356438 0)
(-0.0194972 0.00591942 0)
(-0.0240554 0.0192623 0)
(-0.0300956 0.0356456 0)
(-0.0384018 0.0512072 0)
(-0.0508812 0.0615369 0)
(-0.0710736 0.065423 0)
(-0.0911127 0.0658765 0)
(-0.106412 0.0614288 0)
(-0.11781 0.0533033 0)
(-0.1246 0.0412532 0)
(-0.126014 0.0264602 0)
(-0.121837 0.00849528 0)
(-0.111041 -0.0128964 0)
(-0.0944774 -0.0345722 0)
(-0.0742536 -0.0549804 0)
(-0.0520998 -0.074128 0)
(-0.0310335 -0.0972879 0)
(0.00200685 -0.127832 0)
(-0.0128667 -0.0357023 0)
(-0.0172522 -0.0202342 0)
(-0.024255 -0.013289 0)
(-0.0314804 -0.00773345 0)
(-0.0377753 -0.00127655 0)
(-0.0431325 0.00777857 0)
(-0.0474847 0.0202406 0)
(-0.0511444 0.0357939 0)
(-0.0548699 0.0526728 0)
(-0.0603803 0.068867 0)
(-0.070777 0.0814323 0)
(-0.0858172 0.0788551 0)
(-0.103991 0.0673996 0)
(-0.11408 0.0568271 0)
(-0.117552 0.042654 0)
(-0.116196 0.0256858 0)
(-0.109137 0.00485673 0)
(-0.0952877 -0.0194861 0)
(-0.0764039 -0.0432552 0)
(-0.0546821 -0.064997 0)
(-0.0316562 -0.0847643 0)
(-0.00995238 -0.109172 0)
(0.0219427 -0.132094 0)
(-0.473229 0.141534 0)
(-0.657185 0.0112559 0)
(-0.694698 -0.0683044 0)
(-0.322289 -0.161572 0)
(0.144199 -0.195358 0)
(0.430411 -0.129352 0)
(0.621314 -0.0741332 0)
(0.749224 -0.0493891 0)
(0.837801 -0.0512942 0)
(0.92622 -0.0474772 0)
(1.02058 -0.00971677 0)
(1.00063 0.0383754 0)
(0.795835 0.0798388 0)
(0.593442 0.0732936 0)
(0.491267 0.0597467 0)
(0.346588 0.0716548 0)
(0.106811 0.0710918 0)
(-0.105605 0.0427711 0)
(-0.145462 -0.103152 0)
(-0.321999 0.258652 0)
(-0.254697 0.0715742 0)
(-0.0485403 -0.071475 0)
(0.291597 -0.222549 0)
(0.437522 -0.218991 0)
(0.521945 -0.151971 0)
(0.608761 -0.0965951 0)
(0.680577 -0.0687429 0)
(0.735476 -0.0605132 0)
(0.771437 -0.0459676 0)
(0.791366 0.0034995 0)
(0.781739 0.0521207 0)
(0.763043 0.0850977 0)
(0.764437 0.0791096 0)
(0.748884 0.0701007 0)
(0.699979 0.0976115 0)
(0.597159 0.145906 0)
(0.348456 0.153281 0)
(0.210994 -0.0364882 0)
(-0.224788 0.32659 0)
(0.103403 -0.0259868 0)
(0.406422 -0.198672 0)
(0.487121 -0.272378 0)
(0.514471 -0.244275 0)
(0.55049 -0.172469 0)
(0.60028 -0.113234 0)
(0.650102 -0.0832195 0)
(0.690487 -0.0720905 0)
(0.715954 -0.0553379 0)
(0.733088 -0.0105826 0)
(0.753363 0.0377102 0)
(0.776741 0.0689053 0)
(0.793581 0.0729624 0)
(0.785851 0.077156 0)
(0.752123 0.116628 0)
(0.678089 0.184685 0)
(0.502974 0.233204 0)
(0.363519 0.124532 0)
(-0.112806 0.328739 0)
(0.379164 -0.194201 0)
(0.518585 -0.273486 0)
(0.536391 -0.284056 0)
(0.536804 -0.25197 0)
(0.548718 -0.184554 0)
(0.582804 -0.125235 0)
(0.626843 -0.0937797 0)
(0.663859 -0.0813423 0)
(0.687674 -0.0616547 0)
(0.708117 -0.0163821 0)
(0.735787 0.0293039 0)
(0.765967 0.060567 0)
(0.784863 0.0704565 0)
(0.775506 0.0845667 0)
(0.73643 0.137692 0)
(0.661172 0.22825 0)
(0.495761 0.308882 0)
(0.361929 0.290782 0)
(0.231687 0.298529 0)
(0.468887 -0.266631 0)
(0.526103 -0.290336 0)
(0.541309 -0.285964 0)
(0.532926 -0.252094 0)
(0.527947 -0.185165 0)
(0.553943 -0.135974 0)
(0.591337 -0.11038 0)
(0.626246 -0.0934046 0)
(0.652679 -0.0690293 0)
(0.677481 -0.0220471 0)
(0.70931 0.0244401 0)
(0.741889 0.0590212 0)
(0.759268 0.0747682 0)
(0.742714 0.0963695 0)
(0.692071 0.160142 0)
(0.600899 0.266975 0)
(0.422148 0.384043 0)
(0.327692 0.43396 0)
(0.444781 -0.0446949 0)
(0.472591 -0.281256 0)
(0.512846 -0.298703 0)
(0.52311 -0.283842 0)
(0.503349 -0.243182 0)
(0.490684 -0.191673 0)
(0.506645 -0.155391 0)
(0.5328 -0.130682 0)
(0.559457 -0.111535 0)
(0.58301 -0.0866224 0)
(0.613286 -0.0425836 0)
(0.652755 0.00586284 0)
(0.68725 0.0458614 0)
(0.703202 0.0744759 0)
(0.688728 0.115211 0)
(0.62999 0.192912 0)
(0.498014 0.312184 0)
(0.308782 0.445805 0)
(0.283129 0.566238 0)
(0.409771 -0.227875 0)
(0.433971 -0.29613 0)
(0.483515 -0.304075 0)
(0.48105 -0.277742 0)
(0.457987 -0.236719 0)
(0.450861 -0.192514 0)
(0.460152 -0.160688 0)
(0.478445 -0.138099 0)
(0.499246 -0.119012 0)
(0.519314 -0.0943952 0)
(0.545108 -0.0566418 0)
(0.577626 -0.012146 0)
(0.607628 0.0313229 0)
(0.622922 0.0727919 0)
(0.604658 0.133452 0)
(0.532747 0.257206 0)
(0.416203 0.433851 0)
(0.157046 0.505024 0)
(0.253527 0.66245 0)
(0.404224 -0.369451 0)
(0.38669 -0.329827 0)
(0.438194 -0.311879 0)
(0.429678 -0.274801 0)
(0.416708 -0.232157 0)
(0.409091 -0.193137 0)
(0.412759 -0.165038 0)
(0.425075 -0.145089 0)
(0.441826 -0.126653 0)
(0.459307 -0.10285 0)
(0.480888 -0.0664008 0)
(0.507293 -0.0224642 0)
(0.530718 0.0250254 0)
(0.537088 0.0761623 0)
(0.506761 0.152712 0)
(0.434037 0.289805 0)
(0.353594 0.475401 0)
(-0.0150687 0.631891 0)
(0.235191 0.711526 0)
(-0.0171378 -0.0224715 0)
(-0.0311747 -0.0124505 0)
(-0.0445234 -0.00637415 0)
(-0.0560939 -0.00166821 0)
(-0.0653837 0.00378503 0)
(-0.0723247 0.0116322 0)
(-0.0766221 0.0226018 0)
(-0.0780948 0.03652 0)
(-0.0770293 0.0522702 0)
(-0.0743851 0.0684294 0)
(-0.0716984 0.0826047 0)
(-0.0716601 0.0906518 0)
(-0.0770118 0.0882249 0)
(-0.0887218 0.0659119 0)
(-0.0985426 0.043328 0)
(-0.0955405 0.0230415 0)
(-0.0827452 -0.00155153 0)
(-0.0651566 -0.028385 0)
(-0.0451018 -0.0536242 0)
(-0.0234873 -0.076697 0)
(-0.000287053 -0.0977199 0)
(0.0224691 -0.122458 0)
(0.0360792 -0.141095 0)
(-0.0212235 0.00187423 0)
(-0.0429389 0.00693061 0)
(-0.0616753 0.00945612 0)
(-0.0770515 0.0109846 0)
(-0.0885495 0.0133314 0)
(-0.0962968 0.0178781 0)
(-0.100161 0.0252826 0)
(-0.0998648 0.0354884 0)
(-0.0953734 0.0478136 0)
(-0.0870846 0.0609552 0)
(-0.0758191 0.0727071 0)
(-0.0631232 0.0797797 0)
(-0.0506269 0.0797945 0)
(-0.0399873 0.0697844 0)
(-0.0308823 0.0475447 0)
(-0.0238721 0.013594 0)
(-0.0166819 -0.0199788 0)
(-0.00593534 -0.0488692 0)
(0.0100318 -0.0744953 0)
(0.0312497 -0.0981897 0)
(0.0610752 -0.120076 0)
(0.0980635 -0.146465 0)
(0.144919 -0.168839 0)
(-0.0208322 0.0414392 0)
(-0.0486362 0.0343611 0)
(-0.0717675 0.0298268 0)
(-0.0898751 0.0261074 0)
(-0.102691 0.0238638 0)
(-0.110649 0.0238847 0)
(-0.113828 0.0265397 0)
(-0.111953 0.0317559 0)
(-0.104868 0.0392433 0)
(-0.0927737 0.0480086 0)
(-0.0760978 0.0560885 0)
(-0.0557525 0.0609802 0)
(-0.0330977 0.0599326 0)
(-0.00929594 0.0498357 0)
(0.0147562 0.0301275 0)
(0.0378227 0.000915174 0)
(0.0601811 -0.0343116 0)
(0.0834054 -0.0715215 0)
(0.10974 -0.107707 0)
(0.140277 -0.142081 0)
(0.175741 -0.174624 0)
(0.214667 -0.208923 0)
(0.255778 -0.245247 0)
(-0.024592 0.0514976 0)
(-0.0522688 0.0497416 0)
(-0.077576 0.0420409 0)
(-0.0970204 0.0347659 0)
(-0.110252 0.029181 0)
(-0.117968 0.0258421 0)
(-0.120316 0.0246906 0)
(-0.116852 0.0251712 0)
(-0.107236 0.0271784 0)
(-0.0918219 0.0304422 0)
(-0.071303 0.0333776 0)
(-0.0463172 0.0340575 0)
(-0.0177209 0.0299786 0)
(0.0138532 0.0181884 0)
(0.0468367 -0.00203626 0)
(0.0796823 -0.0295973 0)
(0.11125 -0.0622708 0)
(0.142346 -0.0981292 0)
(0.174259 -0.134851 0)
(0.207559 -0.170808 0)
(0.242078 -0.205815 0)
(0.276792 -0.240551 0)
(0.309801 -0.274637 0)
(-0.0235023 0.0971544 0)
(-0.0450451 0.0787399 0)
(-0.0765457 0.0624665 0)
(-0.0997766 0.0494366 0)
(-0.114742 0.038845 0)
(-0.122491 0.0306518 0)
(-0.122702 0.02434 0)
(-0.115158 0.0191577 0)
(-0.101484 0.0159411 0)
(-0.0830102 0.0142847 0)
(-0.0602823 0.011856 0)
(-0.0329706 0.00781642 0)
(-0.000983143 -0.000400148 0)
(0.0346654 -0.0158466 0)
(0.0721251 -0.0378323 0)
(0.109654 -0.064707 0)
(0.14597 -0.0954366 0)
(0.180908 -0.129659 0)
(0.214652 -0.164957 0)
(0.247107 -0.199065 0)
(0.27809 -0.231258 0)
(0.306867 -0.261862 0)
(0.333957 -0.291827 0)
(-0.0749126 0.150882 0)
(-0.02679 0.110101 0)
(-0.0601207 0.086597 0)
(-0.0808705 0.0636608 0)
(-0.0993203 0.0452272 0)
(-0.111122 0.0325598 0)
(-0.114215 0.0238414 0)
(-0.109419 0.0162592 0)
(-0.0979616 0.0117334 0)
(-0.0763588 0.00549395 0)
(-0.0494067 -0.00537315 0)
(-0.0180497 -0.0140606 0)
(0.0184961 -0.0251587 0)
(0.0569824 -0.0422412 0)
(0.0956608 -0.0640509 0)
(0.134076 -0.0897569 0)
(0.172028 -0.119135 0)
(0.20874 -0.152436 0)
(0.242845 -0.186865 0)
(0.274198 -0.220003 0)
(0.302342 -0.250522 0)
(0.327907 -0.276301 0)
(0.359428 -0.295878 0)
(0.0154739 0.181589 0)
(0.0252845 0.159598 0)
(0.0107667 0.162935 0)
(0.00363906 0.133554 0)
(-0.00503248 0.0969806 0)
(-0.0139956 0.0592162 0)
(-0.0229759 0.0224839 0)
(-0.0301017 -0.0102467 0)
(-0.0277856 -0.0336819 0)
(-0.0476808 -0.0336034 0)
(-0.0398531 -0.0296705 0)
(-0.0108946 -0.0293394 0)
(0.0297939 -0.035781 0)
(0.0741166 -0.0501566 0)
(0.117861 -0.0707661 0)
(0.160765 -0.096216 0)
(0.203064 -0.126126 0)
(0.242488 -0.160338 0)
(0.276657 -0.195843 0)
(0.306268 -0.230893 0)
(0.329495 -0.269067 0)
(0.313781 -0.319107 0)
(0.158983 -0.358548 0)
(0.020674 0.116772 0)
(0.0417823 0.118655 0)
(0.0509851 0.112927 0)
(0.0593889 0.0961066 0)
(0.0624416 0.0757787 0)
(0.0610928 0.0549544 0)
(0.0566615 0.0353034 0)
(0.0499579 0.0180923 0)
(0.0432177 0.000676567 0)
(0.0375602 -0.0307639 0)
(0.0416001 -0.0892824 0)
(0.0512872 -0.141783 0)
(0.0660134 -0.176231 0)
(0.0847584 -0.20028 0)
(0.104505 -0.2221 0)
(0.122454 -0.246117 0)
(0.136077 -0.270061 0)
(0.143086 -0.292327 0)
(0.140466 -0.31287 0)
(0.12244 -0.325624 0)
(0.0845633 -0.292032 0)
(0.0313193 -0.209304 0)
(-0.06946 -0.148534 0)
(0.0155462 0.091343 0)
(0.0434609 0.0985697 0)
(0.0654767 0.0948085 0)
(0.083799 0.0837876 0)
(0.0961185 0.0692144 0)
(0.10302 0.0531854 0)
(0.105845 0.0369295 0)
(0.106068 0.0205851 0)
(0.106076 0.00321007 0)
(0.107366 -0.0196915 0)
(0.108943 -0.052898 0)
(0.108128 -0.0872331 0)
(0.106841 -0.115462 0)
(0.106715 -0.138796 0)
(0.106775 -0.160074 0)
(0.104454 -0.180645 0)
(0.0968805 -0.199607 0)
(0.0812128 -0.215711 0)
(0.0538793 -0.226933 0)
(0.0102085 -0.225518 0)
(-0.0500063 -0.19173 0)
(-0.123429 -0.114032 0)
(-0.216498 -0.0348505 0)
(0.0150974 0.0622529 0)
(0.0427127 0.0720809 0)
(0.0679726 0.0723726 0)
(0.0900886 0.0666876 0)
(0.107432 0.0571803 0)
(0.120065 0.0452353 0)
(0.128867 0.0316495 0)
(0.135076 0.0164497 0)
(0.140213 -0.00118389 0)
(0.144117 -0.0236121 0)
(0.14466 -0.0521139 0)
(0.140199 -0.0816885 0)
(0.1321 -0.107944 0)
(0.122113 -0.13017 0)
(0.110195 -0.149091 0)
(0.094805 -0.164852 0)
(0.0738488 -0.176437 0)
(0.0450183 -0.182342 0)
(0.00533711 -0.179578 0)
(-0.0488745 -0.160771 0)
(-0.11689 -0.114276 0)
(-0.193144 -0.0355679 0)
(-0.280316 0.06731 0)
(0.0137043 0.0362822 0)
(0.0387568 0.045028 0)
(0.0633651 0.0476121 0)
(0.0859684 0.0457595 0)
(0.105293 0.0404302 0)
(0.121032 0.032312 0)
(0.133514 0.0218042 0)
(0.143318 0.00885681 0)
(0.150917 -0.00711852 0)
(0.155786 -0.0272507 0)
(0.156244 -0.0512959 0)
(0.151131 -0.0762826 0)
(0.141074 -0.0991451 0)
(0.127156 -0.118526 0)
(0.109585 -0.133955 0)
(0.0876224 -0.144743 0)
(0.0600505 -0.14954 0)
(0.0253746 -0.146404 0)
(-0.0185366 -0.131922 0)
(-0.0737055 -0.0999277 0)
(-0.139185 -0.0427179 0)
(-0.211016 0.0438273 0)
(-0.287717 0.154213 0)
(0.0116418 0.0131993 0)
(0.0333649 0.0203004 0)
(0.0555782 0.0240062 0)
(0.0768181 0.0245405 0)
(0.0960108 0.0221464 0)
(0.112644 0.0170596 0)
(0.126632 0.00941492 0)
(0.138011 -0.00083959 0)
(0.146695 -0.0139546 0)
(0.152038 -0.0302704 0)
(0.152862 -0.0492174 0)
(0.148326 -0.0688284 0)
(0.138551 -0.0869169 0)
(0.124046 -0.101981 0)
(0.104995 -0.112942 0)
(0.0811011 -0.118582 0)
(0.0517699 -0.117227 0)
(0.0162277 -0.106612 0)
(-0.0267633 -0.0832098 0)
(-0.0778583 -0.0420758 0)
(-0.13597 0.0222245 0)
(-0.197737 0.112433 0)
(-0.26104 0.22559 0)
(0.00946257 -0.00612223 0)
(0.0277334 -0.00102657 0)
(0.0468825 0.00299591 0)
(0.065784 0.0048642 0)
(0.083522 0.00438151 0)
(0.0995045 0.00153229 0)
(0.113425 -0.00366816 0)
(0.125028 -0.0112446 0)
(0.133931 -0.0212499 0)
(0.139489 -0.0335914 0)
(0.140835 -0.0476242 0)
(0.137319 -0.0619559 0)
(0.128814 -0.0749475 0)
(0.115484 -0.0851537 0)
(0.0974318 -0.0912517 0)
(0.0745715 -0.0917643 0)
(0.0466937 -0.0848377 0)
(0.0135483 -0.0680719 0)
(-0.0253176 -0.0380793 0)
(-0.069664 0.00917283 0)
(-0.118014 0.077481 0)
(-0.167684 0.168494 0)
(-0.216577 0.280744 0)
(0.00739661 -0.0218389 0)
(0.0223953 -0.0187664 0)
(0.038392 -0.014924 0)
(0.0545721 -0.0124285 0)
(0.0701716 -0.0117322 0)
(0.0846104 -0.0129772 0)
(0.0974858 -0.0162066 0)
(0.108408 -0.0214114 0)
(0.116909 -0.028504 0)
(0.122391 -0.0372197 0)
(0.124179 -0.0469235 0)
(0.121744 -0.056537 0)
(0.114863 -0.064755 0)
(0.103525 -0.0702509 0)
(0.0877734 -0.0716602 0)
(0.0676272 -0.0674344 0)
(0.0431097 -0.0556926 0)
(0.0143206 -0.0340773 0)
(-0.0185941 0.000499741 0)
(-0.0547772 0.0514048 0)
(-0.0926772 0.121045 0)
(-0.129851 0.210987 0)
(-0.16448 0.319993 0)
(0.00551533 -0.0342697 0)
(0.0174637 -0.0332306 0)
(0.0304427 -0.0298577 0)
(0.0438606 -0.0271543 0)
(0.0570712 -0.0257591 0)
(0.0695429 -0.0258743 0)
(0.0808608 -0.0275531 0)
(0.090608 -0.0307523 0)
(0.0983195 -0.0353158 0)
(0.103469 -0.040913 0)
(0.10552 -0.0469473 0)
(0.104041 -0.0525281 0)
(0.0987911 -0.0565653 0)
(0.0896955 -0.057863 0)
(0.0767761 -0.055112 0)
(0.0601206 -0.0468082 0)
(0.0399023 -0.0311522 0)
(0.0164452 -0.00595019 0)
(-0.00967012 0.0315276 0)
(-0.0373485 0.0838767 0)
(-0.0648866 0.1531 0)
(-0.0901439 0.240317 0)
(-0.111539 0.344461 0)
(0.00385682 -0.0436691 0)
(0.013021 -0.0446009 0)
(0.0231896 -0.0419019 0)
(0.0339506 -0.0392854 0)
(0.0447563 -0.0375293 0)
(0.0551343 -0.0368732 0)
(0.0646936 -0.03737 0)
(0.0730399 -0.0389533 0)
(0.079752 -0.0414327 0)
(0.0843866 -0.04446 0)
(0.0865161 -0.0474854 0)
(0.0857953 -0.0497451 0)
(0.0820122 -0.0503026 0)
(0.0750897 -0.0480887 0)
(0.0650642 -0.0418948 0)
(0.0520811 -0.0303234 0)
(0.0364181 -0.0117233 0)
(0.0185504 0.015872 0)
(-0.000696674 0.0546838 0)
(-0.0201056 0.106994 0)
(-0.0380202 0.174333 0)
(-0.0524498 0.257546 0)
(-0.061984 0.355715 0)
(0.00242133 -0.0503807 0)
(0.00910021 -0.0531571 0)
(0.016713 -0.0512476 0)
(0.0250015 -0.0489178 0)
(0.0335085 -0.04705 0)
(0.0418246 -0.0459087 0)
(0.049598 -0.0455462 0)
(0.0564776 -0.0458829 0)
(0.0621011 -0.0467162 0)
(0.0661054 -0.0477043 0)
(0.0681552 -0.0483454 0)
(0.0679844 -0.0479719 0)
(0.0654309 -0.0457678 0)
(0.0604485 -0.0407844 0)
(0.0531095 -0.031933 0)
(0.0436151 -0.017954 0)
(0.0323236 0.00262261 0)
(0.0198121 0.0314964 0)
(0.00699049 0.0704845 0)
(-0.00488906 0.121474 0)
(-0.0142486 0.185826 0)
(-0.019264 0.264103 0)
(-0.018655 0.355555 0)
(0.00119483 -0.0547517 0)
(0.00569158 -0.059205 0)
(0.0110264 -0.058143 0)
(0.0170702 -0.0562348 0)
(0.0234507 -0.05444 0)
(0.0298224 -0.0530422 0)
(0.0358785 -0.0520951 0)
(0.0413169 -0.0515157 0)
(0.045836 -0.051103 0)
(0.049146 -0.0505341 0)
(0.0509902 -0.0493549 0)
(0.0511743 -0.0469784 0)
(0.049592 -0.042691 0)
(0.046242 -0.0356586 0)
(0.0412405 -0.0249192 0)
(0.0348404 -0.009364 0)
(0.0274591 0.0122847 0)
(0.0197375 0.0414502 0)
(0.012589 0.0796652 0)
(0.00723379 0.128438 0)
(0.005121 0.188945 0)
(0.00794881 0.261693 0)
(0.0169662 0.346002 0)
(0.000168946 -0.057116 0)
(0.00277016 -0.0630494 0)
(0.00610258 -0.0628557 0)
(0.0101486 -0.061457 0)
(0.0146083 -0.0598715 0)
(0.0191976 -0.0583989 0)
(0.0236552 -0.057097 0)
(0.0277278 -0.0558868 0)
(0.0311706 -0.0545779 0)
(0.0337577 -0.052873 0)
(0.0352995 -0.0503657 0)
(0.0356642 -0.0465406 0)
(0.0347994 -0.0407764 0)
(0.0327494 -0.0323479 0)
(0.0296729 -0.0204202 0)
(0.0258648 -0.00403756 0)
(0.0217825 0.0178848 0)
(0.0180926 0.0465355 0)
(0.0156872 0.0831946 0)
(0.0157044 0.129107 0)
(0.0194922 0.185252 0)
(0.0285652 0.252056 0)
(0.0441336 0.3289 0)
(-0.000664773 -0.0577505 0)
(0.000301558 -0.0650158 0)
(0.00188914 -0.0656628 0)
(0.00418993 -0.0648208 0)
(0.00694787 -0.0635417 0)
(0.00993694 -0.0621356 0)
(0.0129394 -0.0606669 0)
(0.0157476 -0.059065 0)
(0.0181673 -0.0571561 0)
(0.0200272 -0.0546723 0)
(0.0211937 -0.0512541 0)
(0.021588 -0.0464524 0)
(0.021204 -0.0397311 0)
(0.0201261 -0.0304681 0)
(0.0185476 -0.0179521 0)
(0.0167922 -0.0013752 0)
(0.015339 0.0201666 0)
(0.0148506 0.0476598 0)
(0.0161853 0.0821674 0)
(0.0204077 0.12472 0)
(0.02873 0.176148 0)
(0.0425363 0.23682 0)
(0.0629503 0.306223 0)
(-0.00141058 -0.0569408 0)
(-0.00177484 -0.0653745 0)
(-0.00166003 -0.0668256 0)
(-0.000868126 -0.0665623 0)
(0.000404276 -0.0656552 0)
(0.00198006 -0.0644222 0)
(0.00367999 -0.0629356 0)
(0.00533714 -0.061137 0)
(0.00680089 -0.058872 0)
(0.00794596 -0.0559039 0)
(0.0086845 -0.0519191 0)
(0.0089805 -0.0465306 0)
(0.00886548 -0.0392812 0)
(0.00845468 -0.0296458 0)
(0.00796495 -0.0170291 0)
(0.00773488 -0.000762308 0)
(0.00824558 0.0198962 0)
(0.0101435 0.0457517 0)
(0.0142424 0.0776874 0)
(0.0215211 0.11656 0)
(0.033098 0.163079 0)
(0.0501899 0.217592 0)
(0.0738317 0.279706 0)
(-0.00203247 -0.054937 0)
(-0.00349845 -0.0643694 0)
(-0.00461097 -0.0665887 0)
(-0.00509694 -0.0669069 0)
(-0.00510154 -0.0664123 0)
(-0.00475676 -0.0654295 0)
(-0.00420697 -0.0640395 0)
(-0.00358399 -0.0621978 0)
(-0.00300138 -0.0597716 0)
(-0.00254671 -0.0565558 0)
(-0.00227118 -0.0522804 0)
(-0.00217727 -0.0466165 0)
(-0.0022053 -0.0391801 0)
(-0.00221879 -0.0295352 0)
(-0.00198829 -0.0171949 0)
(-0.00117475 -0.00161863 0)
(0.000685134 0.017789 0)
(0.00421477 0.0416903 0)
(0.0101763 0.0707922 0)
(0.019467 0.105816 0)
(0.0330941 0.147382 0)
(0.0521648 0.195828 0)
(0.0776189 0.250913 0)
(-0.0025336 -0.0519472 0)
(-0.00489804 -0.0622479 0)
(-0.00702171 -0.065184 0)
(-0.00857409 -0.0660703 0)
(-0.00965871 -0.066006 0)
(-0.0103696 -0.0653233 0)
(-0.0108213 -0.0641127 0)
(-0.0111154 -0.0623443 0)
(-0.0113346 -0.0599076 0)
(-0.0115359 -0.056628 0)
(-0.0117417 -0.0522773 0)
(-0.0119295 -0.04658 0)
(-0.01202 -0.0392187 0)
(-0.0118648 -0.0298386 0)
(-0.0112326 -0.0180489 0)
(-0.00979538 -0.00342276 0)
(-0.0071123 0.0145073 0)
(-0.00261337 0.0362583 0)
(0.00440521 0.0624018 0)
(0.0147778 0.093557 0)
(0.0294192 0.130247 0)
(0.0493055 0.172829 0)
(0.0753091 0.221204 0)
(-0.00292106 -0.0481696 0)
(-0.00599952 -0.0592234 0)
(-0.00893956 -0.0628199 0)
(-0.011367 -0.0642492 0)
(-0.0133513 -0.0646169 0)
(-0.0149547 -0.0642628 0)
(-0.0162665 -0.0632878 0)
(-0.0173633 -0.0616773 0)
(-0.0183024 -0.0593421 0)
(-0.0191167 -0.0561373 0)
(-0.0198069 -0.0518729 0)
(-0.0203327 -0.0463222 0)
(-0.0206031 -0.0392277 0)
(-0.0204655 -0.0303063 0)
(-0.019695 -0.0192522 0)
(-0.0179827 -0.00573644 0)
(-0.0149213 0.0105991 0)
(-0.00999745 0.030145 0)
(-0.00258328 0.0533362 0)
(0.00808833 0.0806947 0)
(0.0228519 0.112701 0)
(0.0425877 0.149699 0)
(0.0680914 0.191741 0)
(-0.00319901 -0.0437913 0)
(-0.00682317 -0.0554872 0)
(-0.0104048 -0.0596839 0)
(-0.0135349 -0.0616219 0)
(-0.0162547 -0.0624099 0)
(-0.0186004 -0.0623953 0)
(-0.0206401 -0.06169 0)
(-0.0224296 -0.0602943 0)
(-0.024006 -0.0581397 0)
(-0.0253838 -0.0551085 0)
(-0.026548 -0.0510458 0)
(-0.0274468 -0.0457684 0)
(-0.0279836 -0.0390719 0)
(-0.0280083 -0.0307357 0)
(-0.0273084 -0.0205272 0)
(-0.0255997 -0.00820148 0)
(-0.0225176 0.00650442 0)
(-0.017599 0.0238811 0)
(-0.0102982 0.0442484 0)
(4.75142e-05 0.0679908 0)
(0.0142302 0.0955852 0)
(0.033028 0.127361 0)
(0.0571728 0.163484 0)
(-0.00337327 -0.0389864 0)
(-0.00739012 -0.0512135 0)
(-0.0114543 -0.0559451 0)
(-0.0151309 -0.0583498 0)
(-0.0184373 -0.0595356 0)
(-0.0213875 -0.0598572 0)
(-0.0240319 -0.0594374 0)
(-0.0264092 -0.0582907 0)
(-0.0285411 -0.0563679 0)
(-0.0304281 -0.0535761 0)
(-0.0320445 -0.0497917 0)
(-0.0333323 -0.04487 0)
(-0.0341941 -0.0386525 0)
(-0.0344867 -0.0309726 0)
(-0.034014 -0.0216597 0)
(-0.0325201 -0.0105389 0)
(-0.0296829 0.00257303 0)
(-0.0250984 0.0178814 0)
(-0.0182931 0.0356135 0)
(-0.00869908 0.0560473 0)
(0.0043536 0.079549 0)
(0.0216311 0.106528 0)
(0.043777 0.1372 0)
(-0.00344901 -0.0339176 0)
(-0.00771862 -0.0465615 0)
(-0.0121218 -0.051757 0)
(-0.0162038 -0.0545792 0)
(-0.0199612 -0.0561313 0)
(-0.0233897 -0.0567743 0)
(-0.0265242 -0.0566409 0)
(-0.02939 -0.0557588 0)
(-0.0319967 -0.0540961 0)
(-0.0343349 -0.0515818 0)
(-0.0363726 -0.0481203 0)
(-0.0380489 -0.0436003 0)
(-0.0392695 -0.0379029 0)
(-0.0399009 -0.030907 0)
(-0.0397655 -0.0224934 0)
(-0.0386368 -0.0125451 0)
(-0.0362349 -0.000943627 0)
(-0.0322145 0.0124448 0)
(-0.0261691 0.0277736 0)
(-0.0176223 0.0452343 0)
(-0.00601358 0.0650899 0)
(0.00931972 0.0877136 0)
(0.0290245 0.113448 0)
(-0.00343421 -0.0287344 0)
(-0.00783017 -0.0416763 0)
(-0.0124412 -0.0472588 0)
(-0.0168 -0.0504431 0)
(-0.0208846 -0.0523226 0)
(-0.0246748 -0.0532628 0)
(-0.0281927 -0.0534046 0)
(-0.0314524 -0.0527874 0)
(-0.0344547 -0.0513941 0)
(-0.0371838 -0.0491733 0)
(-0.0396041 -0.0460534 0)
(-0.0416552 -0.0419522 0)
(-0.0432475 -0.0367843 0)
(-0.044259 -0.0304668 0)
(-0.0445311 -0.0229225 0)
(-0.0438657 -0.014081 0)
(-0.0420224 -0.00387505 0)
(-0.0387116 0.00777135 0)
(-0.033591 0.0209513 0)
(-0.0262647 0.0357883 0)
(-0.0162744 0.0524662 0)
(-0.00307848 0.0712647 0)
(0.0139193 0.0925834 0)
(-0.00333693 -0.0235738 0)
(-0.00774512 -0.0366899 0)
(-0.0124463 -0.0425771 0)
(-0.0169649 -0.0460629 0)
(-0.0212629 -0.048225 0)
(-0.0253068 -0.0494307 0)
(-0.0291075 -0.0498269 0)
(-0.0326707 -0.0494622 0)
(-0.0359909 -0.0483322 0)
(-0.0390486 -0.0464023 0)
(-0.0418071 -0.0436219 0)
(-0.044208 -0.0399336 0)
(-0.0461684 -0.0352806 0)
(-0.0475774 -0.0296115 0)
(-0.0482947 -0.0228832 0)
(-0.0481485 -0.0150618 0)
(-0.0469345 -0.00611957 0)
(-0.0444129 0.00397384 0)
(-0.0402991 0.0152661 0)
(-0.034273 0.0278261 0)
(-0.0259595 0.0417752 0)
(-0.0149274 0.0573202 0)
(-0.000714131 0.0747829 0)
(-0.00316786 -0.0185569 0)
(-0.00748842 -0.0317206 0)
(-0.0121732 -0.0378268 0)
(-0.0167445 -0.0415499 0)
(-0.0211506 -0.0439456 0)
(-0.0253468 -0.0453793 0)
(-0.0293348 -0.0460012 0)
(-0.0331141 -0.0458664 0)
(-0.0366755 -0.0449808 0)
(-0.0399979 -0.0433242 0)
(-0.0430454 -0.0408642 0)
(-0.045763 -0.0375649 0)
(-0.0480744 -0.0333938 0)
(-0.0498798 -0.0283256 0)
(-0.051055 -0.0223447 0)
(-0.0514515 -0.0154449 0)
(-0.0508961 -0.00762811 0)
(-0.0491912 0.00110349 0)
(-0.046107 0.0107602 0)
(-0.0413849 0.0213729 0)
(-0.0347307 0.0330135 0)
(-0.0257967 0.0458273 0)
(-0.0142384 0.0600658 0)
(-0.00293791 -0.0137888 0)
(-0.00708512 -0.0268723 0)
(-0.0116603 -0.0331113 0)
(-0.016187 -0.0370066 0)
(-0.0206028 -0.0395849 0)
(-0.0248547 -0.0412052 0)
(-0.0289378 -0.0420177 0)
(-0.0328479 -0.0420815 0)
(-0.0365741 -0.0414107 0)
(-0.0400958 -0.0399972 0)
(-0.0433792 -0.0378245 0)
(-0.0463735 -0.0348759 0)
(-0.0490089 -0.0311398 0)
(-0.0511954 -0.0266127 0)
(-0.0528228 -0.0213008 0)
(-0.053762 -0.0152192 0)
(-0.0538661 -0.00839055 0)
(-0.052972 -0.000839146 0)
(-0.050897 0.00741928 0)
(-0.0474362 0.0163877 0)
(-0.0423598 0.0261012 0)
(-0.0354018 0.0366568 0)
(-0.0263054 0.04824 0)
(-0.00266196 -0.00935473 0)
(-0.00656728 -0.0222331 0)
(-0.010952 -0.0285228 0)
(-0.0153447 -0.0325278 0)
(-0.019677 -0.0352379 0)
(-0.0238912 -0.0370013 0)
(-0.027979 -0.0379647 0)
(-0.0319349 -0.0381887 0)
(-0.035749 -0.0376936 0)
(-0.0394027 -0.0364821 0)
(-0.0428653 -0.0345521 0)
(-0.0460906 -0.031904 0)
(-0.0490148 -0.0285449 0)
(-0.0515564 -0.0244901 0)
(-0.0536168 -0.019763 0)
(-0.0550824 -0.0143948 0)
(-0.0558277 -0.00842176 0)
(-0.0557175 -0.00188158 0)
(-0.0546065 0.00519405 0)
(-0.0523356 0.0127891 0)
(-0.0487318 0.0209137 0)
(-0.0435894 0.0296258 0)
(-0.0367285 0.0390565 0)
(-0.00235865 -0.00531935 0)
(-0.00597013 -0.0178739 0)
(-0.0100989 -0.0241425 0)
(-0.0142759 -0.0282019 0)
(-0.0184348 -0.0309968 0)
(-0.022519 -0.0328595 0)
(-0.0265207 -0.0339303 0)
(-0.0304368 -0.0342695 0)
(-0.0342604 -0.0339027 0)
(-0.0379762 -0.0328425 0)
(-0.0415575 -0.0311004 0)
(-0.0449626 -0.028693 0)
(-0.0481334 -0.0256441 0)
(-0.0509954 -0.0219856 0)
(-0.0534593 -0.0177553 0)
(-0.0554242 -0.012996 0)
(-0.056781 -0.00775205 0)
(-0.0574165 -0.00206762 0)
(-0.0572156 0.00401827 0)
(-0.0560562 0.0104789 0)
(-0.0538078 0.0173077 0)
(-0.0503217 0.0245348 0)
(-0.0454686 0.0322449 0)
(-0.0020561 -0.00172128 0)
(-0.0053408 -0.0138455 0)
(-0.00916218 -0.0200405 0)
(-0.0130467 -0.024113 0)
(-0.0169429 -0.0269527 0)
(-0.0208035 -0.0288721 0)
(-0.0246269 -0.0300036 0)
(-0.0284158 -0.0304073 0)
(-0.032168 -0.0301137 0)
(-0.0358729 -0.0291457 0)
(-0.0395078 -0.0275281 0)
(-0.0430356 -0.0252928 0)
(-0.0464032 -0.0224798 0)
(-0.0495426 -0.0191355 0)
(-0.0523724 -0.0153105 0)
(-0.0548015 -0.0110555 0)
(-0.056734 -0.00641905 0)
(-0.0580747 -0.00144583 0)
(-0.058731 0.00382443 0)
(-0.0586098 0.00936087 0)
(-0.0576167 0.0151472 0)
(-0.0556393 0.0211928 0)
(-0.0525896 0.0275475 0)
(-0.00179628 0.00143572 0)
(-0.00473749 -0.0101757 0)
(-0.00821572 -0.0162778 0)
(-0.011732 -0.0203438 0)
(-0.0152733 -0.0231984 0)
(-0.0188133 -0.0251338 0)
(-0.0223636 -0.0262764 0)
(-0.0259356 -0.0266877 0)
(-0.0295332 -0.0264055 0)
(-0.0331502 -0.0254633 0)
(-0.036768 -0.0238993 0)
(-0.0403538 -0.0217607 0)
(-0.04386 -0.0191024 0)
(-0.0472246 -0.0159847 0)
(-0.0503741 -0.0124687 0)
(-0.0532264 -0.00861151 0)
(-0.0556971 -0.00446203 0)
(-0.0577057 -6.15576e-05 0)
(-0.0591775 0.00455437 0)
(-0.0600412 0.0093552 0)
(-0.0602249 0.0143189 0)
(-0.0596475 0.0194406 0)
(-0.0582379 0.0247409 0)
(-0.00165195 0.00421763 0)
(-0.00424406 -0.00686775 0)
(-0.00734977 -0.0129106 0)
(-0.0104145 -0.0169802 0)
(-0.0135002 -0.0198313 0)
(-0.0166176 -0.0217426 0)
(-0.0197981 -0.022842 0)
(-0.0230628 -0.0231984 0)
(-0.0264206 -0.0228597 0)
(-0.0298687 -0.0218713 0)
(-0.033392 -0.0202852 0)
(-0.036962 -0.0181625 0)
(-0.040537 -0.0155722 0)
(-0.0440633 -0.0125867 0)
(-0.047477 -0.00927678 0)
(-0.0507068 -0.00570434 0)
(-0.0536805 -0.00191651 0)
(-0.0563306 0.00205149 0)
(-0.0585958 0.00617044 0)
(-0.0604188 0.010411 0)
(-0.061742 0.0147475 0)
(-0.0624947 0.0191625 0)
(-0.0626143 0.0236544 0)
(-0.00176885 0.00680477 0)
(-0.00397677 -0.00391156 0)
(-0.00666871 -0.0100074 0)
(-0.00917649 -0.0141232 0)
(-0.0116922 -0.0169585 0)
(-0.0142815 -0.0188001 0)
(-0.0169974 -0.0197947 0)
(-0.0198671 -0.0200277 0)
(-0.0229003 -0.019561 0)
(-0.026095 -0.0184523 0)
(-0.0294384 -0.0167659 0)
(-0.0329069 -0.0145758 0)
(-0.0364664 -0.0119622 0)
(-0.0400761 -0.00900606 0)
(-0.0436889 -0.00578732 0)
(-0.0472497 -0.00237272 0)
(-0.0507007 0.00119275 0)
(-0.0539858 0.0048819 0)
(-0.0570543 0.00866657 0)
(-0.0598508 0.0125179 0)
(-0.0623152 0.0164037 0)
(-0.0643786 0.020296 0)
(-0.065963 0.0241738 0)
(-0.00244448 0.00952096 0)