/*--------------------------------*- C++ -*----------------------------------*\
  =========                 |
  \\      /  F ield         | OpenFOAM: The Open Source CFD Toolbox
   \\    /   O peration     | Website:  https://openfoam.org
    \\  /    A nd           | Version:  13
     \\/     M anipulation  |
\*---------------------------------------------------------------------------*/
FoamFile
{
    format      ascii;
    class       volScalarField;
    location    "0.55";
    object      alpha.oil;
}
// * * * * * * * * * * * * * * * * * * * * * * * * * * * * * * * * * * * * * //

dimensions      [];

internalField   nonuniform List<scalar> 
2268
(
4.62683e-42
3.18063e-40
6.15881e-39
5.81061e-38
2.37281e-37
1.63123e-36
2.68648e-36
8.85134e-36
-1.79406e-32
-1.30835e-28
-1.44565e-27
-8.741e-27
3.26654e-19
9.60303e-18
7.47748e-17
6.73252e-16
1.34613e-14
9.5421e-14
5.13239e-13
2.23032e-12
1.82874e-09
3.97795e-05
0.000569265
5.96846e-44
1.16427e-38
1.75951e-37
2.07797e-36
1.05025e-35
6.2409e-35
1.31531e-34
3.79212e-34
-1.1712e-31
-2.33304e-27
-2.65672e-26
-1.61971e-25
2.8437e-20
2.72861e-17
3.00701e-16
1.27118e-15
7.33217e-15
4.97617e-13
5.55474e-12
2.75508e-11
2.26525e-12
8.92588e-06
0.000569257
2.90365e-38
2.27621e-37
2.4349e-36
2.98647e-35
1.87122e-34
7.5671e-34
2.32866e-33
7.59033e-33
-1.42193e-31
-2.22954e-26
-2.65685e-25
-1.65657e-24
7.66238e-21
8.96285e-17
1.78845e-15
6.6794e-15
1.52153e-13
8.66943e-13
5.03176e-12
2.34057e-11
2.22597e-09
1.47382e-06
0.000569261
4.1293e-35
4.3299e-35
3.74685e-34
2.03835e-33
7.33574e-33
2.7127e-32
8.18919e-32
2.19014e-31
2.00783e-30
-1.48555e-25
-1.88888e-24
-1.20667e-23
1.37947e-21
8.18014e-17
2.44329e-15
1.8617e-14
1.64343e-13
1.65953e-13
1.67748e-13
1.69751e-13
3.26728e-13
7.4067e-07
0.000281286
4.33363e-33
5.52238e-33
6.34726e-32
4.37946e-31
2.05209e-30
1.1009e-29
2.31105e-29
6.55815e-29
6.0263e-28
-7.72306e-25
-1.0802e-23
-7.0189e-23
1.72051e-20
2.02237e-17
2.41711e-15
3.56232e-14
3.64965e-14
1.18016e-10
1.28203e-09
2.03232e-09
1.28982e-09
3.36594e-09
2.2989e-09
2.5143e-32
4.0886e-32
5.44187e-31
4.23536e-30
2.34136e-29
1.64805e-28
7.66615e-28
2.18895e-27
1.60107e-26
-3.37018e-24
-5.43936e-23
-3.55789e-22
1.66731e-18
5.81804e-17
1.52566e-15
6.29747e-14
3.74295e-14
4.79437e-10
3.364e-09
3.21584e-09
3.01534e-09
9.69163e-10
2.53631e-08
9.28628e-32
2.02511e-31
3.04791e-30
2.32998e-29
1.25272e-28
9.05276e-28
4.57817e-27
1.32451e-26
7.67286e-26
-1.28713e-23
-2.58127e-22
-1.68748e-21
2.69274e-17
1.27061e-15
7.07557e-15
3.4732e-13
6.69544e-13
1.0214e-09
3.15723e-09
2.88416e-09
2.9359e-09
5.31019e-09
5.262e-09
3.10767e-31
8.48281e-31
1.55502e-29
1.93469e-28
1.26285e-27
8.87453e-27
2.90848e-26
9.45172e-26
4.05972e-25
-3.9822e-23
-1.11885e-21
-7.78278e-21
1.971e-16
6.34063e-15
4.21536e-14
6.89174e-13
7.65484e-13
9.51314e-10
3.53351e-09
1.28239e-06
2.94861e-09
1.14056e-08
1.29938e-06
0.999993
0.999911
0.994053
0.968793
0.922651
0.789337
0.59544
0.294348
0.262766
0.299357
0.332421
0.308652
0.146936
0.00803927
0.00146132
0.00136602
0.00137096
0.0632188
0.865167
0.999993
0.999993
0.831449
0.600211
0.514074
0.275033
0.243685
0.307527
0.251856
0.0633411
0.0283818
0.0227386
0.121993
0.26714
0.191601
0.0156023
0.00136602
0.122961
0.9123
0.999993
0.999993
0.891969
0.674253
0.590499
0.624872
0.62776
0.61427
0.452369
0.288811
0.266359
0.315222
0.410392
0.3883
0.361568
0.0615158
0.00138312
0.341255
0.979498
0.999993
0.999979
0.986957
0.913894
0.738545
0.586932
0.450328
0.161256
0.125271
0.264023
0.415142
0.729083
0.931888
0.873646
0.534945
0.0383806
0.00137796
0.694766
0.990806
0.999993
0.995356
0.652476
0.22057
0.011806
0.00498122
0.00492853
0.00494834
0.00492205
0.271811
0.892711
0.999962
0.999991
0.999895
0.62777
0.0383446
0.0947613
0.933719
0.993171
0.999993
0.622423
0.0467526
0.0106172
0.00507932
0.00492992
0.00497706
0.00492823
0.00495451
0.275068
0.942868
0.998876
0.999995
0.999129
0.378891
0.0889182
0.555001
0.998147
0.929645
0.483727
0.0546978
0.00827881
0.0171698
0.024661
0.00757699
0.00498833
0.00531342
0.015113
0.175406
0.925539
0.998688
0.999993
0.885031
0.31122
0.398061
0.973184
0.999933
0.873562
0.000218324
0.000217782
0.0072097
0.0361386
0.0362846
0.0172162
0.0122134
0.0135399
0.017682
0.333353
0.963575
0.99973
0.999994
0.755916
0.453056
0.885167
0.999998
0.999976
0.87416
1.0126e-30
3.22295e-30
6.24002e-29
8.33089e-28
5.46045e-27
4.81924e-26
1.70689e-25
7.44327e-25
2.44391e-24
-9.47237e-23
-4.3175e-21
-3.46389e-20
5.15122e-15
3.90504e-14
3.49365e-13
7.30882e-12
1.73319e-11
1.98318e-25
1.87031e-06
1.02603e-05
6.44419e-06
9.94898e-10
0.000193241
4.0101e-30
1.95061e-29
3.84786e-28
3.92608e-27
3.00798e-26
3.5236e-25
1.47118e-24
9.62151e-24
2.73114e-23
-1.99177e-22
-2.16738e-20
-2.10962e-19
4.16292e-13
3.5954e-13
4.69554e-13
7.50999e-12
1.82208e-11
-3.72009e-16
1.17962e-06
8.89543e-06
2.02132e-06
1.5244e-09
0.000204229
1.33093e-28
4.68194e-28
9.17598e-27
9.02304e-26
6.15903e-25
3.95039e-24
9.37926e-24
7.18575e-23
2.451e-22
4.41587e-23
-7.44354e-20
-1.01906e-18
1.32058e-11
7.97094e-12
3.26655e-12
3.90058e-12
1.08815e-11
-1.13224e-30
4.87122e-07
5.7283e-07
2.07079e-07
5.69583e-06
1.46414e-05
4.25697e-27
1.50891e-26
3.62262e-25
4.35652e-24
3.58845e-23
2.12745e-22
5.5782e-22
1.48511e-21
4.32656e-21
5.81526e-21
-1.42716e-19
-4.03266e-18
3.04504e-10
1.86801e-10
8.37441e-11
2.22758e-11
1.94604e-12
-3.01429e-13
4.55783e-09
1.42603e-15
1.5875e-08
1.20977e-05
4.56218e-05
2.94838e-26
1.12881e-25
2.99945e-24
3.82114e-23
3.43341e-22
2.51447e-21
1.27228e-20
4.59738e-20
1.67312e-19
3.81131e-19
4.05789e-20
-1.26354e-17
1.85375e-09
2.1473e-09
6.78002e-10
7.19473e-10
1.66348e-10
3.30184e-12
1.06758e-11
4.45164e-11
-6.73648e-12
9.50213e-09
7.87524e-07
7.08686e-26
3.13226e-25
8.34586e-24
1.01312e-22
8.95682e-22
6.78121e-21
4.44927e-20
2.36681e-19
1.03831e-18
3.06511e-18
2.81702e-18
-3.0421e-17
7.91127e-10
1.21135e-08
3.24174e-08
1.71463e-07
4.35951e-07
2.37323e-07
2.8329e-06
2.76266e-05
4.09721e-05
1.40615e-05
2.66387e-06
1.61528e-25
9.89667e-25
1.46866e-23
1.64097e-22
1.43244e-21
1.06889e-20
6.85129e-20
3.91713e-19
1.79454e-18
6.46176e-18
1.22448e-17
-4.68099e-17
8.66353e-10
1.03387e-09
1.32368e-06
1.23328e-05
2.71381e-05
2.00917e-05
5.96465e-05
0.000113131
0.00011263
4.13318e-05
6.59151e-06
3.12491e-25
3.76992e-24
4.12173e-23
3.88353e-22
3.19005e-21
2.24095e-20
1.32836e-19
7.12369e-19
3.06748e-18
1.13062e-17
2.87502e-17
-1.66817e-17
-1.01649e-14
5.50831e-07
6.64889e-06
2.00166e-05
4.21929e-05
8.30209e-05
0.000110226
0.000112057
9.34057e-05
4.7007e-05
2.3742e-05
5.55819e-25
9.3643e-24
1.03774e-22
9.157e-22
7.16496e-21
4.87414e-20
2.8138e-19
1.39756e-18
6.13828e-18
2.25019e-17
6.72988e-17
4.64544e-18
2.67725e-09
1.29048e-08
1.30078e-08
1.30426e-08
1.35853e-08
1.51621e-08
8.62849e-05
0.000112591
0.000104836
4.46769e-05
-2.67105e-09
9.12623e-25
1.82271e-23
2.16278e-22
1.95903e-21
1.50159e-20
9.99107e-20
5.75273e-19
2.84013e-18
1.21702e-17
4.52044e-17
1.43109e-16
2.23628e-18
8.61103e-10
2.03896e-08
4.91539e-08
6.39125e-08
4.18841e-08
2.45406e-08
1.6774e-10
4.34672e-05
1.65898e-05
7.85382e-08
2.31901e-09
1.36628e-24
3.01568e-23
3.79547e-22
3.60757e-21
2.80615e-20
1.85225e-19
1.04252e-18
5.13565e-18
2.2176e-17
8.18963e-17
2.82298e-16
3.65618e-17
3.88815e-11
1.48552e-08
7.59878e-08
8.00081e-08
7.03665e-08
2.60095e-08
3.69693e-10
5.46471e-10
3.37609e-10
2.08207e-10
1.94105e-09
1.84261e-24
4.32301e-23
5.71716e-22
5.58128e-21
4.43213e-20
2.93346e-19
1.65847e-18
8.20955e-18
3.57886e-17
1.33364e-16
4.60274e-16
1.27587e-17
1.3297e-09
5.16429e-09
2.1061e-08
4.46375e-08
3.68119e-08
1.89558e-08
7.5189e-09
3.87815e-09
1.26249e-09
4.24315e-10
9.03231e-11
2.25358e-24
5.48209e-23
7.47895e-22
7.38687e-21
5.87605e-20
3.89369e-19
2.2143e-18
1.10179e-17
4.82926e-17
2.00906e-16
6.50664e-16
1.78522e-15
2.11982e-15
5.41921e-10
8.55872e-10
7.64105e-10
1.22552e-09
2.2953e-09
1.88715e-09
1.24934e-09
6.41141e-10
2.54811e-10
1.01422e-10
2.48506e-24
6.15447e-23
8.55856e-22
8.5314e-21
6.78208e-20
4.45327e-19
2.51001e-18
1.25155e-17
5.52478e-17
2.124e-16
6.89391e-16
2.37206e-15
4.68817e-15
-9.48807e-15
-4.88558e-13
-1.93509e-12
-4.30785e-12
-6.94929e-12
-8.94614e-12
-9.64348e-12
-8.63063e-12
-4.95341e-12
7.44541e-12
2.45979e-24
6.11661e-23
8.58383e-22
8.55288e-21
6.75579e-20
4.37647e-19
2.44318e-18
1.21861e-17
5.23674e-17
1.85169e-16
7.04272e-16
2.19613e-15
5.63264e-15
3.38745e-15
-2.12136e-13
-7.76594e-13
-1.54009e-12
-2.17823e-12
-2.35384e-12
-1.96834e-12
-8.02496e-13
1.7852e-12
1.28201e-11
2.16732e-24
5.36867e-23
7.51609e-22
7.41676e-21
5.79476e-20
3.69998e-19
2.03914e-18
1.00849e-17
4.13505e-17
1.57638e-16
5.40898e-16
1.69836e-15
4.69203e-15
7.85739e-15
-5.56872e-14
-1.89525e-13
-3.01104e-13
-2.88645e-13
-4.76219e-14
3.65284e-13
1.23816e-12
3.3392e-12
1.01708e-11
1.68414e-24
4.14174e-23
5.6946e-22
5.58607e-21
4.27817e-20
2.67647e-19
1.46849e-18
6.91204e-18
2.84012e-17
1.04552e-16
3.65369e-16
1.0872e-15
3.08364e-15
6.63061e-15
9.87685e-18
-6.25898e-15
1.64909e-14
1.02877e-13
3.0479e-13
6.5783e-13
1.2947e-12
2.76254e-12
6.44126e-12
1.16123e-24
2.76762e-23
3.75751e-22
3.60672e-21
2.69102e-20
1.63895e-19
8.78474e-19
4.07078e-18
1.64556e-17
6.11471e-17
1.96872e-16
6.08859e-16
1.66715e-15
3.5328e-15
7.9131e-15
1.8434e-14
4.92898e-14
1.12043e-13
2.46214e-13
5.26844e-13
1.11391e-12
2.23472e-12
4.50132e-12
6.76806e-25
1.55864e-23
2.08938e-22
1.94683e-21
1.41843e-20
8.51958e-20
4.43062e-19
1.99031e-18
8.05621e-18
2.85025e-17
9.20224e-17
2.77593e-16
7.46515e-16
1.81345e-15
5.2608e-15
1.30668e-14
3.16669e-14
7.68085e-14
1.93815e-13
4.53051e-13
9.70467e-13
1.95478e-12
3.60372e-12
3.42983e-25
7.89292e-24
1.0021e-22
8.84893e-22
6.31898e-21
3.82792e-20
1.91528e-19
8.44387e-19
3.26514e-18
1.15279e-17
3.65426e-17
1.11059e-16
3.23417e-16
9.31271e-16
2.75946e-15
7.93716e-15
2.25256e-14
6.22861e-14
1.63303e-13
3.8626e-13
8.30302e-13
1.58084e-12
2.8531e-12
1.17569e-25
2.91158e-24
3.78267e-23
3.5245e-22
2.47395e-21
1.41475e-20
6.82516e-20
2.96112e-19
1.14878e-18
4.0881e-18
1.3772e-17
4.62565e-17
1.57482e-16
5.4258e-16
1.88106e-15
6.10386e-15
1.85702e-14
5.22895e-14
1.37595e-13
3.10842e-13
6.34851e-13
1.22394e-12
2.06466e-12
3.45538e-26
8.33871e-25
1.10853e-23
1.03419e-22
7.44158e-22
4.28674e-21
2.14247e-20
9.67836e-20
4.01456e-19
1.58598e-18
6.26785e-18
2.58403e-17
1.04195e-16
4.0912e-16
1.50986e-15
5.04091e-15
1.55313e-14
4.29103e-14
1.05796e-13
2.28955e-13
4.54641e-13
8.09236e-13
1.43687e-12
6.31073e-27
1.62241e-25
2.25887e-24
2.23145e-23
1.66992e-22
1.04312e-21
5.87475e-21
3.09549e-20
1.55477e-19
7.58976e-19
3.58773e-18
1.73618e-17
7.54856e-17
3.07107e-16
1.13077e-15
3.70722e-15
1.11331e-14
2.95198e-14
7.13121e-14
1.4679e-13
2.84611e-13
5.63902e-13
1.02049e-12
7.58919e-28
2.11695e-26
3.25852e-25
3.60847e-24
3.17548e-23
2.44349e-22
1.71168e-21
1.11263e-20
6.81928e-20
3.91979e-19
2.04143e-18
1.05759e-17
4.74912e-17
1.94291e-16
7.07128e-16
2.29312e-15
6.77655e-15
1.75667e-14
4.16189e-14
8.69033e-14
1.7348e-13
3.25862e-13
7.33899e-13
7.07784e-29
2.42071e-27
4.5625e-26
6.20387e-25
6.88003e-24
6.58744e-23
5.57291e-22
4.23865e-21
2.94133e-20
1.84118e-19
1.00991e-18
5.45649e-18
2.4881e-17
1.01899e-16
3.70738e-16
1.19903e-15
3.51893e-15
9.17779e-15
2.21943e-14
4.65588e-14
9.76533e-14
2.22426e-13
5.15609e-13
6.81854e-30
2.97692e-28
7.0805e-27
1.20372e-25
1.62156e-24
1.81695e-23
1.74257e-22
1.46449e-21
1.09567e-20
7.29194e-20
4.26974e-19
2.30337e-18
1.07243e-17
4.46521e-17
1.65154e-16
5.46665e-16
1.64248e-15
4.35588e-15
1.04019e-14
2.36473e-14
5.16918e-14
1.20093e-13
3.4521e-13
7.0733e-31
3.79833e-29
1.0939e-27
2.19326e-26
3.38801e-25
4.24964e-24
4.48979e-23
4.11294e-22
3.30625e-21
2.29631e-20
1.37042e-19
7.95579e-19
3.79394e-18
1.62741e-17
6.22422e-17
2.122e-16
6.39562e-16
1.72713e-15
4.53314e-15
1.0364e-14
2.49643e-14
6.72077e-14
2.00134e-13
6.18004e-32
4.03336e-30
1.37112e-28
3.19443e-27
5.62586e-26
7.82165e-25
9.06165e-24
9.01188e-23
7.74453e-22
5.72893e-21
3.8555e-20
2.20316e-19
1.1175e-18
5.02016e-18
2.00117e-17
7.09394e-17
2.23539e-16
6.26585e-16
1.64164e-15
4.37315e-15
1.08819e-14
3.03858e-14
1.06542e-13
4.23241e-33
3.33985e-31
1.3369e-29
3.55415e-28
6.98893e-27
1.07909e-25
1.36465e-24
1.45561e-23
1.31514e-22
1.02387e-21
7.82535e-21
4.73021e-20
2.56969e-19
1.25078e-18
5.39801e-18
2.04639e-17
6.78677e-17
2.04664e-16
5.89985e-16
1.5006e-15
3.76177e-15
1.42614e-14
4.70941e-14
2.2052e-34
2.04505e-32
9.40499e-31
2.81949e-29
6.15822e-28
1.05018e-26
1.47392e-25
1.752e-24
1.77309e-23
1.55118e-22
1.2452e-21
8.45242e-21
4.97885e-20
2.55194e-19
1.16574e-18
4.7797e-18
1.73686e-17
5.53899e-17
1.66187e-16
5.00997e-16
1.45212e-15
4.82488e-15
1.8328e-14
8.79913e-36
9.60278e-34
5.10622e-32
1.7554e-30
4.38216e-29
8.48899e-28
1.33328e-26
1.7478e-25
1.94883e-24
1.87615e-23
1.58054e-22
1.17216e-21
7.62246e-21
4.333e-20
2.16177e-19
9.46414e-19
3.63179e-18
1.29553e-17
4.6186e-17
1.37605e-16
3.91078e-16
1.62093e-15
5.99988e-15
2.21486e-37
2.90839e-35
1.82546e-33
7.31392e-32
2.11291e-30
4.72364e-29
8.53558e-28
1.2803e-26
1.61848e-25
1.74415e-24
1.62383e-23
1.3234e-22
9.50157e-22
6.00145e-21
3.32835e-20
1.6249e-19
6.99545e-19
2.66627e-18
9.50627e-18
3.37572e-17
1.10736e-16
3.9725e-16
1.70125e-15
3.91004e-39
6.05803e-37
4.44011e-35
2.0873e-33
7.08378e-32
1.85039e-30
3.88245e-29
6.72463e-28
9.76167e-27
1.19905e-25
1.26022e-24
1.14799e-23
9.16771e-23
6.45733e-22
3.99597e-21
2.13782e-20
9.76958e-20
3.95373e-19
1.92393e-18
6.48682e-18
1.83486e-17
1.01323e-16
4.34341e-16
4.16093e-41
8.60701e-39
7.55981e-37
4.2137e-35
1.68998e-33
5.20871e-32
1.28384e-30
2.59874e-29
4.40055e-28
6.31351e-27
7.73937e-26
8.15214e-25
7.41772e-24
5.87369e-23
4.08897e-22
2.50258e-21
1.31986e-20
6.27424e-20
2.78803e-19
1.1452e-18
4.67852e-18
1.83783e-17
8.45527e-17
3.34568e-43
7.61741e-41
7.9219e-39
5.24277e-37
2.50599e-35
9.24269e-34
2.73583e-32
6.65393e-31
1.34775e-29
2.29266e-28
3.31316e-27
4.14267e-26
4.49942e-25
4.17217e-24
3.31215e-23
2.38029e-22
1.4507e-21
7.82763e-21
3.76411e-20
1.63378e-19
6.40131e-19
3.22772e-18
1.47838e-17
1.43718e-45
4.12348e-43
5.12922e-41
4.12456e-39
2.42472e-37
1.10522e-35
4.02846e-34
1.19676e-32
2.95381e-31
6.17214e-30
1.09555e-28
1.64701e-27
2.11927e-26
2.31126e-25
2.25136e-24
1.83989e-23
1.34278e-22
8.40724e-22
4.64349e-21
2.30592e-20
1.06409e-19
4.82277e-19
2.31735e-18
3.80435e-48
1.17523e-45
1.72411e-43
1.6931e-41
1.242e-39
7.13199e-38
3.2886e-36
1.24321e-34
3.91337e-33
1.02618e-31
2.23926e-30
4.12497e-29
6.46095e-28
8.63289e-27
9.79233e-26
9.40866e-25
7.74744e-24
5.45959e-23
3.41093e-22
2.05082e-21
1.14751e-20
6.5893e-20
3.28548e-19
6.17146e-51
1.93928e-48
3.2011e-46
3.85975e-44
3.65069e-42
2.76576e-40
1.6918e-38
8.40652e-37
3.41787e-35
1.14668e-33
3.19989e-32
7.46471e-31
1.45598e-29
2.37119e-28
3.30399e-27
4.20152e-26
4.43725e-25
4.03421e-24
3.14484e-23
2.17989e-22
1.37746e-21
7.61962e-21
4.11289e-20
4.90735e-54
1.09044e-51
1.83285e-49
2.61149e-47
3.16946e-45
3.2036e-43
2.65812e-41
1.80511e-39
1.00583e-37
4.61291e-36
1.74584e-34
5.47586e-33
1.43574e-31
3.19405e-30
6.14286e-29
1.03277e-27
1.5039e-26
1.8553e-25
1.9152e-24
1.639e-23
1.19808e-22
7.76432e-22
4.70817e-21
1.20928e-57
1.74852e-55
2.74995e-53
4.61437e-51
7.65145e-49
1.13383e-46
1.4081e-44
1.42716e-42
1.17517e-40
7.90139e-39
4.3687e-37
1.9977e-35
7.59034e-34
2.41253e-32
6.49063e-31
1.49959e-29
2.9938e-28
5.10269e-27
7.24523e-26
8.40732e-25
7.95398e-24
6.26605e-23
4.41419e-22
1.07472e-62
1.03458e-60
1.40603e-58
2.77246e-56
6.68115e-54
1.59907e-51
3.24862e-49
5.72339e-47
7.97595e-45
9.05702e-43
8.46441e-41
6.57093e-39
4.25672e-37
2.30408e-35
1.04828e-33
4.0778e-32
1.37793e-30
4.00515e-29
9.74726e-28
1.95917e-26
3.19544e-25
4.03627e-24
3.98919e-23
3.85119e-72
2.02224e-70
2.76796e-68
9.5423e-66
5.11309e-63
3.24457e-60
1.92133e-57
9.52524e-55
3.8463e-52
1.26674e-49
3.40447e-47
7.37595e-45
1.32284e-42
2.19689e-40
2.99948e-38
3.31275e-36
3.11732e-34
2.50626e-32
1.69472e-30
9.34011e-29
4.09881e-27
1.1264e-25
2.69868e-24
0.00093245
0.00141416
0.00275872
0.0069701
0.00317342
0.0099938
0.0103961
0.0103884
1.46031e-05
0.00045417
0.00328755
0.00662451
4.17788e-05
7.83418e-07
1.41091e-10
0
8.74205e-07
1.357e-10
9.61552e-11
-1.20843e-06
0.00010552
0.000222932
8.57659e-05
-4.32971e-12
0.000207498
0.000558369
0.000580845
0.000134706
5.03125e-05
0.000268402
0.00054322
0.000487168
3.86986e-08
8.26055e-09
4.565e-08
5.24807e-08
2.56667e-09
2.69829e-08
4.5815e-08
5.80191e-08
1.58948e-09
4.6011e-09
1.62565e-08
1.61361e-08
5.244e-11
3.57469e-11
2.98489e-11
1.10884e-10
5.69411e-11
4.73472e-11
6.26448e-11
1.04355e-10
2.00225e-11
4.48819e-11
8.11527e-11
1.33103e-10
2.19575e-11
3.86565e-11
6.81488e-11
1.03647e-10
1.51719e-11
2.70919e-11
3.86687e-11
5.85418e-11
9.21893e-12
1.35914e-11
1.91897e-11
2.57292e-11
6.29246e-12
8.7405e-12
1.07467e-11
1.34052e-11
5.31236e-12
6.72781e-12
8.57103e-12
1.0697e-11
4.31697e-12
5.17253e-12
7.01973e-12
9.30266e-12
3.22581e-12
4.36746e-12
6.35985e-12
9.7968e-12
2.61058e-12
3.95918e-12
6.94281e-12
1.17968e-11
2.3242e-12
4.17634e-12
7.80426e-12
1.4531e-11
2.02249e-12
3.79623e-12
9.00185e-12
1.70605e-11
1.68682e-12
4.0882e-12
8.38679e-12
1.80852e-11
1.31445e-12
2.53026e-12
8.12928e-12
1.60281e-11
9.03185e-13
2.21146e-12
4.93131e-12
1.27008e-11
4.22016e-13
9.42602e-13
3.67402e-12
8.17871e-12
1.58493e-13
7.25016e-13
1.55876e-12
5.00939e-12
8.505e-14
2.06654e-13
9.49749e-13
2.31395e-12
3.1586e-14
9.41826e-14
2.53788e-13
9.83439e-13
7.41215e-15
1.91928e-14
1.00438e-13
2.58778e-13
2.28176e-15
7.26783e-15
2.14966e-14
1.04042e-13
4.35732e-16
1.44972e-15
5.43839e-15
1.91137e-14
8.07242e-17
2.82322e-16
1.14049e-15
5.30759e-15
1.31518e-17
5.08853e-17
2.13988e-16
9.14447e-16
1.59475e-18
7.08774e-18
3.03414e-17
1.42442e-16
2.37541e-19
9.21529e-19
4.15149e-18
2.03937e-17
2.88182e-20
1.10306e-19
4.96879e-19
2.5655e-18
3.00043e-21
1.2541e-20
6.05812e-20
3.36403e-19
3.39209e-22
1.60512e-21
8.32406e-21
4.82609e-20
4.09585e-23
2.37629e-22
1.29253e-21
6.96014e-21
0.0027527
0.000218573
0.0160948
0.030732
0.0136673
0.0146091
0.0154144
0.0163879
0.135018
0.743089
0.999915
0.999912
0.999968
0.82098
0.615819
0.948142
0.999999
0.999949
0.873562
0.00630148
0.00218602
9.96432e-05
0.000330124
0.000724815
0.0509112
0.215014
0.445985
0.839245
0.999999
0.999999
0.999998
0.999998
0.996031
0.918159
0.972238
0.999997
0.999923
0.950867
0.00197588
3.64017e-05
0.000138109
0.0322814
0.28665
0.669177
0.976342
0.998924
0.999598
0.999999
1
1
1
1
1
0.996396
0.99998
0.999998
1
0.00155187
0.0672429
0.239739
0.599078
0.938574
0.989681
0.999272
0.999999
0.999999
0.999998
1
1
1
1
1
1
0.999978
1
1
0.193844
0.532649
0.759871
0.857337
0.840667
0.750264
0.695134
0.757099
0.892881
0.993182
1
1
1
1
1
1
0.999993
1
1
0.435628
0.557824
0.512551
0.283116
0.142494
0.0682923
0.0374314
0.0851269
0.288409
0.848829
1
1
1
1
1
1
1
1
1
0.0712035
0.280957
0.0465352
7.44439e-07
5.61863e-18
1.05978e-13
5.59528e-18
1.05978e-13
0.0222292
0.574443
1
1
1
0.999999
0.999999
1
1
1
1
1.03583e-20
-9.14605e-08
-3.87303e-08
-5.17799e-09
2.43582e-12
1.06109e-10
2.20291e-11
1.73898e-08
1.47027e-07
0.266203
0.973772
1
0.999999
0.999999
0.999999
1
1
1
1
1.60242e-08
7.31609e-10
7.1107e-10
7.02302e-10
1.57411e-09
7.49111e-10
5.4919e-11
6.04295e-10
9.17066e-08
0.0623196
0.767912
1
0.999999
0.999999
1
1
1
1
1
1.8348e-08
6.15545e-09
4.75455e-09
5.27154e-09
1.13372e-08
1.59178e-08
2.11563e-09
8.26734e-11
5.10752e-08
0.00113578
0.47044
1
0.999999
0.999998
1
1
1
1
1
1.12461e-08
5.9992e-09
5.60691e-09
8.24047e-09
2.13606e-08
4.09855e-08
1.0709e-08
3.66235e-10
5.35738e-10
1.47896e-07
0.18026
0.933065
1
0.999982
0.999943
0.999992
1
1
1
1.04643e-09
2.35757e-09
5.19383e-09
1.03727e-08
3.08654e-08
5.63741e-08
2.67037e-08
5.35737e-10
7.81803e-10
9.66854e-08
0.0464005
0.744902
1
0.99998
0.999818
0.999831
1
1
1
4.1711e-10
1.68822e-09
5.17369e-09
1.31083e-08
3.21669e-08
6.3071e-08
8.29277e-08
7.81803e-10
9.46167e-10
2.78813e-08
0.013072
0.6311
1
0.999995
0.999848
0.999817
0.999997
1
1
4.0335e-10
1.42196e-09
4.73595e-09
1.12336e-08
2.39796e-08
4.88216e-08
1.41299e-07
2.39859e-06
2.35254e-06
7.38955e-08
0.0079382
0.598004
1
1
0.999962
0.999876
0.999962
1
1
2.93037e-10
8.88182e-10
2.41784e-09
5.66302e-09
1.18327e-08
3.39335e-08
9.17443e-08
5.03032e-06
9.44077e-06
1.04048e-07
0.00083164
0.499078
1
1
1
0.99999
0.999968
1
1
1.25584e-10
3.29592e-10
7.15546e-10
2.05331e-09
4.88748e-09
1.79747e-08
7.45875e-08
4.20535e-06
9.62654e-06
3.32998e-06
7.113e-07
0.233648
0.953359
1
1
1
0.999999
0.999999
1
3.90107e-11
4.90617e-11
1.0673e-10
5.16353e-10
1.68958e-09
6.93135e-09
4.74385e-08
1.63224e-06
9.65547e-06
9.66222e-06
1.18758e-06
0.0165736
0.601877
1
1
1
0.999999
0.999998
1
1.78601e-11
2.59505e-11
4.21516e-11
1.28816e-10
6.09849e-10
2.6885e-09
1.5418e-08
1.5447e-07
6.52078e-06
9.55982e-06
9.25528e-07
4.84899e-07
0.0665847
0.740346
1
1
1
0.999999
1
1.42764e-11
2.33688e-11
3.85708e-11
7.03851e-11
2.17523e-10
9.6008e-10
3.09916e-09
6.7596e-08
2.03534e-07
2.76287e-06
7.58299e-07
9.26854e-08
5.35668e-07
0.0550542
0.65413
1
1
0.999955
0.999172
1.32954e-11
2.7239e-11
5.10628e-11
8.79521e-11
1.56195e-10
4.03323e-10
1.41446e-09
2.56708e-08
6.3515e-08
2.56012e-08
1.70063e-07
6.46675e-08
8.46713e-08
4.05717e-07
0.019766
0.464292
0.927776
0.999004
0.99698
1.55932e-11
3.71376e-11
7.51722e-11
1.3191e-10
2.05185e-10
3.15795e-10
6.70953e-10
7.22477e-09
3.09969e-08
2.08295e-08
1.9745e-08
5.78876e-08
5.62195e-08
4.28894e-08
1.99862e-07
8.09595e-08
0.21161
0.595179
0.99702
2.03008e-11
5.1627e-11
1.07564e-10
1.93217e-10
2.97227e-10
4.05465e-10
5.56751e-10
2.17277e-09
1.96014e-08
1.18464e-08
1.68862e-08
4.62297e-08
4.65781e-08
3.66542e-08
4.61821e-08
4.65419e-08
7.60361e-08
0.0968892
0.997021
2.65235e-11
7.02126e-11
1.49888e-10
2.73732e-10
4.31304e-10
5.79087e-10
6.98246e-10
1.12243e-09
8.70776e-09
6.08831e-09
1.47926e-08
3.79648e-08
3.4651e-08
2.86899e-08
2.79358e-08
5.19656e-08
2.8138e-08
0.0991284
0.676955
3.31331e-11
9.33807e-11
2.10145e-10
3.96884e-10
6.35884e-10
8.58932e-10
1.02256e-09
1.18439e-09
3.75728e-09
4.33895e-09
1.19722e-08
2.79142e-08
2.81782e-08
2.30273e-08
2.68333e-08
3.01381e-08
2.90707e-08
0.0164647
0.0993055
3.65619e-11
1.1171e-10
2.68223e-10
5.39261e-10
9.06877e-10
1.29244e-09
1.57513e-09
1.68455e-09
2.39618e-09
3.63832e-09
9.45053e-09
2.07624e-08
2.05538e-08
2.01699e-08
2.28853e-08
2.01704e-08
6.30584e-08
4.04693e-05
0.131357
3.39827e-11
1.08883e-10
2.84417e-10
6.30818e-10
1.16146e-09
1.81296e-09
2.39973e-09
2.72156e-09
2.93341e-09
3.713e-09
7.68707e-09
1.53925e-08
1.68814e-08
1.79498e-08
1.86667e-08
1.60808e-08
1.39818e-08
7.49717e-08
0.758914
2.73238e-11
9.28101e-11
2.6299e-10
6.40212e-10
1.3079e-09
2.26633e-09
3.33183e-09
4.06302e-09
4.60624e-09
4.78809e-09
7.38879e-09
1.20033e-08
1.39111e-08
1.51852e-08
1.77291e-08
1.57848e-08
1.33137e-08
5.29977e-08
0.921374
1.92886e-11
6.9045e-11
2.12016e-10
5.66868e-10
1.29083e-09
2.50211e-09
4.1377e-09
5.90738e-09
6.8598e-09
7.06309e-09
8.28227e-09
1.11199e-08
1.23834e-08
1.41114e-08
1.51403e-08
1.48051e-08
1.3161e-08
0.00713014
0.932872
1.15369e-11
4.46673e-11
1.4881e-10
4.36914e-10
1.10156e-09
2.39691e-09
4.50465e-09
7.39712e-09
1.01192e-08
1.19261e-08
1.18014e-08
1.17306e-08
1.19545e-08
1.30754e-08
1.59462e-08
1.40956e-08
1.74263e-08
0.0465558
0.932348
5.9358e-12
2.44844e-11
8.7904e-11
2.70151e-10
8.14829e-10
1.96732e-09
4.17887e-09
7.75017e-09
1.24657e-08
1.76217e-08
1.77321e-08
1.15578e-08
1.14067e-08
1.26263e-08
1.64225e-08
1.42114e-08
3.89673e-08
0.157629
0.932872
2.57742e-12
1.16184e-11
4.50273e-11
1.55147e-10
4.56085e-10
1.25178e-09
3.08068e-09
6.34081e-09
1.20086e-08
2.054e-08
3.15443e-08
1.88933e-08
1.25228e-08
1.17492e-08
1.6012e-08
2.5983e-08
0.000272793
0.226148
0.620685
1.00239e-12
4.80536e-12
2.03311e-11
7.57804e-11
2.64445e-10
6.98631e-10
1.66298e-09
4.17385e-09
9.39968e-09
2.17981e-08
4.64517e-08
6.07814e-08
3.16956e-08
1.7726e-08
1.77476e-08
1.44175e-07
0.0100563
0.0437281
6.61875e-08
2.87274e-13
1.52401e-12
8.11877e-12
3.5405e-11
1.20761e-10
3.89432e-10
9.81753e-10
2.26746e-09
6.59485e-09
1.79565e-08
4.76462e-08
1.38745e-07
1.38329e-07
1.08909e-07
2.91669e-08
5.49694e-08
2.38254e-07
2.03632e-07
9.00253e-08
8.55877e-14
5.07344e-13
2.62852e-12
1.24163e-11
5.56372e-11
1.76145e-10
4.59944e-10
1.3766e-09
3.79189e-09
1.20041e-08
3.44915e-08
1.13105e-07
2.43877e-07
2.30029e-07
1.2024e-07
4.72755e-08
6.88709e-06
3.76118e-06
3.83358e-07
1.95213e-14
1.32682e-13
7.97126e-13
4.22465e-12
2.02823e-11
8.02921e-11
2.47068e-10
6.79493e-10
2.19944e-09
7.00566e-09
2.00787e-08
6.19066e-08
1.72908e-07
2.35117e-07
1.62525e-07
4.44612e-07
9.42738e-06
6.19241e-06
3.92548e-07
3.80663e-15
2.9555e-14
2.0422e-13
1.24279e-12
6.77957e-12
3.09838e-11
1.08802e-10
3.34503e-10
1.17624e-09
3.88342e-09
1.05198e-08
2.87382e-08
9.03285e-08
1.99264e-07
1.63678e-07
1.36139e-06
9.34433e-06
2.59606e-06
1.97847e-07
6.61268e-16
5.87071e-15
4.51383e-14
2.94014e-13
1.75668e-12
9.92944e-12
4.02393e-11
1.52347e-10
4.44332e-10
1.87139e-09
5.47764e-09
1.51705e-08
4.17218e-08
9.77148e-08
1.43814e-07
1.03197e-06
1.13141e-06
2.35078e-07
8.49847e-09
1.02119e-16
9.94548e-16
8.40502e-15
6.28052e-14
4.29852e-13
2.64969e-12
1.227e-11
5.39654e-11
1.85366e-10
7.05574e-10
2.43002e-09
6.84472e-09
1.84047e-08
4.53348e-08
1.00034e-07
9.56111e-08
1.18292e-07
2.03207e-08
4.22123e-09
1.42736e-17
1.54794e-16
1.43962e-15
1.13634e-14
7.77244e-14
5.00279e-13
2.85882e-12
1.52468e-11
7.1563e-11
2.4921e-10
8.68315e-10
2.61331e-09
7.21783e-09
1.89144e-08
4.21455e-08
2.67813e-08
1.16819e-08
7.81174e-09
1.37261e-09
1.98362e-18
2.26497e-17
2.22763e-16
1.84852e-15
1.38e-14
1.00612e-13
6.2691e-13
3.14132e-12
1.27814e-11
5.53863e-11
2.14561e-10
7.76916e-10
2.15674e-09
5.57608e-09
1.14394e-08
4.18067e-09
5.09039e-09
2.30199e-09
4.94269e-10
2.86481e-19
3.26901e-18
3.3635e-17
3.15607e-16
2.52176e-15
1.86358e-14
1.15017e-13
6.19036e-13
2.86292e-12
1.44154e-11
4.97761e-11
1.48452e-10
3.95443e-10
8.72707e-10
1.31389e-09
9.42958e-10
1.30042e-09
7.11123e-10
1.65893e-10
3.95369e-20
4.56214e-19
4.80197e-18
3.96917e-17
3.44016e-16
2.98068e-15
1.94805e-14
1.12198e-13
5.46579e-13
2.3767e-12
1.00163e-11
3.58944e-11
9.84157e-11
2.20456e-10
3.44003e-10
3.29313e-10
4.03355e-10
1.95292e-10
4.01035e-11
)
;

boundaryField
{
    leftWall
    {
        type            alphaContactAngle;
        contactAngleProperties 
        {
            mercury         
            {
                theta0          90;
            }
            air             
            {
                theta0          90;
            }
            water           
            {
                theta0          90;
            }
        }
        value           nonuniform List<scalar> 
50
(
4.62683e-42
5.96846e-44
2.90365e-38
4.1293e-35
4.33363e-33
2.5143e-32
9.28628e-32
3.10767e-31
1.0126e-30
4.0101e-30
1.33093e-28
4.25697e-27
2.94838e-26
7.08686e-26
1.61528e-25
3.12491e-25
5.55819e-25
9.12623e-25
1.36628e-24
1.84261e-24
2.25358e-24
2.48506e-24
2.45979e-24
2.16732e-24
1.68414e-24
1.16123e-24
6.76806e-25
3.42983e-25
1.17569e-25
3.45538e-26
6.31073e-27
7.58919e-28
7.07784e-29
6.81854e-30
7.0733e-31
6.18004e-32
4.23241e-33
2.2052e-34
8.79913e-36
2.21486e-37
3.91004e-39
4.16093e-41
3.34568e-43
1.43718e-45
3.80435e-48
6.17146e-51
4.90735e-54
1.20928e-57
1.07472e-62
3.85119e-72
)
;
    }
    rightWall
    {
        type            alphaContactAngle;
        contactAngleProperties 
        {
            mercury         
            {
                theta0          90;
            }
            air             
            {
                theta0          90;
            }
            water           
            {
                theta0          90;
            }
        }
        value           nonuniform List<scalar> 
50
(
0.865167
0.9123
0.979498
0.990806
0.993171
0.929645
0.873562
0.87416
0.873562
0.950867
1
1
1
1
1
1
1
1
1
1
1
1
1
1
1
1
0.999172
0.99698
0.99702
0.997021
0.676955
0.0993055
0.131357
0.758914
0.921374
0.932872
0.932348
0.932872
0.620685
6.61875e-08
9.00253e-08
3.83358e-07
3.92548e-07
1.97847e-07
8.49847e-09
4.22123e-09
1.37261e-09
4.94269e-10
1.65893e-10
4.01035e-11
)
;
    }
    lowerWall
    {
        type            alphaContactAngle;
        contactAngleProperties 
        {
            mercury         
            {
                theta0          90;
            }
            air             
            {
                theta0          90;
            }
            water           
            {
                theta0          90;
            }
        }
        value           nonuniform List<scalar> 
62
(
4.62683e-42
3.18063e-40
6.15881e-39
5.81061e-38
2.37281e-37
1.63123e-36
2.68648e-36
8.85134e-36
-1.79406e-32
-1.30835e-28
-1.44565e-27
-8.741e-27
3.26654e-19
9.60303e-18
7.47748e-17
6.73252e-16
1.34613e-14
9.5421e-14
5.13239e-13
2.23032e-12
1.82874e-09
3.97795e-05
0.000569265
0.000569265
0.000569257
0.000569261
0.000281286
2.2989e-09
2.53631e-08
5.262e-09
1.29938e-06
0.00093245
0.00141416
0.00275872
0.0069701
0.999993
0.999993
0.999993
0.999993
0.999993
0.999993
0.483727
0.000218324
0.999993
0.999911
0.994053
0.968793
0.922651
0.789337
0.59544
0.294348
0.262766
0.299357
0.332421
0.308652
0.146936
0.00803927
0.00146132
0.00136602
0.00137096
0.0632188
0.865167
)
;
    }
    atmosphere
    {
        type            inletOutlet;
        inletValue      uniform 0;
        value           nonuniform List<scalar> 
46
(
0
0
0
0
0
0
0
0
0
0
0
0
0
0
0
0
0
0
0
0
0
1.1264e-25
2.69868e-24
4.09585e-23
2.37629e-22
1.29253e-21
6.96014e-21
3.95369e-20
4.56214e-19
4.80197e-18
3.96917e-17
3.44016e-16
2.98068e-15
1.94805e-14
1.12198e-13
5.46579e-13
2.3767e-12
1.00163e-11
3.58944e-11
9.84157e-11
2.20456e-10
3.44003e-10
3.29313e-10
4.03355e-10
1.95292e-10
4.01035e-11
)
;
    }
    defaultFaces
    {
        type            empty;
    }
}


// ************************************************************************* //
