/*--------------------------------*- C++ -*----------------------------------*\
  =========                 |
  \\      /  F ield         | OpenFOAM: The Open Source CFD Toolbox
   \\    /   O peration     | Website:  https://openfoam.org
    \\  /    A nd           | Version:  13
     \\/     M anipulation  |
\*---------------------------------------------------------------------------*/
FoamFile
{
    format      ascii;
    class       volScalarField;
    location    "0.55";
    object      alphas;
}
// * * * * * * * * * * * * * * * * * * * * * * * * * * * * * * * * * * * * * //

dimensions      [];

internalField   nonuniform List<scalar> 
2268
(
2
2
2
2
2
2
2
2
2
2
2
2
2
2
2
2
2
2
2
2
2
1.99996
1.99943
2
2
2
2
2
2
2
2
2
2
2
2
2
2
2
2
2
2
2
2
2
1.99999
1.99943
2
2
2
2
2
2
2
2
2
2
2
2
2
2
2
2
2
2
2
2
2
2
1.99943
1.99246
1.9933
1.99398
1.99622
1.99889
2
2
2
2
2
2
2
2
2
2
2
2
2
2
2
2
2
1.99972
0.923153
0.961454
0.974003
1.01411
1.087
1.18696
1.31208
1.42744
1.55906
1.70641
1.85375
1.98112
2
2
2
2
2
2
2
2
2
2
2
9.85295e-10
8.51599e-10
8.25458e-10
8.16939e-10
7.98222e-10
7.67518e-10
7.20269e-10
0.0406374
0.108168
0.218532
0.406238
0.737538
1.26028
1.77972
2
2
2
2
2
2
2
2
2
1.3709e-09
1.22822e-09
1.21228e-09
1.21073e-09
1.19625e-09
1.17849e-09
1.1342e-09
1.03499e-09
9.06136e-10
7.68497e-10
4.48565e-09
7.16436e-09
0.0475233
0.305518
1.00995
1.78369
2
2
2
2
2
2
2
1.7235e-09
1.63562e-09
1.6318e-09
1.75296e-09
1.8181e-09
1.79809e-09
1.72532e-09
1.60608e-09
1.42321e-09
1.2075e-09
9.73015e-10
9.94913e-10
6.63787e-09
8.34919e-09
0.00835398
0.400338
1.47104
2
2
2
2
2
2
1.00001
1.00018
1.01189
1.06241
1.15468
1.42133
1.80908
2.41116
2.43626
2.36241
2.29976
2.34668
2.52711
2.64193
2.6645
2.87045
2.92732
2.82963
1.26953
1.00001
1.00001
1.3371
1.79958
1.97167
2.44893
2.50797
2.36286
2.31754
2.55987
2.63803
2.55531
2.14273
1.83408
1.9854
2.49618
2.92379
2.71833
1.1754
1.00001
1.00001
1.21606
1.6509
1.7995
1.65723
1.54881
1.42433
1.5468
1.71418
1.77703
1.71982
1.59255
1.6117
1.64526
2.39714
2.91838
2.2979
1.041
1.00001
1.00004
1.02609
1.11132
1.27227
1.41238
1.42631
1.50856
1.53805
1.66221
1.58482
1.27089
1.06805
1.12632
1.54429
2.64168
2.91564
1.60542
1.01839
1.00001
1.00929
1.41231
1.86435
2.07988
1.94157
1.65368
1.20249
1.17469
1.28238
1.092
1.00004
0.999998
1.00018
1.71278
2.81741
2.76459
1.13256
1.01366
1.00001
1.38857
1.97639
1.95779
1.94391
1.63058
0.810983
0.0838519
0.047996
0.306743
0.982526
1.00113
1
1.00173
2.21504
2.78023
1.88221
1.00371
1.14071
1.49541
1.87031
1.87331
1.86678
1.25832
0.266153
0.030985
0.0351121
0.0249409
0.175718
0.927661
1.00132
1.00001
1.22641
2.35316
2.18978
1.05332
1.00013
1.25288
1.88018
1.8695
1.54812
0.853877
0.110427
0.0171475
0.020591
0.0206054
0.0185897
0.33348
0.964109
1.00027
1.00001
1.48262
2.08317
1.22688
1
1.00004
1.25168
1.91036e-09
1.88034e-09
1.85068e-09
2.13226e-09
2.30021e-09
2.26467e-09
2.32851e-09
2.31123e-09
2.19102e-09
1.94104e-09
1.61086e-09
1.29041e-09
1.30671e-09
1.16697e-09
7.26411e-10
3.76052e-09
0.0722627
0.621127
1.37874
1.94595
1.99971
1.9996
1.99981
1.79741e-09
1.79738e-09
1.79739e-09
2.16142e-09
2.42329e-09
2.25754e-09
3.13158e-09
3.9463e-09
4.28855e-09
4.57514e-09
3.92005e-09
2.53312e-09
1.92918e-09
1.50563e-09
1.21407e-09
9.74765e-10
1.41466e-09
1.55024e-08
0.0393197
0.279791
0.666386
1.12101
1.36476
1.79744e-09
1.79742e-09
1.79742e-09
1.79748e-09
1.7976e-09
1.89724e-09
3.38177e-09
5.82158e-09
1.13407e-08
1.7589e-08
2.00687e-08
1.117e-08
3.84007e-09
2.47587e-09
2.12015e-09
2.01291e-09
1.91761e-09
1.21931e-08
4.88009e-07
5.73665e-07
2.07963e-07
5.71676e-06
1.47973e-05
0.761229
0.727702
0.628883
0.489221
0.336449
0.193529
0.0801565
0.0138913
4.91258e-09
3.89035e-09
3.76387e-09
3.78376e-09
4.06837e-09
5.25881e-09
2.82154e-09
3.34337e-09
3.96618e-09
6.51849e-09
9.56084e-09
4.00305e-08
3.98436e-08
1.21434e-05
4.56767e-05
2.85388
2.82856
2.78083
2.67932
2.52269
2.29876
1.98858
1.56896
1.05252
0.636142
0.287844
0.0669669
0.00124132
4.5604e-09
3.10249e-09
3.28557e-09
2.94367e-09
6.89504e-09
1.19325e-08
1.68825e-08
1.11763e-07
1.34517e-07
8.84465e-07
3
3
3
3
3
3
3
3
2.98992
2.80787
2.50392
2.01887
1.33624
0.670717
0.271456
0.0881676
0.0298188
0.00716543
0.00501917
0.0047312
0.00524969
0.0165395
0.0851043
3
3
3
3
3
3
3
3
3
3
3
3
3
2.96176
2.76822
2.44699
1.982
1.54905
1.4839
1.48776
1.49882
1.63424
1.98191
3
3
3
3
3
3
3
3
3
3
3
3
3
3
2.99999
2.99996
2.99992
2.99983
2.99978
2.99978
2.99981
2.99991
2.99995
3
3
3
3
3
3
3
3
3
3
3
3
3
3
3
3
3
3
2.99983
2.99977
2.99979
2.99991
3
3
3
3
3
3
3
3
3
3
3
3
3
3
3
3
3
3
3
3
2.99991
2.99997
3
3
3
3
3
3
3
3
3
3
3
3
3
3
3
3
3
3
3
3
3
3
3
3
3
3
3
3
3
3
3
3
3
3
3
3
3
3
3
3
3
3
3
3
3
3
3
3
3
3
3
3
3
3
3
3
3
3
3
3
3
3
3
3
3
3
3
3
3
3
3
3
3
3
3
3
3
3
3
3
3
3
3
3
3
3
3
3
3
3
3
3
3
3
3
3
3
3
3
3
3
3
3
3
3
3
3
3
3
3
3
3
3
3
3
3
3
3
3
3
3
3
3
3
3
3
3
3
3
3
3
3
3
3
3
3
3
3
3
3
3
3
3
3
3
3
3
3
3
3
3
3
3
3
3
3
3
3
3
3
3
3
3
3
3
3
3
3
3
3
3
3
3
3
3
3
3
3
3
3
3
3
3
3
3
3
3
3
3
3
3
3
3
3
3
3
3
3
3
3
3
3
3
3
3
3
3
3
3
3
3
3
3
3
3
3
3
3
3
3
3
3
3
3
3
3
3
3
3
3
3
3
3
3
3
3
3
3
3
3
3
3
3
3
3
3
3
3
3
3
3
3
3
3
3
3
3
3
3
3
3
3
3
3
3
3
3
3
3
3
3
3
3
3
3
3
3
3
3
3
3
3
3
3
3
3
3
3
3
3
3
3
3
3
3
3
3
3
3
3
3
3
3
3
3
3
3
3
3
3
3
3
3
3
3
3
3
3
3
3
3
3
3
3
3
3
3
3
3
3
3
3
3
3
3
3
3
3
3
3
3
3
3
3
3
3
3
3
3
3
3
3
3
3
3
3
3
3
3
3
3
3
3
3
3
3
3
3
3
3
3
3
3
3
3
3
3
3
3
3
3
3
3
3
3
3
3
3
3
3
3
3
3
3
3
3
3
3
3
3
3
3
3
3
3
3
3
3
3
3
3
3
3
3
3
3
3
3
3
3
3
3
3
3
3
3
3
3
3
3
3
3
3
3
3
3
3
3
3
3
3
3
3
3
3
3
3
3
3
3
3
3
3
3
3
3
3
3
3
3
3
3
3
3
3
3
3
3
3
3
3
3
3
3
3
3
3
3
3
3
3
3
3
3
3
3
3
3
3
3
3
3
3
3
3
3
3
3
3
3
3
3
3
3
3
3
3
3
3
3
3
3
3
3
3
3
3
3
3
3
3
3
3
3
3
3
3
3
3
3
3
3
3
3
3
3
3
3
3
3
3
3
3
3
3
3
3
3
3
3
3
3
3
3
3
3
3
3
3
3
3
3
3
3
3
3
3
3
3
3
3
3
3
3
3
3
3
3
3
3
3
3
3
3
3
3
3
3
3
3
3
3
3
3
3
3
3
3
3
3
3
3
3
3
3
3
3
3
3
3
3
3
3
3
3
3
3
3
3
3
3
3
3
3
3
3
3
3
3
3
3
3
3
3
3
3
3
3
3
3
3
3
3
3
3
3
3
3
3
3
3
3
3
3
3
3
3
3
3
3
3
3
3
3
3
3
3
3
3
3
3
3
3
3
3
3
3
3
3
3
3
3
3
3
3
3
3
3
3
3
3
3
3
3
3
3
3
3
3
3
3
3
3
3
3
3
3
3
3
3
3
3
3
3
3
3
3
3
3
3
3
3
3
3
3
3
3
3
3
3
3
3
3
3
3
3
3
3
1.99907
1.99859
1.99563
1.98683
1.29885
1.18865
1.0821
0.894022
1.63751e-05
0.000467106
0.00334464
0.00663671
4.18355e-05
4.34244e-05
0.000183469
0.00028546
9.12929e-07
1.15553e-06
9.92837e-07
0.0390985
0.190744
0.401485
1.08457
1.74317
2.33699
2.70886
2.99884
2.99866
2.9999
2.99946
2.99891
2.99903
3
3
3
3
3
3
3
3
3
3
3
3
3
3
3
3
3
3
3
3
3
3
3
3
3
3
3
3
3
3
3
3
3
3
3
3
3
3
3
3
3
3
3
3
3
3
3
3
3
3
3
3
3
3
3
3
3
3
3
3
3
3
3
3
3
3
3
3
3
3
3
3
3
3
3
3
3
3
3
3
3
3
3
3
3
3
3
3
3
3
3
3
3
3
3
3
3
3
3
3
3
3
3
3
3
3
3
3
3
3
3
3
3
3
3
3
3
3
3
3
3
3
3
3
3
3
3
3
3
3
3
3
3
3
3
3
1.67939
0.900644
0.327135
0.030732
0.0136673
0.014632
0.0154723
0.0164257
0.135018
0.743099
1.00009
1.00009
1.00003
1.3574
1.76702
1.10321
1
1.0001
1.25288
0.14145
0.0021876
0.000100385
0.000330141
0.000725194
0.0509113
0.217298
0.44757
0.839771
0.999999
0.999999
1
1
1.00794
1.16368
1.05546
1
1.00015
1.09827
0.001976
3.64064e-05
0.000138246
0.0322821
0.286652
0.674553
0.982594
1.00215
1.0008
1
1
1
1
1
1
1.00721
1.00004
1
1
0.00155238
0.0672429
0.244799
0.657287
1.04142
1.02064
1.00146
1
1
1
1
1
1
1
1
1
1.00004
1
1
0.198436
0.767482
1.31967
1.28533
1.31867
1.49947
1.60973
1.4858
1.21424
1.01363
1
1
1
1
1
1
1.00001
1
1
1.54315
1.80777
1.9749
2.43377
2.71501
2.8634
2.92513
2.82975
2.42318
1.30234
1
1
1
1
1
1
1
1
1
2.85759
2.43809
2.90693
2.99998
2.99998
2.99999
2.99999
3
2.95554
1.85111
1
1
1
1
1
1
1
1
1
3
3
2.99999
2.99998
2.99998
2.99999
2.99999
3
3
2.46759
1.05246
1
1
1
1
1
1
1
1
3
3
3
2.99998
2.99999
3
3
3
3
2.87536
1.46418
1
1
1
1
1
1
1
1
3
3
3
3
3
3
3
3
3
2.99773
2.05912
1
1
1
1
1
1
1
1
3
3
3
3
3
3
3
3
3
3
2.63948
1.13387
1
1.00004
1.00011
1.00002
1
1
1
3
3
3
3
3
3
3
3
3
3
2.9072
1.5102
1
1.00004
1.00036
1.00034
1
1
1
3
3
3
3
3
3
3
3
3
3
2.97386
1.7378
1
1.00001
1.0003
1.00037
1.00001
1
1
3
3
3
3
3
3
3
3
3
3
2.98412
1.80399
1
1
1.00008
1.00025
1.00008
1
1
3
3
3
3
3
3
3
2.99999
2.99998
3
2.99834
2.00184
1
1
1
1.00002
1.00006
1
1
3
3
3
3
3
3
3
2.99999
2.99998
2.99999
3
2.5327
1.09328
1
1
1
1
1
1
3
3
3
3
3
3
3
3
2.99998
2.99998
3
2.96685
1.79625
1
1
1
1
1
1
3
3
3
3
3
3
3
3
2.99999
2.99998
3
3
2.86683
1.51931
1
1
1
1
1
3
3
3
3
3
3
3
3
3
2.99999
3
3
3
2.88989
1.69174
1
1
1.00009
1.00166
3
3
3
3
3
3
3
3
3
3
3
3
3
3
2.96047
2.07142
1.14445
1.00199
1.00604
3
3
3
3
3
3
3
3
3
3
3
3
3
3
3
3
2.57678
1.80964
1.00596
3
3
3
3
3
3
3
3
3
3
3
3
3
3
3
3
3
2.80622
1.00596
3
3
3
3
3
3
3
3
3
3
3
3
3
3
3
3
3
2.80174
1.64609
3
3
3
3
3
3
3
3
3
3
3
3
3
3
3
3
3
2.96707
2.80139
3
3
3
3
3
3
3
3
3
3
3
3
3
3
3
3
3
2.99992
2.73729
3
3
3
3
3
3
3
3
3
3
3
3
3
3
3
3
3
3
1.48217
3
3
3
3
3
3
3
3
3
3
3
3
3
3
3
3
3
3
1.15725
3
3
3
3
3
3
3
3
3
3
3
3
3
3
3
3
3
2.98574
1.13426
3
3
3
3
3
3
3
3
3
3
3
3
3
3
3
3
3
2.90689
1.1353
3
3
3
3
3
3
3
3
3
3
3
3
3
3
3
3
3
2.68474
1.13426
3
3
3
3
3
3
3
3
3
3
3
3
3
3
3
3
2.99945
2.5477
1.75863
3
3
3
3
3
3
3
3
3
3
3
3
3
3
3
3
2.97989
2.91254
3
3
3
3
3
3
3
3
3
3
3
3
3
3
3
3
3
3
3
3
3
3
3
3
3
3
3
3
3
3
3
3
3
3
3
3
2.99999
2.99999
3
3
3
3
3
3
3
3
3
3
3
3
3
3
3
3
3
2.99998
2.99999
3
3
3
3
3
3
3
3
3
3
3
3
3
3
3
3
3
2.99998
2.99999
3
3
3
3
3
3
3
3
3
3
3
3
3
3
3
3
3
3
3
3
3
3
3
3
3
3
3
3
3
3
3
3
3
3
3
3
3
3
3
3
3
3
3
3
3
3
3
3
3
3
3
3
3
3
3
3
3
3
3
3
3
3
3
3
3
3
3
3
3
3
3
3
3
3
3
3
3
3
3
3
3
3
3
3
3
3
3
3
3
3
3
3
3
3
3
3
3
3
3
3
3
3
3
3
3
3
3
3
3
3
3
3
3
3
3
)
;

boundaryField
{
    leftWall
    {
        type            calculated;
        value           nonuniform List<scalar> 
50
(
2
2
2
1.99246
0.923153
9.85295e-10
1.3709e-09
1.7235e-09
1.91036e-09
1.79741e-09
1.79744e-09
0.761229
2.85388
3
3
3
3
3
3
3
3
3
3
3
3
3
3
3
3
3
3
3
3
3
3
3
3
3
3
3
3
3
3
3
3
3
3
3
3
3
)
;
    }
    rightWall
    {
        type            calculated;
        value           nonuniform List<scalar> 
50
(
1.26953
1.1754
1.041
1.01839
1.01366
1.14071
1.25288
1.25168
1.25288
1.09827
1
1
1
1
1
1
1
1
1
1
1
1
1
1
1
1
1.00166
1.00604
1.00596
1.00596
1.64609
2.80139
2.73729
1.48217
1.15725
1.13426
1.1353
1.13426
1.75863
3
3
3
3
3
3
3
3
3
3
3
)
;
    }
    lowerWall
    {
        type            calculated;
        value           nonuniform List<scalar> 
62
(
2
2
2
2
2
2
2
2
2
2
2
2
2
2
2
2
2
2
2
2
2
1.99996
1.99943
1.99943
1.99943
1.99943
1.99972
2
2
2
2
1.99907
1.99859
1.99563
1.98683
1.00001
1.00001
1.00001
1.00001
1.00001
1.00001
1.49541
1.88018
1.00001
1.00018
1.01189
1.06241
1.15468
1.42133
1.80908
2.41116
2.43626
2.36241
2.29976
2.34668
2.52711
2.64193
2.6645
2.87045
2.92732
2.82963
1.26953
)
;
    }
    atmosphere
    {
        type            calculated;
        value           nonuniform List<scalar> 
46
(
3
3
3
3
3
3
3
3
3
3
3
3
3
3
3
3
3
3
3
3
3
3
3
3
3
3
3
3
3
3
3
3
3
3
3
3
3
3
3
3
3
3
3
3
3
3
)
;
    }
    defaultFaces
    {
        type            empty;
    }
}


// ************************************************************************* //
