/*--------------------------------*- C++ -*----------------------------------*\
  =========                 |
  \\      /  F ield         | OpenFOAM: The Open Source CFD Toolbox
   \\    /   O peration     | Website:  https://openfoam.org
    \\  /    A nd           | Version:  13
     \\/     M anipulation  |
\*---------------------------------------------------------------------------*/
FoamFile
{
    format      ascii;
    class       volScalarField;
    location    "0.55";
    object      alpha.air;
}
// * * * * * * * * * * * * * * * * * * * * * * * * * * * * * * * * * * * * * //

dimensions      [];

internalField   nonuniform List<scalar> 
2268
(
1.90251e-17
8.35076e-16
1.52437e-15
1.36381e-15
9.04851e-16
7.18548e-16
3.9755e-16
2.07312e-16
1.13479e-16
6.29325e-17
2.91708e-17
1.00598e-17
3.30521e-18
9.50216e-19
6.88141e-19
6.88088e-19
9.10692e-19
1.27531e-18
1.64924e-18
1.86031e-18
1.60553e-18
4.61887e-19
6.74244e-20
5.12008e-19
2.36068e-14
3.44319e-14
3.55704e-14
2.60746e-14
2.24291e-14
1.38111e-14
7.20699e-15
3.69033e-15
2.00464e-15
1.04514e-15
4.85817e-16
1.82496e-16
3.12878e-17
7.96911e-18
7.91068e-18
9.97799e-18
1.38412e-17
1.68956e-17
1.72177e-17
1.09076e-17
2.14995e-18
3.50483e-19
5.34855e-14
3.55118e-13
4.29192e-13
4.46796e-13
3.78717e-13
2.57437e-13
1.71792e-13
1.01162e-13
5.15873e-14
2.9945e-14
1.43648e-14
7.16363e-15
3.14965e-15
1.17358e-15
3.12408e-16
7.37126e-17
7.2102e-17
8.26661e-17
9.1143e-17
8.81165e-17
5.03361e-17
7.20696e-18
2.43783e-18
7.65182e-12
8.54102e-12
8.11346e-12
7.06785e-12
5.74385e-12
4.38426e-12
2.91893e-12
1.70637e-12
9.27898e-13
4.68411e-13
1.87545e-13
6.61749e-14
3.23867e-14
1.72209e-14
5.22803e-15
1.41816e-15
4.45384e-16
3.7951e-16
4.56316e-16
4.08172e-16
1.60325e-16
5.19877e-17
1.04309e-17
1.40238e-10
1.1814e-10
1.09482e-10
1.02278e-10
9.25836e-11
8.01318e-11
6.25261e-11
4.71064e-11
3.32847e-11
2.17929e-11
1.23133e-11
5.67619e-12
1.47615e-12
6.55982e-13
2.44117e-13
5.12628e-14
9.17338e-15
2.16396e-15
1.97954e-15
2.02783e-15
8.06381e-16
1.8949e-16
3.16477e-17
3.28432e-10
2.83866e-10
2.75153e-10
2.72313e-10
2.66074e-10
2.5584e-10
2.4009e-10
2.10022e-10
1.75055e-10
1.38333e-10
1.00839e-10
6.47237e-11
3.27016e-11
1.21631e-11
3.15841e-12
1.01052e-12
2.10023e-13
4.03207e-14
9.08176e-15
5.14152e-15
3.3066e-15
8.33988e-16
2.15e-16
4.56965e-10
4.09406e-10
4.04094e-10
4.03576e-10
3.98751e-10
3.92831e-10
3.78069e-10
3.44996e-10
3.02046e-10
2.56166e-10
2.08112e-10
1.60795e-10
1.14907e-10
6.5235e-11
2.64661e-11
7.70285e-12
1.78332e-12
3.50805e-13
4.82049e-14
5.25437e-14
1.63609e-14
8.56695e-15
1.4605e-15
5.74501e-10
5.45205e-10
5.43934e-10
5.84321e-10
6.06033e-10
5.99365e-10
5.75107e-10
5.35362e-10
4.74404e-10
4.02502e-10
3.23991e-10
2.56396e-10
1.9396e-10
1.3796e-10
7.6798e-11
3.15469e-11
9.63285e-12
2.22235e-12
3.99321e-13
2.04641e-13
6.7065e-14
1.28563e-14
7.39715e-15
6.6859e-06
8.89127e-05
0.00594726
0.0312066
0.0773418
0.210662
0.404529
0.705511
0.699048
0.661779
0.632195
0.655336
0.674045
0.649965
0.665959
0.871812
0.928691
0.892846
0.134693
6.70629e-06
6.60654e-06
0.168551
0.399789
0.485865
0.72463
0.752869
0.6709
0.569531
0.623255
0.666504
0.578107
0.264736
0.10122
0.177001
0.511779
0.925155
0.841289
0.0877001
6.63858e-06
6.63782e-06
0.108031
0.325157
0.390003
0.285541
0.219736
0.066442
2.42596e-05
0.00422144
0.0438867
0.0351847
0.00295125
1.71028e-07
0.00682515
0.458656
0.919766
0.639152
0.0205024
6.68434e-06
2.14377e-05
0.0130427
0.0252391
0.0109007
8.3684e-06
1.59272e-05
-1.85572e-07
2.69582e-05
7.61272e-21
3.4643e-20
-1.54204e-08
-1.87548e-08
8.83529e-09
0.0792346
0.680066
0.917017
0.300187
0.00919358
6.63744e-06
0.00464423
0.0647843
0.0882676
0.10096
0.0768691
0.0199248
-2.39759e-06
8.18317e-05
0.000163688
6.68072e-05
1.99565e-07
-2.79253e-09
9.33265e-05
0.34056
0.855752
0.85935
0.0662812
0.0068294
6.63744e-06
0.0145348
0.0395508
0.0265246
0.0260821
0.0653604
0.0418587
0.00136448
0.000185466
0.000219484
0.000186981
3.60343e-06
6.17979e-09
0.000864385
0.593932
0.869146
0.437212
0.00185302
0.0703555
0.0121924
0.00833717
3.40028e-06
-3.59938e-23
-7.48595e-07
-9.77658e-08
0.00180305
0.00427293
0.000978945
9.48649e-05
7.67373e-05
6.51023e-06
8.63689e-08
0.111446
0.66438
0.587838
0.0265021
6.57807e-05
0.126438
0.00325955
6.41924e-12
9.28283e-12
-7.00432e-09
-5.74337e-07
9.79016e-07
3.7531e-06
6.83945e-06
8.65659e-05
3.64781e-05
5.17071e-06
1.02362e-06
2.89579e-08
0.238537
0.536223
0.112044
1.15458e-06
2.05082e-05
0.12584
6.36785e-10
6.26779e-10
6.16892e-10
7.10754e-10
7.66737e-10
7.54891e-10
7.76171e-10
7.70408e-10
7.30338e-10
6.47012e-10
5.36954e-10
4.28682e-10
3.26178e-10
2.35773e-10
1.62474e-10
1.03561e-10
5.44567e-11
2.56781e-11
9.43082e-12
4.35873e-12
1.63059e-12
8.52841e-13
1.16593e-14
5.99137e-10
5.99127e-10
5.9913e-10
7.20474e-10
8.07762e-10
7.52514e-10
1.04386e-09
1.31543e-09
1.42952e-09
1.52505e-09
1.30668e-09
8.44373e-10
6.38938e-10
4.88551e-10
3.70972e-10
3.01223e-10
2.20599e-10
1.41551e-10
1.09215e-10
6.94255e-11
4.42676e-11
3.92099e-10
4.89526e-09
5.99148e-10
5.9914e-10
5.9914e-10
5.99159e-10
5.992e-10
6.32414e-10
1.12726e-09
1.94053e-09
3.78023e-09
5.863e-09
6.68955e-09
3.72332e-09
1.27562e-09
8.22576e-10
7.02818e-10
6.48949e-10
6.13166e-10
3.73478e-10
2.95845e-10
2.78495e-10
2.94489e-10
6.97483e-09
5.19653e-08
0.253743
0.242567
0.209628
0.163074
0.11215
0.0645096
0.0267188
0.00463042
1.63753e-09
1.29678e-09
1.25462e-09
1.26125e-09
1.25462e-09
1.69067e-09
9.12589e-10
1.10136e-09
1.30714e-09
1.47523e-09
1.53421e-09
1.5562e-09
6.76125e-10
9.61332e-09
1.43091e-08
0.951294
0.942854
0.926942
0.893105
0.840898
0.766252
0.662859
0.522986
0.35084
0.212047
0.0959479
0.0223223
0.000413773
8.04365e-10
8.08164e-10
8.5526e-10
9.25507e-10
2.28755e-09
3.97395e-09
1.78802e-09
5.3858e-10
7.01293e-10
7.16467e-10
1
1
1
1
1
1
1
1
0.996639
0.935958
0.834639
0.672957
0.445414
0.223572
0.0904853
0.0293891
0.00993945
0.0023884
0.00167211
0.00156786
0.00173624
0.00550849
0.0283672
1
1
1
1
1
1
1
1
1
1
1
1
1
0.987254
0.92274
0.81566
0.660658
0.516344
0.494612
0.495884
0.499568
0.544734
0.660634
1
1
1
1
1
1
1
1
1
1
1
1
1
0.999999
0.999993
0.99998
0.999958
0.999917
0.99989
0.999888
0.999907
0.999953
0.999976
1
1
1
1
1
1
1
1
1
1
1
1
1
1
1
1
1
1
0.999914
0.999887
0.999895
0.999955
1
1
1
1
1
1
1
1
1
1
1
1
1
1
1
1
1
1
1
1
0.999957
0.999983
1
1
1
1
1
1
1
1
1
1
1
1
1
1
1
1
1
1
1
1
1
1
1
1
1
1
1
1
1
1
1
1
1
1
1
1
1
1
1
1
1
1
1
1
1
1
1
1
1
1
1
1
1
1
1
1
1
1
1
1
1
1
1
1
1
1
1
1
1
1
1
1
1
1
1
1
1
1
1
1
1
1
1
1
1
1
1
1
1
1
1
1
1
1
1
1
1
1
1
1
1
1
1
1
1
1
1
1
1
1
1
1
1
1
1
1
1
1
1
1
1
1
1
1
1
1
1
1
1
1
1
1
1
1
1
1
1
1
1
1
1
1
1
1
1
1
1
1
1
1
1
1
1
1
1
1
1
1
1
1
1
1
1
1
1
1
1
1
1
1
1
1
1
1
1
1
1
1
1
1
1
1
1
1
1
1
1
1
1
1
1
1
1
1
1
1
1
1
1
1
1
1
1
1
1
1
1
1
1
1
1
1
1
1
1
1
1
1
1
1
1
1
1
1
1
1
1
1
1
1
1
1
1
1
1
1
1
1
1
1
1
1
1
1
1
1
1
1
1
1
1
1
1
1
1
1
1
1
1
1
1
1
1
1
1
1
1
1
1
1
1
1
1
1
1
1
1
1
1
1
1
1
1
1
1
1
1
1
1
1
1
1
1
1
1
1
1
1
1
1
1
1
1
1
1
1
1
1
1
1
1
1
1
1
1
1
1
1
1
1
1
1
1
1
1
1
1
1
1
1
1
1
1
1
1
1
1
1
1
1
1
1
1
1
1
1
1
1
1
1
1
1
1
1
1
1
1
1
1
1
1
1
1
1
1
1
1
1
1
1
1
1
1
1
1
1
1
1
1
1
1
1
1
1
1
1
1
1
1
1
1
1
1
1
1
1
1
1
1
1
1
1
1
1
1
1
1
1
1
1
1
1
1
1
1
1
1
1
1
1
1
1
1
1
1
1
1
1
1
1
1
1
1
1
1
1
1
1
1
1
1
1
1
1
1
1
1
1
1
1
1
1
1
1
1
1
1
1
1
1
1
1
1
1
1
1
1
1
1
1
1
1
1
1
1
1
1
1
1
1
1
1
1
1
1
1
1
1
1
1
1
1
1
1
1
1
1
1
1
1
1
1
1
1
1
1
1
1
1
1
1
1
1
1
1
1
1
1
1
1
1
1
1
1
1
1
1
1
1
1
1
1
1
1
1
1
1
1
1
1
1
1
1
1
1
1
1
1
1
1
1
1
1
1
1
1
1
1
1
1
1
1
1
1
1
1
1
1
1
1
1
1
1
1
1
1
1
1
1
1
1
1
1
1
1
1
1
1
1
1
1
1
1
1
1
1
1
1
1
1
1
1
1
1
1
1
1
1
1
1
1
1
1
1
1
1
1
1
1
1
1
1
1
1
1
1
1
1
1
1
1
1
1
1
1
1
1
1
1
1
1
1
1
1
1
1
1
1
1
1
1
1
1
1
1
1
1
1
1
1
1
1
1
1
1
1
1
1
1
1
1
1
1
1
1
1
1
1
1
1
1
1
1
1
1
1
1
1
1
1
1
1
1
1
1
1
1
1
1
1
1
1
1
1
1
1
1
1
1
1
1
1
1
1
1
1
1
1
1
1
1
1
1
1
1
1
1
1
1
1
1
1
1
1
1
1
1
1
1.1374e-14
1.1171e-14
5.01011e-13
2.03838e-07
7.2128e-08
2.90299e-07
1.54301e-06
3.61816e-07
5.90658e-07
4.31191e-06
1.90303e-05
4.0687e-06
1.76708e-08
1.42135e-05
6.11559e-05
9.51481e-05
7.01354e-10
3.84533e-07
3.29288e-07
0.0130332
0.0635463
0.133754
0.361495
0.581055
0.778929
0.902766
0.999419
0.999507
0.99995
0.999732
0.999457
0.999513
1
1
1
1
1
1
1
1
1
1
1
1
1
1
1
1
1
1
1
1
1
1
1
1
1
1
1
1
1
1
1
1
1
1
1
1
1
1
1
1
1
1
1
1
1
1
1
1
1
1
1
1
1
1
1
1
1
1
1
1
1
1
1
1
1
1
1
1
1
1
1
1
1
1
1
1
1
1
1
1
1
1
1
1
1
1
1
1
1
1
1
1
1
1
1
1
1
1
1
1
1
1
1
1
1
1
1
1
1
1
1
1
1
1
1
1
1
1
1
1
1
1
1
1
1
1
1
1
1
1
1
1
1
1
1
1
2.43683e-07
3.63318e-07
1.23757e-07
1.60189e-12
8.2929e-20
7.63765e-06
1.93034e-05
1.25852e-05
4.102e-10
4.2681e-10
9.6112e-07
1.05577e-06
-6.22293e-11
0.178381
0.382838
0.0513539
8.65702e-09
5.06723e-05
0.126438
3.83174e-07
5.27501e-07
2.47114e-07
5.55377e-09
3.11473e-09
-2.93632e-08
0.00076117
0.000528332
0.000174897
7.73987e-10
4.24162e-11
8.53935e-09
3.138e-14
0.00396909
0.0818415
0.0276991
8.42394e-09
7.71064e-05
0.0491329
3.82904e-08
1.59391e-09
-8.18927e-09
-1.81828e-11
-1.659e-19
0.00179164
0.00208387
0.00107579
0.000400114
4.50924e-21
3.77556e-11
6.23133e-10
6.2926e-10
3.22305e-09
7.16115e-09
0.00360421
1.73587e-05
2.45304e-06
1.36255e-08
1.64134e-07
3.86896e-10
0.00168664
0.0194027
0.0342825
0.0103189
0.00072784
1.02037e-06
-8.49411e-07
-1.67753e-16
2.86969e-10
4.94024e-10
3.55609e-10
4.35947e-10
3.19439e-09
6.18244e-09
2.14428e-05
2.25336e-08
6.53078e-09
0.00153082
0.0782777
0.1866
0.142663
0.159333
0.249736
0.304865
0.242901
0.107117
0.00681692
2.06496e-10
2.05856e-10
7.7851e-11
1.27048e-10
5.84863e-10
6.88874e-08
7.31179e-06
6.26493e-08
9.23611e-09
0.369175
0.416648
0.487449
0.716884
0.857504
0.931703
0.962566
0.914873
0.711591
0.151171
2.89053e-09
5.38899e-10
1.54932e-09
7.55568e-12
8.84935e-12
1.88099e-08
1.15962e-08
8.46898e-08
1.64195e-08
0.928797
0.719043
0.953464
0.999994
0.999994
0.999995
0.999996
0.999999
0.977771
0.425557
3.34147e-08
8.92148e-09
2.60021e-07
1.11947e-06
5.01913e-07
1.16064e-08
1.1789e-08
3.93622e-08
2.06241e-08
1
1
0.999996
0.999993
0.999993
0.999998
0.999998
0.999999
1
0.733797
0.0262279
2.84959e-08
5.71909e-07
1.20758e-06
6.07891e-07
1.77987e-08
1.15845e-07
1.79597e-08
1.82177e-08
1
0.999999
0.999999
0.999994
0.999998
0.999999
0.999999
0.999999
1
0.93768
0.232088
5.71335e-08
4.98699e-07
1.05746e-06
1.0942e-07
7.14286e-08
4.05954e-07
1.65938e-08
1.70313e-08
1
1
1
1
1
1
1
1
1
0.998864
0.52956
9.60887e-08
6.13703e-07
2.33852e-06
1.13984e-07
9.13404e-08
3.90375e-07
5.40834e-08
1.2411e-08
1
1
1
1
1
1
1
1
1
1
0.81974
0.0669349
3.47819e-07
1.82723e-05
5.66317e-05
8.42418e-06
3.14065e-08
7.42492e-08
1.01697e-08
1
1
1
1
1
1
1
1
1
1
0.9536
0.255098
3.48321e-07
1.95619e-05
0.000182396
0.000169134
2.34183e-08
3.07087e-08
7.63114e-09
1
1
1
1
1
1
1
1
1
1
0.986928
0.3689
2.73056e-07
4.76943e-06
0.000152245
0.000182837
2.6709e-06
7.22505e-09
6.01878e-09
1
1
1
1
1
1
1
0.999998
0.999998
1
0.992062
0.401996
2.34472e-07
2.04359e-07
3.76224e-05
0.000123869
3.84484e-05
3.45237e-09
3.63098e-09
1
1
1
1
1
1
1
0.999995
0.999991
1
0.999168
0.500922
2.49418e-07
1.96646e-07
1.91586e-07
9.68376e-06
3.22044e-05
2.94451e-09
2.99093e-09
1
1
1
1
1
1
1
0.999996
0.99999
0.999997
0.999999
0.766352
0.046641
1.96075e-07
1.79192e-07
1.91306e-07
1.03506e-06
1.13159e-06
2.89329e-09
1
1
1
1
1
1
1
0.999998
0.99999
0.99999
0.999999
0.983426
0.398123
2.34396e-07
1.81965e-07
2.05986e-07
1.48454e-06
1.59481e-06
2.88609e-09
1
1
1
1
1
1
1
1
0.999993
0.99999
0.999999
1
0.933415
0.259654
2.2255e-07
1.89828e-07
2.77879e-07
8.30509e-07
1.67535e-08
1
1
1
1
1
1
1
1
1
0.999997
0.999999
1
0.999999
0.944946
0.34587
2.22912e-07
2.3239e-07
4.54532e-05
0.000827936
1
1
1
1
1
1
1
1
1
1
1
1
1
1
0.980234
0.535708
0.0722242
0.000995906
0.00301961
1
1
1
1
1
1
1
1
1
1
1
1
1
1
1
1
0.78839
0.404821
0.00298013
1
1
1
1
1
1
1
1
1
1
1
1
1
1
1
1
1
0.903111
0.00297851
1
1
1
1
1
1
1
1
1
1
1
1
1
1
1
1
1
0.900872
0.323045
1
1
1
1
1
1
1
1
1
1
1
1
1
1
1
1
1
0.983535
0.900695
1
1
1
1
1
1
1
1
1
1
1
1
1
1
1
1
1
0.99996
0.868643
1
1
1
1
1
1
1
1
1
1
1
1
1
1
1
1
1
1
0.241086
1
1
1
1
1
1
1
1
1
1
1
1
1
1
1
1
1
1
0.0786257
1
1
1
1
1
1
1
1
1
1
1
1
1
1
1
1
1
0.99287
0.0671279
1
1
1
1
1
1
1
1
1
1
1
1
1
1
1
1
1
0.953444
0.067652
1
1
1
1
1
1
1
1
1
1
1
1
1
1
1
1
1
0.842371
0.0671279
1
1
1
1
1
1
1
1
1
1
1
1
1
1
1
1
0.999727
0.773852
0.379315
1
1
1
1
1
1
1
1
1
1
1
1
1
1
1
1
0.989944
0.956272
1
1
1
1
1
1
1
1
1
1
1
1
1
1
1
1
1
1
1
1
1
1
1
1
1
1
1
1
1
1
1
1
1
1
1
1
0.999993
0.999996
1
1
1
1
1
1
1
1
1
1
1
1
1
1
1
1
1
0.999991
0.999994
1
1
1
1
1
1
1
1
1
1
1
1
1
1
1
1
0.999999
0.999991
0.999997
1
1
1
1
1
1
1
1
1
1
1
1
1
1
1
1
0.999999
0.999999
1
1
1
1
1
1
1
1
1
1
1
1
1
1
1
1
1
1
1
1
1
1
1
1
1
1
1
1
1
1
1
1
1
1
1
1
1
1
1
1
1
1
1
1
1
1
1
1
1
1
1
1
1
1
1
1
1
1
1
1
1
1
1
1
1
1
1
1
1
1
1
1
1
1
1
1
1
1
1
1
1
1
1
1
1
1
1
1
1
1
1
1
1
1
1
1
1
)
;

boundaryField
{
    leftWall
    {
        type            alphaContactAngle;
        contactAngleProperties 
        {
            mercury         
            {
                theta0          90;
            }
            water           
            {
                theta0          90;
            }
            oil             
            {
                theta0          90;
            }
        }
        value           nonuniform List<scalar> 
50
(
1.90251e-17
5.12008e-19
5.34855e-14
7.65182e-12
1.40238e-10
3.28432e-10
4.56965e-10
5.74501e-10
6.36785e-10
5.99137e-10
5.99148e-10
0.253743
0.951294
1
1
1
1
1
1
1
1
1
1
1
1
1
1
1
1
1
1
1
1
1
1
1
1
1
1
1
1
1
1
1
1
1
1
1
1
1
)
;
    }
    rightWall
    {
        type            alphaContactAngle;
        contactAngleProperties 
        {
            mercury         
            {
                theta0          90;
            }
            water           
            {
                theta0          90;
            }
            oil             
            {
                theta0          90;
            }
        }
        value           nonuniform List<scalar> 
50
(
0.134693
0.0877001
0.0205024
0.00919358
0.0068294
0.0703555
0.126438
0.12584
0.126438
0.0491329
1.36255e-08
6.53078e-09
9.23611e-09
1.64195e-08
2.06241e-08
1.82177e-08
1.70313e-08
1.2411e-08
1.01697e-08
7.63114e-09
6.01878e-09
3.63098e-09
2.99093e-09
2.89329e-09
2.88609e-09
1.67535e-08
0.000827936
0.00301961
0.00298013
0.00297851
0.323045
0.900695
0.868643
0.241086
0.0786257
0.0671279
0.067652
0.0671279
0.379315
1
1
1
1
1
1
1
1
1
1
1
)
;
    }
    lowerWall
    {
        type            alphaContactAngle;
        contactAngleProperties 
        {
            mercury         
            {
                theta0          90;
            }
            water           
            {
                theta0          90;
            }
            oil             
            {
                theta0          90;
            }
        }
        value           nonuniform List<scalar> 
62
(
1.90251e-17
8.35076e-16
1.52437e-15
1.36381e-15
9.04851e-16
7.18548e-16
3.9755e-16
2.07312e-16
1.13479e-16
6.29325e-17
2.91708e-17
1.00598e-17
3.30521e-18
9.50216e-19
6.88141e-19
6.88088e-19
9.10692e-19
1.27531e-18
1.64924e-18
1.86031e-18
1.60553e-18
4.61887e-19
6.74244e-20
6.74244e-20
3.50483e-19
2.43783e-18
1.04309e-17
3.16477e-17
2.15e-16
1.4605e-15
7.39715e-15
1.1374e-14
1.1171e-14
5.01011e-13
2.03838e-07
6.6859e-06
6.70629e-06
6.63858e-06
6.68434e-06
6.63744e-06
6.63744e-06
0.0121924
0.00325955
6.6859e-06
8.89127e-05
0.00594726
0.0312066
0.0773418
0.210662
0.404529
0.705511
0.699048
0.661779
0.632195
0.655336
0.674045
0.649965
0.665959
0.871812
0.928691
0.892846
0.134693
)
;
    }
    atmosphere
    {
        type            inletOutlet;
        inletValue      uniform 1;
        value           nonuniform List<scalar> 
46
(
1
1
1
1
1
1
1
1
1
1
1
1
1
1
1
1
1
1
1
1
1
1
1
1
1
1
1
1
1
1
1
1
1
1
1
1
1
1
1
1
1
1
1
1
1
1
)
;
    }
    defaultFaces
    {
        type            empty;
    }
}


// ************************************************************************* //
