/*--------------------------------*- C++ -*----------------------------------*\
  =========                 |
  \\      /  F ield         | OpenFOAM: The Open Source CFD Toolbox
   \\    /   O peration     | Website:  https://openfoam.org
    \\  /    A nd           | Version:  13
     \\/     M anipulation  |
\*---------------------------------------------------------------------------*/
FoamFile
{
    format      ascii;
    class       volScalarField;
    location    "0.55";
    object      alpha.water;
}
// * * * * * * * * * * * * * * * * * * * * * * * * * * * * * * * * * * * * * //

dimensions      [];

internalField   nonuniform List<scalar> 
2268
(
5.16112e-13
6.58193e-12
1.59555e-11
1.7373e-11
1.73305e-11
1.77174e-11
1.74517e-11
1.79301e-11
1.89755e-11
2.05408e-11
2.22332e-11
2.46389e-11
2.79102e-11
3.22723e-11
3.64754e-11
4.01543e-11
4.38726e-11
4.73842e-11
5.12274e-11
6.60603e-11
3.15529e-10
2.11631e-09
2.57578e-09
3.72379e-14
4.96074e-11
1.11871e-10
1.47524e-10
1.60681e-10
2.08314e-10
2.12799e-10
1.89666e-10
1.68194e-10
1.63241e-10
1.41077e-10
1.18373e-10
1.14341e-10
1.18948e-10
1.32143e-10
1.4936e-10
1.60103e-10
1.63947e-10
1.6463e-10
2.33497e-10
6.32217e-10
2.3653e-09
2.63761e-09
1.67579e-10
5.20845e-10
5.58001e-10
5.82343e-10
4.72085e-10
1.05864e-09
1.27847e-09
1.24033e-09
1.15325e-09
1.30994e-09
1.28904e-09
1.01579e-09
5.35902e-10
2.61362e-10
2.51599e-10
2.72652e-10
3.05211e-10
3.11915e-10
3.05477e-10
4.03237e-10
8.86502e-10
2.55512e-09
2.92468e-09
0.00376831
0.00335248
0.00300977
0.00189002
0.000555927
7.63383e-12
3.66683e-12
7.66102e-12
3.71008e-12
7.68749e-12
3.73959e-12
3.2871e-11
6.61798e-09
4.99768e-09
1.15071e-09
3.92568e-10
3.76535e-10
4.11984e-10
4.60841e-10
5.85383e-10
9.67529e-10
2.36199e-09
2.60227e-09
0.538424
0.519273
0.512998
0.492947
0.4565
0.406522
0.343959
0.286282
0.220469
0.146796
0.0731226
0.00944173
1.89811e-09
1.16718e-09
2.27108e-10
7.9898e-11
3.24421e-10
5.51078e-10
5.96611e-10
6.36178e-10
7.56709e-10
7.54985e-10
7.5046e-10
1
1
1
1
1
1
1
0.979681
0.945916
0.890734
0.796881
0.631231
0.36986
0.110138
3.98779e-09
7.08316e-10
1.90585e-10
2.71947e-10
4.21897e-10
4.31099e-10
6.03444e-10
1.31723e-08
3.63757e-09
1
1
1
1
1
1
1
1
1
1
1
1
0.976238
0.847241
0.495023
0.108154
2.89239e-09
2.04196e-10
2.04067e-10
7.3924e-10
8.88762e-09
3.38907e-08
2.47586e-08
1
1
1
1
1
1
1
1
1
1
1
1
1
1
0.995823
0.799831
0.264482
2.23189e-09
2.44711e-10
4.06362e-10
7.56149e-09
7.56976e-09
2.9703e-08
1.52066e-10
1.51964e-10
2.23157e-10
3.90631e-07
7.30545e-06
5.49455e-09
5.32164e-06
1.16646e-06
9.13719e-06
8.07265e-06
6.17127e-06
2.18188e-06
5.57523e-07
2.93018e-08
9.1161e-10
5.98643e-10
6.95531e-10
6.76304e-10
1.96581e-10
1.46492e-10
9.38553e-10
2.02169e-08
-7.99541e-15
6.05815e-05
0.000335553
0.000608602
0.000255227
6.84331e-05
2.38927e-05
4.41152e-05
2.67424e-05
6.72177e-06
3.95911e-07
2.54206e-08
1.04618e-09
7.2679e-10
7.19965e-10
1.75485e-10
1.62469e-10
2.39824e-10
-1.66837e-10
1.01834e-07
1.15827e-09
0.00172103
0.0215818
0.013922
0.000426582
0.000617562
0.000248788
7.21068e-05
3.59019e-06
7.41981e-07
8.03268e-07
2.69263e-07
3.43587e-10
9.5948e-10
1.07276e-10
2.02573e-10
4.83752e-10
-1.40259e-12
1.02239e-05
4.06296e-05
0.000348127
0.061688
0.165092
0.168352
0.036885
1.96e-05
1.44326e-05
3.06324e-05
1.67536e-05
1.17798e-06
2.67268e-08
3.11851e-09
1.01771e-09
5.64577e-11
1.34159e-10
1.32665e-10
8.8877e-15
0.00167481
0.00463868
0.0651589
0.180656
0.39628
0.410235
0.222988
0.00767856
-6.32054e-07
5.31637e-06
8.46717e-06
3.9228e-06
8.49305e-08
2.05941e-10
3.57961e-10
2.72684e-11
1.40439e-10
0.00176994
0.00820278
0.0290605
0.0385473
0.214923
0.612949
0.956292
0.973617
0.709204
0.0373965
-1.14235e-07
1.39764e-06
2.95196e-06
1.9642e-06
2.19567e-07
1.45038e-10
1.42759e-10
2.07466e-11
0.0165252
0.0416638
0.0592075
0.0580227
0.358508
0.863135
0.982915
0.981924
0.980463
0.824486
0.0734385
-1.5739e-14
7.23612e-07
1.80955e-06
8.9031e-07
1.70916e-08
2.12009e-10
1.37973e-10
2.04992e-11
0.0614298
0.0651424
0.222337
0.554992
0.926644
0.982819
0.9836
0.982931
0.981907
0.666602
0.0361604
-1.9184e-19
3.31548e-07
7.25739e-07
2.88661e-07
1.09092e-09
2.03499e-10
1.3486e-10
2.10441e-11
1
1
1
1
1
1
1
1
1
1
1
1
1
1
1
1
0.963869
0.689437
0.310628
0.0270199
0.000140488
0.000200069
7.1317e-09
1
1
1
1
1
1
1
1
1
1
1
1
1
1
1
1
1
1
0.98034
0.8601
0.666806
0.439497
0.317515
1
1
1
1
1
1
1
1
1
1
1
1
1
1
1
1
1
1
1
0.999999
1
0.999994
0.999985
0.746257
0.757433
0.790372
0.836926
0.88785
0.93549
0.973281
0.99537
1
1
1
1
1
1
1
1
1
1
1
1
1
0.999988
0.999954
0.0487057
0.0571459
0.073058
0.106895
0.159102
0.233748
0.337141
0.477014
0.64916
0.787953
0.904052
0.977678
0.999586
1
1
1
1
1
1
1
1
1
0.999999
-2.65953e-17
-7.1674e-17
-3.02137e-15
-6.41287e-14
-8.89293e-14
-6.96826e-14
-2.10914e-14
2.30254e-18
0.00336144
0.0640418
0.165361
0.327043
0.554586
0.776428
0.909515
0.970611
0.99006
0.997611
0.998325
0.998405
0.998223
0.994477
0.97163
-4.58074e-17
-1.61837e-16
-2.43326e-15
-1.12733e-13
-1.9752e-13
-2.00385e-13
-1.62965e-13
-1.42839e-13
-1.16383e-13
-2.23543e-14
9.93079e-28
2.97466e-26
2.37027e-25
0.0127461
0.0772587
0.184328
0.339315
0.483635
0.505328
0.504003
0.500319
0.455225
0.33936
-5.40724e-17
-3.57899e-16
-3.88158e-15
-1.2924e-13
-2.36503e-13
-2.6075e-13
-2.5111e-13
-2.42845e-13
-2.12732e-13
-7.03095e-14
3.2792e-13
1.2766e-12
2.15237e-12
1.90316e-24
5.55719e-28
1.3093e-28
1.10854e-27
7.05039e-28
-1.00388e-27
5.33272e-22
-7.95647e-08
-3.34287e-08
-5.96715e-09
-5.54142e-17
-5.1239e-16
-5.3296e-15
-1.31759e-13
-2.24975e-13
-2.43033e-13
-2.374e-13
-2.34771e-13
-2.05274e-13
-2.32206e-14
6.95489e-13
3.07989e-12
1.10892e-11
3.40336e-11
9.45965e-11
2.04825e-10
3.72119e-10
4.71847e-10
4.57599e-10
3.6329e-10
1.4557e-10
1.06603e-10
9.8166e-11
-5.08089e-17
-5.66156e-16
-5.94526e-15
-1.14321e-13
-1.75106e-13
-1.75679e-13
-1.67774e-13
-1.64475e-13
-1.25213e-13
1.1586e-13
9.7204e-13
3.34315e-12
1.45852e-11
4.96763e-11
1.12034e-10
2.24911e-10
4.84698e-10
6.77686e-10
6.84981e-10
6.77326e-10
6.79344e-10
5.74954e-10
3.27883e-10
-4.18665e-17
-5.22666e-16
-5.45056e-15
-8.20462e-14
-1.09873e-13
-9.89398e-14
-9.08206e-14
-8.44092e-14
-3.19845e-14
2.47979e-13
1.24968e-12
3.97557e-12
1.63854e-11
5.08212e-11
1.15726e-10
1.88877e-10
2.84185e-10
4.78542e-10
5.19604e-10
5.04335e-10
4.87279e-10
4.18158e-10
3.18883e-10
-3.08623e-17
-4.10151e-16
-4.13006e-15
-4.81834e-14
-5.50925e-14
-4.32455e-14
-3.76596e-14
-2.86425e-14
3.04238e-14
3.15749e-13
1.337e-12
4.44299e-12
1.67888e-11
4.24598e-11
8.46047e-11
1.3166e-10
2.01684e-10
2.06417e-10
1.9399e-10
1.78024e-10
1.42884e-10
1.12374e-10
7.09459e-11
-2.00538e-17
-2.72233e-16
-2.57507e-15
-2.29545e-14
-2.18717e-14
-1.44787e-14
-1.14374e-14
-1.92833e-15
5.23953e-14
3.00337e-13
1.15383e-12
4.09809e-12
1.27939e-11
2.92264e-11
5.32203e-11
7.20394e-11
9.33474e-11
9.60697e-11
8.4352e-11
7.01348e-11
5.20165e-11
3.59959e-11
2.75132e-11
-1.12043e-17
-1.50274e-16
-1.3018e-15
-8.75814e-15
-6.7789e-15
-3.59345e-15
-1.99423e-15
5.69872e-15
4.59049e-14
2.13526e-13
7.70738e-13
2.98375e-12
8.04452e-12
1.57315e-11
2.38833e-11
2.99331e-11
3.05308e-11
2.99884e-11
2.7259e-11
2.21501e-11
1.57566e-11
1.0742e-11
7.87844e-12
-5.19895e-18
-6.69822e-17
-5.19336e-16
-2.619e-15
-1.60195e-15
-5.95437e-16
2.64207e-16
5.06659e-15
2.84061e-14
1.11473e-13
4.58011e-13
1.45785e-12
3.77372e-12
6.68919e-12
8.67501e-12
9.49831e-12
9.20849e-12
7.90503e-12
6.16562e-12
4.45799e-12
2.97276e-12
2.06411e-12
1.16105e-12
-1.90961e-18
-2.30107e-17
-1.56583e-16
-5.93452e-16
-2.77519e-16
-3.22836e-17
3.75002e-16
2.66229e-15
1.2797e-14
5.21495e-14
1.76541e-13
5.17514e-13
1.20563e-12
1.93367e-12
2.2523e-12
2.1401e-12
1.77188e-12
1.24931e-12
8.30354e-13
5.87002e-13
3.19603e-13
1.1604e-13
3.61052e-14
-5.17675e-19
-5.67284e-18
-3.338e-17
-9.67275e-17
-3.25455e-17
1.65443e-17
1.65071e-16
9.13841e-16
4.19468e-15
1.54278e-14
5.17756e-14
1.29267e-13
2.5602e-13
3.19273e-13
3.22123e-13
2.60667e-13
1.81129e-13
1.05561e-13
4.96787e-14
1.89628e-14
4.06701e-15
8.26903e-16
4.91129e-16
-9.18912e-20
-8.95257e-19
-4.4982e-18
-1.02937e-17
-1.99844e-18
5.82158e-18
3.941e-17
2.0895e-16
9.09436e-16
3.43522e-15
9.58457e-15
2.24721e-14
3.5443e-14
3.45307e-14
2.40153e-14
1.48563e-14
5.87659e-15
9.62114e-16
5.53232e-17
4.52661e-17
6.6039e-17
5.35008e-17
4.25593e-17
-8.053e-21
-6.87543e-20
-2.93865e-19
-5.40078e-19
5.53523e-21
7.72637e-19
4.63886e-18
2.09939e-17
1.02109e-16
3.05342e-16
8.92192e-16
1.74258e-15
1.86864e-15
1.26174e-15
2.83597e-16
1.08015e-17
3.72239e-20
9.5138e-23
3.38207e-24
7.11956e-25
9.99959e-26
2.18654e-26
4.68336e-26
6.24842e-33
1.20849e-31
1.14592e-30
5.62363e-33
2.00593e-29
2.70468e-31
3.06878e-33
3.33194e-35
4.10253e-37
5.61213e-37
5.04011e-36
4.4161e-35
3.63857e-34
2.9639e-33
2.44559e-32
1.51737e-31
1.30268e-30
8.64816e-30
6.682e-29
4.96435e-28
3.87406e-27
2.75574e-26
2.06274e-25
6.40613e-43
1.55562e-41
1.60534e-40
9.42659e-40
2.24945e-39
5.67022e-41
7.07878e-40
8.21746e-39
8.66316e-38
8.41091e-37
7.82544e-36
7.11172e-35
6.18036e-34
5.42704e-33
4.83157e-32
4.14782e-31
3.47915e-30
3.66351e-29
2.8899e-28
2.08639e-27
1.53548e-26
1.00936e-25
5.44774e-25
5.30708e-48
3.35838e-46
1.14217e-44
2.76176e-43
5.20581e-42
8.16898e-41
1.14811e-39
1.40415e-38
1.56724e-37
1.65378e-36
1.6563e-35
1.73421e-34
1.72264e-33
1.69216e-32
1.58361e-31
1.37416e-30
1.16505e-29
9.13867e-29
7.03091e-28
4.69832e-27
3.12998e-26
1.89042e-25
9.06852e-25
4.30799e-48
2.95797e-46
1.09215e-44
2.82628e-43
5.63085e-42
9.31481e-41
1.33638e-39
1.7328e-38
2.10821e-37
2.42142e-36
2.59464e-35
3.06781e-34
3.20581e-33
3.1674e-32
2.88474e-31
2.46017e-30
2.0291e-29
1.53614e-28
1.11249e-27
7.27463e-27
4.72086e-26
2.73185e-25
1.31126e-24
2.7494e-48
2.0543e-46
8.15762e-45
2.24575e-43
4.77455e-42
8.43745e-41
1.30115e-39
1.8191e-38
2.36047e-37
2.83721e-36
3.18595e-35
3.93789e-34
4.13648e-33
4.04497e-32
3.64629e-31
3.10677e-30
2.51626e-29
1.86609e-28
1.32146e-27
8.71721e-27
5.66533e-26
3.27496e-25
1.64183e-24
1.33049e-48
1.08543e-46
4.63207e-45
1.36458e-43
3.12148e-42
5.95146e-41
9.94768e-40
1.50825e-38
2.10197e-37
2.6644e-36
3.15083e-35
3.95587e-34
4.13988e-33
4.00142e-32
3.58385e-31
3.04111e-30
2.42831e-29
1.80105e-28
1.28559e-27
8.78193e-27
5.83558e-26
3.36409e-25
1.67556e-24
4.64916e-49
4.19243e-47
1.95505e-45
6.25266e-44
1.54869e-42
3.19615e-41
5.77169e-40
9.38924e-39
1.39018e-37
1.86323e-36
2.28987e-35
2.75999e-34
2.90857e-33
2.83432e-32
2.5796e-31
2.20422e-30
1.73373e-29
1.27961e-28
9.54462e-28
7.0019e-27
4.70786e-26
2.75628e-25
1.49197e-24
1.16925e-49
1.16447e-47
5.94133e-46
2.0659e-44
5.54587e-43
1.2377e-41
2.40204e-40
4.13407e-39
6.28713e-38
8.37182e-37
1.05291e-35
1.37572e-34
1.47893e-33
1.48097e-32
1.35955e-31
1.12425e-30
8.60875e-30
6.76263e-29
5.51025e-28
4.25848e-27
3.04314e-26
1.85983e-25
1.03149e-24
1.95039e-50
2.16217e-48
1.21832e-46
4.65087e-45
1.35743e-43
3.26479e-42
6.79091e-41
1.24164e-39
1.9929e-38
2.88921e-37
4.03009e-36
4.89144e-35
5.46399e-34
5.62172e-33
5.31536e-32
4.57969e-31
3.66798e-30
3.00707e-29
2.65757e-28
2.22647e-27
1.61727e-26
1.04234e-25
6.24402e-25
2.08121e-51
2.58847e-49
1.60774e-47
6.69368e-46
2.12601e-44
5.55529e-43
1.24331e-41
2.39043e-40
3.93043e-39
6.09947e-38
9.66185e-37
1.24195e-35
1.48577e-34
1.62752e-33
1.60582e-32
1.43373e-31
1.23956e-30
1.11168e-29
9.9001e-29
8.3576e-28
5.37898e-27
5.40758e-26
2.81894e-25
1.42627e-52
1.99736e-50
1.37605e-48
6.2866e-47
2.17763e-45
6.20174e-44
1.52168e-42
3.27144e-41
6.16903e-40
1.0538e-38
1.69552e-37
2.34513e-36
2.96335e-35
3.44062e-34
3.64495e-33
3.49209e-32
3.17044e-31
3.09083e-30
3.25402e-29
3.15624e-28
2.60071e-27
1.80642e-26
1.12643e-25
6.64162e-54
1.05788e-51
8.22829e-50
4.2363e-48
1.64718e-46
5.21093e-45
1.40392e-43
3.31506e-42
6.97607e-41
1.31668e-39
2.22897e-38
3.38304e-37
4.60755e-36
5.61126e-35
6.05886e-34
6.00876e-33
6.40112e-32
7.81228e-31
8.89986e-30
8.3347e-29
5.36582e-28
5.81706e-27
3.50805e-26
1.97443e-55
3.68407e-53
3.31308e-51
1.95601e-49
8.64554e-48
3.0711e-46
9.14864e-45
2.35568e-43
5.36981e-42
1.10056e-40
2.03731e-39
3.39987e-38
5.11528e-37
6.9774e-36
8.67699e-35
9.87142e-34
1.06832e-32
1.22427e-31
1.48841e-30
1.62271e-29
1.5099e-28
1.2455e-27
9.29706e-27
3.58655e-57
7.7368e-55
7.98861e-53
5.40395e-51
2.72779e-49
1.1055e-47
3.76363e-46
1.10644e-44
2.85676e-43
6.5527e-42
1.34602e-40
2.48435e-39
4.09866e-38
5.96261e-37
7.63139e-36
9.10366e-35
1.08957e-33
1.39449e-32
2.22368e-31
1.99751e-30
1.17467e-29
2.72333e-28
2.23462e-27
4.1205e-59
1.16525e-56
1.41781e-54
1.11685e-52
6.51331e-51
3.02868e-49
1.17548e-47
3.9169e-46
1.13941e-44
2.924e-43
6.67923e-42
1.37186e-40
2.55795e-39
4.34182e-38
6.64708e-37
9.08621e-36
1.17761e-34
1.67549e-33
2.4175e-32
2.38798e-31
3.53825e-30
3.65822e-29
3.42587e-28
2.9661e-61
9.29101e-59
1.35361e-56
1.28519e-54
9.06688e-53
5.09542e-51
2.37939e-49
9.4738e-48
3.26115e-46
9.77766e-45
2.56989e-43
5.94597e-42
1.21486e-40
2.20923e-39
3.6384e-38
5.7729e-37
8.66142e-36
1.26209e-34
1.78937e-33
2.53298e-32
2.668e-31
4.32242e-30
4.58241e-29
1.29552e-63
5.10202e-61
8.8054e-59
9.99476e-57
8.43974e-55
5.63694e-53
3.09665e-51
1.44406e-49
5.85861e-48
2.08844e-46
6.53436e-45
1.79837e-43
4.3592e-42
9.35478e-41
1.85769e-39
3.3307e-38
5.65745e-37
9.05823e-36
1.4118e-34
2.14023e-33
3.08643e-32
4.16041e-31
5.2224e-30
3.31685e-66
1.36693e-63
2.72815e-61
3.70846e-59
3.82235e-57
3.13513e-55
2.11187e-53
1.197e-51
5.78547e-50
2.40133e-48
8.67724e-47
2.77759e-45
7.95066e-44
2.03828e-42
4.66811e-41
9.49375e-40
1.71432e-38
2.9344e-37
5.4878e-36
1.10577e-34
2.04533e-33
3.20984e-32
4.41573e-31
5.52948e-69
2.30704e-66
5.07997e-64
8.2229e-62
1.05111e-59
1.08802e-57
9.26687e-56
6.59347e-54
3.97615e-52
2.05933e-50
9.27893e-49
3.68717e-47
1.30937e-45
4.20046e-44
1.23044e-42
3.24736e-41
7.4427e-40
1.58464e-38
3.32075e-37
6.71518e-36
1.24522e-34
2.13628e-33
3.46189e-32
4.08726e-72
1.175e-69
2.57014e-67
4.80236e-65
7.71891e-63
1.04669e-60
1.18429e-58
1.11973e-56
8.94693e-55
6.16624e-53
3.76697e-51
2.08709e-49
1.05155e-47
4.72303e-46
1.84188e-44
6.14494e-43
1.76721e-41
4.52177e-40
1.06864e-38
2.39371e-37
5.17177e-36
1.06625e-34
2.0413e-33
9.3814e-76
1.72251e-73
3.44012e-71
7.35818e-69
1.56571e-66
3.01402e-64
4.95772e-62
6.83063e-60
7.88551e-58
7.70388e-56
6.47487e-54
4.78423e-52
3.17218e-50
1.90083e-48
1.01731e-46
4.76884e-45
1.93932e-43
6.90832e-42
2.20442e-40
6.38578e-39
1.67291e-37
4.02267e-36
9.30039e-35
6.41584e-81
7.58096e-79
1.26422e-76
3.09425e-74
9.36869e-72
2.85684e-69
7.5605e-67
1.78367e-64
3.47231e-62
5.76361e-60
8.22089e-58
1.0161e-55
1.10851e-53
1.09704e-51
9.97324e-50
8.18804e-48
5.95697e-46
3.8486e-44
2.1933e-42
1.05676e-40
4.1593e-39
1.37912e-37
4.24736e-36
1.92903e-90
1.19764e-88
1.93581e-86
7.92672e-84
5.12988e-81
4.01514e-78
3.01564e-75
1.95976e-72
1.07339e-69
4.95108e-67
1.92593e-64
6.38958e-62
1.93667e-59
5.67068e-57
1.47588e-54
3.44e-52
7.23775e-50
1.37071e-47
2.35294e-45
3.65908e-43
4.73427e-41
2.70547e-39
1.83679e-37
6.75784e-09
7.10698e-09
0.000804105
0.00310106
0.348989
0.40068
0.453753
0.547795
0.999985
0.999542
0.996693
0.993371
0.999958
0.999985
0.999939
0.999905
0.999999
1
1
0.986968
0.936348
0.866023
0.638419
0.418945
0.220864
0.0966756
3.91775e-07
0.000358204
-1.1191e-09
-3.1264e-11
-2.75121e-10
-1.72748e-09
7.79675e-11
4.78136e-10
5.7874e-09
3.73567e-08
2.67585e-10
1.80483e-10
6.64847e-11
2.20742e-08
1.69595e-10
8.16466e-11
3.38181e-11
1.24081e-11
5.78108e-11
4.50155e-11
3.52027e-11
2.51054e-11
2.2604e-11
1.82682e-11
1.61358e-11
1.23384e-11
5.40332e-12
3.76751e-12
2.66712e-12
1.79616e-12
5.69997e-13
3.0027e-13
1.98948e-13
1.05506e-13
1.00231e-14
5.28466e-15
2.55585e-15
8.35997e-16
3.02138e-16
1.77223e-16
8.42203e-17
2.06295e-17
2.17145e-17
5.97248e-18
3.79693e-19
6.33485e-21
2.45309e-25
7.30666e-25
1.96434e-24
4.92207e-24
1.05852e-24
2.87009e-24
7.46772e-24
1.86948e-23
2.41792e-24
6.58103e-24
1.7367e-23
3.83879e-23
4.77237e-24
1.21515e-23
2.99671e-23
6.43477e-23
7.2079e-24
1.91204e-23
4.54789e-23
9.95659e-23
9.14239e-24
2.18463e-23
6.36086e-23
1.36128e-22
9.38851e-24
2.91157e-23
6.83736e-23
1.6083e-22
8.8312e-24
1.97687e-23
7.4138e-23
1.56447e-22
6.87387e-24
1.99585e-23
4.90671e-23
1.35714e-22
3.43592e-24
8.76939e-24
3.98166e-23
9.42018e-23
1.24136e-24
7.4484e-24
1.74734e-23
6.07753e-23
7.3071e-25
2.03685e-24
1.10886e-23
2.88803e-23
2.67168e-25
9.50267e-25
2.83881e-24
1.21975e-23
5.5688e-26
1.72215e-25
1.10023e-24
3.0327e-24
1.73174e-26
6.61804e-26
2.18114e-25
1.17675e-24
2.77301e-27
1.18927e-26
5.26759e-26
2.0349e-25
4.47134e-28
2.11076e-27
1.04762e-26
5.45308e-26
6.07369e-29
3.43903e-28
1.81267e-27
8.8387e-27
4.49288e-30
3.83876e-29
2.26788e-28
1.27739e-27
5.23894e-31
3.81535e-30
2.5986e-29
1.63626e-28
3.56793e-32
2.97797e-31
2.35574e-30
1.74599e-29
2.05106e-33
2.14315e-32
2.07511e-31
1.84525e-30
1.21035e-34
1.61101e-33
1.92839e-32
1.97827e-31
8.72229e-36
1.28121e-34
1.61235e-33
1.77803e-32
0.15893
0.549569
0.828385
0.969268
0.986333
0.985383
0.984566
0.983599
0.864982
0.256906
6.60993e-08
6.44043e-12
1.60303e-07
2.15652e-07
5.65559e-08
2.21256e-10
2.32286e-10
1.35523e-10
2.59834e-11
0.926124
0.997813
0.9999
0.99967
0.999275
0.949089
0.784225
0.553487
0.160579
1.03213e-06
1.0458e-06
3.95706e-07
5.87571e-08
4.99802e-09
5.3884e-10
3.22727e-10
2.59875e-10
1.51016e-10
3.73991e-11
0.998024
0.999964
0.999862
0.967718
0.713349
0.329031
0.0215739
1.31981e-11
1.29554e-11
2.31179e-07
3.14679e-07
7.50779e-08
3.96058e-09
2.97954e-09
1.38172e-09
3.81854e-10
2.84466e-10
1.64748e-10
5.08699e-11
0.998448
0.932757
0.758574
0.381519
0.027143
4.51229e-10
1.55484e-09
2.27636e-10
1.32196e-07
2.8553e-07
1.15894e-07
3.97083e-09
2.65046e-09
3.60584e-09
1.65277e-09
4.80151e-10
3.16118e-10
1.90911e-10
5.66731e-11
0.804625
0.389074
0.0535292
1.73344e-10
1.42844e-09
5.68773e-07
2.49933e-07
2.61489e-08
3.02931e-07
4.68591e-07
2.57055e-07
1.89105e-09
1.88323e-09
3.33615e-09
1.86094e-09
8.70888e-10
3.90282e-10
2.34945e-10
6.73481e-11
0.195196
0.0255278
1.30641e-07
1.93288e-07
1.79742e-06
4.89716e-06
2.82675e-06
2.18076e-07
2.47413e-09
2.57378e-09
2.94113e-08
1.94775e-09
1.95969e-09
2.81899e-09
2.35825e-09
1.30547e-09
6.22091e-10
3.07308e-10
7.09211e-11
4.52062e-10
1.51858e-08
1.08567e-06
5.40702e-06
6.19542e-06
4.93628e-06
3.62993e-06
1.13147e-06
1.94519e-08
3.89032e-10
2.45849e-09
1.59614e-09
1.84251e-09
2.44479e-09
2.40354e-09
1.4505e-09
7.92747e-10
3.27905e-10
7.17598e-11
3.56069e-08
2.52815e-07
3.92225e-06
6.79792e-06
6.8788e-06
2.43286e-06
2.34875e-06
7.62382e-07
1.08354e-10
1.29192e-10
7.74246e-10
1.21799e-09
1.37946e-09
2.01738e-09
2.19444e-09
1.441e-09
7.34635e-10
3.25718e-10
6.93932e-11
1.12498e-07
5.91431e-07
1.18783e-06
5.79901e-06
2.0683e-06
7.74126e-07
1.0167e-06
5.03359e-07
1.03728e-10
1.0173e-10
5.06362e-10
9.55194e-10
9.78514e-10
1.35052e-09
1.5207e-09
1.17798e-09
6.60102e-10
3.04509e-10
6.66911e-11
9.77558e-08
3.09703e-08
9.88355e-09
7.30921e-10
2.57746e-07
1.69189e-07
1.34681e-07
1.74296e-07
2.70828e-08
1.03728e-10
2.42253e-10
6.28761e-10
6.26723e-10
6.68869e-10
7.6363e-10
7.58701e-10
5.56109e-10
2.34953e-10
6.18152e-11
2.37611e-12
9.77688e-30
8.87931e-32
2.18969e-13
6.28183e-09
1.6879e-08
2.55367e-08
5.89023e-08
2.44989e-08
8.27368e-11
4.47621e-11
2.91944e-10
3.43083e-10
2.89932e-10
3.80494e-10
4.42049e-10
3.71964e-10
1.67953e-10
5.75534e-11
1.28751e-11
4.31769e-12
4.87245e-13
1.88554e-14
3.25749e-15
4.28268e-12
1.18036e-08
3.5497e-08
1.53828e-08
1.10862e-09
2.09643e-11
7.59974e-11
1.47052e-10
1.54418e-10
1.93612e-10
2.39742e-10
2.59885e-10
1.20476e-10
5.14393e-11
6.88106e-12
1.7468e-12
1.47141e-13
1.77619e-15
8.60764e-13
1.5678e-10
4.66714e-09
3.0654e-08
1.31854e-08
3.71729e-10
1.85317e-11
2.01617e-11
5.67042e-11
8.77772e-11
1.10238e-10
1.33665e-10
1.35696e-10
8.88028e-11
4.62088e-11
8.15063e-13
1.44625e-13
7.19068e-15
1.36465e-15
7.33188e-13
3.87784e-11
5.16559e-10
6.68773e-09
7.53501e-09
3.51606e-10
4.1921e-11
9.43066e-12
2.23007e-11
4.53123e-11
6.10595e-11
7.66648e-11
7.30256e-11
6.78672e-11
3.78373e-11
3.05763e-14
2.98702e-15
4.42403e-16
2.82011e-16
2.19154e-13
1.69974e-11
1.84941e-10
1.04875e-10
8.16287e-10
3.24876e-10
5.62133e-11
6.65472e-12
1.19868e-11
2.63981e-11
3.30351e-11
4.62738e-11
5.2637e-11
5.15306e-11
3.20994e-11
2.56375e-16
9.96089e-17
4.32245e-17
3.04778e-17
3.02508e-14
3.8198e-12
6.01267e-11
1.11345e-10
4.07008e-10
1.89579e-10
6.05301e-11
5.78955e-12
6.7483e-12
1.57666e-11
2.06029e-11
2.55721e-11
3.084e-11
3.13102e-11
2.34281e-11
2.85611e-18
6.00967e-19
3.00625e-18
3.38929e-18
1.77318e-15
5.615e-13
1.88616e-11
6.53907e-11
3.23085e-10
1.4512e-10
6.21531e-11
4.89606e-12
3.30737e-12
9.2485e-12
1.30684e-11
1.41998e-11
1.6547e-11
1.81102e-11
1.52199e-11
2.31628e-21
3.3883e-21
1.42146e-19
3.12067e-19
1.51909e-16
8.1395e-14
5.42018e-12
1.37936e-11
1.87899e-10
1.2727e-10
5.08609e-11
6.4102e-12
1.29861e-12
3.60204e-12
6.91246e-12
7.66194e-12
7.81889e-12
8.35278e-12
8.34269e-12
1.25819e-23
6.25546e-23
4.86068e-21
3.17874e-20
4.72089e-18
8.80742e-15
1.04933e-12
4.62057e-12
3.52931e-11
7.94501e-11
2.74017e-11
1.10466e-11
7.9564e-13
5.14886e-13
2.29653e-12
3.83853e-12
4.21695e-12
4.08183e-12
3.71382e-12
4.23847e-23
1.41676e-22
6.73612e-22
9.89629e-21
4.24212e-19
8.36536e-16
2.84365e-13
2.24246e-12
1.30532e-11
3.21166e-11
1.43135e-11
1.24276e-11
1.90794e-12
1.18295e-13
1.47754e-13
8.03037e-13
1.74798e-12
2.32189e-12
2.64085e-12
7.81309e-23
2.86617e-22
1.62955e-21
2.00546e-20
3.66827e-19
1.00883e-16
6.35508e-14
9.9178e-13
6.79157e-12
1.333e-11
8.29239e-12
1.07227e-11
4.01975e-12
2.25631e-13
2.39195e-14
2.23709e-14
1.51643e-13
6.13251e-13
1.37447e-12
1.34344e-22
4.78176e-22
2.21231e-21
2.06732e-20
2.93717e-19
6.0667e-18
1.3133e-14
4.01737e-13
3.72585e-12
6.30789e-12
4.79507e-12
8.18982e-12
3.97849e-12
6.82348e-13
3.32849e-14
8.94905e-15
6.9052e-15
1.46139e-13
7.35459e-13
2.08007e-22
6.81651e-22
2.33744e-21
1.3412e-20
1.25907e-19
1.20344e-18
2.41083e-16
1.44176e-13
1.72639e-12
2.63748e-12
2.85689e-12
5.82207e-12
3.26986e-12
8.74667e-13
5.72298e-14
1.03917e-14
6.0353e-15
5.88317e-14
2.20418e-13
2.89179e-22
9.21928e-22
2.6176e-21
9.13895e-21
5.00892e-20
3.62979e-19
3.04729e-18
2.48909e-14
7.22066e-13
1.13104e-12
1.56141e-12
3.76598e-12
2.46272e-12
7.50539e-13
7.7344e-14
1.68947e-14
5.30831e-15
8.78521e-15
4.69387e-14
3.45331e-22
1.12647e-21
2.97958e-21
7.81932e-21
2.68251e-20
1.4216e-19
9.50174e-19
1.17266e-16
2.43951e-13
5.50973e-13
8.35227e-13
2.32442e-12
1.64604e-12
5.37164e-13
7.62966e-14
2.03915e-14
6.97612e-15
9.1943e-16
6.0337e-15
3.46919e-22
1.15695e-21
3.13113e-21
7.52982e-21
1.79328e-20
5.92587e-20
3.17572e-19
1.93215e-18
1.10875e-14
1.14006e-13
4.87472e-13
1.35785e-12
1.04265e-12
3.69306e-13
6.65673e-14
2.04723e-14
6.45222e-15
6.25946e-16
4.93951e-16
3.03071e-22
1.05961e-21
3.03969e-21
7.50003e-21
1.61772e-20
3.42887e-20
9.82681e-20
4.53997e-19
2.07554e-17
5.11982e-15
2.08036e-13
7.56383e-13
5.96824e-13
2.25506e-13
5.61169e-14
1.62278e-14
2.69188e-15
4.56872e-16
3.94897e-17
2.3011e-22
8.44153e-22
2.60147e-21
6.89868e-21
1.56768e-20
3.13103e-20
5.89939e-20
1.29442e-19
3.3419e-19
2.13137e-17
2.44541e-14
3.76462e-13
3.01545e-13
1.37675e-13
4.13393e-14
9.37666e-15
9.12347e-16
2.49984e-16
7.06899e-18
1.45092e-22
5.7744e-22
1.93669e-21
5.62352e-21
1.39306e-20
2.99026e-20
5.67065e-20
9.9804e-20
1.72089e-19
4.04779e-19
4.38267e-16
5.16589e-14
1.34508e-13
6.54529e-14
1.94166e-14
5.39328e-15
3.30303e-16
1.77354e-16
7.30043e-18
7.74957e-23
3.32347e-22
1.21685e-21
3.75252e-21
1.10299e-20
2.59113e-20
5.3518e-20
9.75308e-20
1.61274e-19
2.5915e-19
8.48819e-19
1.15163e-15
4.05596e-14
3.97996e-14
1.02546e-14
2.49064e-15
1.56711e-16
8.69722e-17
6.78627e-18
3.36162e-23
1.59315e-22
6.42175e-22
2.26965e-21
6.77e-21
1.84982e-20
4.35773e-20
8.64429e-20
1.54579e-19
2.48347e-19
3.92688e-19
9.99545e-18
8.04406e-15
1.09371e-14
3.71802e-15
1.2888e-15
4.37663e-17
1.70592e-17
3.20652e-18
1.26091e-23
6.3827e-23
2.83416e-22
1.10729e-21
4.02928e-21
1.10967e-20
2.7721e-20
6.58878e-20
1.33671e-19
2.41155e-19
4.09416e-19
1.18677e-18
1.40288e-16
4.66849e-15
1.12912e-15
3.82106e-16
8.26274e-18
1.9218e-18
1.88902e-18
3.40836e-24
1.91275e-23
1.07766e-22
4.94284e-22
1.78297e-21
6.135e-21
1.6734e-20
4.06968e-20
1.01597e-19
2.0513e-19
3.7965e-19
7.69972e-19
7.02218e-18
4.78038e-16
1.43281e-16
1.47293e-16
3.03339e-17
1.82218e-18
8.77878e-19
9.73982e-25
6.05543e-24
3.27074e-23
1.62055e-22
7.6547e-22
2.58291e-21
7.34658e-21
2.37325e-20
6.21896e-20
1.46069e-19
2.95861e-19
5.93218e-19
2.98365e-18
1.65374e-17
8.84279e-18
3.44276e-17
1.21462e-17
1.51782e-18
4.58985e-19
2.12945e-25
1.51645e-24
9.42754e-24
5.14926e-23
2.55669e-22
1.05594e-21
3.4381e-21
1.01259e-20
3.24616e-20
8.60157e-20
1.90036e-19
4.10434e-19
9.98974e-19
3.22437e-18
2.45549e-18
1.07809e-17
4.53861e-18
9.60425e-19
1.90463e-19
3.97466e-26
3.25502e-25
2.31482e-24
1.43061e-23
7.87797e-23
3.63965e-22
1.30203e-21
4.14013e-21
1.44309e-20
4.26123e-20
9.93034e-20
2.21625e-19
5.22319e-19
1.59023e-18
1.38156e-18
1.99483e-18
1.174e-18
3.62173e-19
1.28175e-19
6.57149e-27
6.23806e-26
4.94927e-25
3.25005e-24
1.92379e-23
1.0678e-22
4.2405e-22
1.56426e-21
4.45583e-21
1.7186e-20
4.48654e-20
1.06029e-19
2.33337e-19
5.96208e-19
5.95314e-19
2.37586e-19
1.97839e-19
1.58791e-19
6.67635e-20
9.47251e-28
1.01281e-26
8.95332e-26
6.75611e-25
4.53853e-24
2.69891e-23
1.18945e-22
4.91434e-22
1.59566e-21
5.48852e-21
1.68296e-20
4.10379e-20
9.01462e-20
1.90517e-19
1.53531e-19
5.69189e-20
9.79261e-20
8.55658e-20
3.80388e-20
1.2038e-28
1.4958e-27
1.49163e-26
1.20732e-25
8.16658e-25
5.01641e-24
2.70846e-23
1.31792e-22
5.50256e-22
1.70736e-21
5.22627e-21
1.33962e-20
2.95449e-20
5.63565e-20
4.00433e-20
3.19062e-20
4.85657e-20
4.95848e-20
1.60916e-20
1.45074e-29
2.01442e-28
2.21054e-27
1.9295e-26
1.4458e-25
1.01624e-24
5.88756e-24
2.66924e-23
9.53461e-23
3.62043e-22
1.22173e-21
3.6809e-21
8.05982e-21
1.45673e-20
1.25812e-20
1.47156e-20
2.63018e-20
2.08659e-20
6.44259e-21
1.71053e-30
2.56091e-29
3.12144e-28
3.19959e-27
2.62949e-26
1.90581e-25
1.10897e-24
5.44042e-24
2.22855e-23
9.68185e-23
2.86353e-22
7.24562e-22
1.60118e-21
2.87857e-21
3.69325e-21
5.78761e-21
8.90065e-21
7.67926e-21
2.34799e-21
1.74496e-31
2.98575e-30
4.0076e-29
3.77178e-28
3.53508e-27
3.09433e-26
1.94401e-25
1.03749e-24
4.57344e-24
1.73461e-23
6.24272e-23
1.88588e-22
4.34499e-22
8.31257e-22
1.32243e-21
2.12952e-21
2.85615e-21
2.39665e-21
5.8608e-22
)
;

boundaryField
{
    leftWall
    {
        type            alphaContactAngle;
        contactAngleProperties 
        {
            mercury         
            {
                theta0          90;
            }
            air             
            {
                theta0          90;
            }
            oil             
            {
                theta0          90;
            }
        }
        value           nonuniform List<scalar> 
50
(
5.16112e-13
3.72379e-14
1.67579e-10
0.00376831
0.538424
1
1
1
1
1
1
0.746257
0.0487057
-2.65953e-17
-4.58074e-17
-5.40724e-17
-5.54142e-17
-5.08089e-17
-4.18665e-17
-3.08623e-17
-2.00538e-17
-1.12043e-17
-5.19895e-18
-1.90961e-18
-5.17675e-19
-9.18912e-20
-8.053e-21
6.24842e-33
6.40613e-43
5.30708e-48
4.30799e-48
2.7494e-48
1.33049e-48
4.64916e-49
1.16925e-49
1.95039e-50
2.08121e-51
1.42627e-52
6.64162e-54
1.97443e-55
3.58655e-57
4.1205e-59
2.9661e-61
1.29552e-63
3.31685e-66
5.52948e-69
4.08726e-72
9.3814e-76
6.41584e-81
1.92903e-90
)
;
    }
    rightWall
    {
        type            alphaContactAngle;
        contactAngleProperties 
        {
            mercury         
            {
                theta0          90;
            }
            air             
            {
                theta0          90;
            }
            oil             
            {
                theta0          90;
            }
        }
        value           nonuniform List<scalar> 
50
(
1.96581e-10
1.75485e-10
1.07276e-10
5.64577e-11
2.72684e-11
2.07466e-11
2.04992e-11
2.10441e-11
2.59834e-11
3.73991e-11
5.08699e-11
5.66731e-11
6.73481e-11
7.09211e-11
7.17598e-11
6.93932e-11
6.66911e-11
6.18152e-11
5.75534e-11
5.14393e-11
4.62088e-11
3.78373e-11
3.20994e-11
2.34281e-11
1.52199e-11
8.34269e-12
3.71382e-12
2.64085e-12
1.37447e-12
7.35459e-13
2.20418e-13
4.69387e-14
6.0337e-15
4.93951e-16
3.94897e-17
7.06899e-18
7.30043e-18
6.78627e-18
3.20652e-18
1.88902e-18
8.77878e-19
4.58985e-19
1.90463e-19
1.28175e-19
6.67635e-20
3.80388e-20
1.60916e-20
6.44259e-21
2.34799e-21
5.8608e-22
)
;
    }
    lowerWall
    {
        type            alphaContactAngle;
        contactAngleProperties 
        {
            mercury         
            {
                theta0          90;
            }
            air             
            {
                theta0          90;
            }
            oil             
            {
                theta0          90;
            }
        }
        value           nonuniform List<scalar> 
62
(
5.16112e-13
6.58193e-12
1.59555e-11
1.7373e-11
1.73305e-11
1.77174e-11
1.74517e-11
1.79301e-11
1.89755e-11
2.05408e-11
2.22332e-11
2.46389e-11
2.79102e-11
3.22723e-11
3.64754e-11
4.01543e-11
4.38726e-11
4.73842e-11
5.12274e-11
6.60603e-11
3.15529e-10
2.11631e-09
2.57578e-09
2.57578e-09
2.63761e-09
2.92468e-09
2.60227e-09
7.5046e-10
3.63757e-09
2.47586e-08
2.9703e-08
6.75784e-09
7.10698e-09
0.000804105
0.00310106
1.52066e-10
1.46492e-10
1.62469e-10
2.02573e-10
1.34159e-10
1.40439e-10
0.0165252
0.0614298
1.52066e-10
1.51964e-10
2.23157e-10
3.90631e-07
7.30545e-06
5.49455e-09
5.32164e-06
1.16646e-06
9.13719e-06
8.07265e-06
6.17127e-06
2.18188e-06
5.57523e-07
2.93018e-08
9.1161e-10
5.98643e-10
6.95531e-10
6.76304e-10
1.96581e-10
)
;
    }
    atmosphere
    {
        type            inletOutlet;
        inletValue      uniform 0;
        value           nonuniform List<scalar> 
46
(
0
0
0
0
0
0
0
0
0
0
0
0
0
0
0
0
0
0
0
0
0
2.70547e-39
1.83679e-37
8.72229e-36
1.28121e-34
1.61235e-33
1.77803e-32
1.74496e-31
2.98575e-30
4.0076e-29
3.77178e-28
3.53508e-27
3.09433e-26
1.94401e-25
1.03749e-24
4.57344e-24
1.73461e-23
6.24272e-23
1.88588e-22
4.34499e-22
8.31257e-22
1.32242e-21
2.12952e-21
2.85615e-21
2.39665e-21
5.8608e-22
)
;
    }
    defaultFaces
    {
        type            empty;
    }
}

