/*--------------------------------*- C++ -*----------------------------------*\
  =========                 |
  \\      /  F ield         | OpenFOAM: The Open Source CFD Toolbox
   \\    /   O peration     | Website:  https://openfoam.org
    \\  /    A nd           | Version:  13
     \\/     M anipulation  |
\*---------------------------------------------------------------------------*/
FoamFile
{
    format      ascii;
    class       volScalarField;
    location    "0.55";
    object      epsilon;
}
// * * * * * * * * * * * * * * * * * * * * * * * * * * * * * * * * * * * * * //

dimensions      [0 2 -3 0 0 0 0];

internalField   nonuniform List<scalar> 
2268
(
0.0127332
0.0486592
0.0903459
0.126378
0.160473
0.192522
0.22203
0.248271
0.270461
0.287949
0.300487
0.308974
0.315938
0.321437
0.325722
0.327898
0.325617
0.314649
0.290435
0.249538
0.191263
0.116045
0.0462072
0.0154324
0.0337256
0.0504776
0.065683
0.0798719
0.0931693
0.105505
0.116721
0.126657
0.135206
0.142378
0.148414
0.154185
0.159916
0.165692
0.171268
0.175433
0.176232
0.171117
0.157657
0.13466
0.101408
0.073253
0.0253365
0.0347911
0.046501
0.0574707
0.0676565
0.0770916
0.0857495
0.0935776
0.100546
0.106695
0.112172
0.117282
0.122568
0.12836
0.134728
0.141378
0.147245
0.15082
0.150245
0.143776
0.130901
0.112671
0.115251
0.0347534
0.038592
0.0475911
0.0565254
0.0648981
0.0725965
0.0795725
0.0858022
0.0913101
0.0962085
0.100734
0.105294
0.110388
0.116374
0.12326
0.130617
0.137356
0.142218
0.143844
0.141206
0.134715
0.127237
0.155139
0.0438018
0.0434076
0.0505453
0.0580802
0.0652687
0.0718659
0.0777797
0.0829848
0.0875294
0.0915759
0.0954363
0.0995925
0.10457
0.110747
0.118074
0.12598
0.133307
0.13903
0.142268
0.142766
0.141921
0.14462
0.19565
0.0529441
0.0484243
0.0542617
0.0607332
0.0670536
0.0728613
0.0780062
0.0824451
0.0862437
0.0896066
0.0929199
0.0967539
0.101698
0.108089
0.115751
0.124036
0.131844
0.138378
0.143203
0.146907
0.152098
0.167328
0.250216
0.0610593
0.0519506
0.05698
0.062771
0.0684709
0.0737149
0.0783531
0.0823314
0.0857045
0.0886705
0.0916329
0.0952705
0.10033
0.107058
0.115107
0.123727
0.131963
0.139372
0.146036
0.15331
0.165454
0.199635
0.374016
0.0673775
0.0538314
0.0582021
0.0635375
0.0687463
0.0735374
0.0778171
0.0815617
0.0848216
0.0877635
0.0907301
0.09436
0.0995058
0.106689
0.115552
0.12472
0.133467
0.141902
0.150702
0.161856
0.181337
0.241703
0.820613
0.344926
1.03655
2.36068
3.89062
4.78352
5.23183
5.43944
5.37129
5.19363
4.75189
4.26225
4.09022
4.29457
4.683
4.75228
4.22691
3.46857
2.44707
1.06816
0.334778
0.700841
1.45347
2.37106
2.92418
3.03433
2.81337
2.36343
2.07919
1.94765
1.91268
1.95585
2.04708
2.18996
2.29743
2.34683
2.41076
2.19906
0.760068
0.437676
0.717802
1.4024
1.79531
1.82121
1.74524
1.66912
1.52114
1.40441
1.3623
1.38675
1.46064
1.57031
1.70021
1.81844
1.92409
2.11513
2.04595
0.943927
0.445361
0.897719
1.09505
1.15804
1.15997
1.16855
1.1692
1.13351
1.10103
1.10778
1.16201
1.25635
1.38387
1.521
1.651
1.79703
2.02495
1.89233
1.06181
0.428877
0.79875
0.799387
0.819598
0.847427
0.884622
0.916622
0.928286
0.936613
0.969673
1.04399
1.15986
1.30932
1.47486
1.62925
1.79194
1.96242
1.70893
1.13069
0.470665
0.681924
0.675093
0.673392
0.697457
0.738859
0.782578
0.816184
0.844834
0.891284
0.974799
1.10295
1.26448
1.45561
1.63468
1.77641
1.80338
1.526
1.16637
1.03733
0.801307
0.651906
0.609947
0.623037
0.662652
0.71041
0.753296
0.793589
0.848284
0.934661
1.06138
1.22428
1.41632
1.59284
1.6847
1.61934
1.37707
1.19095
2.01494
0.898888
0.634959
0.575821
0.584705
0.622736
0.67105
0.718474
0.767194
0.827931
0.914607
1.03665
1.19341
1.37823
1.53879
1.57181
1.47855
1.26495
1.21694
0.0729781
0.0555175
0.0592321
0.064086
0.0687256
0.0729504
0.0767543
0.0801882
0.08336
0.0864603
0.0898052
0.0939114
0.0994513
0.107062
0.116856
0.127601
0.137914
0.148359
0.160843
0.17803
0.20618
0.267242
0.460414
0.078
0.0570774
0.0600579
0.0643696
0.0684689
0.0722164
0.0757
0.079065
0.0825076
0.0862823
0.0907054
0.096177
0.103156
0.11202
0.122825
0.13495
0.147753
0.162019
0.179867
0.203807
0.237073
0.286024
0.370557
0.0804968
0.0585633
0.061063
0.0648795
0.0685524
0.0720188
0.0754332
0.0790122
0.083024
0.0877913
0.0936484
0.100918
0.109942
0.120909
0.133737
0.148006
0.163297
0.180175
0.200621
0.226565
0.25909
0.298676
0.346718
0.0834471
0.0611008
0.0628157
0.0659972
0.0692708
0.0725822
0.0760979
0.0800668
0.084814
0.0907535
0.0982867
0.107701
0.119199
0.132915
0.148696
0.166145
0.184855
0.204806
0.226783
0.251698
0.279845
0.310351
0.341478
0.0892538
0.0663236
0.0659824
0.0681497
0.0710118
0.0742717
0.0780059
0.082442
0.0879532
0.095153
0.104481
0.11619
0.130339
0.146878
0.165926
0.187062
0.209613
0.232927
0.256428
0.279881
0.303523
0.326974
0.349612
0.0977985
0.0762954
0.0709851
0.0717327
0.0742714
0.0776335
0.0817039
0.0866364
0.0927844
0.101276
0.112556
0.126731
0.143446
0.162348
0.184395
0.209056
0.234835
0.260105
0.283786
0.305585
0.326021
0.345807
0.365148
0.113909
0.0834439
0.0752023
0.0744096
0.0767063
0.0806451
0.085725
0.0917465
0.0987653
0.108283
0.122019
0.139634
0.160092
0.18003
0.2041
0.231929
0.259863
0.286131
0.309529
0.32923
0.346693
0.364506
0.383293
0.131677
0.0931011
0.0805025
0.0763947
0.0768777
0.080175
0.0854166
0.0917125
0.0991048
0.108796
0.121976
0.139374
0.161066
0.186714
0.218696
0.254678
0.286599
0.314112
0.33711
0.354131
0.368125
0.384275
0.403201
0.143495
0.0938878
0.0823077
0.0779398
0.0775093
0.0798626
0.0843027
0.0901847
0.0971813
0.106048
0.117991
0.133292
0.15145
0.173553
0.201713
0.233737
0.264623
0.291988
0.315365
0.335121
0.354486
0.37663
0.399914
0.153366
0.0944758
0.0826993
0.0787176
0.0782673
0.0802729
0.0842095
0.0896245
0.0962679
0.104419
0.114945
0.128324
0.144411
0.162908
0.184032
0.20789
0.232956
0.258145
0.283058
0.30798
0.334178
0.362487
0.391843
0.16226
0.0945568
0.0821107
0.078526
0.0784434
0.0805952
0.0844955
0.0898254
0.0963879
0.104328
0.11412
0.126165
0.14048
0.156714
0.174495
0.194084
0.215447
0.238239
0.262188
0.287424
0.314435
0.343358
0.373822
0.170384
0.0946376
0.0811756
0.0776938
0.0779234
0.0803473
0.0844337
0.0899138
0.0966432
0.104665
0.11422
0.125547
0.138676
0.153359
0.169301
0.1866
0.205485
0.226007
0.248125
0.271919
0.297575
0.32519
0.354998
0.177554
0.0947785
0.0802162
0.0765789
0.0769214
0.0795204
0.0837771
0.0894259
0.0963379
0.104502
0.114013
0.124974
0.137379
0.151066
0.165844
0.181748
0.198971
0.21765
0.237842
0.259639
0.283194
0.308762
0.337028
0.183662
0.0949327
0.0793481
0.075412
0.0756885
0.0783067
0.08261
0.0883178
0.0952974
0.103502
0.112942
0.123634
0.135537
0.148535
0.162506
0.177448
0.193471
0.210679
0.229149
0.248977
0.270359
0.293727
0.320096
0.188742
0.0950738
0.0786114
0.0743272
0.0744242
0.0769304
0.0811458
0.0867717
0.0936649
0.101755
0.111008
0.121392
0.132846
0.145274
0.158583
0.172745
0.187794
0.203785
0.220775
0.238863
0.258289
0.279611
0.304033
0.192917
0.0951974
0.0780152
0.0733919
0.073258
0.0755707
0.0795986
0.0850274
0.0917035
0.099542
0.108485
0.118479
0.129452
0.141318
0.153993
0.167425
0.181601
0.196529
0.212241
0.228836
0.24658
0.266098
0.288665
0.196334
0.0953072
0.0775511
0.0726288
0.0722572
0.0743414
0.0781274
0.0832884
0.0896625
0.0971555
0.105699
0.115229
0.12567
0.136942
0.148961
0.161662
0.174999
0.188952
0.203533
0.218837
0.235141
0.253082
0.273931
0.199155
0.0954124
0.0772017
0.0720322
0.071443
0.0732974
0.0768246
0.0816885
0.0877204
0.0948208
0.102916
0.111937
0.121811
0.132458
0.143796
0.155751
0.168263
0.181293
0.194842
0.209001
0.224042
0.240589
0.259859
0.201571
0.0955271
0.0769453
0.07158
0.0708061
0.0724496
0.0757263
0.0802933
0.0859771
0.0926744
0.100309
0.10881
0.118106
0.128117
0.138764
0.14997
0.161668
0.173811
0.186398
0.199511
0.213412
0.228693
0.246505
0.20371
0.0956563
0.0767597
0.0712432
0.0703214
0.071781
0.0748287
0.0791167
0.0844678
0.0907762
0.0979637
0.105959
0.11469
0.124079
0.134048
0.144519
0.155424
0.166716
0.178392
0.19053
0.203372
0.217474
0.233916
0.205138
0.0956322
0.0765871
0.0709932
0.0699587
0.071261
0.0741057
0.0781396
0.0831836
0.0891307
0.0959008
0.103422
0.111621
0.120421
0.129743
0.139511
0.149657
0.160136
0.170951
0.182174
0.194019
0.207002
0.22209
0.205839
0.0954774
0.0764066
0.0707905
0.0696833
0.0708593
0.0735232
0.0773265
0.0820909
0.0877083
0.0940974
0.101184
0.108895
0.117151
0.125873
0.134985
0.144418
0.154127
0.16411
0.174437
0.185318
0.197216
0.210993
0.205872
0.0952198
0.0762226
0.0706205
0.0694623
0.0705303
0.0730348
0.0766313
0.0811432
0.0864622
0.0925055
0.0991976
0.106462
0.114218
0.122386
0.130887
0.139655
0.148644
0.15785
0.16734
0.177308
0.188168
0.200683
0.205336
0.0949025
0.0760548
0.0704857
0.0692828
0.0702477
0.0726008
0.0760032
0.0802807
0.0853254
0.0910535
0.0973873
0.104247
0.111552
0.119218
0.127166
0.135329
0.143661
0.152156
0.160875
0.169993
0.179875
0.191188
0.204365
0.0945837
0.0759364
0.070403
0.0691482
0.0700027
0.0722011
0.0754116
0.0794635
0.0842497
0.0896858
0.0956923
0.102187
0.109086
0.116303
0.123757
0.131379
0.139124
0.146981
0.155005
0.163347
0.172326
0.182511
0.203129
0.0943373
0.0759141
0.0704022
0.0690755
0.0698016
0.071832
0.0748436
0.0786698
0.0832049
0.0883643
0.0940668
0.100228
0.106761
0.113577
0.120594
0.127739
0.134965
0.142259
0.149664
0.157312
0.165471
0.174622
0.201836
0.0942532
0.0760471
0.0705255
0.0690941
0.0696634
0.0715039
0.0743015
0.0778942
0.0821779
0.0870678
0.0924816
0.0983331
0.104532
0.110988
0.117615
0.12434
0.131111
0.13791
0.144772
0.151805
0.159233
0.167455
0.200729
0.0944378
0.0764077
0.0708257
0.0692439
0.0696184
0.0712392
0.0738011
0.0771461
0.0811711
0.0857913
0.0909234
0.0964797
0.102368
0.108495
0.114771
0.121121
0.12749
0.133854
0.140238
0.146729
0.153511
0.160911
0.20009
0.0950157
0.0770802
0.0713657
0.0695735
0.0697057
0.0710704
0.0733694
0.076447
0.0802006
0.0845446
0.089395
0.0946625
0.100253
0.106071
0.112025
0.118034
0.124042
0.130017
0.135975
0.141986
0.148197
0.154873
0.200248
0.0961322
0.0781618
0.0722167
0.0701388
0.0699716
0.0710376
0.0730424
0.0758294
0.0792947
0.0833512
0.0879134
0.0928912
0.0981891
0.103709
0.109357
0.11505
0.120723
0.126344
0.131914
0.13749
0.143189
0.149223
0.201586
0.0979584
0.0797632
0.0734571
0.0709995
0.0704663
0.0711864
0.0728629
0.0753342
0.0784918
0.0822457
0.0865088
0.0911901
0.096193
0.101418
0.106768
0.112156
0.117513
0.122798
0.128006
0.133177
0.138406
0.143861
0.204568
0.100699
0.082009
0.0751695
0.0722168
0.0712411
0.0715648
0.0728784
0.0750087
0.0778387
0.0812731
0.0852227
0.0895958
0.0942958
0.0992221
0.104275
0.109363
0.114412
0.119372
0.12423
0.129013
0.133797
0.138715
0.209784
0.104607
0.0850388
0.0774372
0.0738482
0.0723445
0.0722203
0.0731387
0.0749053
0.0773887
0.0804864
0.0841061
0.0881562
0.0925409
0.0971597
0.101911
0.106698
0.11144
0.11608
0.120593
0.124996
0.129348
0.133755
0.218029
0.110004
0.0890066
0.0803372
0.0759405
0.0738168
0.0731967
0.0736939
0.0750795
0.0772013
0.0799462
0.0832188
0.0869284
0.0909819
0.0952804
0.0997214
0.104204
0.108639
0.112959
0.117128
0.121153
0.12508
0.128993
0.230448
0.11731
0.094075
0.0839269
0.0785193
0.0756837
0.0745308
0.0745928
0.07559
0.0773416
0.0797209
0.0826293
0.085979
0.0896817
0.093643
0.0977618
0.101934
0.106061
0.110062
0.113891
0.11754
0.121045
0.124475
0.248812
0.127089
0.100396
0.0882192
0.0815721
0.0779477
0.0762485
0.0758824
0.0764994
0.0778817
0.0798877
0.0824162
0.0853846
0.0887128
0.0923149
0.0960943
0.0999459
0.103763
0.107451
0.110945
0.114226
0.11732
0.120283
0.276101
0.140107
0.108059
0.0931345
0.0850233
0.0805785
0.0783639
0.0776099
0.0778764
0.0789043
0.0805364
0.0826718
0.0852357
0.0881607
0.0913734
0.0947877
0.0983023
0.101805
0.105186
0.10836
0.111288
0.113992
0.116514
0.317799
0.157366
0.116949
0.0984139
0.0887001
0.0835069
0.0808829
0.0798283
0.0798029
0.0805078
0.0817753
0.0835082
0.0856436
0.08813
0.0909124
0.0939215
0.0970677
0.100241
0.103318
0.106188
0.108791
0.111143
0.113274
0.385148
0.179943
0.126397
0.103468
0.0922973
0.0866295
0.083817
0.0826101
0.0823837
0.0828157
0.0837389
0.085066
0.0867494
0.0887564
0.0910539
0.0935963
0.0963162
0.0991177
0.101876
0.104457
0.106773
0.108836
0.11065
0.505469
0.207832
0.134352
0.107169
0.0953771
0.0898487
0.0872181
0.0860708
0.085763
0.085988
0.0865984
0.087525
0.0887373
0.0902211
0.0919658
0.0939532
0.0961483
0.0984876
0.100868
0.103152
0.105225
0.107092
0.108681
0.768322
0.234088
0.135683
0.107761
0.0975134
0.0931863
0.091245
0.0904067
0.0901477
0.0902385
0.0905767
0.0911189
0.0918508
0.0927723
0.0938891
0.0952065
0.0967239
0.0984269
0.100273
0.102177
0.104035
0.10583
0.107299
1.6246
0.215918
0.120521
0.103648
0.0988035
0.0970172
0.0962672
0.0959497
0.0958468
0.0958704
0.0959835
0.096172
0.0964333
0.0967714
0.0971943
0.0977137
0.0983456
0.0991126
0.100046
0.101176
0.10254
0.104419
0.1061
1.75407
1.69822
1.81039
2.1023
0.496314
0.552599
0.593434
0.618755
0.386658
0.411766
0.431604
0.445045
0.363206
0.37815
0.391801
0.404215
0.365743
0.377657
0.389971
0.403066
0.379526
0.390688
0.403088
0.417332
0.397711
0.409231
0.422482
0.438616
0.417366
0.428901
0.443711
0.463733
0.418517
0.434735
0.455578
0.48244
0.414639
0.432794
0.45448
0.480802
0.398401
0.417412
0.439455
0.465625
0.380003
0.399183
0.421133
0.446761
0.361518
0.380268
0.40171
0.426621
0.343543
0.361482
0.38207
0.406006
0.326158
0.343052
0.362524
0.385224
0.309348
0.325078
0.343271
0.364537
0.293159
0.307692
0.324538
0.344269
0.277681
0.291045
0.306551
0.324731
0.263004
0.275265
0.289495
0.306178
0.249188
0.260443
0.273511
0.288835
0.236139
0.246477
0.258471
0.272534
0.223872
0.233329
0.244285
0.257119
0.212411
0.220999
0.230926
0.242537
0.201783
0.209511
0.218415
0.228804
0.192009
0.198897
0.206797
0.215979
0.183082
0.189172
0.19611
0.204129
0.174959
0.180312
0.186356
0.193288
0.167557
0.172247
0.177487
0.183437
0.160761
0.164867
0.1694
0.174489
0.154443
0.15804
0.161961
0.166307
0.148487
0.151637
0.155027
0.158737
0.142803
0.145554
0.148478
0.151637
0.137343
0.139731
0.142237
0.14491
0.132107
0.134155
0.136277
0.13851
0.127136
0.128862
0.130625
0.132451
0.122509
0.123928
0.12535
0.126795
0.118331
0.119459
0.120556
0.121639
0.114716
0.115574
0.116365
0.117104
0.111769
0.112382
0.11289
0.113308
0.109541
0.109945
0.110206
0.110344
0.107982
0.108239
0.108319
0.108242
0.106644
0.106817
0.106821
0.106675
1.04839
0.693092
0.57379
0.542931
0.557318
0.596051
0.6458
0.699967
0.757145
0.822859
0.90669
1.01819
1.1576
1.31777
1.43629
1.4151
1.30086
1.13572
1.28983
0.574243
0.52586
0.510143
0.521958
0.556871
0.60891
0.671372
0.737383
0.801496
0.865283
0.937823
1.02817
1.13295
1.23961
1.3099
1.28651
1.18621
1.07781
1.39934
0.454949
0.465361
0.48824
0.528056
0.586186
0.660599
0.744335
0.824426
0.888438
0.939486
0.99146
1.05283
1.11979
1.18135
1.21534
1.19108
1.11499
1.06229
1.52689
0.423895
0.453466
0.496945
0.560139
0.645654
0.751483
0.865285
0.960003
1.01273
1.03692
1.05652
1.08138
1.11161
1.13913
1.1491
1.12486
1.07516
1.07224
1.65784
0.427102
0.467484
0.52802
0.61667
0.736477
0.887098
1.04858
1.15885
1.17453
1.14771
1.12194
1.10837
1.10685
1.10986
1.10593
1.08595
1.05983
1.09841
1.78159
0.445383
0.496741
0.576445
0.698377
0.865062
1.08339
1.33425
1.45256
1.36403
1.2568
1.18123
1.13474
1.10935
1.09606
1.08528
1.0712
1.06414
1.1352
1.89067
0.472363
0.53808
0.641407
0.814784
1.0462
1.33868
1.68017
1.80642
1.5476
1.35513
1.23796
1.167
1.12487
1.10093
1.08659
1.07758
1.08462
1.17931
1.97999
0.507856
0.59349
0.719624
0.900733
1.13705
1.40576
1.64612
1.77059
1.6663
1.43318
1.2938
1.2072
1.15409
1.12351
1.10734
1.10205
1.11858
1.22849
2.0454
0.535963
0.631699
0.754289
0.900646
1.1014
1.32343
1.50607
1.6355
1.65676
1.4905
1.35019
1.25425
1.19375
1.15958
1.14314
1.1408
1.16322
1.28036
2.08281
0.533683
0.62533
0.745398
0.901002
1.09597
1.29226
1.45122
1.59907
1.69713
1.57233
1.41513
1.30716
1.23964
1.2035
1.18822
1.18884
1.21468
1.33152
2.08792
0.517287
0.610821
0.735525
0.895313
1.08462
1.26976
1.43096
1.60096
1.75661
1.67282
1.48758
1.3633
1.28746
1.24914
1.23574
1.23965
1.26729
1.37673
2.05656
0.497049
0.590521
0.717542
0.879823
1.06766
1.25378
1.42696
1.61494
1.8126
1.77205
1.5628
1.41937
1.33294
1.29042
1.27816
1.2851
1.31317
1.4085
1.98565
0.475316
0.567577
0.694516
0.858381
1.04829
1.24139
1.42853
1.62754
1.83811
1.84784
1.63911
1.47395
1.37312
1.32243
1.30807
1.31612
1.3426
1.41787
1.87469
0.452819
0.542846
0.667982
0.83197
1.0245
1.22554
1.42415
1.62874
1.83809
1.89978
1.72256
1.53148
1.4099
1.34411
1.32096
1.32516
1.34632
1.39683
1.72801
0.429725
0.516547
0.63843
0.800078
0.993029
1.19882
1.40317
1.60624
1.81192
1.95358
1.83652
1.60381
1.45141
1.3606
1.31869
1.31048
1.32017
1.343
1.55774
0.406348
0.489014
0.606227
0.762855
0.95255
1.15791
1.36141
1.55747
1.75869
1.99003
1.9732
1.70482
1.50984
1.38293
1.31105
1.27986
1.27044
1.26529
1.38693
0.383155
0.461024
0.57231
0.721718
0.904567
1.10459
1.30196
1.48646
1.67058
1.92305
2.10349
1.86024
1.60001
1.42475
1.31367
1.25078
1.21646
1.18807
1.25222
0.360614
0.43334
0.53784
0.678773
0.852385
1.04384
1.23222
1.40331
1.56574
1.77855
2.08527
2.03864
1.72273
1.49677
1.3422
1.24435
1.18559
1.14836
1.21769
0.339105
0.406511
0.503731
0.635558
0.799021
0.980369
1.15894
1.31821
1.46142
1.62438
1.86525
2.05665
1.88736
1.60278
1.40515
1.27641
1.1988
1.17479
1.35168
0.318948
0.380904
0.470444
0.592678
0.745814
0.916764
1.08582
1.23557
1.36402
1.49301
1.65899
1.84126
1.93279
1.73133
1.49567
1.34842
1.25885
1.24926
1.5782
0.299906
0.35644
0.438396
0.550853
0.693528
0.854466
1.01476
1.15696
1.27559
1.38362
1.50535
1.64485
1.75619
1.75995
1.60561
1.44291
1.36364
1.36119
1.81869
0.281833
0.333037
0.407597
0.51057
0.642391
0.793972
0.946475
1.08273
1.1951
1.29109
1.38904
1.50033
1.61282
1.68605
1.69723
1.57511
1.51361
1.46862
2.00573
0.264652
0.310597
0.377906
0.471652
0.592732
0.735047
0.88079
1.01248
1.12103
1.21029
1.29475
1.38872
1.49353
1.59618
1.67891
1.66073
1.58172
1.52828
2.13307
0.248372
0.289102
0.349226
0.433914
0.544705
0.677035
0.81685
0.945193
1.0517
1.1375
1.21406
1.29583
1.39041
1.49345
1.59336
1.64498
1.61472
1.57539
2.2888
0.233075
0.268654
0.321603
0.397224
0.497859
0.620007
0.753449
0.879363
0.985199
1.06977
1.14214
1.21631
1.30362
1.4079
1.52757
1.63933
1.67488
1.58773
2.46714
0.218876
0.249454
0.295272
0.36171
0.452026
0.564191
0.689613
0.813372
0.919519
1.00442
1.07518
1.14579
1.23187
1.348
1.50857
1.70414
1.75343
1.56069
2.65961
0.205871
0.231743
0.270612
0.327798
0.407422
0.509173
0.626111
0.745863
0.852936
0.939266
1.01001
1.07933
1.16744
1.30073
1.51133
1.79737
1.84558
1.47945
2.06755
0.194091
0.215698
0.248033
0.296131
0.364729
0.455322
0.563179
0.677308
0.784346
0.87297
0.944692
1.01309
1.10131
1.24375
1.48423
1.80379
1.7493
1.27089
1.5729
0.183474
0.201351
0.227813
0.267357
0.32492
0.403586
0.50123
0.60897
0.713943
0.805117
0.878832
0.946099
1.03005
1.16751
1.40855
1.72873
1.61396
1.07758
1.26497
0.173878
0.188592
0.209998
0.24188
0.288918
0.355248
0.441368
0.541298
0.643448
0.735905
0.812851
0.879567
0.956156
1.07751
1.29799
1.63889
1.55121
0.923007
0.977828
0.165117
0.177199
0.194389
0.219715
0.257252
0.31148
0.385007
0.475242
0.573085
0.666409
0.746787
0.814803
0.883852
0.983892
1.17023
1.52496
1.4283
0.771508
0.709541
0.157008
0.166903
0.180635
0.200533
0.229902
0.272936
0.333445
0.411992
0.503072
0.595927
0.679988
0.751543
0.816075
0.894485
1.03074
1.28673
1.09309
0.657312
0.572386
0.149405
0.157461
0.168359
0.183835
0.206421
0.23964
0.287536
0.352847
0.433963
0.523273
0.610009
0.686827
0.752127
0.817266
0.90558
1.0356
0.948837
0.664584
0.595129
0.142227
0.148696
0.157248
0.169126
0.186192
0.211165
0.247615
0.299142
0.367169
0.448208
0.533674
0.61457
0.683853
0.743091
0.808061
0.874216
0.838395
0.679207
0.68809
0.135457
0.140533
0.147098
0.156027
0.168642
0.186909
0.213595
0.252071
0.305206
0.373045
0.450787
0.530364
0.60233
0.658163
0.70487
0.734747
0.682084
0.557079
0.545066
0.129139
0.132965
0.137811
0.144294
0.153336
0.166285
0.185083
0.212327
0.250892
0.302633
0.366281
0.436518
0.505249
0.556644
0.58738
0.588757
0.52689
0.408091
0.38694
0.123353
0.126041
0.129375
0.133813
0.13999
0.1488
0.161508
0.179856
0.206002
0.241988
0.288422
0.342898
0.399741
0.443998
0.462583
0.447918
0.384965
0.283721
0.267242
0.118222
0.119856
0.121854
0.124573
0.128461
0.134097
0.142259
0.153998
0.170662
0.193708
0.224065
0.260973
0.300794
0.334091
0.344666
0.325291
0.272298
0.196034
0.190394
0.113872
0.11454
0.115369
0.11666
0.118741
0.121982
0.126837
0.133886
0.143857
0.157552
0.17556
0.197604
0.22155
0.241867
0.247377
0.230433
0.191769
0.140674
0.143592
0.110416
0.110241
0.11009
0.11024
0.110942
0.11243
0.114953
0.118799
0.124303
0.131811
0.141532
0.15321
0.165559
0.175441
0.177002
0.164504
0.138654
0.10612
0.115152
0.107922
0.107089
0.106211
0.105549
0.105296
0.105602
0.106589
0.108379
0.111086
0.114796
0.119482
0.124843
0.130029
0.133285
0.131747
0.122597
0.105865
0.0856154
0.0971347
0.106234
0.105144
0.103939
0.102889
0.102164
0.101865
0.102052
0.102759
0.103987
0.105688
0.10771
0.109713
0.111043
0.110627
0.107023
0.0990499
0.0871532
0.0749591
0.0885106
)
;

boundaryField
{
    leftWall
    {
        type            epsilonWallFunction;
        value           nonuniform List<scalar> 
50
(
0.0127332
0.0154324
0.0253365
0.0347534
0.0438018
0.0529441
0.0610593
0.0673775
0.0729781
0.078
0.0804968
0.0834471
0.0892538
0.0977985
0.113909
0.131677
0.143495
0.153366
0.16226
0.170384
0.177554
0.183662
0.188742
0.192917
0.196334
0.199155
0.201571
0.20371
0.205138
0.205839
0.205872
0.205336
0.204365
0.203129
0.201836
0.200729
0.20009
0.200248
0.201586
0.204568
0.209784
0.218029
0.230448
0.248812
0.276101
0.317799
0.385148
0.505469
0.768322
1.6246
)
;
    }
    rightWall
    {
        type            epsilonWallFunction;
        value           nonuniform List<scalar> 
50
(
1.06816
0.760068
0.943927
1.06181
1.13069
1.16637
1.19095
1.21694
1.28983
1.39934
1.52689
1.65784
1.78159
1.89067
1.97999
2.0454
2.08281
2.08792
2.05656
1.98565
1.87469
1.72801
1.55774
1.38693
1.25222
1.21769
1.35168
1.5782
1.81869
2.00573
2.13307
2.2888
2.46714
2.65961
2.06755
1.5729
1.26497
0.977828
0.709541
0.572386
0.595129
0.68809
0.545066
0.38694
0.267242
0.190394
0.143592
0.115152
0.0971347
0.0885106
)
;
    }
    lowerWall
    {
        type            epsilonWallFunction;
        value           nonuniform List<scalar> 
62
(
0.0127332
0.0486592
0.0903459
0.126378
0.160473
0.192522
0.22203
0.248271
0.270461
0.287949
0.300487
0.308974
0.315938
0.321437
0.325722
0.327898
0.325617
0.314649
0.290435
0.249538
0.191263
0.116045
0.0462072
0.0462072
0.073253
0.115251
0.155139
0.19565
0.250216
0.374016
0.820613
1.75407
1.69822
1.81039
2.1023
0.344926
0.334778
0.437676
0.445361
0.428877
0.470665
1.03733
2.01494
0.344926
1.03655
2.36068
3.89062
4.78352
5.23183
5.43944
5.37129
5.19363
4.75189
4.26225
4.09022
4.29457
4.683
4.75228
4.22691
3.46857
2.44707
1.06816
)
;
    }
    atmosphere
    {
        type            inletOutlet;
        inletValue      uniform 0.1;
        value           nonuniform List<scalar> 
46
(
0.1
0.1
0.1
0.1
0.1
0.1
0.1
0.1
0.1
0.1
0.1
0.1
0.1
0.1
0.1
0.1
0.1
0.1
0.1
0.1
0.1
0.104419
0.1061
0.106644
0.106817
0.106821
0.106675
0.106234
0.105144
0.103939
0.102889
0.102164
0.101865
0.102052
0.102759
0.103987
0.105688
0.10771
0.109713
0.111043
0.110627
0.107023
0.0990499
0.0871532
0.0749591
0.0885106
)
;
    }
    defaultFaces
    {
        type            empty;
    }
}


// ************************************************************************* //
