/*--------------------------------*- C++ -*----------------------------------*\
  =========                 |
  \\      /  F ield         | OpenFOAM: The Open Source CFD Toolbox
   \\    /   O peration     | Website:  https://openfoam.org
    \\  /    A nd           | Version:  13
     \\/     M anipulation  |
\*---------------------------------------------------------------------------*/
FoamFile
{
    format      ascii;
    class       volScalarField;
    location    "0.55";
    object      k;
}
// * * * * * * * * * * * * * * * * * * * * * * * * * * * * * * * * * * * * * //

dimensions      [0 2 -2 0 0 0 0];

internalField   nonuniform List<scalar> 
2268
(
0.00207614
0.00507277
0.00765973
0.00957834
0.0112305
0.0126792
0.0139424
0.0150177
0.0158955
0.0165681
0.0170399
0.0173623
0.0176265
0.0178341
0.0179961
0.0180788
0.017995
0.0175849
0.0166632
0.0150487
0.0125808
0.00900083
0.00489982
0.00388745
0.0105603
0.0154894
0.0195616
0.0230347
0.0260451
0.0286495
0.0308663
0.0327027
0.034174
0.0353226
0.0362539
0.0370365
0.0377606
0.0384593
0.0390292
0.0392375
0.0387127
0.0370562
0.0338724
0.0287877
0.0214578
0.0109447
0.00541278
0.012845
0.0190869
0.0242951
0.028724
0.032536
0.0358123
0.0385918
0.0409018
0.0427832
0.0443153
0.0456427
0.0468697
0.0480985
0.0493223
0.0503632
0.0508858
0.0504551
0.0486283
0.0449505
0.0389841
0.0300602
0.0147924
0.0066869
0.0146907
0.0218281
0.0277705
0.032815
0.0371432
0.040851
0.0439905
0.0466049
0.0487575
0.0505649
0.0521962
0.0538005
0.0554793
0.0571751
0.0586319
0.0594418
0.0591642
0.0573713
0.0536196
0.0473803
0.037424
0.0180455
0.00780714
0.0167232
0.0244899
0.0308842
0.0363273
0.0410059
0.0450148
0.0484088
0.0512394
0.0535889
0.0556056
0.0574852
0.0594146
0.0614924
0.0636138
0.0654509
0.0665436
0.0664843
0.0649064
0.0614307
0.0553572
0.0447228
0.0211149
0.00886078
0.0191467
0.0272544
0.0338807
0.0395761
0.0445021
0.0487326
0.0523141
0.0553022
0.0577956
0.0599687
0.0620607
0.0642942
0.0667449
0.0692455
0.0714246
0.0728242
0.0730904
0.0719616
0.0691345
0.0637688
0.0531766
0.0250311
0.00974403
0.0214688
0.0296878
0.0364422
0.0423042
0.0474187
0.0518478
0.0556267
0.0588043
0.0614745
0.0638141
0.066122
0.0686806
0.0715254
0.0744181
0.0769404
0.0786805
0.0794075
0.0789952
0.0772365
0.0733062
0.0643202
0.0331439
0.0104061
0.0231449
0.0314747
0.0383428
0.0443247
0.0495831
0.0541914
0.0581907
0.0616246
0.0645718
0.0671837
0.069756
0.0726087
0.0758852
0.0793304
0.0822875
0.0844425
0.0857754
0.0863357
0.0860454
0.0843361
0.0794577
0.0563769
0.0192795
0.0402442
0.0694271
0.0959932
0.109107
0.114903
0.116755
0.115133
0.113116
0.107337
0.0998491
0.0962766
0.0981129
0.103753
0.105536
0.0985674
0.0868346
0.0698385
0.0414702
0.033241
0.0805444
0.151333
0.208844
0.234158
0.234742
0.220851
0.200324
0.189934
0.184797
0.181234
0.179542
0.184218
0.189849
0.188017
0.173264
0.146704
0.11188
0.0580806
0.03961
0.104891
0.184736
0.222859
0.227736
0.22388
0.221978
0.218564
0.217187
0.217283
0.218164
0.221058
0.226906
0.231285
0.225896
0.205727
0.175526
0.133241
0.0666644
0.0397703
0.128605
0.172849
0.195607
0.207202
0.216418
0.224104
0.229261
0.233538
0.23773
0.242586
0.24921
0.257202
0.261255
0.253568
0.23064
0.196159
0.143888
0.0714914
0.0386855
0.117758
0.151384
0.179078
0.199582
0.215797
0.228954
0.238866
0.246443
0.253334
0.261456
0.271755
0.282422
0.288133
0.27945
0.252068
0.208406
0.146185
0.0739222
0.0411147
0.103514
0.146552
0.177727
0.201124
0.220192
0.23621
0.24892
0.2584
0.266832
0.276749
0.289363
0.301438
0.308764
0.299797
0.26553
0.207932
0.144261
0.0748935
0.0700435
0.117291
0.156195
0.18492
0.207834
0.227675
0.245001
0.259036
0.269827
0.279356
0.290007
0.302735
0.314869
0.321502
0.310703
0.26882
0.202905
0.142695
0.0753856
0.108549
0.141952
0.171693
0.195898
0.217186
0.236773
0.254347
0.268998
0.280947
0.291377
0.302188
0.314267
0.325322
0.330538
0.31692
0.268438
0.200977
0.142934
0.0759891
0.0109872
0.0247151
0.0334405
0.0405656
0.0467578
0.0522343
0.0571013
0.061428
0.0652814
0.0687486
0.0719558
0.0751326
0.078539
0.0823734
0.0865684
0.0905144
0.0936539
0.0961802
0.0985742
0.100994
0.103474
0.106313
0.107579
0.0114929
0.0259338
0.0351598
0.0426719
0.0491926
0.0549994
0.0602552
0.0650774
0.0695776
0.073874
0.0780835
0.0823341
0.0868141
0.0916137
0.0966756
0.101699
0.106449
0.111246
0.116658
0.123125
0.130861
0.139488
0.14914
0.0117421
0.0266916
0.0364538
0.0443808
0.0512668
0.0574546
0.0631609
0.0685545
0.0737913
0.0790265
0.0843789
0.0899201
0.0957711
0.101943
0.108339
0.114764
0.121097
0.12762
0.135034
0.143882
0.154008
0.164956
0.176338
0.0120338
0.0273469
0.0376361
0.0459835
0.0532658
0.0598849
0.0660975
0.0721091
0.0781165
0.0843293
0.0909063
0.0978879
0.105276
0.113077
0.121168
0.129372
0.137567
0.145826
0.154508
0.163923
0.174
0.184374
0.1945
0.0125799
0.0282062
0.0389498
0.0476945
0.0554104
0.062516
0.0692786
0.075918
0.0826671
0.0898486
0.0976445
0.106069
0.11502
0.124388
0.134198
0.144267
0.154355
0.164285
0.173907
0.183194
0.192311
0.20121
0.209822
0.0133097
0.0287958
0.0401945
0.0494642
0.0577789
0.065509
0.0729075
0.0801904
0.0875929
0.0957029
0.104717
0.114568
0.124927
0.135535
0.146797
0.158507
0.170079
0.180942
0.190826
0.199753
0.208014
0.215958
0.223811
0.0147181
0.0296774
0.0405315
0.0501561
0.059129
0.0677183
0.0760835
0.0843118
0.0924882
0.101367
0.111797
0.123453
0.135636
0.146721
0.158824
0.171849
0.184309
0.195625
0.205535
0.21389
0.22127
0.228638
0.236375
0.0162205
0.0334992
0.0429113
0.0514999
0.0599439
0.0684348
0.0770364
0.0855247
0.0939863
0.10309
0.113415
0.125179
0.138168
0.152008
0.167622
0.183999
0.197974
0.209725
0.219529
0.227047
0.233321
0.240149
0.24793
0.0171839
0.0351209
0.0453044
0.0537124
0.0616648
0.0696336
0.077769
0.0859846
0.0942127
0.102905
0.112686
0.123602
0.135231
0.147941
0.162583
0.178042
0.192226
0.204415
0.214711
0.22341
0.231713
0.240788
0.250226
0.0179735
0.0365189
0.0474679
0.0560903
0.0639081
0.0715487
0.07927
0.0870964
0.0950212
0.103256
0.112281
0.122298
0.133125
0.144503
0.156469
0.169015
0.181437
0.193331
0.204632
0.215521
0.226531
0.238047
0.249802
0.0186715
0.0377195
0.0491938
0.0581011
0.0660038
0.0735671
0.0811027
0.0887185
0.0964486
0.104443
0.112989
0.122286
0.13228
0.142718
0.153355
0.164271
0.175417
0.186632
0.197814
0.20905
0.220583
0.232545
0.244882
0.0192969
0.0387785
0.05052
0.0596102
0.067623
0.075215
0.0827105
0.0902598
0.0979355
0.10584
0.114144
0.122977
0.132324
0.142005
0.151819
0.161775
0.171949
0.182343
0.19293
0.203756
0.214935
0.22656
0.238769
0.0198396
0.0396874
0.0515225
0.0606695
0.0687256
0.0763346
0.0838184
0.0913435
0.0989998
0.106866
0.115037
0.123579
0.132472
0.141598
0.150821
0.160123
0.169572
0.17921
0.189056
0.199152
0.209587
0.2205
0.232178
0.0202956
0.0404478
0.0522756
0.0613822
0.0693991
0.0769649
0.0843969
0.0918659
0.0994674
0.107264
0.115308
0.123621
0.132176
0.140887
0.149664
0.158478
0.167362
0.176349
0.185467
0.194762
0.204336
0.214389
0.225332
0.0206709
0.0410786
0.0528484
0.0618554
0.0697685
0.0772278
0.084548
0.0919006
0.0993816
0.107045
0.114918
0.123001
0.131259
0.139626
0.148033
0.156441
0.164851
0.173275
0.18173
0.190268
0.199004
0.208192
0.218322
0.0209768
0.0416036
0.0532972
0.0621776
0.069949
0.0772562
0.0844139
0.0915939
0.0988916
0.106356
0.114006
0.12183
0.129792
0.137835
0.145896
0.15393
0.161912
0.169831
0.177694
0.185548
0.193521
0.201897
0.211206
0.0212255
0.0420428
0.0536614
0.0624116
0.0700276
0.0771601
0.0841248
0.0910942
0.0981645
0.105384
0.112767
0.120301
0.127951
0.135662
0.143376
0.151041
0.158613
0.166064
0.17339
0.180631
0.187918
0.195545
0.20405
0.0214297
0.0424094
0.0539643
0.0625954
0.0700604
0.077015
0.0837765
0.0905189
0.0973397
0.104288
0.11138
0.118603
0.125923
0.133291
0.140649
0.147938
0.155105
0.16211
0.168936
0.175618
0.182281
0.189213
0.196938
0.0216033
0.0427103
0.0542161
0.062747
0.0700764
0.0768634
0.0834276
0.0899442
0.0965124
0.103184
0.109976
0.11688
0.123864
0.130883
0.137878
0.144787
0.151552
0.158123
0.164475
0.170634
0.176716
0.18299
0.189956
0.0217587
0.0429517
0.0544175
0.0628716
0.0700848
0.076722
0.0831048
0.0894087
0.0957348
0.102138
0.108637
0.115228
0.121881
0.128553
0.135187
0.141719
0.148086
0.154234
0.160132
0.165795
0.171323
0.176964
0.183184
0.0218638
0.0431515
0.054587
0.0629683
0.0700825
0.0765895
0.0828128
0.0889231
0.0950254
0.101177
0.107401
0.113695
0.120032
0.126371
0.132655
0.138821
0.144802
0.150541
0.156003
0.161192
0.166188
0.171214
0.176687
0.0219169
0.0432883
0.0547078
0.0630396
0.0700741
0.0764691
0.082545
0.0884799
0.0943789
0.100301
0.106273
0.112292
0.118336
0.124363
0.130318
0.136137
0.14175
0.147098
0.152138
0.156866
0.161351
0.165782
0.170523
0.0219224
0.0433616
0.0547724
0.0630681
0.0700378
0.0763371
0.0822859
0.0880648
0.093781
0.0994961
0.105237
0.111006
0.11678
0.122518
0.128167
0.133661
0.138932
0.143915
0.148563
0.152864
0.15687
0.160736
0.164773
0.0218871
0.0433788
0.0547834
0.0630498
0.069963
0.0761768
0.0820112
0.0876487
0.0931991
0.098726
0.104259
0.109801
0.11533
0.120808
0.126181
0.131382
0.136344
0.140998
0.145294
0.14921
0.15278
0.156125
0.159502
0.0218205
0.0433529
0.0547514
0.0629903
0.0698495
0.0759813
0.0817072
0.0872118
0.0926079
0.0979615
0.103305
0.108641
0.113952
0.119199
0.124326
0.129271
0.133961
0.13833
0.14232
0.145902
0.14909
0.151974
0.154757
0.0217346
0.0433024
0.0546942
0.0629037
0.0697061
0.0757536
0.0813702
0.086744
0.091991
0.0971806
0.102347
0.107496
0.112611
0.117652
0.122566
0.127288
0.131748
0.135875
0.13961
0.142913
0.145783
0.148279
0.150553
0.0216438
0.0432516
0.0546369
0.0628126
0.0695509
0.0755063
0.0810067
0.0862453
0.0913422
0.0963706
0.101368
0.106342
0.111276
0.116133
0.120861
0.125393
0.129659
0.133589
0.137118
0.140201
0.14282
0.145009
0.146871
0.0215656
0.043231
0.0546121
0.0627476
0.0694107
0.0752609
0.080633
0.0857258
0.0906653
0.0955289
0.100357
0.105161
0.109926
0.114616
0.119177
0.123546
0.127652
0.131422
0.134791
0.137707
0.140141
0.142103
0.143657
0.0215204
0.043277
0.0546596
0.0627474
0.0693206
0.0750482
0.0802741
0.0852052
0.0899739
0.0946628
0.0993168
0.10395
0.108548
0.113079
0.117488
0.121714
0.125683
0.129325
0.132572
0.135368
0.137675
0.139484
0.140829
0.0215316
0.0434325
0.0548269
0.0628584
0.0693238
0.0749069
0.079964
0.0847119
0.0892907
0.0937891
0.0982565
0.10271
0.107139
0.111512
0.115776
0.119869
0.12372
0.127256
0.13041
0.133122
0.135348
0.137066
0.138287
0.0216266
0.0437477
0.0551691
0.0631347
0.0694709
0.0748831
0.079744
0.0842823
0.088647
0.0929335
0.0971962
0.101456
0.105706
0.109914
0.114033
0.117997
0.121738
0.125182
0.128261
0.130913
0.133092
0.134766
0.135927
0.0218379
0.0442809
0.0557495
0.0636377
0.069819
0.0750293
0.0796619
0.0839597
0.0880813
0.0921294
0.0961637
0.10021
0.104263
0.108295
0.112259
0.116091
0.119722
0.123079
0.126092
0.1287
0.130852
0.132511
0.133659
0.0222054
0.0451009
0.0566407
0.064436
0.0704311
0.0754032
0.0797708
0.0837928
0.0876383
0.091417
0.0951944
0.0990004
0.102835
0.106672
0.110466
0.114156
0.117671
0.120938
0.123886
0.126453
0.128587
0.130248
0.131409
0.0227804
0.0462906
0.0579258
0.0656052
0.0713749
0.076066
0.0801273
0.0838347
0.0873676
0.0908425
0.0943304
0.0978657
0.101453
0.105069
0.108673
0.112203
0.11559
0.118758
0.121636
0.12416
0.126276
0.127945
0.129132
0.0236334
0.0479538
0.0597021
0.067228
0.0727207
0.0770801
0.080789
0.0841403
0.0873222
0.0904568
0.0936194
0.0968493
0.100155
0.10352
0.106905
0.110252
0.113491
0.116547
0.119344
0.121817
0.123912
0.125587
0.126805
0.0248674
0.0502268
0.0620848
0.0693933
0.0745391
0.0785059
0.081812
0.0847645
0.087557
0.0903145
0.0931151
0.096002
0.0989891
0.102065
0.105196
0.108328
0.111394
0.114317
0.117018
0.11943
0.121496
0.123178
0.124432
0.0266466
0.0532986
0.0652129
0.0721945
0.0768962
0.0803973
0.083247
0.0857594
0.0881272
0.0904735
0.0928767
0.0953822
0.0980089
0.100752
0.103585
0.106462
0.109319
0.11208
0.114665
0.117001
0.119035
0.120727
0.122032
0.0292563
0.0574468
0.069255
0.0757231
0.0798456
0.0827951
0.0851351
0.0871716
0.0890866
0.0909948
0.0929699
0.0950576
0.0972808
0.0996419
0.102124
0.104692
0.107289
0.109846
0.112284
0.114526
0.116523
0.118244
0.119634
0.0332431
0.0630967
0.074404
0.0800493
0.0834139
0.085719
0.0875033
0.0890408
0.0904879
0.0919424
0.0934683
0.0951078
0.0968857
0.0988113
0.100879
0.103065
0.105332
0.107619
0.109858
0.111976
0.113931
0.115721
0.117271
0.0398355
0.0709074
0.0808308
0.0851775
0.0875767
0.089158
0.0903628
0.0913996
0.0923832
0.0933854
0.0944551
0.0956264
0.096923
0.0983588
0.0999381
0.101654
0.103487
0.105401
0.10735
0.109281
0.111186
0.113127
0.114981
0.0526799
0.0817932
0.0884981
0.0909541
0.0922313
0.0930682
0.0937143
0.094281
0.0948302
0.0954021
0.0960258
0.096724
0.0975146
0.0984116
0.099425
0.100561
0.10182
0.103198
0.104689
0.106295
0.108098
0.110375
0.112833
0.0871249
0.0957602
0.0965832
0.0969444
0.0971959
0.0973974
0.0975732
0.09774
0.0979104
0.098095
0.0983027
0.0985415
0.0988189
0.0991419
0.0995178
0.0999545
0.100462
0.101056
0.101766
0.102661
0.104017
0.107329
0.110969
0.0928592
0.0908314
0.0947046
0.104492
0.156453
0.162332
0.168964
0.176471
0.184643
0.190408
0.195971
0.201321
0.201619
0.206653
0.211675
0.216804
0.216179
0.22087
0.225841
0.231233
0.229842
0.234441
0.239531
0.245286
0.242469
0.247212
0.252577
0.258899
0.253928
0.258665
0.264522
0.272039
0.257828
0.264152
0.271964
0.281601
0.258868
0.265816
0.273858
0.283262
0.254631
0.261895
0.270077
0.279462
0.248707
0.256052
0.26423
0.273476
0.24194
0.249147
0.257171
0.266211
0.234695
0.241616
0.249355
0.258095
0.227153
0.233685
0.241032
0.249368
0.219427
0.225505
0.232381
0.240222
0.211624
0.217212
0.223566
0.230846
0.203849
0.208932
0.214735
0.221414
0.196203
0.200777
0.206019
0.212078
0.18877
0.192844
0.197532
0.202975
0.181596
0.18518
0.189315
0.19414
0.174761
0.177853
0.181431
0.185624
0.168345
0.170947
0.173961
0.17751
0.162431
0.164551
0.167007
0.16991
0.157084
0.158749
0.160669
0.162944
0.152345
0.153601
0.15503
0.15672
0.148217
0.149124
0.15013
0.151305
0.144656
0.145288
0.145952
0.146704
0.141582
0.142014
0.142424
0.142854
0.138885
0.139187
0.139426
0.139633
0.136445
0.136674
0.136813
0.136882
0.134148
0.134347
0.134439
0.134436
0.131905
0.132101
0.13218
0.132149
0.129651
0.12986
0.129946
0.129915
0.127356
0.127585
0.127689
0.127669
0.12502
0.125273
0.125397
0.125393
0.122668
0.122949
0.123097
0.123109
0.120341
0.120663
0.120842
0.120873
0.118097
0.118481
0.118706
0.118766
0.116006
0.11649
0.116786
0.116895
0.114173
0.114812
0.115218
0.115396
0.112671
0.113472
0.113997
0.114267
0.142629
0.170488
0.192629
0.212402
0.231868
0.250981
0.268813
0.284653
0.297991
0.309337
0.319872
0.330332
0.338696
0.340013
0.321267
0.268989
0.203207
0.147229
0.0784099
0.188872
0.202802
0.218394
0.235617
0.254534
0.2744
0.293921
0.311497
0.325559
0.335894
0.343727
0.349897
0.351816
0.344795
0.320769
0.272343
0.211206
0.155493
0.0825225
0.210069
0.222973
0.238834
0.257667
0.279196
0.302473
0.32547
0.344941
0.357871
0.364555
0.36739
0.367309
0.362145
0.34839
0.321201
0.276721
0.221118
0.165591
0.0874117
0.225912
0.240159
0.258357
0.280936
0.307481
0.336588
0.364738
0.385754
0.394913
0.39488
0.390214
0.382285
0.370278
0.351637
0.322947
0.281644
0.231441
0.176105
0.092424
0.241184
0.257374
0.279044
0.307065
0.34064
0.378335
0.414686
0.436644
0.436649
0.425154
0.410487
0.394479
0.376584
0.354493
0.325453
0.287567
0.241411
0.186153
0.0971197
0.256309
0.275259
0.301575
0.337276
0.380508
0.430773
0.482169
0.502102
0.480498
0.452405
0.427181
0.404321
0.38203
0.357942
0.329388
0.294126
0.250693
0.195213
0.101222
0.27156
0.294426
0.32663
0.374405
0.430201
0.491763
0.554613
0.571976
0.519724
0.475117
0.441311
0.413443
0.388132
0.362757
0.33461
0.300995
0.259076
0.202949
0.104561
0.287773
0.316095
0.353557
0.401292
0.455987
0.510397
0.5526
0.569951
0.544657
0.491933
0.453407
0.422297
0.394945
0.368654
0.340615
0.307756
0.266339
0.209111
0.107013
0.300053
0.330816
0.366544
0.40472
0.451313
0.496554
0.528682
0.547861
0.544604
0.503115
0.463945
0.430752
0.401807
0.374744
0.346542
0.31379
0.272139
0.213455
0.108456
0.301443
0.330979
0.366033
0.406569
0.451673
0.491656
0.519536
0.542188
0.551918
0.517378
0.474756
0.438836
0.408031
0.380019
0.351376
0.318303
0.275972
0.215678
0.108756
0.297328
0.327535
0.363975
0.405696
0.44955
0.487375
0.51583
0.542265
0.56165
0.534005
0.485995
0.446394
0.413131
0.38364
0.354163
0.320445
0.277226
0.215411
0.107768
0.290998
0.321324
0.358653
0.401311
0.445131
0.483447
0.514371
0.543842
0.570352
0.549848
0.497165
0.453308
0.416891
0.385126
0.354218
0.319488
0.275297
0.212283
0.105356
0.283303
0.313448
0.351063
0.394524
0.439272
0.479461
0.51334
0.544692
0.573263
0.561329
0.508395
0.459956
0.419601
0.3846
0.35138
0.315099
0.269829
0.206073
0.101444
0.274652
0.304312
0.341759
0.385738
0.431682
0.474125
0.510681
0.543168
0.571439
0.568585
0.521047
0.467727
0.42252
0.383128
0.34641
0.307736
0.261076
0.196973
0.0960919
0.265224
0.294088
0.330971
0.374914
0.421692
0.465943
0.504369
0.53711
0.565005
0.576244
0.539193
0.479039
0.427832
0.382804
0.341248
0.299056
0.250354
0.185957
0.0896305
0.255212
0.282938
0.318847
0.362105
0.408977
0.454146
0.493469
0.525937
0.553941
0.581285
0.561264
0.496084
0.43791
0.386264
0.338765
0.291945
0.240308
0.175123
0.0828555
0.244837
0.271154
0.305671
0.347648
0.393813
0.43897
0.478368
0.510107
0.536702
0.569472
0.582135
0.522174
0.454823
0.395792
0.34193
0.289943
0.234703
0.16785
0.0772915
0.234315
0.259017
0.291794
0.332065
0.376893
0.421337
0.460303
0.491092
0.515693
0.544047
0.580206
0.551917
0.477723
0.412288
0.352681
0.296057
0.237612
0.168818
0.0760625
0.223832
0.246744
0.277511
0.315775
0.358912
0.402215
0.440533
0.470621
0.493522
0.515577
0.545033
0.557695
0.507369
0.435221
0.371006
0.311347
0.250822
0.180655
0.0819814
0.213552
0.234503
0.262999
0.298984
0.340235
0.3822
0.419831
0.449576
0.471428
0.489522
0.509412
0.525754
0.519513
0.461784
0.393989
0.333437
0.271965
0.200202
0.0911728
0.203503
0.222372
0.248451
0.281919
0.321085
0.361635
0.398599
0.428269
0.449864
0.466014
0.480689
0.493523
0.495444
0.472736
0.418796
0.356725
0.297114
0.223785
0.100328
0.193748
0.21044
0.233975
0.264781
0.301559
0.340662
0.377003
0.406775
0.428655
0.444271
0.456804
0.46754
0.473149
0.465206
0.437999
0.381931
0.323873
0.24249
0.107152
0.18438
0.198809
0.219669
0.247648
0.281807
0.319282
0.355036
0.385038
0.407532
0.423412
0.435288
0.445178
0.452116
0.451879
0.438442
0.397786
0.336701
0.253139
0.111866
0.175528
0.187629
0.205676
0.230639
0.262003
0.297426
0.332579
0.362893
0.386207
0.402812
0.414793
0.424325
0.431664
0.434141
0.427094
0.400694
0.348191
0.266779
0.117557
0.167348
0.1771
0.192213
0.213938
0.242242
0.275246
0.309473
0.340105
0.364363
0.38198
0.394575
0.404317
0.412258
0.417281
0.416445
0.402843
0.362458
0.271949
0.123349
0.159991
0.167458
0.179576
0.197842
0.222753
0.253027
0.285649
0.316453
0.341689
0.360487
0.374039
0.384542
0.393888
0.402771
0.410342
0.410409
0.373079
0.274958
0.129105
0.153573
0.158926
0.168105
0.182765
0.203919
0.230995
0.261516
0.291818
0.317965
0.33801
0.352685
0.364195
0.375249
0.388346
0.404523
0.416781
0.379168
0.266625
0.109261
0.14814
0.151654
0.158105
0.169175
0.18628
0.209624
0.237483
0.266541
0.293152
0.314434
0.330273
0.342692
0.354861
0.370421
0.391538
0.407735
0.359344
0.239502
0.0914386
0.143648
0.145669
0.149763
0.157481
0.17045
0.189577
0.214081
0.241266
0.267537
0.289874
0.306903
0.32004
0.332371
0.347887
0.369548
0.386698
0.332553
0.211189
0.0790785
0.139971
0.14087
0.143081
0.147905
0.156946
0.171596
0.192052
0.21656
0.241855
0.264623
0.282865
0.296687
0.308548
0.322218
0.341776
0.362799
0.31123
0.184271
0.0662259
0.136927
0.137052
0.137874
0.1404
0.14602
0.156297
0.172215
0.193163
0.216637
0.239271
0.258422
0.273102
0.284413
0.295448
0.311016
0.334532
0.280642
0.154045
0.0536917
0.134315
0.133953
0.133829
0.134671
0.137567
0.143962
0.155254
0.171885
0.192496
0.214168
0.233805
0.249482
0.260699
0.269153
0.278656
0.291805
0.229436
0.132657
0.0473074
0.131953
0.13131
0.130588
0.130282
0.131181
0.134447
0.141497
0.153444
0.170144
0.189674
0.209031
0.225583
0.237441
0.244797
0.249012
0.249744
0.211849
0.136945
0.0490816
0.129695
0.128905
0.127826
0.126782
0.126314
0.127267
0.130822
0.13827
0.150349
0.16638
0.184112
0.200732
0.213357
0.220581
0.223114
0.218377
0.192145
0.139926
0.054228
0.127452
0.126589
0.125298
0.123792
0.12243
0.121791
0.122733
0.126373
0.133775
0.145251
0.159699
0.174795
0.187354
0.194324
0.195304
0.187799
0.162477
0.120188
0.0465136
0.125188
0.124283
0.122855
0.121051
0.119116
0.117432
0.116574
0.117347
0.120705
0.127385
0.137269
0.148972
0.159858
0.165792
0.164927
0.154932
0.130934
0.0938976
0.036866
0.122915
0.121974
0.120439
0.118424
0.116111
0.113756
0.111728
0.110547
0.110882
0.113424
0.118511
0.125622
0.133021
0.136952
0.134288
0.123064
0.101099
0.0700775
0.0285818
0.120691
0.119708
0.118069
0.115885
0.113306
0.110516
0.107754
0.105333
0.103662
0.103202
0.104307
0.10689
0.109997
0.111092
0.106878
0.0956878
0.077024
0.0524833
0.0226051
0.118606
0.117575
0.115832
0.113499
0.11072
0.10764
0.10442
0.101249
0.0983529
0.0959874
0.0943668
0.0934951
0.0928829
0.0910993
0.0856703
0.0752697
0.0600576
0.0412525
0.0186003
0.116777
0.115706
0.113864
0.111403
0.108469
0.105191
0.101687
0.0980731
0.0944705
0.0910014
0.0877571
0.0847171
0.0816014
0.0776567
0.071518
0.0619884
0.049408
0.0343421
0.0159667
0.115337
0.11424
0.112324
0.10977
0.10673
0.103325
0.0996516
0.0957867
0.0917954
0.0877284
0.0836053
0.0793741
0.0748432
0.0695922
0.0629341
0.054208
0.0433368
0.0303035
0.014202
0.11432
0.113278
0.111364
0.10879
0.105716
0.10226
0.0985072
0.094517
0.0903273
0.0859544
0.0813823
0.0765418
0.0712783
0.0653217
0.0582946
0.049845
0.0398465
0.0280527
0.0133317
)
;

boundaryField
{
    leftWall
    {
        type            kqRWallFunction;
        value           nonuniform List<scalar> 
50
(
0.00207614
0.00388745
0.00541278
0.0066869
0.00780714
0.00886078
0.00974403
0.0104061
0.0109872
0.0114929
0.0117421
0.0120338
0.0125799
0.0133097
0.0147181
0.0162205
0.0171839
0.0179735
0.0186715
0.0192969
0.0198396
0.0202956
0.0206709
0.0209768
0.0212255
0.0214297
0.0216033
0.0217587
0.0218638
0.0219169
0.0219224
0.0218871
0.0218205
0.0217346
0.0216438
0.0215656
0.0215204
0.0215316
0.0216266
0.0218379
0.0222054
0.0227804
0.0236334
0.0248674
0.0266466
0.0292563
0.0332431
0.0398355
0.0526799
0.0871249
)
;
    }
    rightWall
    {
        type            kqRWallFunction;
        value           nonuniform List<scalar> 
50
(
0.0414702
0.0580806
0.0666644
0.0714914
0.0739222
0.0748935
0.0753856
0.0759891
0.0784099
0.0825225
0.0874117
0.092424
0.0971197
0.101222
0.104561
0.107013
0.108456
0.108756
0.107768
0.105356
0.101444
0.0960919
0.0896305
0.0828555
0.0772915
0.0760625
0.0819814
0.0911728
0.100328
0.107152
0.111866
0.117557
0.123349
0.129105
0.109261
0.0914386
0.0790785
0.0662259
0.0536917
0.0473074
0.0490816
0.054228
0.0465136
0.036866
0.0285818
0.0226051
0.0186003
0.0159667
0.014202
0.0133317
)
;
    }
    lowerWall
    {
        type            kqRWallFunction;
        value           nonuniform List<scalar> 
62
(
0.00207614
0.00507277
0.00765973
0.00957834
0.0112305
0.0126792
0.0139424
0.0150177
0.0158955
0.0165681
0.0170399
0.0173623
0.0176265
0.0178341
0.0179961
0.0180788
0.017995
0.0175849
0.0166632
0.0150487
0.0125808
0.00900083
0.00489982
0.00489982
0.0109447
0.0147924
0.0180455
0.0211149
0.0250311
0.0331439
0.0563769
0.0928592
0.0908314
0.0947046
0.104492
0.0192795
0.033241
0.03961
0.0397703
0.0386855
0.0411147
0.0700435
0.108549
0.0192795
0.0402442
0.0694271
0.0959932
0.109107
0.114903
0.116755
0.115133
0.113116
0.107337
0.0998491
0.0962766
0.0981129
0.103753
0.105536
0.0985674
0.0868346
0.0698385
0.0414702
)
;
    }
    atmosphere
    {
        type            inletOutlet;
        inletValue      uniform 0.1;
        value           nonuniform List<scalar> 
46
(
0.1
0.1
0.1
0.1
0.1
0.1
0.1
0.1
0.1
0.1
0.1
0.1
0.1
0.1
0.1
0.1
0.1
0.1
0.1
0.1
0.1
0.107329
0.110969
0.112671
0.113472
0.113997
0.114267
0.11432
0.113278
0.111364
0.10879
0.105716
0.10226
0.0985072
0.094517
0.0903273
0.0859544
0.0813823
0.0765418
0.0712783
0.0653217
0.0582946
0.049845
0.0398465
0.0280527
0.0133317
)
;
    }
    defaultFaces
    {
        type            empty;
    }
}


// ************************************************************************* //
