/*--------------------------------*- C++ -*----------------------------------*\
  =========                 |
  \\      /  F ield         | OpenFOAM: The Open Source CFD Toolbox
   \\    /   O peration     | Website:  https://openfoam.org
    \\  /    A nd           | Version:  13
     \\/     M anipulation  |
\*---------------------------------------------------------------------------*/
FoamFile
{
    format      ascii;
    class       volScalarField;
    location    "0.55";
    object      nut;
}
// * * * * * * * * * * * * * * * * * * * * * * * * * * * * * * * * * * * * * //

dimensions      [0 2 -1 0 0 0 0];

internalField   nonuniform List<scalar> 
2268
(
3.04663e-05
4.75958e-05
5.84468e-05
6.53358e-05
7.07365e-05
7.51534e-05
7.87961e-05
8.17563e-05
8.40792e-05
8.57972e-05
8.69659e-05
8.78086e-05
8.85061e-05
8.90533e-05
8.9485e-05
8.97106e-05
8.95033e-05
8.84493e-05
8.60422e-05
8.16775e-05
7.44775e-05
6.2832e-05
4.67619e-05
8.81331e-05
0.000297599
0.000427773
0.000524322
0.00059788
0.000655272
0.000700174
0.000734617
0.000759942
0.000777385
0.000788686
0.000797034
0.000800679
0.000802468
0.000803422
0.00080047
0.000789831
0.00076536
0.000722219
0.00065497
0.000553884
0.000408637
0.000147171
0.000104073
0.000426819
0.000705105
0.00092434
0.00109754
0.00123584
0.0013461
0.00143239
0.00149748
0.00154399
0.00157568
0.00159865
0.00161306
0.00162209
0.00162507
0.00161469
0.00158269
0.00151912
0.00141651
0.00126481
0.0010449
0.000721798
0.000170874
0.000115797
0.000503305
0.000901045
0.00122791
0.00149333
0.00171035
0.00188749
0.00202984
0.00214086
0.00222388
0.00228437
0.00232871
0.0023599
0.0023804
0.00238691
0.00236871
0.00231515
0.00221517
0.00205939
0.00183247
0.00149976
0.000990673
0.000188912
0.000125238
0.000579849
0.00106791
0.00147805
0.00181971
0.00210577
0.0023447
0.00254152
0.00269958
0.00282235
0.00291586
0.00298626
0.00303825
0.00307292
0.00308453
0.00306036
0.00298952
0.00286136
0.00266508
0.00237898
0.00194332
0.00124472
0.000205088
0.000133466
0.000681342
0.00123203
0.00170107
0.00210226
0.00244629
0.00274002
0.00298755
0.00319154
0.00335499
0.00348324
0.00358267
0.00365827
0.00370934
0.00372822
0.00370159
0.0036202
0.00347453
0.00325456
0.00292813
0.00240622
0.00152095
0.000225364
0.000139948
0.000798487
0.00139212
0.00190411
0.00235236
0.00274528
0.00308778
0.00338254
0.00363125
0.00383578
0.00399967
0.00413025
0.00423135
0.00430075
0.00433011
0.00430613
0.00422207
0.00407182
0.00384577
0.00350201
0.00292312
0.0018651
0.000264338
0.000144646
0.000895608
0.00153189
0.00208248
0.00257208
0.00300885
0.00339647
0.00373648
0.00402943
0.00427578
0.00447733
0.00464107
0.00476839
0.00485778
0.00490168
0.00488622
0.0048083
0.00466637
0.00445148
0.00411688
0.00353008
0.00235089
0.000348584
9.69861e-05
0.000140624
0.000183765
0.00021316
0.000223976
0.000227118
0.000225548
0.000222106
0.000221728
0.000218209
0.000210519
0.000203956
0.000201732
0.000206879
0.000210933
0.000206865
0.000195649
0.000179385
0.000144903
0.000297052
0.000833094
0.00141809
0.00165556
0.00168755
0.00163442
0.00156032
0.00152816
0.00156154
0.00157805
0.00154553
0.00148333
0.00149201
0.00148124
0.00138482
0.00115127
0.000803477
0.000512286
0.00039944
0.000322626
0.00137947
0.00219014
0.0024898
0.00256299
0.00258475
0.00265689
0.00282638
0.00302284
0.00311905
0.00308892
0.00301099
0.00295085
0.00283162
0.00252559
0.0019797
0.00131096
0.000780955
0.000423732
0.00031963
0.00165813
0.00245551
0.00297364
0.00333108
0.00360729
0.00386591
0.00417327
0.00445817
0.00459151
0.00455786
0.004449
0.00430226
0.0040387
0.00350496
0.00266412
0.00171018
0.000984681
0.000433215
0.000314055
0.00156248
0.00258014
0.00352148
0.0042304
0.00473779
0.00514695
0.00553186
0.00583598
0.00595666
0.00589309
0.00573051
0.00548265
0.00506615
0.00431384
0.00319121
0.00199191
0.00112545
0.000434959
0.00032324
0.00141418
0.00286326
0.00422163
0.00521978
0.0059059
0.00641672
0.0068324
0.00711306
0.00718958
0.00707128
0.00683242
0.00646733
0.00589454
0.00494837
0.00357213
0.00215773
0.0012274
0.000432809
0.000425659
0.00154516
0.00336815
0.00504565
0.00623968
0.00704027
0.00760449
0.00801671
0.0082569
0.00827974
0.00809851
0.00777136
0.00728822
0.00656823
0.00545459
0.00386048
0.00228818
0.00133078
0.000429463
0.0005263
0.00201752
0.00417834
0.00599812
0.00726056
0.00810217
0.00867641
0.00906419
0.00925948
0.0092291
0.00898589
0.00857446
0.00798141
0.00713448
0.00587442
0.00412603
0.00245866
0.00145358
0.000427049
0.000148877
0.000990229
0.00169915
0.00231097
0.00286307
0.00336609
0.00382324
0.00423511
0.00460112
0.00491988
0.00518886
0.0054098
0.00558217
0.005704
0.00577179
0.00577864
0.00572381
0.00561179
0.00543709
0.00515634
0.00467364
0.00380635
0.0022623
0.000152408
0.0010605
0.00185253
0.00254593
0.00318089
0.00376983
0.00431654
0.00482079
0.00528064
0.0056925
0.00604961
0.00634353
0.00657547
0.00674323
0.00684841
0.00689769
0.0069022
0.00687456
0.00680962
0.00669442
0.00650103
0.00612229
0.00540226
0.000154155
0.00109488
0.00195862
0.00273228
0.00345058
0.00412521
0.00475967
0.00535328
0.00590268
0.00640231
0.00684243
0.00721088
0.00750838
0.00773573
0.00789874
0.00800897
0.00808218
0.00813546
0.00818003
0.00822357
0.00823913
0.00819933
0.00807155
0.000156183
0.00110157
0.00202948
0.0028835
0.00368629
0.00444679
0.00516702
0.00584481
0.0064753
0.00705239
0.00756721
0.00800718
0.00836808
0.00865803
0.00888632
0.00906639
0.00921386
0.0093448
0.009474
0.00960819
0.00973699
0.00985799
0.00997058
0.000159576
0.0010796
0.00206931
0.00300411
0.00389129
0.00473589
0.0055375
0.00629193
0.00699289
0.00763559
0.00821301
0.00871462
0.00913523
0.00948068
0.00976824
0.0100137
0.0102298
0.0104284
0.0106148
0.0107917
0.0109663
0.0111437
0.0113333
0.000163021
0.000978145
0.00204837
0.00306978
0.00404538
0.00497502
0.00585524
0.00668017
0.00744226
0.00813926
0.00876824
0.00932147
0.00979182
0.0101836
0.0105179
0.0108163
0.0110861
0.0113285
0.0115485
0.0117517
0.0119448
0.012138
0.0123463
0.000171154
0.000949945
0.00196606
0.00304272
0.00410216
0.00511772
0.00607737
0.00697316
0.00779491
0.00854031
0.00921872
0.00982327
0.0103424
0.0107618
0.0111232
0.01146
0.011765
0.0120372
0.0122833
0.0125062
0.01271
0.0129073
0.0131195
0.00017983
0.00108482
0.00205862
0.00312459
0.00420661
0.00525723
0.00625305
0.00717789
0.00802189
0.00879155
0.00949084
0.0101186
0.0106673
0.0111377
0.0115629
0.0119641
0.012308
0.0126025
0.0128664
0.0131011
0.0133092
0.013507
0.0137208
0.000185204
0.0011824
0.00224431
0.00333145
0.00441533
0.00546433
0.00645676
0.00737821
0.00822013
0.00898691
0.0096858
0.0103155
0.0108674
0.0113499
0.011794
0.0122056
0.0125672
0.0128796
0.0131564
0.0134044
0.0136315
0.0138547
0.014091
0.000189574
0.00127045
0.00245212
0.00359705
0.0046965
0.00573955
0.00671581
0.00761756
0.00844115
0.00918947
0.00987103
0.01049
0.0110448
0.0115359
0.0119731
0.0123669
0.012718
0.0130312
0.0133142
0.0135737
0.0138204
0.0140694
0.0143325
0.000193369
0.0013542
0.00265255
0.00386899
0.00499831
0.00604367
0.00700614
0.00788627
0.00868584
0.00941023
0.0100683
0.0106673
0.0112103
0.0116975
0.0121299
0.0125134
0.0128543
0.0131584
0.0134321
0.0136842
0.013927
0.0141745
0.0144375
0.000196692
0.00143008
0.00282973
0.00411621
0.00528158
0.00633694
0.00729202
0.00815464
0.00893204
0.00963258
0.0102661
0.0108414
0.0113637
0.0118342
0.0122528
0.0126227
0.0129497
0.0132403
0.0135012
0.0137412
0.0139721
0.014206
0.0144534
0.000199516
0.00149568
0.00297834
0.00432587
0.00552627
0.00659489
0.00754738
0.00839719
0.00915617
0.00983554
0.0104463
0.0109979
0.0114966
0.0119452
0.0123442
0.0126964
0.0130064
0.0132804
0.0135249
0.0137481
0.0139601
0.0141721
0.0143952
0.00020185
0.00155102
0.00309959
0.00449663
0.00572692
0.00680815
0.00776001
0.00860009
0.00934378
0.0100047
0.0105951
0.0111247
0.0116008
0.0120269
0.0124053
0.0127383
0.0130299
0.0132852
0.0135101
0.0137117
0.0138992
0.0140833
0.014276
0.000203747
0.00159739
0.00319758
0.00463287
0.00588636
0.00697737
0.00792835
0.00875995
0.00949025
0.0101348
0.0107068
0.0112168
0.0116722
0.0120779
0.0124366
0.0127509
0.013024
0.0132599
0.0134632
0.0136402
0.0137993
0.0139514
0.0141097
0.000205281
0.00163636
0.00327697
0.00474091
0.00601104
0.00710815
0.00805686
0.00888007
0.00959787
0.0102274
0.0107827
0.0112749
0.011712
0.0120993
0.0124402
0.012737
0.0129922
0.0132084
0.0133894
0.0135404
0.0136691
0.0137868
0.0139079
0.000206521
0.00166917
0.00334178
0.00482685
0.00610801
0.00720772
0.00815244
0.00896684
0.00967255
0.0102879
0.0108277
0.0113038
0.0117245
0.0120954
0.0124201
0.0127005
0.0129384
0.0131354
0.013294
0.0134185
0.0135161
0.013598
0.0136796
0.000207532
0.00169653
0.00339491
0.00489553
0.00618341
0.0072829
0.00822217
0.00902736
0.00972126
0.0103231
0.0108486
0.0113098
0.0117156
0.0120716
0.0123814
0.0126465
0.0128679
0.0130462
0.0131828
0.013281
0.0133474
0.0133927
0.0134327
0.000208378
0.00171863
0.00343809
0.00495037
0.00624187
0.00733915
0.00827209
0.00906796
0.00975048
0.0103397
0.0108518
0.0112993
0.0116913
0.0120337
0.0123297
0.0125805
0.0127862
0.0129465
0.0130618
0.0131343
0.0131696
0.0131778
0.0131741
0.000209169
0.00173576
0.00347206
0.00499354
0.00628641
0.00738029
0.00830667
0.00909357
0.00976543
0.0103429
0.0108427
0.0112776
0.0116571
0.0119869
0.0122702
0.0125076
0.0126986
0.0128419
0.0129368
0.0129844
0.0129892
0.0129599
0.012911
0.000209723
0.00175239
0.00350159
0.00502655
0.00631859
0.00740848
0.00832887
0.00910754
0.00976976
0.0103366
0.0108253
0.0112489
0.011617
0.0119354
0.0122069
0.0124321
0.0126094
0.0127369
0.0128126
0.0128364
0.0128115
0.0127452
0.012651
0.000210026
0.00176637
0.00352541
0.00505236
0.00634204
0.00742707
0.00834065
0.00911178
0.00976557
0.0103233
0.0108022
0.0112158
0.0115736
0.0118818
0.0121428
0.0123568
0.0125219
0.0126351
0.0126935
0.0126959
0.0126435
0.0125422
0.0124034
0.000210097
0.00177716
0.00354227
0.0050691
0.00635562
0.00743597
0.00834379
0.00910837
0.00975485
0.0103045
0.010775
0.0111798
0.0115288
0.0118279
0.0120799
0.0122845
0.0124391
0.0125403
0.0125841
0.0125677
0.0124909
0.0123572
0.0121759
0.000209969
0.00178452
0.00355152
0.00507585
0.0063585
0.00743457
0.00833772
0.00909708
0.00973767
0.0102808
0.0107442
0.0111417
0.0114832
0.011775
0.0120195
0.0122165
0.012363
0.0124547
0.0124868
0.0124552
0.0123578
0.0121959
0.0119761
0.000209685
0.00178839
0.0035529
0.00507223
0.00635022
0.00742235
0.00832183
0.00907727
0.00971339
0.0102514
0.0107092
0.0111008
0.0114365
0.0117224
0.0119613
0.0121527
0.0122934
0.0123786
0.0124026
0.01236
0.0122469
0.0120623
0.0118101
0.000209301
0.00178888
0.00354652
0.00505835
0.00633083
0.00739919
0.00829574
0.00904829
0.00968111
0.0102153
0.0106688
0.0110559
0.011387
0.0116688
0.0119039
0.0120919
0.0122294
0.0123112
0.0123309
0.012282
0.0121589
0.0119587
0.0116821
0.000208887
0.00178629
0.0035329
0.00503489
0.00630097
0.00736552
0.00825953
0.00900981
0.00964007
0.0101713
0.0106215
0.0110051
0.011333
0.011612
0.011845
0.0120316
0.0121686
0.0122502
0.0122697
0.0122196
0.0120931
0.011885
0.0115936
0.000208524
0.0017811
0.00351304
0.00500317
0.00626201
0.00732247
0.00821389
0.00896195
0.00958983
0.0101184
0.0105657
0.0109466
0.0112722
0.0115496
0.0117821
0.0119693
0.0121081
0.0121928
0.0122161
0.01217
0.0120464
0.0118388
0.0115429
0.000208313
0.00177403
0.00348845
0.00496528
0.00621617
0.00727202
0.00816028
0.00890553
0.00953048
0.010056
0.0105003
0.0108786
0.0112024
0.0114791
0.0117121
0.0119017
0.0120445
0.0121351
0.012166
0.0121287
0.0120145
0.0118154
0.0115253
0.000208365
0.00176605
0.00346127
0.00492415
0.00616665
0.00721713
0.00810108
0.00884213
0.00946275
0.00998397
0.0104245
0.0107997
0.0111216
0.0113978
0.0116323
0.0118253
0.0119739
0.0120729
0.0121146
0.0120906
0.0119915
0.0118084
0.0115336
0.000208814
0.00175838
0.00343425
0.00488366
0.00611776
0.00716191
0.00803972
0.00877423
0.00938812
0.0099029
0.0103378
0.0107087
0.0110279
0.0113034
0.0115394
0.0117366
0.0118924
0.0120016
0.0120569
0.0120498
0.0119706
0.0118099
0.0115588
0.00020981
0.00175247
0.00341086
0.00484875
0.00607507
0.0071117
0.00798076
0.00870533
0.0093089
0.00981394
0.0102404
0.0106049
0.0109198
0.0111936
0.0114308
0.0116322
0.0117957
0.0119163
0.0119872
0.0119998
0.0119445
0.0118114
0.0115909
0.000211537
0.00175005
0.00339533
0.00482559
0.0060455
0.00707321
0.00792997
0.00863991
0.00922823
0.00971894
0.0101331
0.0104879
0.0107961
0.0110664
0.0113035
0.0115085
0.0116795
0.0118121
0.0118996
0.0119339
0.0119054
0.011804
0.0116194
0.000214215
0.00175315
0.00339285
0.00482173
0.00603754
0.00705454
0.00789426
0.00858339
0.00915002
0.00962047
0.0100172
0.0103581
0.0106563
0.0109204
0.0111552
0.0113622
0.0115397
0.0116838
0.0117882
0.0118452
0.0118454
0.0117788
0.0116344
0.000218133
0.00176423
0.00340995
0.00484665
0.00606153
0.0070652
0.00788154
0.00854189
0.00907878
0.00952164
0.0098947
0.0102165
0.0105002
0.0107545
0.010984
0.0111904
0.0113724
0.0115264
0.0116468
0.0117265
0.0117566
0.0117269
0.0116261
0.000223682
0.00178652
0.00345538
0.00491263
0.00613012
0.00711613
0.00790034
0.00852176
0.00901917
0.00942587
0.00976795
0.0100645
0.0103285
0.0105684
0.0107886
0.0109908
0.0111739
0.011335
0.0114694
0.0115706
0.0116306
0.0116395
0.0115852
0.00023145
0.0018248
0.00354201
0.00503663
0.00625914
0.00721948
0.0079591
0.00852881
0.00897544
0.00933652
0.0096397
0.0099042
0.0101426
0.0103628
0.0105686
0.0107617
0.0109414
0.0111053
0.0112498
0.0113699
0.0114589
0.0115075
0.011503
0.000242398
0.0018874
0.00369105
0.00524375
0.00646876
0.00738805
0.00806497
0.00856714
0.00895053
0.0092563
0.00951273
0.00973839
0.00994493
0.0101392
0.0103247
0.0105027
0.0106728
0.0108335
0.0109825
0.0111168
0.0112323
0.0113218
0.0113716
0.000258237
0.00199123
0.00394183
0.00557381
0.0067847
0.00763363
0.00822166
0.00863748
0.00894504
0.00918674
0.00938955
0.00957015
0.00973857
0.00990048
0.0100587
0.0102143
0.0103672
0.0105165
0.0106619
0.0108032
0.0109412
0.0110738
0.011186
0.000282546
0.00217727
0.00437676
0.00609288
0.00723729
0.00796253
0.00842589
0.00873524
0.0089563
0.00912774
0.00927221
0.00940298
0.00952774
0.00965075
0.00977415
0.00989874
0.0100246
0.0101521
0.0102823
0.0104196
0.0105736
0.0107552
0.0109483
0.000325079
0.00257216
0.00519501
0.00690917
0.00785119
0.00836553
0.00866255
0.00884893
0.00897804
0.0090775
0.00916225
0.00924065
0.00931749
0.00939542
0.00947586
0.00955945
0.00964658
0.00973809
0.00983689
0.00995206
0.0101088
0.0103603
0.0106787
0.000420514
0.0038223
0.00696597
0.00816072
0.0086053
0.00880012
0.00890073
0.00896073
0.00900166
0.00903341
0.00906101
0.00908725
0.00911371
0.00914135
0.00917073
0.0092022
0.00923613
0.00927332
0.00931634
0.00937506
0.00949635
0.00992879
0.0104456
0.000442431
0.000437242
0.000445874
0.00046743
0.00443869
0.0042918
0.00432971
0.00452969
0.0079356
0.0079243
0.00800828
0.00819628
0.0100728
0.010164
0.0102924
0.0104656
0.0114999
0.0116257
0.0117711
0.011939
0.0125273
0.0126614
0.0128105
0.012975
0.0133042
0.0134404
0.01359
0.0137536
0.0139042
0.0140398
0.0141928
0.0143627
0.0142952
0.0144453
0.0146118
0.0147934
0.0145455
0.0146934
0.0148518
0.0150194
0.0146469
0.0147887
0.0149384
0.0150957
0.0146498
0.0147818
0.0149206
0.0150663
0.0145723
0.0146915
0.0148174
0.0149504
0.0144301
0.0145347
0.0146465
0.0147662
0.014238
0.0143266
0.014423
0.0145281
0.014008
0.0140789
0.0141582
0.0142471
0.0137489
0.0138005
0.0138608
0.0139312
0.0134684
0.0134987
0.0135377
0.0135872
0.0131732
0.0131801
0.0131952
0.0132208
0.0128702
0.0128512
0.0128393
0.0128374
0.0125687
0.0125214
0.0124797
0.0124467
0.0122781
0.012201
0.0121273
0.0120608
0.0120079
0.0119007
0.0117943
0.0116926
0.0117677
0.0116315
0.0114929
0.0113557
0.011566
0.0114035
0.0112348
0.0110639
0.0114092
0.0112246
0.01103
0.010829
0.0113006
0.0110997
0.0108851
0.0106596
0.0112397
0.0110294
0.0108019
0.0105594
0.0112223
0.0110096
0.010777
0.010526
0.0112405
0.0110324
0.0108024
0.0105513
0.0112841
0.0110868
0.0108664
0.0106232
0.0113417
0.0111603
0.0109554
0.0107267
0.0114013
0.0112399
0.011055
0.0108461
0.0114516
0.0113132
0.0111519
0.0109668
0.0114818
0.0113689
0.0112337
0.0110753
0.0114824
0.0113969
0.0112901
0.0111606
0.0114447
0.0113887
0.0113123
0.0112138
0.0113618
0.0113379
0.0112941
0.0112287
0.0112306
0.0112421
0.0112339
0.0112038
0.0110567
0.0111081
0.0111384
0.0111451
0.0108648
0.0109606
0.0110302
0.0110721
0.0107134
0.0108487
0.010949
0.011016
0.00174638
0.00377432
0.00582012
0.00747848
0.00868199
0.00951132
0.0100704
0.0104183
0.0105553
0.010466
0.0101563
0.00964536
0.00891873
0.00789576
0.00646747
0.00460176
0.00285685
0.00171774
0.000428996
0.0055909
0.0070391
0.00841459
0.00957236
0.0104708
0.011129
0.0115808
0.0118428
0.0119015
0.0117351
0.0113383
0.0107166
0.00983248
0.00863136
0.00706953
0.00518875
0.00338449
0.00201895
0.000437989
0.00872976
0.00961513
0.0105148
0.0113157
0.0119681
0.0124646
0.0128084
0.0129891
0.0129738
0.0127314
0.0122524
0.0115331
0.0105407
0.00924685
0.00764012
0.0057861
0.00394659
0.00232313
0.000450376
0.0108359
0.0114471
0.0120886
0.0126812
0.0131789
0.0135682
0.0138371
0.0139505
0.0138596
0.013534
0.0129709
0.0121629
0.0111006
0.00976921
0.00816857
0.00634663
0.00448387
0.00260312
0.000463735
0.0122577
0.0127528
0.013272
0.013761
0.0141799
0.0145219
0.0147598
0.0148071
0.0146098
0.0141744
0.0135167
0.0126359
0.0115313
0.0101903
0.00861972
0.00685346
0.00494904
0.00283934
0.000476486
0.0132751
0.0137276
0.0141996
0.0146597
0.0150634
0.0154154
0.015682
0.0156205
0.0152336
0.0146566
0.0139038
0.0129658
0.0118405
0.0105205
0.0089974
0.00726843
0.00531531
0.00302125
0.000487727
0.0140507
0.0144994
0.0149699
0.015484
0.0159211
0.0162584
0.0164767
0.0162997
0.0157083
0.0149921
0.0141588
0.0131826
0.0120531
0.0107576
0.00927376
0.00756676
0.00556957
0.00314332
0.000496959
0.0146758
0.0151518
0.0156334
0.0160904
0.0164577
0.0166781
0.0166956
0.016512
0.0160227
0.0151968
0.0143005
0.0132954
0.012164
0.0108869
0.00942955
0.0077349
0.00570748
0.00320352
0.000503888
0.0151183
0.0155921
0.0160309
0.0163681
0.0166438
0.0167678
0.0167027
0.016517
0.0161119
0.0152843
0.0143476
0.0133142
0.0121721
0.0108996
0.00945489
0.00776804
0.00573006
0.00320276
0.000508275
0.0153239
0.0157665
0.0161769
0.0165115
0.0167529
0.0168351
0.0167395
0.0165453
0.0161539
0.0153219
0.0143346
0.0132592
0.0120875
0.0107996
0.00935173
0.0076701
0.00564305
0.00314417
0.000509844
0.015381
0.0158068
0.0162102
0.0165451
0.0167695
0.0168364
0.0167351
0.0165305
0.0161621
0.015342
0.0142898
0.0131549
0.0119312
0.0106042
0.00913527
0.00745504
0.00545802
0.00303342
0.000508251
0.0153328
0.0157359
0.016134
0.0164743
0.0167026
0.0167772
0.0166872
0.0164829
0.016152
0.0153551
0.0142344
0.0130297
0.0117349
0.0103447
0.00883486
0.00714851
0.0051943
0.0028795
0.000503103
0.0151972
0.0155793
0.0159709
0.0163196
0.0165665
0.0166664
0.0166021
0.0164064
0.0160909
0.0153466
0.0141918
0.0129179
0.01154
0.0100667
0.00849508
0.00678955
0.00488063
0.00269555
0.000494043
0.0149928
0.0153534
0.0157368
0.016096
0.0163704
0.0165083
0.0164811
0.0163027
0.0159887
0.0153155
0.0141847
0.0128563
0.0113959
0.00982871
0.00817585
0.00643177
0.00455647
0.00249984
0.000480915
0.0147326
0.0150691
0.0154422
0.0158115
0.0161165
0.0162988
0.0163167
0.0161644
0.0158565
0.0152976
0.0142474
0.0128775
0.0113501
0.00969317
0.00794767
0.00614209
0.00427286
0.00231736
0.00046415
0.0144261
0.0147334
0.0150929
0.0154692
0.0158035
0.0160309
0.0160981
0.0159842
0.0157029
0.0152813
0.0143683
0.0129919
0.0114309
0.0097098
0.00787811
0.00599352
0.00409095
0.00218142
0.000445484
0.0140807
0.0143532
0.0146933
0.0150714
0.0154306
0.0157004
0.0158187
0.0157548
0.0155182
0.0151773
0.0144994
0.0131918
0.0116361
0.00989548
0.00801
0.00604908
0.00407553
0.00213424
0.000429362
0.0137025
0.0139338
0.0142476
0.0146205
0.0149983
0.0153063
0.0154754
0.0154674
0.0152865
0.0149778
0.0145293
0.0134478
0.0119228
0.0102209
0.00834045
0.00633944
0.00428594
0.00223358
0.000427609
0.013297
0.0134792
0.0137595
0.0141202
0.0145097
0.0148515
0.0150709
0.0151217
0.0149996
0.0147279
0.0143334
0.0136105
0.0122754
0.0106362
0.0088162
0.00683506
0.00472311
0.00250025
0.000447506
0.0128686
0.0129935
0.0132326
0.0135743
0.0139692
0.0143405
0.0146095
0.0147224
0.014664
0.0144452
0.0140778
0.0135111
0.0125676
0.0110851
0.00934056
0.00742069
0.00528804
0.00288753
0.000474036
0.0124279
0.0124858
0.0126724
0.0129854
0.0133788
0.0137749
0.0140914
0.0142678
0.0142789
0.0141262
0.0138145
0.0133269
0.0125794
0.0114282
0.00983124
0.00793724
0.00582627
0.00331122
0.000498111
0.0119873
0.0119675
0.0120879
0.0123584
0.0127405
0.0131548
0.0135152
0.0137541
0.0138375
0.0137588
0.0135203
0.0131127
0.0124926
0.0115522
0.0101729
0.00833492
0.00623701
0.00360347
0.000515198
0.0115609
0.0114529
0.0114921
0.0117028
0.0120584
0.0124817
0.01288
0.0131784
0.0133337
0.0133316
0.0131707
0.0128438
0.0123177
0.0115135
0.0103048
0.0085752
0.00645063
0.00377361
0.000527997
0.0111644
0.0109595
0.0109019
0.0110333
0.0113421
0.0117595
0.0121868
0.0125395
0.0127641
0.012838
0.0127545
0.0125052
0.0120612
0.0113583
0.0103033
0.00878432
0.0067574
0.00406591
0.000543415
0.010814
0.0105072
0.0103392
0.0103701
0.0106081
0.0109973
0.0114402
0.0118386
0.0121279
0.0122754
0.0122683
0.012096
0.0117336
0.0111308
0.0102178
0.00890936
0.0070595
0.00419218
0.000555034
0.0105253
0.0101173
0.00982923
0.00973909
0.00987933
0.0102129
0.0106489
0.0110808
0.0114273
0.0116441
0.011711
0.0116151
0.011335
0.0108311
0.0100455
0.0088955
0.00714422
0.00435972
0.000564044
0.0103105
0.00980901
0.00939843
0.0091711
0.00918569
0.00943155
0.00983077
0.0102756
0.0106681
0.0109475
0.0110838
0.01106
0.0108555
0.010435
0.00974472
0.00869804
0.00701088
0.00432457
0.000519652
0.0101761
0.00959633
0.00907034
0.00869819
0.00856259
0.00868575
0.00901283
0.00944025
0.00986101
0.010193
0.010392
0.0104328
0.0102908
0.00992891
0.00929589
0.00829495
0.00664351
0.00406212
0.000478411
0.010122
0.00948468
0.00886074
0.0083485
0.00804745
0.00801456
0.00822924
0.0086028
0.00902291
0.00939293
0.0096458
0.00974349
0.00965233
0.00932949
0.00872595
0.00778502
0.00616696
0.00372508
0.000444918
0.0101408
0.00947016
0.00877382
0.00813976
0.00767304
0.00745976
0.00752104
0.0077976
0.00818164
0.00856397
0.00885908
0.00900678
0.00896106
0.00867206
0.00809942
0.00722811
0.00561996
0.00331094
0.000403679
0.0102194
0.00954011
0.00880112
0.00807452
0.00745947
0.00705852
0.00693294
0.00706602
0.00737036
0.00773181
0.00804833
0.00823835
0.00823687
0.00798469
0.00743941
0.00660478
0.00496283
0.00276821
0.000365662
0.0103413
0.00967569
0.00892366
0.00813959
0.00740845
0.00683405
0.00650585
0.00645405
0.00662911
0.00692723
0.00723514
0.00745362
0.00749534
0.00728899
0.00677997
0.0059558
0.0043342
0.00240954
0.000351894
0.0104885
0.00985522
0.00911618
0.00830972
0.00750298
0.00678871
0.00626681
0.00600558
0.00600379
0.00618774
0.00644655
0.00666817
0.00674627
0.00659919
0.0061625
0.00542052
0.00425699
0.00253972
0.000364308
0.010644
0.0100573
0.00935179
0.00855355
0.00771228
0.00690323
0.00622048
0.00575203
0.00554088
0.00555862
0.00571653
0.00590069
0.00599091
0.00589301
0.00554437
0.00490951
0.00396325
0.00259439
0.000384632
0.0107927
0.0102625
0.00960563
0.00883947
0.00799935
0.00714236
0.00634712
0.00570202
0.00527711
0.00509002
0.00509184
0.00518476
0.00524487
0.00516372
0.0048703
0.00432006
0.00348328
0.0023337
0.000357235
0.0109222
0.0104551
0.00985709
0.00913971
0.00832798
0.00746384
0.00660811
0.00583689
0.00522645
0.00482569
0.00462992
0.00457564
0.00455202
0.00444418
0.0041678
0.00366936
0.00292839
0.00194444
0.000316119
0.0110231
0.0106235
0.0100907
0.00943249
0.00866746
0.00782687
0.00695621
0.00611518
0.0053715
0.00478477
0.00438257
0.00414197
0.00398383
0.0038019
0.00350852
0.00304301
0.00238956
0.00155779
0.000275116
0.0110891
0.0107604
0.010296
0.00970224
0.00899442
0.00819733
0.00734557
0.00648417
0.00566683
0.00494846
0.00437014
0.00394023
0.00362024
0.00332463
0.00298277
0.00253328
0.00196088
0.0012646
0.000241547
0.0111182
0.0108622
0.0104667
0.00993824
0.00929164
0.00854853
0.00773687
0.00689109
0.00605183
0.00526316
0.00456516
0.0039813
0.00350463
0.00308814
0.00267019
0.00221278
0.00169278
0.00108875
0.000216848
0.0111153
0.0109298
0.0105992
0.0101321
0.00954453
0.00885753
0.00809562
0.00728668
0.00646179
0.0056544
0.00489727
0.00421597
0.00361979
0.00309363
0.00260073
0.00210226
0.00158454
0.00100022
0.000199253
0.0110936
0.0109682
0.010691
0.0102744
0.00973643
0.0090988
0.00838489
0.00761916
0.00682691
0.0060339
0.00526513
0.00454189
0.00387711
0.00327027
0.00270566
0.0021572
0.00159664
0.000965331
0.000186881
0.0110719
0.0109838
0.0107388
0.0103526
0.00984518
0.00923908
0.00855767
0.00782424
0.00706156
0.00629149
0.00553409
0.00480599
0.0041178
0.00347132
0.00285773
0.00225752
0.00163961
0.000944859
0.000180724
)
;

boundaryField
{
    leftWall
    {
        type            nutkWallFunction;
        Cmu             0.09;
        kappa           0.41;
        E               9.8;
        value           nonuniform List<scalar> 
50
(
3.38249e-06
8.91441e-06
1.03631e-05
1.14115e-05
1.27908e-05
1.56211e-05
1.63278e-05
1.68347e-05
1.7265e-05
1.76294e-05
1.78057e-05
1.80155e-05
1.86867e-05
1.4662e-05
1.5905e-05
1.71584e-05
1.79276e-05
1.85399e-05
1.90685e-05
1.95327e-05
1.99287e-05
2.02566e-05
2.05234e-05
2.07388e-05
2.09126e-05
2.10545e-05
2.11745e-05
2.12814e-05
2.13535e-05
2.13899e-05
2.13936e-05
2.13695e-05
2.13239e-05
2.12649e-05
2.12024e-05
2.11485e-05
2.11172e-05
2.1125e-05
2.11906e-05
2.13358e-05
2.15865e-05
2.19741e-05
2.25389e-05
2.3336e-05
2.44466e-05
2.60021e-05
2.82335e-05
3.16124e-05
3.73835e-05
4.97205e-05
)
;
    }
    rightWall
    {
        type            nutkWallFunction;
        Cmu             0.09;
        kappa           0.41;
        E               9.8;
        value           nonuniform List<scalar> 
50
(
1.59473e-05
4.08681e-05
4.3511e-05
4.49183e-05
4.56077e-05
4.58875e-05
4.60324e-05
4.61998e-05
4.68648e-05
4.79581e-05
4.92257e-05
5.04917e-05
5.1644e-05
5.2626e-05
5.34094e-05
5.39758e-05
5.4306e-05
5.43744e-05
5.41489e-05
5.35938e-05
5.26785e-05
5.13944e-05
4.97909e-05
4.804e-05
4.65426e-05
4.62039e-05
4.78086e-05
5.01796e-05
5.24142e-05
5.40083e-05
5.51412e-05
5.74514e-05
5.84414e-05
5.88354e-05
5.45005e-05
5.02547e-05
4.70381e-05
4.33857e-05
3.94778e-05
3.96942e-05
4.05456e-05
4.29217e-05
3.93085e-05
3.42744e-05
2.93157e-05
2.52062e-05
2.20941e-05
1.98341e-05
1.81985e-05
1.73492e-05
)
;
    }
    lowerWall
    {
        type            nutkWallFunction;
        Cmu             0.09;
        kappa           0.41;
        E               9.8;
        value           nonuniform List<scalar> 
62
(
3.38249e-06
5.08621e-06
6.13622e-06
6.79332e-06
7.30344e-06
7.71791e-06
8.05865e-06
8.33565e-06
8.55388e-06
8.71666e-06
8.82869e-06
8.9043e-06
8.96568e-06
9.01356e-06
9.0507e-06
9.06961e-06
9.05046e-06
8.95604e-06
8.73938e-06
8.34348e-06
7.69058e-06
6.60378e-06
5.00651e-06
5.00651e-06
1.42777e-05
1.63774e-05
1.79299e-05
1.92606e-05
2.08142e-05
2.36583e-05
3.01534e-05
3.80648e-05
3.76826e-05
3.84124e-05
4.019e-05
1.11287e-05
3.16665e-05
3.43088e-05
3.43722e-05
3.39405e-05
3.48982e-05
3.74924e-05
4.49498e-05
1.11287e-05
1.57255e-05
2.02512e-05
2.35144e-05
2.49431e-05
2.55537e-05
2.57635e-05
2.56707e-05
2.28729e-05
2.24312e-05
2.18908e-05
2.14495e-05
2.00048e-05
2.01387e-05
2.02879e-05
1.9747e-05
1.87355e-05
1.74822e-05
1.59473e-05
)
;
    }
    atmosphere
    {
        type            calculated;
        value           nonuniform List<scalar> 
46
(
0.009
0.009
0.009
0.009
0.009
0.009
0.009
0.009
0.009
0.009
0.009
0.009
0.009
0.009
0.009
0.009
0.009
0.009
0.009
0.009
0.009
0.00992879
0.0104456
0.0107134
0.0108487
0.010949
0.011016
0.0110719
0.0109838
0.0107388
0.0103526
0.00984518
0.00923908
0.00855767
0.00782424
0.00706156
0.00629149
0.00553409
0.00480599
0.0041178
0.00347132
0.00285773
0.00225752
0.00163961
0.000944859
0.000180724
)
;
    }
    defaultFaces
    {
        type            empty;
    }
}


// ************************************************************************* //
