/*--------------------------------*- C++ -*----------------------------------*\
  =========                 |
  \\      /  F ield         | OpenFOAM: The Open Source CFD Toolbox
   \\    /   O peration     | Website:  https://openfoam.org
    \\  /    A nd           | Version:  13
     \\/     M anipulation  |
\*---------------------------------------------------------------------------*/
FoamFile
{
    format      ascii;
    class       volScalarField;
    location    "0.55";
    object      p;
}
// * * * * * * * * * * * * * * * * * * * * * * * * * * * * * * * * * * * * * //

dimensions      [1 -1 -2 0 0 0 0];

internalField   nonuniform List<scalar> 
2268
(
3901.23
3923.92
3966.65
4011.94
4059.39
4115.31
4184.76
4271.91
4382.06
4521.51
4697.16
4914.16
5176.54
5480.41
5817.27
6176.46
6546.19
6912.41
7260.13
7571.84
7840.41
8019.18
8110.21
3102.26
3112.92
3144.82
3184.8
3230.71
3287.12
3358.13
3447.63
3561.18
3705.19
3886.46
4112.37
4382.56
4694.4
5039.23
5405.71
5781.53
6152.22
6502.99
6815.53
7083.12
7251.07
7329.24
2303.48
2315.41
2332.45
2362.61
2403.51
2457.83
2528.65
2619.36
2735.89
2884.84
3073.14
3307.91
3588.15
3910.91
4265.68
4640.61
5023.36
5398.52
5751.67
6064.39
6326.42
6488.07
6571.83
1498.62
1520.81
1526.74
1547.97
1583.33
1634.2
1702.65
1791.35
1907.22
2057.68
2251.06
2494.76
2786.95
3123.55
3489.91
3873.13
4263.17
4644.09
5002.18
5317.91
5580.7
5745.08
5840.29
899.738
916.323
919.334
932.057
953.015
983.295
1024.75
1084.7
1166.72
1279.18
1436.08
1658.07
1957.43
2317.35
2705.08
3100.45
3499.17
3886.65
4253.42
4577.39
4848.4
5024.75
5135.02
672.308
679.686
684.285
692.527
702.982
716.471
734.029
760.704
796.838
846.321
917.455
1028.4
1211.47
1489.98
1873.56
2306.08
2728.07
3126.89
3502.35
3840.8
4126.08
4324.6
4457.03
613.056
618.898
625.351
634.783
646.492
660.659
677.154
694.885
715.386
739.158
766.891
800.445
849.099
945.471
1148.34
1485.23
1928.2
2357.1
2747.52
3103.03
3401.63
3629.33
3808.78
552.218
556.817
563.226
572.56
584.218
598.265
614.533
632.61
653.102
676.07
701.396
728.358
756.416
788.48
831.85
934.39
1185.86
1567.42
1990.32
2367.37
2658.56
2898.65
3158.29
2828.13
2837.65
2910.2
2996.99
3066.63
3091.43
3058.76
3031.23
3038.1
2902.48
2568.96
2282.69
2148.26
2184.26
2139.46
1653.69
1386.47
1560.5
1701.58
2791.08
2800.33
2873.93
2962.06
3029.03
3062.05
3038.04
2995.96
2873.15
2663.51
2352.97
2062.69
1746.44
1692.7
1627.55
1331.31
1297.15
1480.32
1651.52
2743
2760.82
2832.67
2916.93
2972.06
2965.28
2909.01
2736.31
2361.84
2013.84
1658.91
1277.71
1035.47
1106.26
1181.29
1065.46
1227.97
1373.54
1549.37
2693.91
2721.12
2773.09
2817.4
2750.64
2584.27
2362.81
1936.59
1549.94
1244.45
932.411
743.232
702.444
737.034
850.436
842.522
1080.47
1252.19
1412.56
2656.74
2670.82
2580.48
2365.66
2082.49
1755.55
1408.7
1046.8
884.749
768.674
651.594
636.874
644.879
632.74
652.574
710.296
899.991
1134.16
1270.6
2586.28
2504.35
2042.59
1629.53
1271.42
974.323
813.347
740.593
662.334
612.085
608.604
621.662
613.158
602.185
610.484
655.247
806.131
1030.04
1145.21
2218.8
2017.84
1371.62
985.681
754.06
670.932
677.007
684.321
625.69
582.671
571.538
582.538
579.343
579.396
599.29
636.355
766.985
944.721
1043.61
931.448
1313.11
832.92
607.496
561.775
596.561
620.05
604.882
559.914
530.685
532.879
543.747
548.528
559.905
584.799
629.544
741.513
877.033
960.389
456.879
460.024
466.031
475.013
486.449
500.28
516.362
534.512
554.813
577.154
601.236
626.196
650.532
672.893
694.451
717.952
752.671
872.873
1076.35
1282.83
1490.29
1703.59
1920.71
324.534
327.203
332.846
341.667
353.094
366.901
382.933
400.881
420.646
442.079
464.949
488.769
512.521
534.478
552.23
561.97
561.494
540.325
512.116
509.759
567.193
626.926
636.57
188.39
190.933
196.429
205.553
217.479
231.806
248.24
266.417
285.938
306.718
328.615
351.238
373.719
394.702
411.737
420.946
420.578
411.23
396.281
370.932
332.323
281.697
232.477
61.1394
64.2368
68.5558
76.0514
86.0914
98.6747
113.966
131.853
151.329
171.476
192.322
213.539
234.592
254.281
271.056
281.92
285.011
279.588
269.163
256.707
244.653
229.261
209.532
8.48094
9.16039
10.1357
12.2215
15.3986
19.9144
26.1403
34.348
44.0468
56.0936
69.6152
84.6149
101.121
118.025
133.287
144.358
150.835
149.396
142.43
132.574
122.116
110.153
95.3807
5.27281
5.28997
5.27463
5.26145
5.23871
5.21046
5.18134
5.15699
5.381
8.12893
12.0941
17.1483
22.5582
26.7986
29.3715
32.1775
35.5678
37.8882
35.0695
30.6951
27.2833
24.6083
23.4797
5.11698
5.11307
5.10929
5.1036
5.09616
5.08848
5.08394
5.08887
5.10841
5.0284
4.84686
4.70255
4.54558
4.28625
4.07996
4.16649
5.39329
6.67035
6.12469
6.21204
7.89028
9.33755
9.26741
4.96531
4.96931
4.96745
4.96233
4.95571
4.94845
4.94253
4.93929
4.93813
4.92444
4.90698
4.90338
4.90425
4.79823
4.46875
4.19874
4.18624
4.19159
4.13559
4.1164
4.17471
4.24878
4.24704
4.81332
4.81642
4.81733
4.81491
4.81021
4.80425
4.79792
4.79168
4.78127
4.76372
4.74068
4.72335
4.72283
4.74259
4.74673
4.73836
4.74471
4.75028
4.75025
4.74838
4.75009
4.7548
4.76698
4.66216
4.66491
4.66671
4.66596
4.663
4.6585
4.6528
4.64574
4.63548
4.61864
4.59785
4.5784
4.56509
4.55566
4.53954
4.52146
4.51425
4.51364
4.515
4.52199
4.53744
4.56134
4.59185
4.51173
4.51424
4.51637
4.51658
4.51481
4.51145
4.50665
4.50017
4.49104
4.47817
4.46288
4.44752
4.43322
4.41826
4.39876
4.38138
4.37306
4.37163
4.37463
4.38401
4.40285
4.43095
4.46973
4.36211
4.36429
4.36642
4.36709
4.36606
4.36352
4.35956
4.35404
4.34652
4.33669
4.32531
4.3136
4.30214
4.29018
4.27702
4.26603
4.2606
4.26052
4.26528
4.27624
4.29513
4.32296
4.36151
4.21335
4.21515
4.2171
4.21793
4.21732
4.21537
4.21213
4.20754
4.20143
4.19377
4.18505
4.17599
4.16709
4.15834
4.14974
4.14296
4.13987
4.14106
4.14695
4.15853
4.17707
4.20363
4.23956
4.06547
4.06688
4.06854
4.06934
4.06895
4.06741
4.06476
4.06098
4.05604
4.05001
4.04323
4.03617
4.02925
4.02268
4.01672
4.0124
4.01089
4.01294
4.01921
4.03056
4.04793
4.07228
4.10456
3.91844
3.91946
3.92076
3.92141
3.92111
3.91984
3.91764
3.91452
3.9105
3.90571
3.90038
3.89485
3.88945
3.88446
3.88023
3.87746
3.87696
3.87941
3.88548
3.89588
3.91137
3.93269
3.96056
3.77219
3.77284
3.77375
3.77418
3.77386
3.77275
3.77088
3.76826
3.76496
3.76107
3.75681
3.75241
3.74815
3.74429
3.7412
3.73936
3.73937
3.7418
3.74721
3.75621
3.76935
3.78721
3.8103
3.62666
3.62695
3.62746
3.62763
3.62722
3.62618
3.62452
3.62228
3.6195
3.61628
3.61277
3.60918
3.60572
3.60264
3.60022
3.59886
3.59898
3.60105
3.60551
3.61282
3.62339
3.63764
3.65592
3.48178
3.48171
3.48183
3.48171
3.48116
3.48013
3.47861
3.47662
3.47421
3.47146
3.46849
3.46545
3.46252
3.45991
3.45786
3.45665
3.4566
3.45807
3.46138
3.46688
3.47484
3.48555
3.49921
3.33751
3.33699
3.33679
3.33639
3.33568
3.33461
3.33316
3.33133
3.32917
3.32674
3.32412
3.32145
3.31886
3.31651
3.31458
3.3133
3.3129
3.31362
3.3157
3.31938
3.32482
3.33219
3.34159
3.19365
3.19288
3.1923
3.19162
3.19073
3.18959
3.18815
3.18643
3.18443
3.1822
3.17982
3.17738
3.17497
3.17272
3.17077
3.16928
3.16841
3.16833
3.16919
3.17113
3.17422
3.17858
3.18422
3.05022
3.04919
3.04828
3.04734
3.04629
3.04506
3.04361
3.04193
3.04003
3.03793
3.0357
3.03338
3.03105
3.02881
3.02674
3.02497
3.02358
3.0227
3.02242
3.02278
3.0238
3.02552
3.02792
2.90714
2.90588
2.90468
2.9035
2.9023
2.90098
2.8995
2.89784
2.89599
2.89398
2.89183
2.88957
2.88726
2.88497
2.88274
2.88066
2.87877
2.87715
2.87584
2.87484
2.8741
2.87358
2.87323
2.76435
2.7629
2.76145
2.76007
2.75872
2.75732
2.7558
2.75415
2.75234
2.75038
2.74827
2.74604
2.74373
2.74135
2.73896
2.73658
2.73425
2.73198
2.72979
2.72763
2.72541
2.72305
2.72044
2.6218
2.62019
2.61854
2.61699
2.61552
2.61405
2.6125
2.61085
2.60906
2.60714
2.60507
2.60286
2.60052
2.59808
2.59553
2.5929
2.59018
2.58737
2.58444
2.58133
2.57792
2.57409
2.56972
2.47943
2.4777
2.4759
2.47422
2.47266
2.47113
2.46957
2.46792
2.46616
2.46427
2.46224
2.46005
2.45771
2.4552
2.45253
2.44969
2.44667
2.44342
2.43991
2.43606
2.43172
2.42677
2.42108
2.3372
2.33539
2.33349
2.33172
2.3301
2.32854
2.32697
2.32534
2.32362
2.32177
2.31979
2.31763
2.3153
2.31276
2.31001
2.30702
2.30377
2.3002
2.29625
2.29184
2.28682
2.28104
2.27443
2.19509
2.19324
2.19127
2.18945
2.1878
2.18623
2.18467
2.18308
2.18141
2.17963
2.1777
2.1756
2.1733
2.17077
2.16799
2.16492
2.16151
2.15772
2.15348
2.14868
2.14318
2.13685
2.12963
2.05305
2.0512
2.04922
2.04738
2.04573
2.04417
2.04265
2.04111
2.03951
2.03781
2.03597
2.03395
2.03171
2.02923
2.02646
2.02336
2.01989
2.01598
2.01155
2.00652
2.00074
1.99407
1.98653
1.91107
1.90925
1.9073
1.90548
1.90385
1.90234
1.90087
1.8994
1.89789
1.89629
1.89456
1.89264
1.89051
1.88811
1.88541
1.88235
1.87888
1.87494
1.87045
1.86532
1.85941
1.8526
1.84494
1.76913
1.76738
1.76548
1.76372
1.76214
1.76069
1.7593
1.75793
1.75653
1.75505
1.75345
1.75167
1.74966
1.74739
1.7448
1.74184
1.73845
1.73456
1.73011
1.725
1.71911
1.71231
1.70471
1.62723
1.62556
1.62376
1.62207
1.62057
1.61919
1.6179
1.61665
1.61538
1.61405
1.6126
1.61098
1.60914
1.60703
1.6046
1.60179
1.59855
1.5948
1.59048
1.5855
1.57974
1.57311
1.5657
1.48537
1.48379
1.4821
1.4805
1.4791
1.47783
1.47666
1.47554
1.47442
1.47325
1.47198
1.47054
1.46889
1.46698
1.46476
1.46216
1.45912
1.45559
1.4515
1.44675
1.44124
1.43488
1.4278
1.34354
1.34205
1.34049
1.339
1.33771
1.33656
1.33553
1.33456
1.33361
1.33262
1.33153
1.3303
1.32887
1.3272
1.32521
1.32287
1.32011
1.31687
1.31308
1.30865
1.30349
1.29752
1.29086
1.20174
1.20033
1.1989
1.19754
1.19637
1.19536
1.19448
1.19368
1.19291
1.19211
1.19123
1.19022
1.18903
1.18761
1.18591
1.18387
1.18144
1.17856
1.17514
1.17113
1.16641
1.16091
1.15475
1.05997
1.05861
1.05732
1.05609
1.05506
1.05421
1.05349
1.05287
1.05228
1.05167
1.051
1.05022
1.04929
1.04815
1.04676
1.04507
1.04303
1.04056
1.03761
1.0341
1.02991
1.02496
1.01938
0.918263
0.91685
0.915719
0.914629
0.91375
0.913063
0.91252
0.912069
0.911662
0.911251
0.910794
0.91025
0.909581
0.908744
0.907697
0.906392
0.904778
0.902798
0.900386
0.89746
0.893904
0.889612
0.884665
0.776645
0.774994
0.774044
0.773112
0.772406
0.771895
0.771526
0.771247
0.771015
0.770791
0.77054
0.770232
0.769832
0.769305
0.768616
0.767724
0.766585
0.765152
0.763363
0.761134
0.758335
0.754801
0.75053
0.635137
0.632955
0.632239
0.631496
0.630984
0.630659
0.630458
0.630338
0.630266
0.630216
0.630163
0.630083
0.62995
0.629737
0.629414
0.628952
0.628321
0.627489
0.626412
0.625017
0.623143
0.620489
0.616925
0.493571
0.490669
0.490296
0.489793
0.489492
0.489345
0.489294
0.489311
0.48938
0.489488
0.489618
0.489755
0.489878
0.489966
0.490001
0.489966
0.489851
0.489653
0.489367
0.488962
0.488269
0.486645
0.483717
0.351455
0.347822
0.348171
0.34817
0.348111
0.348105
0.348166
0.34829
0.348475
0.348718
0.349012
0.349342
0.349693
0.350049
0.350401
0.350745
0.351098
0.351502
0.352024
0.35284
0.354097
0.354001
0.350857
0.208794
0.202101
0.204824
0.206384
0.206731
0.20684
0.206985
0.207197
0.207484
0.207849
0.208286
0.208784
0.209328
0.209906
0.210507
0.211139
0.211841
0.212714
0.213995
0.216638
0.222965
0.226034
0.219511
0.0726542
0.0483871
0.0575372
0.0615036
0.062412
0.0627756
0.0630886
0.0634442
0.0638802
0.0644097
0.0650311
0.0657348
0.0665071
0.0673327
0.0681997
0.0691115
0.0701151
0.0713717
0.0733595
0.078226
0.0922185
0.0993062
0.100282
2110.73
2099.03
1999.63
1703.61
587.358
550.688
511.674
413.23
209.894
202.137
201.973
206.052
192.144
179.937
168.526
156.832
76.0805
65.0336
58.3085
57.7925
21.7205
22.4742
21.7882
21.0839
8.64399
6.41303
4.18043
4.68051
4.49793
4.85731
4.96257
4.9448
4.81554
4.83763
4.85166
4.86579
4.61454
4.64161
4.68151
4.72876
4.51268
4.54599
4.58166
4.62127
4.40421
4.43584
4.4688
4.50412
4.27826
4.30729
4.33753
4.36944
4.13874
4.16454
4.19144
4.21968
3.98982
4.01199
4.03517
4.05949
3.83452
3.85298
3.87239
3.8927
3.67525
3.69013
3.70582
3.7222
3.51394
3.52546
3.53765
3.55025
3.35213
3.36056
3.36946
3.37857
3.1911
3.19678
3.20275
3.20868
3.0317
3.03503
3.03845
3.04167
2.87436
2.87573
2.87705
2.87804
2.71944
2.71921
2.71882
2.71803
2.56707
2.56561
2.5639
2.56172
2.41721
2.41481
2.41211
2.40891
2.26967
2.26662
2.26323
2.25931
2.1243
2.12081
2.11695
2.11257
1.98087
1.97712
1.973
1.96833
1.83914
1.83527
1.83102
1.82624
1.6989
1.69501
1.69078
1.68599
1.56001
1.55619
1.55202
1.54734
1.42233
1.41864
1.41462
1.41007
1.28568
1.28217
1.27833
1.27398
1.14992
1.14663
1.14302
1.13891
1.01495
1.0119
1.00854
1.00472
0.880668
0.877896
0.874826
0.871295
0.74698
0.744495
0.741724
0.738526
0.613824
0.611629
0.609187
0.606341
0.481096
0.479203
0.477085
0.474605
0.348509
0.346914
0.345189
0.343181
0.216448
0.21473
0.213635
0.212912
0.0977016
0.0956293
0.0933929
0.0901914
596.341
643.762
534.545
487.375
497.901
502.616
498.662
482.625
462.931
461.739
476.567
491.089
506.661
532.753
567.229
615.612
696.985
787.499
848.628
224.578
289.879
348.247
372.445
365.711
358.55
354.655
355.957
363.593
381.704
403.21
423.452
448.297
483.353
526.451
573.038
633.648
690.67
727.493
214.9
233.527
246.063
248.032
244.316
247.796
257.846
271.704
289.347
309.966
333.146
358.304
387.953
425.349
468.998
512.741
563.788
602.711
625.803
139.68
141.9
146.492
150.105
155.175
166.488
183.149
202.131
223.238
244.426
268.148
296.001
328.356
365.946
407.712
449.902
492.321
521.725
537.638
64.1511
72.2964
76.6593
77.9962
77.369
77.8373
85.4884
108.677
144.985
177.964
206.199
237.158
272.026
310.177
350.498
390.313
426.254
449.396
461.228
26.384
34.1839
31.843
24.6587
18.673
15.5638
15.6525
25.2505
57.4803
99.6321
143.915
182.983
221.28
260.392
299.585
336.405
367.36
386.042
395.038
7.32498
14.423
8.74477
6.58298
6.73432
6.99654
7.6028
8.99962
16.2278
36.3832
89.4024
137.261
178.417
217.671
255.343
289.289
316.245
331.457
338.139
4.93683
5.24253
5.70168
5.72979
5.81014
6.01417
6.33492
6.69603
7.49799
12.2199
49.6736
101.185
143.847
182.474
218.353
249.63
273.229
285.457
289.962
4.89744
5.0208
5.23639
5.5091
5.73204
5.96753
6.21283
6.34354
6.10949
7.13353
24.1069
72.6091
116.709
154.533
188.606
217.495
238.256
247.803
250.075
4.80346
4.93515
5.11284
5.33473
5.53874
5.74663
5.93995
6.02043
5.88366
6.41088
11.1094
49.2855
95.7406
133.072
165.476
192.358
210.835
218.061
218.005
4.69377
4.81171
4.96503
5.1372
5.30822
5.48117
5.63796
5.73399
5.74444
5.86708
6.46464
31.5235
79.5849
116.908
147.882
173.215
190.053
195.471
193.09
4.56505
4.66727
4.79348
4.9336
5.07903
5.22435
5.35375
5.44628
5.49265
5.38227
5.67878
20.0009
66.655
104.374
134.265
158.637
174.593
178.898
174.344
4.42303
4.50862
4.61146
4.72678
4.84833
4.96994
5.07617
5.14617
5.17575
5.06209
5.52691
13.9815
56.1115
93.4439
122.706
146.812
162.749
166.799
160.397
4.26632
4.33762
4.42122
4.51458
4.6131
4.71133
4.79586
4.84471
4.84717
4.74859
5.26108
10.8291
46.7452
82.2147
111.134
135.653
152.482
157.251
149.505
4.09908
4.1572
4.22388
4.29716
4.37337
4.44777
4.5092
4.53096
4.50783
4.44775
4.68036
6.92643
35.4692
68.9147
97.5483
122.978
141.555
148.05
139.661
3.92518
3.9708
4.02171
4.07627
4.13109
4.18132
4.21768
4.21845
4.18509
4.14011
3.76448
3.94967
22.4282
52.3305
80.4198
106.836
127.777
136.926
128.866
3.74775
3.78166
3.81789
3.85497
3.88963
3.91676
3.92842
3.90669
3.8509
3.7853
3.37701
3.27706
10.3883
31.8765
58.9167
85.8746
109.247
121.734
115.507
3.56921
3.59244
3.61554
3.63692
3.65347
3.6601
3.64967
3.60816
3.51305
3.38969
3.1293
2.8251
3.63938
13.9784
33.1742
59.322
83.5335
97.9557
93.5681
3.39149
3.4053
3.41723
3.42541
3.42672
3.41685
3.38923
3.33323
3.23106
3.06776
2.84062
2.58967
2.47906
3.67219
11.1542
29.8384
51.6134
65.9678
64.6209
3.21625
3.22203
3.22465
3.22225
3.21187
3.18984
3.15082
3.08708
2.98815
2.84374
2.64093
2.42424
2.30073
2.24546
2.46226
10.116
23.0971
36.1963
39.7985
3.04468
3.04371
3.03874
3.02816
3.00956
2.97949
2.93441
2.86906
2.77808
2.6582
2.50759
2.33378
2.18533
2.08952
2.03107
1.91114
6.46447
17.4344
23.9086
2.87728
2.8709
2.86005
2.84344
2.81935
2.78477
2.73769
2.67515
2.59493
2.49777
2.38769
2.27166
2.15893
2.08059
2.04566
2.08273
2.59474
5.74076
15.9384
2.71432
2.70379
2.68863
2.66783
2.6402
2.60397
2.55741
2.49992
2.43121
2.35358
2.27264
2.19623
2.13158
2.08381
2.06902
2.06804
2.37059
3.36622
12.5278
2.55574
2.54224
2.52411
2.50065
2.47111
2.43483
2.39038
2.33855
2.2805
2.21907
2.15952
2.10848
2.07079
2.04784
2.03191
1.998
2.00114
2.23763
2.1227
2.40134
2.38585
2.36589
2.34102
2.31083
2.27515
2.23383
2.18734
2.13827
2.08974
2.04645
2.01362
1.99458
1.98911
1.98785
1.97224
1.95531
2.03373
3.99425
2.25068
2.23406
2.21321
2.18789
2.15791
2.12341
2.08509
2.04356
2.00148
1.96252
1.93116
1.91208
1.90822
1.91939
1.93715
1.95497
1.9954
1.8679
3.59322
2.10332
2.08626
2.0653
2.04025
2.01109
1.97814
1.94229
1.90495
1.86788
1.83518
1.81134
1.80095
1.80756
1.83296
1.87286
1.91897
2.0547
2.00046
5.636
1.9588
1.94185
1.92131
1.89708
1.86919
1.83796
1.80428
1.76968
1.73601
1.70635
1.68531
1.67729
1.68631
1.71541
1.76475
1.8231
2.07854
1.83886
5.29709
1.81671
1.80022
1.78051
1.75748
1.73114
1.70174
1.66995
1.63707
1.60496
1.57587
1.55328
1.54133
1.54304
1.55969
1.59307
1.64471
1.94699
1.32428
3.47223
1.67665
1.66088
1.64224
1.62063
1.59604
1.56854
1.53852
1.50683
1.47489
1.44452
1.41763
1.39685
1.38372
1.37654
1.38049
1.4303
1.52698
0.0935645
4.61059
1.53833
1.5234
1.50595
1.4859
1.46314
1.4376
1.40936
1.37878
1.34661
1.31388
1.28157
1.24979
1.21805
1.18357
1.15891
1.21257
0.952475
0.775396
14.1751
1.40146
1.38745
1.37126
1.35277
1.33185
1.3083
1.28193
1.25267
1.22061
1.18586
1.1481
1.10584
1.05568
0.994251
0.9283
0.854995
0.518599
1.06373
0.0473088
1.26584
1.25279
1.23785
1.22089
1.20175
1.18016
1.15579
1.12822
1.09701
1.06149
1.02014
0.97023
0.905814
0.816295
0.688353
0.482082
0.212951
0.217729
0.239227
1.13128
1.11924
1.10553
1.09003
1.07259
1.05291
1.03059
1.00507
0.975626
0.94112
0.899466
0.847602
0.780196
0.688889
0.564322
0.405615
0.249207
0.240447
0.27435
0.997649
0.986646
0.974163
0.960082
0.94426
0.926428
0.906186
0.882983
0.856048
0.824194
0.785395
0.736973
0.675878
0.599059
0.504664
0.40082
0.315315
0.298668
0.330353
0.864818
0.854887
0.84364
0.830966
0.816739
0.800722
0.782575
0.761835
0.737861
0.70969
0.675737
0.633805
0.583022
0.523046
0.455228
0.387498
0.336985
0.328077
0.351395
0.732696
0.723873
0.713885
0.702642
0.690034
0.675862
0.659856
0.641672
0.620863
0.59678
0.568392
0.534242
0.494282
0.44906
0.40134
0.356891
0.326238
0.320915
0.336704
0.601164
0.593477
0.584795
0.575041
0.564127
0.551891
0.538129
0.522609
0.505064
0.485142
0.462312
0.435854
0.405654
0.372781
0.340031
0.310826
0.291142
0.285712
0.29628
0.470082
0.463563
0.456247
0.448068
0.438957
0.428792
0.41743
0.404729
0.390554
0.374765
0.357176
0.337566
0.315946
0.293127
0.271099
0.252212
0.239346
0.235267
0.241712
0.339752
0.334536
0.328558
0.321929
0.314632
0.30659
0.297719
0.287945
0.277226
0.265543
0.252895
0.239315
0.224976
0.210348
0.196434
0.184764
0.176705
0.172996
0.172149
0.211975
0.207908
0.202881
0.197434
0.191624
0.185429
0.178826
0.171805
0.16439
0.156632
0.14861
0.140447
0.132349
0.124613
0.117624
0.111894
0.108071
0.106165
0.105831
0.0838437
0.0791774
0.0753489
0.07156
0.0677444
0.063888
0.0599835
0.0560479
0.0521228
0.0482864
0.0446499
0.0413621
0.0386116
0.0365955
0.0354222
0.0350055
0.0350926
0.0350508
0.0340524
)
;

boundaryField
{
    leftWall
    {
        type            calculated;
        value           nonuniform List<scalar> 
50
(
3901.23
3102.26
2303.48
1498.62
899.738
672.308
613.056
552.218
456.879
324.534
188.39
61.1394
8.48094
5.27281
5.11698
4.96531
4.81332
4.66216
4.51173
4.36211
4.21335
4.06547
3.91844
3.77219
3.62666
3.48178
3.33751
3.19365
3.05022
2.90714
2.76435
2.6218
2.47943
2.3372
2.19509
2.05305
1.91107
1.76913
1.62723
1.48537
1.34354
1.20174
1.05997
0.918263
0.776645
0.635137
0.493571
0.351455
0.208794
0.0726542
)
;
    }
    rightWall
    {
        type            calculated;
        value           nonuniform List<scalar> 
50
(
1701.58
1651.52
1549.37
1412.56
1270.6
1145.21
1043.61
960.389
848.628
727.493
625.803
537.638
461.228
395.038
338.139
289.962
250.075
218.005
193.09
174.344
160.397
149.505
139.661
128.866
115.507
93.5681
64.6209
39.7985
23.9086
15.9384
12.5278
2.1227
3.99425
3.59322
5.636
5.29709
3.47223
4.61059
14.1751
0.0473088
0.239227
0.27435
0.330353
0.351395
0.336704
0.29628
0.241712
0.172149
0.105831
0.0340524
)
;
    }
    lowerWall
    {
        type            calculated;
        value           nonuniform List<scalar> 
62
(
4299.38
4322.07
4364.8
4410.09
4457.54
4513.46
4582.91
4670.06
4780.21
4919.66
5095.31
5312.31
5574.69
5878.56
6215.42
6574.61
6944.34
7310.56
7658.27
7969.99
8238.56
8417.31
8508.14
8110.21
7329.24
6571.83
5840.29
5135.02
4457.03
3808.78
3158.29
2956.84
2944.76
2843.63
2542.37
2828.13
2791.08
2743
2693.91
2656.74
2586.28
2218.8
931.448
2842.84
2852.36
2924.83
3011.25
3080.21
3103.05
3067.55
3035.64
3057.19
2922.38
2587.96
2301.59
2221.72
2320.57
2271.92
1704.23
1414.36
1578.95
1714.37
)
;
    }
    atmosphere
    {
        type            calculated;
        value           nonuniform List<scalar> 
46
(
-0.00313905
-0.0127575
-0.0125664
-0.0122402
-0.0119464
-0.0116368
-0.0112703
-0.0108186
-0.0102661
-0.00960758
-0.00884569
-0.00798977
-0.00705455
-0.00605945
-0.00502806
-0.00398781
-0.00297015
-0.00201237
-0.00116361
-0.000497288
-0.000119969
0
0
0
0
0
0
0
0
0
0
0
0
0
0
0
0
0
0
0
0
0
0
0
0
0
)
;
    }
    defaultFaces
    {
        type            empty;
    }
}


// ************************************************************************* //
