/*--------------------------------*- C++ -*----------------------------------*\
  =========                 |
  \\      /  F ield         | OpenFOAM: The Open Source CFD Toolbox
   \\    /   O peration     | Website:  https://openfoam.org
    \\  /    A nd           | Version:  13
     \\/     M anipulation  |
\*---------------------------------------------------------------------------*/
FoamFile
{
    format      ascii;
    class       volScalarField;
    location    "0.55";
    object      p_rgh;
}
// * * * * * * * * * * * * * * * * * * * * * * * * * * * * * * * * * * * * * //

dimensions      [1 -1 -2 0 0 0 0];

internalField   nonuniform List<scalar> 
2268
(
4299.38
4322.07
4364.8
4410.09
4457.54
4513.46
4582.91
4670.06
4780.21
4919.66
5095.31
5312.31
5574.69
5878.56
6215.42
6574.61
6944.34
7310.56
7658.27
7969.99
8238.56
8417.31
8508.14
4296.71
4307.37
4339.27
4379.25
4425.16
4481.57
4552.58
4642.08
4755.62
4899.64
5080.91
5306.82
5577.01
5888.85
6233.68
6600.16
6975.98
7346.67
7697.44
8009.98
8277.57
8445.51
8523.03
4294.22
4306.16
4323.19
4353.36
4394.26
4448.58
4519.4
4610.11
4726.64
4875.59
5063.89
5298.66
5578.9
5901.66
6256.43
6631.36
7014.11
7389.27
7742.42
8055.13
8317.17
8478.81
8561.49
4275.94
4299.21
4306.03
4330.14
4368.94
4421.25
4489.7
4578.4
4694.27
4844.73
5038.11
5281.81
5574
5910.59
6276.96
6660.17
7050.22
7431.14
7789.23
8104.96
8367.75
8532.12
8626.59
2696.34
2776.47
2800.31
2879.57
3021.48
3217.61
3466.68
3718.02
4018.44
4375.38
4776.78
5210.09
5540.78
5900.69
6288.43
6683.8
7082.52
7470
7836.77
8160.74
8431.75
8608.1
8718.37
996.031
1003.41
1008.01
1016.25
1026.71
1040.19
1057.75
1166.84
1339.92
1613.22
2065.01
2847.82
4090.99
5422.92
6253.2
6685.73
7107.71
7506.54
7882
8220.45
8505.73
8704.24
8836.68
995.638
1001.48
1007.93
1017.36
1029.07
1043.24
1059.74
1077.47
1097.97
1121.74
1149.47
1183.03
1345.58
2060.28
3951.46
6142.76
7104.14
7533.05
7923.47
8278.98
8577.58
8805.27
8984.73
993.658
998.257
1004.67
1014
1025.66
1039.71
1055.97
1074.05
1094.54
1117.51
1142.84
1169.8
1197.86
1229.92
1296.39
2482.93
5695.31
7539.67
7962.57
8339.61
8630.81
8870.9
9130.53
2842.84
2852.36
2924.83
3011.25
3080.21
3103.05
3067.55
3035.64
3057.19
2922.38
2587.96
2301.59
2221.72
2320.57
2271.92
1704.23
1414.36
1578.95
1714.37
2835.22
2844.47
2910.65
2988.6
3051.78
3074.29
3052.3
3035.08
3097.59
3040.68
2718.68
2540.49
2484.36
2458.97
2390.2
1896.56
1385.06
1528.53
1691.8
2816.58
2834.39
2898.31
2967.76
3054.37
3186.47
3219.04
3391.47
3484.49
3441.35
3051.18
2593.95
2233.54
2352.57
2465.27
2025.27
1385.18
1437.75
1621.44
2796.91
2824.12
2874.75
3081.16
3524.91
3795.05
3781.9
3864.71
3566.16
3227.65
2605.15
1573.35
988.183
1179.13
1980.85
1631.32
1308.24
1337.88
1514.61
2789.17
2802.63
3680.07
4866.02
5247.95
4830.05
4304.14
3298.04
3089.46
2673.46
1128.55
769.44
777.324
765.172
849.273
1095.09
1077.2
1257.83
1402.13
2748.14
4187.92
6018.57
5730.37
5359.08
4175.23
2502.61
1214.83
1071.35
954.113
858.94
788.248
775.036
763.922
791.021
853.584
930.209
1191.6
1295.71
4841.22
6678.27
6222.48
5797.92
4088.62
1671.79
1107.29
1104.95
1021.52
931.729
781.578
780.334
770.665
766.965
785.368
785.708
954.783
1136.01
1210.76
6543.22
6923.82
5534
3302.34
1200.25
1034
1081.93
1062.81
999.205
898.58
763.071
766.015
769.282
759.98
749.062
841.626
962.236
1097.77
1153.39
990.346
993.491
999.498
1008.48
1019.92
1033.75
1049.83
1067.98
1088.28
1110.62
1134.7
1159.66
1184
1206.36
1227.92
1251.42
1527.63
3482.09
6217.43
8319.44
8706.59
8919.53
9136.64
983.195
985.864
991.508
1000.33
1011.76
1025.56
1041.59
1059.54
1079.31
1100.74
1123.61
1147.43
1171.18
1193.14
1210.89
1220.63
1220.16
1198.99
1333.01
2322.85
3975.48
5911.06
6925.59
972.246
974.789
980.285
989.409
1001.33
1015.66
1032.1
1050.27
1069.79
1090.57
1112.47
1135.09
1157.58
1178.56
1195.59
1204.8
1204.43
1195.09
1180.14
1154.79
1116.18
1065.55
1016.33
739.755
753.002
787.235
837.008
893.294
949.142
998.752
1036.7
1060.38
1080.53
1101.37
1122.59
1143.64
1163.33
1180.11
1190.97
1194.06
1188.64
1178.21
1165.76
1153.7
1138.31
1118.56
59.8385
69.2384
86.6542
123.701
180.819
262.46
375.512
528.238
715.8
871.249
1004.73
1095.8
1134.94
1152.27
1167.53
1178.6
1185.08
1183.64
1176.67
1166.82
1156.36
1144.4
1129.63
6.43225
6.44941
6.43407
6.42089
6.39815
6.3699
6.34078
6.31643
10.4339
83.4667
204.787
397.115
666.084
927.279
1084
1157.58
1183.49
1194.56
1192.57
1188.3
1184.69
1177.66
1150.06
6.40162
6.3977
6.39392
6.38824
6.38079
6.37311
6.36857
6.3735
6.39304
6.31303
6.13149
5.98719
5.83022
21.9286
104.515
242.016
442.155
628.641
655.96
654.381
651.331
594.861
446.073
6.37514
6.37914
6.37728
6.37216
6.36554
6.35828
6.35236
6.34911
6.34796
6.33427
6.31681
6.31321
6.31408
6.20845
5.88326
5.62265
5.62575
5.65982
5.62296
5.60506
5.65014
5.69164
5.67356
6.34834
6.35144
6.35235
6.34993
6.34523
6.33927
6.33294
6.32671
6.31629
6.29874
6.2757
6.25837
6.25785
6.27762
6.28177
6.27339
6.27974
6.28532
6.35137
6.36965
6.36542
6.32404
6.302
6.32238
6.32513
6.32693
6.32618
6.32322
6.31871
6.31301
6.30595
6.2957
6.27886
6.25807
6.23861
6.2253
6.21589
6.1998
6.18173
6.1745
6.17388
6.17522
6.21822
6.2114
6.22162
6.25207
6.29715
6.29965
6.30179
6.30199
6.30023
6.29687
6.29206
6.28558
6.27645
6.26358
6.2483
6.23293
6.21863
6.20369
6.18424
6.16686
6.15853
6.15706
6.16004
6.16943
6.18827
6.21636
6.25514
6.27271
6.27489
6.27703
6.2777
6.27667
6.27413
6.27017
6.26465
6.25713
6.24729
6.23592
6.22421
6.21274
6.20079
6.18764
6.17667
6.17124
6.17115
6.17589
6.18685
6.20573
6.23356
6.27212
6.24915
6.25095
6.2529
6.25373
6.25312
6.25117
6.24793
6.24335
6.23724
6.22957
6.22085
6.21179
6.2029
6.19414
6.18554
6.17876
6.17567
6.17687
6.18275
6.19433
6.21287
6.23943
6.27536
6.22647
6.22787
6.22953
6.23033
6.22995
6.22841
6.22575
6.22197
6.21703
6.211
6.20422
6.19717
6.19025
6.18367
6.17772
6.1734
6.17189
6.17394
6.18021
6.19156
6.20893
6.23327
6.26556
6.20463
6.20565
6.20695
6.20761
6.2073
6.20603
6.20383
6.20071
6.19669
6.1919
6.18657
6.18104
6.17564
6.17065
6.16642
6.16365
6.16315
6.1656
6.17167
6.18207
6.19756
6.21889
6.24675
6.18358
6.18422
6.18514
6.18557
6.18524
6.18414
6.18226
6.17965
6.17634
6.17246
6.16819
6.16379
6.15953
6.15568
6.15258
6.15074
6.15075
6.15318
6.1586
6.16759
6.18073
6.1986
6.22169
6.16324
6.16353
6.16404
6.16421
6.16379
6.16276
6.1611
6.15886
6.15608
6.15286
6.14935
6.14576
6.1423
6.13921
6.1368
6.13544
6.13556
6.13763
6.14209
6.1494
6.15996
6.17422
6.1925
6.14355
6.14348
6.14361
6.14349
6.14294
6.14191
6.14039
6.1384
6.13599
6.13323
6.13026
6.12722
6.1243
6.12169
6.11963
6.11842
6.11838
6.11984
6.12315
6.12865
6.13661
6.14732
6.16099
6.12448
6.12396
6.12376
6.12336
6.12265
6.12158
6.12012
6.1183
6.11614
6.11371
6.11109
6.10842
6.10583
6.10348
6.10155
6.10027
6.09987
6.10059
6.10267
6.10635
6.11179
6.11916
6.12856
6.10581
6.10504
6.10446
6.10378
6.1029
6.10175
6.10032
6.09859
6.09659
6.09437
6.09199
6.08954
6.08713
6.08489
6.08294
6.08145
6.08058
6.08049
6.08135
6.08329
6.08639
6.09074
6.09638
6.08757
6.08655
6.08564
6.08469
6.08364
6.08241
6.08096
6.07929
6.07739
6.07529
6.07305
6.07073
6.06841
6.06617
6.0641
6.06232
6.06094
6.06006
6.05977
6.06014
6.06116
6.06288
6.06527
6.06969
6.06844
6.06724
6.06605
6.06485
6.06353
6.06205
6.06039
6.05855
6.05653
6.05438
6.05212
6.04982
6.04752
6.04529
6.04321
6.04133
6.03971
6.03839
6.03739
6.03665
6.03613
6.03578
6.0521
6.05065
6.0492
6.04781
6.04647
6.04506
6.04355
6.0419
6.04009
6.03812
6.03602
6.03379
6.03147
6.0291
6.02671
6.02433
6.022
6.01973
6.01753
6.01537
6.01316
6.01079
6.00818
6.03474
6.03313
6.03148
6.02993
6.02846
6.02699
6.02544
6.02379
6.02201
6.02008
6.01801
6.0158
6.01347
6.01102
6.00847
6.00584
6.00312
6.00031
5.99738
5.99427
5.99086
5.98703
5.98267
6.01757
6.01583
6.01403
6.01235
6.0108
6.00927
6.0077
6.00606
6.0043
6.00241
6.00037
5.99819
5.99584
5.99334
5.99067
5.98783
5.9848
5.98156
5.97805
5.9742
5.96986
5.9649
5.95922
6.00054
5.99872
5.99682
5.99505
5.99343
5.99187
5.9903
5.98867
5.98695
5.98511
5.98312
5.98096
5.97863
5.97609
5.97334
5.97036
5.9671
5.96353
5.95959
5.95518
5.95015
5.94437
5.93776
5.98361
5.98176
5.9798
5.97797
5.97633
5.97475
5.9732
5.9716
5.96993
5.96815
5.96623
5.96413
5.96183
5.9593
5.95651
5.95344
5.95004
5.94625
5.942
5.9372
5.93171
5.92537
5.91815
5.96677
5.96492
5.96294
5.9611
5.95945
5.95789
5.95637
5.95483
5.95323
5.95153
5.94969
5.94767
5.94543
5.94295
5.94018
5.93708
5.93361
5.9297
5.92527
5.92024
5.91446
5.90779
5.90025
5.94998
5.94816
5.94621
5.94439
5.94277
5.94125
5.93978
5.93832
5.93681
5.93521
5.93347
5.93156
5.92942
5.92703
5.92432
5.92126
5.91779
5.91385
5.90936
5.90423
5.89832
5.89152
5.88386
5.93324
5.93149
5.92959
5.92783
5.92625
5.92479
5.9234
5.92203
5.92064
5.91916
5.91755
5.91578
5.91377
5.9115
5.90891
5.90595
5.90256
5.89867
5.89422
5.88911
5.88321
5.87642
5.86882
5.91654
5.91486
5.91306
5.91137
5.90987
5.9085
5.9072
5.90595
5.90468
5.90335
5.9019
5.90028
5.89844
5.89633
5.8939
5.89109
5.88785
5.88411
5.87979
5.87481
5.86905
5.86241
5.85501
5.89987
5.89829
5.89659
5.895
5.89359
5.89232
5.89115
5.89003
5.88892
5.88775
5.88647
5.88504
5.88339
5.88148
5.87925
5.87665
5.87362
5.87009
5.86599
5.86125
5.85573
5.84938
5.8423
5.88323
5.88174
5.88018
5.8787
5.8774
5.87625
5.87522
5.87425
5.8733
5.87231
5.87123
5.87
5.86857
5.86689
5.86491
5.86256
5.8598
5.85656
5.85277
5.84834
5.84318
5.83721
5.83055
5.86662
5.86522
5.86379
5.86243
5.86126
5.86025
5.85937
5.85857
5.8578
5.85699
5.85611
5.8551
5.85391
5.85249
5.85079
5.84876
5.84633
5.84344
5.84003
5.83602
5.8313
5.82579
5.81964
5.85005
5.84869
5.8474
5.84617
5.84514
5.84429
5.84357
5.84295
5.84236
5.84175
5.84108
5.8403
5.83937
5.83823
5.83684
5.83515
5.83311
5.83064
5.82769
5.82418
5.81999
5.81505
5.80946
5.83354
5.83213
5.83099
5.8299
5.82903
5.82834
5.8278
5.82734
5.82694
5.82653
5.82607
5.82553
5.82486
5.82402
5.82297
5.82167
5.82005
5.81807
5.81566
5.81274
5.80918
5.80489
5.79994
5.81711
5.81546
5.81451
5.81358
5.81288
5.81237
5.812
5.81172
5.81148
5.81126
5.81101
5.8107
5.8103
5.80978
5.80909
5.80819
5.80706
5.80562
5.80383
5.8016
5.79881
5.79527
5.791
5.8008
5.79862
5.7979
5.79716
5.79665
5.79632
5.79612
5.796
5.79593
5.79588
5.79583
5.79575
5.79561
5.7954
5.79508
5.79462
5.79399
5.79315
5.79208
5.79068
5.78881
5.78615
5.78259
5.78443
5.78153
5.78115
5.78065
5.78035
5.7802
5.78015
5.78017
5.78024
5.78035
5.78048
5.78061
5.78074
5.78083
5.78086
5.78082
5.78071
5.78051
5.78023
5.77982
5.77913
5.7775
5.77458
5.76751
5.76388
5.76422
5.76422
5.76417
5.76416
5.76422
5.76434
5.76453
5.76477
5.76507
5.7654
5.76575
5.7661
5.76645
5.7668
5.76715
5.76756
5.76808
5.76889
5.77015
5.77005
5.76691
5.75004
5.74335
5.74607
5.74763
5.74798
5.74809
5.74823
5.74845
5.74873
5.7491
5.74953
5.75003
5.75058
5.75115
5.75176
5.75239
5.75309
5.75396
5.75524
5.75789
5.76421
5.76728
5.76076
5.7391
5.71483
5.72398
5.72795
5.72885
5.72922
5.72953
5.72989
5.73032
5.73085
5.73147
5.73218
5.73295
5.73378
5.73464
5.73555
5.73656
5.73781
5.7398
5.74467
5.75866
5.76575
5.76672
9321.52
9306.48
9192.36
8851.71
6591.17
6069.39
5588.94
4714.5
993.744
985.812
984.526
987.309
1101.18
1088.97
1077.52
1065.8
1110.33
1099.28
1092.55
1078.57
1107.49
1026.86
762.465
507.499
293.507
132.124
5.83791
6.5112
5.94315
6.45596
6.75456
6.69735
6.35059
6.37266
6.38673
6.40091
6.27477
6.30185
6.34176
6.38906
6.2981
6.33141
6.36709
6.4067
6.31482
6.34644
6.3794
6.41473
6.31406
6.34309
6.37334
6.40524
6.29974
6.32553
6.35244
6.38067
6.27601
6.29818
6.32136
6.34568
6.2459
6.26437
6.28378
6.30408
6.21183
6.22671
6.2424
6.25878
6.17571
6.18723
6.19942
6.21203
6.13909
6.14752
6.15643
6.16553
6.10326
6.10894
6.11491
6.12084
6.06906
6.07239
6.07581
6.07903
6.03692
6.03828
6.0396
6.04059
6.00718
6.00696
6.00656
6.00578
5.98001
5.97855
5.97684
5.97466
5.95534
5.95295
5.95024
5.94704
5.933
5.92995
5.92656
5.92264
5.91282
5.90933
5.90548
5.90109
5.89459
5.89084
5.88672
5.88205
5.87805
5.87418
5.86994
5.86515
5.86301
5.85912
5.85488
5.8501
5.84931
5.84549
5.84133
5.83664
5.83683
5.83313
5.82911
5.82457
5.82538
5.82186
5.81802
5.81368
5.81481
5.81152
5.80791
5.8038
5.80503
5.80198
5.79862
5.7948
5.79594
5.79317
5.7901
5.78657
5.78745
5.78496
5.78219
5.779
5.77949
5.77729
5.77485
5.77201
5.77195
5.77006
5.76794
5.76546
5.76456
5.76297
5.76124
5.75923
5.7577
5.75598
5.75488
5.75416
5.76414
5.76207
5.75984
5.75663
6732.22
4186.3
2103.18
1012.64
1027.72
1032.18
1028.01
1011.71
960.385
797.033
743.887
758.43
773.618
756.441
741.383
872.176
963.726
1054.22
1081.7
1438.81
947.82
1006.88
1031
1024.14
1000.45
942.005
867.395
745.754
711.035
732.542
752.795
777.647
811.38
828.882
893.801
963.004
1019.98
1040.67
997.982
1017.37
1029.87
1019.24
915.832
767.981
657.415
663.219
681.137
701.904
725.075
750.232
779.881
817.277
860.926
903.26
955.735
994.638
1017.73
1048.03
1020.39
945.046
769.246
606.494
616.335
637.344
656.659
677.786
698.973
722.677
750.526
782.881
820.471
862.237
904.428
946.845
976.251
992.164
996.574
750.219
525.161
521.494
512.263
466.075
445.274
500.442
606.838
691.58
723.323
754.281
789.148
827.3
867.621
907.436
943.373
966.518
978.351
505.673
387.647
329.544
189.618
102.276
56.2401
38.4715
75.6613
225.502
591.891
723.636
762.703
801
840.112
879.305
916.125
947.08
965.762
974.758
54.2534
195.81
39.8614
7.87504
8.0269
8.28751
8.89209
10.2857
31.7621
405.905
731.72
779.579
820.735
859.988
897.66
931.606
958.562
973.774
980.456
6.34671
6.65265
7.117
7.14919
7.22966
7.42742
7.74805
8.10694
8.90792
200.905
736.137
806.1
848.762
887.388
923.267
954.545
978.143
990.371
994.877
6.43264
6.55673
6.77324
7.05301
7.27023
7.50374
7.74941
7.87934
7.64458
56.4039
613.844
840.121
884.221
922.043
956.118
985.007
1005.77
1015.31
1017.59
6.46386
6.59542
6.77308
6.99496
7.1994
7.40714
7.60039
7.68094
7.54397
9.01204
402.505
879.394
925.849
963.179
995.585
1022.47
1040.94
1048.17
1048.11
6.47919
6.59713
6.75045
6.92262
7.09366
7.26665
7.42342
7.51951
7.5299
7.65262
168.848
864.596
972.291
1009.6
1040.54
1065.91
1082.76
1088.18
1085.8
6.47566
6.57788
6.7041
6.84422
6.98967
7.13501
7.2644
7.35696
7.40329
7.29297
51.8273
732.096
1021.96
1059.66
1089.39
1113.78
1129.9
1134.2
1129.65
6.45883
6.54443
6.64726
6.7626
6.88416
7.0058
7.11207
7.18203
7.21157
7.09792
20.8421
657.129
1074.01
1111.34
1140.45
1164.53
1180.65
1184.7
1178.3
6.42732
6.49862
6.58222
6.67559
6.77412
6.87238
6.95701
7.0083
7.01072
6.90966
15.9821
657.84
1127.24
1162.71
1191.59
1216.02
1232.94
1237.75
1230
6.38527
6.44339
6.51007
6.58335
6.65958
6.73399
6.79549
6.82289
6.80479
6.73406
7.91529
578.566
1178.56
1212.01
1240.64
1266.06
1284.61
1291.15
1282.76
6.33656
6.38219
6.43309
6.48766
6.54248
6.59273
6.62916
6.63489
6.60806
6.55551
6.17672
287.505
1172
1258.02
1286.11
1312.53
1333.47
1342.62
1334.56
6.28433
6.31824
6.35447
6.39155
6.42621
6.45334
6.46506
6.44534
6.3997
6.33411
5.9151
26.7917
774.753
1300.17
1327.21
1354.16
1377.53
1390.02
1383.8
6.23099
6.25421
6.27731
6.2987
6.31525
6.32188
6.31146
6.27014
6.18349
6.06416
5.7923
5.48752
94.7407
999.987
1364.06
1390.21
1414.42
1428.84
1424.46
6.17846
6.19227
6.20419
6.21238
6.21369
6.20382
6.1762
6.12029
6.01831
5.85857
5.62864
5.37677
5.26677
83.0228
923.638
1423.32
1445.1
1459.39
1456.95
6.12841
6.1342
6.13681
6.13442
6.12404
6.10201
6.06299
5.99928
5.9004
5.75594
5.55334
5.3365
5.21302
5.15821
34.0978
687.724
1374.22
1490.83
1491.49
6.08204
6.08107
6.0761
6.06552
6.04692
6.01685
5.97177
5.90643
5.81548
5.69559
5.54498
5.37122
5.22277
5.12694
5.06873
4.94862
330.227
922.55
1538.07
6.03983
6.03345
6.0226
6.00599
5.9819
5.94732
5.90024
5.83771
5.75751
5.66034
5.55027
5.43428
5.32156
5.2432
5.20828
5.24535
5.75741
161.805
1592.51
6.00206
5.99154
5.97638
5.95558
5.92795
5.89172
5.84516
5.78767
5.71897
5.64133
5.56041
5.48404
5.41939
5.37161
5.35681
5.35587
5.65838
169.283
1126.42
5.96869
5.95518
5.93705
5.91359
5.88405
5.84778
5.80332
5.75149
5.69344
5.63202
5.57248
5.52147
5.48378
5.46082
5.4449
5.411
5.41414
33.6908
174.659
5.93947
5.92398
5.90402
5.87915
5.84896
5.81328
5.77197
5.72548
5.67641
5.62788
5.5846
5.55179
5.53275
5.52728
5.52603
5.51041
5.49356
5.64332
239.447
5.91401
5.89739
5.87655
5.85123
5.82124
5.78675
5.74842
5.70689
5.66482
5.62585
5.59451
5.57544
5.57158
5.58275
5.60052
5.61833
5.65876
5.53136
1394.55
5.89184
5.87479
5.85382
5.82878
5.79962
5.76667
5.73082
5.69348
5.65642
5.62371
5.59988
5.58949
5.59611
5.62152
5.66142
5.70753
5.84325
5.78908
1751.26
5.87252
5.85557
5.83503
5.8108
5.78291
5.75168
5.718
5.68341
5.64974
5.62008
5.59905
5.59103
5.60005
5.62916
5.6785
5.73685
5.99228
19.6774
1831.06
5.85563
5.83914
5.81943
5.79639
5.77006
5.74066
5.70887
5.676
5.64389
5.61481
5.59222
5.58026
5.58198
5.59863
5.63202
5.68366
5.98594
99.1926
1886.58
5.84076
5.82499
5.80635
5.78474
5.76015
5.73265
5.70264
5.67096
5.63903
5.60866
5.58178
5.56098
5.54785
5.54068
5.54464
5.59444
5.69117
331.793
1947.18
5.82763
5.8127
5.79526
5.7752
5.75245
5.72691
5.69867
5.66809
5.63594
5.60323
5.57094
5.53913
5.50738
5.47289
5.44825
5.50193
5.82565
489.104
1346.96
5.81595
5.80195
5.78575
5.76727
5.74635
5.7228
5.69643
5.66718
5.63512
5.60041
5.5627
5.52047
5.47025
5.40879
5.34284
5.26981
27.0855
101.804
4.46195
5.80553
5.79249
5.77754
5.76058
5.74144
5.71986
5.69548
5.66791
5.63671
5.60122
5.55994
5.51024
5.44582
5.35623
5.22811
5.0219
4.75318
4.75788
4.77912
5.79616
5.78413
5.77042
5.75492
5.73748
5.7178
5.69548
5.66996
5.64052
5.60603
5.56443
5.51275
5.44565
5.35431
5.22949
5.07061
4.93013
4.91409
4.94013
5.78773
5.77673
5.76424
5.75016
5.73434
5.71651
5.69627
5.67307
5.64613
5.61429
5.57552
5.5272
5.46637
5.3897
5.29513
5.19196
5.12793
5.10355
5.12137
5.78009
5.77016
5.75892
5.74624
5.73201
5.716
5.69785
5.67711
5.65314
5.62497
5.59104
5.54915
5.49852
5.43881
5.3709
5.30611
5.27518
5.24972
5.26716
5.77317
5.76434
5.75436
5.74311
5.7305
5.71633
5.70033
5.68214
5.66133
5.63726
5.60888
5.57475
5.53486
5.48978
5.44217
5.39996
5.36955
5.36198
5.3772
5.76683
5.75914
5.75046
5.74071
5.72979
5.71756
5.70379
5.68827
5.67073
5.65081
5.62798
5.60154
5.57137
5.53856
5.50595
5.47674
5.45711
5.45143
5.46196
5.76094
5.75442
5.74711
5.73893
5.72982
5.71965
5.70829
5.69559
5.68141
5.66562
5.64804
5.62843
5.60682
5.58404
5.56207
5.54314
5.53024
5.52615
5.53257
5.75581
5.75059
5.74461
5.73798
5.73069
5.72264
5.71377
5.704
5.69328
5.6816
5.66895
5.65537
5.64104
5.62642
5.61252
5.60083
5.59277
5.58906
5.5882
5.75322
5.74916
5.74413
5.73868
5.73287
5.72668
5.72007
5.71305
5.70564
5.69788
5.68986
5.6817
5.6736
5.66586
5.65888
5.65314
5.64932
5.64741
5.64708
5.75029
5.74562
5.74179
5.738
5.73419
5.73033
5.72643
5.72249
5.71857
5.71473
5.71109
5.7078
5.70505
5.70304
5.70187
5.70145
5.70154
5.70149
5.7005
)
;

boundaryField
{
    leftWall
    {
        type            fixedFluxPressure;
        gradient        uniform 0;
        value           nonuniform List<scalar> 
50
(
4299.38
4296.71
4294.22
4275.94
2696.34
996.031
995.638
993.658
990.346
983.195
972.246
739.755
59.8385
6.43225
6.40162
6.37514
6.34834
6.32238
6.29715
6.27271
6.24915
6.22647
6.20463
6.18358
6.16324
6.14355
6.12448
6.10581
6.08757
6.06969
6.0521
6.03474
6.01757
6.00054
5.98361
5.96677
5.94998
5.93324
5.91654
5.89987
5.88323
5.86662
5.85005
5.83354
5.81711
5.8008
5.78443
5.76751
5.75004
5.7391
)
;
    }
    rightWall
    {
        type            fixedFluxPressure;
        gradient        uniform 0;
        value           nonuniform List<scalar> 
50
(
1714.37
1691.8
1621.44
1514.61
1402.13
1295.71
1210.76
1153.39
1081.7
1040.67
1017.73
992.164
978.351
974.758
980.456
994.877
1017.59
1048.11
1085.8
1129.65
1178.3
1230
1282.76
1334.56
1383.8
1424.46
1456.95
1491.49
1538.07
1592.51
1126.42
174.659
239.447
1394.55
1751.26
1831.06
1886.58
1947.18
1346.96
4.46195
4.77912
4.94013
5.12137
5.26716
5.3772
5.46196
5.53257
5.5882
5.64708
5.7005
)
;
    }
    lowerWall
    {
        type            fixedFluxPressure;
        gradient        uniform 0;
        value           nonuniform List<scalar> 
62
(
4299.38
4322.07
4364.8
4410.09
4457.54
4513.46
4582.91
4670.06
4780.21
4919.66
5095.31
5312.31
5574.69
5878.56
6215.42
6574.61
6944.34
7310.56
7658.27
7969.99
8238.56
8417.31
8508.14
8508.14
8523.03
8561.49
8626.59
8718.37
8836.68
8984.73
9130.53
9321.52
9306.48
9192.36
8851.71
2842.84
2835.22
2816.58
2796.91
2789.17
2748.14
4841.22
6543.22
2842.84
2852.36
2924.83
3011.25
3080.21
3103.05
3067.55
3035.64
3057.19
2922.38
2587.96
2301.59
2221.72
2320.57
2271.92
1704.23
1414.36
1578.95
1714.37
)
;
    }
    atmosphere
    {
        type            prghTotalPressure;
        rho             rho;
        psi             none;
        gamma           1;
        p0              uniform 0;
        value           nonuniform List<scalar> 
46
(
5.7259
5.71628
5.71647
5.7168
5.71709
5.7174
5.71777
5.71822
5.71877
5.71943
5.72019
5.72105
5.72199
5.72298
5.72401
5.72505
5.72607
5.72703
5.72788
5.72854
5.72892
5.72904
5.72904
5.72904
5.72904
5.72904
5.72904
5.72904
5.72904
5.72904
5.72904
5.72904
5.72904
5.72904
5.72904
5.72904
5.72904
5.72904
5.72904
5.72904
5.72904
5.72904
5.72904
5.72904
5.72904
5.72904
)
;
        rho             rho;
    }
    defaultFaces
    {
        type            empty;
    }
}


// ************************************************************************* //
