/*--------------------------------*- C++ -*----------------------------------*\
  =========                 |
  \\      /  F ield         | OpenFOAM: The Open Source CFD Toolbox
   \\    /   O peration     | Website:  https://openfoam.org
    \\  /    A nd           | Version:  13
     \\/     M anipulation  |
\*---------------------------------------------------------------------------*/
FoamFile
{
    format      ascii;
    class       surfaceScalarField;
    location    "0.55";
    object      phi;
}
// * * * * * * * * * * * * * * * * * * * * * * * * * * * * * * * * * * * * * //

dimensions      [0 3 -1 0 0 0 0];

internalField   nonuniform List<scalar> 
4432
(
-1.5954e-06
1.5954e-06
4.96805e-07
-2.0922e-06
3.09589e-06
-2.59909e-06
5.42596e-06
-2.33007e-06
7.45271e-06
-2.02675e-06
9.21809e-06
-1.76538e-06
1.07411e-05
-1.52297e-06
1.20056e-05
-1.26456e-06
1.29708e-05
-9.65217e-07
1.35806e-05
-6.09726e-07
1.37871e-05
-2.06547e-07
1.3572e-05
2.15144e-07
1.29293e-05
6.42713e-07
1.19063e-05
1.02294e-06
1.05638e-05
1.34254e-06
8.93286e-06
1.63092e-06
7.10046e-06
1.83241e-06
5.12327e-06
1.97719e-06
3.06836e-06
2.05491e-06
9.93538e-07
2.07482e-06
-1.12974e-06
2.12327e-06
-2.87208e-06
1.74234e-06
-2.87208e-06
9.2083e-07
6.74567e-07
3.05065e-06
-4.22202e-06
5.08875e-06
-4.63719e-06
6.95912e-06
-4.20045e-06
8.64204e-06
-3.70967e-06
1.01411e-05
-3.26449e-06
1.1442e-05
-2.82383e-06
1.25056e-05
-2.32812e-06
1.32753e-05
-1.73492e-06
1.36833e-05
-1.01773e-06
1.36675e-05
-1.90788e-07
1.31943e-05
6.88376e-07
1.22808e-05
1.55617e-06
1.09649e-05
2.33885e-06
9.32338e-06
2.98407e-06
7.4353e-06
3.519e-06
5.43583e-06
3.83188e-06
3.45265e-06
3.96037e-06
1.63089e-06
3.87667e-06
1.12505e-07
3.59321e-06
-9.721e-07
3.20788e-06
-1.25122e-06
2.02145e-06
-4.12329e-06
2.83054e-06
-2.15597e-06
4.6304e-06
-6.02188e-06
6.21125e-06
-6.21805e-06
7.71687e-06
-5.70606e-06
9.13016e-06
-5.12297e-06
1.0425e-05
-4.55933e-06
1.15589e-05
-3.9577e-06
1.24712e-05
-3.2404e-06
1.30909e-05
-2.35462e-06
1.33385e-05
-1.26532e-06
1.31447e-05
3.02022e-09
1.24786e-05
1.35444e-06
1.13518e-05
2.68294e-06
9.82961e-06
3.86106e-06
8.00513e-06
4.80855e-06
5.98554e-06
5.53858e-06
3.93731e-06
5.88011e-06
2.02008e-06
5.8776e-06
4.1771e-07
5.47904e-06
-6.65627e-07
4.67654e-06
-1.13059e-06
3.67284e-06
-6.83353e-07
1.57422e-06
-4.80664e-06
3.96271e-06
-6.11868e-06
5.47776e-06
-7.53693e-06
6.7461e-06
-7.48638e-06
8.00668e-06
-6.96664e-06
9.24067e-06
-6.35696e-06
1.03972e-05
-5.71582e-06
1.14136e-05
-4.97419e-06
1.22138e-05
-4.04054e-06
1.27154e-05
-2.85623e-06
1.28273e-05
-1.37724e-06
1.24787e-05
3.51674e-07
1.16369e-05
2.19624e-06
1.03254e-05
3.99437e-06
8.63651e-06
5.54997e-06
6.68224e-06
6.76281e-06
4.58627e-06
7.63456e-06
2.54062e-06
7.92575e-06
7.18004e-07
7.70022e-06
-6.83374e-07
6.88042e-06
-1.4861e-06
5.47927e-06
-1.54843e-06
3.73517e-06
-7.12927e-07
7.38717e-07
-5.51957e-06
4.31659e-06
-1.04353e-05
5.59283e-06
-8.81317e-06
6.72767e-06
-8.62123e-06
7.87261e-06
-8.11157e-06
9.01741e-06
-7.50175e-06
1.00906e-05
-6.78899e-06
1.1018e-05
-5.90163e-06
1.17403e-05
-4.76278e-06
1.21601e-05
-3.27605e-06
1.21752e-05
-1.39236e-06
1.17021e-05
8.24806e-07
1.06974e-05
3.20091e-06
9.22798e-06
5.46381e-06
7.4074e-06
7.37054e-06
5.36765e-06
8.80257e-06
3.24674e-06
9.75547e-06
1.261e-06
9.91149e-06
-4.1891e-07
9.38013e-06
-1.61485e-06
8.07636e-06
-2.16374e-06
6.02815e-06
-2.01693e-06
3.58836e-06
-1.02662e-06
-2.51597e-07
-6.54619e-06
3.17484e-06
-1.36101e-05
4.57485e-06
-1.02132e-05
5.74994e-06
-9.79631e-06
6.86904e-06
-9.23067e-06
7.97382e-06
-8.60654e-06
9.01056e-06
-7.82573e-06
9.88436e-06
-6.77543e-06
1.0573e-05
-5.45139e-06
1.09625e-05
-3.66554e-06
1.09653e-05
-1.39521e-06
1.04917e-05
1.2984e-06
9.50466e-06
4.18795e-06
8.0463e-06
6.92218e-06
6.16146e-06
9.25538e-06
4.07458e-06
1.08894e-05
2.01575e-06
1.18143e-05
1.66027e-07
1.17612e-05
-1.31445e-06
1.08606e-05
-2.24397e-06
9.00588e-06
-2.54106e-06
6.32523e-06
-2.27121e-06
3.31852e-06
-1.29265e-06
-1.23016e-06
-7.83884e-06
1.03617e-06
-1.46463e-05
2.36599e-06
-1.1543e-05
3.38675e-06
-1.08171e-05
4.339e-06
-1.01829e-05
5.27617e-06
-9.5437e-06
6.20466e-06
-8.75422e-06
7.12642e-06
-7.69719e-06
7.94848e-06
-6.27344e-06
8.59127e-06
-4.30833e-06
8.94087e-06
-1.74481e-06
8.83995e-06
1.39932e-06
8.1052e-06
4.9227e-06
6.62594e-06
8.40143e-06
4.71844e-06
1.11629e-05
2.80282e-06
1.28051e-05
9.30858e-07
1.36863e-05
-6.50298e-07
1.33424e-05
-1.81725e-06
1.20276e-05
-2.41263e-06
9.60126e-06
-2.39064e-06
6.30324e-06
-1.96917e-06
2.89705e-06
-1.04044e-06
-2.15889e-06
-8.87928e-06
7.24655e-08
-1.47187e-05
9.86488e-07
-1.2457e-05
1.78794e-06
-1.16185e-05
2.5566e-06
-1.09516e-05
3.32764e-06
-1.03147e-05
4.10578e-06
-9.53236e-06
4.87616e-06
-8.46757e-06
5.57886e-06
-6.97615e-06
6.16764e-06
-4.89711e-06
6.57093e-06
-2.1481e-06
6.68999e-06
1.28026e-06
6.38831e-06
5.22438e-06
5.50311e-06
9.28662e-06
3.96681e-06
1.26992e-05
1.89703e-06
1.48748e-05
1.11925e-07
1.54714e-05
-1.07806e-06
1.45324e-05
-1.84247e-06
1.2792e-05
-1.96966e-06
9.72845e-06
-1.50266e-06
5.83624e-06
-7.46196e-07
2.14059e-06
5.1707e-07
-3.42215e-06
-8.3622e-06
-2.33882e-05
2.33882e-05
-3.2038e-05
8.64985e-06
-2.63069e-05
-5.73109e-06
-1.38337e-05
-1.24732e-05
1.79159e-06
-1.56253e-05
2.02535e-05
-1.84619e-05
4.09848e-05
-2.07312e-05
6.12629e-05
-2.02781e-05
8.40099e-05
-2.2747e-05
9.83779e-05
-1.4368e-05
0.000100466
-2.08854e-06
9.6939e-05
3.52739e-06
9.75344e-05
-5.9544e-07
0.000104728
-7.19394e-06
0.00011541
-1.06813e-05
0.000120333
-4.92297e-06
0.000104039
1.62936e-05
5.98649e-05
4.41741e-05
5.98649e-05
-1.82388e-05
4.16269e-05
-1.8496e-05
8.90706e-06
-5.71287e-06
-1.85142e-05
1.41309e-05
-3.2317e-05
3.88489e-05
-4.03433e-05
5.90915e-05
-3.87045e-05
6.73129e-05
-2.89526e-05
7.34952e-05
-2.64605e-05
7.85705e-05
-2.78223e-05
8.45607e-05
-2.03582e-05
8.91358e-05
-6.66364e-06
9.17031e-05
9.6009e-07
9.31027e-05
-1.99506e-06
9.6692e-05
-1.07832e-05
0.000100951
-1.49404e-05
0.000101845
-5.81665e-06
8.58063e-05
3.2332e-05
4.70463e-05
8.29341e-05
0.000106911
-1.17652e-05
5.33921e-05
-7.6908e-07
-2.08903e-06
1.96153e-05
-3.88985e-05
4.02813e-05
-5.29829e-05
5.40478e-05
-5.41098e-05
6.0835e-05
-4.54917e-05
6.65857e-05
-3.47033e-05
7.14062e-05
-3.1281e-05
7.53902e-05
-3.18063e-05
8.00612e-05
-2.50292e-05
8.47096e-05
-1.1312e-05
8.78267e-05
-2.15704e-06
8.92934e-05
-3.46177e-06
9.07852e-05
-1.22749e-05
9.19723e-05
-1.61275e-05
8.85765e-05
-2.4208e-06
7.12782e-05
4.96303e-05
3.66627e-05
0.00011755
0.000143574
-1.28566e-06
5.46777e-05
2.1372e-05
-2.47467e-05
3.96266e-05
-5.71531e-05
4.96906e-05
-6.3047e-05
5.51987e-05
-5.96178e-05
5.97914e-05
-5.00844e-05
6.48139e-05
-3.97259e-05
6.88365e-05
-3.53036e-05
7.24348e-05
-3.54045e-05
7.65538e-05
-2.91482e-05
8.08764e-05
-1.56347e-05
8.47469e-05
-6.02747e-06
8.65233e-05
-5.23816e-06
8.57433e-05
-1.14949e-05
8.38612e-05
-1.42454e-05
7.61711e-05
5.26934e-06
5.56159e-05
7.01854e-05
2.70494e-05
0.000146116
0.000170623
1.26816e-05
4.19961e-05
3.80464e-05
-5.01115e-05
4.52662e-05
-6.43729e-05
4.98015e-05
-6.75823e-05
5.38668e-05
-6.36832e-05
5.80074e-05
-5.4225e-05
6.26035e-05
-4.4322e-05
6.64904e-05
-3.91904e-05
6.95727e-05
-3.84868e-05
7.26196e-05
-3.21951e-05
7.63584e-05
-1.93736e-05
7.93915e-05
-9.06059e-06
8.07703e-05
-6.6169e-06
7.87038e-05
-9.42851e-06
7.23483e-05
-7.88992e-06
5.96512e-05
1.79665e-05
3.79276e-05
9.1909e-05
1.89223e-05
0.000165121
0.000189546
3.4861e-05
7.13503e-06
4.17505e-05
-5.70009e-05
4.54902e-05
-6.81127e-05
4.89097e-05
-7.10017e-05
5.21939e-05
-6.69674e-05
5.57782e-05
-5.78093e-05
6.01048e-05
-4.86486e-05
6.44527e-05
-4.35384e-05
6.70703e-05
-4.11045e-05
6.83303e-05
-3.3455e-05
6.94367e-05
-2.04799e-05
7.0623e-05
-1.0247e-05
6.99635e-05
-5.95736e-06
6.54344e-05
-4.89945e-06
5.6286e-05
1.25853e-06
3.9474e-05
3.47785e-05
2.16018e-05
0.000109781
1.19626e-05
0.000174761
0.000201508
3.74245e-05
-3.02895e-05
4.17985e-05
-6.13749e-05
4.49506e-05
-7.12647e-05
4.76465e-05
-7.36976e-05
5.01664e-05
-6.94873e-05
5.32904e-05
-6.09333e-05
5.71315e-05
-5.24897e-05
6.08629e-05
-4.72697e-05
6.25801e-05
-4.28217e-05
6.295e-05
-3.3825e-05
6.28854e-05
-2.04154e-05
6.27277e-05
-1.00892e-05
6.04833e-05
-3.71298e-06
5.40088e-05
1.57509e-06
4.16796e-05
1.35877e-05
2.44336e-05
5.20246e-05
1.23282e-05
0.000121887
6.62802e-06
0.000180461
0.000208136
3.56835e-05
-6.5973e-05
4.11017e-05
-6.67931e-05
4.40201e-05
-7.4183e-05
4.62613e-05
-7.59389e-05
4.82007e-05
-7.14266e-05
5.1024e-05
-6.37566e-05
5.44446e-05
-5.59104e-05
5.70735e-05
-4.98986e-05
5.80338e-05
-4.3782e-05
5.75492e-05
-3.33404e-05
5.66711e-05
-1.95372e-05
5.5349e-05
-8.76715e-06
5.19082e-05
-2.72178e-07
4.39987e-05
9.48457e-06
3.06626e-05
2.69238e-05
1.57253e-05
6.69619e-05
6.54692e-06
0.000131065
2.96471e-06
0.000184043
0.000211101
-1.05614e-06
-1.36626e-05
-4.16177e-07
-1.3097e-05
4.27234e-07
-1.24619e-05
1.41212e-06
-1.19365e-05
2.48775e-06
-1.13904e-05
3.63348e-06
-1.06781e-05
4.81147e-06
-9.64555e-06
5.96829e-06
-8.13297e-06
7.06035e-06
-5.98917e-06
8.03854e-06
-3.1263e-06
8.84242e-06
4.7639e-07
9.33644e-06
4.73036e-06
9.25786e-06
9.3652e-06
8.04387e-06
1.39132e-05
5.2237e-06
1.7695e-05
1.52655e-06
1.91685e-05
-1.8137e-06
1.78726e-05
-1.81792e-06
1.27962e-05
-1.70719e-07
8.08125e-06
2.25067e-06
3.41485e-06
5.72584e-06
-1.33458e-06
1.11287e-05
-8.82497e-06
-1.67665e-05
1.9533e-05
-1.60463e-06
-1.2058e-05
-2.00208e-06
-1.26995e-05
-2.01072e-06
-1.24533e-05
-1.7294e-06
-1.22178e-05
-1.22419e-06
-1.18956e-05
-5.44674e-07
-1.13576e-05
2.79991e-07
-1.04702e-05
1.22652e-06
-9.0795e-06
2.27633e-06
-7.03898e-06
3.43531e-06
-4.28528e-06
4.73104e-06
-8.19337e-07
6.16889e-06
3.29251e-06
7.68145e-06
7.85264e-06
9.15991e-06
1.24347e-05
1.04873e-05
1.63676e-05
1.12116e-05
1.84442e-05
1.14867e-05
1.75975e-05
1.08798e-05
1.34031e-05
1.15041e-05
7.45701e-06
1.51649e-05
-2.45922e-07
2.15648e-05
-7.73456e-06
2.91822e-05
-1.64424e-05
-2.62514e-05
3.86671e-05
-1.7326e-06
-1.03254e-05
-2.87323e-06
-1.15589e-05
-3.50488e-06
-1.18216e-05
-3.69714e-06
-1.20255e-05
-3.57841e-06
-1.20143e-05
-3.20898e-06
-1.1727e-05
-2.59311e-06
-1.10861e-05
-1.71994e-06
-9.95266e-06
-5.99783e-07
-8.15914e-06
8.03865e-07
-5.68893e-06
2.55889e-06
-2.57437e-06
4.77015e-06
1.08125e-06
7.45696e-06
5.16583e-06
1.06828e-05
9.20891e-06
1.44586e-05
1.25918e-05
1.85348e-05
1.4368e-05
2.24976e-05
1.36347e-05
2.59922e-05
9.90851e-06
2.96433e-05
3.80593e-06
3.37319e-05
-4.33452e-06
3.92584e-05
-1.3261e-05
4.63308e-05
-2.35148e-05
-3.49515e-05
5.5031e-05
-2.01229e-06
-8.31307e-06
-3.62817e-06
-9.94303e-06
-4.54783e-06
-1.0902e-05
-4.934e-06
-1.16394e-05
-5.00568e-06
-1.19426e-05
-4.83746e-06
-1.18953e-05
-4.39724e-06
-1.15263e-05
-3.57463e-06
-1.07753e-05
-2.32714e-06
-9.40664e-06
-6.29444e-07
-7.38662e-06
1.61317e-06
-4.81698e-06
4.4649e-06
-1.77048e-06
8.08633e-06
1.5444e-06
1.24708e-05
4.82444e-06
1.76715e-05
7.39109e-06
2.35122e-05
8.52734e-06
2.97386e-05
7.40817e-06
3.59589e-05
3.6882e-06
4.21747e-05
-2.40981e-06
4.84229e-05
-1.05827e-05
5.53806e-05
-2.02188e-05
6.28742e-05
-3.10084e-05
-4.2399e-05
7.03217e-05
-2.75596e-06
-5.5571e-06
-5.34448e-06
-7.3545e-06
-6.51441e-06
-9.73201e-06
-6.81442e-06
-1.13393e-05
-6.68154e-06
-1.20755e-05
-6.27247e-06
-1.23043e-05
-5.59973e-06
-1.2199e-05
-4.59288e-06
-1.17821e-05
-3.25616e-06
-1.07434e-05
-1.2244e-06
-9.41837e-06
1.48992e-06
-7.53129e-06
4.98757e-06
-5.26812e-06
9.38334e-06
-2.85137e-06
1.47005e-05
-4.92693e-07
2.08434e-05
1.24818e-06
2.76575e-05
1.71325e-06
3.51335e-05
-6.78791e-08
4.28399e-05
-4.01814e-06
5.04652e-05
-1.00352e-05
5.79522e-05
-1.80696e-05
6.54275e-05
-2.76941e-05
7.26526e-05
-3.82335e-05
-4.90013e-05
7.92549e-05
2.40815e-06
-7.96519e-06
-2.2126e-06
-2.73371e-06
-4.36917e-06
-7.57541e-06
-5.55204e-06
-1.01564e-05
-6.10737e-06
-1.15201e-05
-6.19159e-06
-1.22201e-05
-6.09877e-06
-1.22918e-05
-5.87018e-06
-1.20107e-05
-5.81613e-06
-1.07974e-05
-2.65611e-06
-1.25784e-05
1.19736e-06
-1.13848e-05
6.07418e-06
-1.01449e-05
1.17527e-05
-8.52993e-06
1.79558e-05
-6.69572e-06
2.46527e-05
-5.44872e-06
3.20442e-05
-5.67829e-06
4.00849e-05
-8.10853e-06
4.8519e-05
-1.24522e-05
5.68182e-05
-1.83344e-05
6.48187e-05
-2.60701e-05
7.23835e-05
-3.52589e-05
7.91612e-05
-4.50113e-05
-5.45396e-05
8.46995e-05
7.40884e-06
-1.5374e-05
9.24531e-06
-4.57014e-06
9.84896e-06
-8.17902e-06
9.89237e-06
-1.01998e-05
9.43141e-06
-1.10591e-05
8.27649e-06
-1.10651e-05
6.03383e-06
-1.00491e-05
2.406e-06
-8.38273e-06
-2.84054e-07
-8.10722e-06
-2.358e-06
-1.05044e-05
-2.50696e-07
-1.3492e-05
4.67296e-06
-1.50686e-05
1.18755e-05
-1.57325e-05
2.00867e-05
-1.49068e-05
2.84684e-05
-1.38304e-05
3.70139e-05
-1.42238e-05
4.56285e-05
-1.67231e-05
5.42459e-05
-2.10696e-05
6.28248e-05
-2.69134e-05
7.11173e-05
-3.43626e-05
7.87166e-05
-4.28581e-05
8.54479e-05
-5.17426e-05
-6.02391e-05
9.11475e-05
4.19974e-06
-1.95737e-05
1.13212e-05
-1.16916e-05
1.4738e-05
-1.15958e-05
1.65265e-05
-1.19882e-05
1.74245e-05
-1.19571e-05
1.76997e-05
-1.13403e-05
1.7721e-05
-1.00704e-05
1.77999e-05
-8.46159e-06
1.82801e-05
-8.58731e-06
1.87389e-05
-1.09632e-05
1.95802e-05
-1.43333e-05
2.11031e-05
-1.65915e-05
2.30264e-05
-1.76557e-05
2.41836e-05
-1.60639e-05
2.91831e-05
-1.88299e-05
3.89883e-05
-2.4029e-05
4.95769e-05
-2.73117e-05
5.99563e-05
-3.1449e-05
7.027e-05
-3.72271e-05
7.98643e-05
-4.39569e-05
8.79926e-05
-5.09864e-05
9.47561e-05
-5.85061e-05
-6.62254e-05
0.000100742
3.90433e-06
-2.3478e-05
1.02388e-05
-1.8026e-05
1.48965e-05
-1.62534e-05
1.82389e-05
-1.53306e-05
2.07518e-05
-1.447e-05
2.2835e-05
-1.34235e-05
2.49506e-05
-1.2186e-05
2.75944e-05
-1.11054e-05
3.01429e-05
-1.11358e-05
3.22138e-05
-1.3034e-05
3.3461e-05
-1.55804e-05
3.43659e-05
-1.74963e-05
3.5141e-05
-1.84308e-05
3.87442e-05
-1.96671e-05
4.41969e-05
-2.42826e-05
5.03505e-05
-3.01826e-05
5.77207e-05
-3.46818e-05
6.52562e-05
-3.89845e-05
7.21063e-05
-4.40772e-05
7.76156e-05
-4.94662e-05
8.14989e-05
-5.48697e-05
8.36181e-05
-6.06253e-05
-6.57012e-05
8.30941e-05
3.75847e-06
-2.72364e-05
9.05573e-06
-2.33233e-05
1.37807e-05
-2.09784e-05
1.78137e-05
-1.93635e-05
2.13635e-05
-1.80199e-05
2.47051e-05
-1.6765e-05
2.81358e-05
-1.56167e-05
3.18549e-05
-1.48245e-05
3.56314e-05
-1.49123e-05
3.87578e-05
-1.61604e-05
4.11494e-05
-1.7972e-05
4.33509e-05
-1.96978e-05
4.62264e-05
-2.13063e-05
5.03347e-05
-2.37754e-05
5.46097e-05
-2.85575e-05
5.85082e-05
-3.40811e-05
6.26751e-05
-3.88486e-05
6.69226e-05
-4.3232e-05
7.04708e-05
-4.76254e-05
7.28364e-05
-5.18318e-05
7.37429e-05
-5.57762e-05
7.28776e-05
-5.97601e-05
-6.3016e-05
7.01925e-05
3.34413e-06
-3.05805e-05
7.79786e-06
-2.7777e-05
1.2208e-05
-2.53885e-05
1.63779e-05
-2.35334e-05
2.03621e-05
-2.2004e-05
2.42986e-05
-2.07014e-05
2.83348e-05
-1.9653e-05
3.25313e-05
-1.9021e-05
3.66887e-05
-1.90697e-05
4.04459e-05
-1.99175e-05
4.37725e-05
-2.12986e-05
4.70167e-05
-2.29421e-05
5.0624e-05
-2.49136e-05
5.46154e-05
-2.77668e-05
5.80516e-05
-3.19937e-05
6.07283e-05
-3.67577e-05
6.30748e-05
-4.11951e-05
6.50801e-05
-4.52373e-05
6.63876e-05
-4.89328e-05
6.67112e-05
-5.21554e-05
6.58662e-05
-5.49313e-05
6.34497e-05
-5.73436e-05
-5.8703e-05
5.91368e-05
2.83337e-06
-3.34138e-05
6.57097e-06
-3.15145e-05
1.05184e-05
-2.93359e-05
1.44926e-05
-2.75075e-05
1.84765e-05
-2.5988e-05
2.25178e-05
-2.47427e-05
2.6668e-05
-2.38032e-05
3.09187e-05
-2.32716e-05
3.51362e-05
-2.32872e-05
3.91287e-05
-2.391e-05
4.28692e-05
-2.50391e-05
4.65044e-05
-2.65773e-05
5.0176e-05
-2.85852e-05
5.37135e-05
-3.13043e-05
5.65866e-05
-3.48668e-05
5.86358e-05
-3.88069e-05
6.00387e-05
-4.2598e-05
6.08295e-05
-4.60281e-05
6.08877e-05
-4.8991e-05
6.01009e-05
-5.13687e-05
5.82926e-05
-5.3123e-05
5.5118e-05
-5.41691e-05
-5.393e-05
5.03451e-05
2.31814e-06
-3.57319e-05
5.42137e-06
-3.46177e-05
8.84986e-06
-3.27644e-05
1.24488e-05
-3.11065e-05
1.61719e-05
-2.97111e-05
2.00171e-05
-2.85878e-05
2.39844e-05
-2.77705e-05
2.8039e-05
-2.73262e-05
3.20855e-05
-2.73338e-05
3.60071e-05
-2.78315e-05
3.97564e-05
-2.87884e-05
4.33523e-05
-3.01732e-05
4.67838e-05
-3.20167e-05
4.98804e-05
-3.4401e-05
5.23277e-05
-3.7314e-05
5.39881e-05
-4.04674e-05
5.49047e-05
-4.35146e-05
5.51045e-05
-4.62278e-05
5.45585e-05
-4.84451e-05
5.32131e-05
-5.00234e-05
5.09387e-05
-5.08487e-05
4.75029e-05
-5.07332e-05
-4.91977e-05
4.27707e-05
1.83204e-06
-3.7564e-05
4.36165e-06
-3.71473e-05
7.25968e-06
-3.56624e-05
1.03982e-05
-3.4245e-05
1.3721e-05
-3.3034e-05
1.72016e-05
-3.20683e-05
2.08151e-05
-3.1384e-05
2.4517e-05
-3.10281e-05
2.82323e-05
-3.1049e-05
3.18739e-05
-3.14732e-05
3.53795e-05
-3.2294e-05
3.87057e-05
-3.34994e-05
4.17821e-05
-3.5093e-05
4.44607e-05
-3.70796e-05
4.65411e-05
-3.93944e-05
4.79094e-05
-4.18357e-05
4.85519e-05
-4.41571e-05
4.84746e-05
-4.61505e-05
4.76688e-05
-4.76393e-05
4.61034e-05
-4.8458e-05
4.36945e-05
-4.84399e-05
4.03099e-05
-4.73487e-05
-4.4769e-05
3.58814e-05
1.38721e-06
-3.89512e-05
3.39389e-06
-3.9154e-05
5.77329e-06
-3.80418e-05
8.42003e-06
-3.68917e-05
1.12775e-05
-3.58914e-05
1.43082e-05
-3.50991e-05
1.74765e-05
-3.45523e-05
2.07349e-05
-3.42864e-05
2.40189e-05
-3.4333e-05
2.7255e-05
-3.47093e-05
3.03746e-05
-3.54137e-05
3.33101e-05
-3.64348e-05
3.59745e-05
-3.77575e-05
3.8245e-05
-3.93501e-05
3.99825e-05
-4.11319e-05
4.10948e-05
-4.2948e-05
4.15471e-05
-4.46095e-05
4.13295e-05
-4.59329e-05
4.04338e-05
-4.67436e-05
3.88412e-05
-4.68654e-05
3.65066e-05
-4.61053e-05
3.33685e-05
-4.42106e-05
-4.0812e-05
2.94117e-05
9.86642e-07
-3.99378e-05
2.51571e-06
-4.06831e-05
4.40099e-06
-3.99271e-05
6.55576e-06
-3.90465e-05
8.92677e-06
-3.82624e-05
1.14733e-05
-3.76457e-05
1.41555e-05
-3.72345e-05
1.69261e-05
-3.7057e-05
1.97273e-05
-3.71342e-05
2.24935e-05
-3.74755e-05
2.51564e-05
-3.80766e-05
2.76434e-05
-3.89219e-05
2.98697e-05
-3.99837e-05
3.17345e-05
-4.12149e-05
3.31354e-05
-4.25328e-05
3.39976e-05
-4.38103e-05
3.4282e-05
-4.48938e-05
3.39712e-05
-4.56221e-05
3.30573e-05
-4.58297e-05
3.15323e-05
-4.53405e-05
2.93821e-05
-4.39551e-05
2.65941e-05
-4.14226e-05
-3.74085e-05
2.31908e-05
6.28738e-07
-4.05665e-05
1.72205e-06
-4.17764e-05
3.14515e-06
-4.13502e-05
4.826e-06
-4.07273e-05
6.71612e-06
-4.01525e-05
8.77513e-06
-3.97047e-05
1.09627e-05
-3.94221e-05
1.32337e-05
-3.9328e-05
1.55352e-05
-3.94357e-05
1.7808e-05
-3.97484e-05
1.99884e-05
-4.0257e-05
2.20073e-05
-4.09408e-05
2.37888e-05
-4.17653e-05
2.52511e-05
-4.26772e-05
2.63156e-05
-4.35973e-05
2.69224e-05
-4.44171e-05
2.70352e-05
-4.50066e-05
2.6637e-05
-4.52239e-05
2.57235e-05
-4.49162e-05
2.42984e-05
-4.39155e-05
2.23715e-05
-4.20282e-05
1.99642e-05
-3.90154e-05
-3.45727e-05
1.71286e-05
3.06394e-07
-4.08729e-05
1.00609e-06
-4.24761e-05
2.00417e-06
-4.23482e-05
3.24023e-06
-4.19634e-05
4.67114e-06
-4.15834e-05
6.25868e-06
-4.12922e-05
7.96415e-06
-4.11276e-05
9.74503e-06
-4.11088e-05
1.15534e-05
-4.12441e-05
1.3336e-05
-4.1531e-05
1.50352e-05
-4.19562e-05
1.65894e-05
-4.2495e-05
1.79333e-05
-4.31092e-05
1.90006e-05
-4.37445e-05
1.97302e-05
-4.4327e-05
2.00749e-05
-4.47618e-05
2.00051e-05
-4.49369e-05
1.95084e-05
-4.47272e-05
1.8587e-05
-4.39948e-05
1.7256e-05
-4.25846e-05
1.55443e-05
-4.03166e-05
1.34985e-05
-3.69696e-05
-3.22655e-05
1.11914e-05
-2.98796e-10
-4.08727e-05
3.62162e-07
-4.28386e-05
9.75556e-07
-4.29617e-05
1.80229e-06
-4.27901e-05
2.80521e-06
-4.25864e-05
3.94923e-06
-4.24363e-05
5.19818e-06
-4.23765e-05
6.51283e-06
-4.24235e-05
7.84988e-06
-4.25812e-05
9.16196e-06
-4.28431e-05
1.03983e-05
-4.31926e-05
1.15053e-05
-4.36021e-05
1.24284e-05
-4.40323e-05
1.31141e-05
-4.44302e-05
1.35148e-05
-4.47278e-05
1.35945e-05
-4.48415e-05
1.33317e-05
-4.4674e-05
1.27204e-05
-4.41159e-05
1.17702e-05
-4.30446e-05
1.05069e-05
-4.13213e-05
8.97398e-06
-3.87837e-05
7.23679e-06
-3.52324e-05
-3.04169e-05
5.38824e-06
-2.4289e-07
-4.06298e-05
-2.07693e-07
-4.28738e-05
5.8678e-08
-4.3228e-05
5.13359e-07
-4.32448e-05
1.12464e-06
-4.31977e-05
1.86009e-06
-4.31717e-05
2.6863e-06
-4.32027e-05
3.56747e-06
-4.33047e-05
4.46479e-06
-4.34785e-05
5.33647e-06
-4.37148e-05
6.13841e-06
-4.39945e-05
6.82512e-06
-4.42888e-05
7.35132e-06
-4.45585e-05
7.67438e-06
-4.47533e-05
7.7578e-06
-4.48112e-05
7.57504e-06
-4.46587e-05
7.11242e-06
-4.42114e-05
6.37101e-06
-4.33745e-05
5.36753e-06
-4.20412e-05
4.13578e-06
-4.00896e-05
2.73077e-06
-3.73787e-05
1.2313e-06
-3.37329e-05
-2.89323e-05
-2.53175e-07
-4.69954e-07
-4.01598e-05
-7.10022e-07
-4.26337e-05
-7.51683e-07
-4.31864e-05
-6.28056e-07
-4.33685e-05
-3.68875e-07
-4.34569e-05
-3.05319e-09
-4.35376e-05
4.38994e-07
-4.36448e-05
9.24816e-07
-4.37906e-05
1.41985e-06
-4.39736e-05
1.88757e-06
-4.41825e-05
2.29007e-06
-4.4397e-05
2.58913e-06
-4.45879e-05
2.74773e-06
-4.47171e-05
2.73225e-06
-4.47378e-05
2.51518e-06
-4.45942e-05
2.07812e-06
-4.42217e-05
1.41427e-06
-4.35476e-05
5.30566e-07
-4.24908e-05
-5.50119e-07
-4.09605e-05
-1.78616e-06
-3.88537e-05
-3.11521e-06
-3.60498e-05
-4.44938e-06
-3.23988e-05
-2.77146e-05
-5.66691e-06
-6.67735e-07
-3.94921e-05
-1.14648e-06
-4.2155e-05
-1.45587e-06
-4.2877e-05
-1.62358e-06
-4.32008e-05
-1.67575e-06
-4.34047e-05
-1.63876e-06
-4.35746e-05
-1.54013e-06
-4.37435e-05
-1.40883e-06
-4.39219e-05
-1.27542e-06
-4.4107e-05
-1.17167e-06
-4.42863e-05
-1.12991e-06
-4.44388e-05
-1.18202e-06
-4.45358e-05
-1.35793e-06
-4.45412e-05
-1.6838e-06
-4.4412e-05
-2.17967e-06
-4.40983e-05
-2.85713e-06
-4.35442e-05
-3.71697e-06
-4.26877e-05
-4.74699e-06
-4.14608e-05
-5.91944e-06
-3.97881e-05
-7.18883e-06
-3.75843e-05
-8.48883e-06
-3.47498e-05
-9.72718e-06
-3.11605e-05
-2.66613e-05
-1.07804e-05
-8.35018e-07
-3.86571e-05
-1.5176e-06
-4.14725e-05
-2.05697e-06
-4.23377e-05
-2.4765e-06
-4.27813e-05
-2.7996e-06
-4.30816e-05
-3.05017e-06
-4.3324e-05
-3.253e-06
-4.35407e-05
-3.43393e-06
-4.3741e-05
-3.61983e-06
-4.39211e-05
-3.83816e-06
-4.4068e-05
-4.11629e-06
-4.41607e-05
-4.48052e-06
-4.41716e-05
-4.95473e-06
-4.40671e-05
-5.55877e-06
-4.3808e-05
-6.30655e-06
-4.33506e-05
-7.20406e-06
-4.26467e-05
-8.24737e-06
-4.16445e-05
-9.4205e-06
-4.02877e-05
-1.06933e-05
-3.85154e-05
-1.20186e-05
-3.62591e-05
-1.33299e-05
-3.34386e-05
-1.4536e-05
-2.99545e-05
-2.56821e-05
-1.5515e-05
-9.7106e-07
-3.76861e-05
-1.8231e-06
-4.06205e-05
-2.55592e-06
-4.16049e-05
-3.18918e-06
-4.21481e-05
-3.74384e-06
-4.2527e-05
-4.24145e-06
-4.28265e-05
-4.70424e-06
-4.30779e-05
-5.15516e-06
-4.32901e-05
-5.6177e-06
-4.34586e-05
-6.11548e-06
-4.35703e-05
-6.67151e-06
-4.36047e-05
-7.30725e-06
-4.35359e-05
-8.04146e-06
-4.33329e-05
-8.88873e-06
-4.29608e-05
-9.85801e-06
-4.23813e-05
-1.09509e-05
-4.15539e-05
-1.21601e-05
-4.04353e-05
-1.34673e-05
-3.89805e-05
-1.48416e-05
-3.7141e-05
-1.62373e-05
-3.48635e-05
-1.75901e-05
-3.20859e-05
-1.88135e-05
-2.87311e-05
-2.47007e-05
-1.97948e-05
-1.07543e-06
-3.66107e-05
-2.06303e-06
-3.96329e-05
-2.95394e-06
-4.0714e-05
-3.7642e-06
-4.13378e-05
-4.5124e-06
-4.17788e-05
-5.21776e-06
-4.21211e-05
-5.90009e-06
-4.23956e-05
-6.57961e-06
-4.26106e-05
-7.27679e-06
-4.27615e-05
-8.01182e-06
-4.28353e-05
-8.8039e-06
-4.28127e-05
-9.67039e-06
-4.26695e-05
-1.06257e-05
-4.23776e-05
-1.16801e-05
-4.19063e-05
-1.28387e-05
-4.12228e-05
-1.40996e-05
-4.02929e-05
-1.54533e-05
-3.90817e-05
-1.68806e-05
-3.75532e-05
-1.83515e-05
-3.56702e-05
-1.98226e-05
-3.33924e-05
-2.12351e-05
-3.06734e-05
-2.25105e-05
-2.74557e-05
-2.36655e-05
-2.35455e-05
-1.14837e-06
-3.54623e-05
-2.23839e-06
-3.85429e-05
-3.25313e-06
-3.96993e-05
-4.20507e-06
-4.03859e-05
-5.11027e-06
-4.08737e-05
-5.98563e-06
-4.12458e-05
-6.84854e-06
-4.15327e-05
-7.71675e-06
-4.17424e-05
-8.60797e-06
-4.18703e-05
-9.53938e-06
-4.19039e-05
-1.05269e-05
-4.18252e-05
-1.15844e-05
-4.1612e-05
-1.27226e-05
-4.12394e-05
-1.39484e-05
-4.06806e-05
-1.52636e-05
-3.99077e-05
-1.6664e-05
-3.88926e-05
-1.81385e-05
-3.76071e-05
-1.96681e-05
-3.60236e-05
-2.12243e-05
-3.4114e-05
-2.27681e-05
-3.18487e-05
-2.42468e-05
-2.91947e-05
-2.55915e-05
-2.6111e-05
-2.25438e-05
-2.67131e-05
-1.19059e-06
-3.42718e-05
-2.35101e-06
-3.73825e-05
-3.45674e-06
-3.85936e-05
-4.51653e-06
-3.93262e-05
-5.5438e-06
-3.98464e-05
-6.55306e-06
-4.02366e-05
-7.5594e-06
-4.05264e-05
-8.57823e-06
-4.07236e-05
-9.62481e-06
-4.08237e-05
-1.07137e-05
-4.0815e-05
-1.1858e-05
-4.06809e-05
-1.30687e-05
-4.04014e-05
-1.43533e-05
-3.99548e-05
-1.5716e-05
-3.93179e-05
-1.71561e-05
-3.84677e-05
-1.86674e-05
-3.73812e-05
-2.02383e-05
-3.60363e-05
-2.18499e-05
-3.44119e-05
-2.34765e-05
-3.24875e-05
-2.5083e-05
-3.02422e-05
-2.66244e-05
-2.76533e-05
-2.80424e-05
-2.46931e-05
-2.13255e-05
-2.92606e-05
-1.20362e-06
-3.30682e-05
-2.40398e-06
-3.61822e-05
-3.56935e-06
-3.74283e-05
-4.70475e-06
-3.81908e-05
-5.82081e-06
-3.87304e-05
-6.92964e-06
-3.91278e-05
-8.04414e-06
-3.9412e-05
-9.17758e-06
-3.95902e-05
-1.03431e-05
-3.96583e-05
-1.1553e-05
-3.96052e-05
-1.28179e-05
-3.9416e-05
-1.41463e-05
-3.9073e-05
-1.55435e-05
-3.85577e-05
-1.70109e-05
-3.78506e-05
-1.85458e-05
-3.69328e-05
-2.0141e-05
-3.57861e-05
-2.17839e-05
-3.43934e-05
-2.34568e-05
-3.27391e-05
-2.51359e-05
-3.08084e-05
-2.67912e-05
-2.8587e-05
-2.83843e-05
-2.60602e-05
-2.98672e-05
-2.32102e-05
-2.00133e-05
-3.11793e-05
-1.18944e-06
-3.18788e-05
-2.40137e-06
-3.49703e-05
-3.59691e-06
-3.62328e-05
-4.77739e-06
-3.70104e-05
-5.95064e-06
-3.75572e-05
-7.12648e-06
-3.7952e-05
-8.31579e-06
-3.82227e-05
-9.52996e-06
-3.83761e-05
-1.07803e-05
-3.8408e-05
-1.20772e-05
-3.83083e-05
-1.34294e-05
-3.80638e-05
-1.48431e-05
-3.76594e-05
-1.63215e-05
-3.70793e-05
-1.78641e-05
-3.63079e-05
-1.94667e-05
-3.53302e-05
-2.11206e-05
-3.41321e-05
-2.28131e-05
-3.2701e-05
-2.4527e-05
-3.10252e-05
-2.62408e-05
-2.90946e-05
-2.79282e-05
-2.68996e-05
-2.95576e-05
-2.44308e-05
-3.10907e-05
-2.16772e-05
-1.86252e-05
-3.24786e-05
-1.15082e-06
-3.0728e-05
-2.34847e-06
-3.37727e-05
-3.54675e-06
-3.50345e-05
-4.74353e-06
-3.58136e-05
-5.94406e-06
-3.63567e-05
-7.15606e-06
-3.674e-05
-8.38869e-06
-3.69901e-05
-9.6518e-06
-3.7113e-05
-1.09552e-05
-3.71046e-05
-1.23077e-05
-3.69558e-05
-1.37164e-05
-3.66552e-05
-1.51857e-05
-3.619e-05
-1.67172e-05
-3.55478e-05
-1.83088e-05
-3.47164e-05
-1.99545e-05
-3.36844e-05
-2.1645e-05
-3.24417e-05
-2.33669e-05
-3.09791e-05
-2.51035e-05
-2.92886e-05
-2.68349e-05
-2.73632e-05
-2.85382e-05
-2.51964e-05
-3.01869e-05
-2.27822e-05
-3.17504e-05
-2.01136e-05
-1.71826e-05
-3.31929e-05
-1.09079e-06
-2.96373e-05
-2.2515e-06
-3.2612e-05
-3.42752e-06
-3.38585e-05
-4.61373e-06
-3.46274e-05
-5.81324e-06
-3.51572e-05
-7.03216e-06
-3.55211e-05
-8.27835e-06
-3.57439e-05
-9.56055e-06
-3.58308e-05
-1.08874e-05
-3.57778e-05
-1.22665e-05
-3.55768e-05
-1.37035e-05
-3.52182e-05
-1.52016e-05
-3.46919e-05
-1.67608e-05
-3.39887e-05
-1.83776e-05
-3.30996e-05
-2.00452e-05
-3.20169e-05
-2.17529e-05
-3.0734e-05
-2.34871e-05
-2.92449e-05
-2.5231e-05
-2.75447e-05
-2.69656e-05
-2.56286e-05
-2.86699e-05
-2.34921e-05
-3.03216e-05
-2.11304e-05
-3.18971e-05
-1.85383e-05
-1.57112e-05
-3.33683e-05
-1.01332e-06
-2.8624e-05
-2.11812e-06
-3.15073e-05
-3.24942e-06
-3.27273e-05
-4.4e-06
-3.34769e-05
-5.57169e-06
-3.39855e-05
-6.76975e-06
-3.43231e-05
-8.00135e-06
-3.45124e-05
-9.27451e-06
-3.45577e-05
-1.05971e-05
-3.44552e-05
-1.19757e-05
-3.41982e-05
-1.34151e-05
-3.37788e-05
-1.49172e-05
-3.31898e-05
-1.64811e-05
-3.24248e-05
-1.81022e-05
-3.14785e-05
-1.97727e-05
-3.03464e-05
-2.14814e-05
-2.90253e-05
-2.32137e-05
-2.75126e-05
-2.49526e-05
-2.58058e-05
-2.66789e-05
-2.39023e-05
-2.83728e-05
-2.17983e-05
-3.00143e-05
-1.9489e-05
-3.15841e-05
-1.69683e-05
-1.42314e-05
-3.30639e-05
-9.23168e-07
-2.7701e-05
-1.95742e-06
-3.04731e-05
-3.02422e-06
-3.16605e-05
-4.11583e-06
-3.23853e-05
-5.23427e-06
-3.28671e-05
-6.385e-06
-3.31724e-05
-7.57525e-06
-3.33221e-05
-8.81283e-06
-3.33201e-05
-1.01051e-05
-3.3163e-05
-1.14579e-05
-3.28453e-05
-1.28753e-05
-3.23615e-05
-1.43583e-05
-3.17068e-05
-1.59053e-05
-3.08779e-05
-1.75112e-05
-2.98725e-05
-1.91678e-05
-2.86899e-05
-2.08631e-05
-2.73299e-05
-2.25823e-05
-2.57935e-05
-2.43072e-05
-2.40809e-05
-2.60179e-05
-2.21916e-05
-2.76937e-05
-2.01224e-05
-2.93157e-05
-1.7867e-05
-3.08678e-05
-1.54162e-05
-1.27627e-05
-3.23365e-05
-8.27212e-07
-2.68738e-05
-1.78078e-06
-2.95196e-05
-2.76561e-06
-3.06758e-05
-3.77621e-06
-3.13748e-05
-4.81703e-06
-3.18264e-05
-5.89516e-06
-3.20943e-05
-7.01868e-06
-3.21986e-05
-8.19555e-06
-3.21433e-05
-9.43277e-06
-3.19258e-05
-1.07357e-05
-3.15425e-05
-1.21075e-05
-3.09897e-05
-1.35489e-05
-3.02654e-05
-1.5058e-05
-2.93688e-05
-1.66298e-05
-2.83007e-05
-1.82562e-05
-2.70635e-05
-1.99253e-05
-2.56608e-05
-2.16217e-05
-2.4097e-05
-2.33266e-05
-2.23761e-05
-2.50179e-05
-2.05002e-05
-2.66732e-05
-1.84672e-05
-2.82715e-05
-1.62688e-05
-2.97978e-05
-1.38898e-05
-1.13153e-05
-3.12451e-05
-7.3491e-07
-2.6139e-05
-1.60245e-06
-2.86521e-05
-2.48932e-06
-2.97889e-05
-3.3974e-06
-3.04667e-05
-4.33697e-06
-3.08868e-05
-5.31846e-06
-3.11128e-05
-6.35139e-06
-3.11657e-05
-7.44394e-06
-3.10507e-05
-8.60263e-06
-3.07671e-05
-9.83214e-06
-3.0313e-05
-1.11351e-05
-2.96867e-05
-1.25122e-05
-2.88883e-05
-1.39617e-05
-2.79193e-05
-1.54794e-05
-2.6783e-05
-1.70581e-05
-2.54848e-05
-1.86873e-05
-2.40317e-05
-2.0352e-05
-2.24323e-05
-2.20326e-05
-2.06955e-05
-2.37048e-05
-1.8828e-05
-2.53415e-05
-1.68305e-05
-2.69177e-05
-1.46925e-05
-2.84177e-05
-1.23899e-05
-9.89445e-06
-2.98384e-05
-6.60992e-07
-2.5478e-05
-1.44118e-06
-2.7872e-05
-2.21325e-06
-2.90169e-05
-2.99641e-06
-2.96836e-05
-3.81153e-06
-3.00717e-05
-4.67384e-06
-3.02505e-05
-5.59427e-06
-3.02453e-05
-6.58068e-06
-3.00643e-05
-7.63862e-06
-2.97092e-05
-8.77177e-06
-2.91798e-05
-9.98227e-06
-2.84762e-05
-1.12708e-05
-2.75998e-05
-1.26366e-05
-2.65535e-05
-1.40773e-05
-2.53424e-05
-1.55879e-05
-2.39741e-05
-1.71605e-05
-2.24591e-05
-1.87823e-05
-2.08105e-05
-2.04341e-05
-1.90436e-05
-2.20894e-05
-1.71727e-05
-2.3715e-05
-1.52048e-05
-2.52773e-05
-1.31302e-05
-2.6756e-05
-1.0911e-05
-8.4931e-06
-2.81573e-05
-6.33214e-07
-2.48449e-05
-1.32226e-06
-2.7183e-05
-1.9569e-06
-2.83823e-05
-2.58969e-06
-2.90508e-05
-3.25745e-06
-2.9404e-05
-3.98036e-06
-2.95276e-05
-4.76927e-06
-2.94564e-05
-5.6302e-06
-2.92034e-05
-6.56666e-06
-2.87728e-05
-7.58083e-06
-2.81657e-05
-8.67417e-06
-2.73829e-05
-9.84779e-06
-2.64262e-05
-1.11024e-05
-2.52988e-05
-1.24383e-05
-2.40065e-05
-1.38544e-05
-2.2558e-05
-1.53474e-05