/*--------------------------------*- C++ -*----------------------------------*\
  =========                 |
  \\      /  F ield         | OpenFOAM: The Open Source CFD Toolbox
   \\    /   O peration     | Website:  https://openfoam.org
    \\  /    A nd           | Version:  13
     \\/     M anipulation  |
\*---------------------------------------------------------------------------*/
FoamFile
{
    format      ascii;
    class       volScalarField;
    location    "0.55";
    object      rho;
}
// * * * * * * * * * * * * * * * * * * * * * * * * * * * * * * * * * * * * * //

dimensions      [1 -3 0 0 0 0 0];

internalField   nonuniform List<scalar> 
2268
(
13529
13529
13529
13529
13529
13529
13529
13529
13529
13529
13529
13529
13529
13529
13529
13529
13529
13529
13529
13529
13529
13528.5
13521.6
13529
13529
13529
13529
13529
13529
13529
13529
13529
13529
13529
13529
13529
13529
13529
13529
13529
13529
13529
13529
13529
13528.9
13521.6
13529
13529
13529
13529
13529
13529
13529
13529
13529
13529
13529
13529
13529
13529
13529
13529
13529
13529
13529
13529
13529
13529
13521.6
13481.8
13487
13491.3
13505.3
13522
13529
13529
13529
13529
13529
13529
13529
13529
13529
13529
13529
13529
13529
13529
13529
13529
13529
13525.3
6783.09
7023.03
7101.64
7352.86
7809.52
8435.69
9219.54
9942.17
10766.7
11689.8
12612.8
13410.7
13529
13529
13529
13529
13529
13529
13529
13529
13529
13529
13529
1000
1000
1000
1000
1000
1000
1000
1254.57
1677.62
2369
3544.88
5620.31
8895.03
12149.1
13529
13529
13529
13529
13529
13529
13529
13529
13529
1000
1000
1000
1000
1000
1000
1000
1000
1000
1000
1000
1000
1297.71
2913.92
7326.86
12173.9
13529
13529
13529
13529
13529
13529
13529
1000
1000
1000
1000
1000
1000
1000
1000
1000
1000
1000
1000
1000
1000
1052.33
3507.92
10215.3
13529
13529
13529
13529
13529
13529
499.997
499.956
497.033
484.43
461.412
394.884
298.475
149.778
648.589
676.031
645.472
642.164
2496.08
4631.54
4500.86
1717.33
947.808
626.9
434.613
499.997
499.997
415.894
300.506
257.584
138.602
161.592
443.097
2542.1
4272.03
4142.19
5411.77
8358.12
8679.12
8638.16
6402.38
995.706
545.993
456.238
499.997
499.998
446.093
345.424
559.424
1503.18
2106.94
4452.42
7629.42
9701.23
9461.79
8945.09
8142.03
8469.83
8725.79
6522.81
1068.39
436.348
489.769
499.997
499.989
493.492
1280.31
3758.52
5877.38
6888.57
9359.56
9787.19
9626.91
8119.86
4029.6
1387.05
2146.06
5487.3
3829.01
1105.65
415.959
495.412
499.997
497.683
4151.49
9440.13
11951.3
11607.8
10931.8
8499.57
8323.92
7191.54
1800.76
500.505
500.05
499.999
742.642
1452.79
669.063
466.926
496.592
499.997
5200.64
12282
12667.7
12627
9887.8
5218.25
1464.95
1263.49
1056.55
773.303
514.594
500.051
499.615
557.691
612.677
383.283
499.075
464.893
6854.53
12181.6
12679.3
12578.3
8715.95
2616.06
1124.67
1099.44
1034.63
912.375
549.008
517.003
500.081
490.272
486.376
390.383
490.87
499.983
436.907
12712.4
12710
10649.4
6104.66
1446.34
990.942
1046.3
1037.36
995.132
833.397
521.457
503.505
500.076
453.231
372.105
480.431
500.006
500.035
437.206
1000
1000
1000
1000
1000
1000
1000
1000
1000
1000
1000
1000
1000
1000
1000
1000
1452.69
4891.05
9637.12
13190.3
13527.2
13526.5
13526.5
1000
1000
1000
1000
1000
1000
1000
1000
1000
1000
1000
1000
1000
1000
1000
1000
1000
1000
1246.31
2752.69
5174.56
8022.54
9548.19
1000
1000
1000
1000
1000
1000
1000
1000
1000
1000
1000
1000
1000
1000
1000
1000
1000
1000
1000
1000
1000
999.997
999.993
746.511
757.675
790.582
837.089
887.962
935.555
973.308
995.374
1000
1000
1000
1000
1000
1000
1000
1000
1000
1000
1000
1000
1000
999.994
999.977
49.657
58.0888
73.9849
107.788
159.943
234.514
337.804
477.537
649.511
788.165
904.148
977.7
999.587
1000
1000
1000
1000
1000
1000
1000
1000
1000
1000
1
1
1
1
1
1
1
1
4.35808
64.9778
166.195
327.716
555.031
776.651
909.605
970.64
990.07
997.614
998.328
998.42
998.245
994.49
971.66
1
1
1
1
1
1
1
1
1
1
1
1
1
13.7333
78.1821
185.15
339.989
484.162
505.853
504.555
500.875
455.79
340.024
1
1
1
1
1
1
1
1
1
1
1
1
1
1.00027
1.00332
1.00999
1.02105
1.04143
1.055
1.05592
1.04653
1.02342
1.01184
1
1
1
1
1
1
1
1
1
1
1
1
1
1.00001
1.00001
1.00001
1.00001
1.00001
1.04306
1.05618
1.05231
1.02229
0.999999
1
1
1
1
1
1
1
1
1
1
1
1
1
1.00001
1.00002
1.00003
1.00002
1.00001
1
1.02169
1.00828
1.00004
1
1
1
1
1
1
1
1
1
1
1
1
1
1
1.00001
1.00004
1.00004
1.00004
1.00001
1
1
1
1
1
1
1
1
1
1
1
1
1
1
1
1
1
1
1
1.00001
1.00002
1.00002
1.00001
1
1
1
1
1
1
1
1
1
1
1
1
1
1
1
1
1
1
1
1
1
1
1
1
1
1
1
1
1
1
1
1
1
1
1
1
1
1
1
1
1
1
1
1
1
1
1
1
1
1
1
1
1
1
1
1
1
1
1
1
1
1
1
1
1
1
1
1
1
1
1
1
1
1
1
1
1
1
1
1
1
1
1
1
1
1
1
1
1
1
1
1
1
1
1
1
1
1
1
1
1
1
1
1
1
1
1
1
1
1
1
1
1
1
1
1
1
1
1
1
1
1
1
1
1
1
1
1
1
1
1
1
1
1
1
1
1
1
1
1
1
1
1
1
1
1
1
1
1
1
1
1
1
1
1
1
1
1
1
1
1
1
1
1
1
1
1
1
1
1
1
1
1
1
1
1
1
1
1
1
1
1
1
1
1
1
1
1
1
1
1
1
1
1
1
1
1
1
1
1
1
1
1
1
1
1
1
1
1
1
1
1
1
1
1
1
1
1
1
1
1
1
1
1
1
1
1
1
1
1
1
1
1
1
1
1
1
1
1
1
1
1
1
1
1
1
1
1
1
1
1
1
1
1
1
1
1
1
1
1
1
1
1
1
1
1
1
1
1
1
1
1
1
1
1
1
1
1
1
1
1
1
1
1
1
1
1
1
1
1
1
1
1
1
1
1
1
1
1
1
1
1
1
1
1
1
1
1
1
1
1
1
1
1
1
1
1
1
1
1
1
1
1
1
1
1
1
1
1
1
1
1
1
1
1
1
1
1
1
1
1
1
1
1
1
1
1
1
1
1
1
1
1
1
1
1
1
1
1
1
1
1
1
1
1
1
1
1
1
1
1
1
1
1
1
1
1
1
1
1
1
1
1
1
1
1
1
1
1
1
1
1
1
1
1
1
1
1
1
1
1
1
1
1
1
1
1
1
1
1
1
1
1
1
1
1
1
1
1
1
1
1
1
1
1
1
1
1
1
1
1
1
1
1
1
1
1
1
1
1
1
1
1
1
1
1
1
1
1
1
1
1
1
1
1
1
1
1
1
1
1
1
1
1
1
1
1
1
1
1
1
1
1
1
1
1
1
1
1
1
1
1
1
1
1
1
1
1
1
1
1
1
1
1
1
1
1
1
1
1
1
1
1
1
1
1
1
1
1
1
1
1
1
1
1
1
1
1
1
1
1
1
1
1
1
1
1
1
1
1
1
1
1
1
1
1
1
1
1
1
1
1
1
1
1
1
1
1
1
1
1
1
1
1
1
1
1
1
1
1
1
1
1
1
1
1
1
1
1
1
1
1
1
1
1
1
1
1
1
1
1
1
1
1
1
1
1
1
1
1
1
1
1
1
1
1
1
1
1
1
1
1
1
1
1
1
1
1
1
1
1
1
1
1
1
1
1
1
1
1
1
1
1
1
1
1
1
1
1
1
1
1
1
1
1
1
1
1
1
1
1
1
1
1
1
1
1
1
1
1
1
1
1
1
1
1
1
1
1
1
1
1
1
1
1
1
1
1
1
1
1
1
1
1
1
1
1
1
1
1
1
1
1
1
1
1
1
1
1
1
1
1
1
1
1
13516.9
13510.6
13483
13399.3
9115.17
8378.66
7708.46
6530.32
999.992
999.769
998.337
996.684
999.979
999.985
999.939
999.905
1000
1000
1000
986.981
936.464
866.268
638.823
419.526
221.746
97.8575
1.29023
1.42506
1.0251
1.13393
1.27107
1.2431
1.00002
1
1.00003
1.00006
1
1.00001
1.00002
1.00005
1
1
1.00001
1.00001
1
1
1
1
1
1
1
1
1
1
1
1
1
1
1
1
1
1
1
1
1
1
1
1
1
1
1
1
1
1
1
1
1
1
1
1
1
1
1
1
1
1
1
1
1
1
1
1
1
1
1
1
1
1
1
1
1
1
1
1
1
1
1
1
1
1
1
1
1
1
1
1
1
1
1
1
1
1
1
1
1
1
1
1
1
1
1
1
1
1
1
1
1
1
1
1
1
1
1
1
1
1
1
1
1
1
1
1
1
1
1
1
1
1
1
1
1
1
1
1
1
1
1
1
11501.9
6640.6
2940.46
984.634
993.166
992.688
992.273
991.793
932.491
628.517
501.099
501.139
500.418
419.309
326.455
480.937
500.014
499.975
436.907
1843.48
998.906
999.95
999.835
999.64
974.545
891.733
776.481
580.209
500.001
500.001
500.018
500.029
498.019
459.161
486.992
500.038
499.962
475.483
999.012
999.982
999.932
983.864
856.682
663.623
509.747
499.472
499.824
500.013
500
500
500
500
500
498.202
500.024
499.999
500
999.224
966.379
878.448
681.086
496.473
494.853
499.637
500.002
500.024
500.023
500.004
500
500
500
500
500
499.998
500
500
901.549
655.476
433.651
428.813
420.494
375.382
347.872
378.793
446.561
496.61
500.001
500
500
500
500
500
499.996
500
500
413.38
304.857
256.763
142.275
72.1065
35.0828
19.6811
43.4785
144.916
424.566
500
500.001
500.001
500
500
500
500
500
500
36.5305
141.198
24.2221
1.00577
1.00619
1.00493
1.00363
1.00113
12.0924
287.647
500
500.001
500.001
500
500
500
500
500
500
1.00004
1.00021
1.0039
1.00679
1.00687
1.00243
1.00235
1.00077
1.00007
133.835
486.913
500.001
500
500
500
500
500
500
500
1.00012
1.00059
1.00119
1.00579
1.00207
1.00077
1.00102
1.0005
1.00005
32.0975
384.188
500
500
500
500
500
500
500
500
1.00011
1.00003
1.00001
1
1.00026
1.00018
1.00014
1.00017
1.00005
1.56675
235.75
500
500
499.999
500
500
500
500
500
1.00001
1
1
1
1.00002
1.00004
1.00003
1.00006
1.00002
1.00007
90.9499
466.599
500
499.991
499.972
499.996
500
500
500
1
1
1
1.00001
1.00002
1.00003
1.00003
1.00004
1.00002
1.00005
24.1538
372.706
500
499.99
499.909
499.916
500
500
500
1
1
1
1.00001
1.00002
1.00003
1.00005
1.00003
1.00001
1.00001
7.52294
315.919
500
499.998
499.924
499.909
499.999
500
500
1
1
1
1.00001
1.00001
1.00002
1.00007
1.0012
1.00118
1.00004
4.96116
299.404
500
500
499.981
499.938
499.981
500
500
1
1
1
1
1.00001
1.00002
1.00005
1.00251
1.00471
1.00005
1.41499
250.04
500
500
500
499.995
499.984
500
500
1
1
1
1
1
1.00001
1.00004
1.0021
1.0048
1.00166
1.00036
117.59
476.726
500
500
500
499.999
499.999
500
1
1
1
1
1
1
1.00002
1.00081
1.00482
1.00482
1.00059
9.27023
301.337
500
500
500
499.999
499.999
500
1
1
1
1
1
1
1.00001
1.00008
1.00325
1.00477
1.00046
1.00024
34.2258
370.433
500
500
500
500
500
1
1
1
1
1
1
1
1.00003
1.0001
1.00138
1.00038
1.00005
1.00027
28.472
327.411
500
500
499.977
499.587
1
1
1
1
1
1
1
1.00001
1.00003
1.00001
1.00008
1.00003
1.00004
1.0002
10.8633
232.682
463.96
499.503
498.493
1
1
1
1
1
1
1
1
1.00002
1.00001
1.00001
1.00003
1.00003
1.00002
1.0001
1.00004
106.593
297.994
498.513
1
1
1
1
1
1
1
1
1.00001
1.00001
1.00001
1.00002
1.00002
1.00002
1.00002
1.00002
1.00004
49.3477
498.514
1
1
1
1
1
1
1
1
1
1
1.00001
1.00002
1.00002
1.00001
1.00001
1.00003
1.00001
50.4651
338.801
1
1
1
1
1
1
1
1
1
1
1.00001
1.00001
1.00001
1.00001
1.00001
1.00002
1.00001
9.21587
50.5534
1
1
1
1
1
1
1
1
1
1
1
1.00001
1.00001
1.00001
1.00001
1.00001
1.00003
1.02019
66.5472
1
1
1
1
1
1
1
1
1
1
1
1.00001
1.00001
1.00001
1.00001
1.00001
1.00001
1.00004
379.698
1
1
1
1
1
1
1
1
1
1
1
1.00001
1.00001
1.00001
1.00001
1.00001
1.00001
1.00003
460.766
1
1
1
1
1
1
1
1
1
1
1
1.00001
1.00001
1.00001
1.00001
1.00001
1.00001
4.55794
466.503
1
1
1
1
1
1
1
1
1.00001
1.00001
1.00001
1.00001
1.00001
1.00001
1.00001
1.00001
1.00001
24.2314
466.242
1
1
1
1
1
1
1
1
1.00001
1.00001
1.00001
1.00001
1.00001
1.00001
1.00001
1.00001
1.00002
79.6569
466.503
1
1
1
1
1
1
1
1
1.00001
1.00001
1.00002
1.00001
1.00001
1.00001
1.00001
1.00001
1.13612
113.848
310.722
1
1
1
1
1
1
1
1
1
1.00001
1.00002
1.00003
1.00002
1.00001
1.00001
1.00007
6.01811
22.8203
1.00003
1
1
1
1
1
1
1
1
1
1.00001
1.00002
1.00007
1.00007
1.00005
1.00001
1.00003
1.00012
1.0001
1.00004
1
1
1
1
1
1
1
1
1
1.00001
1.00002
1.00006
1.00012
1.00011
1.00006
1.00002
1.00344
1.00188
1.00019
1
1
1
1
1
1
1
1
1
1
1.00001
1.00003
1.00009
1.00012
1.00008
1.00022
1.0047
1.00309
1.0002
1
1
1
1
1
1
1
1
1
1
1.00001
1.00001
1.00005
1.0001
1.00008
1.00068
1.00466
1.0013
1.0001
1
1
1
1
1
1
1
1
1
1
1
1.00001
1.00002
1.00005
1.00007
1.00051
1.00056
1.00012
1
1
1
1
1
1
1
1
1
1
1
1
1
1.00001
1.00002
1.00005
1.00005
1.00006
1.00001
1
1
1
1
1
1
1
1
1
1
1
1
1
1
1.00001
1.00002
1.00001
1.00001
1
1
1
1
1
1
1
1
1
1
1
1
1
1
1
1
1.00001
1
1
1
1
1
1
1
1
1
1
1
1
1
1
1
1
1
1
1
1
1
1
1
1
1
1
1
1
1
1
1
1
1
1
1
1
1
1
1
1
1
1
)
;

boundaryField
{
    leftWall
    {
        type            calculated;
        value           nonuniform List<scalar> 
50
(
13529
13529
13529
13481.8
6783.09
1000
1000
1000
1000
1000
1000
746.511
49.657
1
1
1
1
1
1
1
1
1
1
1
1
1
1
1
1
1
1
1
1
1
1
1
1
1
1
1
1
1
1
1
1
1
1
1
1
1
)
;
    }
    rightWall
    {
        type            calculated;
        value           nonuniform List<scalar> 
50
(
434.613
456.238
489.769
495.412
496.592
464.893
436.907
437.206
436.907
475.483
500
500
500
500
500
500
500
500
500
500
500
500
500
500
500
500
499.587
498.493
498.513
498.514
338.801
50.5534
66.5472
379.698
460.766
466.503
466.242
466.503
310.722
1.00003
1.00004
1.00019
1.0002
1.0001
1
1
1
1
1
1
)
;
    }
    lowerWall
    {
        type            calculated;
        value           nonuniform List<scalar> 
62
(
13529
13529
13529
13529
13529
13529
13529
13529
13529
13529
13529
13529
13529
13529
13529
13529
13529
13529
13529
13529
13529
13528.5
13521.6
13521.6
13521.6
13521.6
13525.3
13529
13529
13529
13529
13516.9
13510.6
13483
13399.3
499.997
499.997
499.997
499.997
499.997
499.997
6854.53
12712.4
499.997
499.956
497.033
484.43
461.412
394.884
298.475
149.778
648.589
676.031
645.472
642.164
2496.08
4631.54
4500.86
1717.33
947.808
626.9
434.613
)
;
    }
    atmosphere
    {
        type            calculated;
        value           nonuniform List<scalar> 
46
(
1
1
1
1
1
1
1
1
1
1
1
1
1
1
1
1
1
1
1
1
1
1
1
1
1
1
1
1
1
1
1
1
1
1
1
1
1
1
1
1
1
1
1
1
1
1
)
;
    }
    defaultFaces
    {
        type            empty;
    }
}


// ************************************************************************* //
