/*--------------------------------*- C++ -*----------------------------------*\
  =========                 |
  \\      /  F ield         | OpenFOAM: The Open Source CFD Toolbox
   \\    /   O peration     | Website:  https://openfoam.org
    \\  /    A nd           | Version:  13
     \\/     M anipulation  |
\*---------------------------------------------------------------------------*/
FoamFile
{
    format      ascii;
    class       volVectorField;
    location    "0.55";
    object      U;
}
// * * * * * * * * * * * * * * * * * * * * * * * * * * * * * * * * * * * * * //

dimensions      [0 1 -1 0 0 0 0];

internalField   nonuniform List<vector> 
2268
(
(-0.0257649 0.00677443 0)
(-0.00970454 -0.00883192 0)
(0.0222043 -0.0116349 0)
(0.0491717 -0.0101984 0)
(0.0738938 -0.00872228 0)
(0.0955796 -0.00751297 0)
(0.114385 -0.00647898 0)
(0.130354 -0.00547122 0)
(0.143183 -0.00437832 0)
(0.152318 -0.00312292 0)
(0.157139 -0.00168765 0)
(0.157239 -0.000195767 0)
(0.152471 0.00114796 0)
(0.143029 0.00251874 0)
(0.129522 0.00377298 0)
(0.112504 0.00501944 0)
(0.0926569 0.00609187 0)
(0.0709173 0.00717238 0)
(0.0480067 0.00827342 0)
(0.0241686 0.00945033 0)
(0.00195507 0.0112632 0)
(-0.0271728 0.0111772 0)
(-0.0366732 -0.0106679 0)
(-0.00324434 0.00959869 0)
(0.0235244 -0.0165818 0)
(0.0472708 -0.0197806 0)
(0.0691838 -0.0180958 0)
(0.0894519 -0.0159571 0)
(0.107652 -0.014004 0)
(0.123701 -0.0121047 0)
(0.137315 -0.0100133 0)
(0.147947 -0.00754352 0)
(0.154866 -0.00458258 0)
(0.157282 -0.00119821 0)
(0.154608 0.00231412 0)
(0.146729 0.00577031 0)
(0.133901 0.00899927 0)
(0.116855 0.0117356 0)
(0.0964546 0.014119 0)
(0.0739113 0.015674 0)
(0.0508745 0.016567 0)
(0.0288273 0.0166845 0)
(0.00917663 0.0160449 0)
(-0.00469533 0.0150879 0)
(-0.0174642 0.0103254 0)
(-0.0109764 -0.0207077 0)
(0.0225708 -0.00143367 0)
(0.0430173 -0.0273492 0)
(0.0622671 -0.0297828 0)
(0.0796958 -0.0274348 0)
(0.0964097 -0.0245503 0)
(0.111965 -0.0217736 0)
(0.125958 -0.0188726 0)
(0.137811 -0.015486 0)
(0.146768 -0.0113675 0)
(0.151946 -0.00636414 0)
(0.152447 -0.000625731 0)
(0.147618 0.00541186 0)
(0.137352 0.0113366 0)
(0.122029 0.0165838 0)
(0.10267 0.0208572 0)
(0.0803637 0.0243573 0)
(0.0566724 0.0262624 0)
(0.0336156 0.0267402 0)
(0.0130221 0.0255647 0)
(-0.00313506 0.0227317 0)
(-0.0113549 0.0190011 0)
(-0.0151982 0.00999987 0)
(0.000174166 -0.0241737 0)
(0.0399051 -0.0237499 0)
(0.0535871 -0.0371491 0)
(0.0698978 -0.0376515 0)
(0.0842123 -0.034866 0)
(0.0985731 -0.0316262 0)
(0.112375 -0.02836 0)
(0.124944 -0.0247205 0)
(0.135528 -0.020227 0)
(0.1432 -0.0145524 0)
(0.146958 -0.00745723 0)
(0.145815 0.000936823 0)
(0.139072 0.00975504 0)
(0.126689 0.0183434 0)
(0.109269 0.0256443 0)
(0.0881431 0.0313009 0)
(0.0645725 0.0355157 0)
(0.0404113 0.0372426 0)
(0.0178704 0.0367601 0)
(-0.00111482 0.0336104 0)
(-0.0142396 0.0277568 0)
(-0.0186364 0.0203471 0)
(-0.0175317 0.00657823 0)
(0.0023355 -0.027507 0)
(0.0465035 -0.0437336 0)
(0.0554955 -0.0445801 0)
(0.0704754 -0.0432073 0)
(0.0832465 -0.0402384 0)
(0.0964776 -0.0368986 0)
(0.109355 -0.0333447 0)
(0.120927 -0.029159 0)
(0.130569 -0.0238349 0)
(0.137341 -0.0169616 0)
(0.140072 -0.00821975 0)
(0.137655 0.00241434 0)
(0.129358 0.0138416 0)
(0.115141 0.0254095 0)
(0.0959668 0.035431 0)
(0.0734605 0.0427758 0)
(0.0491341 0.0474017 0)
(0.0251876 0.0483887 0)
(0.0037752 0.0463223 0)
(-0.0132269 0.0406917 0)
(-0.0234028 0.0314405 0)
(-0.0251627 0.0201046 0)
(-0.0215873 0.00158002 0)
(-7.6834e-05 -0.0321802 0)
(0.0341886 -0.0639406 0)
(0.0431149 -0.0487433 0)
(0.059629 -0.0473112 0)
(0.0719651 -0.0445461 0)
(0.0847779 -0.0411577 0)
(0.0971488 -0.0370834 0)
(0.108294 -0.0320431 0)
(0.117474 -0.0258542 0)
(0.123841 -0.0177086 0)
(0.126287 -0.00739057 0)
(0.12372 0.00504147 0)
(0.115521 0.0181643 0)
(0.101655 0.0312247 0)
(0.0823123 0.0431978 0)
(0.0591919 0.0528835 0)
(0.0345663 0.0589535 0)
(0.0116288 0.0591487 0)
(-0.00782166 0.0550814 0)
(-0.0220254 0.046532 0)
(-0.0289617 0.0337682 0)
(-0.0284641 0.0190701 0)
(-0.0238038 -0.00379144 0)
(-0.00321186 -0.0389597 0)
(0.00707396 -0.0821228 0)
(0.019487 -0.0614141 0)
(0.0334861 -0.0581995 0)
(0.044144 -0.0549032 0)
(0.0549316 -0.0515261 0)
(0.0656117 -0.047155 0)
(0.0761464 -0.0409523 0)
(0.0863918 -0.032649 0)
(0.0950426 -0.0214644 0)
(0.101065 -0.00744368 0)
(0.102886 0.00869232 0)
(0.0983334 0.025178 0)
(0.0853561 0.0395278 0)
(0.0653913 0.0516155 0)
(0.0436604 0.0610322 0)
(0.0216133 0.0674672 0)
(0.00101507 0.0679774 0)
(-0.015555 0.0623576 0)
(-0.0259838 0.0506362 0)
(-0.0288257 0.0344075 0)
(-0.0255713 0.0173011 0)
(-0.0194844 -0.00842722 0)
(-0.00119136 -0.0447441 0)
(-0.00327866 -0.0804168 0)
(0.00578157 -0.0655108 0)
(0.0162907 -0.0612468 0)
(0.0248055 -0.0576824 0)
(0.0335939 -0.0542352 0)
(0.0424404 -0.0499643 0)
(0.0513474 -0.0442168 0)
(0.0599194 -0.0362792 0)
(0.0674584 -0.0251903 0)
(0.0733761 -0.0104707 0)
(0.0767559 0.00796384 0)
(0.0760542 0.0297962 0)
(0.0694503 0.0520814 0)
(0.0555278 0.0675358 0)
(0.0325422 0.0727991 0)
(0.0106305 0.0760107 0)
(-0.00577323 0.074424 0)
(-0.0176821 0.0669892 0)
(-0.0233934 0.0525245 0)
(-0.0210788 0.032966 0)
(-0.0137599 0.0136377 0)
(-0.00389326 -0.0145965 0)
(0.0198316 -0.0408736 0)
(-0.231174 0.0772604 0)
(-0.346501 0.025022 0)
(-0.341318 -0.0155398 0)
(-0.233559 -0.0246062 0)
(-0.0557832 -0.013233 0)
(0.10358 0.0188622 0)
(0.299533 -0.0286752 0)
(0.615149 -0.0777807 0)
(0.877669 -0.115465 0)
(1.0354 -0.0723601 0)
(1.15557 -0.000701805 0)
(1.12903 0.028884 0)
(1.09918 0.000787143 0)
(1.14116 -0.0363 0)
(1.2267 -0.0611574 0)
(1.34793 -0.0424321 0)
(1.3893 0.011883 0)
(1.08966 0.106387 0)
(0.367624 0.20259 0)
(-0.200581 0.159227 0)
(-0.24789 0.0500208 0)
(-0.145523 -0.0454714 0)
(0.0318137 -0.090616 0)
(0.304964 -0.13324 0)
(0.596041 -0.176289 0)
(0.734424 -0.136061 0)
(0.806447 -0.124632 0)
(0.863837 -0.131519 0)
(0.929728 -0.0952504 0)
(0.996948 -0.0294099 0)
(1.03696 0.00592309 0)
(1.05334 -0.0117674 0)
(1.07878 -0.0467067 0)
(1.12336 -0.0631436 0)
(1.16327 -0.0243321 0)
(1.14891 0.131231 0)
(0.85672 0.308906 0)
(0.289285 0.40686 0)
(-0.171334 0.226596 0)
(-0.113917 0.0332282 0)
(0.107406 -0.122535 0)
(0.353496 -0.214415 0)
(0.56716 -0.252311 0)
(0.661532 -0.215163 0)
(0.72978 -0.165691 0)
(0.788564 -0.150818 0)
(0.836687 -0.150066 0)
(0.885808 -0.115486 0)
(0.941487 -0.050271 0)
(0.988426 -0.00753312 0)
(1.01614 -0.017507 0)
(1.02913 -0.0556708 0)
(1.04193 -0.0735973 0)
(1.048 -0.0226271 0)
(0.980123 0.200332 0)
(0.656825 0.481141 0)
(0.23639 0.602831 0)
(-0.138485 0.269404 0)
(0.114231 -0.0466164 0)
(0.381943 -0.257091 0)
(0.52825 -0.304049 0)
(0.602333 -0.286074 0)
(0.656258 -0.238996 0)
(0.710992 -0.189451 0)
(0.764819 -0.167867 0)
(0.806724 -0.165379 0)
(0.847924 -0.132731 0)
(0.897207 -0.065771 0)
(0.947446 -0.0173379 0)
(0.987056 -0.0174359 0)
(0.990696 -0.0641778 0)
(0.9697 -0.075374 0)
(0.933793 0.000159112 0)
(0.82213 0.26703 0)
(0.460594 0.647653 0)
(0.187319 0.764648 0)
(-0.0509263 0.319739 0)
(0.368155 -0.211975 0)
(0.486673 -0.306823 0)
(0.544048 -0.321854 0)
(0.592236 -0.302506 0)
(0.637411 -0.257117 0)
(0.686931 -0.208095 0)
(0.739924 -0.182685 0)
(0.779969 -0.179065 0)
(0.808698 -0.147404 0)
(0.845456 -0.0810747 0)
(0.899581 -0.0308834 0)
(0.916563 -0.0290774 0)
(0.921533 -0.0527941 0)
(0.877085 -0.0678052 0)
(0.767588 0.0484663 0)
(0.603637 0.377756 0)
(0.296461 0.765219 0)
(0.144909 0.879078 0)
(0.34066 0.148342 0)
(0.441484 -0.267382 0)
(0.498787 -0.322746 0)
(0.539881 -0.337295 0)
(0.576707 -0.317622 0)
(0.614089 -0.271343 0)
(0.659326 -0.222457 0)
(0.714009 -0.193129 0)
(0.756626 -0.188771 0)
(0.774151 -0.158526 0)
(0.786816 -0.10027 0)
(0.801454 -0.0531196 0)
(0.808626 -0.0336343 0)
(0.78498 -0.0351033 0)
(0.706858 -0.0148892 0)
(0.563937 0.119425 0)
(0.349017 0.511268 0)
(0.179834 0.831573 0)
(0.102697 0.957484 0)
(0.404484 -0.110384 0)
(0.448487 -0.283754 0)
(0.497264 -0.337882 0)
(0.530045 -0.35044 0)
(0.557481 -0.329719 0)
(0.587274 -0.284956 0)
(0.630913 -0.241625 0)
(0.676443 -0.223877 0)
(0.708997 -0.20819 0)
(0.718698 -0.167169 0)
(0.719361 -0.102268 0)
(0.719259 -0.0526735 0)
(0.710788 -0.025406 0)
(0.668305 -0.0092792 0)
(0.561859 0.0351772 0)
(0.374081 0.217285 0)
(0.202525 0.575832 0)
(0.100797 0.868072 0)
(0.0635754 1.00175 0)
(0.399654 -0.263614 0)
(0.437317 -0.314322 0)
(0.487854 -0.351948 0)
(0.517322 -0.361442 0)
(0.538594 -0.340268 0)
(0.564237 -0.304094 0)
(0.602592 -0.268454 0)
(0.639576 -0.238938 0)
(0.66078 -0.212255 0)
(0.66304 -0.164947 0)
(0.652771 -0.0981039 0)
(0.642245 -0.046665 0)
(0.619858 -0.0110355 0)
(0.563918 0.0250127 0)
(0.436227 0.0960612 0)
(0.257234 0.294322 0)
(0.115836 0.615856 0)
(0.047291 0.888216 0)
(0.0334052 1.02262 0)
(-0.00616519 -0.076733 0)
(-0.00466081 -0.0696064 0)
(0.000135505 -0.0655823 0)
(0.00484184 -0.0622492 0)
(0.0103966 -0.0589868 0)
(0.0163835 -0.054918 0)
(0.0226653 -0.049217 0)
(0.0289957 -0.0410878 0)
(0.035108 -0.029592 0)
(0.0407636 -0.014178 0)
(0.0457323 0.00537159 0)
(0.0495326 0.0286387 0)
(0.0510339 0.0543563 0)
(0.0481524 0.0804666 0)
(0.0375178 0.102849 0)
(0.0171495 0.101859 0)
(-0.00546179 0.0863394 0)
(-0.0107834 0.0721153 0)
(-0.0061256 0.0532203 0)
(0.00448788 0.0293892 0)
(0.0193901 0.00398098 0)
(0.0427127 -0.0325876 0)
(0.0774537 -0.0739415 0)
(-0.00611938 -0.0681642 0)
(-0.0107162 -0.0694236 0)
(-0.0109378 -0.0673353 0)
(-0.0103295 -0.0653548 0)
(-0.00812174 -0.0630321 0)
(-0.00491511 -0.0596402 0)
(-0.000857158 -0.0544048 0)
(0.00392064 -0.0464566 0)
(0.00929036 -0.0349926 0)
(0.0152097 -0.019613 0)
(0.0217813 -0.000234521 0)
(0.0292412 0.0227452 0)
(0.0373496 0.0481326 0)
(0.0456304 0.073811 0)
(0.053482 0.0964668 0)
(0.0595619 0.109572 0)
(0.0628639 0.104573 0)
(0.0581946 0.0725155 0)
(0.0545934 0.0439329 0)
(0.0684061 0.0153033 0)
(0.0981688 -0.01514 0)
(0.135081 -0.0565651 0)
(0.178828 -0.103899 0)
(-0.00412897 -0.0593289 0)
(-0.0139356 -0.0662525 0)
(-0.0173763 -0.0664794 0)
(-0.0197007 -0.0662565 0)
(-0.0198026 -0.0652235 0)
(-0.018467 -0.0628767 0)
(-0.0158385 -0.0586229 0)
(-0.0118779 -0.0516491 0)
(-0.00656066 -0.0410945 0)
(0.000157472 -0.026694 0)
(0.00854818 -0.00858652 0)
(0.0191481 0.0128925 0)
(0.0322836 0.0365148 0)
(0.0482263 0.0602018 0)
(0.067161 0.0804549 0)
(0.0884242 0.0918224 0)
(0.110463 0.0888801 0)
(0.130431 0.0668848 0)
(0.149594 0.0306973 0)
(0.168805 -0.0153923 0)
(0.193124 -0.057461 0)
(0.226376 -0.104058 0)
(0.26921 -0.159221 0)
(-0.00166588 -0.068419 0)
(-0.0181426 -0.0705371 0)
(-0.0222885 -0.0698932 0)
(-0.0258719 -0.0696585 0)
(-0.0269927 -0.0686476 0)
(-0.0267005 -0.0664944 0)
(-0.0250684 -0.0628103 0)
(-0.0218009 -0.0570109 0)
(-0.0163883 -0.0482374 0)
(-0.00857711 -0.0360944 0)
(0.00188906 -0.0206635 0)
(0.015467 -0.00225005 0)
(0.0327697 0.0182164 0)
(0.0542569 0.0383544 0)
(0.0801012 0.054909 0)
(0.10992 0.0633158 0)
(0.142587 0.0590044 0)
(0.176115 0.039584 0)
(0.209443 0.00653754 0)
(0.242684 -0.0397214 0)
(0.277789 -0.0951425 0)
(0.316734 -0.157997 0)
(0.358007 -0.223458 0)
(0.00164075 -0.037869 0)
(-0.027727 -0.0522852 0)
(-0.0323674 -0.0586967 0)
(-0.0362334 -0.0634546 0)
(-0.0365135 -0.0655389 0)
(-0.0349507 -0.0658118 0)
(-0.0320065 -0.0644775 0)
(-0.0275837 -0.0610945 0)
(-0.0217614 -0.0542614 0)
(-0.0128613 -0.0446459 0)
(-0.000234895 -0.0326913 0)
(0.0162858 -0.0189335 0)
(0.0374475 -0.00433039 0)
(0.0636692 0.00973031 0)
(0.0944811 0.0211229 0)
(0.129344 0.0255089 0)
(0.167935 0.0184662 0)
(0.208979 -0.00199895 0)
(0.250409 -0.0346297 0)
(0.29098 -0.0785458 0)
(0.331219 -0.131141 0)
(0.371204 -0.189441 0)
(0.409608 -0.24945 0)
(0.0435851 -0.00699845 0)
(-0.00911125 -0.0351407 0)
(-0.018708 -0.0492256 0)
(-0.0276123 -0.0590636 0)
(-0.0321939 -0.0628111 0)
(-0.0334555 -0.0638003 0)
(-0.0330495 -0.0633244 0)
(-0.0334588 -0.0608177 0)
(-0.0341018 -0.0538139 0)
(-0.0225887 -0.0493313 0)
(-0.00501272 -0.0419445 0)
(0.0185806 -0.0324582 0)
(0.0470953 -0.0221317 0)
(0.0790081 -0.0127914 0)
(0.113316 -0.00720954 0)
(0.151262 -0.00871858 0)
(0.193105 -0.0213001 0)
(0.237584 -0.0450596 0)
(0.282736 -0.0774938 0)
(0.326878 -0.119831 0)
(0.368952 -0.170143 0)
(0.407898 -0.223967 0)
(0.442173 -0.277218 0)
(0.0292347 -0.0699003 0)
(0.0472705 0.016644 0)
(0.0521367 -0.0241432 0)
(0.0534473 -0.0466103 0)
(0.0521569 -0.0594938 0)
(0.0478308 -0.0659946 0)
(0.039379 -0.0659637 0)
(0.0272999 -0.0640379 0)
(0.00925266 -0.0594176 0)
(-0.0163586 -0.0663585 0)
(-0.0112556 -0.0529116 0)
(0.0089176 -0.0398065 0)
(0.0414173 -0.026625 0)
(0.0857239 -0.0234103 0)
(0.129801 -0.0281238 0)
(0.175572 -0.0357798 0)
(0.222322 -0.0521493 0)
(0.267774 -0.0762299 0)
(0.313876 -0.107377 0)
(0.360345 -0.147898 0)
(0.40349 -0.195697 0)
(0.4417 -0.246222 0)
(0.475388 -0.296048 0)
(0.00391562 -0.0968521 0)
(0.0464817 -0.0514297 0)
(0.0722332 -0.0536361 0)
(0.0851231 -0.0584821 0)
(0.0918783 -0.0604779 0)
(0.0945742 -0.0584481 0)
(0.0953287 -0.0516883 0)
(0.0960574 -0.0402255 0)
(0.0966325 -0.043107 0)
(0.0975465 -0.0676381 0)
(0.101355 -0.106203 0)
(0.110344 -0.133744 0)
(0.131723 -0.149385 0)
(0.117334 -0.111688 0)
(0.131116 -0.0700221 0)
(0.18141 -0.0565122 0)
(0.2385 -0.0630212 0)
(0.293844 -0.083828 0)
(0.349518 -0.114666 0)
(0.40468 -0.155913 0)
(0.452706 -0.204822 0)
(0.491998 -0.256646 0)
(0.523998 -0.307231 0)
(0.00470943 -0.115904 0)
(0.0407062 -0.0815992 0)
(0.0691893 -0.0750577 0)
(0.0900529 -0.0725727 0)
(0.105344 -0.0695539 0)
(0.117197 -0.0646344 0)
(0.127944 -0.0576133 0)
(0.140997 -0.0507382 0)
(0.155279 -0.0492042 0)
(0.167847 -0.0622987 0)
(0.17631 -0.0785203 0)
(0.18132 -0.0897882 0)
(0.187428 -0.0965404 0)
(0.194886 -0.12003 0)
(0.219257 -0.175185 0)
(0.252585 -0.228727 0)
(0.289796 -0.254765 0)
(0.330327 -0.277436 0)
(0.369764 -0.307876 0)
(0.40355 -0.33829 0)
(0.429375 -0.364894 0)
(0.445096 -0.393459 0)
(0.448621 -0.421056 0)
(0.0071743 -0.13732 0)
(0.035765 -0.112571 0)
(0.0622224 -0.100686 0)
(0.0854302 -0.0931165 0)
(0.105541 -0.0866884 0)
(0.123702 -0.0802043 0)
(0.14157 -0.0736881 0)
(0.160852 -0.0687113 0)
(0.181506 -0.0693615 0)
(0.200423 -0.0768681 0)
(0.214864 -0.0875186 0)
(0.226218 -0.0963759 0)
(0.239544 -0.103106 0)
(0.258045 -0.113511 0)
(0.281339 -0.14123 0)
(0.303533 -0.173218 0)
(0.325079 -0.198827 0)
(0.348145 -0.222867 0)
(0.369817 -0.248901 0)
(0.386301 -0.275126 0)
(0.395552 -0.3004 0)
(0.396204 -0.326822 0)
(0.386782 -0.349358 0)
(0.00739638 -0.15678 0)
(0.0304998 -0.138922 0)
(0.0540485 -0.125731 0)
(0.0769387 -0.115925 0)
(0.0987205 -0.107845 0)
(0.119808 -0.100758 0)
(0.14107 -0.0947874 0)
(0.163264 -0.0910019 0)
(0.186039 -0.0912863 0)
(0.207517 -0.0966317 0)
(0.226313 -0.104906 0)
(0.243421 -0.113874 0)
(0.261532 -0.12358 0)
(0.282338 -0.138142 0)
(0.302997 -0.161602 0)
(0.31943 -0.18881 0)
(0.332728 -0.213902 0)
(0.344562 -0.237027 0)
(0.353767 -0.258954 0)
(0.358543 -0.278957 0)
(0.357588 -0.297132 0)
(0.349316 -0.31445 0)
(0.33105 -0.327145 0)
(0.00650616 -0.173426 0)
(0.0254203 -0.160891 0)
(0.0458762 -0.14836 0)
(0.0670709 -0.138176 0)
(0.0884087 -0.129753 0)
(0.109888 -0.122764 0)
(0.131843 -0.117372 0)
(0.154482 -0.114247 0)
(0.17742 -0.114386 0)
(0.19959 -0.118208 0)
(0.220255 -0.124879 0)
(0.239844 -0.133557 0)
(0.25945 -0.144591 0)
(0.279222 -0.159828 0)
(0.296901 -0.18077 0)
(0.310154 -0.204215 0)
(0.319301 -0.226619 0)
(0.325204 -0.246973 0)
(0.327576 -0.264953 0)
(0.325813 -0.279988 0)
(0.319233 -0.292044 0)
(0.306315 -0.301088 0)
(0.284582 -0.303802 0)
(0.00525546 -0.187233 0)
(0.0207265 -0.179216 0)
(0.0381228 -0.168254 0)
(0.0569516 -0.158725 0)
(0.076625 -0.150756 0)
(0.0969399 -0.144301 0)
(0.117928 -0.139539 0)
(0.139541 -0.136903 0)
(0.161419 -0.13693 0)
(0.182904 -0.139875 0)
(0.203498 -0.145454 0)
(0.223193 -0.153401 0)
(0.242166 -0.163973 0)
(0.260011 -0.177922 0)
(0.275199 -0.195414 0)
(0.286294 -0.214522 0)
(0.293165 -0.232996 0)
(0.296143 -0.249607 0)
(0.295233 -0.263578 0)
(0.290266 -0.274197 0)
(0.280822 -0.281033 0)
(0.265826 -0.283273 0)
(0.24345 -0.278123 0)
(0.00396393 -0.198336 0)
(0.016452 -0.194318 0)
(0.0309137 -0.185296 0)
(0.0471019 -0.176949 0)
(0.0644843 -0.169869 0)
(0.0827766 -0.164203 0)
(0.101859 -0.16014 0)
(0.121569 -0.157976 0)
(0.141578 -0.158032 0)
(0.161413 -0.160478 0)
(0.180657 -0.165248 0)
(0.19906 -0.172256 0)
(0.216387 -0.181589 0)
(0.232069 -0.193414 0)
(0.245054 -0.207462 0)
(0.254393 -0.222458 0)
(0.259791 -0.236869 0)
(0.261297 -0.249518 0)
(0.258934 -0.259474 0)
(0.252643 -0.265885 0)
(0.242136 -0.267948 0)
(0.226785 -0.264473 0)
(0.205367 -0.253063 0)
(0.0027566 -0.20694 0)
(0.012589 -0.20648 0)
(0.024284 -0.199497 0)
(0.0377733 -0.192562 0)
(0.0525936 -0.186583 0)
(0.0684426 -0.181832 0)
(0.0851321 -0.17851 0)
(0.102451 -0.176833 0)
(0.120096 -0.177007 0)
(0.137684 -0.179148 0)
(0.154826 -0.183247 0)
(0.171176 -0.189252 0)
(0.186344 -0.197119 0)
(0.199765 -0.206744 0)
(0.210677 -0.21771 0)
(0.218407 -0.229082 0)
(0.222632 -0.239722 0)
(0.223265 -0.248581 0)
(0.220286 -0.254703 0)
(0.213653 -0.257149 0)
(0.20319 -0.254915 0)
(0.1886 -0.24665 0)
(0.169113 -0.230246 0)
(0.00167339 -0.213278 0)
(0.00911545 -0.215953 0)
(0.0182319 -0.210957 0)
(0.0290853 -0.205495 0)
(0.0412801 -0.200688 0)
(0.0545282 -0.196894 0)
(0.0686157 -0.194318 0)
(0.0833164 -0.193128 0)
(0.0983483 -0.193462 0)
(0.113375 -0.19539 0)
(0.128036 -0.198901 0)
(0.14196 -0.203922 0)
(0.154733 -0.21033 0)
(0.165849 -0.217896 0)
(0.174731 -0.226171 0)
(0.180879 -0.234409 0)
(0.18399 -0.241704 0)
(0.183931 -0.247132 0)
(0.18065 -0.249772 0)
(0.174126 -0.248661 0)
(0.164278 -0.242719 0)
(0.151056 -0.230569 0)
(0.134001 -0.210317 0)
(0.000718619 -0.217576 0)
(0.00600282 -0.222967 0)
(0.0127364 -0.219832 0)
(0.0210877 -0.215806 0)
(0.0307175 -0.21216 0)
(0.041366 -0.209304 0)
(0.052817 -0.207447 0)
(0.064845 -0.206725 0)
(0.077188 -0.207229 0)
(0.0895438 -0.208991 0)
(0.101581 -0.211975 0)
(0.112947 -0.21608 0)
(0.123251 -0.221136 0)
(0.132064 -0.226862 0)
(0.138937 -0.232819 0)
(0.143486 -0.238378 0)
(0.14545 -0.242784 0)
(0.144696 -0.245224 0)
(0.141175 -0.244837 0)
(0.134895 -0.240685 0)
(0.125875 -0.231697 0)
(0.114224 -0.216542 0)
(0.0997151 -0.193494 0)
(-0.000112908 -0.220045 0)
(0.00322742 -0.227753 0)
(0.00776732 -0.226311 0)
(0.013794 -0.223629 0)
(0.0209943 -0.22108 0)
(0.0291424 -0.219108 0)
(0.0380314 -0.21792 0)
(0.0474457 -0.217629 0)
(0.0571435 -0.218293 0)
(0.0668527 -0.219911 0)
(0.0762751 -0.222421 0)
(0.0850903 -0.2257 0)
(0.0929558 -0.229547 0)
(0.0995121 -0.233668 0)
(0.104407 -0.237649 0)
(0.107341 -0.240946 0)
(0.108105 -0.24291 0)
(0.106591 -0.242824 0)
(0.102774 -0.239902 0)
(0.0967068 -0.233268 0)
(0.0884831 -0.221906 0)
(0.0783455 -0.20457 0)
(0.0662342 -0.179686 0)
(-0.000841892 -0.220825 0)
(0.000763022 -0.230567 0)
(0.0032981 -0.230607 0)
(0.00720267 -0.229143 0)
(0.0121528 -0.227598 0)
(0.0179584 -0.226432 0)
(0.0244283 -0.225847 0)
(0.0313614 -0.225939 0)
(0.0385366 -0.226739 0)
(0.0457103 -0.228222 0)
(0.0526181 -0.230305 0)
(0.0589789 -0.232845 0)
(0.0644996 -0.235631 0)
(0.0688846 -0.238371 0)
(0.0718563 -0.240683 0)
(0.0731843 -0.242086 0)
(0.0727111 -0.242019 0)
(0.0703627 -0.239851 0)
(0.0661505 -0.234879 0)
(0.0601692 -0.226306 0)
(0.0525878 -0.213207 0)
(0.0437273 -0.194441 0)
(0.0336765 -0.168578 0)
(-0.00156735 -0.220134 0)
(-0.00145154 -0.231584 0)
(-0.000666764 -0.232928 0)
(0.00131147 -0.232547 0)
(0.00421048 -0.2319 0)
(0.00786476 -0.231451 0)
(0.0120997 -0.231395 0)
(0.01673 -0.231813 0)
(0.0215554 -0.232718 0)
(0.0263593 -0.234065 0)
(0.0309101 -0.235757 0)
(0.0349658 -0.237641 0)
(0.0382799 -0.239502 0)
(0.0406124 -0.24106 0)
(0.0417459 -0.241966 0)
(0.0415067 -0.241796 0)
(0.0397841 -0.240063 0)
(0.0365419 -0.236216 0)
(0.031827 -0.229638 0)
(0.0257756 -0.219625 0)
(0.0186024 -0.205355 0)
(0.010704 -0.185811 0)
(0.0022782 -0.159708 0)
(-0.00220587 -0.218172 0)
(-0.0034089 -0.230985 0)
(-0.00415631 -0.233479 0)
(-0.00389105 -0.234052 0)
(-0.00283331 -0.234193 0)
(-0.00112037 -0.234367 0)
(0.00108812 -0.234761 0)
(0.0036216 -0.235446 0)
(0.00630032 -0.236419 0)
(0.00893314 -0.237625 0)
(0.0113192 -0.238955 0)
(0.0132524 -0.240251 0)
(0.0145282 -0.241304 0)
(0.0149538 -0.241852 0)
(0.0143612 -0.241577 0)
(0.0126235 -0.240107 0)
(0.00967013 -0.23702 0)
(0.00549905 -0.231843 0)
(0.000187109 -0.224038 0)
(-0.00609632 -0.213 0)
(-0.013084 -0.198025 0)
(-0.020355 -0.178234 0)
(-0.0276118 -0.152533 0)
(-0.0027554 -0.215064 0)
(-0.00511017 -0.228998 0)
(-0.00719131 -0.232481 0)
(-0.00842174 -0.23388 0)
(-0.00898525 -0.234697 0)
(-0.00899388 -0.235397 0)
(-0.00859387 -0.236163 0)
(-0.00793812 -0.237053 0)
(-0.00718688 -0.238057 0)
(-0.00650798 -0.23911 0)
(-0.00607461 -0.240097 0)
(-0.00606075 -0.240864 0)
(-0.0066346 -0.241209 0)
(-0.00794952 -0.240888 0)
(-0.0101327 -0.239617 0)
(-0.013272 -0.237072 0)
(-0.0174037 -0.232889 0)
(-0.0225004 -0.226669 0)
(-0.0284573 -0.217964 0)
(-0.0350783 -0.206269 0)
(-0.0420863 -0.190987 0)
(-0.0490281 -0.171383 0)
(-0.0555609 -0.146538 0)
(-0.00321455 -0.210971 0)
(-0.00655163 -0.22582 0)
(-0.00977592 -0.230143 0)
(-0.012295 -0.232244 0)
(-0.0142648 -0.233631 0)
(-0.0157757 -0.234766 0)
(-0.0169602 -0.235825 0)
(-0.0179558 -0.236862 0)
(-0.0189045 -0.237858 0)
(-0.0199529 -0.238742 0)
(-0.0212492 -0.239402 0)
(-0.0229391 -0.239685 0)
(-0.0251593 -0.239402 0)
(-0.0280295 -0.238331 0)
(-0.0316429 -0.23622 0)
(-0.0360555 -0.232789 0)
(-0.0412756 -0.227731 0)
(-0.0472529 -0.220714 0)
(-0.0538653 -0.211371 0)
(-0.0609085 -0.199289 0)
(-0.0680921 -0.183986 0)
(-0.074981 -0.16486 0)
(-0.081207 -0.14116 0)
(-0.00358031 -0.20606 0)
(-0.00772996 -0.221636 0)
(-0.0119113 -0.226663 0)
(-0.0155199 -0.229354 0)
(-0.0186878 -0.231211 0)
(-0.0214865 -0.232694 0)
(-0.0240352 -0.233974 0)
(-0.0264569 -0.2351 0)
(-0.0288772 -0.23605 0)
(-0.0314233 -0.236752 0)
(-0.0342214 -0.237094 0)
(-0.0373924 -0.236931 0)
(-0.0410458 -0.236088 0)
(-0.0452733 -0.234366 0)
(-0.0501401 -0.231543 0)
(-0.0556767 -0.227381 0)
(-0.0618699 -0.221625 0)
(-0.0686541 -0.214004 0)
(-0.0758992 -0.204224 0)
(-0.0833994 -0.191958 0)
(-0.090881 -0.176827 0)
(-0.0979203 -0.158357 0)
(-0.104164 -0.13595 0)
(-0.00385004 -0.200501 0)
(-0.00864335 -0.21663 0)
(-0.0136007 -0.222237 0)
(-0.0181067 -0.225412 0)
(-0.0222721 -0.227647 0)
(-0.0261509 -0.229397 0)
(-0.0298495 -0.230832 0)
(-0.0334775 -0.231996 0)
(-0.0371452 -0.232866 0)
(-0.0409623 -0.23337 0)
(-0.0450358 -0.233401 0)
(-0.0494651 -0.232823 0)
(-0.0543369 -0.231477 0)
(-0.0597192 -0.229185 0)
(-0.0656548 -0.225757 0)
(-0.072154 -0.220991 0)
(-0.0791883 -0.214679 0)
(-0.0866827 -0.206603 0)
(-0.0945064 -0.196534 0)
(-0.102465 -0.184224 0)
(-0.110297 -0.169381 0)
(-0.11763 -0.151648 0)
(-0.124126 -0.130564 0)
(-0.00402368 -0.194465 0)
(-0.00929481 -0.210984 0)
(-0.0148521 -0.217052 0)
(-0.0200704 -0.220613 0)
(-0.0250403 -0.223139 0)
(-0.0297997 -0.225083 0)
(-0.0344421 -0.226612 0)
(-0.0390645 -0.227768 0)
(-0.0437629 -0.228527 0)
(-0.0486319 -0.228821 0)
(-0.0537615 -0.228547 0)
(-0.0592325 -0.22758 0)
(-0.0651125 -0.225778 0)
(-0.0714501 -0.222986 0)
(-0.0782696 -0.219039 0)
(-0.0855661 -0.213772 0)
(-0.0933 -0.207015 0)
(-0.101392 -0.198599 0)
(-0.109716 -0.188349 0)
(-0.11809 -0.17608 0)
(-0.126288 -0.161581 0)
(-0.133971 -0.144592 0)
(-0.140839 -0.124772 0)
(-0.00410274 -0.18812 0)
(-0.00969073 -0.204873 0)
(-0.0156791 -0.21129 0)
(-0.0214322 -0.215142 0)
(-0.0270221 -0.21788 0)
(-0.0324713 -0.219952 0)
(-0.0378608 -0.221521 0)
(-0.0432753 -0.222628 0)
(-0.0487981 -0.223249 0)
(-0.0545103 -0.22332 0)
(-0.060487 -0.222745 0)
(-0.0667939 -0.221412 0)
(-0.0734819 -0.219194 0)
(-0.0805836 -0.215957 0)
(-0.0881087 -0.211565 0)
(-0.0960399 -0.205879 0)
(-0.10433 -0.198766 0)
(-0.1129 -0.190096 0)
(-0.121628 -0.179739 0)
(-0.130354 -0.167564 0)
(-0.138873 -0.153422 0)
(-0.146911 -0.137134 0)
(-0.154196 -0.118461 0)
(-0.00409215 -0.181628 0)
(-0.00984392 -0.198466 0)
(-0.0161024 -0.205123 0)
(-0.022221 -0.209179 0)
(-0.0282549 -0.212055 0)
(-0.0342122 -0.214194 0)
(-0.0401619 -0.215754 0)
(-0.0461768 -0.216775 0)
(-0.0523292 -0.217235 0)
(-0.0586881 -0.217071 0)
(-0.0653166 -0.216199 0)
(-0.0722667 -0.214517 0)
(-0.0795759 -0.211915 0)
(-0.0872634 -0.208281 0)
(-0.0953266 -0.2035 0)
(-0.103739 -0.197463 0)
(-0.112448 -0.190064 0)
(-0.121373 -0.181206 0)
(-0.130403 -0.170797 0)
(-0.139391 -0.158743 0)
(-0.148172 -0.144948 0)
(-0.156508 -0.129291 0)
(-0.164172 -0.111619 0)
(-0.00399843 -0.175143 0)
(-0.00977083 -0.191924 0)
(-0.0161493 -0.198717 0)
(-0.0224733 -0.202892 0)
(-0.0287842 -0.205839 0)
(-0.0350772 -0.207989 0)
(-0.0414097 -0.209496 0)
(-0.0478443 -0.210398 0)
(-0.0544433 -0.210674 0)
(-0.0612661 -0.210265 0)
(-0.0683648 -0.209096 0)
(-0.0757806 -0.207078 0)
(-0.0835396 -0.204118 0)
(-0.0916498 -0.200123 0)
(-0.100098 -0.195001 0)
(-0.108851 -0.188666 0)
(-0.117851 -0.181037 0)
(-0.127017 -0.172044 0)
(-0.136246 -0.16162 0)
(-0.145409 -0.149704 0)
(-0.15436 -0.136232 0)
(-0.162918 -0.121132 0)
(-0.170885 -0.104309 0)
(-0.00383106 -0.168803 0)
(-0.00949408 -0.185393 0)
(-0.0158544 -0.192225 0)
(-0.0222335 -0.196442 0)
(-0.0286633 -0.199397 0)
(-0.0351284 -0.201507 0)
(-0.0416759 -0.202922 0)
(-0.04836 -0.203675 0)
(-0.0552348 -0.203744 0)
(-0.0623512 -0.203078 0)
(-0.0697531 -0.201609 0)
(-0.0774723 -0.199263 0)
(-0.0855255 -0.195963 0)
(-0.0939113 -0.191635 0)
(-0.102609 -0.186207 0)
(-0.111576 -0.179616 0)
(-0.120753 -0.171801 0)
(-0.130059 -0.162713 0)
(-0.139393 -0.152304 0)
(-0.148639 -0.140536 0)
(-0.157679 -0.127367 0)
(-0.166358 -0.112753 0)
(-0.174514 -0.0966414 0)
(-0.00360075 -0.162735 0)
(-0.00903907 -0.179004 0)
(-0.0152589 -0.185789 0)
(-0.0215533 -0.18998 0)
(-0.0279531 -0.192886 0)
(-0.0344352 -0.194912 0)
(-0.0410391 -0.196196 0)
(-0.0478122 -0.19677 0)
(-0.0548026 -0.19661 0)
(-0.062055 -0.195671 0)
(-0.0696061 -0.193896 0)
(-0.0774805 -0.191223 0)
(-0.085687 -0.187593 0)
(-0.0942168 -0.18295 0)
(-0.103042 -0.177242 0)
(-0.112116 -0.170425 0)
(-0.121373 -0.162457 0)
(-0.13073 -0.153304 0)
(-0.14009 -0.142937 0)
(-0.149345 -0.131325 0)
(-0.158387 -0.118443 0)
(-0.167099 -0.10426 0)
(-0.17534 -0.0887476 0)
(-0.00332314 -0.157041 0)
(-0.0084379 -0.17287 0)
(-0.0144124 -0.179537 0)
(-0.020493 -0.183644 0)
(-0.0267224 -0.186454 0)
(-0.0330741 -0.188355 0)
(-0.0395834 -0.189475 0)
(-0.046294 -0.18984 0)
(-0.05325 -0.189427 0)
(-0.0604912 -0.188197 0)
(-0.068049 -0.186103 0)
(-0.075942 -0.183097 0)
(-0.0841731 -0.179139 0)
(-0.0927281 -0.174188 0)
(-0.101574 -0.168214 0)
(-0.110659 -0.161188 0)
(-0.119914 -0.153088 0)
(-0.129254 -0.143895 0)
(-0.138578 -0.133588 0)
(-0.14778 -0.122145 0)
(-0.156765 -0.109543 0)
(-0.165424 -0.0957547 0)
(-0.173646 -0.0807587 0)
(-0.00302021 -0.151806 0)
(-0.00772706 -0.167082 0)
(-0.0133731 -0.173582 0)
(-0.0191209 -0.177565 0)
(-0.0250471 -0.180243 0)
(-0.031128 -0.181985 0)
(-0.0373993 -0.182907 0)
(-0.043904 -0.183032 0)
(-0.050684 -0.182339 0)
(-0.0577757 -0.180795 0)
(-0.0652063 -0.178364 0)
(-0.0729898 -0.175014 0)
(-0.0811253 -0.170718 0)
(-0.089595 -0.165457 0)
(-0.0983633 -0.159216 0)
(-0.107376 -0.151987 0)
(-0.116561 -0.143764 0)
(-0.125829 -0.134541 0)
(-0.135075 -0.124308 0)
(-0.144189 -0.113048 0)
(-0.153067 -0.100731 0)
(-0.161623 -0.0873202 0)
(-0.169754 -0.0727865 0)
(-0.0027291 -0.147089 0)
(-0.00695369 -0.161707 0)
(-0.0122109 -0.168026 0)
(-0.0175144 -0.171865 0)
(-0.0230102 -0.174387 0)
(-0.028686 -0.175939 0)
(-0.0345829 -0.176633 0)
(-0.040746 -0.176486 0)
(-0.0472162 -0.175483 0)
(-0.0540271 -0.173599 0)
(-0.0612022 -0.170809 0)
(-0.0687524 -0.167095 0)
(-0.0766749 -0.162446 0)
(-0.0849513 -0.156859 0)
(-0.0935466 -0.150338 0)
(-0.102408 -0.142893 0)
(-0.111462 -0.134538 0)
(-0.120617 -0.125282 0)
(-0.129761 -0.115129 0)
(-0.138769 -0.104062 0)
(-0.147532 -0.0920435 0)
(-0.155949 -0.0790111 0)
(-0.163934 -0.0649111 0)
(-0.00251063 -0.142914 0)
(-0.00617473 -0.156785 0)
(-0.0110091 -0.162954 0)
(-0.015759 -0.16666 0)
(-0.0207004 -0.169013 0)
(-0.0258421 -0.170352 0)
(-0.031236 -0.170785 0)
(-0.0369302 -0.170333 0)
(-0.0429644 -0.168989 0)
(-0.0493687 -0.166736 0)
(-0.0561627 -0.163562 0)
(-0.0633555 -0.15946 0)
(-0.0709443 -0.154434 0)
(-0.078914 -0.148496 0)
(-0.0872349 -0.141667 0)
(-0.0958601 -0.133976 0)
(-0.104722 -0.125457 0)
(-0.113729 -0.116144 0)
(-0.12276 -0.106057 0)
(-0.131675 -0.095188 0)
(-0.14033 -0.0834868 0)
(-0.148617 -0.0708514 0)
(-0.156448 -0.0571751 0)
(-0.00247703 -0.139221 0)
(-0.0054676 -0.152329 0)
(-0.00986786 -0.15845 0)
(-0.0139466 -0.162065 0)
(-0.018208 -0.164248 0)
(-0.0226928 -0.165348 0)
(-0.0274654 -0.165486 0)
(-0.0325743 -0.164696 0)
(-0.0380549 -0.16298 0)
(-0.0439313 -0.160331 0)
(-0.0502189 -0.156748 0)
(-0.0569251 -0.152235 0)
(-0.06405 -0.146805 0)
(-0.0715857 -0.140482 0)
(-0.0795136 -0.133302 0)
(-0.0878007 -0.125313 0)
(-0.0963933 -0.116573 0)
(-0.105208 -0.107147 0)
(-0.114123 -0.0970839 0)
(-0.122971 -0.0864003 0)
(-0.131572 -0.0750362 0)
(-0.13976 -0.0628299 0)
(-0.147461 -0.0495779 0)
(-0.00286717 -0.135744 0)
(-0.00494759 -0.148351 0)
(-0.00890497 -0.15462 0)
(-0.0121682 -0.158208 0)
(-0.0156186 -0.160217 0)
(-0.0193332 -0.161046 0)
(-0.0233814 -0.160851 0)
(-0.0278038 -0.159688 0)
(-0.0326242 -0.157572 0)
(-0.0378568 -0.154508 0)
(-0.0435108 -0.150499 0)
(-0.0495929 -0.145555 0)
(-0.0561082 -0.139695 0)
(-0.0630601 -0.13295 0)
(-0.0704474 -0.125365 0)
(-0.0782605 -0.117005 0)
(-0.0864725 -0.107955 0)
(-0.0950249 -0.0983167 0)
(-0.103807 -0.088192 0)
(-0.112637 -0.0776449 0)
(-0.121257 -0.0666284 0)
(-0.129427 -0.0548954 0)
(-0.137074 -0.0420621 0)
(-0.00422436 -0.131972 0)
(-0.00483671 -0.144911 0)
(-0.0082467 -0.151624 0)
(-0.0104953 -0.155255 0)
(-0.0129993 -0.157055 0)
(-0.0158492 -0.157556 0)
(-0.0190955 -0.156981 0)
(-0.0227518 -0.155413 0)
(-0.0268201 -0.152881 0)
(-0.0312995 -0.149394 0)
(-0.0361914 -0.144956 0)
(-0.0415022 -0.139577 0)
(-0.0472435 -0.133271 0)
(-0.0534326 -0.126071 0)
(-0.0600913 -0.118024 0)
(-0.0672426 -0.109205 0)
(-0.0749021 -0.09972 0)
(-0.0830613 -0.0897164 0)
(-0.0916534 -0.0793701 0)
(-0.100499 -0.0688448 0)
(-0.109262 -0.0581622 0)
(-0.11753 -0.046961 0)
(-0.125254 -0.034502 0)
(-0.00750129 -0.127544 0)
(-0.00549732 -0.142086 0)
(-0.00797307 -0.149656 0)
(-0.00894577 -0.153377 0)