/*--------------------------------*- C++ -*----------------------------------*\
  =========                 |
  \\      /  F ield         | OpenFOAM: The Open Source CFD Toolbox
   \\    /   O peration     | Website:  https://openfoam.org
    \\  /    A nd           | Version:  13
     \\/     M anipulation  |
\*---------------------------------------------------------------------------*/
FoamFile
{
    format      ascii;
    class       volScalarField;
    location    "2.2";
    object      alpha.mercury;
}
// * * * * * * * * * * * * * * * * * * * * * * * * * * * * * * * * * * * * * //

dimensions      [];

internalField   nonuniform List<scalar> 
2268
(
1
1
1
1
1
1
1
1
1
1
1
1
1
1
1
1
1
1
1
0.999848
0.999578
0.999433
0.999433
1
1
1
1
1
1
1
1
1
1
1
1
1
1
1
1
1
1
1
0.999999
1
0.999953
0.99974
1
1
1
1
1
1
1
1
1
1
1
1
1
1
1
1
1
1
1
1
1
1
1
1
1
1
1
1
1
1
1
1
1
1
1
1
1
1
1
1
1
1
1
1
1
1
1
1
1
1
1
1
1
1
1
1
1
1
1
1
1
1
1
0.999999
0.999999
1
1
0.999999
0.999998
1
1
1
1
1
1
1
1
1
1
1
0.976555
0.915482
0.844214
0.765982
0.686423
0.62136
0.57341
0.540377
0.520049
0.512662
0.522406
0.531219
0.954029
0.974017
0.987141
0.989552
0.982831
0.973883
0.953243
0.896919
0.79176
0.638897
0.455973
0.294039
0.180569
0.098701
0.0489125
0.0273439
0.0159845
0.00966509
0.0062776
0.00462484
0.00407145
0.00444926
0.00495942
0.313451
0.384842
0.453684
0.468981
0.442384
0.363518
0.258824
0.156091
0.0714757
0.0183368
0.000455078
2.15135e-07
1.71373e-07
1.30157e-07
1.65041e-14
-3.43619e-20
-5.03037e-20
1.84759e-20
-1.45152e-20
-5.68945e-21
-8.47986e-14
1.59418e-18
4.43267e-17
0.87634
0.877424
0.877561
0.877558
0.877558
0.877537
0.869127
0.705196
0.636282
0.636279
0.641649
0.627912
0.599587
0.599473
0.683152
0.751476
0.751438
0.751367
0.75143
0.552998
0.565878
0.578582
0.552877
0.548262
0.640953
0.677457
0.769147
0.830595
0.831652
0.831736
0.825789
0.738476
0.740982
0.751391
0.75147
0.751444
0.751447
0.751369
0.162558
0.138544
0.12274
0.122785
0.174551
0.143075
0.161741
0.228388
0.322322
0.490284
0.639168
0.704292
0.727933
0.741812
0.751447
0.751444
0.751447
0.751437
0.710379
0.177157
0.177186
0.129104
0.13892
0.092097
0.0590346
0.0312086
0.0100423
0.00497033
0.00628816
0.0378378
0.222868
0.321831
0.300398
0.375693
0.472716
0.506694
0.557774
0.512967
0.135081
0.145112
0.143557
0.14243
0.104216
0.0660128
0.0625753
0.0624685
0.0375976
0.00305497
6.33694e-05
1.37948e-05
0.155096
0.232682
0.233031
0.198889
0.254216
0.248866
0.399864
0.0833004
0.0822698
0.0901574
0.0594092
0.106004
0.105921
0.0917766
0.0911329
0.0599836
0.00276835
0.000497782
1.37883e-05
0.000820923
0.0855349
0.123633
0.145885
0.165928
0.187458
0.117847
0.0120305
0.00711835
0.0159362
0.0281401
0.0756266
0.105878
0.0897223
0.0100713
0.00123954
0.000366421
0.000138021
3.29052e-06
6.72873e-08
6.16658e-08
0.00391106
0.0055131
0.00157454
0.00744947
0.0389754
0.00942268
0.00263102
0.00959138
0.0166814
0.0448139
0.0570477
0.002366
5.98389e-06
6.16715e-06
8.32372e-05
9.4556e-05
8.70695e-05
2.31782e-05
2.08825e-07
9.6495e-18
-8.77243e-10
2.22168e-14
1.39538e-07
2.77892e-08
2.99838e-10
3.05512e-10
2.99409e-10
3.03367e-10
2.99409e-10
3.03367e-10
2.93199e-10
5.02013e-08
6.68086e-08
1.6712e-10
4.84661e-16
1.64533e-10
-3.85594e-12
1.64572e-10
5.49896e-10
7.81951e-10
3.86102e-09
3.62062e-09
1.22859e-09
3.48961e-10
3.21816e-11
1.96043e-10
-1.54097e-12
3.0004e-10
2.99684e-10
3.05521e-10
3.1281e-10
3.29014e-10
3.41161e-10
3.12548e-10
2.99366e-10
3.06513e-10
1.23535e-09
8.58138e-10
5.91128e-10
3.98732e-10
1.04331e-09
1.2247e-09
1.7945e-09
6.55307e-09
6.7392e-09
2.18893e-09
9.28691e-10
4.63782e-10
6.4691e-11
1.17426e-07
3.055e-10
3.26845e-10
5.49263e-10
7.88842e-10
1.08962e-09
1.41105e-09
1.48108e-09
1.47916e-09
1.38846e-09
1.21657e-09
9.52208e-10
7.09006e-10
5.08951e-10
4.61706e-10
4.62937e-10
5.94976e-10
1.06807e-09
1.38756e-09
1.62006e-09
1.59534e-09
6.57118e-10
1.11102e-10
0.000333065
3.81668e-10
4.26192e-10
5.59365e-10
7.14852e-10
8.20493e-10
9.20198e-10
9.31721e-10
9.10959e-10
8.39134e-10
7.99997e-10
7.91923e-10
8.03111e-10
8.89145e-10
9.95999e-10
1.23411e-09
1.60384e-09
2.01238e-09
3.29175e-09
4.83326e-09
1.58997e-09
4.97622e-08
8.44525e-06
6.48099e-05
3.66904e-10
3.94108e-10
4.71031e-10
5.25584e-10
5.6853e-10
6.05729e-10
6.50868e-10
7.17381e-10
8.08118e-10
9.57338e-10
1.19347e-09
1.4822e-09
1.70465e-09
1.86476e-09
1.98623e-09
2.01957e-09
1.98589e-09
3.02244e-09
7.4138e-09
1.06423e-08
7.71743e-08
4.65206e-07
3.26925e-07
4.31622e-10
4.79703e-10
5.17393e-10
5.49089e-10
5.89712e-10
6.35903e-10
7.37692e-10
8.87797e-10
1.07504e-09
1.22135e-09
1.37732e-09
1.49518e-09
1.59173e-09
1.73241e-09
1.77952e-09
1.62756e-09
1.46714e-09
3.03232e-09
7.05127e-09
7.67596e-09
7.93437e-09
5.37124e-08
7.87623e-06
4.65581e-10
4.85696e-10
4.88094e-10
4.56364e-10
4.34781e-10
4.5804e-10
5.41766e-10
7.1557e-10
8.82903e-10
9.86872e-10
1.02734e-09
1.03173e-09
1.02886e-09
1.0744e-09
1.12818e-09
1.12803e-09
1.11801e-09
1.144e-09
1.30042e-09
4.31659e-09
6.01756e-08
3.53477e-07
4.99295e-07
4.10144e-10
4.27571e-10
4.48526e-10
4.38552e-10
3.41355e-10
2.60661e-10
2.50572e-10
3.0154e-10
4.06975e-10
4.72105e-10
4.79886e-10
4.51653e-10
4.33779e-10
5.13577e-10
7.41708e-10
1.03925e-09
1.68804e-09
3.0295e-09
4.65448e-09
9.89278e-09
1.9028e-08
2.21983e-08
1.42398e-08
2.79436e-10
3.08799e-10
3.89167e-10
4.07249e-10
3.57009e-10
2.31139e-10
1.59969e-10
1.2855e-10
1.18376e-10
1.15569e-10
1.08732e-10
9.48962e-11
9.03979e-11
1.41853e-10
3.48971e-10
5.50756e-10
7.19507e-10
9.23609e-10
1.32851e-09
2.10991e-09
2.71331e-09
2.82038e-09
2.19691e-09
1.39289e-10
2.0519e-10
3.78424e-10
4.03896e-10
3.38743e-10
2.65583e-10
1.78993e-10
1.26573e-10
8.65905e-11
5.28144e-11
2.9065e-11
1.89889e-11
1.7043e-11
2.71258e-11
8.8997e-11
1.30864e-10
1.32997e-10
1.24571e-10
1.42093e-10
3.55079e-10
5.90751e-10
6.90186e-10
9.493e-10
1.08022e-10
2.15068e-10
3.95422e-10
4.1024e-10
3.47278e-10
3.01879e-10
2.25192e-10
1.68069e-10
1.16993e-10
6.66546e-11
3.23682e-11
1.56856e-11
1.19239e-11
1.22361e-11
2.07424e-11
2.60666e-11
2.96458e-11
3.05033e-11
3.13168e-11
3.68988e-11
5.17954e-11
7.41052e-11
1.93668e-10
1.0826e-10
2.93406e-10
4.13814e-10
4.15144e-10
3.69533e-10
3.27384e-10
2.71478e-10
2.08563e-10
1.50762e-10
9.36198e-11
5.04109e-11
2.63992e-11
1.54386e-11
1.00496e-11
9.06307e-12
9.55219e-12
1.16324e-11
1.34114e-11
1.58133e-11
1.71136e-11
1.64711e-11
1.55125e-11
1.66355e-11
1.108e-10
3.10243e-10
4.00528e-10
4.04794e-10
3.70378e-10
3.27133e-10
2.79984e-10
2.3609e-10
1.91688e-10
1.40692e-10
8.84384e-11
4.42217e-11
2.05127e-11
1.18582e-11
8.6067e-12
6.40299e-12
5.48913e-12
5.32499e-12
6.80705e-12
7.8669e-12
8.32412e-12
8.52378e-12
8.40452e-12
1.09629e-10
2.90672e-10
3.55569e-10
3.61736e-10
3.41525e-10
2.96753e-10
2.62472e-10
2.34739e-10
1.97476e-10
1.5313e-10
1.08089e-10
7.07898e-11
3.28888e-11
1.67109e-11
1.07722e-11
7.52385e-12
5.17333e-12
3.68262e-12
3.10297e-12
2.89694e-12
2.74471e-12
2.63728e-12
2.71747e-12
1.01975e-10
2.54676e-10
3.00139e-10
2.88252e-10
2.47919e-10
2.31544e-10
2.16944e-10
2.04457e-10
1.82959e-10
1.50024e-10
1.08398e-10
7.61187e-11
4.22573e-11
2.16818e-11
1.42364e-11
9.4257e-12
6.07652e-12
4.01385e-12
2.66017e-12
1.78446e-12
1.24115e-12
9.42151e-13
7.92889e-13
8.84128e-11
2.04358e-10
2.38204e-10
2.31987e-10
1.97874e-10
1.69423e-10
1.58132e-10
1.47193e-10
1.35391e-10
1.22846e-10
9.66865e-11
6.57771e-11
4.1328e-11
2.3814e-11
1.62017e-11
1.0884e-11
7.10789e-12
4.47032e-12
2.92324e-12
1.87044e-12
1.24476e-12
8.60119e-13
6.3544e-13
6.97811e-11
1.49895e-10
1.75101e-10
1.70319e-10
1.49788e-10
1.30968e-10
1.17942e-10
1.08082e-10
9.9503e-11
8.37786e-11
6.90211e-11
4.83126e-11
3.31184e-11
2.23619e-11
1.62317e-11
1.07702e-11
7.00828e-12
4.5143e-12
3.01579e-12
1.80658e-12
1.27426e-12
8.6075e-13
5.93725e-13
5.05679e-11
1.02299e-10
1.19285e-10
1.16297e-10
1.05164e-10
9.29545e-11
8.26656e-11
7.29475e-11
6.54825e-11
5.42444e-11
4.57563e-11
3.45477e-11
2.63599e-11
1.82528e-11
1.33131e-11
9.25338e-12
5.93835e-12
3.9806e-12
2.63212e-12
1.62383e-12
1.18987e-12
7.99919e-13
5.34433e-13
3.57778e-11
6.89729e-11
7.94939e-11
7.82324e-11
7.19486e-11
6.24e-11
5.3792e-11
4.22438e-11
3.35848e-11
2.98905e-11
2.5128e-11
2.11957e-11
1.70028e-11
1.25206e-11
9.11848e-12
6.59494e-12
4.72539e-12
2.96882e-12
1.98091e-12
1.33841e-12
9.59576e-13
6.6446e-13
4.56371e-13
2.46073e-11
4.65924e-11
5.34129e-11
5.20461e-11
4.71562e-11
4.03586e-11
3.43031e-11
2.55091e-11
1.80674e-11
1.53273e-11
1.28339e-11
1.22043e-11
9.81686e-12
7.12714e-12
5.52097e-12
4.31532e-12
3.16583e-12
2.13464e-12
1.48619e-12
1.01662e-12
7.55587e-13
5.28089e-13
3.64345e-13
1.82539e-11
3.32356e-11
3.52639e-11
3.44697e-11
3.02681e-11
2.7014e-11
2.19698e-11
1.6254e-11
1.11489e-11
8.87773e-12
7.20609e-12
6.17723e-12
5.05743e-12
4.05754e-12
3.31731e-12
2.62393e-12
1.95839e-12
1.44672e-12
1.06554e-12
7.74281e-13
5.78117e-13
4.09929e-13
2.85503e-13
1.17971e-11
2.12391e-11
2.38225e-11
2.29022e-11
2.04455e-11
1.76897e-11
1.46824e-11
1.11203e-11
7.61212e-12
5.56098e-12
4.24333e-12
3.41885e-12
2.7717e-12
2.33556e-12
1.91055e-12
1.52787e-12
1.18711e-12
9.31681e-13
7.56256e-13
5.52701e-13
4.05311e-13
2.93258e-13
2.14387e-13
8.61859e-12
1.49832e-11
1.59115e-11
1.50932e-11
1.3687e-11
1.18837e-11
1.00831e-11
7.543e-12
5.42232e-12
3.76742e-12
2.65859e-12
2.0221e-12
1.57122e-12
1.30417e-12
1.06826e-12
8.69174e-13
7.07442e-13
5.90631e-13
4.69692e-13
3.60302e-13
2.62885e-13
1.96846e-13
1.47741e-13
5.51649e-12
9.45423e-12
9.96178e-12
9.35716e-12
8.67487e-12
7.62203e-12
6.52776e-12
5.1533e-12
3.82601e-12
2.63959e-12
1.76489e-12
1.22772e-12
9.06421e-13
6.99781e-13
5.74139e-13
4.64228e-13
3.95481e-13
3.41284e-13
2.76388e-13
2.09956e-13
1.58269e-13
1.16523e-13
9.09709e-14
3.504e-12
5.8836e-12
5.99425e-12
5.36846e-12
4.78445e-12
4.28336e-12
3.626e-12
3.23499e-12
2.53381e-12
1.82775e-12
1.18745e-12
7.70381e-13
5.2027e-13
3.67513e-13
2.85254e-13
2.36838e-13
2.02781e-13
1.70505e-13
1.41584e-13
1.09783e-13
8.23027e-14
6.35737e-14
4.92581e-14
2.209e-12
3.50163e-12
3.39982e-12
2.93364e-12
2.50558e-12
2.24548e-12
1.99275e-12
1.68438e-12
1.49931e-12
1.16172e-12
7.82172e-13
4.97655e-13
3.04027e-13
1.94167e-13
1.40197e-13
1.1022e-13
8.97593e-14
7.6451e-14
6.32908e-14
4.92572e-14
3.82154e-14
2.90366e-14
2.29464e-14
1.18971e-12
1.94112e-12
1.7968e-12
1.47795e-12
1.21209e-12
1.07075e-12
9.00951e-13
8.25354e-13
7.48861e-13
6.47378e-13
4.58954e-13
2.9977e-13
1.80891e-13
1.06624e-13
6.75643e-14
4.82435e-14
3.63248e-14
3.04404e-14
2.45987e-14
1.92675e-14
1.53342e-14
1.15596e-14
9.00089e-15
6.86233e-13
1.00292e-12
8.76068e-13
6.79259e-13
5.30588e-13
4.67407e-13
3.96651e-13
3.53893e-13
3.31278e-13
3.03964e-13
2.32873e-13
1.6026e-13
9.98218e-14
5.79818e-14
3.33889e-14
2.0771e-14
1.43384e-14
1.0888e-14
8.66591e-15
6.70492e-15
5.22086e-15
3.89293e-15
3.0218e-15
3.34838e-13
4.72122e-13
3.99779e-13
2.90768e-13
2.1471e-13
1.69045e-13
1.50495e-13
1.33663e-13
1.26829e-13
1.21774e-13
1.00535e-13
7.29897e-14
4.71512e-14
2.81072e-14
1.62174e-14
8.81779e-15
5.30779e-15
3.63073e-15
2.67344e-15
2.08973e-15
1.56898e-15
1.12501e-15
8.5144e-16
1.70201e-13
2.06966e-13
1.50672e-13
1.02949e-13
7.16492e-14
6.04227e-14
5.11113e-14
4.53685e-14
4.27568e-14
4.12928e-14
3.70679e-14
2.81684e-14
1.89486e-14
1.17075e-14
6.55673e-15
3.44152e-15
1.83568e-15
1.1383e-15
7.91525e-16
5.76909e-16
4.11386e-16
2.87044e-16
2.09763e-16
6.32819e-14
7.23394e-14
5.67562e-14
3.66365e-14
2.41091e-14
1.87742e-14
1.58246e-14
1.39705e-14
1.29659e-14
1.30237e-14
1.19572e-14
9.37377e-15
6.55608e-15
4.02938e-15
2.31456e-15
1.23974e-15
5.97979e-16
3.26148e-16
2.10457e-16
1.42281e-16
9.87386e-17
6.39402e-17
4.47495e-17
2.34866e-14
2.63058e-14
1.8249e-14
1.11368e-14
6.97369e-15
5.26738e-15
4.44738e-15
3.91244e-15
3.63068e-15
3.63745e-15
3.41702e-15
2.74205e-15
1.93589e-15
1.21436e-15
7.10668e-16
3.68241e-16
1.71864e-16
8.61352e-17
4.99853e-17
3.14447e-17
2.01271e-17
1.27384e-17
8.37631e-18
7.38125e-15
7.4969e-15
5.20698e-15
3.054e-15
1.83946e-15
1.35928e-15
1.14024e-15
9.85696e-16
8.37759e-16
8.78043e-16
8.44676e-16
6.9298e-16
4.67235e-16
3.00284e-16
1.75246e-16
9.07058e-17
4.05035e-17
1.91285e-17
1.00179e-17
5.85674e-18
3.65958e-18
2.13237e-18
1.30854e-18
2.09383e-15
1.99741e-15
1.20553e-15
6.69406e-16
3.89327e-16
2.786e-16
2.32198e-16
2.02525e-16
1.89947e-16
1.95193e-16
1.90885e-16
1.47543e-16
1.02923e-16
6.66238e-17
3.79849e-17
1.90657e-17
8.12597e-18
3.52189e-18
1.76677e-18
9.68673e-19
5.36324e-19
3.00413e-19
1.74264e-19
5.05203e-16
4.39248e-16
2.41091e-16
1.29465e-16
7.60052e-17
5.46959e-17
4.62418e-17
4.169e-17
3.92001e-17
3.93568e-17
3.68728e-17
2.90083e-17
2.07128e-17
1.29598e-17
7.11297e-18
3.29122e-18
1.3351e-18
5.31014e-19
2.66821e-19
1.3664e-19
7.3614e-20
3.83381e-20
1.97775e-20
9.6965e-17
7.47382e-17
4.06379e-17
2.17638e-17
1.27609e-17
9.2245e-18
7.97569e-18
7.71343e-18
6.97883e-18
6.95134e-18
6.5849e-18
5.30365e-18
3.65866e-18
2.179e-18
1.14236e-18
5.01425e-19
1.81924e-19
7.71456e-20
3.62264e-20
1.72275e-20
8.5435e-21
4.01487e-21
1.85746e-21
1.52144e-17
1.05755e-17
5.91134e-18
3.23844e-18
1.88116e-18
1.36032e-18
1.21857e-18
1.2118e-18
1.13455e-18
1.15567e-18
1.10276e-18
8.6386e-19
5.66788e-19
3.23106e-19
1.62281e-19
6.73488e-20
2.39493e-20
9.6768e-21
4.27131e-21
1.9273e-21
8.69892e-22
3.42087e-22
1.42025e-22
1.94822e-18
1.26259e-18
7.32743e-19
4.19039e-19
2.49385e-19
1.84137e-19
1.7164e-19
1.71333e-19
1.7214e-19
1.79975e-19
1.66758e-19
1.2478e-19
7.87472e-20
4.35976e-20
1.98484e-20
7.4717e-21
2.83295e-21
1.10755e-21
4.63791e-22
1.8831e-22
7.07932e-23
2.54801e-23
9.73959e-24
1.82057e-19
1.16256e-19
7.30176e-20
4.55849e-20
2.91055e-20
2.25702e-20
2.18996e-20
2.25621e-20
2.38626e-20
2.53926e-20
2.26734e-20
1.65562e-20
1.00275e-20
5.16524e-21
2.18797e-21
8.43969e-22
3.09259e-22
1.1236e-22
4.35292e-23
1.64019e-23
5.47898e-24
1.67186e-24
2.45283e-25
9.78207e-21
7.30233e-21
5.82099e-21
4.25404e-21
3.01496e-21
2.54792e-21
2.57814e-21
2.81111e-21
3.01948e-21
3.26302e-21
2.82536e-21
1.74965e-21
1.19022e-21
5.42631e-22
2.43796e-22
8.85982e-23
3.17616e-23
1.12739e-23
3.922e-24
1.18719e-24
3.3355e-25
6.30852e-26
4.46336e-27
1.01826e-22
1.86085e-22
2.44861e-22
3.1802e-22
2.68674e-22
1.8579e-22
1.98205e-22
2.33013e-22
3.24275e-22
3.85382e-22
3.26601e-22
2.22927e-22
1.30264e-22
6.15885e-23
2.4498e-23
8.41436e-24
2.99667e-24
1.04703e-24
3.3247e-25
8.90607e-26
1.98423e-26
1.19575e-27
1.73917e-28
9.34862e-28
2.87341e-24
1.55475e-23
2.09005e-23
1.59197e-23
2.02915e-23
2.29176e-23
2.80518e-23
3.38138e-23
4.25105e-23
3.50875e-23
2.32332e-23
1.31229e-23
6.1684e-24
2.2495e-24
7.51415e-25
2.71377e-25
9.50754e-26
2.93464e-26
7.24769e-27
7.11506e-28
3.341e-29
6.63835e-29
0.021953
0.0548791
0.0548843
0.0547055
0.00910563
0.0167148
0.0142388
0.00717654
0.00144613
0.000299035
0.000549845
0.000714635
5.36467e-05
0.000326613
0.000818016
0.000825127
0.000126111
0.000185177
0.000140912
6.12532e-05
1.46411e-05
4.40609e-06
1.44923e-09
1.28982e-07
1.63556e-08
3.78472e-10
3.701e-10
3.81032e-10
7.39441e-10
5.19786e-10
4.56262e-10
3.58279e-10
1.57042e-09
1.4828e-09
1.87062e-09
5.38919e-09
1.96398e-09
2.26836e-09
2.30102e-09
2.28056e-09
8.71813e-10
2.03158e-09
3.64985e-09
5.32528e-09
4.36229e-11
8.77249e-11
1.60051e-10
1.9895e-10
6.94201e-12
6.40317e-12
5.88572e-12
4.26212e-12
3.3536e-12
3.56543e-12
3.57871e-12
3.21411e-12
8.44371e-13
1.30048e-12
1.79085e-12
1.87085e-12
5.3699e-13
5.14086e-13
6.39957e-13
8.7207e-13
4.8442e-13
4.05768e-13
3.70628e-13
3.56191e-13
4.39285e-13
3.66231e-13
3.01894e-13
2.64913e-13
3.77449e-13
3.08337e-13
2.60505e-13
2.22854e-13
3.04953e-13
2.63225e-13
2.16364e-13
1.84074e-13
2.44036e-13
2.03333e-13
1.73674e-13
1.49992e-13
1.7976e-13
1.55905e-13
1.31457e-13
1.13662e-13
1.26227e-13
1.06786e-13
9.31723e-14
8.1699e-14
7.84013e-14
6.91487e-14
5.94786e-14
5.19605e-14
4.34338e-14
3.73032e-14
3.25598e-14
2.8341e-14
2.01222e-14
1.77014e-14
1.49647e-14
1.27822e-14
7.98547e-15
6.72591e-15
5.7448e-15
4.783e-15
2.66597e-15
2.268e-15
1.87872e-15
1.51506e-15
7.52233e-16
6.20925e-16
5.09366e-16
4.00634e-16
1.82083e-16
1.52321e-16
1.21366e-16
9.29263e-17
3.81458e-17
3.12919e-17
2.43888e-17
1.80441e-17
6.94612e-18
5.50936e-18
4.15851e-18
2.97524e-18
1.04493e-18
7.90788e-19
5.69251e-19
3.87513e-19
1.31288e-19
9.46293e-20
6.42427e-20
4.12211e-20
1.37748e-20
9.10088e-21
5.72758e-21
3.5449e-21
1.18248e-21
7.08408e-22
4.54138e-22
2.14586e-22
8.4064e-23
3.55731e-23
7.75692e-24
8.96151e-25
1.4772e-24
1.55907e-25
1.40579e-26
8.30219e-27
2.67477e-28
8.57229e-28
2.04549e-27
5.67467e-27
2.55688e-28
7.86872e-28
2.37045e-27
7.53458e-27
2.51438e-28
7.48357e-28
2.71704e-27
8.61503e-27
1.96298e-28
6.8541e-28
2.2442e-27
6.29601e-27
0.0154729
0.000194312
0.000513183
0.023801
0.0386845
0.00541343
8.53076e-05
8.78537e-05
6.16552e-06
6.98032e-05
0.000103168
0.000104772
8.97579e-05
3.36822e-05
1.01958e-05
1.07666e-05
1.31387e-05
4.33244e-06
3.72613e-07
0.00242124
0.000200455
0.00479686
0.00782671
0.00142438
0.000178894
0.000243998
0.000242176
2.34482e-06
3.14241e-06
9.93485e-06
1.92574e-05
2.03025e-05
1.59279e-05
1.82415e-05
6.67491e-05
2.11174e-05
7.65237e-06
2.65727e-05
0.00077097
0.000653976
0.00024517
1.31907e-06
5.4897e-05
0.000266741
0.000265995
9.99142e-05
3.37748e-06
3.12229e-06
8.38408e-07
1.11098e-06
1.86062e-06
1.73268e-05
0.000139346
0.000172101
0.000267437
0.00288297
0.00499722
0.000346078
1.51585e-07
1.54268e-07
1.32008e-06
2.23282e-06
8.07762e-06
3.39558e-06
3.47021e-06
1.45191e-05
5.67068e-06
2.01858e-06
9.40291e-06
1.83133e-05
6.02421e-05
0.000104705
6.6811e-05
0.000423851
0.00589422
0.00766523
1.25442e-05
9.02911e-07
3.79938e-06
4.94977e-06
3.29477e-06
6.22899e-07
2.15786e-07
5.27947e-07
5.60818e-07
1.58355e-08
2.39941e-08
1.51218e-07
5.16469e-07
5.63414e-06
2.22261e-05
5.35101e-05
7.68982e-05
0.00229749
0.00607962
5.78817e-08
4.89783e-08
1.85633e-07
3.46474e-07
1.48943e-07
1.71003e-08
9.16246e-11
7.32955e-10
2.18425e-08
4.75868e-08
4.43203e-08
5.95683e-08
7.97547e-08
8.98626e-08
1.02238e-07
1.78437e-06
4.1394e-05
0.000407813
0.000434555
1.55335e-09
1.0037e-07
1.55608e-07
1.82654e-07
1.32317e-07
4.09897e-08
1.70827e-11
3.25023e-11
4.52437e-11
1.19261e-11
-2.82904e-13
3.76878e-13
0.000140376
0.000855299
0.00134844
0.00146391
0.00132494
0.000750797
0.000629055
8.45036e-09
1.39373e-07
1.65842e-07
1.27395e-07
2.85261e-10
-1.75046e-10
1.08325e-24
1.76459e-07
1.14087e-06
1.46513e-06
2.69342e-07
9.36823e-06
0.00147484
0.00278751
0.00275739
0.00274039
0.00228277
0.00139825
0.000971444
1.17497e-08
1.81935e-08
2.11154e-08
1.97708e-08
3.34401e-08
1.58538e-07
1.49232e-07
1.267e-07
2.2475e-05
5.55476e-05
8.28492e-05
0.000271285
0.000925988
0.00140724
0.00105956
0.000302646
4.94989e-07
-4.37258e-09
1.02853e-09
2.25787e-09
2.67842e-09
2.25102e-08
1.25745e-07
2.68966e-07
1.7153e-06
6.58801e-06
1.6452e-05
4.1807e-05
0.000118467
0.000124293
8.88261e-05
-1.80623e-13
1.58214e-11
9.95486e-16
9.04269e-10
3.05333e-09
1.58354e-08
1.20511e-09
6.74554e-09
1.06333e-08
2.43112e-08
7.58185e-08
1.40816e-07
3.14891e-07
1.89343e-06
4.6707e-06
7.84409e-06
5.70807e-06
2.91736e-07
-3.86987e-16
3.83013e-09
1.47338e-08
9.05955e-09
1.1284e-08
2.9856e-08
2.24114e-08
1.3096e-09
1.95896e-10
1.89206e-10
4.69064e-10
2.12273e-09
4.54028e-09
8.96878e-14
2.56749e-14
-3.7348e-16
3.25318e-14
7.50413e-09
3.02451e-09
3.64357e-08
8.10748e-08
8.15298e-08
2.17891e-08
9.34142e-09
2.18101e-08
1.43906e-08
4.72187e-10
3.49682e-12
3.52487e-12
2.38943e-12
1.32905e-12
1.52299e-12
3.37378e-12
9.33784e-11
4.33241e-10
7.27633e-10
7.41177e-10
1.00296e-08
7.73285e-08
9.05661e-08
7.58698e-08
1.75367e-08
1.16365e-09
1.77725e-09
5.76761e-11
1.99639e-10
2.16774e-12
1.25335e-12
1.16398e-12
1.81428e-12
3.27639e-12
1.24143e-11
1.06487e-10
7.53256e-10
1.97124e-09
3.2299e-09
9.71427e-09
3.99944e-08
5.27855e-08
1.64965e-08
4.21001e-09
6.79656e-10
6.03582e-11
5.37408e-11
1.00976e-10
1.79782e-12
1.17991e-12
1.01418e-12
1.60864e-12
3.94088e-12
1.93712e-11
2.1682e-10
7.89381e-10
2.05052e-09
3.95347e-09
6.32068e-09
6.61598e-09
3.52527e-09
8.15254e-10
6.50491e-10
5.48274e-10
9.47714e-11
5.02952e-11
7.35003e-11
1.00787e-12
1.09159e-12
1.51045e-12
3.93918e-12
1.50005e-11
6.59043e-11
2.01036e-10
4.08892e-10
1.01029e-09
2.10844e-09
3.41023e-09
7.89752e-09
3.44682e-09
2.91348e-09
1.47613e-09
4.27839e-10
7.35736e-11
2.68492e-11
3.67606e-11
5.20136e-13
1.33903e-12
3.22718e-12
7.55308e-12
3.20647e-11
9.49538e-11
2.28013e-10
4.2318e-10
7.41282e-10
9.25121e-10
1.51066e-09
2.96892e-09
3.64667e-09
2.79777e-09
1.31467e-09
3.34834e-10
4.06125e-11
1.29491e-11
1.26908e-11
3.50144e-13
2.0481e-12
7.93373e-12
1.93991e-11
4.57153e-11
9.96153e-11
1.87265e-10
3.69202e-10
5.45981e-10
7.66649e-10
1.03369e-09
9.31768e-10
1.11178e-09
9.05921e-10
4.42189e-10
1.28722e-10
1.87097e-11
4.76455e-12
4.95284e-12
2.67962e-13
1.70721e-12
8.29493e-12
2.28311e-11
5.09026e-11
7.83328e-11
1.30553e-10
2.57016e-10
3.94449e-10
5.17778e-10
5.68268e-10
4.49706e-10
2.65649e-10
1.33377e-10
5.40521e-11
9.02388e-12
1.77604e-12
2.0465e-12
2.0731e-12
1.98976e-13
9.67105e-13
4.85589e-12
1.49318e-11
3.14119e-11
5.87132e-11
9.59551e-11
1.41404e-10
1.97829e-10
2.42375e-10
2.52278e-10
2.14931e-10
1.4226e-10
7.96615e-11
2.63552e-11
2.2732e-12
8.0732e-13
9.38793e-13
7.11341e-13
1.47872e-13
4.59678e-13
2.12359e-12
6.81833e-12
1.47968e-11
2.65962e-11
4.13663e-11
5.75956e-11
7.38506e-11
8.46259e-11
8.55915e-11
7.51902e-11
5.38609e-11
3.32348e-11
9.37709e-12
9.88632e-13
3.68156e-13
1.73501e-13
1.45517e-13
1.04621e-13
2.02509e-13
6.85661e-13
2.0267e-12
4.58306e-12
8.07174e-12
1.22462e-11
1.68768e-11
2.07887e-11
2.32551e-11
2.21491e-11
1.88778e-11
1.23939e-11
4.81899e-12
7.2891e-13
1.3085e-13
8.42737e-14
3.65238e-14
1.18438e-14
7.06265e-14
9.25965e-14
2.01409e-13
4.56392e-13
9.69229e-13
1.90321e-12
3.05817e-12
4.00689e-12
4.8572e-12
5.21581e-12
5.03996e-12
4.41747e-12
2.96441e-12
1.06454e-12
1.37736e-13
4.94031e-14
1.26542e-14
3.75282e-15
1.48339e-15
4.21351e-14
4.26421e-14
5.76236e-14
9.12126e-14
1.5083e-13
2.62947e-13
4.48851e-13
6.72788e-13
7.78341e-13
8.34389e-13
8.16936e-13
7.16478e-13
4.76181e-13
1.65315e-13
2.7361e-14
4.30969e-15
1.46793e-15
5.23784e-16
1.3689e-16
2.16484e-14
1.87767e-14
1.79157e-14
1.8693e-14
2.30477e-14
3.41712e-14
5.69116e-14
8.53479e-14
1.0015e-13
1.09291e-13
1.08912e-13
9.94408e-14
6.99193e-14
2.54524e-14
5.28663e-15
6.70249e-16
2.00678e-16
9.44797e-17
4.80129e-17
9.39456e-15
7.32879e-15
5.81923e-15
4.76754e-15
4.31865e-15
4.45941e-15
5.71509e-15
7.298e-15
8.7153e-15
1.03188e-14
1.11618e-14
1.08179e-14
8.22794e-15
3.1881e-15
4.54768e-16
7.76709e-17
4.09002e-17
5.1923e-17
2.8869e-17
3.35147e-15
2.48957e-15
1.82992e-15
1.32352e-15
9.46351e-16
7.05512e-16
5.69128e-16
5.68871e-16
6.51628e-16
7.739e-16
9.2923e-16
9.57559e-16
7.86614e-16
3.41109e-16
4.25138e-17
1.35352e-17
2.06256e-17
3.461e-17
2.0418e-17
1.0076e-15
7.09848e-16
4.92378e-16
3.38521e-16
2.28783e-16
1.42849e-16
7.76246e-17
5.32615e-17
5.12138e-17
5.75884e-17
6.92094e-17
7.41789e-17
5.04916e-17
2.14016e-17
6.10552e-18
6.08753e-18
1.10271e-17
2.19717e-17
1.44342e-17
2.52564e-16
1.66247e-16
1.07923e-16
6.72838e-17
4.48211e-17
2.17589e-17
1.20129e-17
8.07788e-18
5.26815e-18
4.45614e-18
4.59341e-18
3.28756e-18
2.02805e-18
1.0756e-18
1.54902e-18
2.70409e-18
5.84707e-18
1.24021e-17
1.05034e-17
5.53263e-17
3.24444e-17
1.93668e-17
1.25657e-17
5.26028e-18
1.85472e-18
1.1174e-18
8.86884e-19
6.49311e-19
3.96435e-19
2.30459e-19
1.66713e-19
1.39935e-19
2.25927e-19
5.51426e-19
1.32814e-18
3.25039e-18
8.91365e-18
6.73855e-18
9.88948e-18
5.2975e-18
3.25747e-18
1.32973e-18
3.43849e-19
7.48372e-20
5.47054e-20
5.30013e-20
4.88515e-20
3.81801e-20
2.84719e-20
4.41158e-20
8.4279e-20
1.72041e-19
3.60695e-19
8.45478e-19
2.13644e-18
5.60112e-18
4.59301e-18
1.49109e-18
7.5815e-19
3.83976e-19
9.03133e-20
1.05181e-20
1.70246e-21
2.04989e-21
3.19176e-21
5.30283e-21
9.52807e-21
1.99716e-20
4.1339e-20
8.47924e-20
1.63847e-19
3.08099e-19
6.85861e-19
1.67447e-18
3.8138e-18
2.51689e-18
1.82727e-19
9.26836e-20
2.35557e-20
2.31612e-21
2.02386e-22
2.64166e-22
6.06836e-22
1.52354e-21
3.79124e-21
8.90027e-21
2.01577e-20
4.30317e-20
8.52866e-20
1.57977e-19
2.72789e-19
6.01515e-19
1.33957e-18
2.07799e-18
1.59652e-18
2.13495e-20
5.10417e-21
5.12347e-22
5.47721e-23
7.69526e-23
2.00167e-22
5.48e-22
1.45518e-21
3.6944e-21
8.878e-21
2.03869e-20
4.34348e-20
8.43716e-20
1.46179e-19
2.52475e-19
5.18907e-19
9.27126e-19
1.38164e-18
7.62763e-19
1.58567e-21
1.85729e-22
1.30521e-23
2.05767e-23
6.13342e-23
1.81617e-22
5.2056e-22
1.39836e-21
3.5385e-21
8.47473e-21
1.9289e-20
4.05756e-20
7.64004e-20
1.33279e-19
2.36475e-19
4.16326e-19
6.67154e-19
6.94085e-19
4.56428e-19
3.132e-23
2.38955e-24
4.64442e-24
1.64463e-23
5.45513e-23
1.66719e-22
4.7928e-22
1.2907e-21
3.29119e-21
7.94202e-21
1.80566e-20
3.76568e-20
7.06537e-20
1.22108e-19
1.98373e-19
3.10255e-19
4.19533e-19
4.36188e-19
1.8625e-19
2.55742e-25
8.65242e-25
3.7074e-24
1.43223e-23
4.72347e-23
1.45035e-22
4.14914e-22
1.10968e-21
2.81457e-21
6.75672e-21
1.52076e-20
3.14277e-20
5.83152e-20
1.00035e-19
1.54536e-19
2.24685e-19
2.72613e-19
1.95041e-19
1.01332e-19
1.25657e-25
7.43516e-25
3.15335e-24
1.17129e-23
3.8375e-23
1.15144e-22
3.27232e-22
8.63891e-22
2.17345e-21
5.18763e-21
1.16029e-20
2.3774e-20
4.38434e-20
7.30036e-20
1.11417e-19
1.41254e-19
1.37066e-19
1.09158e-19
3.53595e-20
1.1617e-25
5.96634e-25
2.43264e-24
8.55825e-24
2.72081e-23
8.03534e-23
2.23693e-22
5.87026e-22
1.46547e-21
3.4815e-21
7.75266e-21
1.57171e-20
2.88441e-20
4.78934e-20
6.47387e-20
8.53263e-20
7.39314e-20
3.87908e-20
1.88956e-20
9.56294e-26
4.26724e-25
1.56442e-24
5.02539e-24
1.54318e-23
4.40793e-23
1.20969e-22
3.23693e-22
8.08722e-22
1.94421e-21
4.38189e-21
8.97764e-21
1.65166e-20
2.74048e-20
3.52183e-20
4.44422e-20
2.96159e-20
1.79702e-20
1.03026e-20
6.05357e-26
2.27891e-25
7.46091e-25
2.25485e-24
6.65532e-24
1.92e-23
5.37105e-23
1.44778e-22
3.70292e-22
9.1128e-22
2.0827e-21
4.26495e-21
7.81737e-21
1.30913e-20
1.73131e-20
2.01629e-20
1.13634e-20
7.9893e-21
4.66025e-21
2.16703e-26
6.60098e-26
1.91762e-25
5.25033e-25
1.62578e-24
5.06133e-24
1.48714e-23
4.05596e-23
1.07429e-22
2.67749e-22
6.16615e-22
1.29485e-21
2.40097e-21
3.91146e-21
5.13891e-21
5.7225e-21
3.32992e-21
2.13108e-21
6.94936e-22
)
;

boundaryField
{
    leftWall
    {
        type            alphaContactAngle;
        contactAngleProperties 
        {
            air             
            {
                theta0          90;
            }
            water           
            {
                theta0          90;
            }
            oil             
            {
                theta0          90;
            }
        }
        value           nonuniform List<scalar> 
50
(
1
1
1
1
1
1
0.954029
0.313451
2.99838e-10
3.0004e-10
3.055e-10
3.81668e-10
3.66904e-10
4.31622e-10
4.65581e-10
4.10144e-10
2.79436e-10
1.39289e-10
1.08022e-10
1.0826e-10
1.108e-10
1.09629e-10
1.01975e-10
8.84128e-11
6.97811e-11
5.05679e-11
3.57778e-11
2.46073e-11
1.82539e-11
1.17971e-11
8.61859e-12
5.51649e-12
3.504e-12
2.209e-12
1.18971e-12
6.86233e-13
3.34838e-13
1.70201e-13
6.32819e-14
2.34866e-14
7.38125e-15
2.09383e-15
5.05203e-16
9.6965e-17
1.52144e-17
1.94822e-18
1.82057e-19
9.78207e-21
1.01826e-22
9.34862e-28
)
;
    }
    rightWall
    {
        type            alphaContactAngle;
        contactAngleProperties 
        {
            air             
            {
                theta0          90;
            }
            water           
            {
                theta0          90;
            }
            oil             
            {
                theta0          90;
            }
        }
        value           nonuniform List<scalar> 
50
(
0.75143
0.751369
0.710379
0.512967
0.399864
0.117847
0.0389754
2.77892e-08
3.72613e-07
2.65727e-05
0.00499722
0.00766523
0.00607962
0.000434555
0.000629055
0.000971444
1.02853e-09
1.20511e-09
1.3096e-09
4.72187e-10
1.99639e-10
1.00976e-10
7.35003e-11
3.67606e-11
1.26908e-11
4.95284e-12
2.0731e-12
7.11341e-13
1.45517e-13
1.18438e-14
1.48339e-15
1.3689e-16
4.80129e-17
2.8869e-17
2.0418e-17
1.44342e-17
1.05034e-17
6.73855e-18
4.59301e-18
2.51689e-18
1.59652e-18
7.62763e-19
4.56428e-19
1.8625e-19
1.01332e-19
3.53595e-20
1.88956e-20
1.03026e-20
4.66025e-21
6.94936e-22
)
;
    }
    lowerWall
    {
        type            alphaContactAngle;
        contactAngleProperties 
        {
            air             
            {
                theta0          90;
            }
            water           
            {
                theta0          90;
            }
            oil             
            {
                theta0          90;
            }
        }
        value           nonuniform List<scalar> 
62
(
1
1
1
1
1
1
1
1
1
1
1
1
1
1
1
1
1
1
1
0.999848
0.999578
0.999433
0.999433
0.999433
0.99974
1
1
0.999998
0.531219
0.00495942
4.43267e-17
0.021953
0.0548791
0.0548843
0.0547055
0.87634
0.552998
0.162558
0.177157
0.135081
0.0833004
0.0120305
0.00942268
0.87634
0.877424
0.877561
0.877558
0.877558
0.877537
0.869127
0.705196
0.636282
0.636279
0.641649
0.627912
0.599587
0.599473
0.683152
0.751476
0.751438
0.751367
0.75143
)
;
    }
    atmosphere
    {
        type            inletOutlet;
        inletValue      uniform 0;
        value           nonuniform List<scalar> 
46
(
0
0
1.55475e-23
2.09005e-23
1.59197e-23
2.02915e-23
2.29176e-23
2.80518e-23
3.38138e-23
4.25105e-23
3.50875e-23
2.32332e-23
1.31229e-23
6.1684e-24
2.2495e-24
7.51415e-25
2.71377e-25
9.50754e-26
2.93464e-26
0
0
0
0
0
0
0
0
0
0
0
0
0
0
0
0
0
0
0
0
0
0
0
0
0
0
0
)
;
    }
    defaultFaces
    {
        type            empty;
    }
}


// ************************************************************************* //
