/*--------------------------------*- C++ -*----------------------------------*\
  =========                 |
  \\      /  F ield         | OpenFOAM: The Open Source CFD Toolbox
   \\    /   O peration     | Website:  https://openfoam.org
    \\  /    A nd           | Version:  13
     \\/     M anipulation  |
\*---------------------------------------------------------------------------*/
FoamFile
{
    format      ascii;
    class       volScalarField;
    location    "2.2";
    object      alphas;
}
// * * * * * * * * * * * * * * * * * * * * * * * * * * * * * * * * * * * * * //

dimensions      [];

internalField   nonuniform List<scalar> 
2268
(
2
2
2
2
2
2
2
2
2
2
2
2
2
2
2
2
2
2
2
1.99985
1.99958
1.99943
1.99943
2
2
2
2
2
2
2
2
2
2
2
2
2
2
2
2
2
2
2
2
2
1.99995
1.99974
2
2
2
2
2
2
2
2
2
2
2
2
2
2
2
2
2
2
2
2
2
2
2
2
2
2
2
2
2
2
2
2
2
2
2
2
2
2
2
2
2
2
2
2
2
2
2
2
2
2
2
2
2
2
2
2
2
2
2
2
2
2
2
2
2
2
2
2
2
2
2
2
2
2
2
2
2
2
2
2
1.95311
1.83096
1.68843
1.53196
1.37285
1.24272
1.14683
1.08083
1.04049
1.02637
1.04666
1.06468
1.90806
1.94803
1.97428
1.9791
1.96566
1.94777
1.90649
1.79384
1.58352
1.27779
0.911946
0.588078
0.361138
0.197402
0.097825
0.0546887
0.0319752
0.0193665
0.0127768
0.0100105
0.0100288
0.0126712
0.0137675
0.626902
0.769683
0.907368
0.937962
0.884768
0.727035
0.517648
0.312181
0.142951
0.0366737
0.000910159
4.3646e-07
3.58701e-07
3.24905e-07
3.31844e-07
1.33923e-06
5.73321e-06
4.76864e-05
8.69502e-05
0.00014819
0.000252871
0.000436232
0.00129581
1.86628
1.86738
1.86043
1.8564
1.86486
1.88758
1.94354
1.81312
1.76711
1.72617
1.72803
1.71427
1.73937
1.7676
1.73332
1.72424
1.67482
1.76607
1.76462
1.52194
1.53072
1.53764
1.5037
1.44213
1.41279
1.39094
1.5768
1.71062
1.76085
1.92076
1.94995
1.86406
1.86295
1.8441
1.7404
1.69553
1.76717
1.76456
0.77842
0.682484
0.783082
0.906935
1.02886
0.914509
0.570608
0.48409
0.644646
0.980568
1.68414
2.23695
2.05307
1.90549
2.01461
1.99292
1.86806
1.76998
1.73144
0.577788
0.40481
0.359305
0.478216
0.800307
0.93044
0.731767
0.290951
0.0162609
0.0132383
0.569438
2.12728
2.41681
2.29889
2.23607
2.26824
1.98058
1.69486
1.54035
0.320481
0.340582
0.337506
0.339237
0.755648
0.949456
0.97306
0.75836
0.135054
0.00611037
0.127217
1.63759
2.21917
2.3737
2.37232
2.26204
2.24286
1.97153
1.6531
0.235215
0.238849
0.237175
0.2304
0.886406
1.12124
1.13559
0.47416
0.123223
0.00555144
0.00112233
0.865431
1.98917
2.16931
2.25472
2.01487
1.95133
2.04968
1.91427
0.261641
0.272206
0.245465
0.311893
1.15689
1.2325
0.632637
0.0294774
0.00367302
0.00201111
0.000561936
0.0646106
1.08666
1.74611
1.70624
0.75727
0.505322
1.00672
1.6189
0.255979
0.27526
0.252751
0.626651
1.36622
1.11305
0.295562
0.0016149
0.00153463
0.000712994
0.000384299
0.00186933
0.038441
0.308019
0.345505
0.119837
0.0282353
0.00152512
0.588124
1.79677e-08
3.11535e-08
3.23291e-07
7.52913e-06
5.2187e-07
3.29617e-08
6.60439e-09
1.06325e-07
1.39719e-07
7.29494e-09
9.53083e-09
1.29955e-08
1.61666e-08
3.92343e-08
9.05905e-08
2.11552e-07
7.84174e-07
2.91733e-06
1.21877e-06
1.25203e-06
2.22722e-06
2.31006e-06
3.27398e-05
4.9003e-08
2.72601e-07
3.85052e-06
4.90989e-05
1.5602e-06
7.16757e-07
1.11348e-08
1.46058e-08
1.57111e-08
1.78752e-08
2.03416e-08
2.24951e-08
2.36711e-08
2.52545e-08
2.5871e-08
2.70753e-08
3.64447e-08
3.75473e-08
0.000415802
0.0514619
0.0843028
0.128642
0.090929
5.00966e-08
9.42226e-07
5.00062e-06
0.00125089
0.00041373
1.98313e-05
9.10328e-08
6.46584e-09
5.37069e-09
4.29567e-09
2.85837e-09
2.32642e-09
1.89381e-09
2.46047e-06
0.0214331
0.0646996
0.100168
0.203484
0.420784
0.520191
0.758643
0.767245
0.958284
0.0164781
0.0260661
0.0236999
0.0096412
0.00404955
0.000310673
0.000685522
0.00250683
0.00309077
0.0224727
0.0529171
0.101284
0.199579
0.380319
0.532316
0.675646
0.861683
1.0444
1.19905
1.18509
1.04109
1.12557
1.31305
0.50602
0.448332
0.35524
0.374987
0.390165
0.390503
0.315623
0.483629
0.609128
0.689905
0.824994
0.929117
1.07296
1.23829
1.31081
1.23469
1.29961
1.27524
1.02734
1.00341
1.00445
1.1053
1.14728
1.22449
1.09681
1.00097
0.993297
0.983377
0.976308
0.999567
1.16997
1.19175
1.14292
1.18033
1.22816
1.22944
1.11831
1.03971
1.04144
1.06152
1.04042
1.00003
1.0002
1.00422
1.00599
1
1.53148
1.40858
1.21411
1.09162
1.01825
1.00138
1.00149
1.00164
1.00126
1.0004
1.00031
1.00038
1.00014
1
1
1
1
1
1.00003
1.00017
1.00017
1
1
2.53311
2.6762
2.6672
2.45301
2.12102
1.73111
1.39195
1.135
1.00929
1.00001
1.00001
1
1
1
1
1
1
1
1
1
1
1
1
2.99988
2.99998
2.99993
2.99995
2.99879
2.95851
2.83463
2.64057
2.36413
1.97063
1.53946
1.18804
1.04437
1.03162
1.03583
1.0287
1.0209
1.01914
1.02285
1.03757
1.04503
1.04707
1.04995
3
3
3
2.99988
2.99976
2.99998
2.99999
2.99999
2.99999
2.99606
2.95632
2.87615
2.76847
2.61557
2.40816
2.23576
2.17498
2.17027
2.24864
2.42205
2.4971
2.53996
2.77816
3
2.99999
2.99998
2.99985
2.99971
2.99989
3
3
3
2.99999
2.99999
2.99999
3
3
3
3
3
3
3
3
3
3
3
3
2.99999
2.99998
2.99993
2.99995
2.99996
3
3
3
3
3
3
3
3
3
3
3
3
3
3
3
3
3
3
3
3
3
3
3
3
2.99996
2.99983
2.99973
2.99986
2.99999
3
3
3
3
3
3
3
3
3
3
3
3
3
3
3
3
3
3
2.99995
2.99967
2.99967
2.99967
2.99978
2.99999
3
3
3
3
3
3
3
3
3
3
3
3
3
3
3
3
3
2.99998
2.99973
2.99967
2.99967
2.9998
2.99999
2.99999
3
3
3
3
3
3
3
3
3
3
3
3
3
3
3
3
3
2.99998
2.99985
2.99986
2.99997
2.99999
2.99999
2.99999
2.99999
2.99999
3
3
3
3
3
3
3
3
3
3
3
3
3
3
3
3
3
3
2.99999
2.99999
2.99999
3
3
3
3
3
3
3
3
3
3
3
3
3
3
3
3
3
3
3
3
3
3
3
3
3
3
3
3
3
3
3
3
3
3
3
3
3
3
3
3
3
3
3
3
3
3
3
3
3
3
3
3
3
3
3
3
3
3
3
3
3
3
3
3
3
3
3
3
3
3
3
3
3
3
3
3
3
3
3
3
3
3
3
3
3
3
3
3
3
3
3
3
3
3
3
3
3
3
3
3
3
3
3
3
3
3
3
3
3
3
3
3
3
3
3
3
3
3
3
3
3
3
3
3
3
3
3
3
3
3
3
3
3
3
3
3
3
3
3
3
3
3
3
3
3
3
3
3
3
3
3
3
3
3
3
3
3
3
3
3
3
3
3
3
3
3
3
3
3
3
3
3
3
3
3
3
3
3
3
3
3
3
3
3
3
3
3
3
3
3
3
3
3
3
3
3
3
3
3
3
3
3
3
3
3
3
3
3
3
3
3
3
3
3
3
3
3
3
3
3
3
3
3
3
3
3
3
3
3
3
3
3
3
3
3
3
3
3
3
3
3
3
3
3
3
3
3
3
3
3
3
3
3
3
3
3
3
3
3
3
3
3
3
3
3
3
3
3
3
3
3
3
3
3
3
3
3
3
3
3
3
3
3
3
3
3
3
3
3
3
3
3
3
3
3
3
3
3
3
3
3
3
3
3
3
3
3
3
3
3
3
3
3
3
3
3
3
3
3
3
3
3
3
3
3
3
3
3
3
3
3
3
3
3
3
3
3
3
3
3
3
3
3
3
3
3
3
3
3
3
3
3
3
3
3
3
3
3
3
3
3
3
3
3
3
3
3
3
3
3
3
3
3
3
3
3
3
3
3
3
3
3
3
3
3
3
3
3
3
3
3
3
3
3
3
3
3
3
3
3
3
3
3
3
3
3
3
3
3
3
3
3
3
3
3
3
3
3
3
3
3
3
3
3
3
3
3
3
3
3
3
3
3
3
3
3
3
3
3
3
3
3
3
3
3
3
3
3
3
3
3
3
3
3
3
3
3
3
3
3
3
3
3
3
3
3
3
3
3
3
3
3
3
3
3
3
3
3
3
3
3
3
3
3
3
3
3
3
3
3
3
3
3
3
3
3
3
3
3
3
3
3
3
3
3
3
3
3
3
3
3
3
3
3
3
3
3
3
3
3
3
3
3
3
3
3
3
3
3
3
3
3
3
3
3
3
3
3
3
3
3
3
3
3
3
3
3
3
3
3
3
3
3
3
3
3
3
3
3
3
3
3
3
3
3
3
3
3
3
3
3
3
3
3
3
3
3
3
3
3
3
3
3
0.0673651
0.222153
0.40363
0.513408
0.595197
1.27883
1.27975
0.832509
1.33164
1.36419
1.25203
1.09642
1.29687
1.04821
1.06938
1.10194
1.00968
0.999609
1.00014
1.00006
1
1.00001
1.00001
1.00001
1
1
0.999999
0.999989
0.999999
0.999996
0.999995
0.999998
1.04315
1.06939
1.1593
1.28277
2.94869
2.94481
2.95041
2.97771
3
3
3
3
3
3
3
3
3
3
3
3
3
3
3
3
3
3
3
3
3
3
3
3
3
3
3
3
3
3
3
3
3
3
3
3
3
3
3
3
3
3
3
3
3
3
3
3
3
3
3
3
3
3
3
3
3
3
3
3
3
3
3
3
3
3
3
3
3
3
3
3
3
3
3
3
3
3
3
3
3
3
3
3
3
3
3
3
3
3
3
3
3
3
3
3
3
3
3
3
3
3
3
3
3
3
3
3
3
3
3
3
3
3
3
3
3
3
3
3
3
3
3
3
3
3
3
3
0.468371
0.284955
0.421882
0.873033
1.36022
0.840568
0.207431
0.022732
0.0128446
0.00490573
0.00256462
0.00118565
0.000600696
0.000352502
0.00123052
0.000151811
0.00013736
0.00165798
0.365102
0.615032
0.573652
0.910286
1.29723
1.18148
0.809639
0.695636
0.507232
0.395886
0.295236
0.20914
0.137689
0.0859795
0.0459482
0.00130901
0.000550142
0.000592137
0.00736579
0.085733
1.15868
1.07808
1.00452
1.03061
1.19805
1.29198
1.21707
1.00712
0.999922
0.99428
0.963707
0.913583
0.86093
0.801852
0.698074
0.510454
0.304729
0.282184
0.313221
1.03744
1.00092
1.00044
1.04084
1.1123
1.04821
1.00002
1
1.00004
1.00004
1.00001
1.00003
1.00017
1.00048
1.00061
0.998151
0.980342
0.997361
0.916956
1.00006
1.00099
1.0014
1.00178
1
1
1
1.00001
1.00002
1
1
1
1.00016
1.00049
1.00049
1.00037
1.0004
1.01614
1.07942
1.00001
1.00002
1.00005
1
1
1
1
1
1
1
1
1
1
1
1
1.00001
0.999097
0.998951
0.998287
0.999993
1
1
1
1
1
1
1
1
1
1
1
1.00443
1.03069
1.06774
1.11757
1.19601
1.30306
1.41778
0.999999
1
1
1
1.04913
1.13157
1.22939
1.33159
1.42697
1.50983
1.59189
1.74904
2.03446
2.29954
2.44817
2.56952
2.7056
2.82155
2.91527
1.48478
1.74759
1.99652
2.23155
2.4309
2.58276
2.70411
2.79935
2.87055
2.93022
2.98188
2.99568
2.98664
2.9818
2.98831
2.9967
2.99997
3
3
2.99139
2.99509
2.99622
3
3
2.99998
2.99993
2.99983
2.99953
2.99847
2.99836
2.99879
2.99965
2.99971
2.99995
3
3
3
3
3
3
3
3
3
2.99995
2.99991
2.99986
2.99986
2.99988
2.99978
2.99817
2.99787
2.99882
2.99999
3
3
3
3
3
3
3
3
3
2.99965
2.99803
2.99805
2.99927
2.9999
2.99979
2.99818
2.99788
2.99888
2.99999
3
3
3
3
3
3
3
3
3
2.99976
2.99818
2.99802
2.99805
2.99954
3
3
3
3
3
3
3
3
3
3
3
3
3
3
3
2.99997
2.99962
2.99952
2.99989
3
3
3
3
3
3
3
3
3
3
3
3
3
3
3
3
3
3
3
3
3
3
3
3
3
3
3
3
3
3
3
3
3
3
3
3
3
3
3
3
3
3
3
3
3
3
3
3
3
3
3
3
3
3
3
3
3
3
3
3
3
3
3
3
3
3
3
3
3
3
3
3
3
3
3
3
3
3
3
3
3
3
3
3
3
3
3
3
3
3
3
3
3
3
3
3
3
3
3
3
3
3
3
3
3
3
3
3
3
3
3
3
3
3
3
3
3
3
3
3
3
3
3
3
3
3
3
3
3
3
3
3
3
3
3
3
3
3
3
3
3
3
3
3
3
3
3
3
3
3
3
3
3
3
3
3
3
3
3
3
3
3
3
3
3
3
3
3
3
3
3
3
3
3
3
3
3
3
3
3
3
3
3
3
3
3
3
3
3
3
3
3
3
3
3
3
3
3
3
3
3
3
3
3
3
3
3
3
3
3
3
3
3
3
3
3
3
3
3
3
3
3
3
3
3
3
3
3
3
3
3
3
3
3
3
3
3
3
3
3
3
3
3
3
3
3
3
3
3
3
3
3
3
3
3
3
3
3
3
3
3
3
3
3
3
3
3
3
3
3
3
3
3
3
3
3
3
3
3
3
3
3
3
3
3
3
3
3
3
3
3
3
3
3
3
3
3
3
3
3
3
3
3
3
3
3
3
3
3
3
3
3
3
3
3
3
3
3
3
3
3
3
3
3
3
3
3
3
3
3
3
3
3
3
3
3
3
3
3
3
3
3
3
3
3
3
3
3
3
3
3
3
3
3
3
3
3
3
3
3
3
3
3
3
3
3
3
3
3
3
3
3
3
3
3
3
3
3
3
3
3
3
3
3
3
3
3
3
3
3
3
3
3
3
3
3
3
3
3
3
3
3
3
3
3
3
3
3
3
3
3
3
3
3
3
3
3
3
3
3
3
3
3
3
3
3
3
3
3
3
3
3
3
3
3
3
3
3
3
3
3
3
3
3
3
3
3
3
3
3
3
3
3
3
3
3
3
3
3
3
3
3
3
3
3
3
3
3
3
3
3
3
3
3
3
3
3
3
3
3
3
3
3
3
3
3
3
3
3
3
3
3
3
3
3
3
3
3
3
3
3
3
3
3
3
3
3
3
3
3
3
3
3
3
3
3
3
3
3
3
3
3
3
3
3
3
3
3
3
3
3
3
3
3
3
3
3
3
3
3
3
)
;

boundaryField
{
    leftWall
    {
        type            calculated;
        value           nonuniform List<scalar> 
50
(
2
2
2
2
2
2
1.90806
0.626902
1.79677e-08
4.9003e-08
5.00966e-08
0.0164781
0.50602
1.22449
1.53148
2.53311
2.99988
3
3
3
3
3
3
3
3
3
3
3
3
3
3
3
3
3
3
3
3
3
3
3
3
3
3
3
3
3
3
3
3
3
)
;
    }
    rightWall
    {
        type            calculated;
        value           nonuniform List<scalar> 
50
(
1.76462
1.76456
1.73144
1.54035
1.6531
1.91427
1.6189
0.588124
0.365102
0.085733
0.313221
0.916956
1.07942
0.998287
1.41778
2.91527
3
3
3
3
3
3
3
3
3
3
3
3
3
3
3
3
3
3
3
3
3
3
3
3
3
3
3
3
3
3
3
3
3
3
)
;
    }
    lowerWall
    {
        type            calculated;
        value           nonuniform List<scalar> 
62
(
2
2
2
2
2
2
2
2
2
2
2
2
2
2
2
2
2
2
2
1.99985
1.99958
1.99943
1.99943
1.99943
1.99974
2
2
2
1.06468
0.0137675
0.00129581
0.0673651
0.222153
0.40363
0.513408
1.86628
1.52194
0.77842
0.577788
0.320481
0.235215
0.261641
0.255979
1.86628
1.86738
1.86043
1.8564
1.86486
1.88758
1.94354
1.81312
1.76711
1.72617
1.72803
1.71427
1.73937
1.7676
1.73332
1.72424
1.67482
1.76607
1.76462
)
;
    }
    atmosphere
    {
        type            calculated;
        value           nonuniform List<scalar> 
46
(
3
3
3
3
3
3
3
3
3
3
3
3
3
3
3
3
3
3
3
3
3
3
3
3
3
3
3
3
3
3
3
3
3
3
3
3
3
3
3
3
3
3
3
3
3
3
)
;
    }
    defaultFaces
    {
        type            empty;
    }
}


// ************************************************************************* //
