/*--------------------------------*- C++ -*----------------------------------*\
  =========                 |
  \\      /  F ield         | OpenFOAM: The Open Source CFD Toolbox
   \\    /   O peration     | Website:  https://openfoam.org
    \\  /    A nd           | Version:  13
     \\/     M anipulation  |
\*---------------------------------------------------------------------------*/
FoamFile
{
    format      ascii;
    class       volScalarField;
    location    "2.2";
    object      alpha.water;
}
// * * * * * * * * * * * * * * * * * * * * * * * * * * * * * * * * * * * * * //

dimensions      [];

internalField   nonuniform List<scalar> 
2268
(
7.66982e-11
9.04799e-11
1.04978e-10
1.11591e-10
1.17784e-10
1.24617e-10
1.31623e-10
1.38993e-10
1.50629e-10
1.74268e-10
1.98065e-10
2.26759e-10
2.71655e-10
3.36489e-10
4.1439e-10
5.12947e-10
6.57734e-10
9.39027e-10
1.49495e-09
2.25049e-09
2.69356e-09
2.77856e-09
2.77882e-09
1.97434e-10
2.5116e-10
2.25325e-10
2.28659e-10
2.55184e-10
2.96481e-10
3.4722e-10
3.98686e-10
4.49516e-10
4.97169e-10
5.47501e-10
6.03532e-10
6.3968e-10
6.51982e-10
6.77131e-10
7.53477e-10
8.88176e-10
1.15094e-09
1.46284e-09
1.91455e-09
2.36979e-09
2.54772e-09
2.417e-09
3.20773e-10
3.74157e-10
3.26972e-10
3.21891e-10
3.62916e-10
4.38662e-10
5.42543e-10
6.66788e-10
8.03809e-10
9.54084e-10
1.09665e-09
1.18382e-09
1.15354e-09
9.6232e-10
8.59953e-10
7.76634e-10
1.35313e-09
1.53966e-09
1.65224e-09
1.94842e-09
2.25016e-09
2.67706e-09
1.33676e-09
3.02549e-10
3.72632e-10
2.98053e-10
2.9402e-10
3.71253e-10
3.93579e-10
4.94431e-10
6.31841e-10
8.64048e-10
1.17193e-09
1.41013e-09
1.49136e-09
1.33613e-09
7.45014e-10
8.12938e-10
5.45088e-10
5.32297e-10
5.34474e-10
5.31176e-10
5.36536e-10
5.21968e-10
1.23838e-09
1.22242e-09
1.25527e-09
4.92133e-09
2.95851e-09
2.29295e-10
6.68214e-10
3.76531e-10
3.80217e-10
8.53449e-10
3.81631e-10
2.59858e-10
2.92891e-10
2.84337e-10
2.05976e-10
7.19542e-11
4.24505e-11
5.57508e-11
2.37339e-11
4.02096e-12
5.16988e-28
2.99726e-10
1.00965e-07
5.76428e-10
5.98442e-10
1.16097e-07
1.24805e-07
8.73134e-08
5.51601e-09
-1.79204e-11
1.61403e-10
-1.72135e-13
2.64829e-08
2.84179e-09
7.8425e-08
4.20157e-07
0.0234448
0.0845178
0.155786
0.234018
0.313577
0.378639
0.426586
0.459595
0.479819
0.486984
0.476955
0.468002
0.0459713
0.0259827
0.0128594
0.0104484
0.0171692
0.0261171
0.0467571
0.103081
0.20824
0.361103
0.544027
0.705961
0.819431
0.901299
0.951088
0.972656
0.984013
0.990322
0.993647
0.995119
0.995288
0.994261
0.993725
0.686549
0.615158
0.546316
0.531019
0.557616
0.636482
0.741176
0.843909
0.928524
0.981663
0.999545
1
1
1
1
1
0.999998
0.999984
0.999971
0.99995
0.999908
0.999849
0.999556
0.0107401
0.0107279
0.0287258
0.057713
0.0641167
0.0577376
0.041896
0.0252653
0.00204023
0.00164981
0.00066545
0.000662395
0.000840793
0.0159758
0.124793
0.124756
0.104617
0.0132982
0.0148107
0.0385858
0.0439175
0.0486496
0.0565082
0.108478
0.2289
0.287251
0.197286
0.121864
0.105791
0.0472266
0.00424348
0.000717041
0.00919216
0.0903767
0.124793
0.0988034
0.0123361
0.0148118
0.416577
0.491564
0.379631
0.263733
0.19084
0.253786
0.595374
0.744484
0.677677
0.509716
0.225565
0.0191386
0.00544811
0.00189745
0.0136168
0.0407909
0.0277302
0.0102538
0.00693582
0.630305
0.803323
0.811795
0.714136
0.345267
0.175674
0.312854
0.720855
0.988834
0.99305
0.797522
0.215694
0.0162384
0.00104033
0.00101506
0.00101675
0.00101505
0.00101676
0.00111202
0.845516
0.835447
0.836967
0.836746
0.381677
0.16701
0.160287
0.345596
0.906115
0.996945
0.957573
0.441947
0.0785558
0.0010153
0.00101651
0.00101506
0.00101675
0.00101505
0.00105199
0.884323
0.884323
0.884323
0.852784
0.250427
0.0964564
0.115305
0.679556
0.938203
0.997227
0.99946
0.655965
0.154697
0.0598695
0.0106964
0.0806955
0.0956425
0.0223417
0.00817571
0.884323
0.884323
0.884323
0.747101
0.0909176
0.0994375
0.681987
0.986817
0.998362
0.999207
0.999767
0.940785
0.472623
0.219401
0.230912
0.546649
0.662095
0.576407
0.169825
0.884312
0.884322
0.884322
0.61188
0.0312743
0.299382
0.900691
0.99946
0.999486
0.999735
0.99981
0.998295
0.961915
0.790213
0.747364
0.880174
0.971775
0.999371
0.535125
1
1
1
0.999997
1
1
1
1
1
1
1
1
1
1
1
1
1
0.999999
1
1
0.999999
0.999999
0.999988
1
1
0.999999
0.999984
0.999999
1
1
1
1
1
1
1
1
1
1
1
1
1
0.999861
0.982846
0.971899
0.957119
0.951084
1
1
0.999998
0.999583
0.999862
0.999993
1
1
1
1
1
1
1
0.999999
0.992856
0.978433
0.966611
0.927398
0.855302
0.790532
0.522409
0.324624
0.219441
0.994507
0.991311
0.9921
0.996786
0.99865
0.999896
0.999771
0.999164
0.99897
0.992509
0.982361
0.966239
0.933474
0.866512
0.781849
0.641766
0.467283
0.292727
0.138062
0.0600853
0.0115496
1.05664e-06
0.0040156
0.794738
0.75295
0.671517
0.625526
0.610251
0.609795
0.69865
0.749585
0.742982
0.680644
0.573578
0.475167
0.33143
0.165994
0.0566416
0.0177766
0.00414618
6.21466e-20
-1.01581e-19
2.43334e-20
4.41191e-20
2.06096e-06
2.16754e-06
0.22136
0.0968267
0.0153801
0.0177505
0.0195745
0.0240487
0.0478902
0.0854783
0.0925939
0.0478547
0.0161772
0.00181224
-1.29511e-22
8.901e-21
-1.27646e-20
2.50476e-21
2.9502e-21
9.97874e-20
3.31105e-17
5.84773e-08
2.52371e-06
4.0268e-06
5.51686e-06
3.24377e-07
0.00132594
1.51023e-05
7.13547e-06
0.000169019
0.000322939
0.000156456
4.7842e-14
-2.45333e-18
-2.4001e-10
-1.42523e-10
4.39602e-19
-2.05322e-24
8.73828e-11
3.91807e-10
1.15156e-10
5.38514e-11
3.58543e-10
1.24463e-09
1.22996e-07
4.06036e-07
4.45131e-07
1.37048e-07
6.03576e-07
1.208e-05
8.6337e-05
6.67339e-05
3.10695e-06
2.5493e-06
4.04895e-06
1.44407e-07
7.55241e-08
9.33658e-08
7.56911e-08
2.84914e-08
2.53014e-13
8.97513e-09
3.15398e-08
4.31439e-08
4.01912e-08
5.36126e-08
1.90073e-07
3.73774e-07
3.88664e-07
2.22384e-07
2.36154e-07
5.98321e-08
4.89791e-09
2.18432e-05
1.63869e-05
1.10834e-05
9.05948e-07
7.75354e-09
3.22337e-08
1.39441e-07
2.37149e-07
2.52451e-07
2.38543e-07
2.63252e-08
9.78996e-10
1.25889e-08
1.07519e-07
1.87287e-07
1.99672e-07
1.63958e-07
1.31505e-07
1.84814e-07
4.45753e-07
5.61974e-07
-3.71038e-09
-9.84249e-25
1.53902e-22
5.52198e-06
1.09642e-05
3.7299e-06
7.39132e-09
7.6839e-09
7.40725e-09
6.85188e-08
2.4788e-07
2.49415e-07
1.28133e-07
2.15609e-10
3.75509e-09
1.14824e-07
1.99672e-07
1.93187e-07
1.2773e-07
1.16044e-09
2.30565e-09
4.14589e-08
5.95518e-08
-6.75435e-09
-5.20582e-10
1.65887e-07
3.18499e-06
7.02956e-06
2.59078e-06
7.62481e-09
1.25472e-08
8.1966e-09
3.14158e-08
9.46967e-08
1.87585e-07
1.4278e-07
1.8097e-08
9.56773e-09
2.16582e-08
3.46877e-08
3.90417e-08
2.13829e-08
9.24061e-09
6.0042e-10
8.1947e-12
2.41024e-11
1.90932e-09
1.76128e-08
3.47202e-07
9.23717e-07
1.63554e-06
5.40892e-08
4.13289e-08
1.682e-08
2.13144e-08
8.34113e-09
7.67308e-09
9.75637e-09
5.19485e-08
2.81428e-08
1.2229e-09
1.40746e-09
1.83202e-09
2.49724e-09
5.74643e-09
6.25755e-09
1.95103e-09
7.23749e-10
3.55577e-10
2.4442e-08
2.61384e-08
1.07657e-07
-3.98375e-10
-9.49982e-11
1.07534e-25
2.71523e-09
3.05844e-09
1.51399e-07
1.2713e-06
2.10481e-06
8.74025e-07
1.1199e-09
9.89243e-10
1.39093e-09
4.595e-09
2.66621e-08
4.63091e-08
1.30319e-08
3.24477e-09
3.16185e-09
2.76534e-09
9.79559e-10
2.50226e-08
1.67557e-08
3.0075e-08
5.56678e-09
1.86321e-09
3.27631e-10
2.15186e-10
2.13531e-10
1.77532e-07
1.3285e-06
3.1244e-06
3.18103e-06
2.11462e-06
3.11809e-07
7.48276e-09
3.37641e-08
1.33734e-07
1.25697e-07
2.33113e-08
6.17633e-09
5.23587e-09
3.26238e-09
2.78861e-09
2.23784e-08
1.14124e-08
1.08644e-08
6.34053e-09
1.53162e-09
4.03883e-10
2.15863e-10
2.08784e-10
6.6884e-08
8.20346e-07
2.85622e-06
3.17651e-06
3.18144e-06
2.13114e-06
1.45523e-06
1.62088e-06
1.29614e-06
3.02428e-07
6.70042e-08
2.43153e-08
1.04666e-08
6.86918e-09
6.38482e-09
1.81706e-08
7.96221e-09
7.37361e-09
5.34073e-09
1.43137e-09
4.44177e-10
2.92316e-10
2.1118e-10
3.66888e-09
1.1497e-07
7.90471e-07
2.96432e-06
3.17671e-06
3.18123e-06
3.07436e-06
2.89509e-06
2.12278e-06
4.92856e-07
1.2252e-07
3.52951e-08
2.60058e-08
2.59942e-08
2.22694e-08
1.57747e-08
5.12361e-09
5.16411e-09
4.11997e-09
2.00966e-09
9.3661e-10
6.13014e-10
4.9923e-10
1.15018e-09
2.45674e-09
1.22856e-08
5.68463e-07
1.85922e-06
2.80873e-06
2.41704e-06
1.60498e-06
9.41948e-07
3.74648e-07
1.31318e-07
2.29826e-08
2.61087e-08
2.64333e-08
2.38809e-08
1.5198e-08
3.53087e-09
3.52737e-09
3.17506e-09
2.2609e-09
1.54702e-09
1.1742e-09
1.23029e-09
1.47272e-09
1.58458e-09
1.84472e-09
1.50059e-07
6.6771e-07
8.2211e-07
5.87609e-07
3.50343e-07
1.74627e-07
1.51832e-07
8.79602e-08
2.29485e-08
2.29189e-08
2.1675e-08
1.87036e-08
1.63335e-08
2.97341e-09
2.70333e-09
2.71657e-09
2.17525e-09
1.72778e-09
1.39819e-09
1.32606e-09
1.65214e-09
2.38258e-09
3.57019e-09
2.87912e-08
5.953e-08
9.8096e-08
7.1599e-08
5.21204e-08
5.36386e-08
5.03873e-08
3.78039e-08
1.83751e-08
1.55684e-08
1.46014e-08
1.3092e-08
1.79674e-08
2.92858e-09
2.34273e-09
2.47733e-09
2.09815e-09
1.70135e-09
1.37476e-09
1.16544e-09
1.32899e-09
1.88539e-09
2.63289e-09
6.42264e-09
2.86863e-09
5.6431e-09
9.8898e-09
1.76805e-08
2.09229e-08
2.0835e-08
1.72724e-08
1.0433e-08
8.81378e-09
8.53023e-09
7.90473e-09
1.7977e-08
3.23886e-09
2.14221e-09
2.30025e-09
1.99234e-09
1.64654e-09
1.31784e-09
1.03736e-09
9.10375e-10
1.09535e-09
1.36382e-09
1.66371e-09
1.21552e-09
1.55202e-09
4.00886e-09
6.93416e-09
8.585e-09
9.02511e-09
7.12059e-09
5.39218e-09
4.57433e-09
4.30123e-09
4.19765e-09
1.77997e-08
3.90995e-09
2.07998e-09
2.13035e-09
1.8408e-09
1.52433e-09
1.23377e-09
9.60666e-10
7.30888e-10
6.41677e-10
6.48834e-10
6.92515e-10
6.77073e-10
9.25341e-10
1.70689e-09
2.67791e-09
3.57849e-09
3.55258e-09
3.23746e-09
2.4411e-09
1.95487e-09
1.8593e-09
1.89318e-09
1.7734e-08
5.39186e-09
2.06586e-09
1.98771e-09
1.67387e-09
1.34869e-09
1.107e-09
8.60456e-10
6.51505e-10
4.87341e-10
3.76586e-10
3.29151e-10
3.35722e-10
4.76689e-10
7.20424e-10
1.02032e-09
1.37865e-09
1.3689e-09
1.10019e-09
9.06523e-10
7.35999e-10
7.02766e-10
7.36014e-10
1.64793e-08
6.88387e-09
2.31291e-09
1.8791e-09
1.50207e-09
1.15174e-09
9.23922e-10
7.24994e-10
5.63128e-10
4.18544e-10
2.95864e-10
2.13078e-10
1.75448e-10
2.05581e-10
2.68284e-10
3.46506e-10
4.51436e-10
4.39577e-10
3.63284e-10
2.88282e-10
2.35476e-10
2.29206e-10
2.48757e-10
1.49344e-08
6.90508e-09
2.92972e-09
1.7958e-09
1.30194e-09
9.34025e-10
7.00969e-10
5.62558e-10
4.41731e-10
3.4263e-10
2.48038e-10
1.71762e-10
1.18913e-10
9.34231e-11
9.72211e-11
1.07025e-10
1.27334e-10
1.15817e-10
1.00318e-10
8.20127e-11
6.91576e-11
6.82715e-11
7.38431e-11
1.3565e-08
6.59415e-09
3.14686e-09
1.70061e-09
1.12001e-09
7.4215e-10
5.29063e-10
3.89251e-10
3.12079e-10
2.47219e-10
1.88954e-10
1.36641e-10
9.01509e-11
5.89396e-11
4.37254e-11
3.68394e-11
3.39452e-11
3.12958e-11
2.70844e-11
2.29827e-11
1.96463e-11
1.97001e-11
2.06107e-11
1.114e-08
6.01862e-09
3.02127e-09
1.5571e-09
9.38134e-10
5.74436e-10
3.62359e-10
2.62399e-10
1.97551e-10
1.57564e-10
1.22447e-10
9.30204e-11
6.48385e-11
4.18809e-11
2.62453e-11
1.73583e-11
1.20516e-11
9.85956e-12
8.17643e-12
7.11639e-12
6.50659e-12
6.07508e-12
5.98328e-12
9.80565e-09
5.22269e-09
2.69229e-09
1.35012e-09
7.52834e-10
4.32601e-10
2.47513e-10
1.64328e-10
1.17245e-10
8.91457e-11
6.92735e-11
5.39491e-11
3.96889e-11
2.69808e-11
1.68155e-11
9.97912e-12
5.88567e-12
3.90244e-12
2.97084e-12
2.48873e-12
2.20197e-12
2.01934e-12
1.87994e-12
7.62451e-09
4.16146e-09
2.2012e-09
1.08945e-09
5.74062e-10
2.98334e-10
1.59645e-10
9.56121e-11
6.35788e-11
4.5639e-11
3.46012e-11
2.68524e-11
2.0094e-11
1.43162e-11
9.61429e-12
5.52799e-12
3.00793e-12
1.71787e-12
1.12772e-12
8.99133e-13
7.57975e-13
6.46839e-13
5.84178e-13
6.04725e-09
3.11783e-09
1.55575e-09
7.68934e-10
3.85636e-10
1.94788e-10
9.60848e-11
5.1875e-11
3.16229e-11
2.07157e-11
1.54351e-11
1.16714e-11
8.71477e-12
6.35368e-12
4.27577e-12
2.58699e-12
1.35123e-12
7.19429e-13
4.27599e-13
3.04369e-13
2.3846e-13
1.98145e-13
1.70477e-13
3.75413e-09
1.93042e-09
9.98264e-10
4.80972e-10
2.31675e-10
1.11008e-10
5.2339e-11
2.5775e-11
1.42805e-11
8.8139e-12
6.17381e-12
4.49714e-12
3.32436e-12
2.34945e-12
1.62328e-12
1.03858e-12
5.32416e-13
2.63196e-13
1.43993e-13
9.32523e-14
7.05285e-14
5.40383e-14
4.4759e-14
2.27833e-09
1.1428e-09
5.47501e-10
2.5619e-10
1.1893e-10
5.48881e-11
2.48452e-11
1.14163e-11
5.86614e-12
3.33672e-12
2.20412e-12
1.5462e-12
1.10387e-12
7.73823e-13
5.3628e-13
3.35998e-13
1.75291e-13
8.31521e-14
4.1812e-14
2.53947e-14
1.79119e-14
1.34095e-14
1.04351e-14
1.10924e-09
5.36579e-10
2.57506e-10
1.18088e-10
5.29055e-11
2.34835e-11
1.02425e-11
4.39877e-12
1.9413e-12
1.08019e-12
6.75559e-13
4.60697e-13
3.04104e-13
2.12476e-13
1.4448e-13
9.06425e-14
4.62433e-14
2.12852e-14
9.98293e-15
5.83146e-15
4.10346e-15
2.85776e-15
2.07109e-15
4.8567e-10
2.26741e-10
9.74274e-11
4.18269e-11
1.80915e-11
7.70395e-12
3.2391e-12
1.33605e-12
6.03689e-13
3.14428e-13
1.87411e-13
1.15283e-13
7.66961e-14
5.27839e-14
3.46217e-14
2.0979e-14
1.02869e-14
4.43664e-15
2.08051e-15
1.19642e-15
7.73188e-16
5.22886e-16
3.55458e-16
1.69049e-10
7.25864e-11
2.95174e-11
1.2311e-11
5.3087e-12
2.24138e-12
9.33514e-13
3.78288e-13
1.62024e-13
7.90627e-14
4.32338e-14
2.6298e-14
1.74996e-14
1.15016e-14
7.21811e-15
4.02776e-15
1.87556e-15
7.53448e-16
3.71947e-16
2.12516e-16
1.37264e-16
8.60572e-17
5.19487e-17
4.59318e-11
1.8269e-11
7.36749e-12
3.0627e-12
1.28013e-12
5.31775e-13
2.16392e-13
8.94137e-14
3.6061e-14
1.67161e-14
8.96928e-15
5.47249e-15
3.48655e-15
2.17768e-15
1.30509e-15
6.89364e-16
2.86319e-16
1.23305e-16
6.06728e-17
3.4096e-17
2.05782e-17
1.16561e-17
6.3249e-18
1.01267e-11
3.81935e-12
1.54268e-12
6.43166e-13
2.634e-13
1.0797e-13
4.35538e-14
1.75974e-14
7.05239e-15
3.2133e-15
1.70269e-15
1.0035e-15
6.10284e-16
3.66752e-16
2.10767e-16
1.04571e-16
4.20455e-17
1.77702e-17
8.82787e-18
4.86879e-18
2.69084e-18
1.28652e-18
6.30216e-19
1.73562e-12
6.32693e-13
2.58131e-13
1.1e-13
4.59187e-14
1.90117e-14
7.74487e-15
3.04945e-15
1.24079e-15
5.58332e-16
2.8716e-16
1.62826e-16
9.62332e-17
5.66017e-17
2.96591e-17
1.32766e-17
5.6136e-18
2.41248e-18
1.20717e-18
6.12258e-19
2.8477e-19
1.24014e-19
5.49725e-20
2.05449e-13
7.63238e-14
3.32472e-14
1.52212e-14
6.73096e-15
2.8833e-15
1.19877e-15
4.72981e-16
1.93913e-16
8.6177e-17
4.32419e-17
2.43011e-17
1.39539e-17
7.69463e-18
3.76646e-18
1.70872e-18
7.05828e-19
3.00226e-19
1.45769e-19
6.89915e-20
2.84062e-20
1.03048e-20
1.922e-21
1.3673e-14
6.09031e-15
3.34528e-15
1.7712e-15
8.57609e-16
3.93567e-16
1.67918e-16
6.74798e-17
2.73043e-17
1.20126e-17
5.95369e-18
2.94739e-18
1.88734e-18
9.37234e-19
4.82232e-19
2.05511e-19
8.57795e-20
3.75305e-20
1.67476e-20
6.40377e-21
2.21877e-21
4.97408e-22
4.12375e-23
1.87602e-16
1.99258e-16
1.78101e-16
1.57917e-16
9.12562e-17
3.57877e-17
1.58453e-17
6.57889e-18
3.24328e-18
1.51471e-18
7.57867e-19
4.14867e-19
2.34337e-19
1.20842e-19
5.53063e-20
2.26232e-20
9.77555e-21
4.37667e-21
1.81253e-21
6.18922e-22
1.63376e-22
1.24955e-23
3.39424e-25
8.10201e-21
3.5184e-18
1.2953e-17
1.2633e-17
6.87637e-18
4.48792e-18
2.06618e-18
8.8029e-19
3.75487e-19
1.79317e-19
8.95903e-20
4.84548e-20
2.67181e-20
1.37146e-20
5.87477e-21
2.41884e-21
1.11393e-21
5.11056e-22
2.03645e-22
6.1786e-23
7.47005e-24
3.07963e-25
4.1729e-27
0.970227
0.851505
0.717708
0.680463
0.451005
0.0821337
0.107114
0.547374
0.0419945
0.00858666
0.121081
0.276916
0.000308635
0.00899792
0.0126959
0.00131492
0.000341458
0.000576534
-5.7348e-11
9.28042e-08
1.4519e-05
2.00838e-07
1.3642e-05
2.09244e-05
1.11885e-07
3.32686e-07
8.44997e-06
1.47125e-05
1.32929e-06
3.73825e-06
5.33354e-06
1.67576e-06
6.74313e-07
1.62849e-06
2.23247e-06
2.96001e-07
9.20734e-09
1.83279e-09
2.10104e-09
2.08e-09
1.44969e-09
4.47659e-09
8.64429e-09
1.28994e-08
2.74493e-10
3.61501e-10
5.15166e-10
5.97121e-10
4.31675e-10
4.01302e-10
3.99156e-10
3.60838e-10
1.77446e-09
1.29814e-09
8.80945e-10
7.72363e-10
5.02961e-09
3.36947e-09
2.76183e-09
2.25171e-09
1.97018e-08
1.16634e-08
9.4838e-09
7.3825e-09
2.24731e-08
1.62325e-08
1.48166e-08
1.20816e-08
1.77511e-08
1.61138e-08
1.24447e-08
1.11723e-08
1.25495e-08
1.08521e-08
9.69538e-09
8.86038e-09
7.48694e-09
7.15656e-09
6.20985e-09
5.66801e-09
4.1502e-09
3.85921e-09
3.61332e-09
3.40238e-09
1.98168e-09
1.95833e-09
1.88378e-09
1.78595e-09
8.23473e-10
8.38293e-10
8.38387e-10
8.18613e-10
2.85677e-10
3.1091e-10
3.12924e-10
3.05001e-10
8.4717e-11
8.81974e-11
9.09117e-11
8.84271e-11
2.29361e-11
2.36193e-11
2.3258e-11
2.20635e-11
6.09412e-12
5.85067e-12
5.71536e-12
5.3334e-12
1.8379e-12
1.72291e-12
1.5982e-12
1.45358e-12
5.58536e-13
5.0523e-13
4.61846e-13
4.10357e-13
1.603e-13
1.46287e-13
1.29439e-13
1.11676e-13
4.13359e-14
3.69361e-14
3.1779e-14
2.63564e-14
9.37097e-15
8.11128e-15
6.75998e-15
5.40225e-15
1.79192e-15
1.47936e-15
1.17149e-15
8.86081e-16
2.89841e-16
2.27179e-16
1.69321e-16
1.20431e-16
3.94181e-17
2.85436e-17
1.98444e-17
1.36886e-17
4.43039e-18
2.93645e-18
2.06874e-18
1.12358e-18
4.11179e-19
2.01981e-19
5.74738e-20
9.94876e-21
1.19127e-20
1.79618e-21
2.15833e-22
1.97287e-23
2.02631e-24
3.85015e-25
2.61159e-26
1.48544e-26
1.07812e-38
1.27793e-28
4.72024e-28
1.56085e-27
-3.07745e-43
1.48208e-28
5.71353e-28
1.80313e-27
5.50691e-44
1.39337e-28
4.65918e-28
1.30914e-27
0.797003
0.883678
0.837897
0.504176
0.0320344
0.52021
0.930828
0.992393
0.995716
0.998342
0.999111
0.99957
0.999748
0.999766
0.998818
0.999897
0.999897
0.999391
0.635418
0.760158
0.776613
0.444433
0.0273896
0.0551143
0.54593
0.656396
0.576884
0.604123
0.706396
0.793673
0.864998
0.915106
0.954637
0.999307
0.999752
0.999757
0.997503
0.918995
0.21059
0.0642527
0.00504152
0.00259671
0.0505717
0.0636825
6.93889e-20
9.71979e-10
8.82236e-05
0.00573799
0.0366324
0.0870723
0.139655
0.198619
0.302581
0.490033
0.69913
0.805908
0.822232
2.0618e-05
5.66875e-05
0.000543066
0.000851258
0.00192089
1.26846e-20
-1.32312e-11
2.71109e-10
6.79549e-10
6.73153e-22
5.31944e-19
2.01664e-18
2.79822e-18
1.98574e-16
1.85282e-07
0.00228315
0.0226697
0.111324
0.229905
2.06054e-05
2.19005e-05
-4.3096e-10
3.97728e-06
8.01142e-08
7.92981e-08
3.36687e-08
2.46405e-08
1.70379e-07
3.95912e-07
3.97309e-07
3.03583e-07
4.49821e-11
6.44577e-07
2.21709e-05
4.85202e-05
4.95315e-05
4.75802e-05
5.03407e-05
2.06581e-05
6.80004e-06
1.90574e-14
1.48554e-07
1.36226e-07
2.97132e-12
3.25347e-08
6.18699e-08
6.17315e-08
6.27275e-08
1.04017e-07
1.83269e-07
1.26741e-07
1.85638e-07
3.00764e-07
2.57301e-06
0.000955737
0.00175873
0.00207665
8.59988e-06
6.58357e-08
1.1772e-25
1.10517e-08
8.20899e-09
8.02999e-12
2.63167e-10
5.95745e-10
1.75427e-10
1.02867e-09
5.63085e-09
6.30663e-09
0.000764085
0.00316185
0.00424784
0.00439321
0.00415262
0.00413513
0.0039414
1.4682e-06
5.54072e-07
2.07662e-11
2.48565e-10
1.15488e-11
-8.17568e-15
7.06555e-25
3.83299e-07
1.53554e-06
1.68913e-06
6.13248e-09
0.000201855
0.00657299
0.0101287
0.0100286
0.00992989
0.00747775
0.00473479
0.00338129
3.86527e-09
9.98655e-09
4.33966e-10
2.64909e-09
1.409e-07
4.47461e-07
3.461e-07
3.0816e-07
8.40806e-05
0.000170119
0.000290411
0.00135092
0.0041442
0.00559779
0.00354299
0.00100036
9.93042e-06
6.4499e-09
5.72169e-10
4.08089e-09
4.12708e-09
4.92616e-08
3.51505e-07
7.28824e-07
4.8724e-06
1.96151e-05
5.09997e-05
0.000141787
0.00047125
0.000503925
0.000336784
2.01853e-17
1.02214e-17
-3.06126e-11
4.23233e-10
4.52513e-10
1.47291e-09
1.04931e-09
1.63484e-08
2.44112e-08
5.53313e-08
1.9896e-07
4.68657e-07
9.87185e-07
4.00252e-06
1.21142e-05
2.96507e-05
2.72557e-05
1.47271e-06
1.39197e-10
1.72218e-09
2.47581e-09
3.46914e-09
5.24019e-09
5.17433e-09
1.86066e-09
1.50867e-09
5.651e-10
4.54151e-10
1.09974e-09
5.75282e-09
1.51638e-08
2.96153e-13
1.09831e-14
-1.17253e-16
1.24446e-14
3.61808e-08
7.446e-09
2.12496e-08
4.00689e-08
1.99133e-08
4.90468e-09
6.02066e-09
5.82698e-09
1.42088e-09
1.48225e-09
2.86347e-10
1.82913e-10
1.03215e-10
5.99715e-11
3.44863e-11
3.39412e-11
6.20049e-11
1.48815e-10
1.87715e-10
3.61472e-10
1.30033e-08
5.96644e-08
5.8755e-08
2.77431e-08
3.48758e-09
1.83518e-09
2.09171e-09
2.89303e-10
8.39354e-10
5.92167e-10
3.41096e-10
1.68103e-10
9.9265e-11
7.66714e-11
7.3131e-11
1.02159e-10
2.71019e-10
4.71871e-10
5.78398e-10
9.23705e-09
3.99635e-08
4.63207e-08
1.15136e-08
2.31932e-09
2.10282e-10
1.77074e-10
4.70182e-11
5.93398e-10
1.93297e-09
1.00648e-09
2.94418e-10
1.19447e-10
7.87131e-11
7.46396e-11
1.13117e-10
2.62337e-10
5.59912e-10
1.12705e-09
2.84632e-09
4.54033e-09
6.82197e-09
4.54369e-10
5.71713e-10
1.88613e-10
3.27969e-11
3.8827e-11
3.74296e-10
5.03849e-09
2.75395e-09
4.83336e-10
1.75749e-10
8.84918e-11
7.82699e-11
9.88973e-11
1.58407e-10
3.0065e-10
5.47377e-10
1.2257e-09
3.47495e-09
4.76508e-10
4.90834e-10
3.07072e-10
1.26454e-10
2.82391e-11
2.524e-11
2.23806e-10
8.45918e-09
4.47613e-09
7.64618e-10
1.93321e-10
1.37096e-10
9.05328e-11
1.01641e-10
1.42701e-10
2.23345e-10
2.92526e-10
6.02945e-10
4.32998e-10
5.46353e-10
5.11349e-10
2.93054e-10
8.73506e-11
1.32336e-11
1.42973e-11
1.06347e-10
8.83045e-09
5.71914e-09
1.58931e-09
3.24494e-10
1.34391e-10
1.06864e-10
1.03558e-10
1.28344e-10
1.64836e-10
2.24802e-10
3.42035e-10
2.41279e-10
1.91371e-10
1.80898e-10
1.10048e-10
3.61567e-11
6.52718e-12
7.31528e-12
5.01209e-11
7.11207e-09
5.4981e-09
2.7802e-09
9.32155e-10
3.15403e-10
1.3646e-10
1.14729e-10
1.21155e-10
1.37805e-10
1.59394e-10
1.66856e-10
1.36877e-10
8.29848e-11
4.067e-11
1.4678e-11
1.9015e-12
1.14969e-12
3.71568e-12
2.27549e-11
4.77077e-09
4.04187e-09
2.90784e-09
1.56982e-09
8.18747e-10
4.09238e-10
2.05742e-10
1.31618e-10
1.08647e-10
9.58087e-11
8.19416e-11
6.5075e-11
4.24386e-11
2.42041e-11
8.41007e-12
1.06058e-12
6.45786e-13
1.78315e-12
8.429e-12
2.92348e-09
2.54253e-09
2.10866e-09
1.56845e-09
1.01578e-09
6.22416e-10
3.5796e-10
1.90666e-10
1.01225e-10
5.76456e-11
4.11665e-11
2.90622e-11
1.76235e-11
9.90544e-12
2.69579e-12
4.46564e-13
2.98692e-13
3.42564e-13
1.96153e-12
1.58785e-09
1.42452e-09
1.23265e-09
1.06317e-09
8.4044e-10
5.83672e-10
3.77763e-10
2.18815e-10
1.10674e-10
4.55087e-11
2.59238e-11
1.46609e-11
5.97999e-12
1.88463e-12
4.15159e-13
1.38124e-13
7.86179e-14
6.81936e-14
1.8914e-13
7.64687e-10
7.09881e-10
6.35984e-10
5.49403e-10
4.65382e-10
3.88288e-10
2.82425e-10
1.79311e-10
1.00502e-10
4.74712e-11
1.86061e-11
6.56219e-12
2.20919e-12
6.62639e-13
1.66299e-13
6.99311e-14
1.39872e-14
8.79763e-15
2.54059e-14
2.92902e-10
2.84368e-10
2.66242e-10
2.35186e-10
2.01731e-10
1.69196e-10
1.41109e-10
1.08677e-10
6.72286e-11
3.49806e-11
1.42029e-11
4.32675e-12
1.08138e-12
2.58805e-13
7.37673e-14
1.3475e-14
2.61033e-15
1.9328e-15
1.69226e-15
8.50477e-11
8.8202e-11
8.52716e-11
7.79489e-11
6.96986e-11
6.10172e-11
5.32522e-11
4.4956e-11
3.23179e-11
1.95544e-11
8.88304e-12
2.71393e-12
5.76471e-13
1.09987e-13
2.92457e-14
3.68879e-15
8.50431e-16
6.86819e-16
4.55215e-16
2.10516e-11
2.19184e-11
2.10761e-11
1.97672e-11
1.83057e-11
1.69975e-11
1.56865e-11
1.37603e-11
1.12563e-11
8.02309e-12
4.22477e-12
1.39248e-12
2.7385e-13
4.21503e-14
5.38825e-15
6.53447e-16
3.72609e-16
4.54973e-16
2.22204e-16
4.97568e-12
4.86326e-12
4.54125e-12
4.21571e-12
3.96039e-12
3.76901e-12
3.59149e-12
3.38835e-12
3.07473e-12
2.42046e-12
1.43438e-12
5.30819e-13
1.0763e-13
1.39888e-14
9.43672e-16
1.47834e-16
1.87296e-16
2.79491e-16
1.54572e-16
1.27149e-12
1.13435e-12
9.82277e-13
8.52555e-13
7.54207e-13
7.00309e-13
6.85768e-13
6.76178e-13
6.47865e-13
5.57679e-13
3.67012e-13
1.50802e-13
2.54387e-14
2.32626e-15
1.81654e-16
6.1009e-17
8.75365e-17
1.69545e-16
1.07872e-16
3.30949e-13
2.69442e-13
2.13336e-13
1.65232e-13
1.35151e-13
1.07977e-13
1.05235e-13
1.07018e-13
1.05224e-13
9.44286e-14
6.5588e-14
2.03454e-14
2.71219e-15
1.75515e-16
2.7686e-17
2.27249e-17
4.13281e-17
9.09025e-17
7.62595e-17
8.28524e-14
6.01406e-14
4.37893e-14
3.3593e-14
1.97187e-14
1.17916e-14
1.11168e-14
1.16568e-14
1.18065e-14
1.09866e-14
6.03494e-15
1.74901e-15
1.61495e-16
4.83722e-18
3.85839e-18
7.49329e-18
1.99754e-17
6.29099e-17
4.70506e-17
1.78803e-14
1.18869e-14
8.66689e-15
4.90681e-15
2.05116e-15
7.14269e-16
6.29657e-16
7.38296e-16
8.24508e-16
8.06152e-16
3.87641e-16
7.64385e-17
3.99214e-18
2.67222e-19
7.74438e-19
3.20188e-18
1.14431e-17
3.71629e-17
3.09164e-17
3.30305e-15
2.06892e-15
1.29096e-15
4.91341e-16
1.13861e-16
1.87657e-17
1.78503e-17
2.52142e-17
3.15031e-17
2.26559e-17
1.13387e-17
2.20744e-18
1.05809e-19
1.03753e-19
4.15435e-19
2.11374e-18
8.21787e-18
2.3844e-17
1.57513e-17
5.04648e-16
3.07411e-16
1.13966e-16
2.25108e-17
1.88946e-18
1.7803e-19
2.79565e-19
5.87582e-19
6.605e-19
4.78737e-19
1.58979e-19
2.48264e-20
2.54347e-20
6.36967e-20
2.64025e-19
1.63412e-18
6.02241e-18
1.14838e-17
9.38235e-18
7.30655e-17
2.45843e-17
4.3281e-18
3.42714e-19
1.09325e-20
2.06649e-21
4.12197e-21
9.32541e-21
1.00735e-20
8.75823e-21
7.21362e-21
1.1444e-20
2.1155e-20
5.1144e-20
2.19811e-19
1.25391e-18
3.51475e-18
6.95861e-18
3.92345e-18
7.10305e-18
1.16254e-18
5.1669e-20
9.3952e-22
1.02634e-22
1.08056e-22
2.01927e-22
4.75921e-22
9.78259e-22
2.12995e-21
4.8215e-21
1.03015e-20
1.93779e-20
4.5851e-20
2.00724e-19
8.59068e-19
2.14158e-18
2.87985e-18
2.11947e-18
2.1272e-19
8.88474e-21
1.1526e-22
1.10283e-23
1.68917e-23
4.08948e-23
1.12623e-22
3.04374e-22
7.87531e-22
1.94215e-21
4.52728e-21
9.59934e-21
1.80215e-20
4.21011e-20
1.54304e-19
5.2585e-19
1.10812e-18
1.55953e-18
6.81389e-19
1.25207e-21
2.7806e-23
1.58755e-24
3.38527e-24
1.05618e-23
3.26772e-23
9.47404e-23
2.57697e-22
6.67235e-22
1.63992e-21
3.78326e-21
7.96712e-21
1.48635e-20
3.38141e-20
1.09209e-19
3.29784e-19
6.28426e-19
5.1304e-19
3.11219e-19
1.87313e-24
2.7149e-25
7.06524e-25
2.56097e-24
8.47065e-24
2.57251e-23
7.4179e-23
1.99168e-22
5.11357e-22
1.24905e-21
2.86173e-21
5.98071e-21
1.11353e-20
2.40035e-20
7.14459e-20
1.83489e-19
2.53404e-19
2.34741e-19
7.27032e-20
2.77951e-26
1.2813e-25
5.24191e-25
1.85894e-24
5.96804e-24
1.78357e-23
5.03552e-23
1.34341e-22
3.41973e-22
8.30828e-22
1.89352e-21
3.91555e-21
7.27546e-21
1.54246e-20
3.60697e-20
1.02662e-19
1.1022e-19
5.98987e-20
2.86585e-20
2.02131e-26
9.07558e-26
3.34859e-25
1.08342e-24
3.35795e-24
9.70346e-24
2.70074e-23
7.34732e-23
1.87038e-22
4.59531e-22
1.0593e-21
2.21351e-21
4.13764e-21
8.71645e-21
1.78358e-20
4.74718e-20
3.46963e-20
2.11058e-20
1.17837e-20
1.27246e-26
4.81373e-26
1.58461e-25
4.82133e-25
1.43637e-24
4.19297e-24
1.18993e-23
3.26102e-23
8.49677e-23
2.13592e-22
4.98995e-22
1.04189e-21
1.9439e-21
4.08687e-21
8.16465e-21
1.87009e-20
1.06872e-20
7.57258e-21
3.84585e-21
4.52207e-27
1.38272e-26
4.03606e-26
1.11203e-25
3.48099e-25
1.09782e-24
3.27433e-24
9.0813e-24
2.45015e-23
6.23387e-23
1.46664e-22
3.14015e-22
5.93242e-22
1.19887e-21
2.28932e-21
4.61627e-21
2.71326e-21
1.65209e-21
4.0325e-22
)
;

boundaryField
{
    leftWall
    {
        type            alphaContactAngle;
        contactAngleProperties 
        {
            mercury         
            {
                theta0          90;
            }
            air             
            {
                theta0          90;
            }
            oil             
            {
                theta0          90;
            }
        }
        value           nonuniform List<scalar> 
50
(
7.66982e-11
1.97434e-10
3.20773e-10
3.02549e-10
1.25527e-09
1.16097e-07
0.0459713
0.686549
1
1
1
0.994507
0.794738
0.22136
3.24377e-07
6.03576e-07
5.98321e-08
-3.71038e-09
-6.75435e-09
1.90932e-09
2.4442e-08
2.50226e-08
2.23784e-08
1.81706e-08
1.57747e-08
1.5198e-08
1.63335e-08
1.79674e-08
1.7977e-08
1.77997e-08
1.7734e-08
1.64793e-08
1.49344e-08
1.3565e-08
1.114e-08
9.80565e-09
7.62451e-09
6.04725e-09
3.75413e-09
2.27833e-09
1.10924e-09
4.8567e-10
1.69049e-10
4.59318e-11
1.01267e-11
1.73562e-12
2.05449e-13
1.3673e-14
1.87602e-16
8.10201e-21
)
;
    }
    rightWall
    {
        type            alphaContactAngle;
        contactAngleProperties 
        {
            mercury         
            {
                theta0          90;
            }
            air             
            {
                theta0          90;
            }
            oil             
            {
                theta0          90;
            }
        }
        value           nonuniform List<scalar> 
50
(
0.0148107
0.0148118
0.00693582
0.00111202
0.00105199
0.00817571
0.169825
0.535125
0.635418
0.918995
0.822232
0.229905
5.03407e-05
0.00207665
0.0039414
0.00338129
5.72169e-10
1.04931e-09
1.50867e-09
1.48225e-09
8.39354e-10
5.93398e-10
3.74296e-10
2.23806e-10
1.06347e-10
5.01209e-11
2.27549e-11
8.429e-12
1.96153e-12
1.8914e-13
2.54059e-14
1.69226e-15
4.55215e-16
2.22204e-16
1.54572e-16
1.07872e-16
7.62595e-17
4.70506e-17
3.09164e-17
1.57513e-17
9.38235e-18
3.92345e-18
2.11947e-18
6.81389e-19
3.11219e-19
7.27032e-20
2.86585e-20
1.17837e-20
3.84585e-21
4.0325e-22
)
;
    }
    lowerWall
    {
        type            alphaContactAngle;
        contactAngleProperties 
        {
            mercury         
            {
                theta0          90;
            }
            air             
            {
                theta0          90;
            }
            oil             
            {
                theta0          90;
            }
        }
        value           nonuniform List<scalar> 
62
(
7.66982e-11
9.04799e-11
1.04978e-10
1.11591e-10
1.17784e-10
1.24617e-10
1.31623e-10
1.38993e-10
1.50629e-10
1.74268e-10
1.98065e-10
2.26759e-10
2.71655e-10
3.36489e-10
4.1439e-10
5.12947e-10
6.57734e-10
9.39027e-10
1.49495e-09
2.25049e-09
2.69356e-09
2.77856e-09
2.77882e-09
2.77882e-09
2.417e-09
1.33676e-09
1.22242e-09
5.98442e-10
0.468002
0.993725
0.999556
0.970227
0.851505
0.717708
0.680463
0.0107401
0.0385858
0.416577
0.630305
0.845516
0.884323
0.884323
0.884312
0.0107401
0.0107279
0.0287258
0.057713
0.0641167
0.0577376
0.041896
0.0252653
0.00204023
0.00164981
0.00066545
0.000662395
0.000840793
0.0159758
0.124793
0.124756
0.104617
0.0132982
0.0148107
)
;
    }
    atmosphere
    {
        type            inletOutlet;
        inletValue      uniform 0;
        value           nonuniform List<scalar> 
46
(
0
0
1.2953e-17
1.2633e-17
6.87637e-18
4.48792e-18
2.06618e-18
8.8029e-19
3.75487e-19
1.79317e-19
8.95903e-20
4.84548e-20
2.67181e-20
1.37146e-20
5.87477e-21
2.41884e-21
1.11393e-21
5.11056e-22
2.03645e-22
0
0
0
0
0
0
0
0
0
0
0
0
0
0
0
0
0
0
0
0
0
0
0
0
0
0
0
)
;
    }
    defaultFaces
    {
        type            empty;
    }
}


// ************************************************************************* //
