/*--------------------------------*- C++ -*----------------------------------*\
  =========                 |
  \\      /  F ield         | OpenFOAM: The Open Source CFD Toolbox
   \\    /   O peration     | Website:  https://openfoam.org
    \\  /    A nd           | Version:  13
     \\/     M anipulation  |
\*---------------------------------------------------------------------------*/
FoamFile
{
    format      ascii;
    class       volScalarField;
    location    "2.2";
    object      alpha.air;
}
// * * * * * * * * * * * * * * * * * * * * * * * * * * * * * * * * * * * * * //

dimensions      [];

internalField   nonuniform List<scalar> 
2268
(
3.65197e-13
3.13074e-13
2.92502e-13
2.06595e-13
1.12087e-13
5.19064e-14
2.29077e-14
9.99304e-15
7.42274e-15
7.6797e-15
1.24857e-14
2.49319e-14
7.5549e-14
2.24797e-13
3.56727e-13
3.64166e-13
6.09035e-13
2.17153e-12
3.04065e-12
3.69251e-12
2.9832e-12
3.69373e-13
3.49377e-13
1.31309e-12
1.22274e-12
1.04226e-12
8.05018e-13
5.34515e-13
3.04646e-13
1.58517e-13
8.29167e-14
6.45986e-14
9.26341e-14
2.34627e-13
9.5745e-13
2.71241e-12
6.23714e-12
9.40011e-12
1.14376e-11
2.30442e-11
6.56149e-11
7.62588e-11
1.46745e-10
2.56988e-10
4.1572e-10
1.01543e-11
2.92475e-12
3.04651e-12
2.10117e-12
1.73165e-12
1.27034e-12
6.81319e-13
3.869e-13
2.78017e-13
3.30504e-13
7.21855e-13
2.17783e-12
6.23044e-12
1.67472e-11
4.23602e-11
9.13679e-11
1.81831e-10
3.11561e-10
4.51542e-10
7.61062e-10
1.52889e-09
3.08256e-09
5.10202e-09
9.71215e-10
8.83565e-12
6.67103e-12
5.57971e-12
4.44899e-12
3.45241e-12
2.07405e-12
1.31462e-12
1.13204e-12
1.34207e-12
2.56573e-12
6.37215e-12
1.68341e-11
4.41464e-11
1.07521e-10
2.30101e-10
3.99612e-10
6.02547e-10
7.47643e-10
1.03632e-09
1.0813e-09
1.13303e-09
1.87769e-09
9.6787e-10
2.54086e-11
2.1602e-11
1.98898e-11
1.74366e-11
1.40053e-11
1.02001e-11
6.26874e-12
4.95743e-12
5.17927e-12
7.03144e-12
1.18966e-11
2.52176e-11
5.81494e-11
1.21771e-10
1.65061e-10
2.19616e-10
2.03602e-10
1.32817e-10
1.51268e-10
1.79494e-10
1.82618e-10
1.49992e-10
1.62224e-10
4.27192e-11
4.46015e-11
4.59894e-11
3.98677e-11
3.78296e-11
3.38381e-11
3.21802e-11
2.77885e-11
2.74763e-11
3.03635e-11
3.65793e-11
6.2153e-11
9.34498e-11
9.9982e-11
1.07692e-10
1.70367e-08
1.0172e-07
1.30879e-06
2.50925e-05
0.000128533
0.000348038
0.000606687
0.000729567
2.25199e-10
9.92468e-11
6.62044e-11
3.97734e-11
6.27465e-11
7.95732e-11
8.61774e-11
9.37197e-11
1.05054e-10
1.44682e-10
2.50916e-10
5.00928e-10
1.00822e-09
2.09421e-09
3.04298e-08
3.01318e-07
1.86554e-06
1.16174e-05
7.31609e-05
0.00025244
0.00062262
0.00124159
0.0012666
1.31933e-09
7.08535e-10
5.97608e-09
1.39165e-07
8.15295e-09
5.09231e-10
2.8584e-10
2.53267e-10
3.32651e-10
5.52034e-10
9.92446e-10
1.93648e-09
5.07016e-09
2.09046e-08
1.08258e-07
4.37561e-07
1.90787e-06
1.58955e-05
2.89826e-05
4.90206e-05
8.04922e-05
0.000142577
0.000425975
0.000339209
0.000342533
0.00579542
0.0182766
0.0257082
0.0338902
0.0581553
0.0665973
0.0664346
0.0457722
0.0435225
0.043509
0.0703119
0.0920501
0.0874819
0.0487605
0.0140001
0.0140001
0.014
0.00376445
0.00438174
0.00385224
0.00366644
0.00117191
0.00036829
0.000367513
0.00246859
0.000945032
0.0174968
0.0681256
0.0642001
0.0631519
0.06558
0.0915436
0.0568608
0.0214443
0.0140295
0.014
0.0162198
0.017752
0.0199869
0.0239415
0.0225721
0.0126102
0.00212043
9.27356e-05
1.88758e-07
1.32568e-07
0.135266
0.275898
0.165294
0.0827859
0.138391
0.141135
0.072171
0.0143969
0.014
0.015468
0.0154734
0.0209979
0.0267164
0.0267386
0.0235396
0.00670594
0.000881923
6.22889e-05
1.18334e-07
0.164561
0.560051
0.555607
0.499767
0.430696
0.398272
0.237449
0.0690512
0.0142458
0.015458
0.0154588
0.015458
0.0167765
0.0165544
0.0252269
0.0353858
0.0207438
0.00178555
1.32572e-07
0.0423635
0.539761
0.571316
0.571016
0.570155
0.532082
0.494831
0.361837
0.127144
0.0181188
0.0204511
0.0156702
0.0118871
0.0154145
0.0558896
0.0795574
0.0312916
0.000721216
4.91184e-06
4.22545e-05
0.260691
0.571522
0.571822
0.570892
0.474841
0.440521
0.442281
0.402301
0.0669664
0.0747054
0.0569258
0.0154268
0.0860924
0.113029
0.112451
0.00311162
0.000397981
0.00042609
9.52983e-05
0.00269605
0.279642
0.482755
0.466619
0.149203
0.0829214
0.287838
0.374873
0.0654344
0.0784754
0.0637411
0.110925
0.176339
0.17769
0.0969435
0.000534265
0.000507386
0.000182153
5.01171e-05
3.8839e-05
0.000166573
0.0491158
0.0464344
5.33424e-06
5.18871e-06
0.000448024
0.0616245
4.55887e-09
9.15841e-09
1.06829e-07
2.50895e-06
1.733e-07
1.03999e-08
1.80358e-09
1.84748e-09
1.92903e-09
2.22861e-09
3.09783e-09
4.11869e-09
5.20331e-09
1.26306e-08
2.91409e-08
6.88242e-08
2.58546e-07
9.70027e-07
4.05437e-07
4.13699e-07
4.74173e-07
4.51432e-07
1.05567e-05
1.45675e-08
8.91186e-08
1.28194e-06
1.63648e-05
5.18445e-07
2.37291e-07
2.24016e-09
3.87865e-09
4.59188e-09
4.86521e-09
6.09204e-09
7.00807e-09
7.47658e-09
7.55371e-09
7.63105e-09
7.70609e-09
7.77812e-09
8.02298e-09
0.000138599
0.017154
0.0281009
0.0428806
0.0210063
1.54983e-08
3.13228e-07
1.66584e-06
0.000416962
0.000137908
6.6084e-06
2.82438e-08
2.88151e-10
2.70146e-10
2.87321e-10
2.73556e-10
2.94968e-10
2.85364e-10
8.19848e-07
0.00714437
0.0215665
0.0333894
0.0654409
0.138043
0.155362
0.140526
0.0459345
0.0886957
0.00549271
0.0086887
0.00789998
0.00321373
0.00134985
0.000103557
0.000228507
0.000835608
0.00103026
0.00749088
0.017639
0.0337613
0.0665262
0.123416
0.157083
0.158706
0.164483
0.168565
0.168555
0.122588
0.0263203
0.0627833
0.1585
0.150379
0.100641
0.0133786
0.000256213
0.000207817
0.00014928
0.00713676
0.116607
0.176055
0.185274
0.199286
0.202142
0.202196
0.202142
0.183728
0.126235
0.15188
0.137619
0.0136688
0.0017046
0.0022255
0.0526497
0.0736407
0.222926
0.0968181
0.00817388
0.00552387
0.00147577
0.000178489
0.0237284
0.127725
0.14217
0.0953853
0.0982517
0.114984
0.114719
0.0591532
0.0198562
0.0207181
0.0307584
0.020208
1.45581e-05
9.96317e-05
0.00211117
0.00299588
2.44144e-20
0.265742
0.204951
0.10706
0.0458112
0.0092092
0.000849049
0.000821793
0.000817892
0.000630918
0.000197751
0.000156321
0.000187549
6.99495e-05
8.36534e-07
7.6494e-07
6.91295e-07
4.51488e-08
5.59698e-08
1.56496e-05
8.31359e-05
8.76375e-05
5.50196e-10
2.29084e-08
0.766555
0.838108
0.833644
0.726536
0.56051
0.365557
0.195979
0.0674983
0.00464433
5.28414e-06
3.44868e-06
1.97584e-06
8.67894e-07
6.79432e-07
6.73788e-07
2.73331e-08
5.54035e-09
1.18295e-10
-9.27834e-11
4.13173e-11
2.11692e-11
1.98875e-14
7.72159e-15
0.999938
0.999988
0.999978
0.999983
0.999399
0.979253
0.917317
0.820286
0.682067
0.485314
0.269731
0.0940199
0.0221854
0.0158077
0.0179138
0.0143485
0.0104515
0.00957088
0.011426
0.0187855
0.0225158
0.0235343
0.024975
0.999999
0.999999
0.999999
0.999941
0.999886
0.999991
0.999995
0.999995
0.999993
0.998029
0.978159
0.938074
0.884238
0.807787
0.70408
0.617881
0.587492
0.585134
0.624318
0.711023
0.748549
0.769979
0.889081
0.999999
0.999997
0.999992
0.999928
0.99986
0.999944
1
1
0.999998
0.999997
0.999994
0.999995
0.999998
0.999998
0.999998
1
1
1
1
1
1
1
1
0.999999
0.999996
0.999991
0.999967
0.999974
0.999981
0.999998
1
1
1
1
1
1
1
0.999999
0.999999
1
1
1
1
1
1
1
0.999999
0.999998
0.999999
1
1
1
0.999999
0.999982
0.999915
0.999866
0.999929
0.999998
1
1
1
1
1
1
1
1
1
1
1
1
0.999999
1
1
1
1
1
0.999974
0.999836
0.999836
0.999836
0.99989
0.999998
1
1
1
1
1
1
1
1
1
1
1
1
1
1
1
1
1
0.999991
0.999864
0.999835
0.999835
0.9999
0.999996
0.999998
0.999999
0.999998
0.999999
0.999999
1
1
1
1
1
1
1
1
1
1
1
1
0.999999
0.999988
0.999924
0.99993
0.999986
0.999997
0.999997
0.999997
0.999997
0.999998
0.999999
1
1
1
1
1
1
1
1
1
1
1
1
1
0.999999
0.999999
0.999999
0.999999
0.999998
0.999997
0.999998
0.999998
0.999999
1
1
1
1
1
1
1
1
1
1
1
1
1
1
1
1
1
0.999999
0.999998
0.999999
0.999999
1
1
1
1
1
1
1
1
1
1
1
1
1
1
1
1
1
1
1
0.999999
0.999999
0.999999
1
1
1
1
1
1
1
1
1
1
1
1
1
1
1
1
1
1
1
1
1
1
1
1
1
1
1
1
1
1
1
1
1
1
1
1
1
1
1
1
1
1
1
1
1
1
1
1
1
1
1
1
1
1
1
1
1
1
1
1
1
1
1
1
1
1
1
1
1
1
1
1
1
1
1
1
1
1
1
1
1
1
1
1
1
1
1
1
1
1
1
1
1
1
1
1
1
1
1
1
1
1
1
1
1
1
1
1
1
1
1
1
1
1
1
1
1
1
1
1
1
1
1
1
1
1
1
1
1
1
1
1
1
1
1
1
1
1
1
1
1
1
1
1
1
1
1
1
1
1
1
1
1
1
1
1
1
1
1
1
1
1
1
1
1
1
1
1
1
1
1
1
1
1
1
1
1
1
1
1
1
1
1
1
1
1
1
1
1
1
1
1
1
1
1
1
1
1
1
1
1
1
1
1
1
1
1
1
1
1
1
1
1
1
1
1
1
1
1
1
1
1
1
1
1
1
1
1
1
1
1
1
1
1
1
1
1
1
1
1
1
1
1
1
1
1
1
1
1
1
1
1
1
1
1
1
1
1
1
1
1
1
1
1
1
1
1
1
1
1
1
1
1
1
1
1
1
1
1
1
1
1
1
1
1
1
1
1
1
1
1
1
1
1
1
1
1
1
1
1
1
1
1
1
1
1
1
1
1
1
1
1
1
1
1
1
1
1
1
1
1
1
1
1
1
1
1
1
1
1
1
1
1
1
1
1
1
1
1
1
1
1
1
1
1
1
1
1
1
1
1
1
1
1
1
1
1
1
1
1
1
1
1
1
1
1
1
1
1
1
1
1
1
1
1
1
1
1
1
1
1
1
1
1
1
1
1
1
1
1
1
1
1
1
1
1
1
1
1
1
1
1
1
1
1
1
1
1
1
1
1
1
1
1
1
1
1
1
1
1
1
1
1
1
1
1
1
1
1
1
1
1
1
1
1
1
1
1
1
1
1
1
1
1
1
1
1
1
1
1
1
1
1
1
1
1
1
1
1
1
1
1
1
1
1
1
1
1
1
1
1
1
1
1
1
1
1
1
1
1
1
1
1
1
1
1
1
1
1
1
1
1
1
1
1
1
1
1
1
1
1
1
1
1
1
1
1
1
1
1
1
1
1
1
1
1
1
1
1
1
1
1
1
1
1
1
1
1
1
1
1
1
1
1
1
1
1
1
0.00781934
0.00938954
0.0332269
0.0695828
0.0185483
0.172125
0.186313
0.186353
0.186096
0.186241
0.18628
0.186313
0.148561
0.0284421
0.0406297
0.0512167
0.00494536
-8.51897e-20
-6.35811e-14
6.65923e-07
-1.92499e-10
2.01157e-06
1.09481e-05
1.48309e-05
4.40742e-07
2.54763e-06
3.73223e-06
1.62928e-06
-7.36302e-21
-1.43714e-10
1.75089e-10
1.43078e-10
0.0215738
0.0346955
0.0796516
0.141385
0.974345
0.972407
0.975206
0.988855
1
1
1
1
1
1
1
1
1
1
1
1
1
1
1
1
1
1
1
1
1
1
1
1
1
1
1
1
1
1
1
1
1
1
1
1
1
1
1
1
1
1
1
1
1
1
1
1
1
1
1
1
1
1
1
1
1
1
1
1
1
1
1
1
1
1
1
1
1
1
1
1
1
1
1
1
1
1
1
1
1
1
1
1
1
1
1
1
1
1
1
1
1
1
1
1
1
1
1
1
1
1
1
1
1
1
1
1
1
1
1
1
1
1
1
1
1
1
1
1
1
1
1
1
1
1
1
1
0.12495
0.0842195
0.129633
0.176704
0.176783
0.177682
0.0690867
0.00751876
0.00427744
0.00158872
0.000786241
0.000325329
0.000129494
4.22173e-05
1.91863e-05
1.90837e-05
1.05672e-05
0.000522425
0.000259895
0.186384
0.175032
0.174961
0.158396
0.117585
0.177695
0.175894
0.0419369
3.34152e-06
0.000814539
0.00140171
0.001334
0.000532834
0.000284441
0.000298882
0.000117815
0.000163781
0.00243066
0.00235091
0.184252
0.0708406
0.00465826
0.0166006
0.124284
0.1777
0.108404
0.00350908
3.48655e-06
7.38844e-06
0.000169289
0.000327117
0.000291219
0.000226855
0.00025789
0.000157521
0.00179585
0.0426045
0.0652278
0.0185558
0.00048906
0.000492499
0.0208432
0.0571109
0.024103
8.21781e-06
5.5824e-07
1.26411e-05
1.63583e-05
6.27655e-06
1.25711e-05
7.77887e-05
0.000211377
0.000250868
0.000183651
0.00129416
0.0513951
0.0695977
3.3069e-05
0.000504491
0.000697592
0.000889954
1.27491e-08
1.87254e-08
6.58135e-07
3.93462e-06
9.47083e-06
2.60793e-06
4.91149e-08
1.91245e-07
8.06564e-05
0.000244614
0.000242783
0.000183597
0.00018775
0.0069446
0.0366933
1.51431e-05
1.22649e-05
2.30466e-05
5.71586e-09
1.86457e-08
3.67062e-07
7.20066e-07
5.3185e-07
5.77147e-08
3.3224e-08
4.41199e-08
6.95446e-08
3.20253e-07
3.46291e-07
2.52529e-07
4.73911e-06
5.72426e-06
0.000151097
-3.5627e-05
5.64732e-07
3.10919e-08
1.35951e-08
5.58753e-09
5.71586e-09
4.22469e-08
6.707e-08
8.42339e-08
1.29948e-07
1.87527e-07
2.48587e-07
8.97028e-07
0.00252538
0.0164965
0.0353185
0.0602489
0.0994169
0.15322
0.210549
5.00213e-11
4.01486e-12
3.15512e-13
1.12948e-07
0.0245656
0.0657842
0.114694
0.165794
0.213487
0.254914
0.295945
0.374617
0.519778
0.65344
0.727718
0.788353
0.855398
0.912444
0.958842
0.242388
0.373795
0.498258
0.615773
0.715452
0.791382
0.852054
0.899675
0.935304
0.965168
0.991045
0.998378
0.99493
0.992995
0.995397
0.998698
0.99999
1
1
0.995697
0.997545
0.998109
1
0.999999
0.999993
0.999974
0.999933
0.999816
0.99941
0.99937
0.999521
0.999824
0.999855
0.999975
1
0.999999
1
0.999999
1
1
1
1
0.999998
0.999976
0.999958
0.999934
0.999943
0.99995
0.999889
0.999085
0.998936
0.99941
0.999993
0.999999
0.999999
0.999999
0.999999
1
1
0.999999
1
1
0.999827
0.999015
0.999023
0.999635
0.999951
0.999895
0.999089
0.99894
0.99944
0.999997
0.999999
0.999999
1
0.999999
1
1
1
1
1
0.999881
0.99909
0.99901
0.999023
0.999769
0.999999
0.999998
0.999998
1
1
0.999999
1
1
0.999999
1
1
1
1
1
0.999999
0.999983
0.999808
0.999762
0.999944
0.999998
1
1
1
1
1
1
1
0.999999
1
1
1
1
1
1
1
1
1
1
1
0.999999
0.999999
0.999999
1
1
1
1
1
1
1
1
1
1
1
1
1
1
1
1
1
1
0.999999
1
1
1
1
1
1
1
1
1
1
1
1
0.999999
0.999999
1
1
1
1
1
1
1
1
1
1
1
1
1
1
1
1
1
1
1
1
1
1
1
1
1
1
1
1
1
1
1
1
1
1
1
1
1
1
1
1
1
1
1
1
1
1
1
1
1
1
1
1
1
1
1
1
1
1
1
1
1
1
1
1
1
1
1
1
1
1
1
1
1
1
1
1
1
1
1
1
1
1
1
1
1
1
1
1
1
1
1
1
1
1
1
1
1
1
1
1
1
1
1
1
1
1
1
1
1
1
1
1
1
1
1
1
1
1
1
1
1
1
1
1
1
1
1
1
1
1
1
1
1
1
1
1
1
1
1
1
1
1
1
1
1
1
1
1
1
1
1
1
1
1
1
1
1
1
1
1
1
1
1
1
1
1
1
1
1
1
1
1
1
1
1
1
1
1
1
1
1
1
1
1
1
1
1
1
1
1
1
1
1
1
1
1
1
1
1
1
1
1
1
1
1
1
1
1
1
1
1
1
1
1
1
1
1
1
1
1
1
1
1
1
1
1
1
1
1
1
1
1
1
1
1
1
1
1
1
1
1
1
1
1
1
1
1
1
1
1
1
1
1
1
1
1
1
1
1
1
1
1
1
1
1
1
1
1
1
1
1
1
1
1
1
1
1
1
1
1
1
1
1
1
1
1
1
1
1
1
1
1
1
1
1
1
1
1
1
1
1
1
1
1
1
1
1
1
1
1
1
1
1
1
1
1
1
1
1
1
1
1
1
1
1
1
1
1
1
1
1
1
1
1
1
1
1
1
1
1
1
1
1
1
1
1
1
1
1
1
1
1
1
1
1
1
1
1
1
1
1
1
1
1
1
1
1
1
1
1
1
1
1
1
1
1
1
1
1
1
1
1
1
1
1
1
1
1
1
1
1
1
1
1
1
1
1
1
1
1
1
1
1
1
1
1
1
1
1
1
1
1
1
1
1
1
1
1
1
1
1
1
1
1
1
1
1
1
1
1
1
1
1
1
1
1
1
1
1
1
1
1
1
1
1
1
1
1
1
1
1
1
1
1
1
1
1
1
1
1
1
1
1
1
1
1
1
1
1
1
1
1
1
1
1
1
1
1
1
1
1
1
1
1
1
)
;

boundaryField
{
    leftWall
    {
        type            alphaContactAngle;
        contactAngleProperties 
        {
            mercury         
            {
                theta0          90;
            }
            water           
            {
                theta0          90;
            }
            oil             
            {
                theta0          90;
            }
        }
        value           nonuniform List<scalar> 
50
(
3.65197e-13
1.31309e-12
2.92475e-12
8.83565e-12
2.54086e-11
4.27192e-11
2.25199e-10
1.31933e-09
4.55887e-09
1.45675e-08
1.54983e-08
0.00549271
0.150379
0.222926
0.265742
0.766555
0.999938
0.999999
0.999999
0.999999
0.999999
1
1
1
1
1
1
1
1
1
1
1
1
1
1
1
1
1
1
1
1
1
1
1
1
1
1
1
1
1
)
;
    }
    rightWall
    {
        type            alphaContactAngle;
        contactAngleProperties 
        {
            mercury         
            {
                theta0          90;
            }
            water           
            {
                theta0          90;
            }
            oil             
            {
                theta0          90;
            }
        }
        value           nonuniform List<scalar> 
50
(
0.014
0.014
0.014
0.0142458
0.127144
0.402301
0.374873
0.0616245
0.000259895
0.00235091
0.0652278
0.0695977
0.0366933
-3.5627e-05
0.210549
0.958842
1
0.999999
0.999999
0.999999
0.999999
0.999999
1
1
1
1
1
1
1
1
1
1
1
1
1
1
1
1
1
1
1
1
1
1
1
1
1
1
1
1
)
;
    }
    lowerWall
    {
        type            alphaContactAngle;
        contactAngleProperties 
        {
            mercury         
            {
                theta0          90;
            }
            water           
            {
                theta0          90;
            }
            oil             
            {
                theta0          90;
            }
        }
        value           nonuniform List<scalar> 
62
(
3.65197e-13
3.13074e-13
2.92502e-13
2.06595e-13
1.12087e-13
5.19064e-14
2.29077e-14
9.99304e-15
7.42274e-15
7.6797e-15
1.24857e-14
2.49319e-14
7.5549e-14
2.24797e-13
3.56727e-13
3.64166e-13
6.09035e-13
2.17153e-12
3.04065e-12
3.69251e-12
2.9832e-12
3.69373e-13
3.49377e-13
3.49377e-13
1.01543e-11
9.71215e-10
9.6787e-10
1.62224e-10
0.000729567
0.0012666
0.000425975
0.00781934
0.00938954
0.0332269
0.0695828
0.000339209
0.00376445
0.0162198
0.015468
0.015458
0.0181188
0.0669664
0.0654344
0.000339209
0.000342533
0.00579542
0.0182766
0.0257082
0.0338902
0.0581553
0.0665973
0.0664346
0.0457722
0.0435225
0.043509
0.0703119
0.0920501
0.0874819
0.0487605
0.0140001
0.0140001
0.014
)
;
    }
    atmosphere
    {
        type            inletOutlet;
        inletValue      uniform 1;
        value           nonuniform List<scalar> 
46
(
1
1
1
1
1
1
1
1
1
1
1
1
1
1
1
1
1
1
1
1
1
1
1
1
1
1
1
1
1
1
1
1
1
1
1
1
1
1
1
1
1
1
1
1
1
1
)
;
    }
    defaultFaces
    {
        type            empty;
    }
}


// ************************************************************************* //
