/*--------------------------------*- C++ -*----------------------------------*\
  =========                 |
  \\      /  F ield         | OpenFOAM: The Open Source CFD Toolbox
   \\    /   O peration     | Website:  https://openfoam.org
    \\  /    A nd           | Version:  13
     \\/     M anipulation  |
\*---------------------------------------------------------------------------*/
FoamFile
{
    format      ascii;
    class       volScalarField;
    location    "2.2";
    object      epsilon;
}
// * * * * * * * * * * * * * * * * * * * * * * * * * * * * * * * * * * * * * //

dimensions      [0 2 -3 0 0 0 0];

internalField   nonuniform List<scalar> 
2268
(
0.00513087
0.018049
0.031526
0.045083
0.0586943
0.072362
0.086059
0.099942
0.114454
0.128985
0.143291
0.157234
0.170485
0.182393
0.191985
0.19814
0.199697
0.195289
0.183082
0.160511
0.12427
0.0719626
0.0116978
0.00877055
0.0129634
0.0184342
0.0242292
0.0302343
0.0364701
0.0429325
0.049608
0.0564794
0.0633556
0.0700616
0.0764803
0.0824356
0.0876839
0.0919161
0.0947434
0.0956821
0.0941324
0.0893279
0.0802923
0.0659449
0.0457934
0.0238812
0.0143559
0.0147502
0.0182389
0.0222979
0.0266267
0.031209
0.0360365
0.0410735
0.0462527
0.0514354
0.0564913
0.0613165
0.0657837
0.0697356
0.0729829
0.0752845
0.0763338
0.0757549
0.0730967
0.0678447
0.0595191
0.0482076
0.0429871
0.0195448
0.0170698
0.0193938
0.0225651
0.0261062
0.029943
0.0340436
0.0383586
0.0428149
0.0472937
0.0516823
0.0558879
0.0598075
0.0633198
0.0662814
0.0685164
0.0698115
0.0699214
0.0685903
0.0656112
0.0609737
0.0555477
0.0645612
0.0241261
0.019294
0.020781
0.0233849
0.026477
0.0299156
0.033635
0.0375717
0.0416556
0.0457819
0.0498485
0.0537714
0.057465
0.0608299
0.0637463
0.0660771
0.0676751
0.068393
0.0681322
0.066963
0.065416
0.0656288
0.0899167
0.0281806
0.0212779
0.0221432
0.0243887
0.0272453
0.0304964
0.0340357
0.0377863
0.0416864
0.0456458
0.049568
0.0533746
0.0569944
0.0603444
0.0633221
0.0658184
0.0677401
0.0690213
0.0696991
0.0701147
0.0714802
0.07819
0.124389
0.0319959
0.0231163
0.0234985
0.0255382
0.0283097
0.0315169
0.0350131
0.038711
0.0425584
0.0464767
0.0503671
0.0541556
0.0577822
0.0611804
0.0642629
0.0669456
0.0691808
0.0709703
0.0724642
0.0742498
0.0783188
0.0929644
0.182468
0.0361254
0.0248879
0.0248626
0.0268304
0.02964
0.0329153
0.0364766
0.0402322
0.044139
0.0481166
0.0520451
0.0558628
0.0595371
0.0630144
0.0662229
0.0690931
0.0715987
0.0737893
0.0759002
0.078689
0.0847363
0.107129
0.314927
0.0105915
0.0719222
0.134308
0.186605
0.220265
0.241454
0.245237
0.23758
0.223155
0.208098
0.192298
0.171475
0.141873
0.117497
0.101503
0.0833292
0.0635254
0.0416954
0.0125571
0.0229249
0.0454548
0.0692662
0.0900018
0.104216
0.112999
0.116132
0.114925
0.109665
0.102656
0.0947423
0.0858871
0.0762861
0.0662449
0.0564939
0.0465568
0.0369005
0.0279461
0.0184733
0.0430154
0.0493686
0.0624765
0.0748627
0.0839184
0.0897955
0.0923107
0.091438
0.0881019
0.0833682
0.0776623
0.0711243
0.063712
0.0562573
0.0488958
0.0415192
0.0346378
0.0294232
0.0281087
0.064973
0.0579976
0.0643999
0.0720062
0.07824
0.0823507
0.0839112
0.0828633
0.0800349
0.0765294
0.0721072
0.0665799
0.0595831
0.0528772
0.0465792
0.0405565
0.0353693
0.0325008
0.0373786
0.0888911
0.0691921
0.0691688
0.0729753
0.0770293
0.0798864
0.0807265
0.0792363
0.0763214
0.0730327
0.0692219
0.065008
0.0584812
0.0518957
0.0460942
0.0409597
0.0370213
0.0359078
0.0468541
0.125235
0.0836145
0.0752909
0.075454
0.0774537
0.0791942
0.0795082
0.0777325
0.0747425
0.0713696
0.0674398
0.0633255
0.0583094
0.0521006
0.046525
0.0420435
0.0390313
0.0391072
0.0571339
0.199698
0.101385
0.0818856
0.0785689
0.0788297
0.0794681
0.0791766
0.0771832
0.0740495
0.0706249
0.0667296
0.0624937
0.0578236
0.0525356
0.0473914
0.0434188
0.0410612
0.0422893
0.0693714
0.362778
0.117663
0.0876508
0.0817545
0.08072
0.0803688
0.0793282
0.076973
0.0737344
0.0703347
0.0665469
0.0623866
0.057887
0.0530352
0.0483852
0.0448523
0.0429794
0.0448181
0.0817503
0.0417195
0.0270588
0.0267722
0.0288702
0.0318901
0.0353713
0.0391013
0.0429993
0.0470429
0.0511796
0.0553219
0.0593906
0.0633425
0.0671302
0.0706677
0.0738703
0.0767306
0.0793665
0.0821078
0.0857901
0.0927384
0.110239
0.167797
0.051953
0.0296691
0.0294096
0.0317014
0.0347967
0.0383332
0.0422099
0.0464241
0.0509813
0.0558431
0.0608659
0.0658929
0.0707761
0.075361
0.0795491
0.0832381
0.0864496
0.0893812
0.0923791
0.0960501
0.101845
0.112959
0.135955
0.0558118
0.0321222
0.0320976
0.0344822
0.0376644
0.0414628
0.0458687
0.0508786
0.0564465
0.0624115
0.0685676
0.0746648
0.0804442
0.0857366
0.0903936
0.0942719
0.0974383
0.10017
0.102765
0.105547
0.109388
0.115667
0.125603
0.0554075
0.0344665
0.0352287
0.0380135
0.0416195
0.0460307
0.0512618
0.0572868
0.0640119
0.0711569
0.0783848
0.0853458
0.091707
0.0972793
0.101868
0.105304
0.10776
0.109608
0.111056
0.112294
0.113917
0.116624
0.12039
0.0599528
0.0386982
0.0398583
0.0429983
0.0471391
0.0522998
0.058422
0.0654329
0.0731632
0.0811739
0.0890381
0.0963113
0.102602
0.107738
0.111524
0.113834
0.115059
0.115625
0.115699
0.115573
0.115655
0.116241
0.117014
0.0776222
0.045705
0.0460981
0.04919
0.0536918
0.0594244
0.0661533
0.0737047
0.0818317
0.0899935
0.097711
0.104541
0.110137
0.114388
0.11722
0.118663
0.119085
0.11885
0.118143
0.117274
0.11651
0.115905
0.115083
0.103295
0.0536158
0.0525004
0.05542
0.0600936
0.0659559
0.0727597
0.0803085
0.0882813
0.0961171
0.103311
0.109492
0.114438
0.11809
0.120434
0.121561
0.121732
0.121199
0.12016
0.118907
0.117629
0.116266
0.114514
0.131369
0.0645106
0.0617744
0.0637055
0.0677576
0.0728418
0.0790325
0.0861561
0.0936517
0.100922
0.107494
0.113079
0.117508
0.120753
0.122842
0.123853
0.12397
0.123378
0.12226
0.120844
0.11926
0.117399
0.115078
0.145267
0.0714209
0.0803326
0.0811814
0.0813775
0.0822897
0.0866993
0.0930261
0.0996022
0.10587
0.111523
0.116391
0.120286
0.12314
0.124981
0.125895
0.126024
0.125523
0.124518
0.123117
0.121409
0.119298
0.116654
0.120918
0.0759555
0.084683
0.0886255
0.0897493
0.0923259
0.0972959
0.102995
0.107645
0.111876
0.11597
0.120015
0.123359
0.125715
0.127183
0.127929
0.128102
0.127804
0.127058
0.125836
0.124129
0.121927
0.119158
0.111565
0.0748763
0.0730295
0.0769446
0.082461
0.0908261
0.100726
0.108782
0.113552
0.116963
0.120632
0.124356
0.127225
0.12881
0.129635
0.130115
0.130369
0.130364
0.129964
0.128994
0.127287
0.124714
0.121745
0.12435
0.0728544
0.0681658
0.0698868
0.0748188
0.0822333
0.0916935
0.100569
0.10751
0.113343
0.119007
0.12391
0.127186
0.128704
0.1294
0.12965
0.129636
0.1294
0.12891
0.12795
0.126432
0.124498
0.122332
0.134267
0.0747886
0.0666814
0.0662938
0.0694117
0.0751045
0.0825271
0.0902491
0.0973073
0.103611
0.109648
0.115296
0.119681
0.122786
0.124991
0.126457
0.127297
0.127594
0.127378
0.126646
0.125632
0.124424
0.122897
0.143026
0.0764822
0.0660731
0.0642933
0.0659403
0.0698243
0.0753141
0.0815457
0.0878225
0.0939698
0.100005
0.105654
0.110491
0.11439
0.117472
0.11986
0.12162
0.122801
0.123417
0.123549
0.123358
0.122881
0.121998
0.148634
0.077308
0.0654521
0.0628236
0.0635338
0.0661981
0.0702779
0.075253
0.0806313
0.0861471
0.0916528
0.0969131
0.101617
0.10569
0.109196
0.112122
0.114504
0.116371
0.117743
0.118667
0.119202
0.119346
0.118986
0.150671
0.0767994
0.0642933
0.0612672
0.0615062
0.0634893
0.0666756
0.0706994
0.0752128
0.0799682
0.0847809
0.0894438
0.0937473
0.0976119
0.101051
0.104102
0.106719
0.108911
0.110688
0.112073
0.113051
0.113595
0.113669
0.149699
0.0751538
0.0625335
0.0593823
0.0594185
0.0610524
0.0637122
0.0670799
0.070894
0.0749519
0.0790891
0.0831438
0.0869632
0.0904646
0.0936218
0.0964441
0.0989594
0.101153
0.103007
0.104523
0.105667
0.106415
0.10678
0.146353
0.0727255
0.0603023
0.0571597
0.0571086
0.0585505
0.0608897
0.0638214
0.0671276
0.0706419
0.0742292
0.0777606
0.0811192
0.0842224
0.0870302
0.0895379
0.0917631
0.0937281
0.0954404
0.0968718
0.0979884
0.0987793
0.0992879
0.141202
0.06976
0.0577508
0.0546831
0.0545832
0.0558908
0.0580092
0.0606388
0.063585
0.0667035
0.0698766
0.0729977
0.0759687
0.0787147
0.0811939
0.0833953
0.0853298
0.0870175
0.0884762
0.0897155
0.0907079
0.0914448
0.0919771
0.134779
0.0664492
0.0550004
0.0520469
0.0519098
0.0530992
0.0550369
0.0574338
0.0601092
0.0629317
0.0657947
0.0686025
0.0712698
0.0737302
0.0759431
0.0778942
0.0795893
0.0810456
0.0822827
0.0833176
0.0841493
0.0847917
0.0852837
0.127527
0.0629272
0.0521346
0.0493261
0.0491602
0.0502359
0.0520073
0.0542013
0.05665
0.0592319
0.0618479
0.0644106
0.0668436
0.0690867
0.0711009
0.0728692
0.0743929
0.0756852
0.0767647
0.0776514
0.0783579
0.0789079
0.0793368
0.119695
0.0592723
0.0492066
0.0465721
0.0463909
0.0473604
0.0489735
0.0509779
0.0532193
0.0555868
0.0579893
0.0603471
0.0625913
0.0646666
0.0665353
0.068178
0.0695912
0.0707834
0.0717703
0.0725713
0.0732045
0.0736972
0.0740785
0.1115
0.0555426
0.0462537
0.0438205
0.0436428
0.0445199
0.0459864
0.0478122
0.0498582
0.0520248
0.0542307
0.0564048
0.0584854
0.0604221
0.0621786
0.0637334
0.0650789
0.0662185
0.0671634
0.06793
0.0685372
0.0690114
0.0693748
0.10318
0.0517962
0.0433078
0.0410991
0.0409465
0.0417512
0.0430889
0.0447518
0.0466161
0.0485942
0.0506154
0.0526181
0.0545482
0.0563607
0.0580214
0.0595079
0.0608091
0.0619236
0.0628579
0.0636238
0.0642384
0.0647251
0.065099
0.094896
0.0480834
0.0404021
0.0384346
0.0383288
0.0390843
0.0403164
0.0418381
0.0435399
0.0453461
0.0471965
0.0490389
0.0508276
0.0525232
0.0540946
0.0555197
0.056785
0.0578854
0.0588228
0.0596047
0.0602443
0.0607606
0.0611649
0.086878
0.0444753
0.0375761
0.0358574
0.0358173
0.0365476
0.0377001
0.0391066
0.0406705
0.0423265
0.0440243
0.0457208
0.0473779
0.0489626
0.0504476
0.0518118
0.0530412
0.0541279
0.0550703
0.0558714
0.0565411
0.0570942
0.0575378
0.0792717
0.0410313
0.034874
0.0334039
0.0334446
0.0341721
0.0352708
0.0365895
0.0380425
0.0395736
0.0411408
0.0427091
0.0442477
0.0457295
0.0471313
0.0484344
0.0496247
0.0506934
0.051636
0.0524525
0.0531492
0.0537376
0.0542219
0.0722201
0.0378101
0.0323453
0.0311187
0.0312509
0.0319943
0.0330626
0.034319
0.0356872
0.0371188
0.0385787
0.0400385
0.041474
0.0428634
0.0441877
0.0454308
0.04658
0.0476259
0.0485626
0.0493881
0.0501057
0.0507248
0.0512462
0.0658733
0.0348845
0.0300507
0.0290565
0.0292857
0.0300584
0.0311142
0.032329
0.0336346
0.034989
0.0363627
0.0377332
0.0390814
0.0403903
0.0416449
0.0428319
0.0439401
0.0449606
0.0458873
0.0467165
0.0474501
0.0480944
0.0486487
0.0604112
0.0323418
0.028064
0.0272832
0.0276076
0.0284155
0.029469
0.0306553
0.0319135
0.0332069
0.0345112
0.0358081
0.037083
0.0383231
0.0395166
0.0406531
0.0417234
0.0427194
0.0436351
0.0444664
0.0452141
0.0458818
0.0464671
0.0560191
0.0302868
0.0264713
0.0258733
0.0262811
0.0271201
0.0281717
0.0293332
0.0305503
0.0317912
0.0330357
0.0342696
0.0354817
0.0366625
0.0378034
0.0388963
0.0399339
0.0409096
0.0418179
0.0426548
0.0434198
0.0441138
0.0447337
0.0528527
0.0288297
0.025363
0.0249036
0.0253704
0.0262247
0.0272634
0.0283931
0.0295654
0.0307533
0.0319403
0.0331155
0.0342706
0.0353989
0.0364941
0.0375507
0.0385632
0.0395266
0.0404361
0.0412881
0.0420803
0.0428115
0.0434763
0.0509965
0.0280676
0.0248232
0.0244447
0.0249332
0.0257741
0.0267768
0.0278562
0.0289698
0.0300952
0.0312194
0.0323341
0.0334333
0.0345126
0.0355678
0.0365955
0.0375926
0.0385557
0.0394813
0.0403656
0.0412046
0.0419934
0.0427236
0.0504497
0.0280713
0.0249221
0.0245571
0.0250168
0.0258018
0.0267321
0.0277307
0.0287617
0.0298067
0.0308558
0.0319026
0.032943
0.033974
0.0349938
0.0360011
0.0369953
0.0379758
0.0389407
0.0398858
0.0408038
0.0416848
0.0425138
0.0511269
0.0288887
0.0257222
0.0252957
0.0256609
0.0263301
0.0271355
0.02801
0.028924
0.0298629
0.0308187
0.0317861
0.0327618
0.0337439
0.0347325
0.0357295
0.0367382
0.0377621
0.0388019
0.0398526
0.0409011
0.0419274
0.0429059
0.0528926
0.0305742
0.027304
0.0267284
0.0269071
0.0273738
0.02798
0.0286708
0.0294227
0.030223
0.0310632
0.0319371
0.0328406
0.0337725
0.0347353
0.0357355
0.036783
0.0378887
0.0390585
0.0402856
0.0415447
0.042797
0.0439976
0.0556131
0.0332708
0.0298391
0.0289805
0.0288195
0.028946
0.0292439
0.0296709
0.0302049
0.030829
0.0315293
0.0322951
0.0331194
0.034001
0.0349455
0.035967
0.0370875
0.0383322
0.0397177
0.0412336
0.0428286
0.0444256
0.0459483
0.0593685
0.037501
0.0337993
0.0323362
0.0315179
0.0310617
0.0308863
0.0309442
0.0311952
0.0316043
0.0321424
0.0327882
0.0335289
0.0343623
0.0352988
0.0363653
0.0376053
0.0390731
0.0408101
0.0427993
0.044926
0.047036
0.0490073
0.0656603
0.045523
0.0406392
0.0374642
0.0352168
0.0337245
0.0328292
0.0323891
0.0322917
0.0324536
0.0328149
0.0333357
0.0339933
0.0347836
0.0357247
0.0368637
0.0382828
0.0400952
0.0424036
0.0451858
0.0481506
0.0509912
0.0535442
0.0879174
0.0677007
0.05474
0.0457589
0.0401859
0.0368553
0.0349151
0.0338509
0.0333608
0.0332644
0.0334508
0.0338529
0.0344349
0.0351907
0.0361485
0.0373855
0.0390487
0.0413704
0.0446174
0.0488058
0.0530663
0.0568476
0.0600491
0.2726
0.137108
0.0845617
0.0586803
0.0462669
0.0400801
0.0368337
0.0351037
0.0342385
0.0339132
0.0339524
0.034258
0.0347809
0.0355125
0.0364932
0.0378375
0.0397871
0.0427966
0.0475726
0.0544897
0.0605628
0.0652471
0.0689349
1.55761
0.223522
0.12173
0.072062
0.0514135
0.0424007
0.0380726
0.0358611
0.0347489
0.0342818
0.0342332
0.0344828
0.034972
0.035691
0.0366889
0.0381116
0.0402972
0.0440027
0.0508342
0.0629447
0.0706438
0.0754658
0.0791253
0.412541
0.325455
0.342231
0.444365
0.165109
0.167709
0.168019
0.164156
0.133216
0.135217
0.133947
0.129484
0.122255
0.122188
0.120566
0.117595
0.116561
0.115588
0.113903
0.111652
0.113597
0.112276
0.110626
0.108748
0.11258
0.111148
0.10956
0.107883
0.112929
0.11147
0.109952
0.108415
0.114349
0.11289
0.111444
0.110014
0.116682
0.115208
0.11382
0.112466
0.11925
0.11806
0.116991
0.115447
0.120402
0.118844
0.117373
0.115967
0.120844
0.119231
0.117603
0.116025
0.120356
0.118848
0.117251
0.115674
0.117726
0.1165
0.115152
0.11377
0.112865
0.111955
0.110912
0.109811
0.106367
0.105749
0.104996
0.104173
0.0991468
0.0987497
0.0982257
0.0976324
0.0919898
0.0917386
0.0913779
0.0909579
0.0853628
0.0852013
0.084953
0.0846585
0.0794393
0.0793364
0.0791675
0.0789624
0.0741921
0.0741338
0.0740277
0.0738936
0.0695077
0.0694911
0.0694413
0.0693683
0.0652609
0.0652861
0.0652884
0.0652711
0.0613642
0.0614311
0.0614818
0.0615139
0.0577766
0.0578819
0.0579749
0.0580509
0.0544991
0.0546385
0.0547687
0.0548819
0.0515573
0.0517258
0.0518863
0.0520311
0.04899
0.0491833
0.0493697
0.0495407
0.0468364
0.047052
0.047261
0.0474561
0.0451332
0.0453718
0.0456044
0.0458235
0.0439132
0.0441789
0.0444384
0.0446854
0.0432118
0.043513
0.0438076
0.0440891
0.0430753
0.0434253
0.043767
0.0440947
0.0435734
0.0439915
0.0443981
0.0447873
0.0448155
0.0453273
0.0458209
0.0462912
0.046973
0.0476095
0.0482161
0.0487883
0.0503042
0.0510993
0.0518456
0.0525396
0.0551768
0.0561632
0.0570727
0.0579029
0.0620694
0.0632837
0.0643809
0.0653553
0.0714584
0.073092
0.0744599
0.07558
0.0827856
0.0868035
0.0886896
0.0897772
0.184092
0.114256
0.0931588
0.0862757
0.0839104
0.0822554
0.0799852
0.0769967
0.073693
0.0703731
0.0667763
0.0628428
0.05865
0.0542891
0.0502619
0.0472327
0.0456223
0.0466562
0.0798813
0.133459
0.108203
0.0959506
0.0901898
0.0872798
0.0847495
0.0816064
0.0780847
0.0746249
0.0713426
0.0679778
0.0643603
0.0604503
0.056361
0.0525036
0.0493581
0.0472105
0.0466439
0.062779
0.118258
0.105127
0.0971129
0.0924694
0.0895296
0.0867645
0.0833609
0.0795877
0.0760096
0.0727869
0.0696775
0.0664157
0.0628291
0.0588579
0.0546848
0.0507066
0.0474503
0.0459971
0.0573943
0.111415
0.103191
0.0974143
0.0935831
0.0907943
0.0880189
0.0846759
0.0809947
0.0774623
0.0743431
0.0715017
0.068668
0.065597
0.0620436
0.0578324
0.0531273
0.0486512
0.0454233
0.0558683
0.107506
0.101862
0.0974258
0.0940772
0.091346
0.0886203
0.0855094
0.0821064
0.0787585
0.0757596
0.0731138
0.0706487
0.0681469
0.0653051
0.0617237
0.0571579
0.0517647
0.0463238
0.0570177
0.10557
0.101283
0.0976308
0.0945664
0.0918522
0.0891658
0.0862543
0.0831217
0.0799834
0.0770865
0.0745205
0.0722194
0.07003
0.067664
0.0646435
0.0605507
0.0550341
0.0474639
0.0511945
0.105179
0.101585
0.0983649
0.0954705
0.092774
0.0901088
0.0873207
0.0843805
0.0814048
0.0785742
0.0760154
0.0737398
0.0716095
0.0693042
0.0663301
0.0623648
0.0570534
0.0496752
0.0522192
0.105999
0.102781
0.0997965
0.0970134
0.0943554
0.0917216
0.0890025
0.0861646
0.0832767
0.0804769
0.0779093
0.0756624
0.0736954
0.0716978
0.0691705
0.0659078
0.0619639
0.0571259
0.0656895
0.107793
0.104812
0.101969
0.0992816
0.0967046
0.0941432
0.0914561
0.088622
0.0857387
0.0829452
0.0804357
0.0783177
0.0766421
0.0750969
0.0732502
0.0712632
0.0694804
0.0700935
0.0905182
0.1104
0.107639
0.104883
0.102331
0.0999437
0.0975652
0.0948234
0.0917362
0.0886137
0.0856305
0.0831065
0.0814104
0.0799006
0.0776924
0.0751078
0.0736396
0.074435
0.0824616
0.118558
0.112933
0.109726
0.106819
0.104211
0.101848
0.0996779
0.0973717
0.0945478
0.0911981
0.0877988
0.0849444
0.0827921
0.0807322
0.0777955
0.0750351
0.0736328
0.0749647
0.0840283
0.138907
0.113557
0.11021
0.107233
0.104513
0.101983
0.0997062
0.0976499
0.0954704
0.0928142
0.0893815
0.0858761
0.082509
0.0792333
0.076237
0.073932
0.0728541
0.0745555
0.0846457
0.151515
0.113624
0.110689
0.10797
0.105274
0.102508
0.0996951
0.097055
0.0947247
0.0924366
0.0896426
0.0859663
0.0816586
0.0776969
0.074531
0.0724177
0.0715916
0.0735595
0.0849744
0.159543
0.113315
0.110529
0.107895
0.105162
0.10215
0.0988829
0.095739
0.0931083
0.0907708
0.0880902
0.0844307
0.0800021
0.0758329
0.0725545
0.0703541
0.0695514
0.0719374
0.0845698
0.165613
0.111621
0.108929
0.106284
0.103448
0.100252
0.0967751
0.0934111
0.0905322
0.0879617
0.0851753
0.0816094
0.0774479
0.0734902
0.0702593
0.0680507
0.0673967
0.0702019
0.0838053
0.170366
0.108028
0.10556
0.102945
0.100083
0.0968836
0.093457
0.0901136
0.0871068
0.0843498
0.0814565
0.0780913
0.0743839
0.0708283
0.0678508
0.0658056
0.0653759
0.0685195
0.0827416
0.172769
0.102775
0.100641
0.0982002
0.0954781
0.0924708
0.089286
0.086137
0.0831903
0.0803955
0.0775381
0.0744383
0.0711894
0.0680891
0.0654559
0.0636645
0.063455
0.0667894
0.0811959
0.172476
0.0965699
0.0948075
0.092664
0.0902235
0.0875362
0.0847018
0.0818633
0.0791209
0.0764568
0.0737634
0.0709625
0.0681247
0.0654348
0.0631361
0.0615893
0.061529
0.0648797
0.0790729
0.169733
0.0901566
0.0887332
0.0869294
0.0848389
0.0825308
0.0800896
0.0776113
0.0751564
0.0727236
0.070269
0.0677696
0.0652778
0.0629194
0.0608899
0.0595241
0.0595255
0.0627495
0.0764249
0.164906
0.0840491
0.0829005
0.0814183
0.0796813
0.0777525
0.0756972
0.073576
0.0714286
0.0692619
0.0670638
0.0648361
0.0626218
0.0605157
0.058682
0.057427
0.0574139
0.0604094
0.0733581
0.158486
0.0784876
0.0775534
0.0763496
0.0749299
0.0733404
0.071626
0.0698254
0.0679647
0.066053
0.0640922
0.0620938
0.0600954
0.0581743
0.0564734
0.0552734
0.055194
0.0579064
0.0700172
0.151004
0.0735222
0.0727517
0.0717752
0.0706207
0.0693142
0.0678836
0.0663522
0.0647365
0.0630455
0.0612858
0.0594722
0.0576385
0.0558515
0.0542394
0.0530605
0.0528944
0.0553139
0.0665619
0.143004
0.0690832
0.0684431
0.0676499
0.0667093
0.0656305
0.0644274
0.0631126
0.0616962
0.0601855
0.0585887
0.0569211
0.055214
0.0535277
0.0519797
0.0508107
0.0505633
0.0527179
0.0631522
0.134995
0.0650664
0.064538
0.0638946
0.063126
0.062228
0.0612048
0.0600615
0.0588039
0.0574378
0.0559718
0.0544212
0.0528157
0.0512118
0.0497201
0.0485667
0.048264
0.0502063
0.0599239
0.127375
0.0613847
0.0609584
0.0604417
0.0598133
0.0590606
0.0581806
0.0571742
0.0560442
0.0547957
0.0534374
0.0519848
0.0504672
0.0489392
0.0475067
0.0463856
0.046062
0.0478562
0.056983
0.120457
0.057994
0.0576635
0.0572566
0.0567454
0.0561119
0.0553491
0.0544549
0.0534309
0.0522817
0.0510163
0.0496511
0.0482155
0.0467637
0.0453989
0.0443293
0.044021
0.0457298
0.0543937
0.114395
0.0548903
0.0546499
0.0543403
0.0539297
0.0533971
0.0527334
0.051935
0.0510028
0.0499415
0.0487607
0.0474776
0.0461225
0.0447498
0.0434613
0.0424601
0.0421953
0.0438706
0.0521904
0.109292
0.0520999
0.0519442
0.0517219
0.0513997
0.0509553
0.0503786
0.0496653
0.048816
0.0478358
0.046735
0.0455316
0.0442568
0.0429655
0.0417589
0.0408358
0.0406331
0.0423108
0.0503822
0.105128
0.0496642
0.0495889
0.0494469
0.0492047
0.0488401
0.0483424
0.0477075
0.0469358
0.0460327
0.0450091
0.0438839
0.0426889
0.0414794
0.0403557
0.0395135
0.0393786
0.0410783
0.0489776
0.101924
0.0476318
0.0476344
0.0475685
0.0474012
0.0471112
0.046688
0.0461273
0.04543
0.0446019
0.0436541
0.042606
0.0414898
0.0403605
0.0393174
0.0385526
0.0384837
0.0402118
0.047996
0.0996505
0.0460511
0.0461324
0.0461419
0.0460481
0.0458306
0.0454796
0.0449914
0.0443672
0.0436132
0.0427408
0.0417697
0.0407319
0.0396819
0.0387168
0.038025
0.0380162
0.0397746
0.0474977
0.0984178
0.0449702
0.0451361
0.0452244
0.0452058
0.0450615
0.044783
0.0443673
0.0438166
0.0431375
0.042342
0.0414499
0.040493
0.0395246
0.0386396
0.038022
0.0380747
0.0398718
0.0475947
0.0983431
0.0444418
0.0447036
0.0448785
0.04494
0.044872
0.0446679
0.0443265
0.0438513
0.0432499
0.0425354
0.0417279
0.0408596
0.0399832
0.0391914
0.038664
0.038798
0.0406659
0.0484841
0.099771
0.0445322
0.0449063
0.0451787
0.0453274
0.0453401
0.0452135
0.0449493
0.044553
0.0440343
0.0434078
0.0426954
0.0419309
0.0411681
0.0405003
0.0401054
0.0403775
0.0423951
0.0504633
0.103106
0.0453316
0.0458383
0.0462206
0.0464636
0.046561
0.0465147
0.0463305
0.0460174
0.0455879
0.0450594
0.0444574
0.0438199
0.0432067
0.0427171
0.0425354
0.0430611
0.0453921
0.053982
0.109105
0.0469684
0.0476286
0.048131
0.0484722
0.0486553
0.0486897
0.0485869
0.0483605
0.0480269
0.0476077
0.0471343
0.0466533
0.0462378
0.0460063
0.0461679
0.0471524
0.0501054
0.0597001
0.118792
0.0496258
0.0504549
0.0510795
0.0515145
0.0517775
0.0518879
0.0518643
0.0517254
0.0514921
0.0511916
0.0508633
0.050568
0.0504028
0.0505266
0.051212
0.0529809
0.0571149
0.0686447
0.134131
0.0535591
0.0545578
0.05529
0.0558003
0.0561261
0.0562993
0.0563462
0.0562902
0.0561563
0.0559771
0.0558016
0.0557087
0.0558312
0.056397
0.0578075
0.0608148
0.0670919
0.0824615
0.158838
0.0591134
0.0602539
0.0610516
0.0615969
0.0619532
0.0621654
0.0622653
0.0622793
0.0622348
0.0621676
0.062134
0.0622305
0.0626304
0.0636546
0.0659153
0.0706382
0.0805442
0.103835
0.201964
0.0667428
0.0679467
0.0687268
0.0692401
0.0695773
0.0697919
0.0699172
0.0699783
0.0700008
0.0700193
0.0700905
0.0703172
0.0708979
0.0722339
0.0751828
0.0817116
0.0968508
0.13636
0.28901
0.0770581
0.0781407
0.0787618
0.0791476
0.0794005
0.0795697
0.0796818
0.0797552
0.0798087
0.0798683
0.0799788
0.0802253
0.0807826
0.0820372
0.0849249
0.0920025
0.111587
0.179358
0.5152
0.0908724
0.0914307
0.0916874
0.0918339
0.09193
0.0919977
0.0920471
0.0920852
0.0921189
0.0921586
0.0922226
0.0923467
0.0926069
0.0931843
0.0945766
0.0984662
0.112481
0.194335
1.45962
)
;

boundaryField
{
    leftWall
    {
        type            epsilonWallFunction;
        value           nonuniform List<scalar> 
50
(
0.00513087
0.00877055
0.0143559
0.0195448
0.0241261
0.0281806
0.0319959
0.0361254
0.0417195
0.051953
0.0558118
0.0554075
0.0599528
0.0776222
0.103295
0.131369
0.145267
0.120918
0.111565
0.12435
0.134267
0.143026
0.148634
0.150671
0.149699
0.146353
0.141202
0.134779
0.127527
0.119695
0.1115
0.10318
0.094896
0.086878
0.0792717
0.0722201
0.0658733
0.0604112
0.0560191
0.0528527
0.0509965
0.0504497
0.0511269
0.0528926
0.0556131
0.0593685
0.0656603
0.0879174
0.2726
1.55761
)
;
    }
    rightWall
    {
        type            epsilonWallFunction;
        value           nonuniform List<scalar> 
50
(
0.0125571
0.0184733
0.0281087
0.0373786
0.0468541
0.0571339
0.0693714
0.0817503
0.0798813
0.062779
0.0573943
0.0558683
0.0570177
0.0511945
0.0522192
0.0656895
0.0905182
0.118558
0.138907
0.151515
0.159543
0.165613
0.170366
0.172769
0.172476
0.169733
0.164906
0.158486
0.151004
0.143004
0.134995
0.127375
0.120457
0.114395
0.109292
0.105128
0.101924
0.0996505
0.0984178
0.0983431
0.099771
0.103106
0.109105
0.118792
0.134131
0.158838
0.201964
0.28901
0.5152
1.45962
)
;
    }
    lowerWall
    {
        type            epsilonWallFunction;
        value           nonuniform List<scalar> 
62
(
0.00513087
0.018049
0.031526
0.045083
0.0586943
0.072362
0.086059
0.099942
0.114454
0.128985
0.143291
0.157234
0.170485
0.182393
0.191985
0.19814
0.199697
0.195289
0.183082
0.160511
0.12427
0.0719626
0.0116978
0.0116978
0.0238812
0.0429871
0.0645612
0.0899167
0.124389
0.182468
0.314927
0.412541
0.325455
0.342231
0.444365
0.0105915
0.0229249
0.0430154
0.064973
0.0888911
0.125235
0.199698
0.362778
0.0105915
0.0719222
0.134308
0.186605
0.220265
0.241454
0.245237
0.23758
0.223155
0.208098
0.192298
0.171475
0.141873
0.117497
0.101503
0.0833292
0.0635254
0.0416954
0.0125571
)
;
    }
    atmosphere
    {
        type            inletOutlet;
        inletValue      uniform 0.1;
        value           nonuniform List<scalar> 
46
(
0.1
0.1
0.12173
0.072062
0.0514135
0.0424007
0.0380726
0.0358611
0.0347489
0.0342818
0.0342332
0.0344828
0.034972
0.035691
0.0366889
0.0381116
0.0402972
0.0440027
0.0508342
0.0629447
0.0706438
0.0754658
0.0791253
0.0827856
0.1
0.1
0.1
0.1
0.1
0.1
0.1
0.1
0.1
0.1
0.1
0.1
0.1
0.1
0.1
0.1
0.1
0.1
0.1
0.1
0.1
0.1
)
;
    }
    defaultFaces
    {
        type            empty;
    }
}


// ************************************************************************* //
