/*--------------------------------*- C++ -*----------------------------------*\
  =========                 |
  \\      /  F ield         | OpenFOAM: The Open Source CFD Toolbox
   \\    /   O peration     | Website:  https://openfoam.org
    \\  /    A nd           | Version:  13
     \\/     M anipulation  |
\*---------------------------------------------------------------------------*/
FoamFile
{
    format      ascii;
    class       volScalarField;
    location    "2.2";
    object      k;
}
// * * * * * * * * * * * * * * * * * * * * * * * * * * * * * * * * * * * * * //

dimensions      [0 2 -2 0 0 0 0];

internalField   nonuniform List<scalar> 
2268
(
0.00113563
0.00262826
0.00381816
0.00483943
0.00575468
0.00659682
0.00738432
0.00813715
0.00889013
0.0096266
0.0103297
0.0109956
0.0116127
0.0121559
0.0125866
0.0128611
0.0129341
0.0127481
0.0122171
0.0111988
0.00945115
0.00657708
0.00195907
0.00266656
0.00623546
0.00872278
0.0108048
0.0126731
0.0144242
0.0161082
0.0177557
0.019384
0.0209758
0.0225144
0.0239805
0.0253419
0.0265426
0.027503
0.0281345
0.0283422
0.0280053
0.0269442
0.0248698
0.021298
0.0154404
0.00521036
0.00369505
0.00842608
0.011516
0.0140622
0.0163434
0.0184979
0.0205962
0.0226732
0.0247413
0.0267786
0.0287544
0.0306335
0.0323684
0.033889
0.0351041
0.0359114
0.0361986
0.0358215
0.0345697
0.0321081
0.0278703
0.0208337
0.00771348
0.00453327
0.0101611
0.0136723
0.0165224
0.0190755
0.0215023
0.0238864
0.0262643
0.0286453
0.0310023
0.0332919
0.0354653
0.0374638
0.0392096
0.0406066
0.0415482
0.041917
0.0415629
0.040269
0.0376889
0.0332096
0.025556
0.0101129
0.00521481
0.0116037
0.0154819
0.0185894
0.0213778
0.0240431
0.0266756
0.0293115
0.0319582
0.0345841
0.0371343
0.0395487
0.0417611
0.0436907
0.0452395
0.0463013
0.0467609
0.0464721
0.0452255
0.0426834
0.0382092
0.0302601
0.0126086
0.00578681
0.0128319
0.0170549
0.0204142
0.0234437
0.0263535
0.0292342
0.0321195
0.0350162
0.0378897
0.0406737
0.0432982
0.0456932
0.0477782
0.0494577
0.050629
0.0511842
0.0509882
0.0498485
0.0474537
0.0431802
0.0352738
0.0156428
0.00630705
0.0139424
0.0184986
0.0221158
0.0254029
0.0285748
0.0317169
0.0348592
0.0380073
0.0411227
0.0441249
0.0469371
0.0494883
0.0517026
0.0534901
0.0547556
0.0554022
0.05531
0.0543101
0.052134
0.0482293
0.0408411
0.0201418
0.00685225
0.0149912
0.0198757
0.0237667
0.0273348
0.0307926
0.034217
0.0376336
0.0410467
0.0444072
0.0476128
0.0505864
0.0532676
0.0555866
0.0574624
0.0588063
0.059527
0.0595202
0.058647
0.0566952
0.0532473
0.0469514
0.0288747
0.00183526
0.00662904
0.00997103
0.0123296
0.013728
0.0145773
0.0147115
0.0144119
0.0138308
0.0132048
0.0125152
0.0115783
0.0101747
0.00897652
0.00815003
0.00714892
0.00599002
0.00453795
0.0020429
0.00545542
0.0159067
0.0224445
0.0270637
0.0299127
0.0314268
0.0319192
0.0314226
0.0303377
0.0290093
0.0273908
0.0253703
0.0225319
0.019974
0.0180868
0.0158804
0.0132433
0.0100223
0.00466365
0.00828456
0.0216577
0.0292934
0.034589
0.0378603
0.0396356
0.0402272
0.0397612
0.0384397
0.0367154
0.0346723
0.0321535
0.0289675
0.0259014
0.0232401
0.0203655
0.0170588
0.0128691
0.00617673
0.0108866
0.0265883
0.0348446
0.0402715
0.0436615
0.0454619
0.0460004
0.0454163
0.0438918
0.0419783
0.0397395
0.0369763
0.0335107
0.0300777
0.0269262
0.0236507
0.0199797
0.0151115
0.00748343
0.0134645
0.0311845
0.0398611
0.0451596
0.0484759
0.0502385
0.05068
0.0498704
0.0480837
0.0458707
0.0434646
0.0407804
0.0371984
0.0334462
0.0299331
0.026408
0.0225766
0.0174987
0.00870869
0.017026
0.035983
0.0446397
0.0495895
0.0526136
0.0542314
0.0545611
0.053549
0.051567
0.0490789
0.0463694
0.043449
0.0401838
0.036317
0.0325207
0.0288495
0.0249437
0.0198645
0.00994526
0.0232674
0.0414972
0.0493473
0.0537269
0.0563603
0.0576933
0.0578136
0.0566248
0.0544546
0.0517929
0.0488978
0.0457345
0.0423707
0.0386526
0.0347587
0.030986
0.0269718
0.0216471
0.0113219
0.0343161
0.0478289
0.0539845
0.0576184
0.0598272
0.0608027
0.0606017
0.0591801
0.0568531
0.0540948
0.0510833
0.047793
0.044303
0.0405563
0.0366454
0.032779
0.0285677
0.0228967
0.0125304
0.00755681
0.0164019
0.0217997
0.0261589
0.0302042
0.0341394
0.0380233
0.041876
0.0456926
0.049416
0.052957
0.0562251
0.0591548
0.0616836
0.0637276
0.0651932
0.066
0.0660782
0.065345
0.0636806
0.0608911
0.0564528
0.0482943
0.00876921
0.0186646
0.0244695
0.0292656
0.0337433
0.0381286
0.0425045
0.0469
0.0512957
0.0556433
0.0598173
0.0636876
0.0671387
0.070063
0.0723837
0.0740105
0.0748926
0.0750247
0.0743934
0.0729499
0.070692
0.0676521
0.0640007
0.00929055
0.0202726
0.0266501
0.0319391
0.0369159
0.0418737
0.0469168
0.0520514
0.0572214
0.0622965
0.0671327
0.0715683
0.0754489
0.0786773
0.0811664
0.0828232
0.08364
0.0836884
0.083009
0.0816021
0.0796227
0.0774176
0.0756178
0.00937107
0.0215877
0.0288344
0.0348688
0.0405655
0.0462668
0.0520686
0.05796
0.0638661
0.0696062
0.0749817
0.0798052
0.0839124
0.087218
0.0896296
0.0910624
0.0915827
0.0913428
0.090416
0.0888697
0.0869743
0.0851655
0.0839263
0.010033
0.0237418
0.0319274
0.0387293
0.0451565
0.0515731
0.0580439
0.0645478
0.0709915
0.0771366
0.0827673
0.0876764
0.0916955
0.0947656
0.0968099
0.097778
0.0978559
0.0972511
0.0960644
0.0944717
0.0927489
0.0912153
0.0901031
0.0121098
0.0273364
0.036209
0.0435054
0.0504303
0.057317
0.0641714
0.0709459
0.0775367
0.0836841
0.0891745
0.0938244
0.0975035
0.100188
0.101864
0.102556
0.102449
0.10174
0.100555
0.099102
0.0976011
0.0962304
0.0950322
0.0146465
0.0312254
0.0407011
0.0483842
0.0555997
0.062616
0.0694973
0.0762174
0.0826584
0.0885767
0.0937665
0.098093
0.10149
0.103958
0.105513
0.106212
0.106194
0.105604
0.104576
0.103305
0.101961
0.100622
0.0992528
0.0169168
0.0354923
0.0460879
0.0539803
0.0611501
0.0678414
0.0743944
0.080843
0.0869725
0.0925486
0.0974008
0.101442
0.104629
0.106978
0.108522
0.109314
0.109456
0.109061
0.108245
0.107165
0.105939
0.10457
0.103028
0.0184588
0.0371279
0.0539854
0.062871
0.0689705
0.0739085
0.0796613
0.085695
0.0913028
0.0963243
0.1007
0.104404
0.107374
0.109603
0.111125
0.111999
0.112304
0.112131
0.111561
0.110676
0.109555
0.108184
0.106522
0.0161928
0.0339643
0.0540434
0.0657664
0.0731633
0.0794952
0.0858254
0.0916373
0.0962909
0.100298
0.103922
0.107254
0.109999
0.112046
0.113472
0.114374
0.114831
0.1149
0.114601
0.113938
0.112928
0.111586
0.109883
0.0147001
0.0322718
0.0481583
0.0598384
0.0693855
0.0787628
0.0877404
0.0948632
0.0996956
0.103414
0.106914
0.11015
0.112716
0.114454
0.115652
0.116526
0.117135
0.117465
0.11745
0.117012
0.116083
0.114614
0.112835
0.0156907
0.0336336
0.0462294
0.0561179
0.0651878
0.0741705
0.083124
0.0908335
0.0968805
0.101895
0.10647
0.11037
0.113219
0.115016
0.116247
0.117101
0.117674
0.117986
0.11802
0.11767
0.116899
0.115784
0.114426
0.0163132
0.0348094
0.0456599
0.0542658
0.0622328
0.070219
0.078134
0.0853739
0.0916311
0.09703
0.101944
0.106357
0.109875
0.112551
0.114604
0.11613
0.117194
0.11784
0.118079
0.117911
0.117453
0.116752
0.115766
0.016965
0.0354129
0.0455801
0.0534101
0.0604486
0.0673177
0.0741264
0.0806011
0.0865268
0.0919532
0.0969844
0.101524
0.105392
0.108571
0.111159
0.113231
0.114833
0.115994
0.11672
0.117051
0.117068
0.116796
0.116191
0.0174062
0.0358554
0.0456397
0.0529678
0.0593543
0.0654008
0.0713295
0.0770858
0.0825473
0.0876843
0.0924976
0.0969081
0.100792
0.104152
0.107043
0.109475
0.111476
0.113065
0.114251
0.115059
0.115517
0.11563
0.115356
0.0175844
0.0359994
0.0455241
0.0525311
0.0585122
0.0640356
0.0693539
0.0745186
0.0794817
0.0842075
0.0886659
0.0927908
0.0965085
0.0998124
0.102732
0.1053
0.107494
0.109325
0.110797
0.111918
0.112681
0.113076
0.113099
0.0175318
0.0357882
0.0450998
0.0518806
0.0576034
0.0628018
0.0677201
0.0724451
0.0769757
0.0812931
0.0853728
0.0891727
0.0926463
0.0957801
0.0985818
0.101069
0.103261
0.10515
0.106725
0.107984
0.108906
0.109483
0.109734
0.017292
0.0352492
0.044354
0.0509437
0.0564735
0.0614493
0.0660964
0.0705088
0.0747082
0.0786916
0.0824474
0.0859501
0.0891711
0.092093
0.0947146
0.097047
0.0991067
0.100907
0.10245
0.103716
0.104684
0.105349
0.105745
0.0169058
0.0344493
0.0433274
0.0497311
0.0550883
0.0598845
0.0643291
0.0685142
0.072471
0.0762053
0.0797116
0.0829748
0.0859743
0.0886948
0.0911331
0.0932974
0.0952027
0.0968639
0.0982905
0.0994844
0.100426
0.101112
0.101578
0.0164103
0.033448
0.0420748
0.0482866
0.0534726
0.0581033
0.0623776
0.0663842
0.0701574
0.0737062
0.0770271
0.080108
0.0829331
0.0854898
0.0877749
0.0897951
0.0915637
0.0930965
0.0944064
0.0955021
0.09638
0.0970476
0.0975312
0.0158353
0.0322926
0.0406483
0.0466611
0.0516733
0.0561415
0.0602579
0.0641094
0.0677312
0.0711331
0.0743114
0.077255
0.0799499
0.0823855
0.0845582
0.0864731
0.0881419
0.0895793
0.0908004
0.0918177
0.0926374
0.0932734
0.0937478
0.0151986
0.0310231
0.0390934
0.0449027
0.0497404
0.0540476
0.0580115
0.0617179
0.0652031
0.0684775
0.0715377
0.0743728
0.0769701
0.0793194
0.0814163
0.0832641
0.0848719
0.086253
0.0874218
0.0883928
0.0891775
0.0897929
0.0902565
0.0145151
0.0296726
0.037449
0.0430547
0.0477215
0.0518721
0.0556885
0.0592558
0.0626116
0.0657676
0.0687217
0.0714642
0.0739833
0.076269
0.0783162
0.0801258
0.0817041
0.0830619
0.0842121
0.0851685
0.0859451
0.0865594
0.0870243
0.013801
0.0282677
0.0357491
0.0411567
0.0456609
0.0496638
0.0533412
0.0567767
0.0600092
0.0630527
0.065907
0.0685646
0.0710151
0.0732493
0.0752614
0.0770501
0.0786193
0.0799765
0.0811323
0.0820988
0.08289
0.0835224
0.0840049
0.0130684
0.0268361
0.0340264
0.0392469
0.0436013
0.0474701
0.051021
0.0543357
0.0574537
0.0603913
0.0631511
0.0657283
0.0681147
0.0703023
0.072285
0.0740605
0.07563
0.0769985
0.0781736
0.0791651
0.0799855
0.0806496
0.0811635
0.0123348
0.0254016
0.0323149
0.0373643
0.0415859
0.0453379
0.0487787
0.0519871
0.0550027
0.0578438
0.0605158
0.063017
0.0653419
0.0674841
0.0694383
0.0712014
0.0727731
0.0741559
0.0753549
0.0763774
0.0772339
0.0779371
0.0784907
0.0116143
0.0239952
0.0306534
0.0355519
0.0396608
0.0433154
0.0466647
0.0497836
0.0527113
0.0554675
0.0580604
0.0604912
0.0627573
0.0648545
0.0667786
0.0685267
0.0700976
0.0714922
0.0727135
0.0737664
0.0746595
0.0754032
0.076
0.0109228
0.0226562
0.0290871
0.0338582
0.0378756
0.0414528
0.0447291
0.0477754
0.05063
0.0533138
0.0558371
0.058204
0.0604148
0.0624676
0.0643598
0.0660892
0.0676545
0.0690558
0.0702944
0.0713735
0.0722998
0.0730823
0.0737212
0.0102787
0.0214291
0.0276675
0.0323364
0.0362832
0.0398011
0.0430208
0.0460093
0.0488039
0.0514264
0.0538889
0.0561983
0.0583573
0.0603666
0.0622254
0.0639327
0.0654877
0.06689
0.0681403
0.0692406
0.0701958
0.0710131
0.0716918
0.0097052
0.0203648
0.0264499
0.0310415
0.034936
0.0384093
0.0415847
0.0445261
0.0472701
0.0498393
0.0522477
0.0545043
0.0566144
0.058581
0.0604053
0.062088
0.0636288
0.0650279
0.0662855
0.0674027
0.0683836
0.0692331
0.0699493
0.00922839
0.0195128
0.0254867
0.0300241
0.0338808
0.0373194
0.0404576
0.0433574
0.0460553
0.048575
0.0509323
0.0531384
0.055201
0.0571252
0.0589144
0.0605708
0.0620955
0.0634892
0.0647522
0.0658853
0.0668912
0.0677726
0.0685271
0.0088726
0.0189134
0.0248195
0.0293232
0.0331525
0.0365611
0.0396637
0.0425219
0.0451731
0.0476426
0.0499482
0.0521033
0.0541177
0.0559989
0.0577524
0.0593822
0.060891
0.0622802
0.0635507
0.0647029
0.0657377
0.0666559
0.0674533
0.00865447
0.018589
0.0244716
0.0289602
0.032769
0.036148
0.0392118
0.0420235
0.0446227
0.047037
0.0492867
0.0513874
0.0533513
0.0551883
0.056906
0.0585105
0.0600062
0.061396
0.0626812
0.0638615
0.0649359
0.065902
0.0667534
0.008579
0.0185416
0.0244456
0.0289373
0.0327301
0.0360764
0.0390941
0.0418502
0.0443881
0.0467388
0.0489255
0.0509665
0.0528765
0.0546677
0.0563503
0.0579328
0.0594222
0.060823
0.0621372
0.0633632
0.0644969
0.0655312
0.0664553
0.00863834
0.0187547
0.0247271
0.0292403
0.03302
0.0363269
0.0392873
0.0419749
0.0444391
0.0467152
0.0488302
0.050805
0.0526572
0.0544015
0.0560512
0.0576182
0.0591129
0.0605425
0.0619098
0.063211
0.0644362
0.0655707
0.0665965
0.00881555
0.0192021
0.0252943
0.0298481
0.0336133
0.0368689
0.0397554
0.0423577
0.0447328
0.0469218
0.0489554
0.0508575
0.0526484
0.054346
0.0559674
0.0575294
0.0590476
0.060534
0.0619926
0.0634158
0.0647827
0.0660651
0.0672332
0.00909188
0.0198709
0.0261441
0.0307508
0.0344867
0.0376658
0.0404524
0.0429467
0.045215
0.0473036
0.0492467
0.0510707
0.0527985
0.0544515
0.0560521
0.0576243
0.0591927
0.0607776
0.062387
0.0640052
0.0655899
0.0670882
0.0684519
0.00947238
0.0208548
0.0273692
0.0319929
0.0356364
0.0386808
0.0413235
0.0436794
0.0458209
0.047797
0.0496428
0.051386
0.0530513
0.0546644
0.0562546
0.057857
0.0595116
0.061256
0.0631078
0.0650373
0.0669542
0.0687592
0.0703819
0.0101201
0.0227847
0.0294093
0.0337713
0.0371047
0.0398797
0.042303
0.0444808
0.0464762
0.0483314
0.0500779
0.0517418
0.0533489
0.0549292
0.0565212
0.0581769
0.0599627
0.061952
0.0641911
0.0666271
0.0690457
0.0712662
0.0732063
0.0123742
0.0285025
0.0336806
0.0365761
0.0389812
0.0412119
0.0433026
0.0452598
0.0470969
0.0488322
0.0504854
0.0520779
0.0536351
0.0551913
0.0567965
0.0585262
0.060491
0.0628374
0.0656976
0.0690022
0.072159
0.0748814
0.0771515
0.0264043
0.0453349
0.0426855
0.0409434
0.0412296
0.0425327
0.0441843
0.0459035
0.0475924
0.0492249
0.0508025
0.0523393
0.0538592
0.0554002
0.0570243
0.0588351
0.0610074
0.0638252
0.067663
0.0725775
0.076705
0.0798588
0.0823465
0.0849188
0.0836464
0.054987
0.0455937
0.0431411
0.0434674
0.044738
0.0462819
0.0478738
0.0494439
0.0509776
0.0524829
0.0539822
0.0555158
0.0571541
0.0590237
0.0613633
0.0646408
0.0697228
0.0774891
0.0824124
0.0855541
0.0879936
0.0350333
0.0297874
0.0305971
0.0362547
0.0622467
0.0622584
0.0630844
0.0642354
0.0753488
0.075551
0.0758391
0.0758645
0.0836352
0.0835136
0.0833119
0.0829528
0.0894895
0.0890568
0.0885459
0.0879549
0.094107
0.0934604
0.0927617
0.0920261
0.0981111
0.0973347
0.0965203
0.095685
0.101738
0.100882
0.100002
0.0991105
0.105113
0.104213
0.103308
0.102397
0.108359
0.107425
0.106518
0.105607
0.111289
0.110488
0.109731
0.108707
0.113172
0.112182
0.111212
0.110251
0.114466
0.113451
0.112401
0.111353
0.115127
0.114177
0.113153
0.112113
0.114522
0.113733
0.112851
0.111929
0.112544
0.111942
0.111239
0.110484
0.109434
0.109013
0.108489
0.107905
0.105642
0.105367
0.104994
0.10456
0.101603
0.101436
0.101179
0.100867
0.09763
0.0975365
0.097366
0.0971477
0.0938867
0.0938455
0.0937405
0.0935935
0.0904211
0.0904203
0.0903683
0.0902792
0.0872148
0.0872505
0.0872451
0.0872059
0.0842252
0.0842959
0.0843334
0.0843396
0.0814187
0.0815242
0.0816019
0.081649
0.0787832
0.0789217
0.0790358
0.0791203
0.0763301
0.0764996
0.076647
0.0767649
0.074087
0.0742844
0.0744609
0.0746089
0.0720908
0.0723135
0.0725161
0.0726904
0.0703797
0.0706256
0.0708517
0.0710507
0.0689894
0.0692583
0.069508
0.0697309
0.0679506
0.0682444
0.0685188
0.0687673
0.067293
0.0676158
0.0679191
0.068196
0.0670492
0.0674081
0.067746
0.0680574
0.0672623
0.0676673
0.0680491
0.0684022
0.0679942
0.0684582
0.0688945
0.0692984
0.0693363
0.0698739
0.0703764
0.0708399
0.0714195
0.0720454
0.0726247
0.0731547
0.0744227
0.0751487
0.0758117
0.0764104
0.0785653
0.0794059
0.0801596
0.0808233
0.0840301
0.0850976
0.0859841
0.086702
0.0903571
0.0927843
0.0939366
0.094585
0.0513475
0.0573953
0.0609068
0.0633404
0.0648463
0.0652
0.0643828
0.0625599
0.0600618
0.0571981
0.0540593
0.0506475
0.0470246
0.043184
0.0392041
0.0351122
0.0303985
0.023715
0.0122608
0.0661713
0.0675817
0.0688208
0.0698396
0.0703776
0.0700021
0.0685339
0.0662405
0.0634605
0.060405
0.0571156
0.0535715
0.0497631
0.0456805
0.0413427
0.0366209
0.0308945
0.0226224
0.0104383
0.0756082
0.0752331
0.0751665
0.075139
0.0748656
0.0739139
0.0719817
0.0692872
0.0662089
0.0629519
0.0595282
0.0558742
0.0519137
0.0475542
0.0427114
0.0372104
0.0305403
0.0215945
0.00985646
0.082132
0.0809936
0.0801342
0.0793854
0.0784775
0.0770148
0.0747296
0.0717662
0.0684357
0.0649689
0.0613963
0.0576421
0.0535964
0.0490966
0.0439395
0.0379416
0.0309141
0.0220396
0.00974954
0.0869069
0.0854339
0.084104
0.0828118
0.0813589
0.0794647
0.0769217
0.0737824
0.0702648
0.066586
0.0628156
0.0589078
0.0547585
0.0501864
0.0449277
0.0387311
0.031427
0.0225982
0.0100008
0.0908115
0.0891207
0.0874692
0.0857675
0.0838797
0.0816299
0.0788683
0.0755913
0.0719321
0.0680602
0.0640631
0.0599283
0.0555699
0.0508108
0.0453737
0.0390084
0.0314493
0.021961
0.0093075
0.0943334
0.0924507
0.0905502
0.0885459
0.086339
0.0838176
0.0808778
0.0774938
0.073736
0.0697229
0.0655437
0.0612131
0.0566443
0.0516406
0.0459024
0.039203
0.0312637
0.0213166
0.0093526
0.0976754
0.0956453
0.0935575
0.0913455
0.0889334
0.0862395
0.0831819
0.0797302
0.0759238
0.0718488
0.0675922
0.0632049
0.0586442
0.0536919
0.0479818
0.0412359
0.0331721
0.022972
0.0108584
0.100932
0.0988164
0.0966072
0.0942777
0.0917722
0.0890142
0.0859067
0.0824244
0.0786181
0.074571
0.0703872
0.0661288
0.0617873
0.0570888
0.0516023
0.0450183
0.0367299
0.0261022
0.0134148
0.104149
0.102034
0.0997576
0.0974052
0.0949321
0.0922368
0.0891091
0.0855413
0.0816846
0.0776397
0.0735933
0.0697576
0.065673
0.0607474
0.0548077
0.0480818
0.0401795
0.0306454
0.0160307
0.106979
0.104574
0.102164
0.0997403
0.0972646
0.0946988
0.0918651
0.0885439
0.0847178
0.0806328
0.0766207
0.0727817
0.0686678
0.0636034
0.0578026
0.0514517
0.0441929
0.0349619
0.0178213
0.108569
0.106074
0.103622
0.101151
0.0986264
0.0960807
0.0934926
0.090651
0.0873419
0.0834188
0.0792919
0.0750528
0.0705216
0.0655959
0.0602205
0.0542194
0.0471493
0.0375262
0.0189101
0.109681
0.10743
0.105154
0.102753
0.100181
0.0974549
0.0946881
0.0919091
0.0889513
0.0855225
0.0814647
0.0768681
0.0720983
0.067192
0.0620134
0.0561474
0.0489716
0.0389615
0.0195954
0.110484
0.10836
0.10619
0.103843
0.101225
0.0983532
0.0954228
0.0926026
0.0897511
0.0865181
0.0825708
0.0779786
0.0731596
0.0682551
0.0630647
0.0571609
0.0499601
0.0398369
0.0200957
0.110441
0.108423
0.106311
0.103979
0.101338
0.0984304
0.0954545
0.0925877
0.0897085
0.0865132
0.0826797
0.0782604
0.073574
0.0687118
0.0635163
0.0576317
0.0504743
0.0403847
0.0204611
0.109226
0.107383
0.105345
0.103057
0.10047
0.0976388
0.0947231
0.091843
0.0889251
0.0857296
0.0820424
0.0778823
0.0734139
0.0686854
0.0635643
0.0577606
0.0506977
0.0406691
0.0206464
0.106894
0.105284
0.103388
0.10122
0.0987758
0.096111
0.0933344
0.0905216
0.0876193
0.0844777
0.0809588
0.077059
0.0728408
0.0682991
0.0633105
0.0576204
0.0506532
0.0406931
0.0206436
0.103771
0.102414
0.100723
0.0987464
0.0965106
0.0940668
0.0914866
0.0888106
0.0860048
0.0829771
0.0796419
0.0759814
0.0719976
0.0676486
0.0628117
0.0572359
0.0503506
0.0404494
0.0204481
0.100261
0.0991383
0.0976753
0.0959275
0.0939333
0.0917356
0.0893806
0.0868873
0.0842319
0.0813586
0.0782127
0.0747627
0.0709786
0.0667976
0.0620917
0.0566106
0.0497906
0.0399518
0.0200837
0.0966849
0.0957574
0.0945127
0.0929983
0.0912498
0.0892992
0.0871721
0.0848764
0.082394
0.0796874
0.0767158
0.0734415
0.0698187
0.065772
0.061169
0.0557606
0.048994
0.0392293
0.0195865
0.0932365
0.0924653
0.0914137
0.0901142
0.0885918
0.0868665
0.0849506
0.0828441
0.0805309
0.0779818
0.0751615
0.0720295
0.0685323
0.0645883
0.0600631
0.0547108
0.0479951
0.0383259
0.0189921
0.0900053
0.0893556
0.0884656
0.0873509
0.0860234
0.084492
0.0827595
0.0808199
0.0786569
0.0762445
0.0735497
0.0705305
0.0671299
0.0632644
0.0588
0.0534977
0.0468396
0.0372918
0.0183423
0.0870009
0.0864486
0.0856916
0.0847303
0.0835644
0.0821936
0.0806134
0.0788135
0.0767764
0.0744774
0.071884
0.0689539
0.0656295
0.0618274
0.0574171
0.0521673
0.045582
0.036185
0.017675
0.0841978
0.0837287
0.0830824
0.0822474
0.0812136
0.0799735
0.0785172
0.0768314
0.0748976
0.0726911
0.0701801
0.0673227
0.0640623
0.0603174
0.055962
0.0507752
0.0442814
0.0350614
0.0170252
0.0815667
0.0811743
0.0806234
0.0798939
0.078969
0.0778357
0.0764807
0.0748885
0.0730399
0.0709104
0.068469
0.065675
0.0624732
0.0587856
0.0544918
0.0493805
0.0429973
0.0339751
0.0164205
0.0790963
0.0787774
0.0783114
0.0776727
0.0768395
0.0757958
0.0745259
0.0730129
0.0712374
0.0691753
0.0667965
0.0640617
0.0609183
0.0572916
0.0530673
0.048044
0.041785
0.0329697
0.0158794
0.0767957
0.0765487
0.0761607
0.0756025
0.0748496
0.073884
0.0726886
0.0712461
0.0695369
0.0675375
0.0652188
0.062543
0.05946
0.0558989
0.0517506
0.0468224
0.0406937
0.0320828
0.0154148
0.0746924
0.074516
0.0742011
0.0737167
0.0730369
0.0721425
0.071016
0.0696397
0.0679941
0.0660565
0.0637984
0.0611835
0.0581637
0.0546711
0.0506014
0.0457693
0.0397659
0.031341
0.0150309
0.0728238
0.0727175
0.072473
0.0720585
0.0714477
0.0706211
0.0695612
0.0682502
0.0666688
0.0647945
0.0625995
0.0600484
0.0570941
0.0536708
0.0496775
0.0449336
0.03904
0.0307689
0.0147334
0.0712328
0.0711967
0.0710212
0.0706749
0.0701317
0.0693723
0.0683793
0.0671351
0.0656206
0.0638133
0.0616855
0.0592015
0.0563146
0.0529591
0.0490351
0.0443649
0.0385541
0.030389
0.0145245
0.0699611
0.0699967
0.069891
0.0696132
0.0691382
0.0684473
0.0675236
0.0663499
0.064907
0.0631722
0.061117
0.058705
0.0558877
0.0525977
0.0487335
0.0441161
0.0383521
0.0302327
0.0144169
0.0690482
0.0691596
0.0691262
0.0689191
0.0685147
0.0678954
0.0670451
0.0659471
0.0645824
0.0629277
0.0609533
0.0586205
0.0558774
0.0526523
0.0488381
0.0442505
0.0384901
0.0303418
0.0144246
0.0685332
0.0687269
0.0687706
0.0686379
0.0683076
0.0677639
0.0669923
0.0659769
0.0646992
0.063135
0.061253
0.0590109
0.0563518
0.0531961
0.0494266
0.0448466
0.039043
0.0307793
0.0145799
0.0684592
0.0687439
0.0688703
0.0688162
0.0685639
0.0681006
0.0674139
0.0664896
0.0653098
0.0638498
0.0620763
0.059943
0.0573854
0.0543132
0.0505927
0.046006
0.0401121
0.0316315
0.0149197
0.0688791
0.069264
0.0694786
0.0695065
0.0693354
0.0689567
0.0683614
0.0675377
0.0664688
0.0651303
0.0634871
0.0614883
0.0590613
0.0561012
0.0524513
0.0478589
0.0418352
0.0330232
0.0155076
0.069862
0.0703553
0.0706606
0.0707711
0.0706818
0.0703902
0.0698919
0.0691784
0.0682351
0.0670385
0.0655526
0.0637233
0.0614697
0.0586705
0.0551392
0.0505724
0.0443999
0.0351299
0.0164247
0.0715008
0.0721052
0.072498
0.0726857
0.0726742
0.0724689
0.0720711
0.0714765
0.0706735
0.0696408
0.0683435
0.0667264
0.0647034
0.0621386
0.0588124
0.0543536
0.0480644
0.0382183
0.0178199
0.0739182
0.0746263
0.075092
0.0753424
0.0753976
0.0752728
0.0749753
0.0745054
0.0738553
0.0730073
0.0719303
0.0705724
0.0688484
0.0666161
0.0636299
0.0594442
0.0531792
0.0427069
0.0199601
0.0772721
0.0780576
0.078565
0.0788504
0.0789524
0.0788955
0.0786928
0.0783488
0.0778594
0.0772119
0.0763817
0.0753257
0.0739699
0.0721827
0.0697182
0.0660832
0.0601978
0.0493006
0.0234597
0.0817612
0.0825653
0.083058
0.0833354
0.0834541
0.0834458
0.0833264
0.0831027
0.0827739
0.0823326
0.081763
0.0810359
0.0800993
0.0788561
0.0771082
0.0744078
0.0696018
0.0591891
0.0298942
0.0876435
0.0883401
0.0887267
0.0889374
0.0890353
0.0890502
0.0889962
0.0888793
0.0887005
0.0884571
0.088142
0.0877418
0.0872328
0.0865698
0.0856552
0.0842397
0.0815211
0.0741142
0.0443572
0.0952295
0.0955699
0.0957264
0.0958061
0.0958443
0.0958544
0.0958422
0.0958099
0.0957585
0.0956879
0.0955972
0.0954849
0.0953491
0.0951879
0.095002
0.0947991
0.0945899
0.0941167
0.0873156
)
;

boundaryField
{
    leftWall
    {
        type            kqRWallFunction;
        value           nonuniform List<scalar> 
50
(
0.00113563
0.00266656
0.00369505
0.00453327
0.00521481
0.00578681
0.00630705
0.00685225
0.00755681
0.00876921
0.00929055
0.00937107
0.010033
0.0121098
0.0146465
0.0169168
0.0184588
0.0161928
0.0147001
0.0156907
0.0163132
0.016965
0.0174062
0.0175844
0.0175318
0.017292
0.0169058
0.0164103
0.0158353
0.0151986
0.0145151
0.013801
0.0130684
0.0123348
0.0116143
0.0109228
0.0102787
0.0097052
0.00922839
0.0088726
0.00865447
0.008579
0.00863834
0.00881555
0.00909188
0.00947238
0.0101201
0.0123742
0.0264043
0.0849188
)
;
    }
    rightWall
    {
        type            kqRWallFunction;
        value           nonuniform List<scalar> 
50
(
0.0020429
0.00466365
0.00617673
0.00748343
0.00870869
0.00994526
0.0113219
0.0125304
0.0122608
0.0104383
0.00985646
0.00974954
0.0100008
0.0093075
0.0093526
0.0108584
0.0134148
0.0160307
0.0178213
0.0189101
0.0195954
0.0200957
0.0204611
0.0206464
0.0206436
0.0204481
0.0200837
0.0195865
0.0189921
0.0183423
0.017675
0.0170252
0.0164205
0.0158794
0.0154148
0.0150309
0.0147334
0.0145245
0.0144169
0.0144246
0.0145799
0.0149197
0.0155076
0.0164247
0.0178199
0.0199601
0.0234597
0.0298942
0.0443572
0.0873156
)
;
    }
    lowerWall
    {
        type            kqRWallFunction;
        value           nonuniform List<scalar> 
62
(
0.00113563
0.00262826
0.00381816
0.00483943
0.00575468
0.00659682
0.00738432
0.00813715
0.00889013
0.0096266
0.0103297
0.0109956
0.0116127
0.0121559
0.0125866
0.0128611
0.0129341
0.0127481
0.0122171
0.0111988
0.00945115
0.00657708
0.00195907
0.00195907
0.00521036
0.00771348
0.0101129
0.0126086
0.0156428
0.0201418
0.0288747
0.0350333
0.0297874
0.0305971
0.0362547
0.00183526
0.00545542
0.00828456
0.0108866
0.0134645
0.017026
0.0232674
0.0343161
0.00183526
0.00662904
0.00997103
0.0123296
0.013728
0.0145773
0.0147115
0.0144119
0.0138308
0.0132048
0.0125152
0.0115783
0.0101747
0.00897652
0.00815003
0.00714892
0.00599002
0.00453795
0.0020429
)
;
    }
    atmosphere
    {
        type            inletOutlet;
        inletValue      uniform 0.1;
        value           nonuniform List<scalar> 
46
(
0.1
0.1
0.054987
0.0455937
0.0431411
0.0434674
0.044738
0.0462819
0.0478738
0.0494439
0.0509776
0.0524829
0.0539822
0.0555158
0.0571541
0.0590237
0.0613633
0.0646408
0.0697228
0.0774891
0.0824124
0.0855541
0.0879936
0.0903571
0.1
0.1
0.1
0.1
0.1
0.1
0.1
0.1
0.1
0.1
0.1
0.1
0.1
0.1
0.1
0.1
0.1
0.1
0.1
0.1
0.1
0.1
)
;
    }
    defaultFaces
    {
        type            empty;
    }
}


// ************************************************************************* //
