/*--------------------------------*- C++ -*----------------------------------*\
  =========                 |
  \\      /  F ield         | OpenFOAM: The Open Source CFD Toolbox
   \\    /   O peration     | Website:  https://openfoam.org
    \\  /    A nd           | Version:  13
     \\/     M anipulation  |
\*---------------------------------------------------------------------------*/
FoamFile
{
    format      ascii;
    class       volScalarField;
    location    "2.2";
    object      nut;
}
// * * * * * * * * * * * * * * * * * * * * * * * * * * * * * * * * * * * * * //

dimensions      [0 2 -1 0 0 0 0];

internalField   nonuniform List<scalar> 
2268
(
2.26217e-05
3.4445e-05
4.16181e-05
4.6754e-05
5.07796e-05
5.41254e-05
5.70253e-05
5.96265e-05
6.2148e-05
6.46619e-05
6.70195e-05
6.92041e-05
7.11907e-05
7.29133e-05
7.42662e-05
7.51325e-05
7.53947e-05
7.48961e-05
7.33721e-05
7.03206e-05
6.46912e-05
5.41006e-05
2.95282e-05
7.29655e-05
0.000269936
0.000371474
0.000433645
0.000478092
0.000513438
0.000543939
0.000571957
0.000598743
0.000625022
0.000651151
0.000676718
0.000701144
0.000723116
0.000740649
0.000751921
0.00075558
0.000749866
0.000731453
0.000693287
0.000619071
0.000468552
0.000102311
8.55958e-05
0.000433208
0.000654408
0.000798147
0.000902836
0.000986756
0.00105943
0.00112643
0.00119111
0.00125474
0.00131725
0.0013774
0.0014334
0.0014822
0.00151962
0.00154171
0.00154493
0.00152447
0.00147141
0.00136759
0.00117454
0.000810328
0.000124568
9.46311e-05
0.000544368
0.000867491
0.00108881
0.00125444
0.00138969
0.00150837
0.00161849
0.00172486
0.00182905
0.00193009
0.0020255
0.00211208
0.00218519
0.00223895
0.00226753
0.00226515
0.00222354
0.00212776
0.00194846
0.0016279
0.00105819
0.000142569
0.000101446
0.000628077
0.00103807
0.00132995
0.00155347
0.0017391
0.00190406
0.00205805
0.00220665
0.00235126
0.00248967
0.00261792
0.00273139
0.00282425
0.00288951
0.00291997
0.0029079
0.00284195
0.00270182
0.00244865
0.0020086
0.00125571
0.000159125
0.000106947
0.000696461
0.00118223
0.00153787
0.00181553
0.0020496
0.0022599
0.00245723
0.0026472
0.00283064
0.00300378
0.00316116
0.00329695
0.00340459
0.0034766
0.00350504
0.00348072
0.00339
0.00320863
0.00289051
0.00234761
0.00143218
0.000177046
0.000111892
0.000756828
0.00131063
0.00172368
0.00205151
0.00233166
0.00258579
0.00282515
0.00305487
0.00327469
0.00347907
0.00366127
0.00381464
0.00393237
0.00400709
0.00403067
0.00399311
0.00387948
0.00366337
0.0032945
0.002673
0.00161481
0.000200103
0.000116976
0.000812699
0.00143002
0.00189476
0.00226881
0.0025926
0.00288877
0.00316826
0.0034354
0.00368854
0.00392021
0.00412275
0.00428924
0.00441309
0.00448748
0.00450459
0.00445415
0.00432093
0.00407841
0.00367639
0.0030114
0.00185197
0.00023827
2.86207e-05
5.49896e-05
6.66225e-05
7.33193e-05
7.7004e-05
7.92071e-05
7.94271e-05
7.86814e-05
7.71489e-05
7.54114e-05
7.33062e-05
7.03606e-05
6.56729e-05
6.17208e-05
5.88953e-05
5.51984e-05
5.08336e-05
4.44502e-05
2.99121e-05
0.00011684
0.00050098
0.00065455
0.000732431
0.000772716
0.000786621
0.000789578
0.000773239
0.000755335
0.00073779
0.000712701
0.000674476
0.000598953
0.000542024
0.000521149
0.000487509
0.000427765
0.000323487
0.000105962
0.000143601
0.000855097
0.00123613
0.00143831
0.00153728
0.00157456
0.00157772
0.00155609
0.00150944
0.00145525
0.00139315
0.00130822
0.00118534
0.00107327
0.000994143
0.000899045
0.000756119
0.00050658
0.000122157
0.00016417
0.00109702
0.00169679
0.00202707
0.00219286
0.00225876
0.00226958
0.00224028
0.00216636
0.00207235
0.0019711
0.00184819
0.00169624
0.00153979
0.00140088
0.00124128
0.00101576
0.000632357
0.000134841
0.000183555
0.00126492
0.00206743
0.00251516
0.00274561
0.00284344
0.00286351
0.00282491
0.00272641
0.00259296
0.00245623
0.00230239
0.00212948
0.00194001
0.00174945
0.00153235
0.0012391
0.000767475
0.00014568
0.000208325
0.00139366
0.002382
0.00293318
0.00321659
0.00334235
0.00336974
0.00332004
0.00320197
0.00303752
0.00286938
0.00268302
0.00249234
0.00227835
0.00204586
0.00178164
0.00143466
0.000908119
0.000155805
0.000243987
0.00152865
0.00267647
0.00330655
0.0036266
0.00376964
0.00379932
0.00373881
0.00360405
0.00341842
0.00322479
0.00301227
0.00279428
0.00255945
0.0022944
0.00199019
0.00159452
0.000997268
0.000166303
0.000292143
0.00174978
0.00299244
0.00365471
0.00399079
0.00414
0.00416663
0.00409502
0.00394531
0.00374442
0.00352917
0.00329519
0.0030516
0.00279123
0.00249787
0.002156
0.00170896
0.00105277
0.000172855
0.000123192
0.000894792
0.00159757
0.00213321
0.00257466
0.00296553
0.00332775
0.00367038
0.0039943
0.0042942
0.00456239
0.00479055
0.00497196
0.00510109
0.00517222
0.00517818
0.0051093
0.00495132
0.00468041
0.00425422
0.00359824
0.00260182
0.00125098
0.000133215
0.00105676
0.00183233
0.00243153
0.00294497
0.00341325
0.0038521
0.00426427
0.00464509
0.00498998
0.00529082
0.00554005
0.00573194
0.00586238
0.00592773
0.00592252
0.00583925
0.00566767
0.00539185
0.00498647
0.00441614
0.00364658
0.00271155
0.000139187
0.00115148
0.00199144
0.00266252
0.0032564
0.00380598
0.00431899
0.00479261
0.00522063
0.00559635
0.00591551
0.00617402
0.00636875
0.00649794
0.00655929
0.00654883
0.00646162
0.00629265
0.00603461
0.00567803
0.00521612
0.00466349
0.00409724
0.000142644
0.00121691
0.00212406
0.00287858
0.00355845
0.00418536
0.00475992
0.0052777
0.00573486
0.00612804
0.00645538
0.00671619
0.00691023
0.00703775
0.00709756
0.00708721
0.00700507
0.00685095
0.00662509
0.00632986
0.00597634
0.00559736
0.0052656
0.00015111
0.00131093
0.00230171
0.00313958
0.00389316
0.00457708
0.00519015
0.00573071
0.00619958
0.00659701
0.00692443
0.00718341
0.00737538
0.00750195
0.00756332
0.00755877
0.00749023
0.00736173
0.00717859
0.0069501
0.00669413
0.006442
0.00624433
0.000170031
0.00147151
0.00255972
0.00346299
0.00426302
0.00497559
0.0056024
0.00614614
0.00661204
0.00700352
0.00732454
0.00757861
0.00776871
0.00789764
0.00796678
0.00797721
0.0079324
0.00783837
0.00770278
0.0075371
0.0073585
0.00719057
0.00706274
0.00018691
0.00163668
0.00283982
0.00380174
0.00462978
0.00535007
0.0059743
0.00651012
0.00696542
0.00734651
0.00765938
0.00790927
0.00810053
0.00823662
0.00831973
0.00835206
0.00833747
0.00828144
0.00819126
0.00807742
0.00795421
0.00783742
0.0077423
0.000196059
0.00175743
0.00309462
0.00411658
0.00496683
0.00568658
0.00630256
0.00682719
0.00726927
0.00763827
0.00794296
0.0081902
0.00838454
0.00852969
0.00862847
0.00868333
0.00869777
0.0086764
0.00862537
0.00855312
0.00846948
0.00838291
0.00830155
0.000211099
0.00173707
0.00326516
0.00438214
0.00526095
0.00597429
0.00658752
0.00710474
0.00753255
0.00788756
0.00818351
0.00842862
0.00862631
0.00877982
0.00889251
0.00896726
0.00900697
0.00901509
0.00899575
0.00895426
0.00889728
0.00882954
0.00875438
0.000195161
0.00136687
0.00310407
0.0043923
0.00536782
0.00616028
0.00681364
0.00733789
0.00775209
0.00809269
0.00838126
0.0086265
0.00882771
0.0089877
0.00911156
0.00920292
0.00926408
0.00929688
0.00930296
0.00928478
0.00924629
0.009191
0.00911979
0.000174322
0.00125183
0.00285816
0.00418818
0.0052545
0.00614716
0.00687862
0.00744526
0.00787772
0.00822912
0.00852815
0.00878106
0.00898751
0.00915275
0.00928601
0.00939199
0.009472
0.00952578
0.00955264
0.00955281
0.00952782
0.00947991
0.00941192
0.00017819
0.00139744
0.00282171
0.00405555
0.00511169
0.00602085
0.00678198
0.00738366
0.0078572
0.00824428
0.00857273
0.00884795
0.00907075
0.00925059
0.00939873
0.00951901
0.00961348
0.00968213
0.0097245
0.0097394
0.00972762
0.0096912
0.00963277
0.000178382
0.00145815
0.0028139
0.00399781
0.00502166
0.00590862
0.00665772
0.00726859
0.00776573
0.00817806
0.00853037
0.00883002
0.00907852
0.00928519
0.00945718
0.00959808
0.00971028
0.00979475
0.00985135
0.00988005
0.0098825
0.00985979
0.00981449
0.000181107
0.00147572
0.00282988
0.00399322
0.00498729
0.00584109
0.00656618
0.00717007
0.00767253
0.00809819
0.00846492
0.00877994
0.00904751
0.00927443
0.00946658
0.00962719
0.00975829
0.0098608
0.00993474
0.00998049
0.00999888
0.0099911
0.00995951
0.000183457
0.00149667
0.00286421
0.00401924
0.00499048
0.00581518
0.00651572
0.00710669
0.00760579
0.0080324
0.00840152
0.00872128
0.00899761
0.00923731
0.00944392
0.00962022
0.00976764
0.00988681
0.00997775
0.0100405
0.0100751
0.0100827
0.0100654
0.000184701
0.00151871
0.00290108
0.00405366
0.00500976
0.0058128
0.00649258
0.00706896
0.00755936
0.00798045
0.00834559
0.00866368
0.00894159
0.00918562
0.00939976
0.00958597
0.0097448
0.00987671
0.00998146
0.0100588
0.0101081
0.0101303
0.0101278
0.000184789
0.00153381
0.00292738
0.00407939
0.00502593
0.00581411
0.00647821
0.00704156
0.00752212
0.00793538
0.00829402
0.00860749
0.00888307
0.00912671
0.00934241
0.00953241
0.00969742
0.00983742
0.00995196
0.0100404
0.0101021
0.0101376
0.0101492
0.000183879
0.00153764
0.00293612
0.00408632
0.0050261
0.00580426
0.00645734
0.00701072
0.00748303
0.00788928
0.00824178
0.0085502
0.008822
0.00906291
0.00927697
0.00946672
0.00963343
0.00977723
0.00989766
0.009994
0.0100653
0.0101119
0.0101359
0.000182169
0.00153108
0.00292556
0.00407047
0.00500382
0.00577471
0.00642039
0.00696712
0.00743389
0.00783547
0.00818377
0.0084884
0.00875679
0.00899462
0.00920601
0.00939378
0.00955961
0.0097042
0.00982741
0.00992853
0.0100067
0.0100622
0.0100962
0.000179827
0.00151528
0.00289681
0.00403182
0.00495743
0.00572211
0.00636276
0.00690564
0.00736969
0.00776929
0.00811594
0.00841889
0.00868545
0.00892125
0.00913052
0.00931628
0.00948058
0.00962453
0.00974847
0.00985217
0.00993495
0.00999675
0.0100384
0.000176967
0.00149146
0.00285234
0.00397262
0.00488835
0.00564671
0.00628356
0.00682457
0.0072882
0.0076883
0.00803579
0.00833946
0.00860635
0.00884199
0.00905064
0.00923551
0.00939886
0.00954218
0.00966621
0.00977115
0.00985672
0.00992288
0.00996987
0.000173691
0.00146138
0.00279529
0.00389639
0.00479986
0.00555111
0.00618456
0.00672485
0.00718967
0.00759219
0.00794263
0.00824925
0.00851869
0.00875631
0.00896631
0.00915197
0.00931573
0.00945931
0.00958379
0.00968972
0.00977722
0.00984637
0.00989708
0.000170064
0.00142668
0.00272883
0.00380721
0.00469632
0.00543946
0.00606937
0.00660946
0.00707644
0.00748266
0.00783764
0.00814899
0.00842292
0.00866449
0.00887779
0.00906609
0.00923189
0.00937708
0.00950296
0.00961035
0.00969971
0.00977126
0.00982477
0.000166137
0.00138844
0.00265587
0.0037093
0.00458262
0.00531685
0.00594295
0.00648295
0.00695253
0.00736317
0.00772365
0.00804095
0.00832078
0.00856788
0.00878614
0.00897871
0.00914812
0.00929633
0.00942477
0.00953447
0.00962612
0.0097001
0.00975613
0.000161973
0.00134799
0.00257912
0.00360687
0.00446391
0.00518896
0.00581111
0.00635099
0.00682325
0.00723853
0.00760491
0.00792877
0.00821533
0.00846896
0.0086933
0.00889137
0.00906562
0.00921803
0.00935012
0.00946302
0.00955762
0.00963439
0.00969308
0.000157614
0.0013057
0.00250114
0.00350411
0.00434553
0.00506181
0.00568017
0.00621991
0.00669471
0.00711448
0.00748665
0.00781708
0.00811056
0.00837108
0.00860202
0.00880624
0.00898609
0.0091435
0.00928001
0.00939685
0.00949499
0.00957501
0.00963665
0.000153147
0.00126292
0.00242493
0.00340542
0.00423291
0.00494146
0.00555653
0.00609619
0.00657326
0.00699703
0.00737444
0.00771092
0.00801089
0.00827802
0.00851547
0.00872588
0.0089115
0.00907421
0.00921553
0.0093367
0.00943877
0.00952235
0.00958726
0.00014868
0.00122182
0.00235414
0.0033155
0.00413143
0.00483368
0.00544611
0.00598573
0.00646466
0.00689171
0.00727345
0.00761501
0.00792051
0.00819342
0.00843665
0.00865272
0.00884375
0.00901154
0.00915759
0.00928313
0.00938923
0.00947648
0.00954478
0.000144347
0.00118473
0.0022926
0.0032388
0.00404574
0.00474315
0.00535355
0.00589308
0.00637332
0.00680272
0.00718762
0.00753295
0.00784266
0.00812004
0.00836789
0.00858858
0.00878417
0.00895638
0.00910664
0.0092362
0.00934605
0.00943682
0.00950845
0.000140325
0.00115409
0.00224357
0.00317858
0.00397886
0.00467261
0.00528135
0.00582058
0.00630146
0.0067322
0.00711897
0.00746659
0.00777895
0.00805926
0.00831024
0.00853421
0.00873316
0.00890876
0.00906241
0.00919529
0.00930836
0.00940221
0.00947685
0.000136823
0.00113144
0.00220848
0.00313566
0.00393103
0.0046219
0.00522914
0.00576778
0.00624866
0.00667976
0.00706719
0.00741569
0.00772915
0.00801079
0.00826332
0.00848908
0.00869003
0.00886781
0.00902379
0.00915908
0.00927455
0.0093708
0.00944785
0.000134053
0.00111671
0.00218588
0.00310744
0.00389895
0.00458744
0.00519337
0.00573133
0.00621183
0.00664266
0.00702981
0.00737804
0.00769128
0.00797282
0.00822545
0.00845157
0.00865317
0.0088319
0.00898906
0.00912568
0.00924257
0.00934026
0.00941882
0.000132185
0.00110802
0.00217125
0.00308789
0.00387608
0.00456276
0.00516795
0.00570567
0.00618599
0.00661643
0.00700287
0.00735012
0.0076622
0.00794254
0.00819411
0.0084194
0.0086205
0.00879903
0.00895625
0.00909305
0.00921016
0.00930804
0.00938686
0.000131298
0.00110224
0.00215804
0.00306889
0.00385395
0.00453981
0.00514555
0.00568429
0.0061654
0.00659603
0.00698194
0.00732801
0.00763845
0.00791693
0.00816664
0.00839028
0.00858999
0.00876742
0.00892364
0.00905939
0.00917526
0.00927174
0.00934915
0.000131357
0.00109581
0.00213934
0.00304201
0.00382405
0.00451072
0.00511926
0.00566121
0.00614491
0.00657699
0.00696312
0.00730833
0.00761711
0.00789349
0.00814098
0.0083625
0.0085603
0.0087359
0.00889013
0.00902342
0.00913622
0.0092292
0.00930313
0.000132235
0.00108538
0.00210892
0.00299989
0.0037792
0.00446918
0.00508379
0.00563206
0.00612087
0.00655624
0.00694378
0.00728882
0.00759629
0.00787071
0.00811598
0.00833533
0.008531
0.00870424
0.00885537
0.00898437
0.00909168
0.00917855
0.00924658
0.000133774
0.00106811
0.0020616
0.00293663
0.00371416
0.00441111
0.00503612
0.00559462
0.00609159
0.0065324
0.0069228
0.00726859
0.00757535
0.00784821
0.00809161
0.00830901
0.00850258
0.00867295
0.00881955
0.00894173
0.00904031
0.00911803
0.00917791
0.000136021
0.00104379
0.00199462
0.00284879
0.00362637
0.00433519
0.00497589
0.00554901
0.00605734
0.00650577
0.00690044
0.00724793
0.00755466
0.00782655
0.00806861
0.00828453
0.00847612
0.00864294
0.00878296
0.00889469
0.0089805
0.00904636
0.0090971
0.000140381
0.00102636
0.00191543
0.00273983
0.00351845
0.00424425
0.00490597
0.0054978
0.00602021
0.00647797
0.00687802
0.00722797
0.00753531
0.00780683
0.00804816
0.00826313
0.00845283
0.00861512
0.00874558
0.00884184
0.00891074
0.00896425
0.00900797
0.000156749
0.00107998
0.00186508
0.00263125
0.00340314
0.0041475
0.00483344
0.00544625
0.00598399
0.00645172
0.00685752
0.00721031
0.00751868
0.00779034
0.00803149
0.00824593
0.00843368
0.00858992
0.00870636
0.00878006
0.00883089
0.00887724
0.00892124
0.000230179
0.0013491
0.00193923
0.00257109
0.00330667
0.00406219
0.00477016
0.00540234
0.00595392
0.00643047
0.00684136
0.00719674
0.00750622
0.00777827
0.00801954
0.00823365
0.00841909
0.00856677
0.0086614
0.00870025
0.00874348
0.00879684
0.00885308
0.000416669
0.00281719
0.00223546
0.00259625
0.00325797
0.00401048
0.00473133
0.00537579
0.00593604
0.00641805
0.00683209
0.00718911
0.00749934
0.00777172
0.00801314
0.00822693
0.00840979
0.00854626
0.0086067
0.00858548
0.00865275
0.00872918
0.00880702
0.000267755
0.000245367
0.000246198
0.000266215
0.00211205
0.00208009
0.00213171
0.00226223
0.00383563
0.00379919
0.00386451
0.0040004
0.00514938
0.00513722
0.00518122
0.00526644
0.00618349
0.00617541
0.00619504
0.00623585
0.00701648
0.00700185
0.00700038
0.0070088
0.00769513
0.00767141
0.00765291
0.00763793
0.00824898
0.00821699
0.00818576
0.00815441
0.00869602
0.00865818
0.00861898
0.00857776
0.00905664
0.00901516
0.00897168
0.00892498
0.00934743
0.00930609
0.00926295
0.00921238
0.00957385
0.00953047
0.00948379
0.00943348
0.00975819
0.00971555
0.00966874
0.00961814
0.00991134
0.00987211
0.00982778
0.00977959
0.0100264
0.00999287
0.00995372
0.00991057
0.0101001
0.0100735
0.0100411
0.0100045
0.0101331
0.010114
0.0100888
0.0100594
0.0101306
0.0101186
0.0101005
0.0100782
0.0100999
0.0100943
0.0100828
0.0100669
0.0100494
0.0100492
0.0100433
0.0100331
0.00998654
0.00999071
0.00998964
0.0099842
0.009918
0.00992564
0.00992842
0.00992685
0.00984896
0.00985936
0.00986522
0.00986674
0.00978302
0.00979567
0.00980404
0.00980809
0.00972245
0.00973705
0.00974756
0.00975373
0.00966846
0.00968486
0.00969727
0.00970531
0.00962155
0.00963966
0.00965384
0.00966361
0.00958155
0.00960131
0.00961714
0.00962853
0.00954761
0.00956893
0.00958629
0.00959918
0.00951818
0.00954089
0.00955961
0.00957386
0.00949097
0.00951481
0.00953466
0.00955003
0.00946312
0.00948772
0.00950832
0.00952447
0.00943149
0.00945629
0.00947712
0.00949357
0.00939294
0.00941724
0.00943765
0.0094538
0.00934469
0.00936767
0.00938692
0.00940214
0.00928449
0.00930537
0.00932283
0.00933663
0.00921117
0.00922951
0.00924495
0.00925726
0.00912584
0.00914198
0.00915585
0.00916727
0.00903434
0.00904968
0.00906332
0.00907502
0.00895007
0.00896719
0.00898247
0.00899571
0.00889321
0.00891677
0.00893627
0.00895145
0.0088759
0.00892596
0.00895447
0.00896852
0.00128898
0.00259487
0.00358386
0.00418519
0.00451021
0.00465128
0.00466415
0.00457469
0.00440569
0.00418407
0.00393878
0.00367369
0.00339332
0.00309155
0.00275211
0.00234918
0.00182293
0.00108488
0.000169371
0.0029528
0.00379892
0.00444257
0.00486731
0.00510737
0.00520388
0.00517999
0.00505737
0.00485698
0.00460299
0.00431901
0.00401321
0.00368688
0.00333215
0.0029299
0.00244536
0.00181956
0.000987477
0.000156203
0.00435061
0.00484557
0.00523618
0.0054951
0.00563431
0.00566699
0.00559402
0.00542878
0.00519047
0.00490013
0.00457716
0.00423053
0.00386051
0.00345792
0.00300237
0.00245758
0.00176909
0.000912427
0.00015234
0.00544907
0.00572138
0.00593274
0.00606076
0.00610484
0.00606478
0.00593564
0.00572303
0.00544149
0.00510991
0.00474471
0.00435479
0.00394121
0.00349662
0.00300456
0.00243869
0.00176792
0.000962437
0.000153125
0.00632292
0.00644896
0.00653434
0.00656059
0.00652174
0.00641295
0.00622768
0.00596721
0.00564185
0.0052671
0.00485712
0.00442062
0.00396004
0.00347111
0.00294319
0.00236203
0.00171718
0.000992169
0.00015787
0.00703046
0.00705768
0.00705288
0.00700086
0.00689392
0.00672578
0.00649032
0.00618688
0.00582221
0.00540817
0.00495659
0.0044756
0.0039686
0.00343398
0.00286633
0.00226172
0.00161745
0.0009145
0.000152295
0.00761454
0.0075724
0.00750206
0.00739111
0.00723153
0.00701691
0.00674193
0.00640522
0.00601107
0.00556819
0.0050863
0.0045733
0.00403259
0.00346311
0.00285893
0.0022179
0.00154185
0.000823261
0.000150757
0.00810047
0.00801044
0.00789377
0.00774079
0.00754407
0.00729765
0.00699677
0.00663987
0.00622981
0.00577311
0.00527772
0.00475186
0.00420003
0.00361872
0.00299554
0.00232197
0.00159827
0.000831396
0.000161539
0.0085056
0.00838471
0.00823746
0.00805734
0.00783823
0.00757481
0.00726246
0.00689942
0.006488
0.00603381
0.00554347
0.00502531
0.00448305
0.0039059
0.00327169
0.0025595
0.00174751
0.000874822
0.000178927
0.00884264
0.00870483
0.00853943
0.00834445
0.00811547
0.00784794
0.00753653
0.00717883
0.00677675
0.00633552
0.00586522
0.00537956
0.00485809
0.00427484
0.00359948
0.00282548
0.00195198
0.00102499
0.000195083
0.00912046
0.00896966
0.00879401
0.00859156
0.00835985
0.00809716
0.00780029
0.00746291
0.00708282
0.00666465
0.00622013
0.00575835
0.00525656
0.00468003
0.00400749
0.00323571
0.00234472
0.00130921
0.000205776
0.00934208
0.00918839
0.00901187
0.00881077
0.00858421
0.00833284
0.0080561
0.00774673
0.00739731
0.00700685
0.00658913
0.00614434
0.0056491
0.0050796
0.00441467
0.0036316
0.00268357
0.00149729
0.000212411
0.00952879
0.00938409
0.00921705
0.00902635
0.00881161
0.00857386
0.00831411
0.00802595
0.00770377
0.00734326
0.00694789
0.00651228
0.00602127
0.00545182
0.00477935
0.00396315
0.00293421
0.00160777
0.000216607
0.00969517
0.00956101
0.00940613
0.00922862
0.00902774
0.00880437
0.00855969
0.00828897
0.00798687
0.00764766
0.00726766
0.00684056
0.00635225
0.00577894
0.00508775
0.004228
0.00312273
0.00168888
0.00021946
0.00983462
0.0097127
0.0095705
0.00940622
0.00921916
0.00901026
0.00877883
0.00852208
0.0082341
0.00790849
0.00753876
0.00711733
0.0066292
0.00604785
0.00533557
0.00443534
0.00326614
0.00175148
0.000221165
0.00993946
0.00983143
0.00970204
0.00955071
0.009377
0.0091807
0.00896115
0.00871531
0.00843737
0.00812042
0.00775741
0.00733907
0.00684846
0.00625772
0.00552594
0.0045929
0.00337601
0.00179906
0.000222058
0.010006
0.00991269
0.00979643
0.00965758
0.00949597
0.00931119
0.00910198
0.0088649
0.0085943
0.00828345
0.00792454
0.00750713
0.00701316
0.00641391
0.00566625
0.004709
0.00345739
0.00183548
0.000222374
0.0100359
0.00995687
0.00985351
0.0097267
0.00957645
0.00940205
0.0092017
0.00897183
0.00870706
0.00840075
0.00804447
0.00762698
0.00712968
0.00652353
0.00576525
0.00479181
0.00351677
0.00186225
0.000221707
0.0100348
0.00996871
0.00987745
0.00976189
0.00962201
0.00945676
0.00926411
0.00904042
0.00878053
0.00847786
0.00812386
0.00770631
0.00720632
0.00659506
0.00582931
0.00484546
0.00355572
0.00187966
0.000220137
0.0100098
0.00995474
0.00987416
0.00976869
0.0096381
0.00948107
0.00929526
0.00907704
0.00882142
0.00852185
0.00816949
0.00775174
0.00724966
0.00663468
0.00586393
0.00487394
0.00357621
0.00188806
0.000217852
0.00996812
0.009922
0.0098505
0.0097538
0.00963133
0.00948148
0.00930169
0.00908831
0.00883638
0.00853932
0.00818814
0.00777003
0.00726612
0.00664823
0.0058741
0.00488086
0.00358021
0.00188809
0.000214982
0.00991653
0.00987741
0.00981333
0.00972402
0.00960845
0.00946475
0.00929015
0.00908092
0.00883205
0.0085369
0.00818635
0.00776754
0.00726173
0.00664119
0.00586443
0.00486971
0.00356972
0.00188037
0.00021174
0.00986093
0.00982718
0.00976903
0.00968575
0.00957589
0.0094373
0.00926703
0.00906119
0.00881468
0.00852075
0.00817021
0.00775017
0.00724207
0.00661867
0.00583941
0.00484399
0.00354708
0.001866
0.000208279
0.0098059
0.00977633
0.0097229
0.00964447
0.00953924
0.00940479
0.00923797
0.00903472
0.00878982
0.00849641
0.00814521
0.00772331
0.00721235
0.00658561
0.00580351
0.00480754
0.00351502
0.0018463
0.000204807
0.00975459
0.0097285
0.00967893
0.00960445
0.00950294
0.00937177
0.0092076
0.00900622
0.00876226
0.00846872
0.00811623
0.00769189
0.0071775
0.00654681
0.00576132
0.00476444
0.00347685
0.00182313
0.000201456
0.00970895
0.00968602
0.00963978
0.0095686
0.00947015
0.00934162
0.00917951
0.00897944
0.00873592
0.00844181
0.00808762
0.00766042
0.00714214
0.00650698
0.00571748
0.00471913
0.00343625
0.00179856
0.000198382
0.00966987
0.00965002
0.00960687
0.00953865
0.00944287
0.0093166
0.00915619
0.00895717
0.00871388
0.00841905
0.00806304
0.00763287
0.00711053
0.00647062
0.00567665
0.00467612
0.00339721
0.00177499
0.000195672
0.00963736
0.00962066
0.00958052
0.00951513
0.00942189
0.00929777
0.00913906
0.00894115
0.00869825
0.00840294
0.00804542
0.00761258
0.00708642
0.00644184
0.0056432
0.00463992
0.00336367
0.00175466
0.000193418
0.0096105
0.00959703
0.00955996
0.00949744
0.00940682
0.00928503
0.00912831
0.00893194
0.00869003
0.00839495
0.00803673
0.00760204
0.00707283
0.00642414
0.00562103
0.00461449
0.00333925
0.00173968
0.000191679
0.0095875
0.00957727
0.00954333
0.00948381
0.00939607
0.00927704
0.00912291
0.00892891
0.008689
0.00839538
0.0080378
0.00760268
0.00707175
0.00642006
0.00561309
0.00460305
0.00332682
0.00173169
0.000190532
0.00956568
0.00955856
0.00952773
0.00947138
0.00938692
0.00927127
0.00912063
0.00893018
0.00869376
0.00840332
0.00804832
0.00761479
0.00708406
0.00643099
0.00562119
0.00460752
0.00332824
0.00173191
0.000190069
0.00954163
0.00953727
0.00950946
0.00945645
0.00937572
0.00926426
0.00911828
0.00893294
0.00870193
0.00841694
0.00806703
0.00763768
0.00710964
0.00645721
0.0056458
0.00462852
0.00334406
0.00174087
0.000190417
0.00951157
0.00950941
0.0094844
0.00943489
0.00935845
0.00925217
0.0091123
0.00893397
0.00871072
0.00843398
0.00809226
0.00767031
0.00714793
0.00649848
0.00568666
0.00466543
0.00337363
0.00175858
0.000191756
0.00947178
0.00947115
0.0094487
0.00940291
0.00933148
0.00923157
0.00909952
0.00893046
0.00871781
0.00845268
0.00812294
0.00771232
0.00719921
0.00655533
0.00574402
0.00471772
0.00341568
0.00178446
0.000194303
0.00941925
0.00941953
0.00939958
0.00935795
0.00929244
0.00920035
0.00907813
0.00892097
0.00872225
0.00847273
0.00815959
0.00776525
0.00726605
0.00663109
0.00582108
0.00478721
0.00347013
0.00181816
0.000198375
0.00935231
0.00935336
0.00933625
0.00929955
0.00924119
0.00915862
0.0090485
0.0089062
0.00872517
0.00849599
0.00820514
0.00783351
0.00735475
0.00673387
0.00592684
0.00488165
0.00354098
0.00186046
0.000204387
0.00927166
0.00927412
0.00926079
0.00923019
0.00918041
0.0091092
0.00901357
0.00888926
0.00873002
0.00852651
0.0082648
0.00792432
0.00747553
0.00687773
0.00607868
0.00501857
0.00364033
0.00191504
0.000213071
0.00918146
0.00918689
0.00917875
0.00915556
0.00911577
0.00905763
0.00897871
0.00887534
0.00874193
0.00856968
0.00834488
0.00804617
0.00764106
0.00708183
0.00630349
0.0052294
0.00379364
0.00199061
0.000225742
0.0090908
0.00910097
0.00909921
0.00908432
0.00905543
0.00901152
0.00895091
0.0088708
0.0087666
0.00863072
0.00845068
0.00820588
0.00786261
0.00736681
0.00663665
0.00556398
0.00404921
0.00210671
0.000245252
0.00901432
0.00902963
0.00903397
0.00902702
0.00900888
0.00897937
0.00893767
0.00888196
0.00880898
0.00871302
0.00858414
0.00840495
0.00814454
0.00774768
0.00711746
0.00609811
0.00450173
0.00231227
0.000278293
0.00897148
0.00898836
0.0089957
0.00899444
0.00898553
0.00896943
0.00894596
0.00891425
0.00887248
0.00881726
0.00874245
0.00863663
0.00847783
0.00822176
0.00777527
0.00694187
0.00536006
0.00275629
0.000343712
0.00898159
0.00899068
0.0089949
0.00899551
0.00899327
0.00898856
0.00898143
0.00897167
0.00895877
0.00894171
0.00891857
0.00888569
0.00883552
0.00875111
0.00858864
0.00821418
0.00715903
0.00410226
0.000470095
)
;

boundaryField
{
    leftWall
    {
        type            nutkWallFunction;
        Cmu             0.09;
        kappa           0.41;
        E               9.8;
        value           nonuniform List<scalar> 
50
(
2.56429e-06
7.50963e-06
8.71094e-06
9.55994e-06
1.01889e-05
1.06829e-05
1.11373e-05
1.23333e-05
1.45023e-05
1.55456e-05
1.59696e-05
1.6034e-05
1.65542e-05
1.80701e-05
1.9739e-05
2.12205e-05
1.91589e-05
1.71407e-05
1.58945e-05
1.67292e-05
1.72369e-05
1.77571e-05
1.81029e-05
1.82409e-05
1.81998e-05
1.80128e-05
1.77085e-05
1.73123e-05
1.68439e-05
1.63138e-05
1.57305e-05
1.5104e-05
1.44419e-05
1.37573e-05
1.30619e-05
1.2371e-05
1.17045e-05
1.10908e-05
1.05646e-05
1.01617e-05
9.91011e-06
9.82223e-06
9.89136e-06
1.00962e-05
1.0411e-05
1.08357e-05
1.15367e-05
1.37945e-05
2.42979e-05
4.90239e-05
)
;
    }
    rightWall
    {
        type            nutkWallFunction;
        Cmu             0.09;
        kappa           0.41;
        E               9.8;
        value           nonuniform List<scalar> 
50
(
3.38336e-06
1.07459e-05
1.22299e-05
1.34947e-05
1.45324e-05
1.60648e-05
1.82015e-05
2.02294e-05
2.00254e-05
1.85885e-05
1.80151e-05
1.78175e-05
1.80354e-05
1.76135e-05
1.76515e-05
1.89913e-05
1.74319e-05
1.98937e-05
2.14481e-05
2.235e-05
2.29025e-05
2.32991e-05
2.35845e-05
2.37272e-05
2.37249e-05
2.35729e-05
2.32875e-05
2.28932e-05
2.24144e-05
2.18812e-05
2.13223e-05
2.07663e-05
2.02381e-05
1.9756e-05
1.93345e-05
1.89807e-05
1.87029e-05
1.8506e-05
1.84039e-05
1.84111e-05
1.85582e-05
1.8877e-05
1.9419e-05
2.02416e-05
2.14445e-05
2.31899e-05
2.58287e-05
3.01509e-05
3.82376e-05
5.5811e-05
)
;
    }
    lowerWall
    {
        type            nutkWallFunction;
        Cmu             0.09;
        kappa           0.41;
        E               9.8;
        value           nonuniform List<scalar> 
62
(
2.56429e-06
3.76775e-06
4.46825e-06
4.97822e-06
5.38704e-06
5.73275e-06
6.03478e-06
6.30744e-06
6.56669e-06
6.80888e-06
7.03083e-06
7.23353e-06
7.41548e-06
7.57132e-06
7.6922e-06
7.76808e-06
7.78809e-06
7.73696e-06
7.58863e-06
7.29408e-06
6.7522e-06
5.72502e-06
3.29382e-06
3.29382e-06
1.0185e-05
1.21754e-05
1.37728e-05
1.52279e-05
1.74012e-05
2.27416e-05
2.69587e-05
2.90127e-05
2.62848e-05
2.65271e-05
2.86178e-05
3.20828e-06
1.16751e-05
1.51529e-05
1.7208e-05
1.93254e-05
2.1985e-05
2.65692e-05
3.18145e-05
3.20828e-06
5.76757e-06
6.94793e-06
7.6563e-06
8.03964e-06
8.2589e-06
8.28638e-06
8.2545e-06
8.12191e-06
7.95797e-06
7.76426e-06
7.49954e-06
7.07564e-06
6.68196e-06
6.39114e-06
6.00902e-06
5.54595e-06
4.87321e-06
3.38336e-06
)
;
    }
    atmosphere
    {
        type            calculated;
        value           nonuniform List<scalar> 
46
(
0.009
0.009
0.00223546
0.00259625
0.00325797
0.00401048
0.00473133
0.00537579
0.00593604
0.00641805
0.00683209
0.00718911
0.00749934
0.00777172
0.00801314
0.00822693
0.00840979
0.00854626
0.0086067
0.00858548
0.00865275
0.00872918
0.00880702
0.0088759
0.009
0.009
0.009
0.009
0.009
0.009
0.009
0.009
0.009
0.009
0.009
0.009
0.009
0.009
0.009
0.009
0.009
0.009
0.009
0.009
0.009
0.009
)
;
    }
    defaultFaces
    {
        type            empty;
    }
}


// ************************************************************************* //
