/*--------------------------------*- C++ -*----------------------------------*\
  =========                 |
  \\      /  F ield         | OpenFOAM: The Open Source CFD Toolbox
   \\    /   O peration     | Website:  https://openfoam.org
    \\  /    A nd           | Version:  13
     \\/     M anipulation  |
\*---------------------------------------------------------------------------*/
FoamFile
{
    format      ascii;
    class       volScalarField;
    location    "2.2";
    object      p_rgh;
}
// * * * * * * * * * * * * * * * * * * * * * * * * * * * * * * * * * * * * * //

dimensions      [1 -1 -2 0 0 0 0];

internalField   nonuniform List<scalar> 
2268
(
6639.64
6650.97
6653.85
6638.7
6602.97
6546.34
6470.3
6377.52
6271.43
6157
6038.53
5920.07
5805.58
5698.9
5602.94
5519.53
5449.6
5393.25
5349.9
5318.46
5297.66
5287.87
5286.9
6633.34
6645.35
6649.67
6634.89
6600.02
6544.73
6470.42
6379.59
6275.39
6162.14
6044.65
5926.77
5812.43
5705.58
5609.3
5525.51
5455.12
5398.1
5353.73
5321.03
5298.79
5288.88
5287.83
6626.74
6639.84
6646.08
6632.24
6598.65
6544.91
6472.51
6383.6
6280.99
6168.96
6052.32
5935.05
5820.73
5713.61
5616.88
5532.49
5461.37
5403.5
5358.02
5324
5300.43
5290.67
5287.06
6619.75
6636.53
6646.38
6634.55
6602.3
6549.45
6477.97
6390.01
6288.09
6176.5
6060.22
5942.63
5827.58
5719.68
5622.04
5536.56
5464.37
5405.55
5359.12
5324.17
5299.92
5290.11
5282.51
6610.97
6632.47
6646.93
6638.59
6608.59
6556.86
6486.05
6398.47
6296.41
6184.3
6067.02
5946.76
5827.77
5716.5
5615.85
5527.81
5454.11
5394.73
5348.14
5313.21
5289.49
5280.44
5272.61
6600.51
6627.37
6646.53
6642.9
6616.63
6567.19
6497.6
6409.38
6304.01
6185.95
6061.77
5848.61
5496.5
5117.13
4725.07
4342.63
4029.89
3795.56
3629.11
3520.63
3470.95
3499.74
3530.2
6387.19
6516.99
6605.7
6618.74
6565.1
6475.14
6311.76
5968.74
5388.32
4582.2
3638.32
2804.54
2216.48
1788.84
1523.55
1400.55
1328.68
1281.56
1248.7
1224.46
1206.25
1196.19
1196.32
3076.62
3486.84
3877.54
3962.6
3807.55
3352.66
2749.35
2158.53
1673.81
1372.83
1274.82
1273.73
1271.96
1267.27
1259.71
1249.55
1237.65
1224.32
1209.91
1194.91
1180.23
1169.56
1168.2
2512.07
2505.73
2482.49
2450.64
2432.39
2444.75
2465.24
2436.58
2474.43
2559.87
2665.37
2750.36
2800.34
2889.53
3036.13
3170.37
3254.45
3303.26
3319.15
2264.67
2268.23
2254.04
2195.69
2170.81
2264.17
2322.03
2487.51
2625.95
2713.12
2812.32
2907.99
2912.07
3004.86
3098.75
3181.91
3256.94
3302.66
3318.5
1690.02
1642.1
1575.46
1544.8
1599.04
1498.44
1544
1687.25
1875.53
2211.71
2522.82
2715.59
2892.64
3006.75
3100.69
3181.52
3256.9
3311.02
3257.41
1744.38
1761.24
1625.66
1622.64
1423.22
1292.12
1213.32
1179.69
1169.15
1134.18
1174.96
1590.33
1922.8
1947.68
2210.25
2519.8
2684.54
2873.87
2808.45
1643.78
1672.58
1672.51
1654.48
1466.43
1307.22
1283.57
1292.92
1256.67
1117.29
1083.4
924.292
1415.37
1727.6
1755.74
1663.06
1886.82
1895.35
2456.7
1454.64
1443.42
1476.91
1338.71
1453.55
1441.38
1375.22
1444.99
1348.41
1110.74
1094.85
987.219
830.264
1172.71
1337.2
1479.09
1577.07
1653.96
1341.89
1121.03
1089.81
1130.78
1172.13
1271.77
1429.82
1457.55
1130.83
1089.92
1095.5
1092.01
1080.16
927.216
822.191
842.869
975.606
989.055
956.494
1013.43
1111.12
1064.87
1096.66
1061.35
1073.88
1196.08
1039.77
1079.71
1082.85
1090.57
1090.03
1091.59
1083.17
1026.53
1013.11
1048.07
1065.64
1067.18
943.245
1225.46
1223.09
1217.87
1215.47
1217.8
1225.27
1235.85
1246.94
1255.16
1260.59
1263.27
1264.12
1263.02
1259.48
1253.2
1244.35
1233.42
1220.83
1207.07
1192.56
1178.38
1167.37
1161.23
1227.15
1225.26
1223.93
1223.94
1226.42
1231.56
1238.57
1245.93
1253.32
1258.65
1261.63
1262.29
1260.61
1256.48
1250.02
1241.37
1230.9
1218.91
1206.02
1182.07
1161.44
1140.65
1135.74
1228.95
1226.7
1225.82
1226.8
1230.52
1236.12
1242.77
1249.39
1255.44
1259.88
1262.19
1262.17
1259.59
1254.82
1243.19
1224.36
1206.21
1169.4
1104.77
1065.87
959.678
912.412
851.954
1225.2
1220.94
1221.63
1228.04
1234.11
1241.44
1248.59
1254.15
1259.25
1257.3
1250.14
1236.08
1205.4
1147.44
1092.32
1026.41
942.119
859.599
788.895
772.71
793.144
768.946
726.957
1055.26
1058.38
1063.03
1050.23
1048.39
1055.45
1105.58
1082.87
1056.14
1025.83
969.035
922.17
853.015
772.475
729.583
742.339
724.6
732.001
796.887
801.963
799.933
772.631
760.171
695.436
696.495
703.859
713.159
724.629
736.765
745.61
716.665
722.121
733.195
723.117
714.276
721.663
760.937
788.552
790.995
787.344
793.946
804.429
803.015
800.329
798.291
797.393
524.065
561.7
626.899
674.229
708.282
724.883
735.873
746.892
757.244
767.605
777.545
785.979
792.668
797.744
801.694
804.534
806.157
806.236
805.037
803.404
801.642
799.395
796.157
178.171
126.368
130.291
209.37
332.013
476.92
605.304
705.502
759.877
774.031
784.271
791.94
797.058
800.925
804.159
806.244
806.993
806.459
804.856
802.857
800.863
798.493
795.123
6.23523
6.1792
6.2309
6.14764
6.59419
22.7897
72.3799
150.004
260.551
417.559
589.507
729.443
787.796
795.566
796.871
801.361
804.268
803.675
800.221
791.975
787.401
785.113
780.668
6.08387
6.02036
5.982
5.99416
6.02218
5.90827
5.83333
5.70281
5.58577
7.2444
24.2711
58.4641
104.329
169.442
257.576
330.335
355.449
356.767
322.855
249.282
217.486
198.993
97.747
6.03023
6.00193
5.9897
6.00703
6.01496
5.85984
5.72361
5.63324
5.55558
5.50167
5.43758
5.31187
5.14382
4.99674
4.87557
4.75001
4.62305
4.49429
4.35864
4.2477
4.13612
3.96854
3.76274
5.97701
5.99122
5.98297
5.96822
5.90773
5.8339
5.74274
5.65908
5.57461
5.48736
5.39294
5.28932
5.18207
5.07993
4.98243
4.88454
4.78305
4.67484
4.55783
4.43769
4.31405
4.18086
4.03109
5.9755
5.97698
5.95982
5.92452
5.87683
5.81846
5.75384
5.69652
5.68106
5.64304
5.48395
5.31199
5.20421
5.09883
4.99415
4.88923
4.78127
4.66823
4.55009
4.43002
4.31078
4.2021
4.09241
5.95258
5.94952
5.93457
5.90558
5.86395
5.81186
5.75134
5.71033
5.78169
5.69652
5.60624
5.4503
5.23037
5.12172
5.01555
4.90825
4.79787
4.68307
4.56516
4.44816
4.33542
4.23754
4.14519
5.92682
5.92305
5.91064
5.88587
5.84886
5.80112
5.74446
5.68932
5.75973
5.71203
5.62652
5.45837
5.25206
5.14953
5.04572
4.94115
4.83205
4.71756
4.60183
4.48799
4.3806
4.29065
4.20549
5.90508
5.90108
5.89016
5.86837
5.83516
5.79148
5.73855
5.67756
5.61961
5.61832
5.52765
5.37595
5.27191
5.17648
5.07768
4.97596
4.86952
4.75732
4.64522
4.53538
4.4329
4.34851
4.26837
5.88718
5.88305
5.87307
5.85347
5.82342
5.78338
5.73412
5.67618
5.61016
5.53645
5.45759
5.37548
5.2911
5.20174
5.10592
5.00606
4.90338
4.79749
4.69012
4.58463
4.48682
4.40682
4.32961
5.8723
5.86805
5.85884
5.84098
5.81357
5.77677
5.73108
5.67692
5.6149
5.54605
5.47178
5.39367
5.31192
5.22468
5.13268
5.03793
4.94015
4.83933
4.73626
4.63518
4.54172
4.46547
4.39008
5.85992
5.85541
5.84698
5.83061
5.80548
5.77158
5.72928
5.679
5.62132
5.55715
5.4875
5.41337
5.33445
5.25099
5.16375
5.07367
4.98034
4.88352
4.78454
4.68751
4.59782
4.52452
4.45227
5.84917
5.84485
5.83706
5.82201
5.7989
5.76766
5.72855
5.68197
5.62842
5.56859
5.50321
5.43309
5.35825
5.27919
5.19675
5.11111
5.02204
4.92944
4.83465
4.74175
4.65577
4.58527
4.51715
5.8398
5.83582
5.82863
5.81482
5.79357
5.7648
5.72869
5.68559
5.63592
5.58023
5.51908
5.45303
5.38257
5.30822
5.23038
5.14921
5.06458
4.97644
4.88611
4.79741
4.71531
4.64797
4.58298
5.83146
5.8279
5.82136
5.80871
5.78922
5.76276
5.72948
5.68967
5.64369
5.59197
5.535
5.47325
5.40724
5.33742
5.26415
5.18756
5.10754
5.02406
4.93836
4.85416
4.77608
4.71187
4.65028
5.82396
5.82089
5.81496
5.80343
5.7856
5.76133
5.73072
5.69403
5.65156
5.60367
5.55077
5.49329
5.4317
5.3664
5.29774
5.22582
5.15054
5.0719
4.99109
4.91157
4.83785
4.77719
4.7188
5.81706
5.81452
5.80921
5.79875
5.78249
5.76029
5.73222
5.69849
5.65937
5.61515
5.5662
5.5129
5.45567
5.39488
5.33084
5.26367
5.19326
5.11962
5.04387
4.96939
4.90028
4.84343
4.78911
5.81061
5.80867
5.8039
5.79446
5.77969
5.75944
5.73377
5.70285
5.66692
5.62623
5.5811
5.53187
5.47892
5.42261
5.36321
5.30082
5.23536
5.16685
5.09638
5.02703
4.96275
4.90999
4.85944
5.80458
5.80305
5.79888
5.79041
5.77704
5.75862
5.73521
5.70696
5.67406
5.63674
5.5953
5.55003
5.50128
5.44939
5.39459
5.337
5.27655
5.21324
5.14809
5.08402
5.02464
4.97586
4.92942
5.7988
5.79761
5.794
5.78644
5.77438
5.75769
5.73641
5.71067
5.68065
5.64657
5.60867
5.56724
5.52259
5.47503
5.42479
5.37198
5.31652
5.25842
5.19864
5.13983
5.08541
5.04081
4.99816
5.79315
5.79227
5.78918
5.78245
5.7716
5.75652
5.73724
5.71388
5.6866
5.6556
5.62111
5.58338
5.54272
5.49941
5.45365
5.40555
5.35503
5.30211
5.24765
5.19416
5.14468
5.10425
5.06592
5.78756
5.78695
5.78431
5.77834
5.76862
5.75503
5.73763
5.71651
5.69184
5.66379
5.63256
5.59841
5.56162
5.52243
5.48106
5.43758
5.39193
5.34411
5.29493
5.24664
5.20207
5.16583
5.13132
5.78195
5.78158
5.77934
5.77406
5.76536
5.75317
5.73753
5.71854
5.69634
5.6711
5.64301
5.61231
5.57925
5.54407
5.50696
5.46799
5.42711
5.3843
5.34029
5.29716
5.2574
5.22511
5.19457
5.77632
5.77614
5.77424
5.76958
5.76183
5.75094
5.73697
5.71999
5.70014
5.67758
5.65249
5.6251
5.59564
5.56434
5.53137
5.49679
5.46056
5.42266
5.38376
5.34567
5.31071
5.28246
5.25556
5.77067
5.77067
5.76906
5.76494
5.75806
5.7484
5.73599
5.72091
5.7033
5.6833
5.66108
5.63686
5.61087
5.5833
5.55433
5.52402
5.49231
5.45921
5.4253
5.39224
5.36202
5.33782
5.31505
5.76506
5.76519
5.76382
5.76021
5.75415
5.74563
5.73471
5.72145
5.70596
5.6884
5.66892
5.64774
5.62506
5.60108
5.57595
5.54974
5.52241
5.49396
5.46492
5.43673
5.41115
5.39098
5.37197
5.75955
5.75979
5.75865
5.75551
5.75022
5.7428
5.73329
5.72175
5.70829
5.69305
5.67618
5.65789
5.63837
5.61781
5.59636
5.57407
5.55092
5.52692
5.50253
5.47901
5.45784
5.44136
5.4261
5.75424
5.75459
5.75367
5.75099
5.74645
5.74009
5.73192
5.72202
5.71049
5.69745
5.68306
5.66751
5.65099
5.63367
5.61569
5.59711
5.57791
5.55811
5.53809
5.51891
5.50186
5.48888
5.47686
5.74924
5.74973
5.74904
5.74681
5.74301
5.73766
5.7308
5.72246
5.71275
5.7018
5.68976
5.6768
5.6631
5.64883
5.6341
5.61898
5.60345
5.58752
5.57152
5.55636
5.54306
5.53322
5.52439
5.74466
5.7453
5.74487
5.7431
5.74003
5.73569
5.73006
5.72321
5.71523
5.70626
5.69644
5.68592
5.67487
5.66344
5.65173
5.63979
5.62762
5.61522
5.60287
5.59127
5.58124
5.57412
5.56779
5.74054
5.7414
5.74123
5.73992
5.73759
5.73422
5.72979
5.72436
5.71803
5.71093
5.7032
5.69497
5.68639
5.67759
5.66866
5.65964
5.65052
5.64128
5.63215
5.62365
5.61636
5.61135
5.60713
5.73692
5.73807
5.73815
5.73729
5.73568
5.73324
5.72994
5.72586
5.7211
5.71578
5.71003
5.70396
5.69769
5.69132
5.68495
5.67859
5.67223
5.66586
5.65962
5.65374
5.64862
5.64532
5.64269
5.7339
5.73552
5.73559
5.73512
5.73414
5.73253
5.73027
5.72746
5.7242
5.72058
5.7167
5.71265
5.70852
5.70441
5.70037
5.69646
5.69268
5.68905
5.68573
5.68246
5.67896
5.67701
5.67598
5.73127
5.73339
5.73325
5.73312
5.73285
5.73202
5.73076
5.72918
5.72736
5.72537
5.72327
5.72114
5.71901
5.71697
5.71508
5.71341
5.71206
5.71129
5.71199
5.71014
5.70747
5.70634
5.70663
5.73061
5.72628
5.72855
5.72981
5.73039
5.73037
5.73008
5.72963
5.72908
5.72849
5.72788
5.72729
5.72673
5.72625
5.72588
5.72569
5.72579
5.72645
5.72885
5.72936
5.72666
5.72578
5.72624
1293.75
1484.64
1435.35
1405.89
1036.03
923.005
899.427
976.543
753.86
727.355
768.302
825.424
728.424
787.514
784.436
769.554
793.694
793.851
789.532
784.958
793.399
790.429
787.483
784.512
792.938
790.505
787.783
784.855
791.928
789.569
786.8
784.106
780.688
770.315
734.528
685.119
25.4132
26.7264
24.1875
12.5819
3.61525
3.51464
3.41164
3.32258
3.84988
3.67546
3.49128
3.36733
3.91854
3.73096
3.52806
3.39015
3.97629
3.78741
3.57651
3.43003
4.04338
3.85577
3.64145
3.48983
4.11055
3.92551
3.712
3.55852
4.17695
3.99638
3.78564
3.63302
4.24267
4.06793
3.86315
3.71318
4.31062
4.14224
3.94355
3.79757
4.38168
4.21999
4.02849
3.88651
4.45444
4.30035
4.11638
3.98
4.52812
4.38192
4.20762
4.07749
4.60391
4.46606
4.30083
4.17774
4.68162
4.55248
4.39758
4.28102
4.75999
4.63976
4.49426
4.38484
4.83719
4.72569
4.59099
4.48876
4.91366
4.81097
4.686
4.59145
4.98895
4.89511
4.78084
4.69337
5.06215
4.97712
4.87251
4.79266
5.13226
5.05571
4.96185
4.88957
5.20049
5.13234
5.04808
4.98351
5.26709
5.20724
5.13306
5.07531
5.3313
5.27957
5.21421
5.16327
5.39181
5.34763
5.2916
5.24706
5.44881
5.41178
5.36381
5.32555
5.502
5.4716
5.43174
5.39898
5.55062
5.52631
5.49333
5.46596
5.59405
5.57504
5.54904
5.52674
5.63331
5.61908
5.59899
5.58161
5.66995
5.66015
5.64588
5.63271
5.70542
5.70016
5.69087
5.681
5.72786
5.72687
5.72381
5.71912
1125.98
1048.03
1014.09
1062.88
1033.93
931.447
1040.4
1075.98
1079.09
1084.96
1086.85
1088.98
1089.25
1086.6
1083.51
1080.32
1078.53
1076.61
981.956
1001.45
988.55
911.911
798.339
761.364
892.298
926.097
941.706
960.929
993.551
1020.99
1043.65
1059.19
1070.38
1084.31
1085.81
1088.15
1090.39
1069.34
792.465
775.056
772.058
762.551
735.744
714.527
710.639
745.161
741.028
738.621
745.865
760.909
776.876
795.384
833.103
904.356
986.586
1042.57
1064.74
771.949
772.075
769.4
757.693
738.17
746.529
751.011
744.572
739.397
734.053
728.314
722.277
715.892
709.379
702.356
695.329
701.875
781.516
847.503
778.691
773.227
769.1
765.426
761.697
755.697
749.287
743.18
737.557
732.039
726.309
720.236
713.819
707.007
699.895
692.604
685.152
704.765
736.243
779.56
774.04
769.13
764.514
759.499
753.673
747.584
741.591
735.845
730.169
724.363
718.158
711.773
705.208
698.218
690.754
684.209
682.735
678.345
779.878
774.019
768.63
763.394
757.814
751.798
745.637
739.548
733.658
727.905
722.097
715.86
710.565
708.69
699.397
679.462
645.861
596.196
552.319
779.957
774.038
768.145
762.285
739.311
704.894
665.384
624.701
586.911
553.961
521.624
463.366
389.884
319.688
263.745
217.786
157.885
97.5411
54.4168
604.974
500.954
402.451
309.258
230.131
169.75
121.411
83.4011
55.4435
32.3479
12.3665
11.1934
29.4587
41.917
31.1433
10.9295
2.94756
2.99515
3.01022
6.78159
5.26143
4.76621
3.13011
3.11494
3.16002
3.31691
3.58966
4.29437
6.5627
6.72804
5.65739
3.11442
3.0163
2.90342
2.92462
2.95946
2.97729
2.98453
3.24875
3.22752
3.19842
3.16084
3.12649
3.12882
3.17479
3.24354
3.28278
3.17656
3.05933
3.77186
3.9046
3.45611
2.92035
2.92391
2.94108
2.95578
2.96523
3.27575
3.24593
3.21431
3.17432
3.13554
3.26921
4.0216
3.9809
3.356
3.01372
3.0361
3.78375
3.91397
3.42892
2.90376
2.91426
2.93294
2.94988
2.96126
3.29355
3.27084
3.23969
3.1985
3.15685
3.23504
3.99697
4.03969
3.99306
3.19964
2.93836
2.91052
2.89569
2.89463
2.90685
2.92332
2.94125
2.9593
2.97132
3.32909
3.30785
3.27702
3.234
3.18821
3.14066
3.10617
3.24943
3.26273
3.04134
2.96162
2.94001
2.92767
2.92554
2.93403
2.94833
2.96561
2.98263
2.99401
3.3825
3.35952
3.32673
3.28063
3.23126
3.18134
3.13209
3.08679
3.04932
3.02138
2.99845
2.98001
2.96888
2.9671
2.97371
2.98562
3.00132
3.0172
3.02803
3.44773
3.42218
3.38702
3.33848
3.28671
3.23516
3.18623
3.14233
3.10484
3.07425
3.04976
3.0311
3.02029
3.01788
3.02258
3.03302
3.04742
3.06242
3.07297
3.52141
3.49346
3.45669
3.40641
3.35306
3.3003
3.25094
3.20689
3.1688
3.13711
3.11157
3.0926
3.0813
3.07779
3.08121
3.0904
3.10374
3.1181
3.12841
3.60185
3.57188
3.53433
3.48302
3.4287
3.37526
3.32524
3.28051
3.24182
3.20938
3.18341
3.16413
3.15212
3.14747
3.14961
3.15758
3.16974
3.18325
3.19325
3.68824
3.65708
3.61931
3.56757
3.51279
3.45897
3.4087
3.3635
3.3242
3.29124
3.26475
3.24493
3.23209
3.22627
3.22708
3.23358
3.24446
3.25708
3.26644
3.77928
3.74933
3.71115
3.65942
3.60465
3.55075
3.50036
3.45492
3.41521
3.38164
3.35447
3.33389
3.32009
3.31307
3.31245
3.31753
3.32698
3.33841
3.34708
3.87647
3.84678
3.80883
3.75749
3.70302
3.64928
3.59891
3.55331
3.51323
3.47912
3.45125
3.42983
3.415
3.40672
3.4047
3.40821
3.41621
3.42642
3.43415
3.97786
3.94873
3.91118
3.86048
3.80657
3.75321
3.70302
3.65738
3.61703
3.58243
3.55389
3.5316
3.5157
3.50615
3.50267
3.50471
3.51115
3.51992
3.52679
4.08305
4.0541
4.01707
3.9672
3.91407
3.8613
3.81146
3.76591
3.72539
3.69039
3.6612
3.63807
3.6211
3.61029
3.6054
3.60584
3.61076
3.61817
3.624
4.19031
4.16183
4.12536
4.07652
4.02438
3.97241
3.92309
3.87778
3.83722
3.80189
3.77214
3.74818
3.73018
3.71813
3.71181
3.71079
3.71414
3.7201
3.72503
4.29915
4.27086
4.23511
4.18747
4.1365
4.08552
4.03691
3.99199
3.95151
3.91597
3.88572
3.86102
3.84201
3.82875
3.82108
3.81852
3.82039
3.82504
3.82903
4.40779
4.38029
4.34539
4.29914
4.24955
4.19975
4.15203
4.10766
4.06741
4.03178
4.00113
3.97574
3.9558
3.94138
3.93235
3.92841
3.92879
3.93211
3.93533
4.51618
4.48928
4.45544
4.41076
4.36275
4.31433
4.26768
4.22405
4.18417
4.14857
4.11762
4.09164
4.07083
4.0553
4.04502
4.03963
4.03865
4.04079
4.04324
4.62294
4.59718
4.56455
4.52166
4.47543
4.4286
4.38322
4.34049
4.30115
4.26572
4.2346
4.20812
4.18652
4.16996
4.15843
4.15177
4.14946
4.15041
4.15221
4.72811
4.70336
4.67219
4.63128
4.58701
4.54196
4.49804
4.45641
4.41778
4.38268
4.35153
4.32466
4.30238
4.28486
4.2722
4.26422
4.26068
4.2606
4.26172
4.83055
4.80737
4.7778
4.73903
4.69692
4.65384
4.61159
4.57125
4.53352
4.49894
4.46791
4.44081
4.41795
4.39959
4.38584
4.37671
4.37194
4.37079
4.37138
4.93059
4.90871
4.88086
4.84437
4.80458
4.76367
4.72328
4.68445
4.64785
4.61398
4.58326
4.55609
4.53281
4.51372
4.49902
4.48871
4.48282
4.48074
4.48071
5.02723
5.00686
4.98076
4.94667
4.90937
4.87082
4.83253
4.79544
4.76018
4.72725
4.69706
4.67002
4.6465
4.62683
4.61126
4.59998
4.59296
4.58987
4.58937
5.12037
5.10115
5.07687
5.04529
5.01063
4.97463
4.93866
4.90356
4.86991
4.83817
4.80875
4.78205
4.75848
4.73842
4.72218
4.70994
4.70193
4.69794
4.69698
5.20867
5.19091
5.1685
5.13952
5.10766
5.07442
5.04101
5.00816
4.97639
4.94613
4.91774
4.89165
4.86825
4.84799
4.83121
4.81831
4.80942
4.80464
4.80327
5.29201
5.27548
5.255
5.22874
5.19983
5.16957
5.13896
5.10864
5.07906
5.05057
5.02352
4.99829
4.97532
4.95506
4.938
4.9245
4.91503
4.90975
4.908
5.36933
5.35427
5.33581
5.31239
5.28661
5.25954
5.232
5.20452
5.17744
5.15107
5.12568
5.10164
5.07935
5.05933
5.04212
5.0284
5.01858
5.01296
5.01103
5.4406
5.42692
5.41061
5.39016
5.36769
5.34404
5.31985
5.29552
5.27131
5.24742
5.22409
5.20159
5.1803
5.16077
5.14368
5.12978
5.11992
5.11437
5.11233
5.50533
5.49342
5.4794
5.46209
5.44312
5.42313
5.40259
5.38177
5.36082
5.33987
5.31905
5.29854
5.27867
5.25993
5.24308
5.22927
5.21945
5.21402
5.21208
5.56447
5.55427
5.54271
5.52872
5.5135
5.49746
5.4809
5.46399
5.44677
5.42929
5.41156
5.39366
5.37578
5.35829
5.342
5.32805
5.31806
5.3126
5.3104
5.61877
5.6103
5.60137
5.59093
5.57973
5.56796
5.55576
5.54317
5.5302
5.51678
5.50286
5.48838
5.47333
5.45789
5.44251
5.42843
5.41735
5.41002
5.40715
5.66826
5.66096
5.65488
5.64822
5.64123
5.63391
5.62628
5.61832
5.60997
5.60116
5.59176
5.58163
5.57062
5.55859
5.54563
5.53215
5.51904
5.50755
5.50242
5.71117
5.7072
5.7047
5.70229
5.69984
5.69729
5.69462
5.6918
5.6888
5.68556
5.68203
5.6781
5.67365
5.66853
5.66257
5.6556
5.64712
5.63503
5.63187
)
;

boundaryField
{
    leftWall
    {
        type            fixedFluxPressure;
        gradient        uniform 0;
        value           nonuniform List<scalar> 
50
(
6639.64
6633.34
6626.74
6619.75
6610.97
6600.51
6387.19
3076.62
1225.46
1227.15
1228.95
1225.2
1055.26
695.436
524.065
178.171
6.23523
6.08387
6.03023
5.97701
5.9755
5.95258
5.92682
5.90508
5.88718
5.8723
5.85992
5.84917
5.8398
5.83146
5.82396
5.81706
5.81061
5.80458
5.7988
5.79315
5.78756
5.78195
5.77632
5.77067
5.76506
5.75955
5.75424
5.74924
5.74466
5.74054
5.73692
5.7339
5.73127
5.73061
)
;
    }
    rightWall
    {
        type            fixedFluxPressure;
        gradient        uniform 0;
        value           nonuniform List<scalar> 
50
(
3319.15
3318.5
3257.41
2808.45
2456.7
1341.89
1013.43
943.245
981.956
1069.34
1064.74
847.503
736.243
678.345
552.319
54.4168
3.01022
2.98453
2.96523
2.96126
2.97132
2.99401
3.02803
3.07297
3.12841
3.19325
3.26644
3.34708
3.43415
3.52679
3.624
3.72503
3.82903
3.93533
4.04324
4.15221
4.26172
4.37138
4.48071
4.58937
4.69698
4.80327
4.908
5.01103
5.11233
5.21208
5.3104
5.40715
5.50242
5.63187
)
;
    }
    lowerWall
    {
        type            fixedFluxPressure;
        gradient        uniform 0;
        value           nonuniform List<scalar> 
62
(
6639.64
6650.97
6653.85
6638.7
6602.97
6546.34
6470.3
6377.52
6271.43
6157
6038.53
5920.07
5805.58
5698.9
5602.94
5519.53
5449.6
5393.25
5349.9
5318.46
5297.66
5287.87
5286.9
5286.9
5287.83
5287.06
5282.51
5272.61
3530.2
1196.32
1168.2
1293.75
1484.64
1435.35
1405.89
2512.07
2264.67
1690.02
1744.38
1643.78
1454.64
1121.03
1111.12
2512.07
2505.73
2482.49
2450.64
2432.39
2444.75
2465.24
2436.58
2474.43
2559.87
2665.37
2750.36
2800.34
2889.53
3036.13
3170.37
3254.45
3303.26
3319.15
)
;
    }
    atmosphere
    {
        type            prghTotalPressure;
        rho             rho;
        psi             none;
        gamma           1;
        p0              uniform 0;
        value           nonuniform List<scalar> 
46
(
5.72904
5.72904
5.72904
5.72904
5.72904
5.72904
5.72904
5.72904
5.72904
5.72904
5.72904
5.72904
5.72904
5.72904
5.72904
5.72904
5.72904
5.72904
5.72904
5.72904
5.72904
5.72904
5.72904
5.72904
5.72904
5.72904
5.72904
5.72904
5.72904
5.72904
5.72904
5.72904
5.72904
5.72904
5.72904
5.72904
5.72904
5.72904
5.72904
5.72904
5.72904
5.72904
5.72904
5.72901
5.72875
5.72853
)
;
        rho             rho;
    }
    defaultFaces
    {
        type            empty;
    }
}


// ************************************************************************* //
