/*--------------------------------*- C++ -*----------------------------------*\
  =========                 |
  \\      /  F ield         | OpenFOAM: The Open Source CFD Toolbox
   \\    /   O peration     | Website:  https://openfoam.org
    \\  /    A nd           | Version:  13
     \\/     M anipulation  |
\*---------------------------------------------------------------------------*/
FoamFile
{
    format      ascii;
    class       surfaceScalarField;
    location    "2.2";
    object      phi;
}
// * * * * * * * * * * * * * * * * * * * * * * * * * * * * * * * * * * * * * //

dimensions      [0 3 -1 0 0 0 0];

internalField   nonuniform List<scalar> 
4432
(
1.72065e-06
-1.72064e-06
2.86994e-06
-1.14929e-06
3.963e-06
-1.09307e-06
4.98717e-06
-1.02418e-06
5.86544e-06
-8.78277e-07
6.52904e-06
-6.63606e-07
6.93843e-06
-4.09398e-07
7.08155e-06
-1.43117e-07
6.99831e-06
8.32411e-08
6.72295e-06
2.75358e-07
6.29207e-06
4.30882e-07
5.73931e-06
5.52759e-07
5.1096e-06
6.2972e-07
4.44897e-06
6.60632e-07
3.78394e-06
6.65026e-07
3.12588e-06
6.58064e-07
2.4905e-06
6.35387e-07
1.90281e-06
5.87687e-07
1.39779e-06
5.05025e-07
1.02164e-06
3.76152e-07
8.20395e-07
2.01243e-07
7.23848e-07
9.6543e-08
7.23851e-07
1.40687e-06
-3.12748e-06
2.74889e-06
-2.49129e-06
4.07932e-06
-2.42349e-06
5.29905e-06
-2.24391e-06
6.30687e-06
-1.88609e-06
7.03827e-06
-1.39501e-06
7.46842e-06
-8.39539e-07
7.60845e-06
-2.83152e-07
7.49001e-06
2.01685e-07
7.17011e-06
5.95253e-07
6.69548e-06
9.05518e-07
6.10078e-06
1.14745e-06
5.42881e-06
1.30169e-06
4.72502e-06
1.36441e-06
4.02084e-06
1.3692e-06
3.33403e-06
1.34486e-06
2.67898e-06
1.29042e-06
2.06973e-06
1.19692e-06
1.5201e-06
1.05465e-06
1.04874e-06
8.47503e-07
6.76635e-07
5.73338e-07
3.98259e-07
3.74909e-07
1.12209e-06
1.29778e-06
-4.42526e-06
2.75905e-06
-3.95256e-06
4.19184e-06
-3.85628e-06
5.47752e-06
-3.52959e-06
6.51751e-06
-2.92608e-06
7.25758e-06
-2.13509e-06
7.685e-06
-1.26696e-06
7.8138e-06
-4.11949e-07
7.68146e-06
3.34023e-07
7.34598e-06
9.30724e-07
6.85817e-06
1.39333e-06
6.25491e-06
1.75072e-06
5.57473e-06
1.98186e-06
4.86342e-06
2.07572e-06
4.15491e-06
2.0777e-06
3.46974e-06
2.03003e-06
2.82119e-06
1.93896e-06
2.21776e-06
1.80036e-06
1.66153e-06
1.61087e-06
1.15235e-06
1.35668e-06
6.91985e-07
1.0337e-06
2.87254e-07
7.79633e-07
1.40934e-06
1.25397e-06
-5.67919e-06
2.7883e-06
-5.48686e-06
4.26585e-06
-5.33381e-06
5.56397e-06
-4.8277e-06
6.59915e-06
-3.96124e-06
7.32783e-06
-2.86376e-06
7.7471e-06
-1.68622e-06
7.87211e-06
-5.36963e-07
7.73918e-06
4.66951e-07
7.40674e-06
1.26316e-06
6.92781e-06
1.87225e-06
6.33406e-06
2.34445e-06
5.66367e-06
2.65224e-06
4.96218e-06
2.77721e-06
4.26476e-06
2.7751e-06
3.59432e-06
2.70047e-06
2.9641e-06
2.56917e-06
2.37876e-06
2.38569e-06
1.83274e-06
2.15689e-06
1.31313e-06
1.87628e-06
8.04772e-07
1.54205e-06
2.95963e-07
1.28843e-06
1.70529e-06
1.24581e-06
-6.92499e-06
2.79239e-06
-7.03342e-06
4.2616e-06
-6.80301e-06
5.5296e-06
-6.09569e-06
6.53344e-06
-4.96506e-06
7.24143e-06
-3.57175e-06
7.65741e-06
-2.1022e-06
7.79369e-06
-6.73248e-07
7.67949e-06
5.81151e-07
7.36516e-06
1.57749e-06
6.90758e-06
2.32982e-06
6.34389e-06
2.90814e-06
5.70465e-06
3.29149e-06
5.0306e-06
3.45126e-06
4.35953e-06
3.44618e-06
3.71793e-06
3.34208e-06
3.11917e-06
3.16794e-06
2.5646e-06
2.94027e-06
2.04387e-06
2.67762e-06
1.53413e-06
2.38603e-06
1.001e-06
2.07519e-06
4.14159e-07
1.87528e-06
2.11946e-06
1.22131e-06
-8.14626e-06
2.73041e-06
-8.5425e-06
4.15137e-06
-8.22395e-06
5.35537e-06
-7.29967e-06
6.30215e-06
-5.91182e-06
6.97326e-06
-4.24286e-06
7.38392e-06
-2.51285e-06
7.54465e-06
-8.33977e-07
7.47199e-06
6.53806e-07
7.21116e-06
1.83832e-06
6.79786e-06
2.74313e-06
6.2809e-06
3.42512e-06
5.70131e-06
3.87109e-06
5.08188e-06
4.07069e-06
4.45704e-06
4.07103e-06
3.87114e-06
3.92799e-06
3.33089e-06
3.70819e-06
2.83266e-06
3.43849e-06
2.36266e-06
3.14763e-06
1.89135e-06
2.85734e-06
1.37518e-06
2.59136e-06
7.78356e-07
2.47212e-06
2.8978e-06
1.18259e-06
-9.32886e-06
2.58709e-06
-9.94701e-06
3.89869e-06
-9.53558e-06
4.9745e-06
-8.37551e-06
5.83199e-06
-6.76933e-06
6.45353e-06
-4.86441e-06
6.85702e-06
-2.91635e-06
7.05669e-06
-1.03364e-06
7.05404e-06
6.56455e-07
6.86892e-06
2.02344e-06
6.53442e-06
3.07763e-06
6.10885e-06
3.8507e-06
5.64311e-06
4.33683e-06
5.11823e-06
4.59557e-06
4.57741e-06
4.61185e-06
4.10138e-06
4.40402e-06
3.68786e-06
4.12171e-06
3.31798e-06
3.80838e-06
2.97115e-06
3.49446e-06
2.6088e-06
3.2197e-06
2.15867e-06
3.04149e-06
1.52697e-06
3.10382e-06
4.42478e-06
1.29851e-06
-1.06274e-05
2.45919e-06
-1.11077e-05
3.52352e-06
-1.05999e-05
4.36622e-06
-9.21825e-06
5.0481e-06
-7.45124e-06
5.56677e-06
-5.3831e-06
5.93958e-06
-3.28917e-06
6.16281e-06
-1.25688e-06
6.16594e-06
6.5333e-07
5.92947e-06
2.25992e-06
5.58095e-06
3.42614e-06
5.21791e-06
4.21373e-06
4.88758e-06
4.66716e-06
4.63214e-06
4.85101e-06
4.45954e-06
4.78445e-06
4.3504e-06
4.51316e-06
4.2881e-06
4.18401e-06
4.23747e-06
3.85901e-06
4.16823e-06
3.56369e-06
4.03115e-06
3.35678e-06
3.70425e-06
3.36838e-06
2.87584e-06
3.93223e-06
7.3006e-06
3.7926e-07
-3.79263e-07
6.722e-07
-2.92942e-07
8.81549e-07
-2.0935e-07
1.00956e-06
-1.28007e-07
1.00825e-06
1.30676e-09
1.34609e-06
-3.37845e-07
1.30983e-06
3.62651e-08
5.73053e-07
7.36777e-07
-1.28788e-07
7.01841e-07
-4.72079e-07
3.43292e-07
-3.95719e-07
-7.63612e-08
-3.40555e-07
-5.5166e-08
-1.88449e-06
1.54394e-06
-4.01591e-06
2.13142e-06
-4.83638e-06
8.20469e-07
-4.81934e-06
-1.70372e-08
-4.00852e-06
-8.1082e-07
-2.0433e-06
-1.96522e-06
-2.0433e-06
9.73748e-07
-1.35302e-06
1.80253e-06
-1.12173e-06
2.05584e-06
-4.62661e-07
2.23682e-06
-3.08993e-07
2.43144e-06
-1.93321e-07
1.97383e-06
1.19763e-07
1.28904e-06
7.2105e-07
1.25883e-06
7.66986e-07
9.33528e-07
1.02713e-06
3.37209e-07
9.39608e-07
-3.64237e-07
6.25081e-07
-1.25592e-06
8.36514e-07
-2.04857e-06
2.33658e-06
-3.01582e-06
3.09866e-06
-4.10721e-06
1.91186e-06
-4.83945e-06
7.15196e-07
-4.46723e-06
-1.18304e-06
-2.59087e-06
-3.84157e-06
-4.63416e-06
1.25651e-06
-2.60953e-06
2.54292e-06
-2.40815e-06
2.70279e-06
-6.22524e-07
3.26539e-06
-8.71598e-07
3.43509e-06
-3.63021e-07
2.69261e-06
8.62241e-07
2.22266e-06
1.19101e-06
2.17318e-06
8.16473e-07
1.8728e-06
1.32751e-06
9.068e-07
1.90561e-06
-5.079e-07
2.03979e-06
-1.9426e-06
2.27123e-06
-2.47931e-06
2.87329e-06
-3.18663e-06
3.80598e-06
-4.10958e-06
2.83482e-06
-4.78717e-06
1.3928e-06
-4.68387e-06
-1.28633e-06
-3.30053e-06
-5.2249e-06
-7.93469e-06
9.41756e-07
-3.5513e-06
1.97308e-06
-3.43948e-06
2.46893e-06
-1.11838e-06
2.83817e-06
-1.24084e-06
2.85027e-06
-3.75129e-07
2.92955e-06
7.82954e-07
3.1614e-06
9.59157e-07
3.519e-06
4.58865e-07
3.54426e-06
1.30224e-06
1.72331e-06
3.72655e-06
-3.38722e-07
4.10182e-06
-2.53467e-06
4.46718e-06
-3.26376e-06
3.60239e-06
-3.5653e-06
4.10751e-06
-4.11795e-06
3.38747e-06
-4.71914e-06
1.99399e-06
-4.44934e-06
-1.55613e-06
-4.15858e-06
-5.51565e-06
-1.20933e-05
1.30362e-06
-4.85492e-06
1.52755e-06
-3.66341e-06
1.92788e-06
-1.51871e-06
1.35534e-06
-6.68296e-07
1.31168e-06
-3.31458e-07
1.9597e-06
1.34932e-07
2.80031e-06
1.18554e-07
3.63964e-06
-3.80463e-07
4.08348e-06
8.58408e-07
2.83559e-06
4.97446e-06
1.50905e-06
5.42837e-06
-1.57888e-06
7.55513e-06
-3.32658e-06
5.35012e-06
-3.41613e-06
4.1971e-06
-3.79259e-06
3.76396e-06
-4.06466e-06
2.26607e-06
-3.50272e-06
-2.11806e-06
-2.66126e-06
-6.35712e-06
-1.47546e-05
2.01903e-06
-6.87396e-06
1.5481e-06
-3.1925e-06
1.39064e-06
-1.36126e-06
5.30067e-07
1.92279e-07
2.40602e-07
-4.19943e-08
9.7362e-07
-5.98089e-07
2.14176e-06
-1.04959e-06
2.59059e-06
-8.29292e-07
2.67136e-06
7.77634e-07
2.40118e-06
5.24464e-06
1.67763e-06
6.15191e-06
1.02168e-06
8.21107e-06
-1.91007e-06
8.28188e-06
-2.92328e-06
5.21032e-06
-3.36311e-06
4.20381e-06
-2.73741e-06
1.64038e-06
-1.94024e-06
-2.91522e-06
-6.11477e-09
-8.29125e-06
-1.47607e-05
2.53703e-06
-9.411e-06
1.85124e-06
-2.50672e-06
1.14026e-06
-6.50287e-07
3.69642e-07
9.62894e-07
-2.06881e-07
5.34525e-07
1.94422e-07
-9.99397e-07
9.41916e-07
-1.79709e-06
1.18424e-06
-1.07162e-06
1.02417e-06
9.37702e-07
1.22423e-06
5.04458e-06
9.60639e-07
6.41549e-06
8.35796e-07
8.3359e-06
1.43839e-07
8.97382e-06
-1.52585e-06
6.88002e-06
-2.19682e-06
4.87479e-06
-1.39286e-06
8.36431e-07
-1.18112e-07
-4.18996e-06
1.38977e-06
-9.79914e-06
-1.33709e-05
2.48318e-06
-1.18942e-05
2.12726e-06
-2.15079e-06
1.14746e-06
3.29509e-07
4.19525e-07
1.69083e-06
-3.17849e-07
1.2719e-06
-6.1914e-07
-6.98108e-07
-5.28411e-07
-1.88782e-06
-2.89305e-07
-1.31073e-06
-3.20336e-07
9.68733e-07
-6.2865e-09
4.73054e-06
3.70234e-08
6.37218e-06
6.80674e-08
8.30485e-06
-5.22853e-08
9.09416e-06
-7.16546e-07
7.54428e-06
-8.35761e-07
4.994e-06
-2.57481e-07
2.58159e-07
1.07321e-06
-5.52064e-06
3.62296e-06
-1.23489e-05
-9.74791e-06
3.06096e-06
-1.36883e-05
4.4108e-06
-1.24575e-05
5.22281e-06
-1.1412e-05
5.65977e-06
-9.65522e-06
5.76327e-06
-7.55475e-06
5.65317e-06
-5.273e-06
5.35192e-06
-2.98793e-06
5.02695e-06
-9.31909e-07
4.7316e-06
9.48673e-07
4.7637e-06
2.22781e-06
5.11009e-06
3.07974e-06
5.72006e-06
3.60374e-06
6.46136e-06
3.92583e-06
7.25567e-06
4.05666e-06
8.0604e-06
3.97969e-06
8.82247e-06
3.75105e-06
9.50304e-06
3.50341e-06
1.00464e-05
3.31559e-06
1.04208e-05
3.18929e-06
1.04971e-05
3.28039e-06
1.00006e-05
3.86492e-06
8.72788e-06
5.20489e-06
7.75725e-06
8.27121e-06
-1.96532e-06
-1.1723e-05
-2.8258e-06
-1.1597e-05
-3.7891e-06
-1.04486e-05
-4.66246e-06
-8.78183e-06
-5.32077e-06
-6.89642e-06
-5.58353e-06
-5.01022e-06
-5.33577e-06
-3.23569e-06
-4.70311e-06
-1.56458e-06
-3.62928e-06
-1.25166e-07
-2.35568e-06
9.54194e-07
-9.71166e-07
1.69522e-06
4.49718e-07
2.18284e-06
1.8543e-06
2.52123e-06
3.18518e-06
2.72578e-06
4.43391e-06
2.73095e-06
5.5534e-06
2.63155e-06
6.49522e-06
2.56157e-06
7.18683e-06
2.62398e-06
7.56937e-06
2.80674e-06
7.82652e-06
3.02323e-06
7.45931e-06
4.23212e-06
7.0929e-06
5.5713e-06
6.97409e-06
7.87605e-06
-3.89444e-06
-7.82854e-06
-6.64324e-06
-8.84824e-06
-8.71267e-06
-8.37919e-06
-1.02369e-05
-7.25758e-06
-1.1211e-05
-5.92231e-06
-1.15401e-05
-4.68115e-06
-1.12276e-05
-3.54821e-06
-1.04465e-05
-2.34564e-06
-9.29335e-06
-1.27833e-06
-7.91815e-06
-4.21002e-07
-6.45747e-06
2.34538e-07
-4.95719e-06
6.8257e-07
-3.51378e-06
1.07781e-06
-2.22493e-06
1.43693e-06
-1.02101e-06
1.52703e-06
5.99124e-08
1.55062e-06
8.35143e-07
1.78633e-06
1.2774e-06
2.18171e-06
1.38728e-06
2.69684e-06
1.39747e-06
3.01304e-06
1.30167e-06
4.32792e-06
9.28516e-07
5.94444e-06
7.68555e-06
2.17067e-07
-4.62698e-06
-3.20164e-06
-8.69923e-06
-4.77604e-06
-1.17207e-05
-5.35771e-06
-1.39394e-05
-5.03891e-06
-1.54037e-05
-4.45802e-06
-1.61484e-05
-3.93654e-06
-1.60956e-05
-3.60098e-06
-1.56698e-05
-2.77147e-06
-1.49122e-05
-2.03589e-06
-1.39017e-05
-1.43152e-06
-1.28155e-05
-8.51626e-07
-1.16718e-05
-4.61191e-07
-1.05666e-05
-2.73736e-08
-9.61991e-06
4.90273e-07
-8.76543e-06
6.72545e-07
-7.94945e-06
7.34642e-07
-7.51985e-06
1.35673e-06
-7.40041e-06
2.06227e-06
-7.21468e-06
2.51111e-06
-7.41036e-06
3.20871e-06
-7.30401e-06
4.22156e-06
-7.22724e-06
5.86768e-06
7.08697e-06
-6.62866e-06
-6.48202e-06
3.28031e-06
-1.20654e-05
8.07278e-07
-1.6021e-05
-1.40219e-06
-1.89096e-05
-2.15039e-06
-2.08178e-05
-2.54986e-06
-2.19288e-05
-2.82556e-06
-2.23922e-05
-3.13751e-06
-2.26054e-05
-2.5583e-06
-2.25112e-05
-2.13017e-06
-2.2153e-05
-1.78967e-06
-2.16908e-05
-1.31382e-06
-2.11543e-05
-9.97747e-07
-2.05788e-05
-6.02801e-07
-1.98593e-05
-2.2928e-07
-1.90916e-05
-9.5095e-08
-1.83952e-05
3.81919e-08
-1.77554e-05
7.16915e-07
-1.70307e-05
1.33763e-06
-1.61612e-05
1.64158e-06
-1.53808e-05
2.42831e-06
-1.46026e-05
3.44343e-06
-1.34047e-05
4.66975e-06
5.18928e-06
-1.1507e-05
-1.08754e-05
1.41556e-05
-1.84209e-05
8.35279e-06
-2.35799e-05
3.7567e-06
-2.68751e-05
1.14473e-06
-2.89935e-05
-4.31477e-07
-3.03354e-05
-1.48373e-06
-3.14553e-05
-2.01764e-06
-3.22511e-05
-1.76253e-06
-3.27629e-05
-1.61836e-06
-3.29772e-05
-1.5754e-06
-3.28494e-05
-1.44158e-06
-3.24191e-05
-1.42805e-06
-3.16569e-05
-1.36507e-06
-3.04572e-05
-1.42894e-06
-2.90008e-05
-1.55149e-06
-2.75037e-05
-1.45893e-06
-2.57906e-05
-9.96143e-07
-2.3999e-05
-4.53955e-07
-2.2481e-05
1.23594e-07
-2.10218e-05
9.6917e-07
-1.94748e-05
1.89644e-06
-1.75416e-05
2.73654e-06
2.96839e-06
-1.53207e-05
-1.47658e-05
2.89215e-05
-2.44572e-05
1.80444e-05
-3.04063e-05
9.70594e-06
-3.4092e-05
4.83043e-06
-3.65403e-05
2.01691e-06
-3.83555e-05
3.3154e-07
-3.9802e-05
-5.71193e-07
-4.07109e-05
-8.5366e-07
-4.1328e-05
-1.00125e-06
-4.15843e-05
-1.31905e-06
-4.12252e-05
-1.80071e-06
-4.03325e-05
-2.32079e-06
-3.90297e-05
-2.66785e-06
-3.74164e-05
-3.04223e-06
-3.5549e-05
-3.41881e-06
-3.34492e-05
-3.55875e-06
-3.11465e-05
-3.29887e-06
-2.88486e-05
-2.7518e-06
-2.67529e-05
-1.97209e-06
-2.47476e-05
-1.03608e-06
-2.265e-05
-2.01111e-07
-2.0401e-05
4.87512e-07
7.59482e-07
-1.8192e-05
-1.3244e-05
4.21655e-05
-2.57535e-05
3.05542e-05
-3.45693e-05
1.8522e-05
-3.89594e-05
9.22067e-06
-4.17262e-05
4.78375e-06
-4.35068e-05
2.11233e-06
-4.47238e-05
6.45883e-07
-4.56331e-05
5.57494e-08
-4.63321e-05
-3.02124e-07
-4.65798e-05
-1.07137e-06
-4.60932e-05
-2.28721e-06
-4.49814e-05
-3.43254e-06
-4.35138e-05
-4.13551e-06
-4.17796e-05
-4.77637e-06
-3.96673e-05
-5.53117e-06
-3.72341e-05
-5.99195e-06
-3.46126e-05
-5.92033e-06
-3.19692e-05
-5.39514e-06
-2.94638e-05
-4.47749e-06
-2.70982e-05
-3.40159e-06
-2.46959e-05
-2.60345e-06
-2.22335e-05
-1.9748e-06
-1.46439e-06
-2.00096e-05
-1.74102e-05
5.95795e-05
-1.61227e-05
2.92672e-05
-2.63626e-05
2.87619e-05
-3.5785e-05
1.86431e-05
-4.33102e-05
1.23094e-05
-4.69262e-05
5.72868e-06
-4.78366e-05
1.55661e-06
-4.84815e-05
7.00745e-07
-4.90356e-05
2.52024e-07
-4.90104e-05
-1.09649e-06
-4.83259e-05
-2.97158e-06
-4.71759e-05
-4.58245e-06
-4.58116e-05
-5.49982e-06
-4.41637e-05
-6.42426e-06
-4.20519e-05
-7.643e-06
-3.95202e-05
-8.52369e-06
-3.67681e-05
-8.67247e-06
-3.39105e-05
-8.25273e-06
-3.10866e-05
-7.30151e-06
-2.85104e-05
-5.97779e-06
-2.58714e-05
-5.24248e-06
-2.31438e-05
-4.70252e-06
-3.56288e-06
-2.10454e-05
1.44227e-05
4.51557e-05
4.42132e-06
3.92675e-05
-7.15151e-06
4.0334e-05
-1.96848e-05
3.11759e-05
-2.99939e-05
2.26181e-05
-3.75377e-05
1.32725e-05
-4.30398e-05
7.0589e-06
-4.64664e-05
4.1274e-06
-4.8085e-05
1.87083e-06
-4.90896e-05
-9.15866e-08
-4.87135e-05
-3.34734e-06
-4.7725e-05
-5.57072e-06
-4.66015e-05
-6.62332e-06
-4.5177e-05
-7.84874e-06
-4.32033e-05
-9.61673e-06
-4.0791e-05
-1.0936e-05
-3.81545e-05
-1.1309e-05
-3.52202e-05
-1.11871e-05
-3.20615e-05
-1.04602e-05
-2.91517e-05
-8.88766e-06
-2.63211e-05
-8.07316e-06
-2.2852e-05
-8.17171e-06
-6.58574e-06
-1.98292e-05
1.43691e-05
3.07819e-05
7.07316e-06
4.65622e-05
2.01027e-06
4.53961e-05
-4.01867e-06
3.72043e-05
-8.84959e-06
2.74484e-05
-1.43702e-05
1.87925e-05
-2.0877e-05
1.35652e-05
-2.76683e-05
1.09185e-05
-3.39349e-05
8.13731e-06
-3.86959e-05
4.66939e-06
-4.2244e-05
2.00917e-07
-4.42768e-05
-3.53778e-06
-4.46807e-05
-6.21936e-06
-4.3797e-05
-8.73244e-06
-4.24556e-05
-1.09581e-05
-4.08777e-05
-1.2514e-05
-3.8658e-05
-1.35288e-05
-3.58843e-05
-1.39609e-05
-3.28708e-05
-1.34738e-05
-2.93887e-05
-1.23699e-05
-2.57609e-05
-1.17009e-05
-2.28261e-05
-1.11066e-05
-9.55955e-06
-1.98526e-05
-1.93859e-06
3.27202e-05
2.59544e-06
4.2028e-05
6.02307e-06
4.19684e-05
5.91923e-06
3.73081e-05
2.9039e-06
3.04636e-05
-1.67601e-06
2.33721e-05
-7.22882e-06
1.91177e-05
-1.25119e-05
1.62013e-05
-1.65417e-05
1.21669e-05
-1.896e-05
7.08731e-06
-2.10193e-05
2.25997e-06
-2.334e-05
-1.21731e-06
-2.57216e-05
-3.83766e-06
-2.78073e-05
-6.64666e-06
-2.94516e-05
-9.31371e-06
-3.0464e-05
-1.15015e-05
-3.08179e-05
-1.31748e-05
-3.06075e-05
-1.41713e-05
-2.98168e-05
-1.42645e-05
-2.86038e-05
-1.35826e-05
-2.74461e-05
-1.28582e-05
-2.69462e-05
-1.16064e-05
-8.05167e-06
-2.84543e-05
1.88755e-07
3.25316e-05
4.62782e-06
3.7589e-05
8.51949e-06
3.80769e-05
1.02257e-05
3.5602e-05
9.4642e-06
3.12252e-05
6.49309e-06
2.63432e-05
3.03434e-06
2.25765e-05
5.52021e-09
1.92302e-05
-2.69592e-06
1.48683e-05
-5.34471e-06
9.73598e-06
-8.03616e-06
4.95121e-06
-1.10428e-05
1.7892e-06
-1.40035e-05
-8.76896e-07
-1.68783e-05
-3.77189e-06
-1.96657e-05
-6.52617e-06
-2.2249e-05
-8.91811e-06
-2.45801e-05
-1.08436e-05
-2.65778e-05
-1.21735e-05
-2.81618e-05
-1.26802e-05
-2.93231e-05
-1.24209e-05
-3.04741e-05
-1.17068e-05
-3.18854e-05
-1.01946e-05
-6.27943e-06
-3.36578e-05
1.53644e-06
3.09955e-05
5.24624e-06
3.38795e-05
8.81447e-06
3.45088e-05
1.11138e-05
3.33029e-05
1.16816e-05
3.06575e-05
1.06903e-05
2.73347e-05
9.05663e-06
2.42103e-05
7.35894e-06
2.09279e-05
5.6475e-06
1.65798e-05
3.37493e-06
1.20086e-05
5.53145e-07
7.773e-06
-2.33506e-06
4.67741e-06
-5.3937e-06
2.18177e-06
-8.59822e-06
-5.6734e-07
-1.18455e-05
-3.2789e-06
-1.50396e-05
-5.72388e-06
-1.81199e-05
-7.76334e-06
-2.10418e-05
-9.25155e-06
-2.3679e-05
-1.0043e-05
-2.59981e-05
-1.01016e-05
-2.81987e-05
-9.50595e-06
-3.02924e-05
-8.1009e-06
-5.19559e-06
-3.13766e-05
1.73253e-06
2.92633e-05
4.76881e-06
3.08434e-05
7.91897e-06
3.13588e-05
1.04138e-05
3.08082e-05
1.18495e-05
2.92219e-05
1.22097e-05
2.69746e-05
1.19512e-05
2.44689e-05
1.13249e-05
2.15544e-05
1.0142e-05
1.77628e-05
8.40599e-06
1.37447e-05
6.07954e-06
1.00995e-05
3.46943e-06
7.28756e-06
7.64934e-07
4.88629e-06
-2.147e-06
2.34462e-06
-5.24688e-06
-1.79012e-07
-8.44711e-06
-2.52364e-06
-1.16608e-05
-4.54968e-06
-1.48041e-05
-6.10824e-06
-1.77692e-05
-7.07785e-06
-2.04694e-05
-7.40121e-06
-2.28955e-05
-7.07975e-06
-2.49254e-05
-6.07089e-06
-4.06753e-06
-2.60539e-05
1.41023e-06
2.78531e-05
3.83179e-06
2.84219e-05
6.52697e-06
2.86637e-05
8.97298e-06
2.83623e-05
1.08311e-05
2.73639e-05
1.20153e-05
2.57904e-05
1.2674e-05
2.38102e-05
1.2874e-05
2.13545e-05
1.23279e-05
1.8309e-05
1.10946e-05
1.4978e-05
9.26735e-06
1.19268e-05
7.16172e-06
9.39322e-06
4.9492e-06
7.09884e-06
2.52155e-06
4.77227e-06
-1.24213e-07
2.46676e-06
-2.95561e-06
3.07739e-07
-5.90037e-06
-1.60495e-06
-8.85041e-06
-3.15826e-06
-1.16831e-05
-4.24515e-06
-1.42991e-05
-4.78503e-06
-1.66024e-05
-4.77637e-06
-1.84385e-05
-4.23476e-06
-2.9373e-06
-1.95692e-05
9.79977e-07
2.68734e-05
2.84373e-06
2.65583e-05
5.06954e-06
2.6438e-05
7.29887e-06
2.61331e-05
9.26218e-06
2.54006e-05
1.08259e-05
2.42268e-05
1.19781e-05
2.2658e-05
1.26616e-05
2.06711e-05
1.2712e-05
1.82586e-05
1.20515e-05
1.56385e-05
1.08494e-05
1.31289e-05
9.35999e-06
1.08826e-05
7.69161e-06
8.76723e-06
5.80548e-06
6.65841e-06
3.68925e-06
4.58297e-06
1.37771e-06
2.61926e-06
-1.07607e-06
8.48779e-07
-3.58925e-06
-6.45141e-07
-6.05772e-06
-1.7767e-06
-8.35654e-06
-2.48604e-06
-1.03722e-05
-2.7606e-06
-1.19663e-05
-2.64056e-06
-1.87234e-06
-1.30318e-05
6.24417e-07
2.6249e-05
1.99378e-06
2.5189e-05
3.76893e-06
2.46629e-05
5.69589e-06
2.42062e-05
7.55962e-06
2.3537e-05
9.21359e-06
2.25729e-05
1.05715e-05
2.13001e-05
1.15369e-05
1.97057e-05
1.19863e-05
1.78092e-05
1.18736e-05
1.57513e-05
1.12968e-05
1.37057e-05
1.0419e-05
1.17605e-05
9.30913e-06
9.87708e-06
7.96581e-06
8.00172e-06
6.395e-06
6.15377e-06
4.62909e-06
4.38514e-06
2.71773e-06
2.7601e-06
7.26445e-07
1.34608e-06
-1.25555e-06
2.05285e-07
-3.13113e-06
-6.10295e-07
-4.80152e-06
-1.09006e-06
-6.1661e-06
-1.27599e-06
-9.71705e-07
-7.06717e-06
3.37259e-07
2.5912e-05
1.33166e-06
2.41948e-05
2.71125e-06
2.32835e-05
4.31632e-06
2.26012e-05
5.97873e-06
2.18746e-05
7.56083e-06
2.09908e-05
8.95603e-06
1.99049e-05
1.00631e-05
1.85987e-05
1.07847e-05
1.70876e-05
1.10887e-05
1.54473e-05
1.10197e-05
1.37746e-05
1.06588e-05
1.21213e-05
1.00563e-05
1.04795e-05
9.22316e-06
8.8349e-06
8.17308e-06
7.20382e-06
6.93409e-06
5.6241e-06
5.54903e-06
4.1451e-06
4.07415e-06
2.8209e-06
2.5768e-06
1.70262e-06
1.14191e-06
8.24777e-07
-1.44765e-07
1.96708e-07
-1.19961e-06
-2.21036e-07
-2.01943e-07
-1.96983e-06
1.67415e-07
2.57446e-05
8.53332e-07
2.3509e-05
1.91216e-06
2.22247e-05
3.21962e-06
2.12938e-05
4.64826e-06
2.0446e-05
6.08142e-06
1.95577e-05
7.41807e-06
1.85683e-05
8.56681e-06
1.745e-05
9.45078e-06
1.62036e-05
1.00336e-05
1.48645e-05
1.03287e-05
1.34795e-05
1.03731e-05
1.20769e-05
1.01927e-05
1.06599e-05
9.79957e-06
9.22799e-06
9.20756e-06
7.79581e-06
8.43954e-06
6.39209e-06
7.52946e-06
5.05512e-06
6.52336e-06
3.82694e-06
5.47847e-06
2.7475e-06
4.45383e-06
1.84958e-06
3.52053e-06
1.13015e-06
2.74126e-06
5.58218e-07
4.29172e-07
2.10973e-06
6.34609e-08
2.56814e-05
5.4559e-07
2.3027e-05
1.35814e-06
2.14123e-05
2.41412e-06
2.02379e-05
3.61844e-06
1.92418e-05
4.878e-06
1.82982e-05
6.10727e-06
1.73391e-05
7.22966e-06
1.63276e-05
8.18254e-06
1.52508e-05
8.93002e-06
1.4117e-05
9.46558e-06
1.29439e-05
9.79913e-06
1.17433e-05
9.94104e-06
1.0518e-05
9.89832e-06
9.27069e-06
9.68066e-06
8.01343e-06
9.30481e-06
6.76789e-06
8.7967e-06
5.56318e-06
8.19155e-06
4.43203e-06
7.53115e-06
3.40787e-06
6.8695e-06
2.51139e-06
6.25069e-06
1.74903e-06
5.71345e-06
1.09557e-06
8.53569e-07
5.28862e-06
2.27969e-08
2.56588e-05
3.82213e-07
2.26677e-05
1.02116e-06
2.07735e-05
1.881e-06
1.93781e-05
2.89224e-06
1.82306e-05
3.98355e-06
1.72069e-05
5.08717e-06
1.62355e-05
6.14187e-06
1.52729e-05
7.09715e-06
1.42955e-05
7.91933e-06
1.32948e-05
8.59259e-06
1.22707e-05
9.11273e-06
1.12232e-05
9.47941e-06
1.01513e-05
9.69361e-06
9.05645e-06
9.76009e-06
7.94692e-06
9.68957e-06
6.83838e-06
9.50017e-06
5.75251e-06
9.21762e-06
4.71451e-06
8.87596e-06
3.74952e-06
8.50708e-06
2.88041e-06
8.15194e-06
2.1043e-06
7.84347e-06
1.40404e-06
1.11741e-06
7.57926e-06
3.35568e-08
2.56255e-05
3.37041e-07
2.23644e-05
8.70383e-07
2.02402e-05
1.58962e-06
1.8659e-05
2.4472e-06
1.73731e-05
3.39066e-06
1.62635e-05
4.36879e-06
1.52574e-05
5.33465e-06
1.43071e-05
6.24852e-06
1.33816e-05
7.08103e-06
1.24623e-05
7.81363e-06
1.1538e-05
8.4357e-06
1.06011e-05
8.94082e-06
9.64615e-06
9.32548e-06
8.67175e-06
9.59005e-06
7.68231e-06
9.7401e-06
6.68828e-06
9.7874e-06
5.70515e-06
9.74959e-06
4.75226e-06
9.64832e-06
3.85077e-06
9.51356e-06
3.01532e-06
9.36771e-06
2.25023e-06
9.23063e-06
1.54123e-06
1.21001e-06
9.13766e-06
8.8215e-08
2.55375e-05
4.02177e-07
2.20507e-05
8.76334e-07
1.97662e-05
1.50358e-06
1.80319e-05
2.24761e-06
1.66291e-05
3.06989e-06
1.54413e-05
3.93321e-06
1.43941e-05
4.8032e-06
1.34371e-05
5.65e-06
1.25348e-05
6.44982e-06
1.16625e-05
7.18525e-06
1.08026e-05
7.84395e-06
9.94237e-06
8.41704e-06
9.07303e-06
8.89851e-06
8.19026e-06
9.28579e-06
7.29499e-06
9.58064e-06
6.39338e-06
9.78949e-06
5.49624e-06
9.9239e-06
4.61778e-06
1.00005e-05
3.77417e-06
1.00333e-05
2.98267e-06
1.00434e-05
2.24022e-06
1.00477e-05
1.5369e-06
1.2142e-06
1.00431e-05
1.98432e-07
2.53394e-05
5.37504e-07
2.17118e-05
1.00674e-06
1.92972e-05
1.58631e-06
1.74524e-05
2.25303e-06
1.59625e-05
2.98109e-06
1.47133e-05
3.74505e-06
1.36302e-05
4.52117e-06
1.2661e-05
5.28841e-06
1.17676e-05
6.02909e-06
1.09218e-05
6.72905e-06
1.01026e-05
7.37707e-06
9.29432e-06
7.96427e-06
8.4858e-06
8.48398e-06
7.67051e-06
8.93218e-06
6.84674e-06
9.30813e-06
6.01739e-06
9.61482e-06
5.18949e-06
9.85873e-06
4.3738e-06
1.00478e-05
3.58512e-06
1.01979e-05
2.83267e-06
1.03155e-05
2.12258e-06
1.04051e-05
1.44739e-06
1.11917e-06
1.04998e-05
3.3244e-07
2.50073e-05
7.42248e-07
2.13023e-05
1.23625e-06
1.88033e-05
1.80096e-06
1.68878e-05
2.4207e-06
1.53428e-05
3.0791e-06
1.40549e-05
3.76029e-06
1.29491e-05
4.44955e-06
1.19718e-05
5.13364e-06
1.10835e-05
5.80095e-06
1.02545e-05
6.44155e-06
9.462e-06
7.0469e-06
8.68895e-06
7.6097e-06
7.92297e-06
8.12399e-06
7.15619e-06
8.58556e-06
6.38512e-06
8.99244e-06
5.61046e-06
9.34508e-06
4.83679e-06
9.64645e-06
4.07236e-06
9.90341e-06
3.32812e-06
1.01185e-05
2.61767e-06
1.03012e-05
1.93994e-06
1.04573e-05
1.29121e-06
9.86595e-07
1.05896e-05
4.83673e-07
2.45239e-05
9.92345e-07
2.07938e-05
1.5377e-06
1.82582e-05
2.1124e-06
1.63133e-05
2.70839e-06
1.47469e-05
3.31723e-06
1.34462e-05
3.931e-06
1.23353e-05
4.54255e-06
1.13602e-05
5.14541e-06
1.04806e-05
5.73368e-06
9.66619e-06
6.30192e-06
8.89374e-06
6.84496e-06
8.14588e-06
7.35798e-06
7.40993e-06
7.83661e-06
6.67752e-06
8.27737e-06
5.94432e-06
8.678e-06
5.20977e-06
9.03792e-06
4.47681e-06
9.35789e-06
3.75231e-06
9.63907e-06
3.04689e-06
9.88778e-06
2.36904e-06
1.01024e-05
1.72529e-06
1.02822e-05
1.11149e-06
8.02713e-07
1.04658e-05
6.46647e-07
2.38776e-05
1.27243e-06
2.01683e-05
1.88431e-06
1.76465e-05
2.48546e-06
1.57122e-05
3.07435e-06
1.41581e-05
3.64909e-06
1.28715e-05
4.20845e-06
1.1776e-05
4.75173e-06
1.0817e-05
5.27835e-06
9.95402e-06
5.78758e-06
9.15695e-06
6.2783e-06
8.403e-06
6.7489e-06
7.67525e-06
7.19734e-06
6.96145e-06
7.62137e-06
6.25346e-06
8.01881e-06
5.54683e-06
8.38797e-06
4.84055e-06
8.72769e-06
4.13703e-06
9.03789e-06
3.44204e-06
9.32013e-06
2.7646e-06
9.57176e-06
2.11746e-06
9.7931e-06
1.50399e-06
9.98838e-06
9.16123e-07
6.31491e-07
1.01593e-05
8.18041e-07
2.30598e-05
1.56375e-06
1.94228e-05
2.25101e-06
1.69593e-05
2.88806e-06
1.50753e-05
3.47994e-06
1.35663e-05
4.03101e-06
1.23204e-05
4.54592e-06
1.12611e-05
5.02949e-06
1.03334e-05
5.4862e-06
9.4973e-06
5.91985e-06
8.72328e-06
6.33326e-06
7.98957e-06
6.72819e-06
7.2803e-06
7.10539e-06
6.58421e-06
7.46484e-06
5.89397e-06
7.80598e-06
5.20564e-06
8.12804e-06
4.51844e-06
8.43031e-06
3.83469e-06
8.71216e-06
3.16011e-06
8.97148e-06
2.50523e-06
9.21044e-06
1.87855e-06
9.42241e-06
1.29198e-06
9.60596e-06
7.32605e-07
4.45672e-07
9.79148e-06
9.88623e-07
2.20715e-05
1.85259e-06
1.8559e-05
2.6145e-06
1.61976e-05
3.29023e-06
1.43996e-05
3.89005e-06
1.29665e-05
4.42373e-06
1.17868e-05
4.9012e-06
1.07837e-05
5.33214e-06
9.90246e-06
5.72546e-06
9.10397e-06
6.08885e-06
8.35988e-06
6.42854e-06
7.64985e-06
6.74927e-06
6.95953e-06
7.05438e-06
6.27907e-06
7.34593e-06
5.60237e-06
7.62506e-06
4.92646e-06
7.89215e-06
4.2513e-06
8.14696e-06
3.57981e-06
8.38872e-06
2.91827e-06
8.61784e-06
2.27607e-06
8.82779e-06
1.66862e-06
9.01964e-06
1.10016e-06
9.19593e-06
5.56256e-07
2.82873e-07
9.3585e-06
1.1472e-06
2.09244e-05
2.12303e-06
1.75833e-05
2.95686e-06
1.53638e-05
3.66937e-06
1.36872e-05
4.27717e-06
1.23588e-05
4.79557e-06
1.12684e-05
5.23947e-06
1.03398e-05
5.62293e-06
9.519e-06
5.95865e-06
8.76824e-06
6.25762e-06
8.06088e-06
6.52895e-06
7.3785e-06
6.77985e-06
6.70859e-06
7.0158e-06
6.04309e-06
7.24074e-06
5.37738e-06
7.45734e-06
4.70982e-06
7.66715e-06
4.04144e-06
7.87086e-06
3.37603e-06
8.06816e-06
2.7209e-06
8.25691e-06
2.08727e-06
8.4359e-06
1.48967e-06
8.60258e-06
9.33446e-07
8.75339e-06
4.05474e-07
1.16489e-07
8.91958e-06
1.29445e-06
1.96301e-05
2.37178e-06
1.65061e-05
3.26765e-06
1.4468e-05
4.01065e-06
1.29442e-05
4.62262e-06
1.17468e-05
5.12426e-06
1.07668e-05
5.53534e-06
9.92866e-06
5.87409e-06
9.18024e-06
6.15659e-06
8.48571e-06
6.39657e-06
7.82086e-06
6.6054e-06
7.16964e-06
6.79219e-06
6.52177e-06
6.96406e-06
5.87118e-06
7.12643e-06
5.21497e-06
7.28328e-06
4.55292e-06
7.43736e-06
3.88731e-06
7.59013e-06
3.2232e-06
7.74212e-06
2.56885e-06
7.8932e-06
1.93614e-06
8.038e-06
1.34488e-06
8.17661e-06
7.94839e-07
8.30825e-06
2.73778e-07
-1.03089e-08
8.43484e-06
1.42978e-06
1.82003e-05
2.59825e-06
1.53376e-05
3.54752e-06
1.35188e-05
4.31153e-06
1.21802e-05
4.9194e-06
1.1139e-05
5.39846e-06
1.02877e-05
5.77384e-06
9.55326e-06
6.06785e-06
8.88621e-06
6.29955e-06
8.25398e-06
6.48485e-06
7.63553e-06
6.63666e-06
7.01779e-06
6.76533e-06
6.39306e-06
6.87903e-06
5.75743e-06
6.98417e-06
5.10979e-06
7.08569e-06
4.45135e-06
7.18734e-06
3.78562e-06
7.29177e-06
3.11872e-06
7.40033e-06
2.46024e-06
7.51121e-06
1.82522e-06
7.62488e-06
1.23123e-06
7.73642e-06
6.83251e-07
7.83813e-06
1.72043e-07
-1.27819e-07
7.95546e-06
1.56329e-06
1.66371e-05
2.81597e-06
1.40849e-05
3.80649e-06
1.25282e-05
4.57846e-06
1.14082e-05
5.16986e-06
1.05475e-05
5.61634e-06
9.84122e-06
5.94944e-06
9.22012e-06
6.19577e-06
8.63985e-06
6.37702e-06
8.07269e-06
6.51053e-06
7.50198e-06
6.61001e-06
6.91828e-06
6.68621e-06
6.31682e-06
6.74764e-06
5.69597e-06
6.80108e-06
5.05631e-06
6.85207e-06
4.40033e-06
6.90515e-06
3.73249e-06
6.96391e-06
3.05992e-06
7.03074e-06
2.39335e-06
7.10697e-06
1.74896e-06
7.18932e-06
1.14886e-06
7.27473e-06
5.97825e-07
7.35848e-06
8.82431e-08
-2.13784e-07
7.44425e-06
1.70635e-06
1.49306e-05
3.04379e-06
1.27474e-05
4.06639e-06
1.15055e-05
4.82897e-06
1.06456e-05
5.38543e-06
9.99101e-06
5.78398e-06
9.44262e-06
6.06425e-06
8.93982e-06
6.25723e-06
8.44683e-06
6.38656e-06
7.94332e-06
6.47006e-06
7.41845e-06
6.52113e-06
6.86717e-06
6.55e-06
6.28793e-06
6.56463e-06
5.68131e-06
6.57152e-06
5.0494e-06
6.57626e-06
4.39555e-06
6.58396e-06
3.72476e-06
6.59946e-06
3.04437e-06
6.62693e-06
2.36584e-06
6.66777e-06
1.70808e-06
6.72294e-06
1.09369e-06
6.78581e-06
5.34903e-07
6.84505e-06
2.89288e-08
-2.9446e-07
6.92562e-06
1.88576e-06
1.30447e-05
3.31844e-06
1.13146e-05
4.35813e-06
1.04657e-05
5.08598e-06
9.91765e-06
5.58164e-06
9.49528e-06
5.91149e-06
9.11272e-06
6.12499e-06
8.72627e-06
6.25716e-06
8.31462e-06
6.33228e-06
7.86816e-06
6.36715e-06
7.38354e-06
6.37355e-06
6.86075e-06
6.35998e-06
6.30147e-06
6.3329e-06
5.70836e-06
6.29772e-06
5.08455e-06
6.25952e-06
4.43374e-06
6.22372e-06
3.76054e-06
6.19633e-06
3.07173e-06
6.18407e-06
2.37806e-06
6.19294e-06
1.69917e-06
6.22233e-06
1.06427e-06
6.26404e-06
4.93146e-07
6.3074e-06
-1.44501e-08
-3.4212e-07
6.35487e-06
2.13838e-06
1.09061e-05
3.68808e-06
9.76467e-06
4.72286e-06
9.43083e-06
5.37615e-06
9.26426e-06
5.77416e-06
9.0972e-06
6.00884e-06
8.87798e-06
6.13978e-06
8.59529e-06
6.20379e-06
8.25056e-06
6.22329e-06
7.84863e-06
6.21186e-06
7.39494e-06
6.17799e-06
6.89459e-06
6.12719e-06
6.35226e-06
6.06341e-06
5.77212e-06
5.99007e-06
5.15787e-06
5.91097e-06
4.51281e-06
5.83127e-06
3.84022e-06
5.75857e-06
3.14439e-06
5.70318e-06
2.43342e-06
5.67492e-06
1.72738e-06
5.67857e-06
1.06061e-06
5.70025e-06
4.71415e-07
5.72131e-06
-3.56572e-08
-3.79468e-07
5.75857e-06
2.51918e-06
8.38663e-06
4.2144e-06
8.06926e-06
5.1964e-06
8.44868e-06
5.71379e-06
8.74677e-06
5.96745e-06
8.84345e-06
6.07913e-06
8.76624e-06
6.11437e-06
8.55999e-06
6.1067e-06
8.25819e-06
6.07258e-06
7.88273e-06
6.01977e-06
7.44772e-06
5.95177e-06
6.96257e-06
5.86996e-06
6.43405e-06
5.77487e-06
5.86719e-06
5.66703e-06
5.2657e-06
5.548e-06
4.63183e-06
5.42178e-06
3.96641e-06
5.2969e-06
3.26925e-06
5.18833e-06
2.54196e-06
5.11759e-06
1.79809e-06
5.09203e-06
1.08612e-06
5.08868e-06
4.74682e-07
5.08835e-06
-3.53115e-08
-3.88759e-07
5.09744e-06
3.08477e-06
5.30166e-06
4.94347e-06
6.21039e-06
5.78174e-06