/*--------------------------------*- C++ -*----------------------------------*\
  =========                 |
  \\      /  F ield         | OpenFOAM: The Open Source CFD Toolbox
   \\    /   O peration     | Website:  https://openfoam.org
    \\  /    A nd           | Version:  13
     \\/     M anipulation  |
\*---------------------------------------------------------------------------*/
FoamFile
{
    format      ascii;
    class       volScalarField;
    location    "2.2";
    object      rho;
}
// * * * * * * * * * * * * * * * * * * * * * * * * * * * * * * * * * * * * * //

dimensions      [1 -3 0 0 0 0 0];

internalField   nonuniform List<scalar> 
2268
(
13529
13529
13529
13529
13529
13529
13529
13529
13529
13529
13529
13529
13529
13529
13529
13529
13529
13529
13529
13527
13523.5
13521.6
13521.6
13529
13529
13529
13529
13529
13529
13529
13529
13529
13529
13529
13529
13529
13529
13529
13529
13529
13529
13529
13529
13529
13528.4
13525.6
13529
13529
13529
13529
13529
13529
13529
13529
13529
13529
13529
13529
13529
13529
13529
13529
13529
13529
13529
13529
13529
13529
13529
13529
13529
13529
13529
13529
13529
13529
13529
13529
13529
13529
13529
13529
13529
13529
13529
13529
13529
13529
13529
13529
13529
13529
13529
13529
13529
13529
13529
13529
13529
13529
13529
13529
13529
13529
13529
13529
13529
13529
13529
13529
13529
13529
13529
13529
13529
13529
13529
13529
13529
13529
13529
13529
13529
13529
13529
13529
13235.3
12470.1
11577.2
10597
9600.19
8785.02
8184.25
7770.36
7515.57
7422.79
7544.6
7654.89
12953
13203.5
13367.9
13398.1
13313.9
13201.8
12943.2
12237.5
10920
9004.74
6712.89
4684.02
3262.35
2236.62
1612.82
1342.59
1200.27
1121.08
1078.58
1057.69
1050.38
1054.48
1060.85
4927.23
5821.68
6684.21
6875.86
6542.63
5554.51
4242.81
2955.66
1895.52
1229.74
1005.7
1000
1000
1000
1000
1000
999.998
999.984
999.971
999.95
999.914
999.853
999.566
11923
11937.1
11945.2
11953.4
11952.9
11945.4
11815.8
9667.39
8757.99
8768.06
8838.66
8659.69
8277.36
8272.59
9419.53
10329
10335.8
10289.2
10290.8
7722.42
7892.6
8060.75
7729.86
7696.96
8965.24
9470.03
10618.6
11382.3
11379.8
11326.3
11229.3
10090.4
10126.1
10289.4
10324.9
10329.3
10289.8
10290
2818.16
2542.01
2279.02
2219.68
2858.38
2484.72
2903.96
3847.86
5038.38
7142.77
8873.01
9548.11
9904.48
10124.7
10228.3
10240.5
10268.5
10288.4
9752.01
3115.61
3202.5
2577.52
2653.72
1859.22
1345.25
1059.7
990.828
1059.14
1078.45
1309.63
3232.13
4424
4165.03
5180.49
6460.78
6983.73
7733.29
7176.89
2675.01
2800.67
2781.18
2765.72
2040.41
1431
1377.78
1476.35
1442.03
1038.28
958.473
451.813
2274.94
3247.18
3252.16
2826.32
3565.77
3562.42
5646.91
2018.44
2003.85
2109
1694.5
1998.64
1900.38
1713.71
2011.53
1750.27
1034.68
1006.19
698.077
302.855
1359.03
1831.28
2204.13
2489.88
2732.86
1838.77
1065.49
997.628
1121.39
1232.49
1487.84
1872.8
1953.87
1123.07
1015.13
1004.17
1001.63
969.09
596.771
368.806
433.57
770.702
810.185
741.632
905.661
1032.27
937.281
1035.32
967.93
1011.52
1304.3
932.797
999.541
999.57
1000.86
1001.11
1000.26
981.177
870.6
850.511
940.084
985.885
999.464
736.812
1000
1000
1000
999.997
1000
1000
1000
1000
1000
1000
1000
1000
1000
1000
1000
1000
1000
999.999
1000
1000
999.999
999.999
999.989
1000
1000
999.999
999.984
999.999
1000
1000
1000
1000
1000
1000
1000
1000
1000
1000
1000
1000
1000
999.862
982.863
971.927
957.162
965.061
1000
1000
999.998
999.583
999.862
999.993
1000
1000
1000
1000
1000
1000
1000
999.999
992.863
978.455
966.644
931.044
858.767
817.741
691.082
639.391
569.801
994.513
991.32
992.108
996.789
998.652
999.897
999.772
999.165
998.971
992.517
982.379
966.272
933.54
871.672
812.54
741.689
651.564
562.25
484.922
468.871
492.642
468.782
423.761
822.33
826.255
829.083
812.635
805.022
804.823
845.764
816.606
783.639
747.87
687.345
636.715
564.819
482.128
436.641
445.897
426.285
431.328
493.179
499.15
498.89
473.735
463.259
499.44
500.101
503.611
506.119
509.051
511.935
512.105
479.004
475.354
476.33
459.061
443.529
442.755
470.483
490.092
489.662
484.652
489.916
499.993
499.95
498.948
498.508
500.105
367.395
398.392
446.584
477.144
495.489
499.738
499.668
499.592
499.685
499.901
499.922
499.906
499.965
500
500
500
500
500
499.992
499.959
499.957
500.005
500.007
117.489
81.7903
84.0548
137.492
220.307
317.588
402.208
466.318
497.683
499.997
499.998
499.999
500
500
500
500
500
500
500
500
500
500
500
1.03111
1.0062
1.02183
1.01663
1.30535
11.353
42.259
90.6773
159.649
257.829
365.404
453.084
488.929
492.112
491.061
492.84
494.785
495.224
494.299
490.626
488.765
488.257
487.538
1.00057
1.0004
1.00035
1.03226
1.06253
1.00647
1.00266
1.00243
1.00365
1.98342
11.8989
31.9011
58.7655
96.9144
148.664
191.678
206.842
208.018
188.465
145.2
126.474
115.78
56.3488
1.00056
1.00173
1.00432
1.03755
1.07327
1.0293
1.00009
1.00008
1.00085
1.0016
1.00294
1.00234
1.00119
1.00097
1.00092
1.00001
1.00004
1.00004
1.00002
1.00001
1
1
1
1.00057
1.00186
1.00448
1.0168
1.014
1.00963
1.00113
1.00002
1.00002
1.00001
1.00001
1.00001
1.00005
1.00022
1.00034
1.00031
1.00003
1
1.00002
1.00003
1.00002
1.00003
1.00003
1.00039
1.00091
1.00063
1.00002
1.00004
1.00002
1.00046
1.00905
1.04233
1.06748
1.03634
1.00163
1
1
1
1.00001
1.00004
1.00007
1.00005
1.00004
1.00005
1.00004
1.00004
1.00025
1.00029
1.00017
1.00008
1.00005
1.00004
1.00004
1.01307
1.08185
1.08244
1.08324
1.05624
1.00219
1.00031
1.00001
1.00004
1.00016
1.00019
1.00012
1.0001
1.00009
1.00007
1.00006
1.00016
1.00013
1.00009
1.00008
1.00008
1.00009
1.00005
1.00453
1.06786
1.08275
1.08395
1.05126
1.00334
1.00213
1.00146
1.00162
1.00133
1.00045
1.00021
1.00016
1.00013
1.00011
1.00008
1.00009
1.00009
1.00006
1.00006
1.00007
1.00009
1.00011
1.00053
1.00607
1.03792
1.03514
1.00862
1.00323
1.00318
1.00308
1.0029
1.00213
1.00061
1.00027
1.00018
1.00015
1.00012
1.00009
1.00006
1.00006
1.00005
1.00004
1.00005
1.00006
1.00008
1.00016
1.0004
1.00048
1.00056
1.00093
1.00207
1.00286
1.00243
1.00161
1.00094
1.0004
1.00023
1.00015
1.00012
1.0001
1.00008
1.00005
1.00005
1.00004
1.00003
1.00003
1.00003
1.00004
1.00004
1.00005
1.00005
1.00012
1.00048
1.0011
1.00113
1.00066
1.00036
1.00018
1.00016
1.00012
1.00009
1.00008
1.00007
1.00005
1.00004
1.00005
1.00004
1.00003
1.00002
1.00002
1.00002
1.00002
1.00002
1.00005
1.00015
1.00039
1.00049
1.00037
1.00013
1.00006
1.00006
1.00006
1.00005
1.00005
1.00004
1.00004
1.00003
1.00004
1.00004
1.00004
1.00003
1.00002
1.00001
1.00001
1.00001
1.00002
1.00004
1.00008
1.00019
1.0002
1.0001
1.00004
1.00003
1.00003
1.00003
1.00002
1.00002
1.00002
1.00002
1.00002
1.00004
1.00004
1.00004
1.00003
1.00002
1.00001
1.00001
1.00001
1.00001
1.00002
1.00003
1.00004
1.00004
1.00003
1.00002
1.00001
1.00001
1.00001
1.00001
1.00001
1.00001
1.00001
1.00001
1.00003
1.00003
1.00003
1.00002
1.00002
1.00001
1.00001
1.00001
1.00001
1.00001
1.00001
1.00001
1.00001
1.00001
1.00001
1.00001
1.00001
1.00001
1.00001
1.00001
1.00001
1
1
1.00003
1.00003
1.00003
1.00002
1.00002
1.00001
1.00001
1
1
1
1
1
1
1
1
1
1
1
1
1
1
1
1
1.00003
1.00002
1.00002
1.00002
1.00001
1.00001
1.00001
1
1
1
1
1
1
1
1
1
1
1
1
1
1
1
1
1.00002
1.00002
1.00002
1.00001
1.00001
1.00001
1
1
1
1
1
1
1
1
1
1
1
1
1
1
1
1
1
1.00002
1.00001
1.00001
1.00001
1.00001
1
1
1
1
1
1
1
1
1
1
1
1
1
1
1
1
1
1
1.00001
1.00001
1.00001
1.00001
1
1
1
1
1
1
1
1
1
1
1
1
1
1
1
1
1
1
1
1.00001
1.00001
1.00001
1
1
1
1
1
1
1
1
1
1
1
1
1
1
1
1
1
1
1
1
1.00001
1.00001
1
1
1
1
1
1
1
1
1
1
1
1
1
1
1
1
1
1
1
1
1
1.00001
1
1
1
1
1
1
1
1
1
1
1
1
1
1
1
1
1
1
1
1
1
1
1
1
1
1
1
1
1
1
1
1
1
1
1
1
1
1
1
1
1
1
1
1
1
1
1
1
1
1
1
1
1
1
1
1
1
1
1
1
1
1
1
1
1
1
1
1
1
1
1
1
1
1
1
1
1
1
1
1
1
1
1
1
1
1
1
1
1
1
1
1
1
1
1
1
1
1
1
1
1
1
1
1
1
1
1
1
1
1
1
1
1
1
1
1
1
1
1
1
1
1
1
1
1
1
1
1
1
1
1
1
1
1
1
1
1
1
1
1
1
1
1
1
1
1
1
1
1
1
1
1
1
1
1
1
1
1
1
1
1
1
1
1
1
1
1
1
1
1
1
1
1
1
1
1
1
1
1
1
1
1
1
1
1
1
1
1
1
1
1
1
1
1
1
1
1
1
1
1
1
1
1
1
1
1
1
1
1
1
1
1
1
1
1
1
1
1
1
1
1
1
1
1
1
1
1
1
1
1
1
1
1
1
1
1
1
1
1
1
1
1
1
1
1
1
1
1
1
1
1
1
1
1
1
1
1
1
1
1
1
1
1
1
1
1
1
1
1
1
1
1
1
1
1
1
1
1
1
1
1
1
1
1
1
1
1
1
1
1
1
1
1
1
1
1
1
1
1267.24
1636.09
1557.36
1518.27
834.884
672.953
646.104
774.2
446.977
415.255
474.751
554.799
426.721
494.562
496.732
485.851
499.346
502.701
501.836
500.798
500.198
500.057
500.001
500.005
500
499.999
500.002
500.007
500.001
500.002
500.003
500.001
489.235
482.688
460.255
429.449
13.8018
14.7692
13.3721
6.56157
1.00001
1.00003
1.00006
1.00008
1.00005
1.00005
1.00006
1.00007
1.00004
1.00004
1.00005
1.00006
1.00004
1.00004
1.00004
1.00004
1.00006
1.00004
1.00004
1.00004
1.00009
1.00004
1.00004
1.00004
1.00007
1.00005
1.00005
1.00004
1.00005
1.00004
1.00003
1.00003
1.00003
1.00002
1.00002
1.00002
1.00001
1.00001
1.00001
1.00001
1.00001
1.00001
1.00001
1.00001
1
1
1
1
1
1
1
1
1
1
1
1
1
1
1
1
1
1
1
1
1
1
1
1
1
1
1
1
1
1
1
1
1
1
1
1
1
1
1
1
1
1
1
1
1
1
1
1
1
1
1
1
1
1
1
1
1
1
1
1
1
1
1
1
1
1
1
1
1
1
1
1
1
1
1
1
1
1
1
1
1
1
1
1
1037.75
902.345
860.948
974.016
931.823
741.973
932.051
993.589
995.804
999.287
1000.51
1000.99
1000.98
1000.3
999.532
1000.08
1000.11
999.491
817.584
818.619
803.577
697.409
536.629
487.441
686.626
743.606
770.671
802.091
852.833
896.267
932.084
957.552
977.384
999.742
1000.69
1000.07
997.638
958.671
523.398
505.298
503.391
493.032
463.983
446.644
449.372
499.551
500.086
502.906
518.243
543.387
569.706
599.422
652.977
747.18
852.153
919.257
943.676
495.26
499.786
500.028
490.042
472.491
488.078
500.04
500.045
500.183
500.066
500.023
500.116
500.2
500.679
501.239
501.92
516.211
606.812
680.093
500.157
499.771
499.701
499.622
500.043
500.008
500.002
500.005
500.003
499.999
500
500.002
499.966
499.952
500.18
500.63
500.933
526.492
560.927
500.004
499.998
499.991
500.005
500.002
500
500
500
500
500.001
500.001
500.001
500.001
500.001
500.001
500.022
501.014
506.117
506.718
500.004
500.001
500.002
500.002
500.002
500.001
500
500
500
500
500
500
500.951
504.493
502.069
491.206
469.73
435.393
405.103
500.001
500.002
500.002
500.002
487.742
467.174
442.768
417.271
393.485
372.818
352.327
313.289
263.133
215.316
177.809
147.281
106.638
65.2757
35.8856
379.049
313.477
251.369
192.729
142.99
105.102
74.827
51.064
33.6179
19.19
6.69343
6.01952
17.6668
25.6293
18.8731
6.09281
1.01662
0.999943
1.00003
3.14719
2.22486
1.94376
1.00205
1.00437
1.02807
1.10872
1.27351
1.70721
3.0734
3.18564
2.56494
1.08785
1.07256
1.0124
1.00023
1.00035
1.00045
1.00027
1.00011
1.00017
1.00038
1.00122
1.00309
1.01669
1.04763
1.10001
1.14536
1.11286
1.05989
1.45674
1.53093
1.29482
1.00343
1.00067
1.00093
1.00058
1.00031
1.0001
1.00023
1.00026
1.00021
1.00022
1.08652
1.49167
1.48747
1.182
1.02433
1.05251
1.45501
1.53011
1.28029
1.00159
1.00064
1.00074
1.00036
1.00029
1.00008
1.00014
1.00019
1.00017
1.00018
1.05929
1.45433
1.49419
1.48753
1.11522
1.00084
1.00179
1.00235
1.00121
1.00042
1.00042
1.00016
1.00011
1.00029
1.00005
1.00007
1.00011
1.00015
1.00018
1.00051
1.00864
1.09575
1.11876
1.02774
1.00111
1.00077
1.00093
1.00041
1.0002
1.00008
1.00003
1.0001
1.00029
1.00004
1.00004
1.00006
1.0001
1.00011
1.00011
1.00008
1.00006
1.00009
1.00011
1.00015
1.00039
1.00033
1.00029
1.00018
1.00004
1.00003
1.0001
1.00019
1.00003
1.00003
1.00003
1.00005
1.00006
1.00008
1.00018
1.00025
1.00022
1.00013
1.00009
1.00017
1.00028
1.0003
1.00017
1.00005
1.00003
1.00004
1.00002
1.00003
1.00002
1.00002
1.00003
1.00002
1.00002
1.00011
1.00027
1.00028
1.00018
1.00007
1.00006
1.00013
1.00016
1.00009
1.00003
1.00002
1.00001
1.00001
1.00002
1.00001
1.00001
1.00001
1.00001
1.00001
1.00001
1.00008
1.00012
1.00008
1.00005
1.00003
1.00004
1.00004
1.00002
1.00001
1.00001
1.00001
1.00001
1.00001
1.00001
1.00001
1.00001
1.00001
1.00001
1.00001
1.00001
1.00001
1.00002
1.00002
1.00002
1.00001
1.00001
1.00001
1.00001
1.00001
1.00001
1.00001
1.00001
1.00001
1.00001
1
1.00001
1.00001
1.00001
1.00001
1.00001
1.00001
1.00001
1.00001
1.00001
1.00001
1.00001
1.00001
1.00001
1.00001
1.00001
1
1
1
1
1
1
1
1
1
1.00001
1
1
1
1
1
1
1.00001
1.00001
1.00001
1
1
1
1
1
1
1
1
1
1
1
1
1
1
1
1
1.00001
1.00001
1.00001
1
1
1
1
1
1
1
1
1
1
1
1
1
1
1
1
1.00001
1.00001
1.00001
1
1
1
1
1
1
1
1
1
1
1
1
1
1
1
1
1.00001
1.00002
1.00002
1
1
1
1
1
1
1
1
1
1
1
1
1
1
1
1
1.00001
1.00003
1.00003
1
1
1
1
1
1
1
1
1
1
1
1
1
1
1
1
1.00001
1.00004
1.00003
1
1
1
1
1
1
1
1
1
1
1
1
1
1
1
1
1.00002
1.00004
1.00004
1
1
1
1
1
1
1
1
1
1
1
1
1
1
1
1.00001
1.00002
1.00005
1.00003
1
1
1
1
1
1
1
1
1
1
1
1
1
1
1
1.00001
1.00002
1.00005
1.00003
1
1
1
1
1
1
1
1
1
1
1
1
1
1
1
1.00001
1.00003
1.00005
1.00002
1
1
1
1
1
1
1
1
1
1
1
1
1
1
1
1.00001
1.00003
1.00005
1.00002
1
1
1
1
1
1
1
1
1
1
1
1
1
1
1
1.00001
1.00002
1.00004
1.00001
1
1
1
1
1
1
1
1
1
1
1
1
1
1
1
1.00001
1.00002
1.00001
1.00001
1
1
1
1
1
1
1
1
1
1
1
1
1
1
1
1.00001
1.00001
1.00001
1
1
1
1
1
1
1
1
1
1
1
1
1
1
1
1
1.00001
1.00001
1
1
1
1
1
1
1
1
1
1
1
1
1
1
1
1
1
1
1
1
1
1
1
1
1
1
1
1
1
1
1
1
1
1
1
1
1
1
1
1
1
1
1
1
1
1
1
1
1
1
1
1
1
1
1
1
1
1
1
1
1
1
1
1
1
1
1
1
1
1
1
1
1
1
1
1
1
1
1
1
1
1
1
1
1
1
1
1
1
1
1
1
1
1
1
1
1
1
1
1
1
1
1
1
1
1
1
1
1
1
1
1
1
1
1
1
1
1
1
1
1
1
1
1
1
1
1
1
1
1
1
1
1
1
1
)
;

boundaryField
{
    leftWall
    {
        type            calculated;
        value           nonuniform List<scalar> 
50
(
13529
13529
13529
13529
13529
13529
12953
4927.23
1000
1000
1000
994.513
822.33
499.44
367.395
117.489
1.03111
1.00057
1.00056
1.00057
1.00039
1.00025
1.00016
1.00009
1.00006
1.00005
1.00004
1.00004
1.00004
1.00003
1.00003
1.00003
1.00002
1.00002
1.00001
1.00001
1.00001
1.00001
1
1
1
1
1
1
1
1
1
1
1
1
)
;
    }
    rightWall
    {
        type            calculated;
        value           nonuniform List<scalar> 
50
(
10290.8
10290
9752.01
7176.89
5646.91
1838.77
905.661
736.812
817.584
958.671
943.676
680.093
560.927
506.718
405.103
35.8856
1.00003
1.00027
1.00031
1.00029
1.00029
1.00029
1.00019
1.00002
1.00001
1.00001
1.00001
1.00001
1.00001
1.00001
1.00001
1.00002
1.00003
1.00003
1.00004
1.00003
1.00003
1.00002
1.00002
1.00001
1.00001
1
1
1
1
1
1
1
1
1
)
;
    }
    lowerWall
    {
        type            calculated;
        value           nonuniform List<scalar> 
62
(
13529
13529
13529
13529
13529
13529
13529
13529
13529
13529
13529
13529
13529
13529
13529
13529
13529
13529
13529
13527
13523.5
13521.6
13521.6
13521.6
13525.6
13529
13529
13529
7654.89
1060.85
999.566
1267.24
1636.09
1557.36
1518.27
11923
7722.42
2818.16
3115.61
2675.01
2018.44
1065.49
1032.27
11923
11937.1
11945.2
11953.4
11952.9
11945.4
11815.8
9667.39
8757.99
8768.06
8838.66
8659.69
8277.36
8272.59
9419.53
10329
10335.8
10289.2
10290.8
)
;
    }
    atmosphere
    {
        type            calculated;
        value           nonuniform List<scalar> 
46
(
1
1
1
1
1
1
1
1
1
1
1
1
1
1
1
1
1
1
1
1
1
1
1
1
1
1
1
1
1
1
1
1
1
1
1
1
1
1
1
1
1
1
1
1
1
1
)
;
    }
    defaultFaces
    {
        type            empty;
    }
}


// ************************************************************************* //
