/*--------------------------------*- C++ -*----------------------------------*\
  =========                 |
  \\      /  F ield         | OpenFOAM: The Open Source CFD Toolbox
   \\    /   O peration     | Website:  https://openfoam.org
    \\  /    A nd           | Version:  13
     \\/     M anipulation  |
\*---------------------------------------------------------------------------*/
FoamFile
{
    format      ascii;
    class       volScalarField;
    location    "0.25";
    object      alpha.air;
}
// * * * * * * * * * * * * * * * * * * * * * * * * * * * * * * * * * * * * * //

dimensions      [];

internalField   nonuniform List<scalar> 
2268
(
9.44763e-28
2.12869e-25
7.32044e-25
1.43302e-24
1.50403e-24
1.51807e-24
1.62585e-24
1.69064e-24
1.50479e-24
1.04662e-24
5.00084e-25
1.9644e-24
1.27772e-20
5.61821e-20
1.05631e-19
9.5216e-20
8.26226e-20
3.76241e-20
1.07356e-20
3.7995e-21
1.2509e-21
3.47047e-22
4.84434e-23
2.60625e-25
1.74638e-23
3.70759e-23
5.27296e-23
5.37557e-23
5.0115e-23
4.75581e-23
4.38086e-23
3.82431e-23
2.67792e-23
8.87328e-24
1.78827e-22
6.98941e-19
2.87077e-18
4.27664e-18
3.2605e-18
1.76583e-18
1.34898e-18
7.71766e-19
2.8376e-19
4.45305e-20
5.92901e-21
7.57987e-22
5.82251e-23
4.47861e-22
7.73388e-22
1.201e-21
1.1855e-21
1.01335e-21
8.31899e-22
6.68852e-22
5.11063e-22
3.35483e-22
1.03173e-22
8.72484e-21
1.76792e-17
5.73587e-17
8.08441e-17
6.80263e-17
4.36446e-17
1.67729e-17
1.23556e-17
6.55221e-18
1.03519e-18
2.06376e-19
1.70922e-20
1.62179e-21
5.20264e-21
7.70475e-21
1.06684e-20
9.9174e-21
7.83264e-21
5.5423e-21
3.96795e-21
2.70332e-21
1.61052e-21
4.85817e-22
2.69022e-19
2.97568e-16
6.89885e-16
8.7653e-16
1.03622e-15
6.96983e-16
2.89519e-16
1.7649e-16
8.83434e-17
2.41372e-17
4.46509e-18
3.8571e-19
2.62988e-20
4.33029e-20
5.50948e-20
6.58836e-20
5.60255e-20
3.85273e-20
2.38629e-20
1.36644e-20
7.79661e-21
4.16888e-21
1.12425e-21
5.06901e-18
1.40841e-15
5.54529e-15
1.24499e-14
9.45005e-15
5.37463e-15
4.49233e-15
2.51933e-15
6.56828e-16
1.25816e-16
8.83717e-18
4.40358e-19
9.99446e-20
1.18385e-19
1.32285e-19
1.45692e-19
1.20678e-19
7.85163e-20
4.36715e-20
2.19818e-20
1.08424e-20
5.0698e-21
1.17473e-21
3.21564e-17
8.82836e-15
3.41718e-14
1.39924e-13
2.94297e-13
4.11736e-13
3.52791e-13
2.51677e-13
8.01877e-14
6.5173e-15
2.06244e-16
2.65459e-17
1.18752e-19
1.23062e-19
1.28661e-19
1.32904e-19
1.05976e-19
6.39938e-20
3.2907e-20
1.4207e-20
5.31201e-21
1.84792e-21
2.34512e-22
5.53145e-16
8.79327e-14
5.63919e-13
5.41222e-12
1.1935e-11
2.00462e-11
1.4397e-11
8.44986e-12
2.37054e-12
1.98738e-13
3.86392e-15
2.08804e-17
7.20888e-21
4.28626e-21
2.54179e-21
1.50893e-21
1.20555e-21
7.39746e-22
8.87674e-22
1.01445e-22
1.77159e-22
1.01454e-22
1.77166e-22
7.75683e-14
8.16442e-13
5.31781e-12
5.03378e-11
1.12802e-10
1.28342e-10
1.00743e-10
5.20346e-11
1.59026e-11
1.01174e-12
7.0057e-15
1.82827e-17
0.402301
0.144622
0.135133
0.0901582
0.0243351
0.00291595
3.84389e-11
0.00348512
0.00932231
0.014787
0.0162035
0.0155347
0.024073
0.0843298
0.132244
0.132244
0.132244
0.0960346
0.0145521
0.767198
0.946144
0.824605
0.433627
0.15667
0.00621311
3.04696e-11
3.84389e-11
9.71156e-11
1.87003e-10
1.84843e-10
1.83879e-10
1.87248e-10
1.92291e-10
0.000222415
0.00703187
0.029228
0.0203505
0.015458
1
1
1
0.933035
0.407701
0.00748707
2.66104e-11
1.44302e-10
2.77858e-10
4.6325e-10
6.53647e-10
7.79699e-10
8.16013e-10
7.95809e-10
1.44057e-08
1.16369e-08
1.49181e-08
1.74664e-08
0.0129547
1
1
1
0.967904
0.354909
0.00502564
2.41574e-11
1.44029e-10
2.72259e-10
3.53769e-10
5.279e-10
7.63207e-10
8.55593e-10
8.604e-10
6.35216e-10
1.03657e-10
8.77517e-08
8.90495e-09
0.0056862
1
1
1
0.998738
0.149696
1.21166e-08
2.17778e-11
6.44664e-11
8.75415e-11
1.43748e-10
2.94117e-10
5.47643e-10
7.2036e-10
7.25536e-10
5.62074e-10
1.56456e-10
8.82701e-07
4.66406e-06
1.73966e-06
1
1
1
0.636861
0.0444766
3.34796e-12
1.61024e-11
2.42449e-11
3.64184e-11
9.40618e-11
2.54085e-10
5.21083e-10
7.08173e-10
6.99369e-10
5.62068e-10
2.35759e-10
7.68168e-07
7.10157e-06
1.8378e-06
1
1
0.997696
0.210558
3.40329e-12
2.82614e-12
1.44203e-11
2.2885e-11
3.90789e-11
1.05103e-10
2.82944e-10
5.50794e-10
7.46774e-10
6.59128e-10
5.86149e-10
3.0514e-10
-1.01226e-10
5.10213e-06
1.18298e-06
1
1
0.554419
0.0196035
-5.53234e-14
3.34796e-12
9.95235e-12
1.93421e-11
6.99419e-11
2.00332e-10
4.08281e-10
6.07258e-10
9.19189e-10
8.33051e-10
2.2201e-09
3.32682e-11
6.64475e-10
3.83116e-11
2.25069e-08
7.33679e-13
6.9154e-13
5.72528e-13
4.83429e-13
4.93952e-13
5.41942e-13
6.26582e-13
7.59603e-13
1.94933e-12
3.05651e-12
3.67556e-12
4.70344e-12
1.20846e-11
4.63568e-11
1.55377e-10
3.53323e-10
4.39414e-10
4.18012e-10
2.75e-10
9.17243e-11
1.6095e-11
3.65288e-13
1.26021e-15
1.35389e-11
1.41148e-11
1.18111e-11
1.04206e-11
1.04335e-11
1.10957e-11
1.23203e-11
1.42697e-11
1.63395e-11
1.88904e-11
1.97143e-11
1.8646e-11
6.16901e-11
1.54744e-10
3.71994e-10
7.49534e-10
1.23076e-09
1.20713e-09
8.66967e-10
4.13953e-10
4.86341e-11
2.69417e-12
3.03305e-14
4.72831e-11
5.2816e-11
4.45323e-11
4.05786e-11
4.02425e-11
4.26501e-11
4.67242e-11
5.26627e-11
5.94293e-11
6.84062e-11
6.91671e-11
5.16983e-11
3.16512e-10
4.66461e-10
6.84123e-10
1.1653e-09
2.16256e-09
3.10467e-09
2.43516e-09
1.39164e-09
2.31478e-10
6.09102e-12
6.64577e-13
1.52317e-10
1.75166e-10
1.51821e-10
1.39152e-10
1.37556e-10
1.45842e-10
1.52085e-10
1.68016e-10
1.9357e-10
2.1904e-10
2.06986e-10
1.05398e-10
3.14242e-09
1.43401e-09
1.02091e-09
1.15177e-09
6.65541e-09
1.51362e-08
1.04213e-08
3.97337e-09
2.24893e-10
1.10759e-12
7.4064e-14
4.38875e-10
4.92751e-10
4.28947e-10
3.92473e-10
3.8658e-10
4.10468e-10
4.30846e-10
4.72906e-10
5.20945e-10
5.66221e-10
5.05143e-10
1.68514e-10
9.28452e-09
1.58729e-09
1.75299e-09
9.98194e-10
3.908e-08
6.06957e-08
3.49367e-08
1.98711e-09
1.9136e-13
1.93241e-13
7.23873e-14
9.44663e-10
1.03485e-09
9.35329e-10
9.17774e-10
9.14183e-10
9.43211e-10
9.75084e-10
1.03134e-09
1.08152e-09
1.0766e-09
8.85146e-10
2.35318e-10
1.92172e-10
7.27806e-07
3.82326e-06
2.61331e-06
8.14129e-07
6.48186e-08
2.15147e-09
4.90859e-13
4.76522e-13
4.30658e-13
2.54956e-13
1.65159e-09
1.74496e-09
1.61082e-09
1.53091e-09
1.51174e-09
1.51692e-09
1.4869e-09
1.57028e-09
1.59352e-09
1.49661e-09
1.16215e-09
5.6649e-10
1.82889e-10
4.22065e-06
2.12001e-05
2.19643e-05
4.83475e-06
-1.0261e-19
1.76289e-11
2.86602e-11
2.9131e-11
2.89153e-11
3.12948e-11
1.66881e-09
1.88646e-09
1.73565e-09
1.72151e-09
1.68006e-09
1.58527e-09
1.49763e-09
2.55333e-09
2.63066e-09
2.30245e-09
1.20902e-09
5.94853e-10
2.78005e-10
2.64576e-09
1.81318e-05
2.17445e-05
9.82022e-06
1.12871e-11
1.07686e-10
2.75397e-10
3.42146e-10
3.77821e-10
4.58461e-10
1.96007e-09
1.97932e-09
1.81562e-09
2.0445e-09
1.82352e-09
1.64983e-09
1.61015e-09
2.76454e-09
2.79705e-09
1.90667e-09
1.9146e-09
3.39706e-09
4.24388e-07
0.00111183
7.30534e-06
7.10695e-06
1.61677e-06
3.78764e-09
1.10694e-10
5.17911e-10
7.79331e-10
9.88183e-10
1.03671e-09
0.00522307
0.00267438
0.00103537
0.00074065
0.000857628
0.00206877
0.00584794
0.0152296
0.0336184
0.0647322
0.117322
0.149678
0.128493
0.0965021
0.0212889
1.41682e-05
2.33164e-07
2.60872e-09
1.80899e-09
1.65974e-09
1.41267e-10
5.6304e-09
3.87279e-09
0.551771
0.517288
0.486434
0.475049
0.479313
0.504717
0.554358
0.621187
0.696193
0.772666
0.852473
0.887808
0.86418
0.797473
0.406356
0.11297
0.0370139
0.0174781
0.0112717
0.0109529
0.017046
0.0368632
0.0847468
1
1
1
1
1
1
1
1
1
1
1
1
0.99971
0.99127
0.971566
0.85251
0.715638
0.635076
0.597361
0.594202
0.627073
0.707594
0.821022
1
1
1
1
1
1
1
1
1
1
1
1
0.999345
1
1
0.999844
0.999886
0.999965
0.999992
0.999998
1
1
1
1
1
1
1
1
1
1
1
1
1
1
1
0.999943
0.999983
1
1
1
0.999993
0.999995
0.999999
1
1
1
1
1
1
1
1
1
1
1
1
1
1
1
1
1
1
1
1
1
1
1
1
1
1
1
1
1
1
1
1
1
1
1
1
1
1
1
1
1
1
1
1
1
1
1
1
1
1
1
1
1
1
1
1
1
1
1
1
1
1
1
1
1
1
1
1
1
1
1
1
1
1
1
1
1
1
1
1
1
1
1
1
1
1
1
1
1
1
1
1
1
1
1
1
1
1
1
1
1
1
1
1
1
1
1
1
1
1
1
1
1
1
1
1
1
1
1
1
1
1
1
1
1
1
1
1
1
1
1
1
1
1
1
1
1
1
1
1
1
1
1
1
1
1
1
1
1
1
1
1
1
1
1
1
1
1
1
1
1
1
1
1
1
1
1
1
1
1
1
1
1
1
1
1
1
1
1
1
1
1
1
1
1
1
1
1
1
1
1
1
1
1
1
1
1
1
1
1
1
1
1
1
1
1
1
1
1
1
1
1
1
1
1
1
1
1
1
1
1
1
1
1
1
1
1
1
1
1
1
1
1
1
1
1
1
1
1
1
1
1
1
1
1
1
1
1
1
1
1
1
1
1
1
1
1
1
1
1
1
1
1
1
1
1
1
1
1
1
1
1
1
1
1
1
1
1
1
1
1
1
1
1
1
1
1
1
1
1
1
1
1
1
1
1
1
1
1
1
1
1
1
1
1
1
1
1
1
1
1
1
1
1
1
1
1
1
1
1
1
1
1
1
1
1
1
1
1
1
1
1
1
1
1
1
1
1
1
1
1
1
1
1
1
1
1
1
1
1
1
1
1
1
1
1
1
1
1
1
1
1
1
1
1
1
1
1
1
1
1
1
1
1
1
1
1
1
1
1
1
1
1
1
1
1
1
1
1
1
1
1
1
1
1
1
1
1
1
1
1
1
1
1
1
1
1
1
1
1
1
1
1
1
1
1
1
1
1
1
1
1
1
1
1
1
1
1
1
1
1
1
1
1
1
1
1
1
1
1
1
1
1
1
1
1
1
1
1
1
1
1
1
1
1
1
1
1
1
1
1
1
1
1
1
1
1
1
1
1
1
1
1
1
1
1
1
1
1
1
1
1
1
1
1
1
1
1
1
1
1
1
1
1
1
1
1
1
1
1
1
1
1
1
1
1
1
1
1
1
1
1
1
1
1
1
1
1
1
1
1
1
1
1
1
1
1
1
1
1
1
1
1
1
1
1
1
1
1
1
1
1
1
1
1
1
1
1
1
1
1
1
1
1
1
1
1
1
1
1
1
1
1
1
1
1
1
1
1
1
1
1
1
1
1
1
1
1
1
1
1
1
1
1
1
1
1
1
1
1
1
1
1
1
1
1
1
1
1
1
1
1
1
1
1
1
1
1
1
1
1
1
1
1
1
1
1
1
1
1
1
1
1
1
1
1
1
1
1
1
1
1
1
1
1
1
1
1
1
1
1
1
1
1
1
1
1
1.08542e-20
0.046691
0.291403
0.668703
9.97285e-21
0.0026353
0.0414035
0.108126
1.45727e-18
9.76677e-07
0.000387155
0.00469539
8.28339e-21
4.99993e-21
6.69629e-21
7.14862e-05
3.31457e-15
8.93628e-18
5.04462e-21
5.93867e-21
1.56263e-13
1.57046e-13
1.77205e-13
2.42798e-13
3.63395e-11
4.32078e-11
5.55852e-11
9.1763e-11
5.38772e-10
6.04606e-10
6.79402e-10
8.52394e-10
1.02166e-09
9.48436e-10
9.51729e-10
1.03461e-09
9.35296e-09
2.11045e-08
8.64581e-09
6.99937e-09
0.137594
0.193717
0.289646
0.378826
0.911005
0.972644
1
1
1
1
1
1
1
1
1
1
1
0.999998
0.999999
0.999996
0.999999
0.999998
0.999998
0.999999
1
0.999998
1
1
1
1
1
1
1
1
1
1
1
1
1
1
1
1
1
1
1
1
1
1
1
1
1
1
1
1
1
1
1
1
1
1
1
1
1
1
1
1
1
1
1
1
1
1
1
1
1
1
1
1
1
1
1
1
1
1
1
1
1
1
1
1
1
1
1
1
1
1
1
1
1
1
1
1
1
1
1
1
1
1
1
1
1
1
1
1
1
1
1
1
1
1
1
1
1
1
1
1
1
1
1
0.716323
0.0438727
3.0406e-09
1.7424e-11
8.27753e-12
1.40249e-11
6.25915e-11
1.97473e-10
3.93724e-10
5.34611e-10
7.24844e-10
8.19064e-10
9.08235e-10
2.10059e-09
0.0236772
0.217888
0.0642758
0.0125035
0.167993
0.0114785
3.25413e-08
1.47798e-09
2.76275e-10
8.35035e-11
9.24655e-11
2.07599e-10
3.80919e-10
5.97979e-10
6.68609e-10
7.40492e-10
0.00395754
0.112888
0.548762
0.870438
0.97014
0.771346
0.0572522
0.00210547
5.33389e-08
1.87024e-10
8.79133e-10
5.63061e-10
2.71811e-10
2.88381e-10
4.05492e-10
4.18781e-10
6.00361e-10
6.98966e-10
0.0737855
0.434139
0.938094
1
1
1
0.999105
0.051384
2.22817e-07
4.70807e-12
1.13499e-11
4.49095e-11
1.51349e-10
3.38297e-10
4.8864e-10
4.50066e-10
4.92017e-10
7.03052e-10
0.20328
0.759747
1
1
1
1
1
1
0.0700419
3.62453e-13
7.04807e-12
6.90418e-11
2.36562e-10
4.39558e-10
5.59282e-10
5.32195e-10
5.04658e-10
0.0296026
0.395565
0.948653
1
1
1
1
1
1
1
0.834061
1.19057e-11
1.23222e-10
3.63298e-10
5.34442e-10
6.04449e-10
6.03717e-10
6.14985e-10
0.0914402
0.596776
1
1
1
1
1
1
1
1
1
1
2.54134e-10
5.71395e-10
6.9098e-10
6.74207e-10
7.86831e-10
6.55752e-10
0.151234
0.739803
1
1
1
1
1
1
1
1
1
1
1
7.94608e-10
7.69603e-10
2.22322e-09
5.64856e-09
7.80916e-09
0.215286
0.827393
1
1
1
1
1
1
1
1
1
1
1
1
8.01551e-10
7.90611e-10
0.0298375
0.150701
0.444762
0.931654
1
1
1
1
1
1
1
1
1
1
1
1
1
0.00765339
0.207345
0.615856
0.948104
1
1
1
1
1
1
1
1
1
1
1
1
1
1
1
0.581021
0.976042
1
1
0.999998
0.999998
1
1
1
1
1
1
1
1
1
1
1
1
1
1
1
0.999997
0.999998
0.999996
0.999996
1
1
1
1
1
1
1
1
1
1
1
1
1
0.999998
0.999984
0.999984
0.999992
0.999996
0.999999
1
1
1
1
1
1
1
1
1
1
1
1
1
0.999979
0.999976
0.999983
1
1
1
1
1
1
1
1
1
1
1
1
1
1
1
1
0.999978
0.999983
1
1
1
1
1
1
1
1
1
1
1
1
1
1
1
1
1
0.999991
1
1
1
1
1
1
1
1
1
1
1
1
1
1
1
1
1
1
1
1
1
1
1
1
1
1
1
1
1
1
1
1
1
1
1
1
1
1
1
1
1
1
1
1
1
1
1
1
1
1
1
1
1
1
1
1
1
1
1
1
1
1
1
1
1
1
1
1
1
1
1
1
1
1
1
1
1
1
1
1
1
1
1
1
1
1
1
1
1
1
1
1
1
1
1
1
1
1
1
1
1
1
1
1
1
1
1
1
1
1
1
1
1
1
1
1
1
1
1
1
1
1
1
1
1
1
1
1
1
1
1
1
1
1
1
1
1
1
1
1
1
1
1
1
1
1
1
1
1
1
1
1
1
1
1
1
1
1
1
1
1
1
1
1
1
1
1
1
1
1
1
1
1
1
1
1
1
1
1
1
1
1
1
1
1
1
1
1
1
1
1
1
1
1
1
1
1
1
1
1
1
1
1
1
1
1
1
1
1
1
1
1
1
1
1
1
1
1
1
1
1
1
1
1
1
1
1
1
1
1
1
1
1
1
1
1
1
1
1
1
1
1
1
1
1
1
1
1
1
1
1
1
1
1
1
1
1
1
1
1
1
1
1
1
1
1
1
1
1
1
1
1
1
1
1
1
1
1
1
1
1
1
1
1
1
1
1
1
1
1
1
1
1
1
1
1
1
1
1
1
1
1
1
1
1
1
1
1
1
1
1
1
1
1
1
1
1
1
1
1
1
1
1
1
1
1
1
1
1
1
1
1
1
1
1
1
1
1
1
1
1
1
1
1
1
1
1
1
1
1
1
1
1
1
1
1
1
1
1
1
1
1
1
1
1
1
1
1
1
1
1
1
1
1
1
1
1
1
1
1
1
1
1
1
1
1
1
1
1
1
1
1
1
1
1
1
1
1
1
1
1
1
1
1
1
1
1
1
1
1
1
1
1
1
1
1
1
1
1
1
1
1
1
1
1
1
1
1
1
1
1
1
1
1
1
1
1
1
1
1
1
1
1
1
1
1
1
1
1
1
1
1
1
1
1
1
1
1
1
1
1
1
1
1
1
1
1
1
1
1
1
1
1
1
1
1
1
1
1
1
1
1
1
1
1
1
1
1
1
1
1
1
1
1
1
1
1
1
1
1
1
1
1
1
1
1
1
1
1
1
1
1
)
;

boundaryField
{
    leftWall
    {
        type            alphaContactAngle;
        contactAngleProperties 
        {
            mercury         
            {
                theta0          90;
            }
            water           
            {
                theta0          90;
            }
            oil             
            {
                theta0          90;
            }
        }
        value           nonuniform List<scalar> 
50
(
9.44763e-28
2.60625e-25
5.82251e-23
1.62179e-21
2.62988e-20
9.99446e-20
1.18752e-19
7.20888e-21
7.33679e-13
1.35389e-11
4.72831e-11
1.52317e-10
4.38875e-10
9.44663e-10
1.65159e-09
1.66881e-09
1.96007e-09
0.00522307
0.551771
1
1
1
1
1
1
1
1
1
1
1
1
1
1
1
1
1
1
1
1
1
1
1
1
1
1
1
1
1
1
1
)
;
    }
    rightWall
    {
        type            alphaContactAngle;
        contactAngleProperties 
        {
            mercury         
            {
                theta0          90;
            }
            water           
            {
                theta0          90;
            }
            oil             
            {
                theta0          90;
            }
        }
        value           nonuniform List<scalar> 
50
(
0.0145521
0.015458
0.0129547
0.0056862
1.73966e-06
1.8378e-06
1.18298e-06
2.25069e-08
0.0125035
0.0572522
0.051384
0.0700419
0.834061
1
1
1
1
1
1
1
1
1
1
1
1
1
1
1
1
1
1
1
1
1
1
1
1
1
1
1
1
1
1
1
1
1
1
1
1
1
)
;
    }
    lowerWall
    {
        type            alphaContactAngle;
        contactAngleProperties 
        {
            mercury         
            {
                theta0          90;
            }
            water           
            {
                theta0          90;
            }
            oil             
            {
                theta0          90;
            }
        }
        value           nonuniform List<scalar> 
62
(
9.44763e-28
2.12869e-25
7.32044e-25
1.43302e-24
1.50403e-24
1.51807e-24
1.62585e-24
1.69064e-24
1.50479e-24
1.04662e-24
5.00084e-25
1.9644e-24
1.27772e-20
5.61821e-20
1.05631e-19
9.5216e-20
8.26226e-20
3.76241e-20
1.07356e-20
3.7995e-21
1.2509e-21
3.47047e-22
4.84434e-23
4.84434e-23
7.57987e-22
1.70922e-20
3.8571e-19
4.40358e-19
2.65459e-17
2.08804e-17
1.82827e-17
1.08542e-20
0.046691
0.291403
0.668703
0.402301
0.767198
1
1
1
1
1
1
0.402301
0.144622
0.135133
0.0901582
0.0243351
0.00291595
3.84389e-11
0.00348512
0.00932231
0.014787
0.0162035
0.0155347
0.024073
0.0843298
0.132244
0.132244
0.132244
0.0960346
0.0145521
)
;
    }
    atmosphere
    {
        type            inletOutlet;
        inletValue      uniform 1;
        value           nonuniform List<scalar> 
46
(
1
1
1
1
1
1
1
1
1
1
1
1
1
1
1
1
1
1
1
1
1
1
1
1
1
1
1
1
1
1
1
1
1
1
1
1
1
1
1
1
1
1
1
1
1
1
)
;
    }
    defaultFaces
    {
        type            empty;
    }
}


// ************************************************************************* //
