/*--------------------------------*- C++ -*----------------------------------*\
  =========                 |
  \\      /  F ield         | OpenFOAM: The Open Source CFD Toolbox
   \\    /   O peration     | Website:  https://openfoam.org
    \\  /    A nd           | Version:  13
     \\/     M anipulation  |
\*---------------------------------------------------------------------------*/
FoamFile
{
    format      ascii;
    class       volScalarField;
    location    "0.25";
    object      alpha.mercury;
}
// * * * * * * * * * * * * * * * * * * * * * * * * * * * * * * * * * * * * * //

dimensions      [];

internalField   nonuniform List<scalar> 
2268
(
1
1
1
1
1
1
1
1
1
1
1
1
1
1
1
1
1
1
1
1
1
1
0.996185
1
1
1
1
1
1
1
1
1
1
1
1
1
1
1
1
1
1
1
1
1
1
0.993874
1
1
1
1
1
1
1
1
1
1
1
1
1
1
1
1
1
1
0.999998
0.999997
1
1
0.990327
1
1
1
1
1
1
1
1
1
1
1
1
1
1
1
1
1
0.999997
0.999997
0.999989
0.999993
0.999997
0.990287
1
1
1
1
1
1
1
1
1
1
1
1
1
1
1
1
1
0.999985
0.999997
0.999996
0.999996
0.999996
0.990938
1
1
1
1
1
1
1
1
1
1
1
1
1
1
1
0.992137
0.917255
0.912346
0.945413
0.998939
0.999959
0.999978
0.998698
1
1
1
1
1
1
1
1
1
1
1
1
0.993127
0.954664
0.828163
0.567401
0.220782
0.18005
0.287044
0.515104
0.918121
0.999603
0.999986
1
1
1
1
1
1
1
0.99972
0.987052
0.949191
0.873638
0.753164
0.597418
0.381838
0.117511
-1.03478e-18
-4.57223e-28
7.13445e-09
0.00622752
0.00866613
0.211008
0.978442
0.999985
1.04057e-12
2.50875e-12
1.44217e-11
4.47328e-11
1.0768e-10
1.75668e-10
2.10427e-10
1.20062e-10
6.92214e-11
4.06529e-11
2.55106e-11
1.67164e-11
1.0769e-11
6.4828e-12
2.97242e-12
1.63455e-12
7.40615e-13
1.98615e-13
4.56087e-14
2.53774e-12
3.41511e-11
1.18957e-10
2.63459e-10
4.4925e-10
5.68875e-10
5.06406e-10
3.40386e-10
2.43637e-10
1.56989e-10
1.00042e-10
6.86958e-11
4.88386e-11
3.37079e-11
2.28596e-11
1.18964e-11
4.95313e-12
1.09259e-12
8.10881e-14
9.00231e-12
7.1635e-11
2.30028e-10
4.89638e-10
7.97226e-10
9.45965e-10
7.71937e-10
6.49354e-10
5.31562e-10
3.74402e-10
2.2222e-10
1.22182e-10
8.50699e-11
6.75368e-11
4.81467e-11
2.62411e-11
1.60087e-11
4.91787e-12
2.95609e-13
1.0625e-11
4.99626e-11
1.01836e-10
4.1239e-10
1.19479e-09
1.2909e-09
1.06274e-09
7.89547e-10
6.37268e-10
5.26975e-10
3.6835e-10
1.70166e-10
9.38003e-11
7.04215e-11
5.68172e-11
3.13727e-11
2.16564e-11
7.71678e-12
8.72931e-13
8.39273e-12
4.86645e-11
1.87715e-10
6.47407e-10
1.73839e-09
1.65723e-09
1.19252e-09
9.12595e-10
7.38127e-10
6.03078e-10
4.37673e-10
2.17552e-10
7.24799e-11
5.17795e-11
4.36829e-11
2.83118e-11
2.00392e-11
9.34147e-12
1.57172e-12
5.6299e-12
2.34519e-11
5.64712e-11
1.54533e-09
2.31175e-09
1.88975e-09
1.23271e-09
9.348e-10
7.46672e-10
6.05764e-10
4.32843e-10
2.03357e-10
5.68576e-11
3.66258e-11
2.82459e-11
1.77417e-11
1.42448e-11
8.5254e-12
2.35955e-12
3.7867e-12
4.82537e-12
8.64505e-10
3.14889e-09
2.89985e-09
1.859e-09
1.26978e-09
9.23438e-10
7.20249e-10
5.7094e-10
3.78383e-10
1.58652e-10
4.28346e-11
2.53032e-11
1.63806e-11
9.37769e-12
7.23585e-12
6.62839e-12
2.12485e-12
2.12604e-12
4.91069e-13
2.82215e-09
4.66484e-09
3.19062e-09
1.52878e-09
1.16764e-09
8.76319e-10
6.52877e-10
4.54773e-10
2.46488e-10
9.21632e-11
3.27991e-11
1.23866e-11
6.3759e-12
3.04715e-12
2.82242e-12
3.67046e-12
1.66542e-12
0.696906
0.740058
0.769896
0.768415
0.754986
0.72359
0.672101
0.579758
0.472733
0.359033
0.245902
0.144457
0.057631
5.53611e-19
-3.20486e-16
1.54638e-10
3.05531e-10
2.3362e-11
0.000205572
0.000186715
0.00984227
0.346951
0.979077
0.00730577
0.0302238
0.0475518
0.0476018
0.0411344
0.0258507
0.00263035
1.77551e-09
-5.60288e-22
-5.41026e-22
-1.38454e-21
-4.70064e-17
-2.83673e-16
-1.97015e-15
-5.41748e-15
-1.0799e-14
-1.64154e-14
-1.8253e-14
6.30462e-06
1.23562e-17
4.84954e-05
7.76047e-05
0.519903
1.50282e-108
-4.71382e-20
-2.63983e-20
-1.15926e-20
-1.08797e-20
-6.91634e-21
-3.12944e-21
-1.13679e-21
-3.58134e-22
-3.8629e-21
-7.22158e-21
-2.3074e-16
-1.0448e-15
-3.68711e-15
-8.88428e-15
-1.60343e-14
-2.33444e-14
-2.75104e-14
1.15472e-07
-3.74492e-25
5.46167e-05
6.55012e-05
0.0231686
7.77737e-90
-3.69164e-20
-1.99762e-20
-8.70583e-21
-3.45487e-21
-1.29455e-21
-4.65672e-22
-1.62439e-22
-5.53527e-23
-2.9255e-21
-5.4856e-21
-1.72762e-16
-8.01316e-16
-2.07371e-15
-4.01032e-15
-6.52999e-15
-9.53578e-15
-1.29253e-14
1.03e-09
3.80528e-16
1.02606e-05
7.64617e-05
2.44883e-06
1.66945e-88
-1.49877e-106
1.17692e-102
-2.26934e-101
-5.85017e-98
2.18182e-94
-2.87688e-92
2.56194e-92
3.41105e-81
-6.76531e-90
2.17465e-78
1.77652e-88
4.07316e-88
3.97741e-89
-1.44801e-91
6.71541e-92
2.71346e-79
3.91191e-86
4.42803e-12
5.00868e-08
3.69344e-10
1.03149e-05
8.95194e-06
1.43404e-85
3.39346e-84
6.74517e-82
8.06249e-80
3.0995e-78
2.48997e-76
2.58783e-74
1.06539e-73
2.41868e-72
1.53285e-71
1.57185e-70
5.07693e-70
6.79641e-70
1.44951e-70
5.28814e-72
2.00625e-74
1.12356e-74
5.20941e-77
3.99221e-21
4.7555e-09
5.832e-10
1.12479e-08
1.29979e-06
4.9324e-84
2.54131e-82
5.46975e-80
5.04308e-78
2.23988e-76
1.49102e-74
6.55311e-73
2.53704e-72
3.18987e-71
4.97247e-70
2.12439e-69
9.70907e-69
3.93255e-67
3.34883e-68
1.36728e-69
3.23116e-71
1.5263e-69
1.09981e-76
3.70383e-15
4.53614e-11
1.53261e-11
8.78386e-11
6.31496e-09
2.00751e-82
4.57324e-81
1.03348e-78
9.42359e-77
4.54488e-75
2.72578e-73
3.07428e-71
2.87274e-71
2.50691e-70
6.11699e-69
1.69047e-68
1.09432e-67
3.30146e-65
2.02695e-65
3.15901e-65
2.70342e-66
2.25623e-64
1.45867e-72
8.96853e-43
1.36864e-14
2.24618e-13
6.77141e-12
6.635e-11
3.86517e-81
1.3994e-79
3.39004e-77
3.48018e-75
1.84909e-73
9.19419e-72
5.09919e-70
4.11241e-70
4.73476e-68
5.91661e-67
9.48435e-67
1.23577e-65
7.63901e-63
6.84037e-62
4.33808e-61
3.44879e-62
1.22626e-60
7.57717e-60
1.51786e-58
3.47274e-56
3.14652e-17
9.90787e-15
7.11645e-13
3.3737e-77
6.64129e-78
1.50826e-75
1.98245e-73
1.03495e-70
7.01278e-69
7.64531e-67
1.02716e-65
8.87069e-64
1.19325e-62
9.76848e-63
1.96104e-62
3.26642e-59
5.4353e-60
1.24852e-57
6.21129e-59
1.04159e-58
1.50929e-57
6.06174e-57
3.43282e-54
1.96711e-54
2.74212e-49
9.27934e-53
1.77768e-74
1.24203e-73
4.01006e-72
2.56555e-70
1.59582e-67
1.14029e-65
3.68949e-64
6.8888e-63
3.60998e-61
3.41124e-60
3.67475e-60
1.11726e-60
5.94102e-57
6.2221e-58
1.97986e-55
1.4502e-55
1.103e-55
1.49252e-54
3.61567e-53
1.26329e-50
8.95194e-48
1.33445e-46
2.48368e-44
2.92841e-73
4.26405e-72
7.50788e-70
5.24586e-68
3.55813e-66
2.50558e-64
4.61721e-63
1.53946e-61
6.93215e-60
9.74426e-59
1.5817e-58
1.63889e-59
6.84257e-56
7.74338e-57
1.38787e-53
5.65743e-53
1.07399e-53
6.70478e-53
1.09103e-50
9.50684e-49
1.66479e-45
1.04987e-44
1.53804e-42
3.43323e-72
7.05175e-71
1.18013e-68
1.13029e-66
7.26257e-65
4.46494e-63
3.68213e-62
3.25612e-60
1.36756e-58
1.16481e-57
2.3699e-57
2.99885e-58
6.90021e-55
8.90966e-55
1.98952e-52
9.44429e-52
2.48638e-52
2.65843e-52
1.63015e-49
4.62386e-48
1.58032e-44
9.24233e-44
2.83859e-41
3.49267e-71
1.21354e-69
2.01069e-67
2.07903e-65
1.56079e-63
8.51041e-62
3.13613e-61
6.00132e-59
2.39412e-57
1.03502e-56
3.67457e-56
3.66325e-57
5.14006e-54
1.18831e-53
6.72579e-51
1.86268e-50
3.77823e-49
5.94869e-51
2.52989e-46
4.81006e-46
1.92391e-42
2.77978e-41
3.48097e-39
3.27773e-70
1.86871e-68
3.20177e-66
3.18954e-64
2.57767e-62
1.36459e-60
3.14612e-60
9.16975e-58
3.38469e-56
7.61687e-56
6.99519e-55
6.14496e-56
2.59193e-53
2.70862e-53
4.21457e-50
7.36313e-49
9.65489e-48
2.77486e-49
2.41422e-44
8.16744e-45
9.09267e-41
4.99932e-40
6.27555e-38
2.69659e-69
2.74555e-67
4.8653e-65
4.76058e-63
3.63304e-61
1.90458e-59
3.59493e-59
1.17641e-56
3.83233e-55
5.23216e-55
5.83469e-54
5.96532e-55
6.85769e-53
1.04415e-51
6.84916e-48
3.43265e-47
4.38283e-46
1.33188e-47
1.79618e-43
1.2951e-43
1.46845e-39
6.09771e-39
4.28581e-37
2.21058e-68
4.06227e-66
7.24501e-64
6.97416e-62
5.08492e-60
2.56798e-58
4.45504e-58
1.21969e-55
3.45008e-54
3.54396e-54
6.466e-53
8.50917e-52
5.62019e-51
1.74951e-48
3.13086e-46
6.8916e-45
4.47222e-43
4.61662e-44
9.87705e-43
1.69097e-42
2.19281e-38
5.05827e-38
2.59386e-36
1.68221e-67
4.75016e-65
9.27752e-63
8.7189e-61
6.27718e-59
3.3084e-57
3.62077e-56
8.47945e-55
2.4212e-53
8.18321e-52
1.70098e-50
2.44077e-49
3.98461e-48
6.72009e-46
3.0268e-45
8.5458e-44
3.23738e-41
4.87068e-41
4.2802e-40
2.24388e-39
2.61091e-37
6.98655e-36
1.42027e-34
9.90143e-67
3.61866e-64
8.71812e-62
8.09862e-60
5.99118e-58
3.58757e-56
1.25586e-54
3.72527e-53
1.26919e-51
4.22423e-50
1.18942e-48
3.15374e-47
8.55753e-46
2.18049e-44
5.48517e-43
1.37094e-41
2.56169e-40
4.23483e-39
3.64779e-38
2.20189e-37
1.23592e-35
1.57481e-34
1.4714e-33
2.09472e-65
4.77568e-63
5.77472e-61
5.32351e-59
3.88946e-57
2.40528e-55
1.35669e-53
6.52769e-52
2.73407e-50
1.02019e-48
3.25093e-47
9.42375e-46
2.38605e-44
5.12835e-43
9.99411e-42
1.99411e-40
3.28633e-39
4.63907e-38
4.34449e-37
2.86685e-36
6.66888e-35
5.97285e-34
4.44029e-33
2.06288e-64
5.12328e-62
6.7696e-60
6.19932e-58
4.38011e-56
2.54157e-54
1.25844e-52
5.42414e-51
2.03165e-49
6.65306e-48
2.03131e-46
5.23141e-45
1.1295e-43
1.95108e-42
3.97926e-41
5.35028e-40
8.13372e-39
1.13486e-37
1.08365e-36
1.02218e-35
9.82096e-35
7.78143e-34
4.63133e-33
5.22852e-64
1.33387e-61
1.76761e-59
1.60328e-57
1.11182e-55
6.26073e-54
2.96957e-52
1.19839e-50
4.03875e-49
1.2289e-47
3.7435e-46
9.01834e-45
1.79811e-43
2.90129e-42
4.40243e-41
7.5608e-40
9.91947e-39
1.09591e-37
9.73398e-37
8.42638e-36
6.95522e-35
4.76477e-34
2.62133e-33
6.08758e-64
1.58846e-61
2.13015e-59
1.93985e-57
1.34031e-55
7.45709e-54
3.46575e-52
1.37756e-50
4.75017e-49
1.43077e-47
3.76203e-46
8.1475e-45
1.40436e-43
2.73932e-42
3.20149e-41
4.97278e-40
5.67151e-39
5.5095e-38
4.54808e-37
3.7277e-36
2.96777e-35
1.94352e-34
1.01299e-33
3.74957e-64
9.84255e-62
1.31227e-59
1.17665e-57
7.93417e-56
4.26828e-54
1.89769e-52
7.12546e-51
2.28771e-49
6.30762e-48
1.48567e-46
2.96495e-45
5.0838e-44
7.79064e-43
9.19291e-42
1.52259e-40
1.7316e-39
1.56052e-38
1.22559e-37
9.23367e-37
7.12491e-36
4.8603e-35
2.64743e-34
1.12383e-64
3.04802e-62
4.16058e-60
3.78913e-58
2.5749e-56
1.3846e-54
6.10123e-53
2.25149e-51
7.04943e-50
1.88687e-48
4.34386e-47
8.6746e-46
1.51266e-44
2.28214e-43
2.41961e-42
3.51777e-41
3.63431e-40
3.10297e-39
2.52186e-38
2.05334e-37
1.61732e-36
1.0802e-35
5.92828e-35
1.40043e-65
4.11293e-63
6.01289e-61
5.80399e-59
4.13558e-57
2.30484e-55
1.03941e-53
3.87484e-52
1.21122e-50
3.2073e-49
7.25482e-48
1.41287e-46
2.38759e-45
3.52341e-44
3.72253e-43
5.16547e-42
4.88791e-41
4.12638e-40
3.30924e-39
2.75756e-38
2.27625e-37
1.5721e-36
9.13716e-36
5.72502e-67
1.82825e-64
2.89487e-62
3.01557e-60
2.30993e-58
1.37819e-56
6.62536e-55
2.62174e-53
8.67798e-52
2.42775e-50
5.79659e-49
1.19063e-47
2.11689e-46
3.26774e-45
3.55412e-44
5.11088e-43
4.97347e-42
4.37297e-41
3.7564e-40
3.42639e-39
3.02318e-38
2.15955e-37
1.29438e-36
1.36146e-68
4.73182e-66
8.12496e-64
9.15995e-62
7.58532e-60
4.88991e-58
2.31876e-56
8.71841e-55
3.89572e-53
1.16694e-51
2.99108e-50
6.5763e-49
1.25113e-47
2.08076e-46
3.06135e-45
4.03221e-44
4.76961e-43
4.98513e-42
4.59936e-41
4.0626e-40
3.49016e-39
2.51648e-38
1.63287e-37
1.63286e-70
6.21354e-68
1.15872e-65
1.41248e-63
1.26322e-61
8.81261e-60
4.97728e-58
2.33135e-56
9.20367e-55
3.09605e-53
8.94199e-52
2.22962e-50
4.81932e-49
9.05309e-48
1.47846e-46
2.09609e-45
2.57459e-44
2.75171e-43
2.71242e-42
2.80592e-41
2.88585e-40
2.44635e-39
1.82552e-38
1.17683e-72
5.14237e-70
1.08946e-67
1.49673e-65
1.49864e-63
1.16427e-61
7.29228e-60
3.77666e-58
1.64553e-56
6.10572e-55
1.94649e-53
5.36755e-52
1.28711e-50
2.69663e-49
4.96757e-48
8.1257e-47
1.18597e-45
1.52507e-44
1.74641e-43
1.93888e-42
2.05627e-41
1.8009e-40
1.40834e-39
6.14439e-75
3.03674e-72
7.22193e-70
1.1113e-67
1.24588e-65
1.08378e-63
7.59814e-62
4.39963e-60
2.13976e-58
8.85044e-57
3.14533e-55
9.67274e-54
2.56169e-52
5.76199e-51
1.13732e-49
2.13193e-48
3.59612e-47
5.04593e-46
6.6919e-45
8.61826e-44
1.02115e-42
1.01116e-41
8.65506e-41
1.73176e-77
1.0079e-74
2.78548e-72
4.95058e-70
6.38651e-68
6.37991e-66
5.13311e-64
3.41165e-62
1.90503e-60
9.04484e-59
3.68621e-57
1.30035e-55
3.99749e-54
1.07653e-52
2.54978e-51
5.33386e-50
9.80634e-49
1.54708e-47
2.12021e-46
2.79367e-45
3.58659e-44
4.15371e-43
4.44766e-42
3.19026e-80
2.14344e-77
6.77692e-75
1.38152e-72
2.05093e-70
2.35884e-68
2.178e-66
1.65078e-64
1.04262e-62
4.97278e-61
1.99269e-59
9.84373e-58
3.31275e-56
9.85153e-55
2.60208e-53
6.1531e-52
1.30609e-50
2.48819e-49
4.30932e-48
6.98134e-47
1.05469e-45
1.41599e-44
1.66423e-43
4.33995e-83
3.50435e-80
1.29562e-77
3.05827e-75
5.22875e-73
6.90048e-71
7.30392e-69
6.365e-67
4.64851e-65
2.8776e-63
1.51051e-61
6.79587e-60
2.6929e-58
9.26265e-57
2.86818e-55
8.10658e-54
2.07593e-52
4.73027e-51
9.42518e-50
1.6194e-48
2.47563e-47
3.73882e-46
5.48628e-45
2.67241e-86
2.57714e-83
1.14407e-80
3.23391e-78
6.66199e-76
1.06376e-73
1.36346e-71
1.43413e-69
1.25759e-67
9.31343e-66
5.89266e-64
3.21765e-62
1.52816e-60
6.34519e-59
2.31421e-57
7.47319e-56
2.16225e-54
5.6564e-53
1.33606e-51
2.83032e-50
5.39097e-49
9.37211e-48
1.50327e-46
1.72542e-89
1.95919e-86
9.8696e-84
3.1914e-81
7.50669e-79
1.3677e-76
2.00402e-74
2.42143e-72
2.45704e-70
2.12328e-68
1.57997e-66
1.02117e-64
5.77135e-63
2.86776e-61
1.25909e-59
4.91159e-58
1.7136e-56
5.37372e-55
1.50415e-53
3.69085e-52
8.14916e-51
1.76146e-49
3.57343e-48
3.15576e-93
4.10686e-90
2.42457e-87
9.44456e-85
2.71503e-82
6.07318e-80
1.09081e-77
1.60848e-75
1.98316e-73
2.07903e-71
1.88308e-69
1.49509e-67
1.05221e-65
6.60182e-64
3.69103e-62
1.82907e-60
7.97828e-59
3.05257e-57
1.03145e-55
3.1505e-54
8.95415e-53
2.30962e-51
5.06217e-50
5.91454e-97
7.70925e-94
5.11041e-91
2.37678e-88
8.45562e-86
2.38901e-83
5.48285e-81
1.03942e-78
1.6507e-76
2.22366e-74
2.57009e-72
2.57567e-70
2.25999e-68
1.75139e-66
1.20742e-64
7.44262e-63
4.11117e-61
2.02943e-59
8.81551e-58
3.31074e-56
1.124e-54
3.78464e-53
1.18967e-51
3.45546e-101
3.75478e-98
2.71689e-95
1.53798e-92
7.03563e-90
2.61832e-87
7.98542e-85
2.01797e-82
4.28208e-80
7.73649e-78
1.20553e-75
1.63732e-73
1.9524e-71
2.05157e-69
1.90079e-67
1.55102e-65
1.11431e-63
7.07449e-62
4.00401e-60
2.04131e-58
9.43261e-57
3.95815e-55
1.51361e-53
4.47066e-106
3.46066e-103
2.63347e-100
1.88235e-97
1.20184e-94
6.53254e-92
2.96211e-89
1.11898e-86
3.54719e-84
9.52778e-82
2.18884e-79
4.33528e-77
7.45115e-75
1.11744e-72
1.47037e-70
1.70876e-68
1.76609e-66
1.62829e-64
1.3302e-62
9.516e-61
5.98819e-59
3.41758e-57
1.7896e-55
2.57004e-112
1.37537e-109
1.03578e-106
9.81219e-104
9.80383e-101
8.97356e-98
7.02931e-95
4.60755e-92
2.52281e-89
1.16085e-86
4.52751e-84
1.51074e-81
4.35579e-79
1.09719e-76
2.44495e-74
4.87993e-72
8.78939e-70
1.42464e-67
2.04887e-65
2.55919e-63
2.71361e-61
2.39887e-59
1.76921e-57
1.17408e-122
3.31482e-120
2.88862e-117
4.85462e-114
1.13158e-110
2.76642e-107
6.0794e-104
1.13449e-100
1.77787e-97
2.35022e-94
2.64268e-91
2.54847e-88
2.12248e-85
1.53479e-82
9.66997e-80
5.32241e-77
2.57183e-74
1.10389e-71
4.27705e-69
1.49075e-66
4.31254e-64
8.44644e-62
1.19637e-59
0.975889
0.326632
4.4371e-13
4.43764e-13
0.944769
0.901899
0.751615
0.331409
0.165275
0.257018
0.649279
0.657441
1.54528e-06
2.00225e-06
0.0540295
0.121812
7.46518e-06
2.32336e-06
2.9679e-08
1.51756e-09
2.10442e-06
1.79091e-06
6.53296e-07
3.57052e-08
-5.8409e-13
4.24767e-08
4.42432e-08
2.82722e-08
2.52103e-11
2.29549e-10
-8.91605e-16
2.4937e-18
1.63928e-13
9.47329e-15
9.44506e-16
1.95387e-18
5.59441e-50
1.15958e-52
5.59441e-50
5.65367e-52
7.89023e-44
8.08237e-44
4.03117e-43
2.18767e-40
1.98529e-42
2.96605e-42
1.34013e-39
1.23774e-37
8.34641e-41
5.06833e-41
2.07574e-37
3.15134e-36
1.68966e-38
6.36668e-37
1.38727e-36
4.36395e-35
2.60743e-37
1.7492e-35
3.16613e-35
6.99529e-34
3.94314e-36
2.70712e-34
1.61627e-33
1.85666e-32
1.07483e-34
1.47609e-33
2.34491e-32
1.03811e-31
1.18697e-33
1.07768e-32
6.92969e-32
2.77759e-31
9.90988e-33
2.8242e-32
6.88963e-32
1.52672e-31
2.87291e-32
8.7813e-32
2.06859e-31
4.13198e-31
2.49122e-32
6.16652e-32
1.555e-31
3.10786e-31
1.23123e-32
3.01588e-32
6.69791e-32
1.39675e-31
4.68285e-33
1.04252e-32
2.61472e-32
5.28721e-32
1.28181e-33
3.13018e-33
6.91822e-33
1.52476e-32
2.77508e-34
7.09021e-34
1.79463e-33
3.7876e-33
5.05784e-35
1.36088e-34
3.28814e-34
7.83308e-34
7.28197e-36
1.84917e-35
5.2212e-35
1.2429e-34
1.02848e-36
3.33454e-36
9.57173e-36
2.62885e-35
1.22778e-37
4.03366e-37
1.21576e-36
3.58933e-36
1.06423e-38
4.04828e-38
1.36985e-37
4.39579e-37
7.42207e-40
2.93491e-39
1.12201e-38
4.15271e-38
4.06611e-41
1.85724e-40
7.98535e-40
3.26733e-39
1.77549e-42
9.28e-42
4.59008e-41
2.18063e-40
6.87752e-44
4.13886e-43
2.34417e-42
1.27819e-41
2.21549e-45
1.54755e-44
1.02349e-43
6.54053e-43
6.13892e-47
5.0259e-46
3.92642e-45
2.94756e-44
1.15787e-48
1.52676e-47
1.42087e-46
1.22072e-45
3.17945e-50
3.92802e-49
4.55561e-48
4.61016e-47
5.29902e-52
8.39226e-51
1.23193e-49
1.50242e-48
8.3282e-54
1.69736e-52
3.09991e-51
4.53499e-50
1.14638e-55
3.14568e-54
7.45382e-53
1.33613e-51
1.59361e-57
6.34092e-56
1.82998e-54
3.98449e-53
3.35726e-13
4.02485e-13
1.01679e-08
5.36103e-09
2.74173e-09
1.21159e-09
9.96724e-10
7.48895e-10
4.86322e-10
2.68348e-10
1.26577e-10
4.64501e-11
1.32079e-11
4.99281e-12
1.0423e-12
2.97371e-13
5.00615e-13
1.09691e-12
9.52532e-13
0.00163426
3.89098e-12
2.40356e-08
3.29838e-09
9.3871e-10
7.4731e-10
5.99142e-10
4.11046e-10
2.25128e-10
8.21207e-11
3.76202e-11
1.21852e-11
1.88739e-12
1.68703e-13
1.0533e-14
1.38974e-15
1.09476e-14
7.97109e-14
2.71942e-13
0.19683
2.31261e-05
3.57423e-09
1.04889e-09
3.8905e-10
3.20015e-10
2.2585e-10
1.32471e-10
4.87412e-11
1.50966e-11
3.51036e-12
4.5112e-13
2.7607e-14
1.10833e-15
1.01271e-16
6.41743e-17
3.64327e-16
9.25196e-16
1.86164e-14
0.0501396
-7.56369e-10
2.01538e-09
6.53039e-10
3.55199e-10
1.82729e-10
7.2659e-11
2.44047e-11
5.80173e-12
7.19202e-13
5.51789e-14
2.71805e-15
1.16466e-16
1.23326e-16
1.13339e-16
6.09803e-17
1.65185e-16
7.63332e-17
2.30546e-15
1.13167e-10
3.26301e-10
2.01274e-10
1.61205e-10
1.07247e-10
4.87415e-11
1.55975e-11
2.96573e-12
2.43665e-13
7.86855e-15
7.75996e-17
1.45908e-19
5.87713e-19
1.11348e-17
4.60449e-17
3.47998e-17
4.12473e-17
5.00921e-17
1.39352e-17
1.19035e-08
1.47902e-09
4.33621e-10
1.17292e-10
2.93568e-11
5.23223e-12
4.36885e-13
6.02394e-15
3.99248e-18
9.41811e-26
2.73473e-24
7.34344e-21
8.24115e-19
7.00103e-18
1.91666e-17
1.38965e-17
1.62967e-17
2.27411e-17
6.75079e-18
2.92875e-09
2.6071e-10
7.86985e-12
2.15017e-12
3.14668e-13
5.16543e-15
7.15413e-23
3.03874e-33
5.76795e-34
8.2738e-26
2.42425e-23
1.75856e-20
8.28102e-19
5.12219e-18
8.28258e-18
5.69723e-18
8.08838e-18
1.18945e-17
5.37658e-18
-1.1751e-28
6.17223e-28
5.02834e-45
1.1407e-53
5.02561e-45
1.49997e-38
3.43719e-30
6.33579e-29
4.704e-27
4.7466e-25
7.53356e-23
3.81212e-20
8.48773e-19
3.85811e-18
4.85522e-18
3.12631e-18
4.86245e-18
6.15785e-18
3.35289e-18
1.26021e-21
4.42463e-25
1.01766e-28
1.30903e-36
1.01903e-33
8.46174e-31
2.91895e-29
4.53821e-28
2.43783e-26
2.28267e-24
5.63007e-22
7.49214e-20
8.26851e-19
2.33196e-18
2.3981e-18
1.81893e-18
2.62389e-18
2.41393e-18
2.51488e-18
4.65915e-45
1.00839e-39
2.18784e-38
1.03446e-34
2.92475e-32
3.82697e-30
1.20961e-28
2.59305e-27
1.22903e-25
3.07108e-23
7.81067e-21
1.36555e-19
6.44024e-19
1.2362e-18
1.11797e-18
9.50667e-19
1.32777e-18
1.41977e-18
1.32973e-18
6.61179e-39
1.76965e-37
1.40076e-36
2.36537e-33
6.35562e-31
1.64888e-29
3.29863e-28
1.18515e-26
9.09768e-25
8.22558e-22
2.29179e-20
1.30603e-19
3.79929e-19
5.92551e-19
4.87781e-19
4.6012e-19
6.18556e-19
5.1667e-19
9.15037e-19
5.81289e-37
1.42118e-35
3.43675e-34
3.57869e-32
4.40258e-30
1.08611e-28
1.65902e-27
5.83793e-26
2.88884e-23
3.46756e-21
2.36826e-20
9.0104e-20
2.04949e-19
2.63613e-19
2.02749e-19
2.03856e-19
2.66254e-19
2.67403e-19
3.53971e-19
1.16202e-35
1.0596e-33
3.78993e-32
9.63112e-31
2.8567e-29
4.08347e-28
5.2997e-27
7.83925e-25
3.7391e-22
3.54911e-21
1.6454e-20
4.85292e-20
9.54082e-20
1.14721e-19
8.27434e-20
8.30036e-20
1.01354e-19
7.51751e-20
1.75407e-19
1.07988e-33
3.07085e-32
9.00223e-31
8.59623e-30
1.12055e-28
1.01739e-27
1.29569e-26
4.05642e-24
3.88539e-22
2.40711e-21
9.10823e-21
2.38081e-20
4.19056e-20
4.78437e-20
3.33836e-20
3.27026e-20
3.48629e-20
3.09455e-20
2.39962e-20
2.76233e-32
3.59928e-31
6.01806e-30
3.11959e-29
2.62389e-28
1.78867e-27
2.49554e-26
4.88598e-24
2.61068e-22
1.30492e-21
4.38426e-21
1.05265e-20
1.68865e-20
1.83982e-20
1.2862e-20
1.23232e-20
1.07114e-20
4.52069e-21
8.29912e-21
1.97957e-31
2.03332e-30
1.58949e-29
6.1073e-29
3.82573e-28
2.63817e-27
3.21087e-26
3.03952e-24
1.30812e-22
5.97557e-22
1.85371e-21
4.2409e-21
6.52455e-21
6.36189e-21
4.63539e-21
4.43321e-21
3.28258e-21
1.67969e-21
6.74288e-22
6.58304e-31
5.31199e-30
2.37552e-29
8.06387e-29
4.24773e-28
3.07887e-27
3.07562e-26
1.11405e-24
4.9478e-23
2.38338e-22
6.83938e-22
1.51229e-21
2.28023e-21
2.00099e-21
1.53031e-21
1.39656e-21
9.10391e-22
2.12674e-22
1.3079e-22
1.0435e-30
4.97842e-30
1.69194e-29
9.05123e-29
3.6834e-28
2.80736e-27
2.51728e-26
3.43713e-25
1.22419e-23
8.26207e-23
2.22765e-22
4.74814e-22
7.03785e-22
5.64725e-22
4.4258e-22
3.73613e-22
2.21808e-22
5.28714e-23
7.5447e-24
5.5225e-31
2.95328e-30
1.90957e-29
6.52959e-29
2.65504e-28
1.97532e-27
1.61091e-26
1.46154e-25
2.6124e-24
2.46272e-23
6.54589e-23
1.3259e-22
1.93062e-22
1.3936e-22
1.14398e-22
9.11256e-23
4.57905e-23
5.03774e-24
9.83686e-25
7.62517e-31
2.18032e-30
1.15317e-29
4.03175e-29
1.56267e-28
1.12872e-27
8.56675e-27
5.98751e-26
6.36397e-25
5.93444e-24
1.75268e-23
3.28509e-23
4.456e-23
3.13976e-23
2.76082e-23
2.12147e-23
8.2451e-24
7.25162e-25
4.70523e-26
5.85258e-31
1.5698e-30
5.45805e-30
2.15089e-29
7.75455e-29
5.26546e-28
3.78245e-27
2.27337e-26
1.60937e-25
1.1735e-24
4.2146e-24
7.56885e-24
9.38418e-24
6.67117e-24
5.88423e-24
4.3678e-24
1.35081e-24
5.59411e-26
6.22743e-27
3.01585e-31
9.57457e-31
2.16755e-30
9.72172e-30
3.2721e-29
2.05742e-28
1.40614e-27
7.57628e-27
4.15285e-26
2.37799e-25
7.97189e-25
1.3824e-24
1.68436e-24
1.27863e-24
1.06448e-24
7.58255e-25
2.12596e-25
7.91658e-27
3.33891e-28
1.10215e-31
3.60839e-31
8.45561e-31
3.8023e-30
1.19394e-29
6.72623e-29
4.43222e-28
2.21732e-27
9.87031e-27
4.56492e-26
1.43496e-25
2.39841e-25
3.06174e-25
2.16118e-25
1.68769e-25
1.14662e-25
1.90856e-26
5.57683e-28
6.40662e-29
3.43283e-32
1.15954e-31
2.82123e-31
1.28591e-30
3.84277e-30
1.91481e-29
1.1671e-28
5.47301e-28
2.21463e-27
7.86822e-27
2.11858e-26
4.13135e-26
5.2117e-26
3.32856e-26
2.4528e-26
1.60161e-26
2.1476e-27
1.03883e-28
7.07481e-30
8.67271e-33
3.17339e-32
8.12404e-32
3.80607e-31
1.09549e-30
4.78001e-30
2.72566e-29
1.22854e-28
4.36021e-28
1.25931e-27
2.95858e-27
5.08634e-27
6.18556e-27
4.79309e-27
3.29512e-27
2.05311e-27
1.88208e-28
1.10707e-29
5.99663e-31
1.88207e-33
7.49938e-33
2.02209e-32
9.89265e-32
2.78125e-31
1.06615e-30
5.56827e-30
2.45625e-29
7.75382e-29
1.86963e-28
4.49119e-28
7.41169e-28
8.79574e-28
6.43022e-28
4.05219e-28
2.35749e-28
1.57776e-29
9.50911e-31
4.11719e-32
3.34245e-34
1.56007e-33
5.462e-33
2.13649e-32
6.28545e-32
2.15089e-31
1.00883e-30
4.19005e-30
1.18665e-29
2.78906e-29
5.33122e-29
9.86957e-29
1.15109e-28
6.74336e-29
4.59295e-29
2.41084e-29
1.94512e-30
6.98247e-32
2.30669e-33
7.40144e-35
3.70716e-34
1.27179e-33
3.83789e-33
1.27222e-32
3.95878e-32
1.59918e-31
5.96768e-31
1.76718e-30
3.50361e-30
7.41718e-30
1.15159e-29
1.28116e-29
6.96697e-30
4.14792e-30
2.2268e-30
1.76825e-31
4.48549e-33
1.05671e-34
1.12794e-35
6.28423e-35
2.21199e-34
6.23213e-34
2.28859e-33
6.55608e-33
2.42589e-32
8.25071e-32
1.94766e-31
5.01168e-31
9.14664e-31
1.24412e-30
1.30203e-30
7.325e-31
3.66081e-31
1.86656e-31
1.23751e-32
2.57264e-34
4.79306e-36
1.43245e-36
8.37684e-36
3.16058e-35
9.15367e-35
3.68932e-34
9.98929e-34
3.0377e-33
9.79074e-33
2.5812e-32
6.10102e-32
9.8769e-32
1.25143e-31
1.21919e-31
6.65613e-32
3.32446e-32
1.40956e-32
7.49945e-34
1.32917e-35
2.37544e-37
1.50064e-37
9.13595e-37
3.88863e-36
1.21216e-35
5.25075e-35
1.28707e-34
3.62256e-34
1.18747e-33
3.10431e-33
6.50488e-33
9.9154e-33
1.18e-32
1.0647e-32
5.41146e-33
2.58735e-33
9.54742e-34
4.79648e-35
6.37295e-37
1.02718e-38
1.29314e-38
8.50341e-38
3.971e-37
1.32518e-36
6.10208e-36
1.63561e-35
4.32255e-35
1.23491e-34
3.23797e-34
6.39484e-34
9.33388e-34
1.04763e-33
8.73199e-34
4.12608e-34
1.76926e-34
5.82794e-35
2.99695e-36
3.02963e-38
3.93262e-40
9.79806e-40
7.37203e-39
4.01018e-38
1.72225e-37
6.5844e-37
1.87983e-36
4.66893e-36
1.18765e-35
3.01592e-35
5.80639e-35
8.25007e-35
8.76697e-35
6.74975e-35
2.97503e-35
1.12565e-35
3.24248e-36
1.59029e-37
1.48814e-39
1.79899e-41
6.496e-41
5.65351e-40
3.56423e-39
1.7544e-38
6.59219e-38
1.97512e-37
4.67119e-37
1.08315e-36
2.55822e-36
4.85243e-36
6.81167e-36
6.89392e-36
4.91812e-36
2.03606e-36
6.75518e-37
1.66842e-37
7.35429e-39
7.50648e-41
9.37747e-43
3.79121e-42
3.81359e-41
2.7566e-40
1.51246e-39
5.87857e-39
1.92612e-38
4.39597e-38
9.28961e-38
2.00781e-37
3.73251e-37
5.21095e-37
5.06487e-37
3.36934e-37
1.32101e-37
3.86242e-38
8.0729e-39
3.10249e-40
3.79952e-42
4.49006e-44
1.97404e-43
2.30219e-42
1.90178e-41
1.15162e-40
4.7558e-40
1.73279e-39
3.90938e-39
7.55971e-39
1.47667e-38
2.65435e-38
3.67519e-38
3.45814e-38
2.16318e-38
8.08993e-39
2.1136e-39
3.72329e-40
1.21938e-41
1.88111e-43
1.97876e-45
9.18411e-45
1.20713e-43
1.06708e-42
7.92703e-42
3.53293e-41
1.43893e-40
3.28606e-40
5.90695e-40
1.03059e-39
1.75636e-39
2.39231e-39
2.18797e-39
1.29366e-39
4.65355e-40
1.10298e-40
1.67284e-41
4.58558e-43
8.55493e-45
8.36349e-47
3.98871e-46
6.03105e-45
6.5018e-44
5.00593e-43
2.42599e-42
1.1078e-41
2.60539e-41
4.45017e-41
6.90974e-41
1.09023e-40
1.44453e-40
1.28288e-40
7.13111e-41
2.50545e-41
5.4703e-42
7.28733e-43
1.69067e-44
3.54876e-46
3.41522e-48
1.5623e-47
2.7906e-46
3.4555e-45
2.93323e-44
1.58699e-43
7.89981e-43
1.94554e-42
3.22701e-42
4.49538e-42
6.40831e-42
8.14651e-42
6.99048e-42
3.61121e-42
1.2606e-42
2.56375e-43
3.07937e-44
6.19057e-46
1.51344e-47
1.3294e-49
5.56769e-49
1.17579e-47
1.69583e-46
1.62735e-45
1.00566e-44
5.23566e-44
1.36835e-43
2.24471e-43
2.85456e-43
3.60283e-43
4.32084e-43
3.55618e-43
1.70868e-43
5.92877e-44
1.13148e-44
1.25381e-45
2.24663e-47
6.64295e-49
4.80631e-51
1.93695e-50
4.68647e-49
7.68695e-48
8.19191e-47
5.8085e-46
3.26283e-45
9.07614e-45
1.49302e-44
1.77081e-44
1.95633e-44
2.16916e-44
1.69696e-44
7.74804e-45
2.61013e-45
4.69574e-46
4.88416e-47
7.98915e-49
2.6057e-50
1.5893e-52
6.85913e-52
1.87924e-50
3.39921e-49
3.97229e-48
3.18061e-47
1.92086e-46
5.68819e-46
9.46479e-46
1.06992e-45
1.03406e-45
1.03665e-45
7.62692e-46
3.38756e-46
1.07777e-46
1.8328e-47
1.81032e-48
2.74995e-50
8.61208e-52
4.795e-54
)
;

boundaryField
{
    leftWall
    {
        type            alphaContactAngle;
        contactAngleProperties 
        {
            air             
            {
                theta0          90;
            }
            water           
            {
                theta0          90;
            }
            oil             
            {
                theta0          90;
            }
        }
        value           nonuniform List<scalar> 
50
(
1
1
1
1
1
1
1
1
0.696906
0.00730577
1.50282e-108
7.77737e-90
1.66945e-88
1.43404e-85
4.9324e-84
2.00751e-82
3.86517e-81
3.3737e-77
1.77768e-74
2.92841e-73
3.43323e-72
3.49267e-71
3.27773e-70
2.69659e-69
2.21058e-68
1.68221e-67
9.90143e-67
2.09472e-65
2.06288e-64
5.22852e-64
6.08758e-64
3.74957e-64
1.12383e-64
1.40043e-65
5.72502e-67
1.36146e-68
1.63286e-70
1.17683e-72
6.14439e-75
1.73176e-77
3.19026e-80
4.33995e-83
2.67241e-86
1.72542e-89
3.15576e-93
5.91454e-97
3.45546e-101
4.47066e-106
2.57004e-112
1.17408e-122
)
;
    }
    rightWall
    {
        type            alphaContactAngle;
        contactAngleProperties 
        {
            air             
            {
                theta0          90;
            }
            water           
            {
                theta0          90;
            }
            oil             
            {
                theta0          90;
            }
        }
        value           nonuniform List<scalar> 
50
(
4.56087e-14
8.10881e-14
2.95609e-13
8.72931e-13
1.57172e-12
2.35955e-12
2.12485e-12
1.66542e-12
9.52532e-13
2.71942e-13
1.86164e-14
2.30546e-15
1.39352e-17
6.75079e-18
5.37658e-18
3.35289e-18
2.51488e-18
1.32973e-18
9.15037e-19
3.53971e-19
1.75407e-19
2.39962e-20
8.29912e-21
6.74288e-22
1.3079e-22
7.5447e-24
9.83686e-25
4.70523e-26
6.22743e-27
3.33891e-28
6.40662e-29
7.07481e-30
5.99663e-31
4.11719e-32
2.30669e-33
1.05671e-34
4.79306e-36
2.37544e-37
1.02718e-38
3.93262e-40
1.79899e-41
9.37747e-43
4.49006e-44
1.97876e-45
8.36349e-47
3.41522e-48
1.3294e-49
4.80631e-51
1.5893e-52
4.795e-54
)
;
    }
    lowerWall
    {
        type            alphaContactAngle;
        contactAngleProperties 
        {
            air             
            {
                theta0          90;
            }
            water           
            {
                theta0          90;
            }
            oil             
            {
                theta0          90;
            }
        }
        value           nonuniform List<scalar> 
62
(
1
1
1
1
1
1
1
1
1
1
1
1
1
1
1
1
1
1
1
1
1
1
0.996185
0.996185
0.993874
0.990327
0.990287
0.990938
0.998698
0.999986
0.999985
0.975889
0.326632
4.4371e-13
4.43764e-13
1.04057e-12
2.53774e-12
9.00231e-12
1.0625e-11
8.39273e-12
5.6299e-12
3.7867e-12
2.12604e-12
1.04057e-12
2.50875e-12
1.44217e-11
4.47328e-11
1.0768e-10
1.75668e-10
2.10427e-10
1.20062e-10
6.92214e-11
4.06529e-11
2.55106e-11
1.67164e-11
1.0769e-11
6.4828e-12
2.97242e-12
1.63455e-12
7.40615e-13
1.98615e-13
4.56087e-14
)
;
    }
    atmosphere
    {
        type            inletOutlet;
        inletValue      uniform 0;
        value           nonuniform List<scalar> 
46
(
0
0
0
0
0
0
0
0
0
0
0
0
0
0
0
0
0
0
0
0
0
0
0
1.59361e-57
6.34092e-56
1.82998e-54
3.98449e-53
6.85913e-52
1.87924e-50
3.39921e-49
3.97229e-48
3.18061e-47
1.92086e-46
5.68819e-46
9.46479e-46
1.06992e-45
1.03406e-45
1.03665e-45
7.62692e-46
3.38756e-46
1.07777e-46
1.8328e-47
1.81032e-48
2.74995e-50
8.61208e-52
4.795e-54
)
;
    }
    defaultFaces
    {
        type            empty;
    }
}


// ************************************************************************* //
