/*--------------------------------*- C++ -*----------------------------------*\
  =========                 |
  \\      /  F ield         | OpenFOAM: The Open Source CFD Toolbox
   \\    /   O peration     | Website:  https://openfoam.org
    \\  /    A nd           | Version:  13
     \\/     M anipulation  |
\*---------------------------------------------------------------------------*/
FoamFile
{
    format      ascii;
    class       volScalarField;
    location    "0.25";
    object      alpha.water;
}
// * * * * * * * * * * * * * * * * * * * * * * * * * * * * * * * * * * * * * //

dimensions      [];

internalField   nonuniform List<scalar> 
2268
(
1.51779e-17
1.77892e-15
8.01998e-15
3.12108e-14
9.20561e-14
2.67061e-13
6.53492e-13
1.3463e-12
2.56515e-12
5.06454e-12
8.39232e-12
1.56307e-11
3.13737e-11
7.42771e-11
1.18265e-10
1.93673e-10
4.29351e-09
1.08611e-08
8.36782e-09
3.39237e-09
1.14647e-09
6.78155e-10
3.93117e-10
9.27002e-16
6.67992e-14
1.85456e-13
5.04173e-13
1.37022e-12
3.64905e-12
8.07038e-12
1.51806e-11
2.74895e-11
4.81175e-11
7.63862e-11
1.08659e-10
1.32097e-10
1.38003e-10
1.43388e-10
1.19013e-10
1.12239e-10
8.38391e-08
2.06516e-07
1.97688e-08
2.30844e-09
2.07244e-09
4.9286e-10
1.06699e-13
9.56901e-13
1.96912e-12
4.39777e-12
1.05215e-11
2.49721e-11
5.03138e-11
8.59287e-11
1.38438e-10
2.22624e-10
3.21387e-10
4.26736e-10
4.85611e-10
4.65731e-10
5.58675e-10
6.03944e-10
2.78603e-10
1.53466e-10
1.91144e-06
2.73749e-06
1.72361e-07
2.83314e-08
5.2935e-10
1.77288e-12
6.5728e-12
1.11825e-11
1.91941e-11
3.85819e-11
7.94416e-11
1.4176e-10
2.24372e-10
3.23916e-10
4.6348e-10
6.23285e-10
7.54736e-10
8.12219e-10
7.68798e-10
9.81649e-10
1.24595e-09
1.53597e-10
1.49536e-10
2.61101e-06
1.08417e-05
6.71479e-06
2.57826e-06
1.65653e-07
1.65324e-11
3.17205e-11
4.32786e-11
5.7298e-11
8.78905e-11
1.43467e-10
2.27972e-10
3.243e-10
4.26293e-10
5.70812e-10
6.93272e-10
7.84515e-10
7.35376e-10
7.05551e-10
7.82112e-10
7.89029e-10
3.24803e-07
1.53496e-10
2.11036e-09
1.01903e-06
4.25787e-06
3.51071e-06
1.00519e-06
6.96616e-11
8.66122e-11
9.28034e-11
1.01095e-10
1.19642e-10
1.58651e-10
2.23792e-10
2.8532e-10
3.17808e-10
4.54981e-10
5.42315e-10
5.68628e-10
5.8304e-10
5.88158e-10
6.01462e-10
0.00786338
0.0827447
0.0876545
0.0396341
8.91473e-07
4.09191e-05
2.22811e-05
2.86826e-06
2.07482e-10
2.00752e-10
1.71985e-10
1.55264e-10
1.4518e-10
1.63938e-10
1.94176e-10
2.00992e-10
2.16283e-10
2.24274e-10
5.01237e-10
5.8304e-10
0.00687263
0.0453363
0.171837
0.432599
0.779218
0.81995
0.701602
0.182407
7.04628e-06
8.699e-06
1.50893e-06
3.14253e-09
1.7899e-09
1.1553e-09
8.61928e-10
6.86054e-10
4.95788e-10
5.49322e-10
0.00028003
0.0129482
0.0508091
0.126362
0.246836
0.402582
0.618162
0.882489
1
1
1
0.993772
0.445818
0.0079072
6.2122e-08
1.67887e-06
7.11989e-15
2.79344e-14
4.04303e-13
2.01915e-12
5.86458e-12
1.0274e-11
1.31863e-11
7.87138e-12
4.60689e-12
2.73892e-12
1.74266e-12
1.15061e-12
7.33489e-13
4.2176e-13
1.7187e-13
8.66337e-14
3.4402e-14
7.50829e-15
1.2936e-15
1.78721e-14
5.35484e-13
3.25046e-12
1.00897e-11
2.11077e-11
3.18207e-11
3.40771e-11
2.45781e-11
1.80532e-11
1.20631e-11
8.07417e-12
5.78101e-12
4.17433e-12
2.85462e-12
1.86454e-12
8.91488e-13
3.25533e-13
5.69535e-14
2.69593e-15
1.11184e-13
1.06021e-12
4.08186e-12
1.14568e-11
2.72739e-11
5.36085e-11
5.55564e-11
5.49392e-11
4.79233e-11
3.52661e-11
2.41845e-11
1.61901e-11
1.14643e-11
8.86972e-12
6.08145e-12
3.11176e-12
1.7178e-12
4.3701e-13
1.71019e-14
1.30198e-13
6.05289e-13
1.1151e-12
5.86885e-12
3.4888e-11
8.329e-11
8.99567e-11
7.70499e-11
6.64551e-11
6.05437e-11
4.94177e-11
2.86296e-11
1.64791e-11
1.18796e-11
9.18574e-12
4.69561e-12
2.9724e-12
8.61905e-13
7.45225e-14
9.94314e-14
5.38346e-13
2.63616e-12
1.67781e-11
9.16981e-11
1.33102e-10
1.23414e-10
1.11555e-10
1.00472e-10
8.91442e-11
7.29334e-11
4.54952e-11
1.87595e-11
1.28064e-11
1.01274e-11
5.65767e-12
3.49079e-12
1.36433e-12
1.76633e-13
6.04591e-14
2.23282e-13
1.92972e-12
7.78062e-11
1.86789e-10
1.88693e-10
1.55381e-10
1.32329e-10
1.17058e-10
1.0364e-10
8.30725e-11
4.91488e-11
1.88234e-11
1.24603e-11
9.31547e-12
4.99297e-12
3.01098e-12
1.4867e-12
3.34434e-13
3.79832e-14
7.3486e-14
4.2247e-11
2.22925e-10
2.97486e-10
2.36053e-10
1.89847e-10
1.62377e-10
1.38653e-10
1.1586e-10
8.65236e-11
4.69714e-11
1.81864e-11
1.15283e-11
7.76773e-12
3.93963e-12
2.29145e-12
1.28826e-12
2.70756e-13
2.01938e-14
8.24146e-13
2.08771e-10
4.09478e-10
3.77957e-10
2.88405e-10
2.35102e-10
1.87222e-10
1.47423e-10
1.18103e-10
7.88435e-11
3.92174e-11
1.81495e-11
7.89513e-12
4.19879e-12
2.00713e-12
1.22386e-12
8.90728e-13
2.33431e-13
0.303094
0.259942
0.230104
0.231585
0.245014
0.27641
0.327899
0.420242
0.527267
0.640967
0.754098
0.855543
0.942369
1
1
1
1
1
0.999794
0.577428
0.105208
2.90979e-09
5.62276e-08
0.992694
0.969776
0.952448
0.952398
0.958866
0.974149
0.99737
1
1
1
1
1
1
1
1
1
1
1
0.999994
0.875058
0.139151
0.000803296
1.45835e-06
1
1
1
1
1
1
1
1
1
1
1
1
1
1
1
1
1
1
1
0.923587
0.180722
0.000215038
2.9326e-05
1
1
1
1
1
1
1
1
1
1
1
1
1
1
1
1
1
1
1
0.769832
0.081651
6.29531e-10
2.48957e-06
1
1
1
1
1
1
1
1
1
1
1
1
1
1
1
1
1
1
0.808526
0.170617
1.53076e-07
1.69894e-09
8.05469e-09
1
1
1
1
1
1
1
1
1
1
1
1
1
0.999999
0.999996
0.999997
0.999999
0.772272
0.142183
1.45536e-09
3.60754e-09
2.11714e-09
2.19414e-09
1
1
1
1
1
1
1
1
1
1
1
1
1
0.999996
0.999979
0.999978
0.719842
0.105023
1.86249e-09
1.45263e-09
1.71539e-09
1.85211e-09
2.02236e-09
1
1
1
1
1
1
1
1
1
1
1
1
1
1
0.999953
0.64529
0.0613587
3.97394e-09
1.06511e-09
1.61634e-09
1.77341e-09
1.60013e-09
1.26066e-09
1
1
1
1
1
1
1
1
1
1
1
1
1
0.998854
0.664365
0.0481177
2.3706e-10
6.13813e-10
1.08915e-09
1.15969e-09
9.90671e-10
6.51528e-10
4.26245e-10
0.994777
0.997326
0.998965
0.999259
0.999142
0.997931
0.994152
0.98477
0.966382
0.935268
0.882678
0.850322
0.871507
0.883473
0.307926
0.0003705
7.21181e-10
9.73151e-10
6.50353e-10
6.80022e-10
6.10623e-10
4.33506e-10
2.61456e-10
0.448229
0.482712
0.513566
0.524951
0.520687
0.495283
0.445642
0.378813
0.303807
0.227334
0.147527
0.112192
0.13582
0.15907
0.0663123
0.000270085
1.42265e-05
9.48229e-08
6.75013e-11
4.92419e-11
6.75014e-11
1.15358e-10
2.525e-10
-2.4995e-19
0
7.55492e-11
4.78409e-13
-4.02822e-14
-1.4684e-14
-8.67857e-14
-8.61425e-14
-3.79547e-14
8.04868e-15
1.76157e-13
4.27363e-12
8.31352e-20
-1.49178e-09
-9.15067e-11
0.00106322
0.000229427
2.20631e-07
1.36265e-06
4.09451e-07
5.13018e-08
1.10103e-08
4.37112e-09
-1.50213e-18
-8.39837e-18
-1.06266e-15
-8.31841e-13
-4.8718e-13
-1.72183e-13
-7.09247e-13
-5.55081e-13
-1.99735e-13
2.56441e-13
4.94433e-12
1.15869e-10
1.10725e-09
3.14381e-10
1.6969e-11
0.000155681
0.000114215
3.52374e-05
8.27337e-06
1.89819e-06
3.90236e-07
7.89711e-08
1.83885e-08
-3.63257e-18
-3.11254e-17
-2.59805e-15
-1.26364e-12
-6.97656e-13
-2.24868e-13
-1.0966e-12
-7.71976e-13
-1.89057e-13
1.62707e-12
2.28898e-11
2.90862e-10
2.99926e-09
2.26942e-09
3.65945e-10
5.78323e-17
1.40908e-17
6.937e-06
5.13328e-06
8.82383e-07
3.99623e-08
1.36286e-08
3.16688e-09
-8.13157e-18
-9.08553e-17
-5.29931e-15
-1.33886e-12
-6.22687e-13
-1.65124e-13
-9.70778e-13
-5.68498e-13
6.52637e-14
3.81507e-12
4.87922e-11
5.3023e-10
3.94048e-09
3.21879e-09
7.96586e-10
1.09132e-10
5.61623e-12
1.15117e-13
1.78255e-13
1.0119e-14
1.36181e-14
1.07136e-16
1.26407e-10
-1.33791e-17
-2.17294e-16
-9.58355e-15
-1.01829e-12
-3.73708e-13
-7.54393e-14
-5.16612e-13
-2.17506e-13
4.16887e-13
6.15988e-12
6.55422e-11
6.0051e-10
3.53513e-09
2.50094e-09
5.91248e-10
9.87718e-11
1.20268e-11
1.16169e-12
1.19702e-12
6.98673e-13
7.06259e-14
2.37848e-16
4.48434e-35
-1.71943e-17
-4.40321e-16
-1.53976e-14
-5.22894e-13
-1.43477e-13
-2.1793e-14
-1.19017e-13
1.30545e-14
7.52473e-13
7.67417e-12
6.49274e-11
4.50725e-10
2.03026e-09
1.13249e-09
1.61956e-10
1.83401e-11
1.77478e-12
2.2113e-13
3.4521e-12
1.85437e-12
1.16885e-13
3.78068e-16
3.19348e-20
-1.52309e-17
-5.14862e-16
-1.30697e-14
-1.57798e-13
-3.39148e-14
-2.96269e-15
5.08822e-15
7.72617e-14
8.57203e-13
7.25548e-12
4.57048e-11
2.00595e-10
5.5361e-10
2.46169e-10
-2.74086e-16
-9.37521e-15
8.01158e-17
4.41698e-14
2.62272e-12
1.04669e-12
2.79298e-15
3.19291e-21
1.01147e-20
-5.97866e-18
-2.00061e-16
-3.3935e-15
-2.26501e-14
-3.97931e-15
-8.69706e-17
3.25718e-15
4.0529e-14
3.81131e-13
2.64289e-12
1.26744e-11
3.61039e-11
4.86241e-11
-1.74017e-31
-1.16268e-30
-5.06897e-30
-1.66636e-29
-5.81635e-29
2.81239e-33
1.91595e-32
2.35576e-31
2.71484e-30
1.65706e-29
1.95022e-57
2.08682e-55
0
1.00858e-69
2.81118e-69
1.35495e-64
6.50491e-47
3.38961e-45
9.57489e-44
2.13924e-42
4.46272e-41
8.23631e-40
1.20837e-38
1.38323e-37
1.32683e-36
1.31985e-35
1.2142e-34
1.08295e-33
7.59832e-33
4.03297e-32
7.62924e-31
5.78119e-30
4.19915e-29
8.99514e-57
1.58928e-54
1.48858e-52
9.58574e-51
4.68993e-49
1.83938e-47
5.98673e-46
1.65222e-44
3.89499e-43
7.82902e-42
1.37407e-40
2.05498e-39
2.61781e-38
2.68684e-37
2.87606e-36
2.49922e-35
2.34138e-34
2.28476e-33
1.59747e-32
1.09438e-31
8.04876e-31
5.47046e-30
2.91946e-29
1.37339e-56
2.44546e-54
2.26303e-52
1.4245e-50
6.76714e-49
2.56377e-47
8.02588e-46
2.11666e-44
4.64737e-43
8.60882e-42
1.5704e-40
2.24384e-39
2.72628e-38
2.6842e-37
2.50239e-36
2.48279e-35
2.08015e-34
1.58798e-33
1.00302e-32
6.3259e-32
4.02531e-31
2.33229e-30
1.14434e-29
1.03902e-56
1.83955e-54
1.665e-52
1.01386e-50
4.62333e-49
1.66916e-47
4.93327e-46
1.22027e-44
2.56547e-43
4.63658e-42
7.26918e-41
9.75463e-40
1.0684e-38
1.2624e-37
1.03596e-36
1.03645e-35
8.30491e-35
5.92564e-34
3.61e-33
2.15848e-32
1.309e-31
7.13571e-31
3.23994e-30
3.05419e-57
5.41421e-55
4.86231e-53
2.91987e-51
1.30823e-49
4.63269e-48
1.34311e-46
3.26513e-45
6.77257e-44
1.21358e-42
1.88925e-41
2.54382e-40
2.95386e-39
3.04877e-38
2.59017e-37
2.6872e-36
2.17815e-35
1.45562e-34
8.52884e-34
4.66174e-33
2.63146e-32
1.4451e-31
6.71465e-31
3.49406e-58
6.70471e-56
6.45585e-54
4.12403e-52
1.95255e-50
7.26573e-49
2.20295e-47
5.57537e-46
1.19789e-44
2.21059e-43
3.53166e-42
4.91714e-41
6.01361e-40
6.48742e-39
5.33641e-38
5.42752e-37
4.28108e-36
2.74623e-35
1.62135e-34
9.32496e-34
5.2919e-33
2.75752e-32
1.24878e-31
1.78572e-59
3.76965e-57
3.98505e-55
2.79711e-53
1.45857e-51
5.99378e-50
2.01019e-48
5.62402e-47
1.33095e-45
2.68781e-44
4.65851e-43
6.95951e-42
8.99779e-41
1.01075e-39
8.54412e-39
8.54031e-38
6.1417e-37
3.8475e-36
2.16601e-35
1.21797e-34
7.10111e-34
3.77909e-33
1.74998e-32
5.54978e-61
1.29374e-58
1.49536e-56
1.13972e-54
6.42597e-53
2.84959e-51
1.03101e-49
3.11281e-48
7.9578e-47
1.73524e-45
3.24372e-44
5.21578e-43
7.2371e-42
8.6896e-41
7.72704e-40
8.2243e-39
6.18656e-38
4.04522e-37
2.39525e-36
1.43843e-35
8.89836e-35
4.8494e-34
2.29203e-33
9.60291e-63
2.50943e-60
3.23122e-58
2.73323e-56
1.70658e-54
8.37042e-53
3.14743e-51
9.22697e-50
3.16195e-48
7.53409e-47
1.54342e-45
2.7077e-44
4.07639e-43
5.28244e-42
5.92359e-41
5.79913e-40
5.00707e-39
3.81525e-38
2.55099e-37
1.58082e-36
9.76851e-36
5.22402e-35
2.50334e-34
1.0392e-64
3.05653e-62
4.39782e-60
4.13427e-58
2.85433e-56
1.54024e-54
6.74291e-53
2.452e-51
7.52043e-50
1.96517e-48
4.40506e-47
8.5105e-46
1.42187e-44
2.05883e-43
2.58577e-42
2.81366e-41
2.6422e-40
2.12869e-39
1.49598e-38
1.02095e-37
7.24483e-37
4.394e-36
2.36946e-35
6.40252e-67
2.1433e-64
3.49469e-62
3.71938e-60
2.90719e-58
1.77573e-56
8.79053e-55
3.60711e-53
1.2446e-51
3.6452e-50
9.12108e-49
1.95907e-47
3.62499e-46
5.79611e-45
8.03416e-44
9.70397e-43
1.02846e-41
9.58174e-41
7.89862e-40
6.16957e-39
4.77692e-38
3.12213e-37
1.79844e-36
3.19695e-69
1.23966e-66
2.31421e-64
2.79613e-62
2.46141e-60
1.68042e-58
9.23567e-57
4.18498e-55
1.5886e-53
5.10803e-52
1.40271e-50
3.3096e-49
6.71156e-48
1.1583e-46
1.71916e-45
2.3708e-44
3.02992e-43
3.15197e-42
2.99236e-41
2.71757e-40
2.3671e-39
1.79069e-38
1.14496e-37
8.17109e-72
3.70013e-69
7.97061e-67
1.10639e-64
1.11657e-62
8.73134e-61
5.49729e-59
2.85676e-57
1.24587e-55
4.61138e-54
1.46037e-52
3.98445e-51
9.42077e-50
1.93896e-48
3.48419e-47
5.49338e-46
7.64893e-45
9.29977e-44
9.7588e-43
9.56409e-42
9.18538e-41
7.88725e-40
6.35707e-39
1.63408e-74
8.594e-72
2.10292e-69
3.28459e-67
3.71249e-65
3.24642e-63
2.28757e-61
1.3341e-59
6.55582e-58
2.54213e-56
8.02147e-55
3.06349e-53
8.10974e-52
1.87191e-50
3.77738e-49
6.74675e-48
1.07982e-46
1.56045e-45
2.05169e-44
2.50658e-43
2.87774e-42
2.97221e-41
2.66429e-40
1.81786e-77
1.15106e-74
3.33177e-72
6.15139e-70
8.24151e-68
8.54985e-66
7.12882e-64
4.90164e-62
2.82969e-60
1.38759e-58
5.79055e-57
2.07038e-55
6.53122e-54
1.76166e-52
4.18949e-51
8.97167e-50
1.74699e-48
3.06597e-47
4.77715e-46
6.50868e-45
7.76837e-44
8.78765e-43
9.82718e-42
1.27087e-80
9.27772e-78
3.10352e-75
6.55645e-73
1.01048e-70
1.21719e-68
1.19392e-66
9.78016e-65
6.7926e-63
4.03493e-61
2.0608e-59
9.08685e-58
3.47353e-56
1.15615e-54
3.36585e-53
8.61885e-52
1.95877e-50
3.99876e-49
7.39088e-48
1.2325e-46
1.84123e-45
2.4796e-44
3.06225e-43
6.20532e-84
5.62956e-81
2.2701e-78
5.89166e-76
1.11546e-73
1.6398e-71
1.94109e-69
1.89405e-67
1.54864e-65
1.07432e-63
6.38804e-62
3.28439e-60
1.47141e-58
5.78229e-57
2.00459e-55
6.16218e-54
1.68863e-52
4.14819e-51
9.14011e-50
1.78494e-48
3.10677e-47
5.19005e-46
8.30409e-45
1.18111e-87
1.20717e-84
5.62064e-82
1.74081e-79
4.01947e-77
7.29777e-75
1.07332e-72
1.30266e-70
1.32168e-68
1.13294e-66
8.28874e-65
5.23358e-63
2.88774e-61
1.41044e-59
6.16226e-58
2.41899e-56
8.50202e-55
2.65193e-53
7.28994e-52
1.77502e-50
3.91344e-49
7.8708e-48
1.37876e-46
2.09607e-91
2.20138e-88
1.18057e-85
4.46125e-83
1.29462e-80
2.99293e-78
5.63147e-76
8.75777e-74
1.1398e-71
1.25493e-69
1.18031e-67
9.56948e-66
6.7462e-64
4.17036e-62
2.27913e-60
1.10931e-58
4.83586e-57
1.89156e-55
6.58301e-54
1.998e-52
5.36122e-51
1.39103e-49
3.44981e-48
1.23228e-95
1.08676e-92
6.42579e-90
2.9956e-87
1.13524e-84
3.51186e-82
8.90583e-80
1.86559e-77
3.26088e-75
4.81038e-73
6.06105e-71
6.60051e-69
6.27955e-67
5.26289e-65
3.90416e-63
2.56547e-61
1.49027e-59
7.63962e-58
3.46418e-56
1.40019e-54
5.08939e-53
1.67137e-51
4.97636e-50
1.64172e-100
1.03245e-97
6.43583e-95
3.79192e-92
2.00341e-89
9.02179e-87
3.38496e-84
1.055e-81
2.74969e-79
6.05482e-77
1.13845e-74
1.84484e-72
2.59514e-70
3.18469e-68
3.42064e-66
3.22487e-64
2.67852e-62
1.96817e-60
1.27988e-58
7.31286e-57
3.65418e-55
1.63126e-53
6.694e-52
1.0072e-106
4.439e-104
2.7584e-101
2.15446e-98
1.77168e-95
1.33244e-92
8.57243e-90
4.62232e-87
2.0892e-84
7.96947e-82
2.58562e-79
7.18437e-77
1.72033e-74
3.57322e-72
6.48907e-70
1.04053e-67
1.48773e-65
1.90531e-63
2.17188e-61
2.16407e-59
1.83834e-57
1.30046e-55
7.62284e-54
4.82184e-117
1.12374e-114
8.11131e-112
1.12936e-108
2.18049e-105
4.41275e-102
8.02237e-99
1.23817e-95
1.60555e-92
1.75864e-89
1.64198e-86
1.31771e-83
9.14717e-81
5.51499e-78
2.89334e-75
1.32062e-72
5.23892e-70
1.80914e-67
5.48269e-65
1.46899e-62
3.33845e-60
5.41232e-58
6.0493e-56
1.84042e-10
1.80258e-10
5.65739e-11
2.88945e-11
1.85372e-10
1.8305e-10
3.74744e-09
7.26413e-09
1.87012e-10
5.02259e-10
8.53447e-09
1.02086e-08
3.70607e-07
8.29907e-09
1.80072e-09
4.69331e-09
8.90289e-09
1.20314e-09
5.48572e-09
8.00748e-09
2.37956e-09
4.50174e-09
8.01339e-09
7.9995e-09
2.1493e-09
2.19574e-09
2.02793e-09
1.397e-09
1.04714e-09
8.62369e-10
6.5263e-10
4.11697e-10
3.29505e-10
2.45913e-10
1.72477e-10
1.01205e-10
1.78409e-10
1.23527e-10
9.32124e-11
6.20164e-11
2.50189e-10
2.34352e-10
1.92726e-10
1.58767e-10
2.51921e-09
1.81545e-09
1.09185e-09
7.15389e-10
8.21414e-09
4.02963e-09
2.56341e-09
8.82672e-10
1.55467e-09
9.33725e-10
4.35789e-10
1.31635e-10
1.22642e-10
5.36106e-11
2.5707e-12
9.21011e-15
-6.49298e-21
-1.67536e-21
3.35281e-16
4.66536e-16
-1.32972e-20
-2.07402e-21
-1.04528e-22
-1.99226e-24
9.57157e-24
3.60026e-27
6.83858e-27
3.19622e-26
9.17883e-29
2.65041e-28
8.52924e-28
2.71388e-27
2.75792e-28
8.49518e-28
2.0095e-27
4.02454e-27
1.45334e-28
3.45955e-28
8.53101e-28
1.68196e-27
4.89365e-29
1.1385e-28
2.42876e-28
4.91093e-28
1.34607e-29
2.83481e-29
6.73801e-29
1.31193e-28
2.84491e-30
6.49288e-30
1.35753e-29
2.84505e-29
5.03546e-31
1.18613e-30
2.79197e-30
5.57532e-30
7.99336e-32
1.94505e-31
4.3135e-31
9.53308e-31
1.05473e-32
2.41567e-32
6.12948e-32
1.32728e-31
1.19707e-33
3.27587e-33
8.22358e-33
2.01772e-32
1.22952e-34
3.42678e-34
9.00746e-34
2.33797e-33
1.02046e-35
3.201e-35
9.25572e-35
2.59705e-34
7.44164e-37
2.38402e-36
7.54968e-36
2.37169e-35
4.41449e-38
1.61476e-37
5.67745e-37
1.93564e-36
2.17072e-39
8.9933e-39
3.56083e-38
1.37458e-37
9.43954e-41
4.49814e-40
2.02354e-39
8.79387e-39
3.47948e-42
1.91003e-41
9.91117e-41
4.96777e-40
1.10762e-43
7.10267e-43
4.31439e-42
2.4992e-41
2.35841e-45
2.41094e-44
1.75218e-43
1.16511e-42
7.18831e-47
6.97894e-46
6.34459e-45
4.97114e-44
1.35426e-48
1.69162e-47
1.96377e-46
1.85055e-45
2.4533e-50
3.93899e-49
5.67415e-48
6.42717e-47
3.89273e-52
8.44629e-51
1.56767e-49
2.175e-48
6.30227e-54
1.97814e-52
4.44247e-51
7.42694e-50
1.6869e-11
2.71563e-10
6.14589e-10
5.84265e-10
4.67318e-10
3.19017e-10
2.53531e-10
1.94947e-10
1.44787e-10
9.65963e-11
5.70226e-11
2.73307e-11
9.99613e-12
4.21568e-12
1.05494e-12
2.6599e-13
2.48784e-13
2.92042e-13
1.57175e-13
3.14869e-09
1.54538e-09
8.75839e-10
6.82049e-10
4.99226e-10
3.32856e-10
2.57713e-10
1.80364e-10
1.06727e-10
4.70588e-11
2.53325e-11
1.02427e-11
2.26314e-12
2.91365e-13
2.32033e-14
1.86451e-15
5.51698e-15
2.27635e-14
4.80023e-14
1.01595e-08
4.06099e-09
8.82224e-10
6.5317e-10
4.55195e-10
2.93364e-10
1.87531e-10
1.04513e-10
3.98318e-11
1.44837e-11
4.35889e-12
8.29002e-13
8.19095e-14
3.81684e-15
1.07917e-16
4.80639e-17
1.56239e-16
2.86111e-16
3.03082e-15
6.80905e-09
2.81982e-09
1.28877e-09
6.61769e-10
3.58797e-10
1.57679e-10
6.25985e-11
2.4002e-11
7.69254e-12
1.81477e-12
3.16143e-13
3.05047e-14
1.34744e-15
3.51817e-16
1.25379e-16
3.39154e-17
7.02756e-17
2.22357e-17
3.46023e-16
6.72893e-09
3.85707e-09
1.77905e-09
6.67146e-10
1.7902e-10
4.6748e-11
1.19826e-11
3.33051e-12
8.88766e-13
2.00573e-13
2.88036e-14
2.29587e-15
6.92195e-16
2.37018e-16
5.41297e-17
1.53259e-17
1.57566e-17
1.33618e-17
3.15057e-18
3.13214e-09
1.19169e-09
4.2667e-10
1.34123e-10
4.32444e-11
1.22171e-11
2.39815e-12
3.03417e-13
5.72893e-14
1.09599e-14
5.10189e-15
2.30446e-15
6.12688e-16
4.59334e-17
1.4548e-17
5.04021e-18
5.10687e-18
5.56358e-18
1.49719e-18
5.88095e-10
2.3419e-10
7.89635e-11
3.63413e-11
1.36361e-11
2.49287e-12
2.55203e-13
2.00143e-14
1.65579e-15
1.16724e-15
7.13888e-16
3.47214e-16
6.14467e-17
8.75805e-18
4.53723e-18
2.08423e-18
2.12225e-18
2.6839e-18
1.08753e-18
1.78095e-10
5.62597e-11
2.2045e-11
7.63042e-12
1.2549e-12
1.36453e-13
7.47379e-15
3.07245e-16
2.03064e-16
1.79528e-16
1.16731e-16
5.81631e-17
1.23048e-17
3.14323e-18
2.50499e-18
1.11666e-18
1.10036e-18
1.23816e-18
5.66402e-19
3.93767e-11
7.24045e-12
1.37337e-12
4.02752e-13
1.12786e-13
2.42414e-14
2.59676e-15
3.86851e-16
9.07563e-17
3.7232e-17
2.03509e-17
7.86116e-18
2.25412e-18
1.30587e-18
1.21718e-18
5.81486e-19
4.95608e-19
3.85296e-19
3.76203e-19
2.21609e-11
5.20988e-12
1.64788e-12
1.13099e-12
4.45955e-13
7.35306e-14
8.87608e-15
1.33874e-15
1.03301e-16
7.22213e-18
2.15091e-18
1.36324e-18
6.7052e-19
6.47372e-19
5.54876e-19
2.60554e-19
2.09285e-19
1.9774e-19
1.4239e-19
7.77548e-11
3.45068e-11
1.02149e-11
3.63404e-12
9.59677e-13
8.32901e-14
1.02869e-15
4.62375e-17
4.56013e-18
5.78104e-19
5.56597e-19
3.7884e-19
2.52556e-19
3.12863e-19
2.28552e-19
1.08716e-19
8.20175e-20
5.14835e-20
8.35985e-20
2.71754e-10
9.58652e-11
1.96078e-11
1.60955e-12
2.62e-13
4.78688e-14
8.68875e-16
1.69258e-17
5.52251e-19
1.87547e-19
1.83254e-19
1.31033e-19
1.18396e-19
1.40808e-19
8.73304e-20
4.22039e-20
3.07077e-20
2.24814e-20
2.23362e-20
2.85199e-10
2.24433e-11
3.4067e-12
2.12016e-13
1.34961e-15
1.91551e-16
1.885e-17
8.57072e-19
5.97918e-20
7.47755e-20
6.32717e-20
4.67212e-20
5.2061e-20
6.14807e-20
3.23695e-20
1.59939e-20
1.04946e-20
4.56512e-21
9.26593e-21
1.26426e-11
2.15318e-12
3.51626e-13
5.73094e-15
3.56643e-16
9.31842e-18
5.65733e-20
1.83255e-20
2.49167e-20
2.65875e-20
2.15182e-20
1.89096e-20
2.22273e-20
2.56694e-20
1.20666e-20
6.01671e-21
3.21345e-21
1.70774e-21
7.13672e-22
2.39344e-14
8.20238e-15
2.66575e-16
1.29062e-17
2.08263e-19
2.70185e-21
4.63211e-21
7.38336e-21
9.66249e-21
9.71978e-21
7.80224e-21
7.64019e-21
8.8188e-21
9.8534e-21
4.39241e-21
2.20164e-21
8.89884e-22
2.03117e-22
2.12502e-22
1.77871e-17
1.53554e-19
1.21425e-21
7.92203e-23
2.3748e-22
8.75127e-22
1.80471e-21
2.98708e-21
3.68926e-21
3.39514e-21
2.79622e-21
2.93158e-21
3.36688e-21
3.38006e-21
1.52204e-21
7.68469e-22
2.4572e-22
7.56925e-23
1.34834e-23
5.82569e-26
2.07059e-24
7.54091e-24
1.88724e-23
9.42085e-23
3.46649e-22
7.07359e-22
1.08802e-21
1.28354e-21
1.15053e-21
9.46337e-22
1.02061e-21
1.17072e-21
1.03115e-21
5.00431e-22
2.34837e-22
6.26903e-23
9.03476e-24
2.30976e-24
1.18975e-25
5.20219e-25
1.46063e-24
7.11443e-24
3.67638e-23
1.2747e-22
2.52078e-22
3.60858e-22
4.04725e-22
3.52685e-22
2.98733e-22
3.18725e-22
3.57787e-22
2.78858e-22
1.49446e-22
6.01337e-23
1.38404e-23
2.1761e-24
1.20088e-25
1.35729e-26
7.59625e-26
5.25032e-25
2.69586e-24
1.33593e-23
4.13482e-23
7.86286e-23
1.08452e-22
1.18801e-22
1.02565e-22
8.83185e-23
9.03864e-23
9.67756e-23
6.60623e-23
3.89263e-23
1.39242e-23
2.57339e-24
1.86345e-25
1.55122e-26
7.40776e-27
2.04959e-26
1.47178e-25
9.33332e-25
4.30761e-24
1.21461e-23
2.19395e-23
2.86753e-23
3.02307e-23
2.74652e-23
2.43072e-23
2.34406e-23
2.17748e-23
1.43429e-23
9.26946e-24
3.04927e-24
4.09204e-25
2.52631e-26
7.33113e-28
3.15064e-27
8.4355e-27
3.94993e-26
2.85448e-25
1.2197e-24
3.21699e-24
5.5416e-24
6.99794e-24
7.14187e-24
6.56175e-24
6.01647e-24
5.77639e-24
4.52516e-24
2.98089e-24
1.91987e-24
5.8091e-25
5.88217e-26
1.61244e-27
9.57552e-29
1.05604e-27
3.52877e-27
9.49488e-27
7.52369e-26
3.01801e-25
7.65523e-25
1.27349e-24
1.57281e-24
1.56759e-24
1.40591e-24
1.27707e-24
1.11181e-24
8.38629e-25
5.66571e-25
3.31222e-25
9.06438e-26
8.12719e-27
2.19877e-28
4.84929e-30
2.68162e-28
8.95468e-28
2.40048e-27
1.74798e-26
6.54316e-26
1.61527e-25
2.65463e-25
3.24226e-25
3.11666e-25
2.73557e-25
2.53932e-25
2.07041e-25
1.6131e-25
9.57934e-26
4.89816e-26
1.19027e-26
6.40533e-28
1.38511e-29
9.16053e-31
6.18887e-29
2.0754e-28
5.46003e-28
3.61035e-27
1.26842e-26
3.04537e-26
4.8534e-26
5.75053e-26
5.59488e-26
4.78156e-26
3.97215e-26
3.86294e-26
2.93601e-26
1.47969e-26
6.55118e-27
1.40832e-27
5.88696e-29
2.49396e-30
9.86247e-32
1.21474e-29
4.2885e-29
1.12013e-28
6.68501e-28
2.20076e-27
5.11736e-27
8.07146e-27
9.41616e-27
8.96838e-27
7.09726e-27
5.91624e-27
5.20162e-27
3.73968e-27
2.13207e-27
8.10737e-28
1.5439e-28
4.68511e-30
2.49356e-31
8.09927e-33
2.14812e-30
8.05971e-30
2.09032e-29
1.12216e-28
3.45695e-28
7.75793e-28
1.20909e-27
1.41895e-27
1.29331e-27
9.32302e-28
9.21379e-28
8.10865e-28
5.62964e-28
2.84701e-28
9.24702e-29
1.5389e-29
3.10817e-31
1.97323e-32
5.33099e-34
3.25047e-31
1.384e-30
4.34519e-30
1.64725e-29
4.9393e-29
1.0694e-28
1.62339e-28
1.89422e-28
1.52751e-28
1.1819e-28
1.06405e-28
1.12767e-28
7.58956e-29
2.93013e-29
9.78482e-30
1.37779e-30
3.47382e-32
1.31368e-33
2.82796e-35
5.16001e-32
2.37271e-31
7.49968e-31
2.2199e-30
6.49544e-30
1.3517e-29
1.93981e-29
2.05279e-29
1.72868e-29
1.20053e-29
1.39672e-29
1.33143e-29
8.5178e-30
2.92765e-30
8.28868e-31
1.12731e-31
2.84666e-33
7.47497e-35
1.19618e-36
6.55815e-33
3.30852e-32
1.06668e-31
2.84049e-31
7.94903e-31
1.55368e-30
2.18338e-30
2.18485e-30
1.41534e-30
1.40862e-30
1.56689e-30
1.38695e-30
8.454e-31
2.93443e-31
6.79453e-32
8.53974e-33
1.78985e-34
3.71531e-36
4.82306e-38
7.51347e-34
3.9068e-33
1.32172e-32
3.4711e-32
9.29592e-32
1.64214e-31
2.10628e-31
2.00138e-31
1.41862e-31
1.38117e-31
1.45838e-31
1.27396e-31
7.4403e-32
2.47145e-32
5.7733e-33
5.93413e-34
9.70397e-36
1.63584e-37
2.13618e-39
7.49689e-35
3.97559e-34
1.47805e-33
4.02285e-33
1.0226e-32
1.55646e-32
1.93504e-32
1.98175e-32
1.369e-32
1.12559e-32
1.19976e-32
1.03827e-32
5.83702e-33
1.7882e-33
4.13573e-34
3.7279e-35
5.66747e-37
6.51864e-39
8.26244e-41
6.53483e-36
3.63059e-35
1.43737e-34
4.05848e-34
9.97328e-34
1.55575e-33
1.88229e-33
1.70586e-33
1.17121e-33
8.30959e-34
8.83891e-34
7.55849e-34
4.09601e-34
1.15959e-34
2.51196e-35
2.10513e-36
3.3748e-38
2.53614e-40
2.71954e-42
5.10182e-37
3.10091e-36
1.32448e-35
4.16366e-35
9.86916e-35
1.52429e-34
1.71352e-34
1.39242e-34
9.27638e-35
5.74227e-35
5.92321e-35
4.95291e-35
2.582e-35
6.76937e-36
1.36531e-36
1.07024e-37
1.72672e-39
1.03428e-41
1.05538e-43
3.57519e-38
2.41476e-37
1.13313e-36
3.88106e-36
9.48987e-36
1.44198e-35
1.51926e-35
1.15627e-35
7.09514e-36
3.83608e-36
3.67089e-36
2.94899e-36
1.47016e-36
3.58003e-37
6.67766e-38
4.92014e-39
7.67636e-41
4.42676e-43
4.89683e-45
2.24767e-39
1.70423e-38
8.86886e-38
3.31032e-37
8.51883e-37
1.32709e-36
1.35329e-36
9.72508e-37
5.4653e-37
2.56109e-37
2.14025e-37
1.61242e-37
7.61318e-38
1.72915e-38
2.96352e-39
2.05948e-40
3.08837e-42
1.93684e-44
2.11597e-46
1.2828e-40
1.10674e-39
6.43021e-39
2.60687e-38
7.1618e-38
1.17591e-37
1.2067e-37
8.29346e-38
4.32993e-38
1.76356e-38
1.19819e-38
8.19469e-39
3.6172e-39
7.70125e-40
1.20733e-40
7.91223e-42
1.138e-43
8.52337e-46
8.41107e-48
6.66463e-42
6.36386e-41
3.90229e-40
1.91796e-39
5.66112e-39
9.97604e-39
1.05972e-38
7.12962e-39
3.51891e-39
1.27293e-39
6.63464e-40
3.93517e-40
1.59369e-40
3.19865e-41
4.57798e-42
2.86433e-43
3.92795e-45
3.58685e-47
3.24697e-49
3.27225e-43
3.55076e-42
2.63067e-41
1.32955e-40
4.22751e-40
8.0779e-40
9.00087e-40
6.05552e-40
2.87625e-40
9.53986e-41
3.7738e-41
1.8316e-41
6.58413e-42
1.25633e-42
1.64535e-43
9.88732e-45
1.31172e-46
1.42888e-48
1.23586e-50
1.45485e-44
1.87053e-43
1.57372e-42
8.72226e-42
3.00058e-41
6.21253e-41
7.29847e-41
4.97468e-41
2.31039e-41
7.23039e-42
2.26973e-42
8.57486e-43
2.59599e-43
4.75467e-44
5.72312e-45
3.3471e-46
4.40573e-48
6.07959e-50
4.62268e-52
5.93608e-46
8.93048e-45
8.77613e-44
5.44894e-43
2.03898e-42
4.52085e-42
5.61012e-42
3.89837e-42
1.79205e-42
5.39748e-43
1.44231e-43
4.20544e-44
1.02018e-44
1.77967e-45
1.97507e-46
1.13952e-47
1.54383e-49
2.76965e-51
1.66311e-53
2.38177e-47
4.09833e-46
4.55213e-45
3.08043e-44
1.27207e-43
3.117e-43
4.07505e-43
2.8937e-43
1.32776e-43
3.89613e-44
9.4207e-45
2.21006e-45
4.28575e-46
6.81012e-47
6.95351e-48
3.98571e-49
5.77273e-51
1.16845e-52
5.6949e-55
9.64617e-49
1.89289e-47
2.30554e-46
1.68268e-45
7.62701e-45
2.03656e-44
2.79324e-44
2.02773e-44
9.33689e-45
2.68944e-45
6.12178e-46
1.23086e-46
2.00333e-47
2.75126e-48
2.56452e-49
1.45231e-50
2.30638e-52
4.35803e-54
1.87286e-56
)
;

boundaryField
{
    leftWall
    {
        type            alphaContactAngle;
        contactAngleProperties 
        {
            mercury         
            {
                theta0          90;
            }
            air             
            {
                theta0          90;
            }
            oil             
            {
                theta0          90;
            }
        }
        value           nonuniform List<scalar> 
50
(
1.51779e-17
9.27002e-16
1.06699e-13
1.77288e-12
1.65324e-11
6.96616e-11
2.07482e-10
3.14253e-09
0.303094
0.992694
1
1
1
1
1
1
1
0.994777
0.448229
-2.4995e-19
-1.50213e-18
-3.63257e-18
-8.13157e-18
-1.33791e-17
-1.71943e-17
-1.52309e-17
-5.97866e-18
1.95022e-57
8.99514e-57
1.37339e-56
1.03902e-56
3.05419e-57
3.49406e-58
1.78572e-59
5.54978e-61
9.60291e-63
1.0392e-64
6.40252e-67
3.19695e-69
8.17109e-72
1.63408e-74
1.81786e-77
1.27087e-80
6.20532e-84
1.18111e-87
2.09607e-91
1.23228e-95
1.64172e-100
1.0072e-106
4.82184e-117
)
;
    }
    rightWall
    {
        type            alphaContactAngle;
        contactAngleProperties 
        {
            mercury         
            {
                theta0          90;
            }
            air             
            {
                theta0          90;
            }
            oil             
            {
                theta0          90;
            }
        }
        value           nonuniform List<scalar> 
50
(
1.2936e-15
2.69593e-15
1.71019e-14
7.45225e-14
1.76633e-13
3.34434e-13
2.70756e-13
2.33431e-13
1.57175e-13
4.80023e-14
3.03082e-15
3.46023e-16
3.15057e-18
1.49719e-18
1.08753e-18
5.66402e-19
3.76203e-19
1.4239e-19
8.35985e-20
2.23362e-20
9.26593e-21
7.13672e-22
2.12502e-22
1.34834e-23
2.30976e-24
1.20088e-25
1.55122e-26
7.33113e-28
9.57552e-29
4.84929e-30
9.16053e-31
9.86247e-32
8.09927e-33
5.33099e-34
2.82796e-35
1.19618e-36
4.82306e-38
2.13618e-39
8.26244e-41
2.71954e-42
1.05538e-43
4.89683e-45
2.11597e-46
8.41107e-48
3.24697e-49
1.23586e-50
4.62268e-52
1.66311e-53
5.6949e-55
1.87286e-56
)
;
    }
    lowerWall
    {
        type            alphaContactAngle;
        contactAngleProperties 
        {
            mercury         
            {
                theta0          90;
            }
            air             
            {
                theta0          90;
            }
            oil             
            {
                theta0          90;
            }
        }
        value           nonuniform List<scalar> 
62
(
1.51779e-17
1.77892e-15
8.01998e-15
3.12108e-14
9.20561e-14
2.67061e-13
6.53492e-13
1.3463e-12
2.56515e-12
5.06454e-12
8.39232e-12
1.56307e-11
3.13737e-11
7.42771e-11
1.18265e-10
1.93673e-10
4.29351e-09
1.08611e-08
8.36782e-09
3.39237e-09
1.14647e-09
6.78155e-10
3.93117e-10
3.93117e-10
4.9286e-10
5.2935e-10
1.65653e-07
1.00519e-06
2.86826e-06
1.50893e-06
1.67887e-06
1.84042e-10
1.80258e-10
5.65739e-11
2.88945e-11
7.11989e-15
1.78721e-14
1.11184e-13
1.30198e-13
9.94314e-14
6.04591e-14
3.79832e-14
2.01938e-14
7.11989e-15
2.79344e-14
4.04303e-13
2.01915e-12
5.86458e-12
1.0274e-11
1.31863e-11
7.87138e-12
4.60689e-12
2.73892e-12
1.74266e-12
1.15061e-12
7.33489e-13
4.2176e-13
1.7187e-13
8.66337e-14
3.4402e-14
7.50829e-15
1.2936e-15
)
;
    }
    atmosphere
    {
        type            inletOutlet;
        inletValue      uniform 0;
        value           nonuniform List<scalar> 
46
(
0
0
0
0
0
0
0
0
0
0
0
0
0
0
0
0
0
0
0
0
0
0
0
6.30227e-54
1.97814e-52
4.44247e-51
7.42694e-50
9.64617e-49
1.89289e-47
2.30554e-46
1.68268e-45
7.62701e-45
2.03656e-44
2.79324e-44
2.02773e-44
9.33689e-45
2.68944e-45
6.12178e-46
1.23086e-46
2.00333e-47
2.75126e-48
2.56452e-49
1.45231e-50
2.30638e-52
4.35803e-54
1.87286e-56
)
;
    }
    defaultFaces
    {
        type            empty;
    }
}

