/*--------------------------------*- C++ -*----------------------------------*\
  =========                 |
  \\      /  F ield         | OpenFOAM: The Open Source CFD Toolbox
   \\    /   O peration     | Website:  https://openfoam.org
    \\  /    A nd           | Version:  13
     \\/     M anipulation  |
\*---------------------------------------------------------------------------*/
FoamFile
{
    format      ascii;
    class       volScalarField;
    location    "0.25";
    object      alpha.oil;
}
// * * * * * * * * * * * * * * * * * * * * * * * * * * * * * * * * * * * * * //

dimensions      [];

internalField   nonuniform List<scalar> 
2268
(
2.90578e-67
7.57255e-65
3.73345e-61
3.40516e-59
8.6495e-58
5.06684e-56
1.9946e-54
3.95206e-53
2.92037e-52
-2.83702e-36
-9.67723e-34
-6.80895e-28
5.67719e-15
3.51997e-14
6.13329e-14
3.11991e-11
1.28062e-10
8.01542e-11
7.32018e-11
1.28552e-10
2.02792e-10
1.30419e-11
0.0038148
8.04606e-66
1.01912e-62
2.05331e-59
1.32578e-57
5.56499e-56
3.94947e-54
7.69746e-53
1.40263e-51
4.88601e-47
-2.01664e-34
-5.69544e-32
-6.94807e-27
2.5975e-16
1.66672e-14
-3.39102e-14
1.21902e-10
2.25887e-09
6.73509e-09
5.53256e-09
1.47269e-10
6.5779e-10
-1.04439e-11
0.00612635
3.81114e-63
4.12353e-61
4.61344e-58
3.63209e-56
3.06746e-54
2.60834e-52
2.76106e-51
3.83009e-50
5.8526e-45
-7.01488e-33
-1.66546e-30
-3.65515e-26
4.5524e-16
5.53406e-14
-1.95664e-13
-1.556e-13
2.38672e-08
7.0242e-08
1.20457e-07
1.08407e-07
8.8113e-09
3.33239e-16
0.0096727
6.52061e-61
2.12233e-59
6.72145e-57
6.16443e-55
7.74994e-53
7.14545e-51
5.52594e-50
6.85473e-49
5.41041e-39
-1.59417e-31
-3.2211e-29
-1.25065e-25
3.22856e-16
3.83781e-13
1.256e-13
-2.03236e-13
1.34798e-08
2.57895e-06
6.17214e-08
6.39011e-09
5.75577e-10
4.52118e-19
0.0097128
7.43544e-59
1.40978e-57
1.82577e-55
1.92073e-53
2.33948e-51
1.89914e-49
1.64342e-48
1.94526e-47
3.62469e-37
-2.66578e-30
-4.63313e-28
-3.31525e-25
-8.15524e-26
3.63892e-12
8.46982e-12
3.44218e-12
-1.46055e-11
1.458e-05
2.77121e-06
3.1303e-06
2.24211e-07
2.21028e-13
0.00906137
1.54798e-57
1.55854e-56
1.49031e-54
1.49109e-52
1.71242e-50
1.4336e-48
5.50842e-47
8.57296e-46
2.45022e-35
-3.50122e-29
-5.28393e-27
-9.8764e-25
-8.09479e-25
2.55527e-11
1.58429e-10
1.51797e-10
-6.90355e-12
-7.30408e-11
0.0149532
0.00106034
8.69851e-21
1.85458e-23
0.00129915
1.01086e-56
6.966e-56
5.56876e-54
4.87241e-52
5.63371e-50
4.62701e-48
1.60918e-46
2.81097e-45
-2.4669e-34
-3.76285e-28
-4.97288e-26
-4.91289e-24
-1.63485e-24
1.55866e-10
1.39294e-09
1.71495e-09
8.00301e-10
-2.6253e-28
0.011354
0.302489
0.0818717
0.000388322
1.20083e-05
3.21544e-53
1.16225e-52
1.06985e-50
4.77559e-49
1.98528e-47
5.57375e-46
2.09151e-44
5.17731e-52
-3.77542e-32
-3.4018e-27
-3.96637e-25
-3.18343e-23
-5.0446e-35
3.99518e-10
2.45521e-09
3.3628e-09
2.36981e-09
-6.2482e-12
5.32955e-08
0.545516
0.781085
0.0215583
1.28495e-05
0.597699
0.855378
0.864867
0.909842
0.975665
0.997084
1
0.996515
0.990678
0.985213
0.983796
0.984465
0.975927
0.91567
0.867756
0.867756
0.867756
0.903965
0.985448
0.232802
0.0538556
0.175395
0.566373
0.84333
0.993787
1
1
1
1
1
1
1
1
0.999778
0.992968
0.970772
0.979649
0.984542
6.05452e-08
1.04859e-07
1.47654e-07
0.066965
0.592299
0.992513
1
1
1
1
1
1
1
1
1
1
1
1
0.987045
4.16154e-08
9.0231e-08
2.25354e-08
0.0320961
0.645091
0.994974
1
1
1
1
1
1
1
1
1
1
1
1
0.994314
6.45144e-08
3.47243e-08
2.18709e-08
0.00126175
0.850304
1
1
1
1
1
1
1
1
1
1
1
0.999999
0.999995
0.999998
2.77555e-08
1.59256e-08
1.57332e-08
0.363139
0.955523
1
1
1
1
1
1
1
1
1
1
1
0.999999
0.999993
0.999998
2.957e-08
1.55627e-08
0.00230388
0.789442
1
1
1
1
1
1
1
1
1
1
1
1
1
0.999995
0.999999
2.25063e-08
1.22669e-07
0.445581
0.980396
1
1
1
1
1
1
1
1
1
1
1
1
1
1
1
4.36812e-45
2.43636e-44
3.21988e-42
2.00209e-40
1.16462e-38
5.63012e-37
2.13551e-35
3.14022e-34
-1.10276e-30
-2.63728e-26
-2.73099e-24
-1.98369e-22
9.37635e-18
7.16148e-10
2.40281e-09
3.37571e-09
2.76447e-09
2.69473e-10
8.6654e-17
0.422385
0.88495
0.653049
0.0209232
1.16221e-42
7.62188e-42
9.82011e-40
5.40808e-38
3.32679e-36
1.4521e-34
4.59133e-33
6.88092e-32
-3.27612e-29
-3.18079e-25
-2.91906e-23
-1.94813e-21
1.61341e-11
2.40877e-10
8.76168e-10
1.83679e-09
1.70139e-09
6.40761e-10
4.34504e-20
0.124942
0.860801
0.999119
0.480096
1.52677e-41
1.09589e-40
1.36943e-38
7.05518e-37
4.55445e-35
1.95892e-33
5.7443e-32
9.01544e-31
-5.93635e-28
-3.09374e-24
-2.51933e-22
-1.54045e-20
3.52535e-12
1.20544e-12
8.31484e-15
6.29551e-12
4.70977e-13
2.53554e-13
3.66269e-20
0.0764133
0.819223
0.999719
0.976802
1.79445e-40
1.28642e-39
1.48479e-37
7.14116e-36
4.64318e-34
1.97954e-32
4.71269e-31
8.19714e-30
-7.19884e-27
-2.42838e-23
-1.76261e-21
-9.88423e-20
5.98549e-14
1.34335e-13
1.63394e-14
3.09249e-10
1.05773e-10
3.20427e-12
8.98151e-15
0.230168
0.918339
0.999924
0.999995
1.62233e-39
1.09474e-38
1.08144e-36
5.64913e-35
3.7155e-33
1.48863e-31
3.80646e-30
8.26877e-29
-6.13412e-26
-1.57206e-22
-1.02013e-20
-5.23934e-19
2.38478e-13
2.38293e-13
1.24814e-13
1.35696e-09
3.51257e-10
1.90536e-12
0.191474
0.829383
1
0.99999
0.999991
2.2563e-38
1.31687e-37
1.14891e-35
6.91467e-34
3.60729e-32
1.26325e-30
3.72875e-29
1.21332e-27
-3.70203e-25
-8.56532e-22
-4.98076e-20
-2.33549e-18
8.20524e-13
6.19626e-13
1.2601e-13
2.13503e-14
1.77011e-14
0.227728
0.857817
1
1
1
0.999999
5.11017e-37
4.37673e-36
3.38834e-34
1.30621e-32
4.68013e-31
1.58268e-29
2.83123e-28
1.48481e-26
-1.53113e-24
-3.99524e-21
-2.08652e-19
-8.88771e-18
1.29393e-12
4.16652e-12
4.56901e-19
1.02429e-14
0.280153
0.894977
1
1
1
1
1
9.9918e-36
5.73157e-35
4.39469e-33
1.6547e-31
5.85984e-30
1.9041e-28
4.57963e-27
1.3932e-25
-3.79436e-24
-1.61767e-20
-7.61405e-19
-2.9265e-17
1.02638e-17
3.92402e-08
2.91415e-05
0.354688
0.938631
1
1
1
1
1
1
1.07277e-34
8.27401e-34
6.93003e-32
2.61301e-30
9.75002e-29
3.08024e-27
4.75872e-26
1.00578e-24
-2.99569e-25
-5.74634e-20
-2.45608e-18
-8.45487e-17
-2.1846e-17
3.42128e-05
0.335628
0.951875
0.999998
1
1
1
1
1
1
5.2227e-33
1.01045e-32
9.07905e-31
3.69601e-29
1.58006e-27
4.56374e-26
1.14825e-24
3.31206e-23
8.76419e-23
-1.80126e-19
-7.10957e-18
-2.18097e-16
-1.02301e-24
0.0200248
0.670785
0.999615
1
1
1
1
1
1
1
5.60304e-31
1.75698e-30
9.85402e-29
3.90411e-27
2.15181e-25
5.03355e-24
1.00657e-22
1.49061e-21
6.31294e-21
-4.96276e-19
-1.87242e-17
-5.1449e-16
1.40879e-07
0.0434571
0.527332
0.88676
0.962972
0.982522
0.988728
0.989047
0.982954
0.963137
0.915253
3.80322e-30
2.16266e-29
1.67235e-27
5.93473e-26
1.78396e-24
3.94833e-23
6.63961e-22
7.52791e-21
3.50174e-20
-1.17589e-18
-4.51952e-17
-1.14445e-15
0.000289805
0.00873022
0.0284344
0.146427
0.284132
0.364924
0.402638
0.405797
0.372926
0.292406
0.178978
1.56387e-29
1.07031e-28
6.80035e-27
2.28521e-25
6.64457e-24
1.43712e-22
2.34115e-21
2.4482e-20
1.46486e-19
-2.25884e-18
-9.91953e-17
-2.45199e-15
0.000654979
3.23004e-08
5.32824e-10
-5.59461e-27
-2.04273e-09
-1.65585e-09
-1.70394e-09
-5.68543e-10
-1.30356e-10
-3.77992e-27
-9.71238e-14
5.81814e-29
6.27828e-28
3.07213e-26
1.07478e-24
2.57906e-23
5.4264e-22
8.119e-21
8.53649e-20
6.21715e-19
-2.51739e-18
-1.82294e-16
-4.72906e-15
5.71553e-05
1.73864e-05
-1.08882e-11
1.17125e-09
-4.68041e-09
-4.49057e-09
-2.33835e-09
-8.49914e-10
-2.56673e-10
2.49714e-09
9.03783e-11
1.98539e-28
3.20005e-27
1.31771e-25
4.16591e-24
1.10115e-22
2.10957e-21
2.76657e-20
3.06319e-19
2.48783e-18
3.2021e-18
-2.49174e-16
-7.87709e-15
-2.52363e-13
-4.83999e-11
-2.54493e-09
-2.5461e-09
-1.57152e-09
-7.52836e-10
-2.58475e-10
4.3919e-11
4.38367e-11
9.36353e-09
2.73305e-09
5.49233e-28
1.32183e-26
5.00605e-25
1.55662e-23
3.8858e-22
7.34401e-21
8.30974e-20
9.9465e-19
8.14744e-18
2.70368e-17
-1.83286e-16
-1.09629e-14
-3.87497e-13
-2.89421e-11
-1.78461e-09
-1.46108e-09
-7.51017e-10
-2.79641e-10
-5.08036e-12
1.96219e-10
2.10742e-10
1.87013e-08
2.7144e-08
1.36435e-27
5.03085e-26
1.8116e-24
5.23127e-23
1.20071e-21
2.0688e-20
2.12297e-19
2.79666e-18
2.24105e-17
9.38042e-17
1.27689e-16
-1.18082e-14
-4.61373e-13
-1.53389e-11
-7.69761e-10
-4.49069e-10
-1.59097e-10
-2.9334e-12
1.09789e-10
2.19601e-10
7.76966e-10
2.73046e-08
1.6314e-07
2.96887e-27
1.49308e-25
5.43204e-24
1.46879e-22
3.09834e-21
5.1273e-20
7.13077e-19
6.54327e-18
5.40076e-17
4.00754e-16
1.64685e-15
-7.01303e-15
-3.6345e-13
-8.41651e-12
-1.52954e-10
-4.53309e-11
8.08673e-12
4.70499e-11
9.88608e-11
1.55625e-10
1.76722e-09
2.375e-08
1.30737e-08
5.1932e-27
3.09403e-25
1.11342e-23
2.86159e-22
5.58166e-21
8.57565e-20
1.06839e-18
1.06486e-17
8.84589e-17
6.21353e-16
3.7279e-15
2.01927e-14
9.94382e-14
4.04245e-13
1.3366e-12
5.08509e-12
1.44324e-11
3.05454e-11
5.02415e-11
5.39068e-11
2.16718e-11
2.39317e-11
2.62632e-11
6.566e-27
4.17418e-25
1.4573e-23
3.52087e-22
6.40339e-21
9.17271e-20
1.06302e-18
1.01832e-17
8.21389e-17
5.64876e-16
3.32137e-15
1.71568e-14
7.85241e-14
3.03975e-13
9.55295e-13
2.67966e-12
5.77117e-12
1.04476e-11
1.49184e-11
1.7198e-11
1.56211e-11
1.63563e-11
3.00383e-11
5.37918e-27
3.38361e-25
1.1335e-23
2.59171e-22
4.43255e-21
5.91504e-20
6.3521e-19
5.60424e-18
4.14986e-17
2.61551e-16
1.3948e-15
6.47328e-15
2.62834e-14
9.00896e-14
2.63515e-13
6.23957e-13
1.25307e-12
1.98705e-12
2.54476e-12
3.05683e-12
4.06842e-12
7.02679e-12
1.14758e-11
2.40733e-27
1.49765e-25
4.82393e-24
1.03971e-22
1.65377e-21
2.03789e-20
1.99883e-19
1.5857e-18
1.02901e-17
5.4947e-17
2.63312e-16
1.02143e-15
3.42525e-15
9.60164e-15
2.34736e-14
4.94684e-14
8.84227e-14
1.51662e-13
2.58155e-13
5.10115e-13
1.03722e-12
2.18157e-12
4.17304e-12
5.18715e-28
3.29115e-26
1.06819e-24
2.3033e-23
3.64484e-22
4.44822e-21
4.30819e-20
3.3705e-19
2.15458e-18
1.13739e-17
5.04215e-17
1.90152e-16
5.90952e-16
1.61597e-15
3.59849e-15
7.36139e-15
1.36399e-14
2.57888e-14
5.44158e-14
1.26658e-13
2.99947e-13
7.02549e-13
1.41235e-12
3.70702e-29
2.36674e-27
7.64406e-26
1.63082e-24
2.55072e-23
3.08888e-22
2.991e-21
2.35963e-20
1.53368e-19
8.27528e-19
3.73497e-18
1.42497e-17
4.65665e-17
1.32378e-16
3.38605e-16
8.32095e-16
1.96298e-15
4.69707e-15
1.17363e-14
2.96501e-14
7.40711e-14
1.86828e-13
4.21919e-13
8.89372e-31
6.0259e-29
2.05146e-27
4.60464e-26
7.58909e-25
9.71402e-24
9.9866e-23
8.42941e-22
5.93217e-21
3.52134e-20
1.78107e-19
7.75941e-19
2.95087e-18
9.96406e-18
2.9561e-17
8.90544e-17
2.63499e-16
7.48155e-16
2.1365e-15
6.21174e-15
1.71075e-14
4.55522e-14
1.06343e-13
9.18061e-33
7.14272e-31
2.78295e-29
7.15234e-28
1.35303e-26
1.99463e-25
2.37074e-24
2.32227e-23
1.90339e-22
1.32044e-21
7.83527e-21
4.02636e-20
1.82232e-19
7.42988e-19
2.67573e-18
1.01246e-17
3.41959e-17
1.11172e-16
3.40003e-16
1.01292e-15
3.03449e-15
8.8406e-15
2.24039e-14
9.10219e-35
8.37436e-33
3.83009e-31
1.14822e-29
2.51824e-28
4.27838e-27
5.82707e-26
6.50817e-25
6.06386e-24
4.78179e-23
3.2395e-22
1.91738e-21
1.01089e-20
4.8474e-20
2.03315e-19
9.12609e-19
3.54066e-18
1.29321e-17
4.36051e-17
1.42165e-16
4.67338e-16
1.46267e-15
3.95612e-15
7.33491e-37
7.80237e-35
4.08467e-33
1.39296e-31
3.46301e-30
6.66247e-29
1.01815e-27
1.20315e-26
1.40603e-25
1.26922e-24
9.99828e-24
6.9319e-23
4.30268e-22
2.43234e-21
1.27034e-20
6.1802e-20
2.81046e-19
1.19671e-18
4.71931e-18
1.71986e-17
6.28907e-17
2.08109e-16
6.03886e-16
4.37652e-39
5.31821e-37
3.15296e-35
1.21195e-33
3.3909e-32
7.354e-31
1.28636e-29
1.8659e-28
2.29231e-27
2.42696e-26
2.24859e-25
1.84898e-24
1.36698e-23
9.19122e-23
5.67169e-22
3.22968e-21
1.69713e-20
8.15905e-20
3.53687e-19
1.42606e-18
5.98375e-18
2.26272e-17
7.28172e-17
1.66303e-41
2.34857e-39
1.6087e-37
7.13602e-36
2.30453e-34
5.77413e-33
1.16866e-31
1.96591e-30
2.80943e-29
3.47234e-28
3.76927e-27
3.6438e-26
3.17726e-25
2.52608e-24
1.84382e-23
1.23728e-22
7.60847e-22
4.2569e-21
2.15302e-20
1.0158e-19
4.87187e-19
2.06481e-18
7.50723e-18
4.7698e-44
7.7412e-42
6.05818e-40
3.0695e-38
1.13594e-36
3.28154e-35
7.72276e-34
1.5262e-32
2.59191e-31
3.85148e-30
5.07524e-29
5.98082e-28
6.32097e-27
5.95947e-26
4.95428e-25
3.74936e-24
2.77399e-23
1.73652e-22
1.00355e-21
5.50174e-21
3.00359e-20
1.52749e-19
6.3395e-19
8.8411e-47
1.69038e-44
1.54115e-42
9.07011e-41
3.90203e-39
1.31536e-37
3.63302e-36
8.47669e-35
1.70718e-33
3.01504e-32
4.72219e-31
6.60207e-30
8.27582e-29
9.36917e-28
9.63294e-27
8.97089e-26
7.58036e-25
5.82837e-24
3.95179e-23
2.4804e-22
1.54004e-21
8.63646e-21
4.56989e-20
1.09218e-49
2.52784e-47
2.75657e-45
1.94238e-43
1.00547e-41
4.10648e-40
1.3828e-38
3.94053e-37
9.64957e-36
2.00283e-34
3.37298e-33
6.398e-32
9.33249e-31
1.22319e-29
1.43236e-28
1.50535e-27
1.4327e-26
1.25162e-25
1.02157e-24
7.95364e-24
6.00506e-23
4.21827e-22
2.53417e-21
9.52865e-53
2.65906e-50
3.45727e-48
2.91877e-46
1.82313e-44
9.04917e-43
3.7025e-41
1.27312e-39
3.76246e-38
9.65337e-37
2.15892e-35
4.21797e-34
7.58692e-33
1.1966e-31
1.69329e-30
2.17203e-29
2.5701e-28
2.82537e-27
2.84757e-26
2.6028e-25
2.14442e-24
1.62221e-23
1.2111e-22
5.56793e-56
1.89205e-53
3.04458e-51
3.13091e-49
2.39106e-47
1.44957e-45
7.24558e-44
3.0535e-42
1.09998e-40
3.41956e-39
9.25069e-38
2.19745e-36
4.63182e-35
8.76056e-34
1.50154e-32
2.34703e-31
3.35546e-30
4.40269e-29
5.33984e-28
6.01111e-27
6.20868e-26
5.78186e-25
4.87994e-24
2.18328e-59
8.99822e-57
1.69106e-54
2.10546e-52
1.96944e-50
1.47191e-48
9.1003e-47
4.75621e-45
2.1327e-43
8.29535e-42
2.82291e-40
8.46323e-39
2.2487e-37
5.32426e-36
1.12947e-34
2.15885e-33
3.73972e-32
5.90587e-31
8.53956e-30
1.12632e-28
1.34455e-27
1.51899e-26
1.69881e-25
3.59762e-63
1.82788e-60
4.29545e-58
6.85669e-56
8.29782e-54
8.0049e-52
6.33359e-50
4.19017e-48
2.3535e-46
1.13706e-44
4.77969e-43
1.7651e-41
5.77175e-40
1.68232e-38
4.40233e-37
1.04436e-35
2.2736e-34
4.58539e-33
8.55312e-32
1.45609e-30
2.23832e-29
3.11387e-28
3.86573e-27
6.14717e-67
3.13802e-64
8.35978e-62
1.60582e-59
2.42282e-57
2.97781e-55
3.0447e-53
2.62843e-51
1.93876e-49
1.23457e-47
6.84977e-46
3.33838e-44
1.43914e-42
5.51934e-41
1.89283e-39
5.83535e-38
1.62711e-36
4.13074e-35
9.57508e-34
2.00508e-32
3.74717e-31
6.60652e-30
1.1501e-28
3.9544e-71
1.74451e-68
5.22657e-66
1.25985e-63
2.51708e-61
4.18435e-59
5.81277e-57
6.80164e-55
6.77348e-53
5.80535e-51
4.32839e-49
2.83409e-47
1.64258e-45
8.48377e-44
3.92938e-42
1.64168e-40
6.21264e-39
2.12991e-37
6.58933e-36
1.83285e-34
4.5939e-33
1.0447e-31
2.1639e-30
5.05229e-76
1.6164e-73
5.23241e-71
1.62831e-68
4.61632e-66
1.13271e-63
2.35149e-61
4.11966e-59
6.13641e-57
7.85902e-55
8.75494e-53
8.57122e-51
7.43703e-49
5.75634e-47
3.99223e-45
2.48581e-43
1.38858e-41
6.93897e-40
3.0901e-38
1.2196e-36
4.23538e-35
1.30483e-33
3.71487e-32
3.25251e-82
7.45229e-80
2.46499e-77
1.0421e-74
4.70793e-72
1.96996e-69
7.12741e-67
2.18279e-64
5.6649e-62
1.25807e-59
2.42012e-57
4.08049e-55
6.08999e-53
8.1008e-51
9.6378e-49
1.02689e-46
9.81144e-45
8.42512e-43
6.49826e-41
4.4516e-39
2.64174e-37
1.31845e-35
5.46911e-34
1.64151e-92
1.99435e-90
7.7095e-88
5.83022e-85
6.21077e-82
7.04093e-79
7.27606e-76
6.47388e-73
4.90784e-70
3.18995e-67
1.79731e-64
8.87871e-62
3.88391e-59
1.51533e-56
5.2906e-54
1.65028e-51
4.56629e-49
1.10748e-46
2.32294e-44
4.17511e-42
6.33398e-40
7.3268e-38
5.78747e-36
0.0241108
0.626677
0.708597
0.331297
0.0552308
0.0954657
0.206982
0.560466
0.834725
0.742981
0.350334
0.337864
0.999998
0.999998
0.94597
0.878117
0.999993
0.999998
1
1
0.999998
0.999998
0.999999
1
1
1
1
1
1
1
1
1
1
1
1
1
1
1
1
1
0.862406
0.806283
0.710354
0.621174
0.0889949
0.0273558
9.71861e-08
3.64568e-08
1.86738e-09
1.31897e-09
4.40683e-08
2.6352e-08
2.5913e-08
2.12132e-07
1.93161e-07
3.69995e-08
1.78041e-07
1.56751e-06
6.88779e-07
3.99736e-06
1.42036e-06
2.36322e-06
2.03682e-06
1.34918e-06
2.17819e-07
1.77012e-06
1.34963e-07
1.08956e-10
8.29712e-11
8.59146e-11
8.08255e-11
1.38285e-10
8.1688e-11
9.57634e-11
1.14722e-10
1.29256e-10
4.28794e-11
4.79276e-11
5.39593e-11
6.04041e-11
1.6981e-11
2.06658e-11
2.53659e-11
2.91672e-11
6.90268e-12
8.84183e-12
1.09087e-11
1.27557e-11
2.55255e-12
3.28255e-12
4.30334e-12
5.11395e-12
8.10471e-13
1.11909e-12
1.44943e-12
1.80183e-12
2.16447e-13
3.15073e-13
4.40279e-13
5.56524e-13
5.14935e-14
7.97536e-14
1.12343e-13
1.52097e-13
9.96109e-15
1.56515e-14
2.52895e-14
3.52376e-14
1.63579e-15
2.89492e-15
4.73327e-15
7.32941e-15
2.22772e-16
4.17906e-16
7.45668e-16
1.2501e-15
2.56332e-17
5.32627e-17
1.02876e-16
1.89841e-16
2.58443e-18
5.65117e-18
1.19318e-17
2.42033e-17
2.06736e-19
5.21076e-19
1.24652e-18
2.82286e-18
1.36699e-20
3.95351e-20
1.07078e-19
2.76929e-19
7.78169e-22
2.61371e-21
8.18815e-21
2.43077e-20
3.79128e-23
1.47724e-22
5.36667e-22
1.85309e-21
1.58058e-24
7.24959e-24
3.1114e-23
1.24494e-22
4.47627e-26
3.16359e-25
1.62978e-24
7.60907e-24
1.67874e-27
1.16593e-26
7.57085e-26
4.19e-25
4.09092e-29
3.62173e-28
3.01519e-27
2.01558e-26
9.6053e-31
1.09492e-29
1.12558e-28
9.05457e-28
1.97184e-32
3.05133e-31
3.99888e-30
3.92724e-29
4.17139e-34
9.27485e-33
1.46328e-31
1.71127e-30
1.81369e-08
0.283677
0.956127
1
1
1
1
1
1
1
1
1
1
1
1
0.976323
0.782112
0.935724
0.987497
0.830372
0.988522
1
1
1
1
1
1
1
1
1
1
0.996042
0.887112
0.451238
0.129562
0.0298603
0.228654
0.942748
0.801064
0.999977
1
1
1
1
1
1
1
1
1
0.926214
0.565861
0.061906
3.15107e-08
5.48599e-08
-3.38372e-08
0.000894873
0.948616
0.94986
1
1
1
1
1
1
1
1
1
0.79672
0.240253
4.7998e-08
1.7672e-08
5.95928e-08
1.43833e-07
3.68613e-07
4.7218e-08
0.929958
1
1
1
1
1
1
1
1
0.970397
0.604435
0.0513468
1.32127e-08
4.20037e-08
2.05067e-08
2.59606e-08
4.68832e-08
6.69065e-08
5.63127e-08
0.165939
1
1
1
1
1
1
1
0.90856
0.403224
2.50548e-08
1.32127e-08
1.30529e-08
1.34663e-08
1.69761e-08
2.35186e-08
4.73729e-08
7.64726e-08
6.13982e-08
5.17574e-08
1
1
1
1
1
1
0.848766
0.260197
3.86346e-08
3.74399e-08
1.53859e-08
1.12964e-08
1.09609e-08
1.48088e-08
2.15776e-08
4.52462e-08
7.61766e-08
6.19417e-08
5.22215e-08
1
1
1
1
1
0.784714
0.172607
3.59606e-08
3.13278e-08
1.48206e-08
8.30509e-09
7.12053e-09
7.75754e-09
1.35399e-08
2.15225e-08
3.57569e-08
6.42868e-08
6.23724e-08
5.3453e-08
1
1
0.970162
0.849299
0.555238
0.0683456
3.59606e-08
3.11613e-08
1.43376e-08
6.66118e-09
5.05786e-09
4.07772e-09
6.42792e-09
1.22713e-08
1.8985e-08
2.82383e-08
4.59871e-08
3.77034e-08
5.41097e-08
0.992347
0.792655
0.384144
0.0518964
2.22423e-07
7.91424e-08
8.55058e-08
3.039e-08
8.58754e-09
4.01023e-09
2.35967e-09
3.11402e-09
6.02621e-09
1.03903e-08
1.50307e-08
1.95836e-08
2.85159e-08
3.55442e-08
5.10341e-08
0.418979
0.0239576
4.24731e-07
4.22874e-07
1.83541e-06
1.94322e-06
3.96486e-07
2.59188e-08
4.33876e-09
1.26869e-09
1.60701e-09
2.79329e-09
5.09659e-09
8.03321e-09
1.0599e-08
1.25737e-08
1.62797e-08
1.47865e-08
4.55442e-08
3.15342e-08
7.39276e-08
2.79891e-06
2.37125e-06
4.29966e-06
4.46708e-06
4.77114e-07
1.20285e-08
1.041e-09
8.64306e-10
1.31843e-09
2.36782e-09
4.07539e-09
5.82612e-09
7.20031e-09
7.79953e-09
8.81583e-09
1.01894e-08
1.33255e-08
2.09016e-06
1.58672e-05
1.62974e-05
7.98688e-06
3.6172e-06
8.51146e-07
4.87936e-08
2.69485e-09
5.54033e-10
6.56183e-10
1.02612e-09
1.76599e-09
2.915e-09
4.08694e-09
4.8088e-09
4.76601e-09
4.59371e-09
3.37735e-09
7.84776e-09
2.13287e-05
2.43458e-05
1.65915e-05
2.44787e-07
1.26005e-08
7.1213e-10
4.85023e-10
4.02507e-10
3.88164e-10
4.63087e-10
7.26595e-10
1.22342e-09
1.9479e-09
2.68259e-09
3.06307e-09
2.90682e-09
2.4326e-09
1.99551e-09
9.36736e-10
2.18503e-05
1.70524e-05
5.86449e-08
4.63071e-09
6.81264e-10
4.48121e-10
3.14984e-10
2.71428e-10
2.58818e-10
3.11039e-10
4.74957e-10
7.77249e-10
1.18144e-09
1.61322e-09
1.79966e-09
1.65023e-09
1.18573e-09
5.68907e-10
5.26306e-10
9.49088e-06
5.2927e-08
7.68214e-10
5.09849e-10
3.87354e-10
2.70189e-10
2.05216e-10
1.76468e-10
1.65854e-10
1.91735e-10
2.83525e-10
4.53933e-10
6.71426e-10
8.83961e-10
9.67023e-10
8.73963e-10
5.77444e-10
2.84056e-10
8.67229e-11
1.67108e-10
1.77397e-10
3.72752e-10
3.27502e-10
2.29494e-10
1.67794e-10
1.29957e-10
1.09136e-10
9.95532e-11
1.09461e-10
1.52597e-10
2.37711e-10
3.45277e-10
4.41478e-10
4.73472e-10
3.9837e-10
2.33126e-10
6.54985e-11
2.4143e-11
1.78013e-10
2.34289e-10
2.32563e-10
1.85625e-10
1.36103e-10
1.00286e-10
7.84454e-11
6.45281e-11
5.589e-11
5.65922e-11
7.44813e-11
1.11136e-10
1.59258e-10
1.99035e-10
1.99583e-10
1.57684e-10
8.51965e-11
2.06005e-11
3.43882e-12
1.32251e-10
1.36363e-10
1.30878e-10
1.06064e-10
7.87965e-11
5.72571e-11
4.39647e-11
3.56662e-11
2.97018e-11
2.77678e-11
3.33841e-11
4.6933e-11
6.58373e-11
7.80785e-11
7.71753e-11
5.7559e-11
2.55337e-11
3.60529e-12
6.24036e-13
6.65816e-11
7.37043e-11
7.01445e-11
5.8436e-11
4.33365e-11
3.12405e-11
2.33724e-11
1.84404e-11
1.4336e-11
1.26968e-11
1.37088e-11
1.77206e-11
2.34516e-11
2.80056e-11
2.76709e-11
1.96174e-11
6.94012e-12
7.10876e-13
6.85327e-14
3.23903e-11
3.71915e-11
3.6291e-11
3.07138e-11
2.26705e-11
1.61013e-11
1.17275e-11
9.02769e-12
6.66496e-12
5.41228e-12
5.19994e-12
6.23123e-12
7.58546e-12
9.06568e-12
8.62682e-12
5.82481e-12
1.63651e-12
1.10334e-13
1.08313e-14
1.4678e-11
1.73275e-11
1.76173e-11
1.50699e-11
1.11191e-11
7.74321e-12
5.50861e-12
4.11983e-12
2.91279e-12
2.16811e-12
1.79729e-12
1.77474e-12
2.08877e-12
2.53584e-12
2.32193e-12
1.49937e-12
3.64456e-13
1.87436e-14
1.01817e-15
5.96251e-12
7.46298e-12
7.89372e-12
6.86237e-12
5.07e-12
3.44655e-12
2.37494e-12
1.74652e-12
1.17951e-12
8.20592e-13
6.16648e-13
5.17266e-13
5.68444e-13
6.24839e-13
5.5714e-13
3.44795e-13
4.66012e-14
2.12888e-15
2.28341e-16
2.20523e-12
2.93657e-12
3.21585e-12
2.86651e-12
2.12957e-12
1.42685e-12
9.45382e-13
6.5161e-13
4.43052e-13
2.90736e-13
1.75629e-13
1.46711e-13
1.44201e-13
1.41228e-13
1.20646e-13
7.12579e-14
8.19944e-15
4.74967e-16
3.26792e-17
7.01605e-13
1.03558e-12
1.18827e-12
1.09322e-12
8.20722e-13
5.44927e-13
3.48574e-13
2.2842e-13
1.51795e-13
9.09795e-14
5.09014e-14
3.33456e-14
2.87725e-14
2.94305e-14
2.34945e-14
1.28999e-14
9.55807e-16
6.96106e-17
3.93925e-18
2.01749e-13
3.26701e-13
3.94142e-13
3.77778e-13
2.88804e-13
1.90366e-13
1.17496e-13
7.28671e-14
4.72307e-14
2.51771e-14
1.46534e-14
8.58878e-15
6.52698e-15
5.65197e-15
4.10954e-15
2.05742e-15
1.34084e-16
9.01536e-18
4.44363e-19
4.94888e-14
9.11934e-14
1.16427e-13
1.17374e-13
9.21488e-14
6.05008e-14
3.61965e-14
2.13409e-14
1.2446e-14
6.92308e-15
3.39961e-15
1.98796e-15
1.30805e-15
8.68418e-16
6.54859e-16
2.93914e-16
2.1542e-17
1.08235e-18
4.51416e-20
1.09347e-14
2.2151e-14
3.04778e-14
3.25782e-14
2.64801e-14
1.74158e-14
1.01398e-14
5.34448e-15
3.19642e-15
1.55078e-15
8.41283e-16
4.13302e-16
2.36397e-16
1.37919e-16
8.26561e-17
3.79317e-17
2.71924e-18
1.21253e-19
4.42609e-21
2.04287e-15
4.71242e-15
7.02319e-15
8.02649e-15
6.81477e-15
4.52813e-15
2.60134e-15
1.34489e-15
6.35735e-16
3.66701e-16
1.77771e-16
7.87093e-17
3.95701e-17
2.11119e-17
1.06122e-17
4.41555e-18
2.73973e-19
1.27015e-20
4.56448e-22
3.37947e-16
8.57711e-16
1.41613e-15
1.74653e-15
1.56316e-15
1.06827e-15
5.68229e-16
2.87188e-16
1.459e-16
7.41566e-17
3.33982e-17
1.3776e-17
6.1452e-18
2.86151e-18
1.32839e-18
4.64213e-19
2.5506e-20
1.26061e-21
4.41916e-23
4.79826e-17
1.33379e-16
2.51167e-16
3.36184e-16
3.20416e-16
2.13029e-16
1.17232e-16
5.85691e-17
2.91609e-17
1.34225e-17
5.7296e-18
2.21849e-18
8.8532e-19
3.55576e-19
1.45744e-19
4.44128e-20
2.43181e-21
1.19228e-22
3.48153e-24
6.11981e-18
1.85407e-17
3.79794e-17
5.52186e-17
5.38618e-17
4.00524e-17
2.26862e-17
1.07086e-17
5.12501e-18
2.21876e-18
9.00874e-19
3.28283e-19
1.18084e-19
4.11433e-20
1.45851e-20
3.90861e-21
2.12292e-22
1.06131e-23
2.52427e-25
6.71436e-19
2.31988e-18
5.25892e-18
8.33882e-18
8.90045e-18
6.72302e-18
3.89307e-18
1.81962e-18
8.15369e-19
3.35905e-19
1.29756e-19
4.45302e-20
1.45584e-20
4.43878e-21
1.36539e-21
3.19886e-22
1.64421e-23
8.78563e-25
1.90492e-26
6.53474e-20
2.57133e-19
6.55941e-19
1.14177e-18
1.32071e-18
1.02545e-18
6.08694e-19
2.83419e-19
1.19083e-19
4.67099e-20
1.71239e-20
5.53189e-21
1.65809e-21
4.47113e-22
1.19996e-22
2.45785e-23
1.18867e-24
6.73135e-26
1.31705e-27
5.60306e-21
2.53509e-20
7.34281e-20
1.41118e-19
1.75611e-19
1.43238e-19
8.73059e-20
4.03932e-20
1.60814e-20
5.98555e-21
2.07671e-21
6.30534e-22
1.74567e-22
4.2113e-23
9.92628e-24
1.78641e-24
8.26791e-26
4.74402e-27
7.87894e-29
4.29961e-22
2.26996e-21
7.50467e-21
1.58913e-20
2.13108e-20
1.83476e-20
1.14934e-20
5.29446e-21
2.01575e-21
7.09464e-22
2.32551e-22
6.62274e-23
1.70376e-23
3.71516e-24
7.75212e-25
1.23035e-25
5.58372e-27
3.08465e-28
4.29826e-30
2.98262e-23
1.76403e-22
6.38941e-22
1.64333e-21
2.38338e-21
2.1656e-21
1.39078e-21
6.40379e-22
2.35133e-22
7.81321e-23
2.41683e-23
6.44525e-24
1.53236e-24
3.0754e-25
5.71954e-26
8.14665e-27
3.66246e-28
1.7823e-29
2.24199e-31
1.91728e-24
1.31413e-23
5.73692e-23
1.567e-22
2.46779e-22
2.36473e-22
1.55241e-22
7.16981e-23
2.55922e-23
8.03548e-24
2.34232e-24
5.84777e-25
1.26537e-25
2.39397e-26
4.0029e-27
5.1404e-28
2.32092e-29
9.63214e-31
1.13271e-32
1.1016e-25
9.11852e-25
4.54953e-24
1.38277e-23
2.37221e-23
2.39677e-23
1.6058e-23
7.4595e-24
2.60664e-24
7.7577e-25
2.12697e-25
4.97768e-26
9.78937e-27
1.75686e-27
2.66169e-28
3.10563e-29
1.41121e-30
5.45554e-32
5.47226e-34
5.82384e-27
5.59841e-26
3.31229e-25
1.13993e-24
2.13029e-24
2.26275e-24
1.54631e-24
7.24004e-25
2.49092e-25
7.06243e-26
1.8185e-26
3.99596e-27
7.29168e-28
1.21909e-28
1.68503e-29
1.79739e-30
8.18433e-32
3.06535e-33
2.49356e-35
3.00794e-28
3.34586e-27
2.2322e-26
8.29356e-26
1.7129e-25
1.99669e-25
1.39157e-25
6.57583e-26
2.23698e-26
6.08149e-27
1.4711e-27
3.03604e-28
5.2477e-29
8.02436e-30
1.01768e-30
9.96781e-32
4.50871e-33
1.53231e-34
1.07145e-36
1.54524e-29
1.98769e-28
1.46285e-27
5.85666e-27
1.32477e-26
1.65169e-26
1.17364e-26
5.5996e-27
1.88881e-27
4.95938e-28
1.13079e-28
2.18769e-29
3.59894e-30
5.02613e-31
5.87567e-32
5.30051e-33
2.3552e-34
6.71968e-36
4.36221e-38
)
;

boundaryField
{
    leftWall
    {
        type            alphaContactAngle;
        contactAngleProperties 
        {
            mercury         
            {
                theta0          90;
            }
            air             
            {
                theta0          90;
            }
            water           
            {
                theta0          90;
            }
        }
        value           nonuniform List<scalar> 
50
(
2.90578e-67
8.04606e-66
3.81114e-63
6.52061e-61
7.43544e-59
1.54798e-57
1.01086e-56
3.21544e-53
4.36812e-45
1.16221e-42
1.52677e-41
1.79445e-40
1.62233e-39
2.2563e-38
5.11017e-37
9.9918e-36
1.07277e-34
5.2227e-33
5.60304e-31
3.80322e-30
1.56387e-29
5.81814e-29
1.98539e-28
5.49233e-28
1.36435e-27
2.96887e-27
5.1932e-27
6.566e-27
5.37918e-27
2.40733e-27
5.18715e-28
3.70702e-29
8.89372e-31
9.18061e-33
9.10219e-35
7.33491e-37
4.37652e-39
1.66303e-41
4.7698e-44
8.8411e-47
1.09218e-49
9.52865e-53
5.56793e-56
2.18328e-59
3.59762e-63
6.14717e-67
3.9544e-71
5.05229e-76
3.25251e-82
1.64151e-92
)
;
    }
    rightWall
    {
        type            alphaContactAngle;
        contactAngleProperties 
        {
            mercury         
            {
                theta0          90;
            }
            air             
            {
                theta0          90;
            }
            water           
            {
                theta0          90;
            }
        }
        value           nonuniform List<scalar> 
50
(
0.985448
0.984542
0.987045
0.994314
0.999998
0.999998
0.999999
1
0.987497
0.942748
0.948616
0.929958
0.165939
5.17574e-08
5.22215e-08
5.3453e-08
5.41097e-08
5.10341e-08
4.55442e-08
1.33255e-08
7.84776e-09
9.36736e-10
5.26306e-10
8.67229e-11
2.4143e-11
3.43882e-12
6.24036e-13
6.85327e-14
1.08313e-14
1.01817e-15
2.28341e-16
3.26792e-17
3.93925e-18
4.44363e-19
4.51416e-20
4.42609e-21
4.56448e-22
4.41916e-23
3.48153e-24
2.52427e-25
1.90492e-26
1.31705e-27
7.87894e-29
4.29826e-30
2.24199e-31
1.13271e-32
5.47226e-34
2.49356e-35
1.07145e-36
4.36221e-38
)
;
    }
    lowerWall
    {
        type            alphaContactAngle;
        contactAngleProperties 
        {
            mercury         
            {
                theta0          90;
            }
            air             
            {
                theta0          90;
            }
            water           
            {
                theta0          90;
            }
        }
        value           nonuniform List<scalar> 
62
(
2.90578e-67
7.57255e-65
3.73345e-61
3.40516e-59
8.6495e-58
5.06684e-56
1.9946e-54
3.95206e-53
2.92037e-52
-2.83702e-36
-9.67723e-34
-6.80895e-28
5.67719e-15
3.51997e-14
6.13329e-14
3.11991e-11
1.28062e-10
8.01542e-11
7.32018e-11
1.28552e-10
2.02792e-10
1.30419e-11
0.0038148
0.0038148
0.00612635
0.0096727
0.0097128
0.00906137
0.00129915
1.20083e-05
1.28495e-05
0.0241108
0.626677
0.708597
0.331297
0.597699
0.232802
6.05452e-08
4.16154e-08
6.45144e-08
2.77555e-08
2.957e-08
2.25063e-08
0.597699
0.855378
0.864867
0.909842
0.975665
0.997084
1
0.996515
0.990678
0.985213
0.983796
0.984465
0.975927
0.91567
0.867756
0.867756
0.867756
0.903965
0.985448
)
;
    }
    atmosphere
    {
        type            inletOutlet;
        inletValue      uniform 0;
        value           nonuniform List<scalar> 
46
(
0
0
0
0
0
0
0
0
0
0
0
0
0
0
0
0
0
0
0
0
0
0
0
4.17139e-34
9.27485e-33
1.46328e-31
1.71127e-30
1.54524e-29
1.98769e-28
1.46285e-27
5.85666e-27
1.32477e-26
1.65169e-26
1.17364e-26
5.5996e-27
1.88881e-27
4.95938e-28
1.13079e-28
2.18769e-29
3.59894e-30
5.02613e-31
5.87567e-32
5.30051e-33
2.3552e-34
6.71968e-36
4.36221e-38
)
;
    }
    defaultFaces
    {
        type            empty;
    }
}


// ************************************************************************* //
