/*--------------------------------*- C++ -*----------------------------------*\
  =========                 |
  \\      /  F ield         | OpenFOAM: The Open Source CFD Toolbox
   \\    /   O peration     | Website:  https://openfoam.org
    \\  /    A nd           | Version:  13
     \\/     M anipulation  |
\*---------------------------------------------------------------------------*/
FoamFile
{
    format      ascii;
    class       volScalarField;
    location    "0.25";
    object      k;
}
// * * * * * * * * * * * * * * * * * * * * * * * * * * * * * * * * * * * * * //

dimensions      [0 2 -2 0 0 0 0];

internalField   nonuniform List<scalar> 
2268
(
0.00449737
0.0100449
0.0144772
0.0179781
0.0210196
0.0237667
0.0263141
0.0287133
0.0309876
0.0331428
0.0351751
0.0370629
0.0387469
0.0401332
0.0411961
0.042013
0.0426388
0.042859
0.0421698
0.0407616
0.0384631
0.0338396
0.02337
0.00984167
0.0217395
0.0302756
0.0371609
0.0430358
0.0482239
0.0529151
0.0572188
0.0611902
0.0648518
0.0682036
0.0712117
0.0737797
0.0757714
0.0771679
0.0781258
0.0788161
0.0791425
0.0787463
0.0775541
0.0765964
0.0705763
0.0414938
0.0125789
0.02724
0.0376581
0.0460526
0.0531972
0.0594693
0.0650956
0.0702122
0.0748933
0.0791749
0.0830612
0.0865138
0.0894241
0.0916481
0.093181
0.0942262
0.0950873
0.0959648
0.0969811
0.098758
0.102115
0.0980029
0.0553493
0.0143516
0.0308621
0.0424999
0.0518189
0.0597277
0.0666406
0.0728049
0.0783727
0.083432
0.088029
0.0921691
0.0958106
0.0988453
0.101144
0.102736
0.103877
0.105039
0.106826
0.109907
0.115194
0.122436
0.119593
0.0672662
0.0155939
0.0334635
0.0460296
0.0560145
0.0644557
0.0718038
0.0783233
0.0841786
0.0894694
0.0942488
0.0985185
0.102232
0.105291
0.107608
0.109268
0.1106
0.112274
0.115393
0.121204
0.130451
0.140834
0.137857
0.0776342
0.0165117
0.0353879
0.048721
0.0592286
0.0680669
0.0757272
0.0824931
0.0885412
0.093983
0.0988737
0.103205
0.106922
0.109951
0.112274
0.114061
0.115724
0.118162
0.12311
0.132552
0.14676
0.159855
0.154984
0.0868776
0.0172365
0.0368414
0.0508389
0.0617777
0.0709228
0.0788107
0.0857478
0.0919257
0.09747
0.102433
0.10679
0.110484
0.113472
0.115827
0.117819
0.119945
0.123384
0.130687
0.144964
0.166245
0.182854
0.174147
0.0959534
0.0178761
0.0379441
0.0525406
0.0638505
0.0732432
0.0813036
0.0883662
0.0946425
0.100274
0.105296
0.109671
0.113341
0.116306
0.118735
0.120997
0.123677
0.12828
0.138195
0.15833
0.189988
0.21252
0.199231
0.108916
0.107789
0.136792
0.156682
0.176316
0.200467
0.207547
0.184647
0.164628
0.157815
0.156402
0.157403
0.158976
0.159626
0.157805
0.152495
0.146023
0.137624
0.120866
0.0873368
0.174769
0.281924
0.337441
0.381782
0.422479
0.385332
0.348534
0.318835
0.30657
0.300547
0.298255
0.297373
0.295753
0.291738
0.284641
0.276599
0.274587
0.255745
0.157141
0.210123
0.372189
0.487411
0.545654
0.507345
0.40344
0.379276
0.365497
0.360504
0.359223
0.360377
0.362244
0.363005
0.3615
0.358483
0.359306
0.37409
0.366743
0.212834
0.235707
0.462269
0.625032
0.734418
0.462085
0.379307
0.374299
0.377342
0.38312
0.389686
0.396786
0.403489
0.408613
0.411785
0.41528
0.427376
0.459657
0.46376
0.26504
0.242512
0.492746
0.790618
0.673432
0.390909
0.352738
0.362171
0.378179
0.393923
0.408524
0.422268
0.434779
0.44546
0.454753
0.466452
0.491549
0.541605
0.554543
0.315322
0.228108
0.418528
0.716247
0.442341
0.340256
0.335031
0.355339
0.379235
0.402011
0.423239
0.443205
0.461706
0.478537
0.494904
0.516139
0.556053
0.624574
0.642195
0.364256
0.212265
0.380496
0.454238
0.343802
0.317506
0.331327
0.356855
0.384267
0.411265
0.437506
0.462934
0.487242
0.510467
0.534543
0.566431
0.623443
0.711571
0.727018
0.411586
0.203024
0.380446
0.339052
0.316768
0.319377
0.338901
0.364958
0.393267
0.422728
0.452843
0.483108
0.513008
0.542769
0.575082
0.618651
0.696782
0.810377
0.814172
0.457173
0.0185668
0.0392028
0.0545608
0.0663596
0.0760827
0.0843747
0.0916147
0.0980525
0.103829
0.10894
0.113331
0.116957
0.11989
0.122435
0.125071
0.12868
0.135214
0.148778
0.175885
0.220138
0.257184
0.246252
0.164028
0.0197796
0.0415636
0.0576235
0.0697417
0.0796836
0.0881331
0.0955142
0.102069
0.107843
0.112812
0.116972
0.120344
0.123079
0.125453
0.127942
0.131847
0.139339
0.15398
0.181091
0.222537
0.264042
0.275228
0.223183
0.0208998
0.0440585
0.0599502
0.0719953
0.0818689
0.0902395
0.0975273
0.103948
0.109536
0.114291
0.118208
0.121302
0.123712
0.125777
0.128189
0.132318
0.140257
0.155072
0.181044
0.220358
0.260775
0.28539
0.271831
0.0214282
0.044931
0.0603071
0.0721208
0.0818336
0.0900532
0.0971493
0.103349
0.108753
0.113378
0.1172
0.120209
0.12252
0.124514
0.127005
0.131422
0.139775
0.154777
0.180183
0.219325
0.265829
0.304223
0.321824
0.0215688
0.0445394
0.0596434
0.0712233
0.0807237
0.0887477
0.0956348
0.101586
0.106719
0.111094
0.114734
0.117664
0.120016
0.122204
0.125106
0.130156
0.139293
0.155068
0.181096
0.2211
0.273573
0.328272
0.371694
0.0216715
0.0439484
0.0587098
0.0699038
0.078989
0.0865906
0.093059
0.0986119
0.103396
0.107517
0.111059
0.1141
0.116796
0.119564
0.123306
0.129486
0.14005
0.157495
0.184978
0.225545
0.27907
0.339249
0.394507
0.021836
0.0434625
0.057802
0.0685256
0.0771068
0.0841913
0.0901524
0.0952379
0.0996374
0.103518
0.107039
0.110359
0.113662
0.117368
0.122399
0.130283
0.142951
0.162605
0.191458
0.230943
0.280568
0.336218
0.38961
0.0220748
0.0431243
0.0571236
0.0674169
0.075522
0.0821091
0.087578
0.092211
0.0962456
0.0999176
0.103484
0.107204
0.111319
0.116276
0.123054
0.133165
0.148281
0.169897
0.19898
0.235765
0.279456
0.327141
0.373436
0.0224361
0.0428922
0.0567517
0.0667388
0.0744738
0.0806624
0.0857359
0.0900124
0.0937774
0.0973336
0.101035
0.105257
0.110328
0.116775
0.125637
0.138213
0.155557
0.178197
0.206363
0.239874
0.2778
0.318162
0.357676
0.0230854
0.0427797
0.0567479
0.0665595
0.0740493
0.079976
0.0848077
0.0888972
0.092569
0.096179
0.100157
0.104993
0.111112
0.119096
0.129982
0.144718
0.163497
0.186307
0.21315
0.24376
0.2774
0.312785
0.348065
0.0243652
0.0430637
0.0573852
0.0670866
0.0744336
0.0802366
0.0849992
0.0890952
0.0928614
0.0966952
0.101095
0.106646
0.113827
0.123181
0.135663
0.151751
0.171183
0.193809
0.219626
0.248553
0.280094
0.313352
0.347505
0.0268911
0.0444153
0.0592644
0.0687715
0.0760771
0.0818859
0.0867355
0.0909533
0.0948488
0.0988926
0.103717
0.110006
0.11821
0.12872
0.142563
0.159719
0.17979
0.202727
0.2287
0.257931
0.290089
0.324241
0.360435
0.0299052
0.0474434
0.0623276
0.0707451
0.0777038
0.0833303
0.0881032
0.0923895
0.0965938
0.101194
0.106847
0.114203
0.123599
0.135247
0.150105
0.168795
0.190994
0.216185
0.244552
0.276632
0.31203
0.348701
0.385275
0.0320697
0.0517801
0.0648354
0.0716628
0.0779412
0.0834314
0.0883673
0.0930793
0.0979483
0.103435
0.110141
0.118646
0.129057
0.141459
0.156402
0.174256
0.194948
0.218322
0.244603
0.274186
0.306463
0.338809
0.368719
0.0332192
0.0541192
0.0646296
0.0719406
0.0781701
0.0836573
0.0887442
0.0937934
0.0992083
0.105449
0.113016
0.122269
0.133211
0.145781
0.160138
0.176527
0.195065
0.215792
0.238829
0.264412
0.292439
0.32187
0.351432
0.033152
0.0537069
0.0646819
0.072302
0.078517
0.0839666
0.0891121
0.0943693
0.100159
0.106914
0.11504
0.124774
0.136103
0.148934
0.163251
0.179125
0.196675
0.215942
0.236905
0.259511
0.283559
0.308562
0.334007
0.032834
0.0535326
0.0649547
0.0727756
0.0789692
0.0843674
0.089516
0.0948716
0.100861
0.107885
0.116287
0.126241
0.137711
0.15058
0.16474
0.18014
0.196775
0.214624
0.233604
0.25355
0.274157
0.294985
0.315588
0.0326619
0.0538822
0.0654933
0.073319
0.0794482
0.0847876
0.0899189
0.0953137
0.101391
0.10852
0.116982
0.126919
0.138308
0.151016
0.164886
0.179739
0.195439
0.211863
0.228853
0.246177
0.263485
0.280328
0.296128
0.032609
0.0544326
0.0661119
0.0738737
0.0799165
0.085187
0.0902812
0.0956698
0.101757
0.108882
0.117291
0.127101
0.138287
0.150702
0.164132
0.178337
0.193069
0.208085
0.223119
0.237864
0.251923
0.264796
0.275954
0.0325636
0.0549359
0.0666689
0.0743753
0.0803392
0.0855386
0.0905784
0.0959234
0.101962
0.109009
0.117285
0.126889
0.137786
0.149815
0.162725
0.176213
0.189944
0.203574
0.216745
0.22908
0.240161
0.249525
0.256749
0.0324477
0.055283
0.0670876
0.0747736
0.0806822
0.0858162
0.0907887
0.0960595
0.102003
0.108916
0.117
0.126338
0.136885
0.148465
0.160801
0.17354
0.186288
0.19863
0.210146
0.220422
0.229048
0.235635
0.239894
0.0322362
0.0554472
0.0673374
0.0750359
0.0809139
0.085991
0.0908866
0.0960568
0.101866
0.108596
0.116437
0.12546
0.13561
0.146701
0.158439
0.170441
0.182278
0.193496
0.203646
0.212307
0.219103
0.223725
0.226006
0.0319352
0.0554389
0.0674151
0.0751458
0.0810105
0.0860364
0.0908455
0.0958908
0.101528
0.108032
0.11558
0.124241
0.133952
0.144527
0.155663
0.166968
0.177998
0.188286
0.197383
0.204882
0.210446
0.213836
0.214972
0.0315631
0.0552831
0.0673332
0.0751015
0.0809599
0.0859343
0.0906455
0.0955416
0.100972
0.107205
0.114413
0.122662
0.131895
0.141928
0.152464
0.163117
0.173446
0.182993
0.191321
0.198047
0.202871
0.205601
0.206208
0.031141
0.05501
0.067114
0.0749139
0.0807633
0.0856803
0.0902796
0.0950028
0.100193
0.106112
0.112932
0.120722
0.129433
0.138896
0.148828
0.158862
0.168575
0.17753
0.185309
0.191555
0.195994
0.198463
0.198947
0.0306889
0.0546519
0.0667877
0.074606
0.0804369
0.085286
0.0897582
0.0942865
0.099206
0.104773
0.111162
0.118446
0.126592
0.13545
0.144762
0.154189
0.163336
0.171792
0.179165
0.185119
0.1894
0.191854
0.19246
0.0302255
0.0542432
0.0663903
0.0742112
0.0800105
0.084779
0.0891098
0.0934247
0.0980495
0.103235
0.109155
0.115894
0.123433
0.131647
0.140312
0.14912
0.157713
0.16571
0.172748
0.178508
0.182747
0.185312
0.186165
0.0297694
0.053821
0.0659644
0.0737724
0.0795258
0.0842012
0.0883784
0.0924669
0.0967811
0.101565
0.106992
0.113154
0.120051
0.127586
0.135569
0.143731
0.151752
0.159286
0.165997
0.171587
0.17582
0.178535
0.179676
0.0293417
0.0534281
0.0655598
0.0733411
0.0790346
0.083605
0.0876197
0.0914746
0.0954718
0.0998462
0.104768
0.110337
0.116571
0.123398
0.130666
0.138147
0.145559
0.152596
0.15895
0.164343
0.168545
0.171393
0.172807
0.0289691
0.0531156
0.0652348
0.0729769
0.0785963
0.0830504
0.0868959
0.0905157
0.0941982
0.0981672
0.102588
0.107565
0.113129
0.119236
0.125767
0.132533
0.139296
0.145786
0.151729
0.156868
0.160982
0.163905
0.165539
0.0286882
0.0529474
0.0650586
0.0727481
0.078277
0.082602
0.0862723
0.0896586
0.0930353
0.0966136
0.100552
0.104953
0.109862
0.115254
0.121042
0.127075
0.133155
0.139052
0.144523
0.149337
0.153287
0.156207
0.157988
0.0285514
0.0530041
0.0651137
0.0727319
0.0781479
0.0823265
0.0858132
0.0889679
0.092051
0.0952602
0.0987438
0.102603
0.106887
0.111591
0.116652
0.121954
0.127334
0.132602
0.137549
0.14197
0.145677
0.14851
0.150354
0.0286325
0.053387
0.0654966
0.0730136
0.0782839
0.0822905
0.0855795
0.0885011
0.0913023
0.0941665
0.0972305
0.10059
0.104296
0.108356
0.112728
0.117322
0.12201
0.126635
0.131022
0.134995
0.138388
0.141054
0.142874
0.0290337
0.054219
0.0663166
0.073684
0.0787603
0.082558
0.0856263
0.088307
0.0908336
0.0933749
0.0960554
0.0989624
0.102147
0.105622
0.109359
0.113292
0.117319
0.121311
0.125126
0.128615
0.131638
0.134065
0.135785
0.0298901
0.0556446
0.0676915
0.0748338
0.079648
0.0831855
0.0860001
0.088424
0.0906764
0.0929115
0.0952407
0.0977422
0.100463
0.103418
0.106588
0.109923
0.113341
0.116736
0.11999
0.122983
0.1256
0.127733
0.129283
0.0313758
0.0578272
0.0697382
0.0765438
0.0810047
0.0842169
0.0867347
0.0888779
0.0908494
0.0927878
0.0947911
0.0969273
0.0992379
0.101737
0.104413
0.107222
0.110097
0.112949
0.115679
0.118188
0.120383
0.122184
0.12351
0.033718
0.0609477
0.0725612
0.0788719
0.0828654
0.0856755
0.0878475
0.0896812
0.0913595
0.0930037
0.0946979
0.0964996
0.098444
0.100544
0.102789
0.105144
0.10755
0.109928
0.11219
0.114248
0.11603
0.117481
0.118544
0.0372422
0.0652095
0.0762361
0.0818371
0.0852298
0.0875576
0.0893354
0.0908312
0.0922024
0.0935504
0.0949441
0.0964307
0.0980391
0.0997803
0.101646
0.103607
0.105611
0.107587
0.109449
0.111114
0.112515
0.11362
0.114403
0.0424829
0.0708482
0.0807863
0.0853998
0.088052
0.0898272
0.0911738
0.0923119
0.0933659
0.0944143
0.09551
0.0966894
0.0979755
0.0993781
0.100892
0.102496
0.104146
0.105779
0.107312
0.108656
0.109739
0.110534
0.111056
0.0504766
0.0781262
0.0861367
0.0894378
0.0912331
0.0924164
0.0933199
0.0940975
0.0948337
0.0955817
0.0963779
0.0972478
0.0982087
0.0992698
0.10043
0.101678
0.102983
0.104298
0.105551
0.106651
0.107506
0.10808
0.10842
0.0636473
0.0872135
0.092006
0.0937178
0.0946235
0.0952361
0.0957232
0.0961609
0.096592
0.0970444
0.0975381
0.098088
0.0987057
0.0993989
0.100171
0.101019
0.101932
0.102885
0.103837
0.104721
0.10545
0.105951
0.106285
0.0889339
0.0971772
0.0976629
0.0978729
0.0980461
0.0981993
0.0983429
0.0984864
0.0986385
0.0988061
0.0989948
0.0992095
0.0994547
0.0997339
0.10005
0.100407
0.100804
0.101243
0.101722
0.102238
0.102778
0.103305
0.103942
0.148852
0.134775
0.160997
0.220057
0.198519
0.18399
0.188049
0.210667
0.26219
0.259279
0.264706
0.281101
0.32972
0.3382
0.351593
0.372011
0.395321
0.413983
0.432428
0.450892
0.4275
0.45168
0.472632
0.489838
0.422713
0.445911
0.465741
0.481774
0.403111
0.42365
0.441811
0.457475
0.384171
0.40285
0.420308
0.436437
0.373095
0.391154
0.408784
0.425959
0.373815
0.393668
0.413708
0.433082
0.392454
0.420173
0.45047
0.472803
0.417226
0.44398
0.460393
0.468675
0.392011
0.410702
0.431389
0.451113
0.374255
0.390981
0.407706
0.423783
0.353088
0.366146
0.379247
0.392157
0.330597
0.340376
0.349982
0.359221
0.30696
0.313601
0.319815
0.325457
0.282898
0.286817
0.290129
0.292743
0.260482
0.262251
0.263362
0.263775
0.241282
0.241545
0.241187
0.240213
0.225897
0.225237
0.224027
0.222303
0.214054
0.21292
0.211302
0.209253
0.204969
0.203667
0.201929
0.199816
0.197704
0.196426
0.194741
0.192712
0.191399
0.190258
0.188725
0.186863
0.185384
0.184439
0.183112
0.181463
0.179213
0.178489
0.177394
0.17598
0.172656
0.172153
0.171293
0.170121
0.165666
0.165367
0.16473
0.163791
0.15834
0.158215
0.157775
0.15705
0.150868
0.150881
0.150603
0.150061
0.143485
0.143594
0.143443
0.143049
0.136426
0.13659
0.136524
0.13624
0.129893
0.130072
0.130048
0.129834
0.124037
0.124193
0.124171
0.123985
0.118945
0.119045
0.118989
0.118787
0.114647
0.114663
0.114538
0.11428
0.11113
0.111042
0.110819
0.110468
0.108351
0.108158
0.107818
0.107349
0.106194
0.105965
0.105545
0.104973
0.104378
0.104247
0.103838
0.10326
0.313458
0.334483
0.322711
0.325341
0.337009
0.356903
0.381626
0.410056
0.441987
0.476798
0.513535
0.55154
0.59165
0.63851
0.705164
0.83162
1.01783
0.983226
0.534055
0.274397
0.329363
0.351813
0.364276
0.377006
0.393718
0.415706
0.444083
0.479125
0.519952
0.565175
0.614261
0.669741
0.742489
0.860856
1.09634
1.46892
1.18297
0.570479
0.32783
0.373201
0.392907
0.404678
0.415605
0.430335
0.452247
0.483259
0.523557
0.571914
0.626777
0.688309
0.762543
0.871986
1.07989
1.32914
1.63534
1.28153
0.580911
0.411125
0.429344
0.439459
0.445278
0.452356
0.466283
0.490663
0.526973
0.574784
0.632429
0.698177
0.773113
0.867894
0.987827
1.12911
1.27615
1.50543
1.27668
0.608504
0.47594
0.483765
0.483035
0.481105
0.485454
0.501234
0.530997
0.575188
0.632551
0.700863
0.777845
0.8657
0.956415
1.02652
1.08726
1.17984
1.37484
1.26262
0.666356
0.509054
0.510872
0.506302
0.504245
0.512121
0.534519
0.573274
0.628011
0.696589
0.77611
0.863678
0.947552
1.00537
1.03885
1.05924
1.09175
1.20598
1.2083
0.681061
0.500667
0.507262
0.50992
0.516406
0.534019
0.567661
0.618857
0.686395
0.766885
0.854523
0.935054
0.99368
1.0227
1.01671
0.994324
0.976953
1.01697
1.06511
0.626754
0.478682
0.493696
0.507127
0.525652
0.556549
0.604767
0.670712
0.752224
0.840821
0.915094
0.972865
1.00302
0.992978
0.94927
0.891287
0.841251
0.834797
0.886103
0.550604
0.460674
0.484611
0.509252
0.540946
0.586909
0.651205
0.731975
0.822068
0.893863
0.945536
0.97193
0.961987
0.9155
0.842872
0.763965
0.698057
0.666326
0.698325
0.472228
0.453972
0.48923
0.526217
0.571352
0.632034
0.708607
0.79554
0.863813
0.909578
0.929782
0.918585
0.872439
0.800778
0.717247
0.633294
0.561537
0.517533
0.526734
0.393865
0.465085
0.515544
0.56527
0.612516
0.679318
0.755381
0.818716
0.859806
0.876245
0.863721
0.818556
0.751973
0.6744
0.592701
0.512938
0.442906
0.394175
0.386025
0.317063
0.497363
0.538169
0.581445
0.633504
0.69771
0.753848
0.792716
0.809099
0.798473
0.756683
0.696589
0.627314
0.55442
0.481429
0.411204
0.347842
0.29899
0.279002
0.245051
0.489435
0.535998
0.58805
0.632232
0.67557
0.711242
0.729082
0.722726
0.688097
0.636639
0.576551
0.513414
0.450538
0.38954
0.331163
0.276794
0.230652
0.202926
0.182261
0.48116
0.522739
0.562676
0.595116
0.622341
0.639706
0.638245
0.613119
0.57253
0.523101
0.470107
0.417279
0.366527
0.318188
0.27166
0.226591
0.184649
0.15237
0.132633
0.45036
0.485129
0.515278
0.536902
0.549817
0.550581
0.534214
0.505043
0.467366
0.425206
0.382255
0.340931
0.302096
0.265258
0.229104
0.192359
0.155062
0.120829
0.0975158
0.413272
0.438758
0.457889
0.467922
0.468189
0.457449
0.437594
0.410919
0.37958
0.346399
0.313807
0.283157
0.254555
0.227068
0.199124
0.169088
0.136125
0.101842
0.0750068
0.373704
0.388851
0.396998
0.39716
0.389421
0.375487
0.357201
0.33519
0.310979
0.286401
0.262865
0.240926
0.220225
0.199665
0.177683
0.152614
0.12326
0.0900598
0.0613426
0.333389
0.339368
0.33944
0.333713
0.323147
0.310167
0.2949
0.277883
0.260115
0.242642
0.226121
0.210589
0.195452
0.179613
0.161646
0.140014
0.113466
0.0818852
0.0528892
0.295609
0.295267
0.290629
0.282308
0.272388
0.261281
0.249187
0.236506
0.223804
0.211565
0.199959
0.188725
0.177186
0.164325
0.148894
0.129549
0.105151
0.0753924
0.0471945
0.263324
0.259397
0.252717
0.244403
0.23559
0.226384
0.216956
0.207546
0.198403
0.189653
0.181184
0.172588
0.163187
0.152071
0.138173
0.120361
0.0976734
0.0697955
0.0429628
0.237895
0.232369
0.225219
0.217645
0.209938
0.202265
0.194762
0.187541
0.180649
0.174004
0.167346
0.160214
0.151965
0.141804
0.12883
0.112117
0.0908912
0.064887
0.0396099
0.219101
0.213122
0.20629
0.199347
0.192485
0.18586
0.179572
0.173646
0.168014
0.162488
0.156741
0.15031
0.142604
0.132939
0.120566
0.104739
0.0848511
0.0606616
0.0368801
0.205745
0.199817
0.193445
0.186997
0.180691
0.174682
0.169047
0.163766
0.158714
0.153659
0.148259
0.142072
0.134571
0.125173
0.113263
0.0982409
0.0796209
0.0571324
0.0346405
0.196321
0.190681
0.184683
0.178581
0.172595
0.166883
0.161513
0.156449
0.151551
0.146578
0.141202
0.135018
0.127567
0.118354
0.106872
0.092635
0.0752215
0.0542712
0.0327986
0.189392
0.184111
0.178433
0.172579
0.166764
0.161153
0.155815
0.150721
0.145739
0.140645
0.135138
0.128862
0.12142
0.112392
0.101356
0.0878984
0.071614
0.0520077
0.0312787
0.183804
0.178907
0.173537
0.167891
0.162182
0.156578
0.151166
0.145931
0.140765
0.135474
0.129798
0.123426
0.116017
0.107216
0.096658
0.0839651
0.0687129
0.050249
0.0300173
0.17871
0.174224
0.169178
0.163748
0.158143
0.152537
0.147033
0.141644
0.13629
0.130816
0.125002
0.118584
0.11127
0.102749
0.0926935
0.0807362
0.066408
0.0488983
0.028963
0.173564
0.169511
0.164817
0.159641
0.154181
0.148618
0.143071
0.137578
0.132096
0.126505
0.120626
0.114239
0.10709
0.0988997
0.0893602
0.0780966
0.0645854
0.0478685
0.0280758
0.168053
0.164448
0.160142
0.155269
0.150019
0.144574
0.139067
0.133561
0.128043
0.122429
0.11658
0.110308
0.10339
0.0955717
0.0865491
0.0759319
0.0631412
0.0470875
0.0273258
0.162066
0.158916
0.155022
0.150503
0.145532
0.140291
0.134921
0.129504
0.124055
0.118522
0.112795
0.106718
0.100091
0.0926717
0.0841584
0.0741408
0.0619893
0.0464996
0.0266907
0.155647
0.152941
0.149473
0.145343
0.140711
0.135752
0.130611
0.125384
0.120106
0.114749
0.10923
0.103415
0.0971226
0.0901199
0.0821024
0.0726414
0.0610632
0.0460634
0.0261543
0.148948
0.146656
0.143606
0.139883
0.135632
0.131017
0.126182
0.121229
0.116207
0.111107
0.105864
0.100362
0.0944343
0.0878546
0.0803153
0.0713721
0.0603141
0.0457487
0.025704
0.142178
0.140252
0.137592
0.134271
0.13042
0.126189
0.121714
0.117098
0.112397
0.107612
0.102693
0.0975391
0.0919924
0.0858327
0.0787505
0.0702894
0.0597076
0.0455336
0.0253299
0.135555
0.133931
0.131616
0.128674
0.12522
0.121388
0.117304
0.113065
0.108725
0.104294
0.0997291
0.0949396
0.0897769
0.0840259
0.0773768
0.0693638
0.05922
0.0454022
0.025024
0.129275
0.127878
0.125848
0.123244
0.120166
0.11673
0.113046
0.1092
0.105243
0.101183
0.0969847
0.0925629
0.0877768
0.0824165
0.0761732
0.0685752
0.0588342
0.0453419
0.0247791
0.123487
0.122233
0.12042
0.118102
0.115365
0.112306
0.109015
0.105562
0.10199
0.0983048
0.0944712
0.0904091
0.085984
0.0809913
0.0751246
0.0679086
0.0585372
0.0453421
0.0245885
0.118283
0.117085
0.115414
0.113324
0.110887
0.108177
0.10526
0.102189
0.0989931
0.0956729
0.0921926
0.0884749
0.08439
0.0797388
0.0742182
0.0673513
0.0583173
0.0453928
0.0244458
0.113701
0.112472
0.110871
0.108955
0.106776
0.10438
0.101811
0.0991009
0.0962641
0.0932924
0.0901476
0.0867536
0.0829849
0.0786471
0.0734413
0.0668906
0.0581624
0.0454828
0.0243442
0.109752
0.108414
0.106824
0.105033
0.103069
0.100953
0.0987004
0.0963224
0.0938184
0.0911708
0.0883375
0.0852421
0.081762
0.0777073
0.0727833
0.0665142
0.0580589
0.0455984
0.0242758
0.106452
0.104958
0.103336
0.101631
0.0998437
0.0979666
0.0959902
0.093905
0.0916966
0.0893384
0.0867833
0.0839539
0.0807291
0.0769221
0.0722419
0.0662148
0.0579934
0.0457211
0.0242303
0.103896
0.10223
0.100565
0.0989207
0.0972708
0.0955809
0.0938219
0.0919694
0.0899979
0.0878734
0.0855443
0.0829315
0.0799141
0.0763072
0.0718223
0.0659873
0.0579499
0.0458222
0.0241913
0.102165
0.100485
0.0988414
0.0972559
0.0956947
0.0941157
0.0924822
0.0907635
0.0889292
0.0869411
0.0847454
0.0822614
0.0793682
0.0758817
0.0715151
0.0657974
0.0578746
0.0458399
0.024116
)
;

boundaryField
{
    leftWall
    {
        type            kqRWallFunction;
        value           nonuniform List<scalar> 
50
(
0.00449737
0.00984167
0.0125789
0.0143516
0.0155939
0.0165117
0.0172365
0.0178761
0.0185668
0.0197796
0.0208998
0.0214282
0.0215688
0.0216715
0.021836
0.0220748
0.0224361
0.0230854
0.0243652
0.0268911
0.0299052
0.0320697
0.0332192
0.033152
0.032834
0.0326619
0.032609
0.0325636
0.0324477
0.0322362
0.0319352
0.0315631
0.031141
0.0306889
0.0302255
0.0297694
0.0293417
0.0289691
0.0286882
0.0285514
0.0286325
0.0290337
0.0298901
0.0313758
0.033718
0.0372422
0.0424829
0.0504766
0.0636473
0.0889339
)
;
    }
    rightWall
    {
        type            kqRWallFunction;
        value           nonuniform List<scalar> 
50
(
0.0873368
0.157141
0.212834
0.26504
0.315322
0.364256
0.411586
0.457173
0.534055
0.570479
0.580911
0.608504
0.666356
0.681061
0.626754
0.550604
0.472228
0.393865
0.317063
0.245051
0.182261
0.132633
0.0975158
0.0750068
0.0613426
0.0528892
0.0471945
0.0429628
0.0396099
0.0368801
0.0346405
0.0327986
0.0312787
0.0300173
0.028963
0.0280758
0.0273258
0.0266907
0.0261543
0.025704
0.0253299
0.025024
0.0247791
0.0245885
0.0244458
0.0243442
0.0242758
0.0242303
0.0241913
0.024116
)
;
    }
    lowerWall
    {
        type            kqRWallFunction;
        value           nonuniform List<scalar> 
62
(
0.00449737
0.0100449
0.0144772
0.0179781
0.0210196
0.0237667
0.0263141
0.0287133
0.0309876
0.0331428
0.0351751
0.0370629
0.0387469
0.0401332
0.0411961
0.042013
0.0426388
0.042859
0.0421698
0.0407616
0.0384631
0.0338396
0.02337
0.02337
0.0414938
0.0553493
0.0672662
0.0776342
0.0868776
0.0959534
0.108916
0.148852
0.134775
0.160997
0.220057
0.107789
0.174769
0.210123
0.235707
0.242512
0.228108
0.212265
0.203024
0.107789
0.136792
0.156682
0.176316
0.200467
0.207547
0.184647
0.164628
0.157815
0.156402
0.157403
0.158976
0.159626
0.157805
0.152495
0.146023
0.137624
0.120866
0.0873368
)
;
    }
    atmosphere
    {
        type            inletOutlet;
        inletValue      uniform 0.1;
        value           nonuniform List<scalar> 
46
(
0.1
0.1
0.1
0.1
0.1
0.1
0.1
0.1
0.1
0.1
0.1
0.1
0.1
0.1
0.1
0.1
0.1
0.1
0.1
0.1
0.1
0.1
0.1
0.104378
0.104247
0.103838
0.10326
0.102165
0.100485
0.0988414
0.0972559
0.0956947
0.0941157
0.0924822
0.0907635
0.0889292
0.0869411
0.0847454
0.0822614
0.0793682
0.0758817
0.0715151
0.0657974
0.0578746
0.0458399
0.024116
)
;
    }
    defaultFaces
    {
        type            empty;
    }
}


// ************************************************************************* //
