/*--------------------------------*- C++ -*----------------------------------*\
  =========                 |
  \\      /  F ield         | OpenFOAM: The Open Source CFD Toolbox
   \\    /   O peration     | Website:  https://openfoam.org
    \\  /    A nd           | Version:  13
     \\/     M anipulation  |
\*---------------------------------------------------------------------------*/
FoamFile
{
    format      ascii;
    class       volScalarField;
    location    "0.25";
    object      nut;
}
// * * * * * * * * * * * * * * * * * * * * * * * * * * * * * * * * * * * * * //

dimensions      [0 2 -1 0 0 0 0];

internalField   nonuniform List<scalar> 
2268
(
4.48494e-05
6.72012e-05
8.07772e-05
9.00791e-05
9.74493e-05
0.000103651
0.000109074
0.000113927
0.000118326
0.00012233
0.000125974
0.000129251
0.000132091
0.00013436
0.000136025
0.000137222
0.000138072
0.000138323
0.000137299
0.000135098
0.000131299
0.000123139
0.00010212
0.000140391
0.000441764
0.000630985
0.000769519
0.000877262
0.000963257
0.00103245
0.00108795
0.00113188
0.00116593
0.00119136
0.00120878
0.00121769
0.00121663
0.00120575
0.00118814
0.00116806
0.00114601
0.00110955
0.00101195
0.000862111
0.000652876
0.000288605
0.000158874
0.000660006
0.00105273
0.00136831
0.00162935
0.00184676
0.00202698
0.0021745
0.00229296
0.00238567
0.00245538
0.00250368
0.00253016
0.00253286
0.00251306
0.00247751
0.00243589
0.00239065
0.00231303
0.00211751
0.00177019
0.00125667
0.00033344
0.000169775
0.000780729
0.00132661
0.00179403
0.00219753
0.00254444
0.00283953
0.00308665
0.00328948
0.00345183
0.00357697
0.003667
0.00372206
0.00374096
0.00372658
0.0036878
0.00363651
0.00357359
0.00344918
0.00314654
0.00260632
0.00179228
0.000367628
0.000177018
0.000853478
0.0015109
0.00210073
0.00262621
0.00308892
0.00349048
0.00383307
0.00411966
0.00435369
0.00453814
0.00467519
0.0047657
0.00480998
0.00481247
0.00478204
0.00472736
0.00463925
0.00444234
0.00401168
0.00330249
0.0022315
0.000394976
0.000182193
0.000900662
0.00164138
0.00232884
0.00295599
0.00351849
0.00401449
0.00444413
0.00480924
0.00511235
0.00535562
0.00554109
0.00567045
0.00574571
0.00577227
0.00575633
0.00569642
0.0055632
0.00526003
0.00469289
0.0038523
0.00258234
0.000417851
0.0001862
0.000934338
0.00174079
0.00250638
0.00321678
0.00386307
0.00444034
0.00494673
0.00538276
0.00574955
0.00604833
0.00628098
0.00645001
0.00655886
0.00661282
0.00661249
0.00653977
0.00633787
0.00590481
0.00521986
0.00429133
0.00287789
0.000439089
0.000189699
0.00096272
0.00182458
0.00265292
0.0034303
0.00414519
0.00479049
0.00536264
0.00586066
0.00628396
0.00663297
0.00690964
0.00711714
0.00725979
0.00734173
0.00735544
0.00726157
0.00697295
0.00641517
0.00566233
0.00468691
0.00317915
0.000467169
0.000218613
0.00024754
0.000265896
0.00028274
0.000302442
0.000306992
0.000290713
0.000274516
0.000268736
0.000267306
0.000267749
0.000268548
0.00026849
0.000266302
0.000261395
0.000255519
0.000247878
0.000231769
0.000194651
0.000658286
0.0011876
0.00141758
0.00155388
0.00171633
0.00180389
0.00193323
0.00201911
0.00210061
0.00217575
0.00223634
0.00227095
0.00226959
0.00222442
0.00212012
0.00190562
0.00164841
0.00127382
0.000622
0.000728843
0.00165589
0.00200875
0.00214836
0.0022282
0.0024367
0.00287665
0.00327502
0.00364323
0.00396811
0.00423484
0.00442195
0.00451086
0.00448828
0.00433523
0.00398166
0.00343479
0.00253195
0.00072605
0.000777058
0.00189283
0.00228413
0.00240184
0.00228069
0.00271724
0.00347784
0.00422516
0.00489437
0.00546451
0.00592014
0.00624073
0.00640981
0.00641699
0.0062435
0.00581035
0.00504898
0.00368363
0.000811038
0.00079468
0.00193876
0.00256346
0.00238196
0.00225919
0.00301901
0.00410359
0.00515245
0.00606314
0.00681307
0.00739065
0.00778354
0.00798498
0.00799171
0.0077827
0.00726649
0.00634475
0.00464521
0.000884776
0.000775452
0.00182246
0.00246773
0.00213917
0.00253055
0.00362299
0.00492986
0.00615826
0.00720972
0.00805469
0.00868126
0.00908629
0.0092748
0.0092494
0.00897957
0.00835824
0.00730667
0.00540309
0.000950645
0.00074982
0.00174745
0.00219845
0.00237291
0.00322219
0.00452173
0.00591588
0.00720932
0.0083114
0.00917815
0.0097948
0.0101677
0.010313
0.0102347
0.00988364
0.0091371
0.00797105
0.0059703
0.00100971
0.000730928
0.00172514
0.00218378
0.00298145
0.00415188
0.0055373
0.00694239
0.00823789
0.00933165
0.0101685
0.0107354
0.01105
0.0111376
0.0109982
0.0105559
0.00967769
0.00841592
0.00638479
0.00106272
0.00019344
0.00100208
0.00193087
0.00283179
0.00368681
0.00448305
0.00521149
0.00586651
0.00644418
0.00694138
0.00735803
0.00769665
0.00796182
0.00815928
0.00829122
0.00833558
0.00821555
0.00779956
0.00708026
0.00627114
0.00530158
0.00382983
0.00124733
0.000199855
0.00108911
0.0020962
0.00305989
0.0039759
0.00483514
0.00562914
0.00635005
0.00699052
0.00754727
0.00802202
0.0084189
0.00874387
0.00900113
0.0091862
0.00926515
0.00913124
0.00863323
0.00779207
0.00684342
0.00584503
0.00456786
0.00249584
0.000205407
0.0012128
0.00227012
0.00326835
0.00421438
0.00510377
0.00592927
0.00668233
0.00735566
0.00794753
0.00846006
0.00889798
0.00926807
0.00957511
0.00981183
0.009933
0.00982007
0.00932439
0.00845943
0.00746961
0.00644136
0.00533426
0.00392811
0.000207905
0.00128221
0.00237448
0.00340051
0.00436955
0.00527829
0.00612073
0.00689106
0.00758482
0.00820089
0.00874158
0.00921209
0.00961971
0.00997001
0.010255
0.0104266
0.0103694
0.00994662
0.00915821
0.00823338
0.00732275
0.00644819
0.00560445
0.000208551
0.00127589
0.00239841
0.00345623
0.00445215
0.0053822
0.00624062
0.00702315
0.00772846
0.00835857
0.00891819
0.00941413
0.00985431
0.0102445
0.0105771
0.0108081
0.0108391
0.0105587
0.00996081
0.00922508
0.00853708
0.00799275
0.00763554
0.000209037
0.00125113
0.00238659
0.00346667
0.00448417
0.00543208
0.00630392
0.00709639
0.00781052
0.00845148
0.00902714
0.00954643
0.0100174
0.0104447
0.0108223
0.0111176
0.0112628
0.0111873
0.0108843
0.0104622
0.0100697
0.00982949
0.00982847
0.00020983
0.00122753
0.00236494
0.00345886
0.00449279
0.00545543
0.00633886
0.00714018
0.00786226
0.008513
0.00910317
0.00964338
0.0101409
0.0105987
0.0110141
0.0113726
0.0116452
0.0118048
0.0118465
0.0117955
0.0117337
0.0117659
0.0119963
0.000211004
0.0012027
0.00233912
0.00344527
0.0044954
0.00547323
0.00636895
0.00717984
0.00791025
0.00857015
0.00917226
0.00972793
0.0102429
0.0107194
0.0111618
0.0115768
0.0119684
0.0123371
0.0126749
0.01296
0.013211
0.0134947
0.013889
0.000212839
0.00116814
0.00230673
0.00343107
0.00450304
0.00550044
0.00641169
0.0072345
0.00797458
0.00864302
0.00925298
0.00981541
0.0103349
0.0108159
0.0112736
0.0117321
0.0122108
0.0127137
0.0132286
0.013734
0.0142136
0.0146818
0.0151752
0.000216187
0.00111592
0.00226764
0.00342332
0.00452748
0.00555145
0.00648285
0.00732066
0.0080718
0.00874757
0.00936001
0.00991927
0.0104305
0.0109028
0.0113621
0.0118428
0.0123612
0.0129153
0.0134916
0.0140703
0.0146328
0.0151715
0.0156868
0.000222706
0.00104626
0.00223478
0.00344066
0.00458944
0.00564712
0.00660275
0.00745737
0.00821871
0.00889799
0.0095062
0.0100534
0.010547
0.0110006
0.0114471
0.0119219
0.0124357
0.0129822
0.0135467
0.0141102
0.0146569
0.0151808
0.0156812
0.000235079
0.000972276
0.00224072
0.00351784
0.00472213
0.00581783
0.00679857
0.00766671
0.00843075
0.0091038
0.00969817
0.0102249
0.0106954
0.0111259
0.0115543
0.0120085
0.0124966
0.013012
0.0135389
0.0140585
0.0145611
0.0150529
0.0155504
0.000247231
0.00102439
0.00234766
0.00367009
0.00491534
0.00603474
0.00702625
0.0078979
0.00866218
0.00933006
0.0099121
0.010421
0.0108719
0.0112838
0.0116927
0.012134
0.0126154
0.0131203
0.0136308
0.0141309
0.0146155
0.0150863
0.0155515
0.0002556
0.00130136
0.0026031
0.00390674
0.00516026
0.00628796
0.00728138
0.0081502
0.0089069
0.00956235
0.0101283
0.0106207
0.0110553
0.0114505
0.0118341
0.0122294
0.0126435
0.0130743
0.0135186
0.0139669
0.0144037
0.0148085
0.015171
0.000259357
0.00146154
0.00282218
0.00416521
0.00542753
0.00655471
0.00754063
0.00839664
0.00913702
0.00977434
0.0103217
0.0107958
0.0112131
0.0115894
0.011941
0.0122834
0.0126269
0.0129786
0.0133415
0.0137104
0.0140716
0.0144104
0.0147229
0.000258735
0.00154668
0.00302972
0.00442067
0.00568679
0.00680375
0.00777371
0.00861053
0.00932998
0.00994647
0.0104749
0.0109323
0.0113356
0.0116987
0.0120329
0.0123475
0.0126514
0.0129504
0.013246
0.0135349
0.0138105
0.0140661
0.014303
0.000257525
0.00162211
0.00320508
0.00464359
0.00591383
0.00701801
0.00796874
0.00878351
0.00948003
0.0100748
0.0105845
0.0110261
0.0114158
0.0117661
0.0120857
0.012381
0.0126577
0.0129191
0.013165
0.0133926
0.0135986
0.0137809
0.0139417
0.000256955
0.00169083
0.0033482
0.00481989
0.00609455
0.00718883
0.00812278
0.00891729
0.00959217
0.0101659
0.0106568
0.0110828
0.0114596
0.0117987
0.0121069
0.0123883
0.0126462
0.0128815
0.0130929
0.0132773
0.0134317
0.0135553
0.0136519
0.000256814
0.00174618
0.00345587
0.00495189
0.00623085
0.00731792
0.0082383
0.00901577
0.0096722
0.0102279
0.0107024
0.0111144
0.0114797
0.0118094
0.0121096
0.012383
0.0126298
0.0128489
0.0130376
0.0131928
0.013312
0.013395
0.0134447
0.000256655
0.00178744
0.00353279
0.00504582
0.00632821
0.00740996
0.00831967
0.0090835
0.00972522
0.0102668
0.0107288
0.0111305
0.0114879
0.0118119
0.0121084
0.0123787
0.0126214
0.0128332
0.0130105
0.0131496
0.0132482
0.0133061
0.013326
0.000256192
0.00181665
0.00358494
0.00510872
0.00639296
0.00747035
0.0083716
0.00912472
0.00975523
0.0102865
0.0107401
0.0111356
0.011489
0.0118114
0.0121081
0.0123799
0.0126239
0.0128358
0.0130107
0.0131447
0.0132354
0.0132825
0.0132889
0.000255345
0.0018361
0.00361748
0.00514663
0.00643083
0.00750405
0.00839822
0.00914279
0.0097648
0.0102889
0.0107374
0.0111302
0.011483
0.0118068
0.0121067
0.012383
0.0126322
0.0128491
0.0130282
0.0131651
0.0132574
0.0133049
0.0133104
0.00025414
0.0018477
0.00363431
0.00516429
0.00644647
0.00751515
0.00840286
0.00914013
0.00975537
0.0102744
0.0107201
0.0111124
0.0114668
0.0117938
0.0120985
0.0123808
0.012637
0.0128614
0.0130482
0.0131928
0.0132925
0.013347
0.0133589
0.000252648
0.0018529
0.00363842
0.00516543
0.00644367
0.00750709
0.00838831
0.00911865
0.00972776
0.0102425
0.0106865
0.0110792
0.0114359
0.0117668
0.0120765
0.0123649
0.0126282
0.0128607
0.0130564
0.0132104
0.0133197
0.0133839
0.0134048
0.000250948
0.00185294
0.00363226
0.00515319
0.00642576
0.00748298
0.00835717
0.00908021
0.00968282
0.010193
0.0106347
0.0110276
0.0113863
0.0117203
0.0120342
0.0123277
0.0125971
0.0128369
0.0130408
0.013204
0.0133231
0.0133969
0.0134268
0.000249117
0.00184895
0.00361812
0.0051305
0.00639593
0.00744599
0.00831229
0.00902705
0.00962199
0.0101262
0.0105642
0.0109557
0.0113148
0.0116505
0.0119669
0.0122638
0.0125375
0.0127828
0.0129936
0.0131647
0.0132923
0.0133749
0.013413
0.000247228
0.00184206
0.00359828
0.0051004
0.00635759
0.00739957
0.00825698
0.00896213
0.00954762
0.0100436
0.0104756
0.0108633
0.0112204
0.0115555
0.0118722
0.0121702
0.0124461
0.0126948
0.0129104
0.0130876
0.0132225
0.0133127
0.0133579
0.000245359
0.0018334
0.00357511
0.00506611
0.00631444
0.00734762
0.00819512
0.00888915
0.00946309
0.00994825
0.0103711
0.0107517
0.0111037
0.0114353
0.0117497
0.0120463
0.012322
0.0125718
0.0127902
0.0129717
0.0131121
0.0132087
0.0132605
0.0002436
0.0018242
0.00355118
0.00503117
0.00627057
0.00729451
0.00813112
0.00881248
0.00937265
0.00984405
0.0102542
0.0106241
0.0109675
0.0112922
0.0116012
0.0118938
0.0121668
0.0124154
0.0126342
0.0128181
0.0129625
0.0130643
0.0131218
0.000242069
0.00181569
0.0035292
0.00499943
0.00623051
0.00724499
0.00806979
0.0087369
0.00928107
0.00973583
0.0101299
0.0104851
0.0108159
0.01113
0.0114303
0.0117159
0.0119835
0.0122286
0.0124457
0.0126298
0.0127765
0.0128822
0.0129448
0.000240926
0.00180915
0.00351205
0.00497511
0.0061992
0.00720419
0.00801612
0.00866727
0.00919322
0.00962862
0.0100033
0.0103401
0.0106543
0.0109539
0.011242
0.0115174
0.011777
0.0120159
0.0122291
0.0124115
0.0125587
0.0126669
0.0127335
0.000240402
0.00180577
0.00350273
0.00496283
0.00618203
0.00717753
0.00797517
0.00860824
0.0091136
0.00952706
0.0098795
0.0101947
0.0104886
0.01077
0.0110422
0.0113042
0.0115527
0.0117831
0.0119901
0.0121687
0.0123145
0.0124236
0.0124933
0.000240811
0.0018066
0.0035045
0.00496778
0.00618499
0.00717074
0.00795189
0.00856398
0.00904592
0.00943486
0.00976257
0.0100535
0.0103242
0.0105842
0.0108372
0.0110826
0.0113173
0.0115365
0.011735
0.0119078
0.0120504
0.012159
0.0122304
0.000242574
0.00181269
0.00352112
0.00499607
0.00621487
0.00718989
0.00795105
0.00853803
0.00899287
0.00935445
0.00965522
0.00991988
0.0101654
0.0104016
0.0106328
0.0108589
0.0110771
0.0112827
0.0114706
0.0116357
0.0117735
0.01188
0.0119521
0.000246208
0.00182542
0.00355772
0.00505549
0.00627966
0.0072415
0.00797714
0.00853309
0.00895597
0.00928678
0.00955843
0.00979542
0.0100144
0.0102255
0.0104332
0.0106381
0.0108376
0.0110277
0.0112032
0.0113592
0.0114908
0.0115943
0.0116661
0.000252318
0.00184754
0.00362232
0.00515683
0.00638919
0.00733251
0.00803411
0.00855085
0.00893554
0.00923149
0.0094717
0.00967983
0.00987178
0.0100572
0.0102406
0.010423
0.0106026
0.0107756
0.0109375
0.0110832
0.0112081
0.0113082
0.0113797
0.000261598
0.00188459
0.00372844
0.00531584
0.00655577
0.00747002
0.00812485
0.00859168
0.00893063
0.00918707
0.00939331
0.00957147
0.00973599
0.00989558
0.0100546
0.0102141
0.0103729
0.0105279
0.0106751
0.0108101
0.0109283
0.0110258
0.0110983
0.00027492
0.00194726
0.00389934
0.00555622
0.00679465
0.00766043
0.00825023
0.00865397
0.00893892
0.00915112
0.00932094
0.00946803
0.00960475
0.00973848
0.00987294
0.0100092
0.0101465
0.0102825
0.0104142
0.0105378
0.0106498
0.0107465
0.0108237
0.000293589
0.0020562
0.0041768
0.00591391
0.00712333
0.00790722
0.00840741
0.00873343
0.0089566
0.00912066
0.00925214
0.00936717
0.00947554
0.00958295
0.00969231
0.00980456
0.00991919
0.0100347
0.0101489
0.0102597
0.0103651
0.0104634
0.0105515
0.000319991
0.00225681
0.00464261
0.00644305
0.00755762
0.00820643
0.00858744
0.0088223
0.0089784
0.00909241
0.00918474
0.00926709
0.00934629
0.00942628
0.00950907
0.00959537
0.00968493
0.0097769
0.00987027
0.00996447
0.0100603
0.0101606
0.0102687
0.000359365
0.00268009
0.00547948
0.00721885
0.00809874
0.008539
0.00877304
0.00890939
0.00899809
0.00906326
0.00911725
0.00916682
0.00921582
0.00926647
0.00931995
0.00937675
0.00943682
0.00949987
0.0095658
0.0096355
0.00971275
0.00980814
0.00994437
0.000425065
0.00396422
0.00715374
0.00830165
0.00870012
0.00886152
0.00893871
0.00898184
0.00900986
0.00903097
0.00904909
0.00906634
0.0090839
0.00910248
0.0091225
0.00914414
0.00916749
0.0091926
0.00921976
0.00925016
0.00928803
0.00934858
0.00949197
0.000544232
0.000521485
0.000581495
0.000688034
0.00152016
0.00124231
0.00120498
0.00133149
0.0031896
0.00286342
0.00281354
0.00304138
0.0052877
0.0051741
0.00526575
0.0055993
0.0076448
0.00774432
0.0079782
0.00836605
0.0100753
0.0103257
0.010658
0.0110738
0.0123614
0.0126675
0.0130232
0.0134218
0.014294
0.0145961
0.0149131
0.0152236
0.0155632
0.0158144
0.0160534
0.016274
0.01604
0.0162524
0.0164422
0.0166058
0.0160217
0.0162225
0.0163981
0.0165463
0.0159369
0.0162012
0.0164627
0.0166383
0.0159184
0.0161581
0.0162959
0.0163538
0.0154302
0.0155959
0.0157561
0.0158867
0.0149409
0.0150766
0.0152023
0.015313
0.0144615
0.0145596
0.0146534
0.0147412
0.0140415
0.0141044
0.0141636
0.0142181
0.0136998
0.013729
0.0137532
0.0137716
0.013453
0.0134547
0.0134505
0.0134393
0.0133095
0.0132935
0.0132708
0.0132405
0.0132621
0.0132381
0.0132068
0.0131675
0.0132839
0.013259
0.0132261
0.0131848
0.0133378
0.0133155
0.0132844
0.0132444
0.0133902
0.0133712
0.0133427
0.0133046
0.0134181
0.0134021
0.0133759
0.0133396
0.0134091
0.0133956
0.0133713
0.0133365
0.0133582
0.0133469
0.0133245
0.0132911
0.0132646
0.0132555
0.0132351
0.0132035
0.0131297
0.0131231
0.013105
0.0130755
0.0129565
0.0129525
0.012937
0.0129102
0.012749
0.0127477
0.0127351
0.0127113
0.0125122
0.0125135
0.0125039
0.0124834
0.0122523
0.012256
0.0122493
0.0122322
0.0119764
0.0119824
0.0119784
0.0119645
0.0116924
0.0117002
0.0116988
0.0116879
0.0114081
0.0114177
0.0114186
0.0114107
0.0111299
0.0111421
0.0111458
0.0111409
0.0108618
0.0108783
0.0108863
0.0108856
0.010603
0.010628
0.0106439
0.0106502
0.0103483
0.0103906
0.0104215
0.0104399
0.0100892
0.0101679
0.0102265
0.0102649
0.00983405
0.00998459
0.0100848
0.0101481
0.00120724
0.00205228
0.00293514
0.00409233
0.00541952
0.00684516
0.00825723
0.00954215
0.0105972
0.0113651
0.0118474
0.0120823
0.012106
0.011908
0.0113621
0.0103471
0.0090583
0.00693105
0.0011478
0.00202267
0.00349741
0.0048387
0.00613372
0.00746099
0.00881807
0.0101211
0.0112514
0.0121129
0.0126789
0.0129857
0.0130914
0.013036
0.0128023
0.0122517
0.0113493
0.0103767
0.00756994
0.00120186
0.00404298
0.00559042
0.00694819
0.00824904
0.0095401
0.0107949
0.0119198
0.0128078
0.013409
0.0137497
0.0138952
0.0139075
0.0138291
0.0136734
0.0134684
0.0126202
0.0112665
0.00793938
0.00120215
0.00663688
0.00788573
0.00914713
0.0103855
0.0115782
0.0126602
0.0135321
0.0141324
0.0144782
0.0146372
0.0146764
0.0146423
0.014591
0.0144458
0.0140036
0.0127915
0.0110513
0.00782149
0.00121332
0.00931056
0.0103784
0.0114615
0.01252
0.0134985
0.0143047
0.0148673
0.0151924
0.0153462
0.0153984
0.0153854
0.0153278
0.0151641
0.0147268
0.0138463
0.0123953
0.0105465
0.00743913
0.00125152
0.0119154
0.0128003
0.0136574
0.0144545
0.0151247
0.0155998
0.0158741
0.0160069
0.016065
0.0160827
0.0160438
0.0158746
0.0154365
0.0146783
0.0135084
0.0117841
0.00967038
0.00689756
0.00133422
0.0141087
0.0148077
0.0154281
0.0159328
0.0162839
0.0164816
0.0165815
0.0166467
0.0166999
0.0167
0.0165464
0.0161428
0.0154204
0.0143206
0.0128061
0.0108002
0.00847193
0.0060009
0.00131091
0.0157167
0.0162067
0.0165851
0.0168312
0.0169579
0.0170258
0.0171032
0.0172124
0.017278
0.0171384
0.0167603
0.0160782
0.0150193
0.0135645
0.0117072
0.00945488
0.00707895
0.00494044
0.00124462
0.0166052
0.016922
0.0171304
0.0172447
0.0173131
0.017414
0.0175794
0.0177337
0.0176559
0.0172934
0.0166233
0.0155981
0.0141965
0.0124056
0.0102945
0.00794215
0.00564855
0.00381921
0.00116602
0.0168443
0.0171052
0.0172961
0.0174507
0.0176057
0.0178021
0.0180091
0.0179992
0.0176862
0.0170387
0.0160417
0.0146794
0.0129808
0.0110273
0.00883181
0.00649912
0.004373
0.00285319
0.00108073
0.0167735
0.017137
0.0174515
0.0176431
0.0178528
0.0180444
0.0180786
0.0178364
0.0172602
0.0163218
0.015009
0.0134087
0.0116099
0.00963003
0.00748102
0.00528141
0.00337684
0.00212552
0.000986235
0.0168031
0.017107
0.0173805
0.0176147
0.0178196
0.0178721
0.0176951
0.0172198
0.0163946
0.0151806
0.0136929
0.0120332
0.0102529
0.00835826
0.00635833
0.00436475
0.00268198
0.00162091
0.00088137
0.0164725
0.0168114
0.0171448
0.0173424
0.0174095
0.0172909
0.0169158
0.0162261
0.0151724
0.0138364
0.0123217
0.0107129
0.00904561
0.00731519
0.00552262
0.00375547
0.00225679
0.00129936
0.000768096
0.0160736
0.0163787
0.0166347
0.0167409
0.0166739
0.0163937
0.0158363
0.0149718
0.013826
0.0124868
0.011047
0.00957207
0.00808006
0.00655349
0.0049808
0.00341973
0.00205265
0.0011228
0.000653633
0.0154961
0.0157506
0.0159215
0.015926
0.0157268
0.0152961
0.0146079
0.0136658
0.0125302
0.011278
0.00998424
0.00869251
0.00740154
0.00608019
0.00470443
0.00330626
0.00201871
0.00105858
0.000550094
0.0148885
0.0150568
0.015119
0.0150072
0.0146924
0.0141586
0.0134047
0.0124755
0.0114255
0.0103181
0.0092066
0.00811115
0.00701213
0.00586732
0.00464394
0.00335613
0.00210156
0.00107251
0.00046872
0.014305
0.0143691
0.0143215
0.0141113
0.0137149
0.0131266
0.0123833
0.0115285
0.010608
0.0096682
0.00873956
0.0078205
0.00687745
0.00586189
0.00473703
0.00350659
0.00224528
0.00112635
0.000412481
0.013797
0.0137663
0.01363
0.0133519
0.0129125
0.0123301
0.0116464
0.0108974
0.0101176
0.00933536
0.00856017
0.00777412
0.00693562
0.00599499
0.00491564
0.00369646
0.0023989
0.00118587
0.000375904
0.0134134
0.0133127
0.0131201
0.0128101
0.0123701
0.0118331
0.0112307
0.0105902
0.00993407
0.00927437
0.00860484
0.00789778
0.00710941
0.00619299
0.00511527
0.00387442
0.00252586
0.00123018
0.000351286
0.0131808
0.013041
0.0128255
0.0125114
0.0121034
0.0116271
0.0111043
0.0105535
0.0099861
0.00940223
0.0087862
0.00810654
0.00732172
0.00639061
0.00528533
0.00400634
0.00260807
0.0012528
0.000333127
0.0130909
0.0129365
0.0127209
0.012425
0.0120613
0.0116431
0.0111836
0.010693
0.0101749
0.0096222
0.00901543
0.00832381
0.00751068
0.00654191
0.00539613
0.00407807
0.00264386
0.00125673
0.00031861
0.0131032
0.0129492
0.0127432
0.0124764
0.0121546
0.0117822
0.0113645
0.0109055
0.0104038
0.00984927
0.00922243
0.00849586
0.007639
0.00662509
0.00543966
0.00409265
0.0026424
0.00124893
0.000306534
0.0131635
0.0130164
0.0128232
0.0125831
0.0122933
0.0119513
0.0115565
0.0111079
0.0106015
0.0100268
0.00936622
0.00859689
0.00769463
0.00663978
0.00542459
0.00406407
0.00261752
0.00123649
0.000296374
0.0132259
0.0130844
0.012904
0.0126824
0.0124127
0.0120875
0.0117019
0.0112516
0.0107309
0.01013
0.00943414
0.0086251
0.0076847
0.00659977
0.00536857
0.00401017
0.00258269
0.00122474
0.000287822
0.0132632
0.0131252
0.0129526
0.0127408
0.0124806
0.0121622
0.0117777
0.0113206
0.010784
0.010159
0.00943357
0.00859374
0.00762665
0.00652469
0.00529101
0.00394724
0.00254817
0.00121686
0.000280627
0.0132624
0.0131264
0.0129567
0.0127478
0.0124898
0.012172
0.0117848
0.0113202
0.0107707
0.0101277
0.00938165
0.00852204
0.00754039
0.00643357
0.00520833
0.0038873
0.00252028
0.00121418
0.00027456
0.0132195
0.0130846
0.0129152
0.0127054
0.0124459
0.0121259
0.0117355
0.0112655
0.0107078
0.0100545
0.00929725
0.00842854
0.00744316
0.00634128
0.00513196
0.0038375
0.00250195
0.00121687
0.000269424
0.0131346
0.0130015
0.0128317
0.0126201
0.0123583
0.0120363
0.011644
0.0111721
0.0106119
0.00995568
0.00919622
0.00832772
0.00734734
0.00625748
0.00506836
0.00380108
0.0024938
0.00122444
0.000265055
0.0130104
0.0128801
0.0127109
0.0124985
0.0122358
0.0119137
0.0115226
0.0110529
0.010496
0.00984381
0.00908978
0.00822912
0.00726041
0.00618725
0.00502019
0.00377862
0.00249523
0.00123623
0.000261327
0.0128497
0.0127237
0.012557
0.0123463
0.0120853
0.0117663
0.01138
0.0109171
0.0103689
0.00972698
0.00898486
0.00813815
0.00718599
0.00613242
0.00498767
0.00376927
0.00250512
0.00125156
0.000258144
0.0126561
0.0125361
0.0123742
0.0121679
0.011912
0.0115996
0.0112222
0.0107708
0.0102362
0.00961003
0.00888522
0.00805724
0.00712517
0.00609283
0.00496975
0.00377162
0.00252229
0.00126985
0.000255435
0.012434
0.0123216
0.0121668
0.0119678
0.0117203
0.0114182
0.0110537
0.0106179
0.0101016
0.00949576
0.00879267
0.00798716
0.00707768
0.00606741
0.0049649
0.00378414
0.00254566
0.00129061
0.000253146
0.012189
0.0120852
0.0119394
0.0117501
0.0115141
0.0112257
0.0108778
0.0104616
0.00996747
0.00938579
0.00870797
0.00792777
0.00704263
0.00605472
0.00497148
0.00380539
0.00257426
0.00131342
0.000251232
0.0119272
0.0118328
0.0116972
0.0115198
0.0112976
0.0110259
0.0106977
0.0103042
0.00983559
0.0092812
0.00863137
0.00787856
0.00701888
0.00605325
0.00498793
0.00383406
0.00260724
0.00133791
0.000249659
0.0116563
0.0115711
0.0114464
0.0112819
0.0110754
0.0108225
0.0105164
0.0101483
0.00970756
0.00918275
0.00856284
0.00783879
0.00700517
0.00606147
0.00501273
0.00386891
0.0026438
0.00136371
0.000248394
0.0113842
0.0113077
0.0111937
0.0110425
0.0108525
0.0106197
0.0103373
0.00999609
0.00958482
0.00909098
0.00850212
0.00780754
0.0070001
0.00607778
0.00504433
0.00390865
0.00268309
0.00139042
0.000247405
0.0111195
0.011051
0.0109467
0.0108083
0.0106348
0.0104222
0.0101639
0.00985014
0.00946885
0.0090064
0.00844883
0.00778372
0.00700213
0.00610042
0.00508103
0.0039519
0.00272414
0.00141753
0.000246662
0.0108702
0.0108092
0.0107137
0.0105869
0.0104287
0.0102356
0.0100006
0.0097135
0.00936148
0.00892968
0.00840265
0.0077662
0.00700958
0.00612744
0.00512092
0.00399699
0.00276573
0.00144439
0.000246131
0.0106439
0.0105914
0.0105039
0.010387
0.0102423
0.0100666
0.0098528
0.00959032
0.00926542
0.00886216
0.00836367
0.00775406
0.00702078
0.00615676
0.00516177
0.00404184
0.00280619
0.00147002
0.000245771
0.0104487
0.0104075
0.0103276
0.010219
0.0100853
0.00992393
0.00972798
0.00948639
0.00918481
0.00880632
0.00833279
0.00774682
0.00703413
0.00618604
0.0052009
0.00408373
0.00284302
0.00149265
0.00024553
0.0102967
0.0102693
0.010197
0.0100951
0.00996928
0.00981835
0.00963545
0.00940939
0.00912538
0.00876582
0.00831161
0.00774413
0.00704772
0.00621221
0.00523463
0.0041189
0.00287263
0.00150923
0.000245322
0.0102051
0.0101912
0.0101253
0.0100278
0.00990657
0.00976126
0.00958536
0.00936774
0.00909343
0.0087445
0.00830133
0.00774462
0.00705785
0.00622992
0.00525691
0.00414177
0.00289122
0.00151837
0.000244925
)
;

boundaryField
{
    leftWall
    {
        type            nutkWallFunction;
        Cmu             0.09;
        kappa           0.41;
        E               9.8;
        value           nonuniform List<scalar> 
50
(
4.81463e-06
1.36034e-05
1.52116e-05
1.6153e-05
1.67756e-05
1.72184e-05
1.75588e-05
1.78528e-05
1.85221e-05
2.25055e-05
2.32385e-05
2.3507e-05
2.35779e-05
2.36294e-05
2.37118e-05
2.38307e-05
2.40093e-05
2.43264e-05
2.4971e-05
2.45959e-05
2.63766e-05
2.75933e-05
2.82205e-05
2.81842e-05
2.80117e-05
2.7918e-05
2.78891e-05
2.78643e-05
2.78009e-05
2.76849e-05
2.7519e-05
2.73128e-05
2.70771e-05
2.68227e-05
2.65597e-05
2.62986e-05
2.60516e-05
2.58349e-05
2.56704e-05
2.559e-05
2.56377e-05
2.58726e-05
2.63679e-05
2.72084e-05
2.84889e-05
3.0324e-05
3.28796e-05
3.64552e-05
4.17067e-05
5.02843e-05
)
;
    }
    rightWall
    {
        type            nutkWallFunction;
        Cmu             0.09;
        kappa           0.41;
        E               9.8;
        value           nonuniform List<scalar> 
50
(
2.25126e-05
6.42909e-05
7.38047e-05
8.15479e-05
8.82523e-05
9.42386e-05
9.96248e-05
0.000104502
0.000112166
0.000115599
0.000116555
0.000119049
0.00012549
0.000155946
0.000149891
0.000140887
0.000130863
0.000119864
0.000107825
9.4948e-05
8.18514e-05
6.95659e-05
5.92046e-05
5.14039e-05
4.60039e-05
4.23154e-05
3.96393e-05
3.75302e-05
3.57743e-05
3.42816e-05
3.30097e-05
3.19283e-05
3.10098e-05
3.02282e-05
2.95605e-05
2.89879e-05
2.84958e-05
2.80731e-05
2.77115e-05
2.74048e-05
2.71477e-05
2.69358e-05
2.67651e-05
2.66317e-05
2.65313e-05
2.64597e-05
2.64113e-05
2.63792e-05
2.63516e-05
2.62982e-05
)
;
    }
    lowerWall
    {
        type            nutkWallFunction;
        Cmu             0.09;
        kappa           0.41;
        E               9.8;
        value           nonuniform List<scalar> 
62
(
4.81463e-06
6.94194e-06
8.19782e-06
9.0466e-06
9.71323e-06
1.02714e-05
1.07584e-05
1.11941e-05
1.15892e-05
1.19493e-05
1.22773e-05
1.2573e-05
1.28298e-05
1.30368e-05
1.31928e-05
1.33113e-05
1.34011e-05
1.34326e-05
1.33339e-05
1.31293e-05
1.2787e-05
1.2063e-05
1.01941e-05
1.01941e-05
2.62177e-05
2.99083e-05
3.26964e-05
3.4911e-05
3.67474e-05
3.84556e-05
4.07521e-05
4.72739e-05
4.67852e-05
5.94028e-05
6.87433e-05
2.48365e-05
6.80023e-05
8.79317e-05
9.31289e-05
9.44576e-05
9.16198e-05
8.83801e-05
8.64276e-05
2.48365e-05
2.76764e-05
2.94519e-05
3.10834e-05
3.29573e-05
3.34827e-05
3.17396e-05
3.01161e-05
2.95393e-05
2.94182e-05
2.95044e-05
2.9639e-05
2.9695e-05
2.95441e-05
2.90885e-05
2.85162e-05
2.77523e-05
2.61449e-05
2.25126e-05
)
;
    }
    atmosphere
    {
        type            calculated;
        value           nonuniform List<scalar> 
46
(
0.009
0.009
0.009
0.009
0.009
0.009
0.009
0.009
0.009
0.009
0.009
0.009
0.009
0.009
0.009
0.009
0.009
0.009
0.009
0.009
0.009
0.009
0.009
0.00983405
0.00998459
0.0100848
0.0101481
0.0102051
0.0101912
0.0101253
0.0100278
0.00990657
0.00976126
0.00958536
0.00936774
0.00909343
0.0087445
0.00830133
0.00774462
0.00705785
0.00622992
0.00525691
0.00414177
0.00289122
0.00151837
0.000244925
)
;
    }
    defaultFaces
    {
        type            empty;
    }
}


// ************************************************************************* //
