/*--------------------------------*- C++ -*----------------------------------*\
  =========                 |
  \\      /  F ield         | OpenFOAM: The Open Source CFD Toolbox
   \\    /   O peration     | Website:  https://openfoam.org
    \\  /    A nd           | Version:  13
     \\/     M anipulation  |
\*---------------------------------------------------------------------------*/
FoamFile
{
    format      ascii;
    class       volScalarField;
    location    "0.25";
    object      p;
}
// * * * * * * * * * * * * * * * * * * * * * * * * * * * * * * * * * * * * * //

dimensions      [1 -1 -2 0 0 0 0];

internalField   nonuniform List<scalar> 
2268
(
8707.83
8758.12
8817
8867.62
8889.31
8876.43
8826.75
8740.26
8618.85
8465.57
8284.51
8080.99
7862.09
7638.76
7432.06
7278.67
7230.71
7358.54
7737.03
8495.23
9783.05
11524
13746.9
7903.9
7939.64
7976.68
8008.21
8014.63
7989.2
7928.88
7833.07
7703.49
7543.17
7356.18
7148.23
6927.54
6706.66
6507.17
6363.76
6325.14
6466.23
6873.6
7672.59
9035.73
10852.5
13166.8
7097.49
7131.35
7148.8
7158.23
7144.42
7101.16
7025.18
6915.6
6774.24
6604.11
6409.31
6195.96
5973.28
5754.57
5561.4
5427.12
5397.04
5553.67
5975.37
6782.47
8144.59
9933.25
12295.4
6287.26
6327.89
6332.03
6322.58
6289.53
6228.08
6135.3
6010.31
5855.42
5673.69
5469.22
5248.65
5021.83
4801.05
4607.07
4473.44
4443.18
4613.17
5035.95
5804.07
7068.44
8755.13
11174.3
5472.84
5523.36
5519.49
5496.24
5447.41
5369.85
5261.24
5120.79
4951.72
4757.06
4540.91
4310.87
4077.39
3850.02
3647.96
3505.33
3459.48
3640.45
4054.57
4743.93
5820.36
7352.91
9820.12
4653.44
4713.81
4704.23
4670.71
4609
4517.27
4393.73
4237.45
4053.51
3844.95
3616.23
3377.13
3139.98
2911.01
2706.57
2556.07
2484.2
2640.85
3001.24
3554.28
4402.8
5771.25
8227.33
3822.58
3892.51
3878.66
3837.76
3766.28
3663.07
3526.78
3356.23
3160.97
2945.27
2715.54
2485.33
2270.83
2080.23
1936.77
1872.01
1881.7
1974.68
2191.64
2455.71
2883.07
4073.58
6401.39
2969.67
3053.06
3043.02
3002.08
2929.84
2825.4
2688.7
2519.12
2335.91
2148.84
1969.73
1814.63
1693.97
1616.93
1597.69
1626.94
1698.46
1768.07
1878.05
1967.72
1979.28
2527.45
4296.57
-125.757
-194.974
-198.126
-152.976
98.2837
484.469
702.888
826.784
907.452
939.28
951.608
958.967
973.254
1010.83
1093.04
1247.69
1493.95
1798.28
2206.01
-213.885
-226.507
-226.439
-211.19
8.02796
375.255
602.768
742.298
828.725
867.438
884.756
896.074
914.514
957.746
1048.73
1212.74
1474.31
1794.2
2227.55
-224.367
-227.881
-228.215
-223.093
-61.3608
302.807
526.418
666.056
752.985
795.567
816.134
830.157
851.552
898.025
992.309
1159.59
1429
1754.1
2217.85
-226.738
-228.036
-228.072
-223.09
-111.368
262.358
467.405
598.799
683.143
727.087
749.036
763.857
785.573
831.417
923.435
1085.88
1350.27
1670.02
2173.47
-227.204
-228.193
-228.723
-221.326
-124.03
224.922
412.759
536.051
617.103
661.099
683.261
697.384
716.986
758.362
842.498
992.231
1238.95
1541.31
2086.62
-227.537
-228.451
-227.334
-221.942
-96.0908
185.384
359.101
475.889
553.386
596.531
617.932
630.013
645.35
678.954
750.48
881.38
1098.9
1367.23
1944.09
-227.88
-228.133
-224.02
-217.246
-80.7507
147.276
307.471
417.913
491.416
532.835
552.48
561.245
570.481
593.669
648.463
754.062
929.283
1145.15
1733.76
-228.106
-228.701
-236.29
-215.001
-79.3727
111.073
257.267
360.496
429.254
468.034
485.05
489.611
491.585
502.326
534.077
595.971
705.326
870.672
1451.06
1901.78
1968.06
1964.57
1941.04
1899.27
1840.74
1771.08
1703.67
1639.24
1580.87
1531.98
1496.22
1474.46
1472.78
1495.54
1524.82
1556.74
1593.01
1644.37
1719.85
1651.71
1325.96
227.922
1232.44
1258.89
1261.55
1264.23
1262.1
1255.99
1250.66
1256.07
1268.96
1284.62
1300.77
1315.63
1328.38
1337.31
1340.04
1348.09
1364.59
1385.45
1408.25
1441.38
1410.53
1195.74
926.744
1097.24
1108.04
1114.33
1123.34
1132.92
1143.01
1153.11
1159.73
1165.47
1169.86
1172.16
1172.07
1170.04
1167.25
1164.95
1164.88
1167.65
1170.87
1170.57
1160.47
1134.66
1071.82
896.45
960.382
967.783
974.767
982.291
989.38
995.642
1000.8
1004.87
1008.1
1010.23
1010.72
1009.12
1005.27
999.407
991.857
983.018
973.175
961.282
942.052
906.491
880.558
851.496
755.591
822.988
829.012
834.728
840.384
845.378
849.52
852.663
854.787
855.916
855.853
854.189
850.423
843.991
834.326
821.025
804.433
785.102
761.191
729.605
702.817
696.917
683.25
618.887
684.482
690.119
694.883
699.165
702.493
704.81
706.037
706.112
705.009
702.621
698.678
692.752
684.044
671.37
653.686
631.27
604.652
575.578
557.068
556.221
563.487
554.485
510.907
544.998
550.424
554.255
557.298
559.022
559.453
558.585
556.442
553.09
548.57
542.826
535.702
526.295
512.614
492.356
465.351
439.066
426.385
429.074
437.805
442.085
431.928
399.249
404.597
410.024
412.733
414.537
414.63
413.112
410.05
405.592
399.991
393.523
386.548
379.688
372.162
360.423
339.858
316.769
308.116
312.821
320.948
326.349
325.181
313.014
285.629
262.287
268.698
269.691
270.052
268.367
264.784
259.421
252.566
244.686
236.267
228.212
223.267
221.502
216.536
204.077
198.554
204.286
211.734
216.714
217.496
212.053
197.866
172.84
121.374
130.255
129.242
128.518
125.697
120.886
114.18
106.131
97.5088
88.7404
80.6038
78.0268
82.6129
86.6166
90.8301
100.251
107.796
112.447
113.112
109.391
100.14
83.9414
60.0737
31.0042
35.0549
33.7892
33.4614
32.1191
29.8881
26.7168
23.0252
19.308
15.6979
12.2788
11.2491
13.3151
15.9782
21.3594
26.8723
29.7881
29.1883
25.5989
19.3118
10.1072
-1.43935
-13.1121
3.42685
4.45125
3.73148
3.67043
3.67433
3.69231
3.72539
3.75542
3.79523
3.83966
3.92125
4.04923
4.1889
4.27725
4.21802
5.14374
5.52707
4.21586
1.8614
-0.824455
-3.40512
-5.04226
-4.3446
3.69998
3.87582
3.81795
3.82698
3.84061
3.85147
3.85873
3.86164
3.86121
3.85838
3.85682
3.86065
3.86746
3.8338
3.7565
3.53989
3.27749
3.05718
2.85762
2.66497
2.44453
2.16699
2.05755
3.61254
3.67857
3.66055
3.66259
3.66471
3.66833
3.67213
3.67519
3.67753
3.67951
3.68138
3.68085
3.67517
3.67392
3.67354
3.6766
3.66564
3.64881
3.62293
3.58423
3.525
3.43301
3.32149
3.50732
3.53141
3.52356
3.52177
3.51866
3.51778
3.51831
3.51931
3.52025
3.52073
3.5203
3.51669
3.50712
3.49074
3.46655
3.43683
3.39432
3.3411
3.27999
3.21
3.12926
3.0388
2.94043
3.38979
3.39637
3.39153
3.3896
3.38577
3.38322
3.38166
3.38034
3.37855
3.37558
3.37059
3.36195
3.34736
3.32481
3.29365
3.25368
3.20474
3.14853
3.08583
3.01637
2.93988
2.85866
2.77956
3.26473
3.26398
3.26134
3.25843
3.25448
3.25086
3.24749
3.24392
3.23952
3.23354
3.22511
3.21296
3.19556
3.17165
3.14036
3.10158
3.05578
3.00375
2.94596
2.8826
2.81403
2.74171
2.66962
3.13687
3.13334
3.13016
3.12645
3.12209
3.11756
3.11281
3.10747
3.10105
3.09288
3.08217
3.06789
3.04899
3.02461
2.99408
2.9572
2.91418
2.86555
2.81185
2.75362
2.69156
2.62688
2.56193
3.00818
3.00321
2.999
2.99446
2.98954
2.98426
2.97847
2.97188
2.96404
2.95438
2.9422
2.92671
2.9071
2.8827
2.85303
2.8179
2.77747
2.73217
2.68258
2.62938
2.57337
2.5158
2.45908
2.87924
2.87343
2.86829
2.86302
2.85755
2.85166
2.84515
2.83771
2.82895
2.81837
2.8054
2.7894
2.76975
2.74592
2.71755
2.68452
2.647
2.60539
2.56028
2.51237
2.46245
2.41172
2.36286
2.75022
2.74394
2.7381
2.73225
2.72633
2.72001
2.71303
2.7051
2.69585
2.68486
2.67166
2.65572
2.63658
2.61383
2.5872
2.55666
2.52236
2.48469
2.44424
2.40167
2.35772
2.31348
2.27178
2.6212
2.61468
2.60838
2.60213
2.59591
2.58933
2.58212
2.57399
2.56462
2.55364
2.54066
2.52526
2.50707
2.48579
2.46125
2.43343
2.40251
2.36888
2.33306
2.29569
2.2574
2.21919
2.18385
2.49216
2.48559
2.47904
2.47258
2.4662
2.45954
2.45231
2.44425
2.43506
2.42443
2.41202
2.39751
2.38061
2.36109
2.33883
2.31386
2.28638
2.25673
2.22538
2.19293
2.15989
2.12715
2.09732
2.36308
2.35661
2.35
2.34348
2.33711
2.33053
2.32346
2.31567
2.3069
2.29687
2.2853
2.27194
2.25654
2.23895
2.21909
2.19701
2.17289
2.14706
2.11993
2.09201
2.06374
2.03587
2.01078
2.23395
2.22767
2.22115
2.21473
2.2085
2.20213
2.19538
2.18804
2.17986
2.17061
2.16007
2.14801
2.13425
2.11866
2.10121
2.08196
2.06107
2.03881
2.01557
1.99176
1.96774
1.94415
1.92309
2.10473
2.09873
2.09241
2.08621
2.08023
2.0742
2.06789
2.0611
2.05365
2.04531
2.0359
2.02522
2.01315
1.99957
1.98448
1.96792
1.95004
1.93109
1.91137
1.89123
1.87097
1.85111
1.83346
1.97541
1.96974
1.96372
1.95782
1.95219
1.94658
1.94079
1.93466
1.92801
1.92065
1.91242
1.90316
1.89275
1.88113
1.86827
1.85423
1.83913
1.82317
1.8066
1.78972
1.77275
1.75612
1.74137
1.84597
1.84067
1.83501
1.82949
1.82427
1.81914
1.81394
1.80852
1.80271
1.79636
1.78932
1.78145
1.77266
1.76288
1.7521
1.74038
1.72779
1.71452
1.70075
1.68673
1.67262
1.65878
1.6465
1.7164
1.7115
1.70624
1.70114
1.69638
1.69178
1.6872
1.68251
1.67756
1.67222
1.66634
1.65981
1.65254
1.64448
1.63562
1.62599
1.61566
1.60477
1.59347
1.58194
1.57032
1.55887
1.54869
1.5867
1.5822
1.57737
1.57271
1.56844
1.56439
1.56046
1.55651
1.55242
1.54805
1.54328
1.53801
1.53216
1.52567
1.51855
1.5108
1.50248
1.49369
1.48454
1.47518
1.46571
1.45633
1.44793
1.45686
1.45277
1.44837
1.44417
1.4404
1.43692
1.43362
1.43041
1.42714
1.42371
1.41999
1.41589
1.41134
1.40629
1.40072
1.39465
1.3881
1.38115
1.37388
1.3664
1.35878
1.35118
1.34431
1.32687
1.32317
1.31922
1.31548
1.31221
1.30929
1.30664
1.30413
1.30166
1.2991
1.29636
1.29333
1.28997
1.28621
1.28203
1.27744
1.27245
1.26711
1.26148
1.25563
1.24961
1.24353
1.23797
1.19676
1.1934
1.18989
1.1866
1.18383
1.18148
1.17945
1.17762
1.17589
1.17415
1.1723
1.17025
1.16795
1.16535
1.16241
1.15913
1.15551
1.15158
1.14738
1.14294
1.13831
1.13355
1.12912
1.06652
1.06342
1.06036
1.0575
1.05523
1.05343
1.052
1.05082
1.04979
1.04879
1.04775
1.04659
1.04525
1.04368
1.04185
1.03973
1.03732
1.03462
1.03166
1.02846
1.02503
1.02143
1.01798
0.936173
0.933197
0.9306
0.928162
0.92638
0.925125
0.924271
0.923697
0.923297
0.922981
0.922672
0.922305
0.921824
0.921178
0.920327
0.919241
0.917899
0.916293
0.914429
0.912318
0.909961
0.907374
0.9048
0.805762
0.802657
0.800577
0.798546
0.797255
0.796529
0.796218
0.796199
0.796375
0.796669
0.797017
0.79736
0.797648
0.797829
0.797859
0.797698
0.797312
0.796682
0.795798
0.794661
0.793264
0.791613
0.789849
0.675472
0.671689
0.670249
0.668618
0.667826
0.667614
0.667805
0.668286
0.668976
0.669813
0.670747
0.671727
0.672706
0.673632
0.674456
0.675128
0.675607
0.675859
0.675866
0.67562
0.675119
0.674364
0.67341
0.545434
0.540156
0.539596
0.538352
0.538064
0.538341
0.538986
0.539905
0.541046
0.542365
0.543823
0.545377
0.54698
0.54858
0.550122
0.551551
0.552817
0.553879
0.55471
0.555304
0.555669
0.555845
0.555802
0.415296
0.408006
0.408711
0.407782
0.407958
0.408673
0.409704
0.410998
0.412531
0.414279
0.41621
0.418283
0.420452
0.422662
0.424854
0.426969
0.42895
0.430754
0.43235
0.433734
0.434951
0.436145
0.437332
0.284286
0.274119
0.277371
0.276921
0.277499
0.278561
0.279906
0.281516
0.283396
0.285529
0.287887
0.29043
0.293108
0.295864
0.298636
0.301358
0.303971
0.306427
0.308695
0.310773
0.312791
0.3153
0.318632
0.155821
0.131836
0.14343
0.145145
0.146407
0.147832
0.149482
0.151395
0.153598
0.156087
0.158835
0.1618
0.16493
0.168163
0.171433
0.174669
0.177808
0.180798
0.183615
0.186283
0.189188
0.194106
0.2028
0.0488595
-0.0276573
0.00461879
0.0109818
0.0137905
0.015924
0.0180285
0.020319
0.0228866
0.0257497
0.0288893
0.0322653
0.0358234
0.0394994
0.0432224
0.04692
0.0505273
0.0540092
0.057407
0.0609311
0.0654237
0.0747261
0.0986001
-2961.63
-766.568
-430.126
-282.041
204.826
-386.458
-734.839
-512.391
564.382
176.466
-198.492
-375.35
591.077
486.624
371.402
188.32
501.536
413.578
331.054
255.83
431.128
369.693
316.239
262.222
340.609
295.288
254.581
211.872
240.851
206.477
175.146
142.364
137.12
109.567
84.6321
59.4543
28.7406
6.08026
-11.6105
-23.1989
-26.1531
-31.1294
-29.5062
-22.5383
-2.04046
-0.965998
-0.831947
-0.0876875
2.79085
3.35792
3.53522
3.44835
3.24666
3.12952
2.96214
2.87118
2.84448
2.79587
2.75294
2.71709
2.7291
2.69722
2.66249
2.62614
2.61972
2.58747
2.55462
2.52198
2.51491
2.48543
2.45627
2.4268
2.41826
2.39269
2.36749
2.34128
2.32827
2.3065
2.285
2.26212
2.24281
2.22445
2.20628
2.1866
2.15976
2.14438
2.12911
2.11237
2.07737
2.06451
2.05172
2.03759
1.99425
1.98352
1.9728
1.96094
1.9094
1.90044
1.89146
1.88153
1.82212
1.81465
1.80713
1.79883
1.73198
1.72574
1.71945
1.71253
1.63873
1.63354
1.62828
1.62252
1.54229
1.53797
1.53359
1.52879
1.44267
1.4391
1.43545
1.43146
1.34
1.33705
1.33403
1.33071
1.23446
1.23203
1.22951
1.22676
1.12629
1.12431
1.12223
1.11995
1.01574
1.01414
1.01243
1.01053
0.903059
0.901782
0.900399
0.898812
0.788542
0.787542
0.786429
0.785103
0.672491
0.671723
0.67082
0.669681
0.555247
0.554662
0.553894
0.55286
0.437205
0.436727
0.435974
0.4349
0.31894
0.318383
0.317356
0.316041
0.201044
0.19919
0.19756
0.196563
0.105927
0.0988778
0.0915911
0.0858102
-231.892
-247.045
-274.646
-211.162
-87.1214
60.3139
185.295
276.863
337.404
370.453
381.475
377.233
364.412
349.081
328.319
272.889
256.778
407.734
977.096
-305.401
-395.82
-333.184
-217.965
-100.742
15.4491
115.167
188.817
235.56
257.067
255.64
233.363
189.226
122.553
66.3824
37.828
26.7962
40.8284
454.931
-467.045
-392.992
-305.343
-194.723
-97.7362
-10.0132
64.0169
118.152
150.136
159.087
142.306
98.8863
44.5415
15.7391
9.04273
8.18055
6.89264
2.51447
55.1392
-9.2993
-173.677
-181.954
-129.652
-73.3298
-18.7766
29.2662
64.8493
83.5822
78.8754
48.3995
18.55
4.78258
3.83763
3.45455
3.28375
3.11297
2.73802
48.4642
152.241
-4.02694
-69.2312
-69.6956
-49.323
-22.1522
5.60922
28.1249
35.9845
23.052
6.7484
3.09605
2.72955
2.64768
2.99086
3.03638
3.29074
3.35348
14.8961
165.108
51.8374
-13.9334
-36.4498
-36.8642
-26.3873
-8.60217
8.48105
10.3162
2.66577
2.64414
2.3134
2.40068
2.46931
2.62018
2.61139
2.98596
1.43013
6.67344
137.841
56.4769
-0.660576
-28.2842
-35.3234
-27.5332
-7.53209
4.18881
2.32574
2.3026
2.1593
2.15768
2.19113
2.18037
2.17412
2.05491
2.37677
1.13411
3.55948
86.9002
24.1002
-19.9806
-35.6204
-29.9623
-10.4525
1.85258
2.26818
2.33602
2.22759
2.11481
2.05828
2.00398
1.93394
1.88243
1.68417
2.10652
1.01455
2.51662
18.4421
-26.3393
-41.0742
-21.2257
-0.815902
2.6209
2.3902
2.44172
2.29324
2.16317
2.05811
1.96447
1.87479
1.79268
1.72215
1.6257
1.78428
1.21966
2.04113
-30.8975
-31.0147
-12.5874
-0.621739
1.51501
2.60534
2.5746
2.3789
2.22284
2.10861
2.00664
1.91296
1.82878
1.76387
1.7153
1.67325
1.75772
1.50058
2.05499
-8.71305
-1.20639
1.03035
2.50962
2.67338
2.48937
2.39007
2.27253
2.16649
2.07118
1.98334
1.90601
1.84924
1.81287
1.79699
1.80385
1.89241
1.80761
2.17597
2.16771
2.87651
2.98097
2.75766
2.54739
2.37975
2.29592
2.21474
2.13246
2.05494
1.98673
1.93708
1.9084
1.90333
1.92425
1.97633
2.08864
2.1257
2.36775
3.28007
3.04859
2.7575
2.54466
2.41518
2.31902
2.24684
2.17871
2.11202
2.05421
2.01131
1.98713
1.98539
2.01004
2.06378
2.15039
2.28402
2.39446
2.55354
2.83649
2.71353
2.55976
2.44375
2.35149
2.27399
2.20983
2.15131
2.10271
2.06602
2.04509
2.04354
2.06528
2.11376
2.19079
2.29739
2.43829
2.57564
2.68161
2.6628
2.57119
2.47054
2.37937
2.29996
2.23277
2.1777
2.13379
2.10161
2.08301
2.08062
2.09767
2.13723
2.20145
2.29061
2.40288
2.53626
2.66723
2.7382
2.56336
2.4784
2.39463
2.31712
2.25004
2.19547
2.15278
2.12211
2.10422
2.10032
2.1125
2.14311
2.19401
2.26585
2.3573
2.46425
2.58037
2.6886
2.73472
2.4678
2.39309
2.322
2.2592
2.20564
2.163
2.13184
2.11289
2.10658
2.11391
2.13639
2.1754
2.23159
2.30429
2.39087
2.48582
2.58085
2.66268
2.69057
2.37903
2.31611
2.25784
2.2071
2.16528
2.13317
2.1122
2.10271
2.10514
2.12029
2.14902
2.19185
2.24844
2.31719
2.39465
2.47479
2.54907
2.60754
2.62235
2.29926
2.24708
2.19997
2.15929
2.12664
2.10363
2.09078
2.08839
2.09689
2.11675
2.1483
2.19136
2.24495
2.30687
2.37336
2.43852
2.49465
2.5348
2.54081
2.2257
2.18267
2.14432
2.11225
2.08752
2.0716
2.0648
2.06736
2.07957
2.10161
2.13336
2.17421
2.22274
2.27654
2.33187
2.38339
2.42467
2.45135
2.45173
2.15538
2.11999
2.08885
2.06353
2.04525
2.0347
2.03217
2.03788
2.05192
2.07424
2.10443
2.14159
2.18412
2.22959
2.27454
2.31435
2.344
2.36105
2.35807
2.08577
2.05653
2.03147
2.01161
1.99813
1.99142
1.99171
1.99912
2.0136
2.03491
2.06247
2.09523
2.13157
2.16915
2.20493
2.2351
2.25585
2.26617
2.2612
2.01509
1.99084
1.97055
1.95504
1.9451
1.94103
1.943
1.95103
1.96498
1.98449
2.00887
2.03703
2.0674
2.09788
2.12584
2.14825
2.16233
2.16792
2.16189
1.94196
1.92189
1.90538
1.89315
1.88574
1.88337
1.88615
1.89405
1.90684
1.92409
1.94509
1.96877
1.99366
2.01792
2.03937
2.05565
2.06476
2.06708
2.0605
1.86556
1.8489
1.83542
1.82564
1.81998
1.81862
1.8216
1.82884
1.84009
1.8549
1.87254
1.89202
1.91202
1.93097
1.94711
1.95861
1.96405
1.96409
1.95731
1.78542
1.77154
1.76043
1.75247
1.74799
1.74711
1.74987
1.75614
1.76567
1.77801
1.79247
1.80814
1.82389
1.8384
1.85025
1.85805
1.8608
1.85927
1.85247
1.70132
1.68968
1.68041
1.67378
1.67003
1.66929
1.67155
1.67668
1.68445
1.69441
1.70595
1.71827
1.7304
1.74124
1.74967
1.75464
1.75543
1.75283
1.74614
1.61315
1.60334
1.59548
1.58979
1.58648
1.58563
1.58723
1.59118
1.59723
1.605
1.61395
1.62337
1.63246
1.64032
1.64606
1.64889
1.64826
1.64495
1.63844
1.52094
1.51261
1.50584
1.50082
1.49773
1.49663
1.49753
1.50031
1.50478
1.51059
1.51728
1.52425
1.53083
1.5363
1.53995
1.54116
1.53954
1.53576
1.5295
1.42485
1.41772
1.41179
1.40724
1.40423
1.40282
1.40301
1.40471
1.40776
1.41187
1.41664
1.42158
1.42613
1.4297
1.43174
1.43176
1.42945
1.42542
1.41943
1.32514
1.31896
1.31369
1.30948
1.30646
1.30471
1.30423
1.30497
1.30679
1.30946
1.31264
1.31592
1.31886
1.32095
1.32177
1.32093
1.31817
1.31402
1.30835
1.22208
1.21667
1.21191
1.20793
1.20487
1.20279
1.20173
1.20165
1.20243
1.20391
1.20579
1.20776
1.20942
1.2104
1.21032
1.20887
1.20585
1.20171
1.19637
1.11597
1.11119
1.10683
1.10303
1.0999
1.09754
1.09599
1.09522
1.09517
1.09568
1.09655
1.09748
1.09818
1.09832
1.09761
1.09577
1.09264
1.08859
1.08361
1.00713
1.00287
0.998835
0.995162
0.991986
0.989396
0.987447
0.986143
0.985432
0.985202
0.985279
0.98544
0.985428
0.984976
0.983837
0.981791
0.978668
0.974794
0.97017
0.895889
0.892047
0.888271
0.884709
0.8815
0.878745
0.876505
0.8748
0.873599
0.872817
0.872317
0.871918
0.871409
0.870568
0.869185
0.867069
0.864061
0.860418
0.856174
0.78255
0.779037
0.775468
0.772005
0.768795
0.765941
0.763512
0.761537
0.759998
0.758835
0.757939
0.757166
0.756342
0.755281
0.753804
0.751741
0.748935
0.745583
0.741725
0.6674
0.66413
0.660721
0.657354
0.654179
0.651298
0.648779
0.646654
0.644916
0.643521
0.642386
0.641395
0.640409
0.639272
0.63783
0.635928
0.633407
0.630396
0.626938
0.550694
0.547565
0.544278
0.541016
0.537923
0.535093
0.532584
0.530425
0.528614
0.527119
0.525878
0.524803
0.523783
0.522692
0.521395
0.519751
0.517591
0.514977
0.511931
0.432627
0.42953
0.426341
0.423214
0.420269
0.417578
0.415182
0.413101
0.411333
0.409857
0.408628
0.407583
0.406637
0.405692
0.404637
0.403337
0.401616
0.399455
0.396843
0.313659
0.310505
0.307311
0.304275
0.301479
0.298956
0.296722
0.294784
0.293135
0.29176
0.290631
0.289708
0.288934
0.28824
0.287536
0.286706
0.285554
0.283961
0.281846
0.195437
0.191834
0.188132
0.184815
0.181892
0.179332
0.177112
0.175212
0.173617
0.172317
0.171298
0.170543
0.170027
0.169709
0.169532
0.169403
0.169126
0.168442
0.167132
0.0775786
0.0715075
0.0674124
0.0641725
0.0614914
0.0592298
0.0573031
0.0556702
0.0543132
0.0532266
0.0524112
0.0518694
0.0516017
0.0516011
0.0518483
0.0522975
0.0528193
0.0531438
0.0528478
)
;

boundaryField
{
    leftWall
    {
        type            calculated;
        value           nonuniform List<scalar> 
50
(
8707.83
7903.9
7097.49
6287.26
5472.84
4653.44
3822.58
2969.67
1901.78
1232.44
1097.24
960.382
822.988
684.482
544.998
404.597
262.287
121.374
31.0042
3.42685
3.69998
3.61254
3.50732
3.38979
3.26473
3.13687
3.00818
2.87924
2.75022
2.6212
2.49216
2.36308
2.23395
2.10473
1.97541
1.84597
1.7164
1.5867
1.45686
1.32687
1.19676
1.06652
0.936173
0.805762
0.675472
0.545434
0.415296
0.284286
0.155821
0.0488595
)
;
    }
    rightWall
    {
        type            calculated;
        value           nonuniform List<scalar> 
50
(
2206.01
2227.55
2217.85
2173.47
2086.62
1944.09
1733.76
1451.06
977.096
454.931
55.1392
48.4642
14.8961
6.67344
3.55948
2.51662
2.04113
2.05499
2.17597
2.36775
2.55354
2.68161
2.7382
2.73472
2.69057
2.62235
2.54081
2.45173
2.35807
2.2612
2.16189
2.0605
1.95731
1.85247
1.74614
1.63844
1.5295
1.41943
1.30835
1.19637
1.08361
0.97017
0.856174
0.741725
0.626938
0.511931
0.396843
0.281846
0.167132
0.0528478
)
;
    }
    lowerWall
    {
        type            calculated;
        value           nonuniform List<scalar> 
62
(
9105.98
9156.27
9215.15
9265.77
9287.46
9274.58
9224.9
9138.41
9017
8863.72
8682.66
8479.14
8260.24
8036.91
7830.21
7676.82
7628.86
7756.69
8135.18
8893.38
10181.2
11922.2
14143.6
13746.9
13166.8
12295.4
11174.3
9820.12
8227.33
6401.39
4296.57
-2134.41
-470.333
-407.93
-271.63
-125.757
-213.885
-224.367
-226.738
-227.204
-227.537
-227.88
-228.106
-116.95
-182.383
-185.395
-139.585
112.641
499.14
717.603
841.447
922.03
953.777
966.085
973.453
987.615
1024.3
1105.81
1260.46
1506.72
1811.58
2220.51
)
;
    }
    atmosphere
    {
        type            calculated;
        value           nonuniform List<scalar> 
46
(
-0.0282712
-0.0621908
-0.056726
-0.0545371
-0.0525539
-0.0505677
-0.0483976
-0.0459517
-0.0431919
-0.0401176
-0.0367538
-0.0331438
-0.0293447
-0.0254247
-0.02146
-0.0175343
-0.0137373
-0.0101657
-0.00692672
-0.00414602
-0.00197732
-0.000591929
-5.44483e-05
0
0
0
0
0
0
0
0
0
0
0
0
0
0
0
0
0
0
0
0
0
0
0
)
;
    }
    defaultFaces
    {
        type            empty;
    }
}


// ************************************************************************* //
