/*--------------------------------*- C++ -*----------------------------------*\
  =========                 |
  \\      /  F ield         | OpenFOAM: The Open Source CFD Toolbox
   \\    /   O peration     | Website:  https://openfoam.org
    \\  /    A nd           | Version:  13
     \\/     M anipulation  |
\*---------------------------------------------------------------------------*/
FoamFile
{
    format      ascii;
    class       volScalarField;
    location    "0.25";
    object      p_rgh;
}
// * * * * * * * * * * * * * * * * * * * * * * * * * * * * * * * * * * * * * //

dimensions      [1 -1 -2 0 0 0 0];

internalField   nonuniform List<scalar> 
2268
(
9105.98
9156.27
9215.15
9265.77
9287.46
9274.58
9224.9
9138.41
9017
8863.72
8682.66
8479.14
8260.24
8036.91
7830.21
7676.82
7628.86
7756.69
8135.18
8893.38
10181.2
11922.2
14143.6
9098.35
9134.09
9171.13
9202.66
9209.08
9183.65
9123.33
9027.52
8897.94
8737.62
8550.63
8342.68
8121.99
7901.11
7701.62
7558.21
7519.58
7660.68
8068.05
8867.04
10230.2
12047
14354.2
9088.24
9122.09
9139.55
9148.98
9135.17
9091.91
9015.93
8906.35
8764.99
8594.86
8400.06
8186.7
7964.03
7745.32
7552.15
7417.87
7387.79
7544.42
7966.12
8773.22
10135.3
11924
14267.7
9074.31
9114.94
9119.08
9109.63
9076.58
9015.13
8922.35
8797.35
8642.47
8460.74
8256.27
8035.7
7808.88
7588.1
7394.12
7260.49
7230.23
7400.22
7822.99
8591.09
9855.48
11542.2
13935.3
9056.18
9106.7
9102.84
9079.59
9030.76
8953.2
8844.59
8704.13
8535.07
8340.41
8124.26
7894.22
7660.74
7433.37
7231.31
7088.68
7042.83
7223.75
7637.91
8327.26
9403.69
10936.3
13372.2
9033.09
9093.45
9083.88
9050.36
8988.65
8896.92
8773.38
8617.1
8433.16
8224.6
7995.88
7756.78
7519.63
7290.66
7086.22
6903.82
6528.24
6664.97
7157.07
7929.46
8782.28
10150.8
12601.5
8998.53
9068.46
9054.61
9013.71
8942.23
8839.01
8702.72
8532.18
8336.91
8121.22
7891.49
7661.28
7413.84
7038.86
6289.04
4974.35
3322.57
3220.31
3947.96
5249.5
7650.88
9247.55
11577.3
8941.91
9025.31
9015.27
8974.33
8902.09
8797.64
8660.94
8489.82
8236.55
7840.08
7243.09
6421.67
5439.62
4170.24
2689.07
2068.38
2139.9
2209.51
2353.93
2336.68
3415.36
8375.71
10268.7
-116.95
-182.383
-185.395
-139.585
112.641
499.14
717.603
841.447
922.03
953.777
966.085
973.453
987.615
1024.3
1105.81
1260.46
1506.72
1811.58
2220.51
-203.541
-224.046
-218.623
-186.149
45.2698
419.125
646.912
786.442
872.869
911.582
928.9
940.218
958.658
1001.89
1092.87
1256.58
1517.16
1837.45
2271.01
-224.22
-227.733
-228.068
-218.029
-17.7234
375.83
599.991
739.63
826.558
869.14
889.708
903.73
925.126
971.599
1065.88
1233.16
1502.57
1827.68
2290.47
-226.532
-227.83
-227.866
-219.584
-44.8484
364.844
570.407
701.802
786.145
830.09
852.039
866.86
888.576
934.42
1026.44
1188.88
1453.28
1773.02
2275.89
-226.94
-227.928
-228.458
-220.895
-11.3824
357.354
545.191
668.483
749.536
793.531
815.693
829.816
849.418
890.794
974.93
1124.66
1371.38
1673.74
2219.05
-227.213
-228.127
-227.01
-162.958
58.5861
347.245
520.962
637.75
715.247
758.392
779.794
791.875
807.211
840.816
912.342
1043.24
1260.76
1529.1
2105.95
-227.497
-227.75
-223.197
-66.1522
110.54
338.567
498.762
609.204
682.707
724.126
743.77
752.536
761.772
784.96
839.754
945.353
1120.57
1336.44
1925.05
-227.665
-228.259
-137.697
1.40083
141.348
331.793
477.987
581.216
649.974
688.754
705.77
710.331
712.306
723.046
754.797
816.691
926.046
1091.39
1671.78
7093.23
7447.93
7643.87
7610.44
7478.92
7210.54
6796.74
6112.13
5332.36
4514.05
3709.01
2995.21
2393.12
2006.25
2029.01
2058.29
2090.21
2126.48
2179.21
2141.91
2014.91
4004.19
7299.77
1951.39
2166.97
2312.63
2315.72
2260.22
2127.98
1931.03
1914.73
1927.62
1943.28
1959.43
1974.29
1987.04
1995.97
1998.7
2006.75
2023.25
2044.11
2066.96
2058.9
1786.11
1526
5717.73
1881.1
1891.89
1898.18
1907.19
1916.78
1926.86
1936.97
1943.59
1949.33
1953.72
1956.02
1955.93
1953.89
1951.11
1948.81
1948.73
1951.5
1954.73
1954.43
1914.38
1597.98
1464.5
1525.01
1869.43
1876.83
1883.82
1891.34
1898.43
1904.69
1909.85
1913.92
1917.15
1919.28
1919.77
1918.17
1914.32
1908.46
1900.91
1892.07
1882.23
1870.33
1851.1
1710.92
1372.32
1306.93
1210.15
1857.23
1863.26
1868.97
1874.63
1879.62
1883.77
1886.91
1889.03
1890.16
1890.1
1888.43
1884.67
1878.24
1868.57
1855.27
1838.68
1819.35
1795.44
1664.83
1308.17
1214.04
1200.51
1136.13
1843.92
1849.56
1854.32
1858.6
1861.93
1864.25
1865.48
1865.55
1864.45
1862.06
1858.12
1852.19
1843.48
1830.81
1813.12
1790.71
1764.09
1603
1219.21
1135.94
1143.21
1134.21
1090.65
1829.63
1835.06
1838.89
1841.93
1843.66
1844.09
1843.22
1841.08
1837.72
1833.2
1827.46
1820.34
1810.93
1797.24
1776.96
1749.96
1543.75
1136.16
1071.39
1080.12
1084.4
1074.24
1041.57
1814.43
1819.85
1822.56
1824.37
1824.46
1822.94
1819.88
1815.42
1809.82
1803.35
1796.38
1789.52
1781.99
1770.25
1749.64
1476.54
1056.28
1017.74
1025.86
1031.26
1030.1
1017.93
990.543
1797.31
1803.72
1804.71
1805.07
1803.39
1799.81
1794.44
1787.59
1779.71
1771.29
1763.24
1758.29
1756.52
1749.83
1481.49
1002.99
971.796
979.246
984.225
985.008
979.565
965.378
940.351
1772.93
1786.04
1787.74
1787.51
1784.49
1777.67
1764.7
1741.09
1701.97
1641.6
1546.24
1490
1529.72
1570.16
1158.91
930.656
937.905
942.556
943.221
939.5
930.249
914.05
890.183
832.264
897.818
951.584
971.563
962.615
915.074
823.361
700.472
562.971
422.962
277.197
213.144
257.353
340.202
611.232
819.172
889.531
906.323
908.263
902.26
887.627
858.425
804.091
5.33746
6.36186
5.64209
5.58104
5.58494
5.60292
5.63599
5.66603
5.70584
5.75026
5.83186
5.95984
6.3758
14.5112
33.2378
148.686
278.765
354.043
387.647
387.971
354.051
275.646
168.202
5.73579
5.91163
5.85375
5.86278
5.87641
5.88728
5.89453
5.89744
5.89701
5.89418
5.89262
5.89645
6.56863
5.86963
5.7923
5.89231
5.54557
5.16465
4.91024
4.70463
4.48112
4.20295
4.09339
5.77353
5.83956
5.82155
5.82359
5.82571
5.82932
5.83313
5.83619
5.83853
5.8405
5.84238
5.84185
5.89781
5.85367
5.83454
5.83759
5.82663
5.82478
5.79501
5.74713
5.68608
5.59404
5.4825
5.79351
5.8176
5.80975
5.80796
5.80485
5.80397
5.8045
5.8055
5.80644
5.80692
5.80649
5.80288
5.79332
5.77694
5.75274
5.72301
5.6805
5.62729
5.56618
5.49619
5.41545
5.325
5.22663
5.80118
5.80776
5.80291
5.80098
5.79716
5.7946
5.79305
5.79173
5.78994
5.78696
5.78198
5.77334
5.75875
5.7362
5.70503
5.66506
5.61612
5.55991
5.49722
5.42775
5.35127
5.27007
5.19098
5.80131
5.80056
5.79792
5.79501
5.79106
5.78744
5.78407
5.7805
5.7761
5.77012
5.76169
5.74954
5.73214
5.70823
5.67694
5.63816
5.59236
5.54033
5.48254
5.41918
5.35062
5.27832
5.20641
5.79864
5.79512
5.79193
5.78822
5.78386
5.77934
5.77458
5.76925
5.76282
5.75466
5.74394
5.72967
5.71077
5.68638
5.65586
5.61897
5.57595
5.52732
5.47362
5.41539
5.35334
5.28868
5.22372
5.79515
5.79018
5.78596
5.78143
5.77651
5.77123
5.76544
5.75885
5.75101
5.74134
5.72917
5.71368
5.69407
5.66967
5.64
5.60487
5.56443
5.51913
5.46955
5.41634
5.36033
5.30277
5.24604
5.7914
5.78559
5.78045
5.77518
5.76971
5.76382
5.75731
5.74988
5.74112
5.73054
5.71757
5.70157
5.68191
5.65808
5.62971
5.59668
5.55916
5.51756
5.47244
5.42453
5.37461
5.32388
5.27503
5.78758
5.78129
5.77545
5.76961
5.76369
5.75737
5.75039
5.74246
5.73321
5.72222
5.70901
5.69308
5.67394
5.65119
5.62456
5.59402
5.55972
5.52205
5.48159
5.43903
5.39507
5.35083
5.30914
5.78375
5.77723
5.77093
5.76468
5.75846
5.75188
5.74467
5.73655
5.72717
5.7162
5.70321
5.68781
5.66963
5.64835
5.6238
5.59598
5.56507
5.53143
5.49561
5.45824
5.41996
5.38175
5.3464
5.7799
5.77334
5.76679
5.76032
5.75395
5.74729
5.74006
5.732
5.72281
5.71217
5.69977
5.68526
5.66836
5.64883
5.62658
5.60161
5.57413
5.54447
5.51313
5.48067
5.44764
5.4149
5.38507
5.77603
5.76955
5.76294
5.75642
5.75005
5.74347
5.7364
5.72861
5.71984
5.70981
5.69824
5.68488
5.66948
5.65189
5.63203
5.60995
5.58584
5.56
5.53287
5.50495
5.47668
5.44881
5.42372
5.77208
5.7658
5.75928
5.75287
5.74663
5.74027
5.73352
5.72617
5.71799
5.70875
5.6982
5.68614
5.67238
5.6568
5.63935
5.62009
5.5992
5.57695
5.5537
5.52989
5.50588
5.48229
5.46122
5.76806
5.76206
5.75574
5.74954
5.74356
5.73753
5.73122
5.72443
5.71698
5.70864
5.69923
5.68855
5.67648
5.6629
5.64781
5.63125
5.61337
5.59442
5.5747
5.55456
5.5343
5.51444
5.49679
5.76393
5.75826
5.75224
5.74635
5.74072
5.7351
5.72932
5.72319
5.71653
5.70918
5.70094
5.69168
5.68128
5.66965
5.65679
5.64275
5.62765
5.61169
5.59513
5.57824
5.56127
5.54465
5.52989
5.75969
5.75439
5.74873
5.74321
5.73799
5.73286
5.72766
5.72224
5.71643
5.71008
5.70304
5.69517
5.68637
5.6766
5.66582
5.65409
5.64151
5.62824
5.61447
5.60045
5.58634
5.5725
5.56022
5.75532
5.75041
5.74515
5.74005
5.73529
5.73069
5.72611
5.72142
5.71648
5.71113
5.70525
5.69872
5.69145
5.68339
5.67453
5.6649
5.65458
5.64368
5.63238
5.62085
5.60923
5.59779
5.5876
5.75081
5.74631
5.74147
5.73682
5.73255
5.7285
5.72456
5.72062
5.71652
5.71216
5.70739
5.70212
5.69627
5.68978
5.68266
5.67491
5.66659
5.6578
5.64865
5.63929
5.62982
5.62044
5.61204
5.74616
5.74207
5.73767
5.73348
5.7297
5.72622
5.72293
5.71971
5.71645
5.71301
5.70929
5.70519
5.70064
5.69559
5.69002
5.68395
5.6774
5.67045
5.66319
5.65571
5.64809
5.64048
5.63361
5.74137
5.73767
5.73371
5.72998
5.7267
5.72379
5.72114
5.71863
5.71616
5.7136
5.71085
5.70783
5.70446
5.7007
5.69653
5.69193
5.68695
5.68161
5.67598
5.67013
5.66411
5.65803
5.65247
5.73646
5.73309
5.72958
5.72629
5.72352
5.72117
5.71914
5.71731
5.71559
5.71384
5.71199
5.70995
5.70765
5.70504
5.70211
5.69882
5.69521
5.69127
5.68707
5.68263
5.678
5.67324
5.66881
5.73141
5.72831
5.72525
5.72239
5.72012
5.71832
5.71689
5.71571
5.71467
5.71368
5.71264
5.71148
5.71014
5.70857
5.70673
5.70461
5.7022
5.69951
5.69654
5.69335
5.68992
5.68632
5.68287
5.72625
5.72328
5.72068
5.71824
5.71646
5.71521
5.71435
5.71378
5.71338
5.71306
5.71275
5.71239
5.7119
5.71126
5.71041
5.70932
5.70798
5.70637
5.70451
5.7024
5.70004
5.69746
5.69488
5.72104
5.71793
5.71585
5.71382
5.71253
5.7118
5.71149
5.71147
5.71165
5.71194
5.71229
5.71264
5.71292
5.71311
5.71314
5.71297
5.71259
5.71196
5.71107
5.70994
5.70854
5.70689
5.70512
5.71594
5.71216
5.71072
5.70909
5.7083
5.70808
5.70828
5.70876
5.70945
5.71028
5.71122
5.7122
5.71318
5.7141
5.71493
5.7156
5.71608
5.71633
5.71634
5.71609
5.71559
5.71483
5.71388
5.7111
5.70582
5.70526
5.70402
5.70373
5.70401
5.70465
5.70557
5.70671
5.70803
5.70949
5.71104
5.71265
5.71424
5.71579
5.71722
5.71848
5.71954
5.72038
5.72097
5.72133
5.72151
5.72147
5.70615
5.69887
5.69957
5.69864
5.69882
5.69953
5.70056
5.70186
5.70339
5.70514
5.70707
5.70914
5.71131
5.71352
5.71571
5.71783
5.71981
5.72161
5.72321
5.72459
5.72581
5.727
5.72819
5.70034
5.69017
5.69342
5.69298
5.69355
5.69461
5.69596
5.69757
5.69945
5.70158
5.70394
5.70648
5.70916
5.71192
5.71469
5.71741
5.72002
5.72248
5.72475
5.72683
5.72884
5.73135
5.73469
5.69707
5.67308
5.68468
5.68639
5.68766
5.68908
5.69073
5.69264
5.69485
5.69733
5.70008
5.70305
5.70618
5.70941
5.71268
5.71592
5.71906
5.72205
5.72486
5.72753
5.73044
5.73535
5.74405
5.7153
5.63879
5.67106
5.67742
5.68023
5.68237
5.68447
5.68676
5.68933
5.69219
5.69533
5.69871
5.70227
5.70594
5.70967
5.71336
5.71697
5.72045
5.72385
5.72737
5.73187
5.74117
5.76504
4088.07
1758.01
-240.964
-193.317
8641.88
7681.84
6031.02
2625.45
2644.24
3193.29
6824.28
6729.09
1045.62
941.173
1465.85
2085.55
1018.76
930.732
848.177
772.953
1010.88
949.44
895.969
841.942
982.926
937.606
896.899
854.189
945.766
911.392
880.06
847.278
904.632
877.078
852.144
826.966
858.85
836.189
818.498
806.91
743.968
688.99
605.148
532.664
84.7172
27.0255
1.07875
1.82296
4.82667
5.39373
5.57107
5.48418
5.40768
5.29075
5.12334
5.03222
5.13087
5.08385
5.03992
5.00784
5.1422
5.11144
5.07632
5.03915
5.15658
5.12629
5.09137
5.05856
5.17669
5.14721
5.11804
5.08857
5.20522
5.17966
5.15445
5.12825
5.24044
5.21866
5.19716
5.17428
5.28017
5.2618
5.24364
5.22396
5.32231
5.30693
5.29166
5.27492
5.36512
5.35226
5.33947
5.32534
5.40719
5.39646
5.38574
5.37388
5.44754
5.43857
5.4296
5.41966
5.48545
5.47798
5.47046
5.46216
5.5205
5.51426
5.50798
5.50106
5.55245
5.54726
5.542
5.53624
5.5812
5.57688
5.5725
5.56771
5.60678
5.60321
5.59956
5.59557
5.62931
5.62636
5.62333
5.62001
5.64896
5.64653
5.64401
5.64126
5.66599
5.664
5.66193
5.65964
5.68062
5.67902
5.67732
5.67541
5.69314
5.69186
5.69048
5.68889
5.70382
5.70282
5.7017
5.70038
5.71296
5.71219
5.71129
5.71015
5.72091
5.72033
5.71956
5.71853
5.72806
5.72759
5.72683
5.72576
5.73499
5.73444
5.73341
5.73209
5.74229
5.74044
5.73881
5.73781
5.77237
5.76532
5.75803
5.75225
-231.359
-170.997
-19.5918
55.5712
179.612
327.047
452.029
543.596
604.137
637.186
648.208
643.967
631.145
615.815
595.053
533.319
465.51
657.357
1240.5
-17.26
-70.2616
-3.85284
111.365
228.589
344.78
444.498
518.148
564.891
586.398
584.971
562.694
517.256
414.781
215.35
81.0702
37.2691
116.639
765.445
1934.26
-0.827572
86.5849
197.205
294.192
381.915
455.945
510.08
542.064
551.015
534.234
461.954
266.658
40.7371
9.8266
8.96443
7.67649
3.64836
426.969
1039.08
280.849
272.571
324.873
381.196
435.749
483.792
519.375
538.108
533.401
410.714
128.442
5.69165
4.74669
4.36363
4.19286
4.02219
3.64709
471.217
669.363
513.096
447.891
447.427
467.8
494.97
522.732
545.247
537.83
336.028
34.2821
4.1303
3.76382
3.68194
4.02512
4.07065
4.32502
4.38775
101.57
744.828
631.557
565.786
543.27
542.856
553.333
571.118
535.297
244.765
3.82522
3.80359
3.47285
3.56013
3.62876
3.77963
3.77086
4.14544
2.58961
7.83291
780.158
698.794
641.657
614.033
606.994
614.784
537.839
172.268
3.6104
3.58726
3.44394
3.44232
3.47577
3.46502
3.45877
3.33957
3.66145
2.41878
4.84415
791.815
729.015
684.934
669.294
674.952
543.007
124.692
3.67804
3.74587
3.63743
3.52465
3.46811
3.41382
3.34378
3.29227
3.09403
3.51639
2.42442
3.92648
785.954
741.172
703.583
630.853
426.018
56.507
3.92525
3.97677
3.82827
3.6982
3.59313
3.4995
3.40982
3.32772
3.25719
3.16074
3.31934
2.75471
3.57619
792.871
627.319
307.317
44.032
3.17542
4.26563
4.23488
4.03914
3.88307
3.76884
3.66686
3.57318
3.489
3.4241
3.37553
3.33348
3.41797
3.16083
3.71525
366.349
21.9234
2.81614
4.29541
4.46043
4.27652
4.17583
4.05797
3.9519
3.85659
3.76876
3.69142
3.63466
3.59829
3.58241
3.58927
3.67784
3.59304
3.96143
4.07835
4.78719
4.89425
4.67053
4.4621
4.29461
4.20698
4.12536
4.04307
3.96555
3.89734
3.84769
3.81901
3.81395
3.83486
3.88695
3.99926
4.03632
4.27837
5.318
5.10051
4.80986
4.58858
4.45465
4.35569
4.28269
4.21451
4.14782
4.09001
4.04711
4.02294
4.02119
4.04584
4.09958
4.1862
4.31983
4.43026
4.58935
5.02048
4.90078
4.73865
4.60501
4.51249
4.43499
4.37082
4.31231
4.26371
4.22701
4.20609
4.20454
4.22628
4.27476
4.35179
4.45839
4.59929
4.73664
4.84261
4.97392
4.87683
4.7568
4.66557
4.58615
4.51896
4.4639
4.41998
4.3878
4.3692
4.36681
4.38386
4.42342
4.48764
4.5768
4.68908
4.82245
4.95342
5.02439
4.98616
4.88985
4.80602
4.7285
4.66143
4.60686
4.56416
4.53349
4.51561
4.51171
4.52388
4.5545
4.6054
4.67723
4.76868
4.87563
4.99175
5.09998
5.1461
5.00438
4.92967
4.85858
4.79578
4.74222
4.69958
4.66842
4.64947
4.64316
4.65049
4.67297
4.71198
4.76817
4.84087
4.92745
5.0224
5.11743
5.19926
5.22715
5.04081
4.97789
4.91961
4.86888
4.82706
4.79494
4.77398
4.76449
4.76692
4.78206
4.81079
4.85362
4.91022
4.97896
5.05643
5.13656
5.21085
5.26932
5.28412
5.08623
5.03405
4.98694
4.94626
4.91361
4.8906
4.87775
4.87536
4.88386
4.90372
4.93527
4.97833
5.03192
5.09384
5.16033
5.22549
5.28162
5.32176
5.32778
5.13786
5.09483
5.05649
5.02441
4.99968
4.98377
4.97696
4.97953
4.99174
5.01377
5.04553
5.08637
5.13491
5.1887
5.24404
5.29555
5.33683
5.36351
5.3639
5.19274
5.15735
5.1262
5.10089
5.08261
5.07206
5.06953
5.07523
5.08928
5.11159
5.14178
5.17894
5.22148
5.26695
5.3119
5.35171
5.38136
5.39841
5.39543
5.24833
5.21908
5.19402
5.17416
5.16068
5.15397
5.15427
5.16167
5.17615
5.19746
5.22502
5.25779
5.29412
5.33171
5.36748
5.39765
5.41841
5.42872
5.42375
5.30283
5.27858
5.2583
5.24279
5.23285
5.22878
5.23075
5.23877
5.25272
5.27223
5.29661
5.32478
5.35515
5.38562
5.41359
5.436
5.45007
5.45566
5.44963
5.3549
5.33483
5.31832
5.30609
5.29868
5.29631
5.2991
5.30699
5.31978
5.33703
5.35804
5.38171
5.4066
5.43086
5.45231
5.46859
5.4777
5.48002
5.47344
5.40369
5.38704
5.37355
5.36377
5.35812
5.35675
5.35973
5.36697
5.37823
5.39304
5.41068
5.43016
5.45016
5.46911
5.48525
5.49674
5.50218
5.50222
5.49544
5.44875
5.43487
5.42376
5.4158
5.41132
5.41044
5.4132
5.41947
5.429
5.44134
5.4558
5.47147
5.48722
5.50173
5.51358
5.52138
5.52413
5.5226
5.5158
5.48984
5.47821
5.46894
5.4623
5.45856
5.45782
5.46007
5.46521
5.47297
5.48293
5.49448
5.5068
5.51892
5.52976
5.53819
5.54317
5.54396
5.54135
5.53467
5.52686
5.51706
5.5092
5.5035
5.5002
5.49935
5.50095
5.5049
5.51095
5.51872
5.52767
5.53709
5.54618
5.55404
5.55978
5.56261
5.56198
5.55867
5.55216
5.55985
5.55152
5.54475
5.53973
5.53664
5.53555
5.53644
5.53923
5.54369
5.5495
5.55619
5.56317
5.56975
5.57521
5.57886
5.58007
5.57845
5.57468
5.56842
5.58896
5.58182
5.5759
5.57135
5.56834
5.56693
5.56711
5.56882
5.57187
5.57597
5.58075
5.58569
5.59024
5.59381
5.59585
5.59587
5.59355
5.58953
5.58354
5.61444
5.60826
5.60299
5.59878
5.59576
5.59401
5.59353
5.59428
5.5961
5.59876
5.60194
5.60523
5.60816
5.61026
5.61108
5.61023
5.60747
5.60332
5.59765
5.63658
5.63117
5.62641
5.62243
5.61937
5.61729
5.61623
5.61614
5.61693
5.6184
5.62029
5.62226
5.62392
5.6249
5.62482
5.62337
5.62035
5.61621
5.61087
5.65566
5.65088
5.64653
5.64272
5.6396
5.63724
5.63568
5.63491
5.63486
5.63538
5.63624
5.63717
5.63787
5.63801
5.6373
5.63547
5.63233
5.62828
5.6233
5.67202
5.66776
5.66372
5.66005
5.65687
5.65428
5.65233
5.65103
5.65032
5.65009
5.65017
5.65033
5.65031
5.64986
5.64872
5.64668
5.64355
5.63968
5.63506
5.68597
5.68213
5.67835
5.67479
5.67158
5.66883
5.66659
5.66488
5.66368
5.6629
5.6624
5.662
5.66149
5.66065
5.65927
5.65715
5.65414
5.6505
5.64625
5.69783
5.69431
5.69074
5.68728
5.68407
5.68122
5.67879
5.67681
5.67527
5.67411
5.67321
5.67244
5.67162
5.67056
5.66908
5.66702
5.66421
5.66086
5.657
5.70787
5.7046
5.70119
5.69782
5.69465
5.69177
5.68925
5.68712
5.68539
5.68399
5.68286
5.68187
5.68088
5.67974
5.6783
5.6764
5.67388
5.67087
5.66741
5.71636
5.71323
5.70994
5.70668
5.70359
5.70076
5.69825
5.69609
5.69428
5.69278
5.69154
5.69047
5.68945
5.68836
5.68706
5.68542
5.68326
5.68064
5.6776
5.72349
5.72039
5.7172
5.71407
5.71113
5.70844
5.70604
5.70396
5.70219
5.70072
5.69949
5.69844
5.6975
5.69655
5.6955
5.6942
5.69248
5.69031
5.6877
5.72971
5.72656
5.72337
5.72033
5.71753
5.71501
5.71278
5.71084
5.70919
5.70781
5.70668
5.70576
5.70499
5.70429
5.70359
5.70276
5.70161
5.70002
5.6979
5.73668
5.73308
5.72938
5.72606
5.72314
5.72058
5.71836
5.71646
5.71487
5.71357
5.71255
5.71179
5.71127
5.71096
5.71078
5.71065
5.71037
5.70969
5.70838
5.74402
5.73795
5.73386
5.73062
5.72793
5.72567
5.72375
5.72211
5.72076
5.71967
5.71885
5.71831
5.71804
5.71804
5.71829
5.71874
5.71926
5.71959
5.71929
)
;

boundaryField
{
    leftWall
    {
        type            fixedFluxPressure;
        gradient        uniform 0;
        value           nonuniform List<scalar> 
50
(
9105.98
9098.35
9088.24
9074.31
9056.18
9033.09
8998.53
8941.91
7093.23
1951.39
1881.1
1869.43
1857.23
1843.92
1829.63
1814.43
1797.31
1772.93
832.264
5.33746
5.73579
5.77353
5.79351
5.80118
5.80131
5.79864
5.79515
5.7914
5.78758
5.78375
5.7799
5.77603
5.77208
5.76806
5.76393
5.75969
5.75532
5.75081
5.74616
5.74137
5.73646
5.73141
5.72625
5.72104
5.71594
5.7111
5.70615
5.70034
5.69707
5.7153
)
;
    }
    rightWall
    {
        type            fixedFluxPressure;
        gradient        uniform 0;
        value           nonuniform List<scalar> 
50
(
2220.51
2271.01
2290.47
2275.89
2219.05
2105.95
1925.05
1671.78
1240.5
765.445
426.969
471.217
101.57
7.83291
4.84415
3.92648
3.57619
3.71525
3.96143
4.27837
4.58935
4.84261
5.02439
5.1461
5.22715
5.28412
5.32778
5.3639
5.39543
5.42375
5.44963
5.47344
5.49544
5.5158
5.53467
5.55216
5.56842
5.58354
5.59765
5.61087
5.6233
5.63506
5.64625
5.657
5.66741
5.6776
5.6877
5.6979
5.70838
5.71929
)
;
    }
    lowerWall
    {
        type            fixedFluxPressure;
        gradient        uniform 0;
        value           nonuniform List<scalar> 
62
(
9105.98
9156.27
9215.15
9265.77
9287.46
9274.58
9224.9
9138.41
9017
8863.72
8682.66
8479.14
8260.24
8036.91
7830.21
7676.82
7628.86
7756.69
8135.18
8893.38
10181.2
11922.2
14143.6
14143.6
14354.2
14267.7
13935.3
13372.2
12601.5
11577.3
10268.7
4088.07
1758.01
-240.964
-193.317
-116.95
-203.541
-224.22
-226.532
-226.94
-227.213
-227.497
-227.665
-116.95
-182.383
-185.395
-139.585
112.641
499.14
717.603
841.447
922.03
953.777
966.085
973.453
987.615
1024.3
1105.81
1260.46
1506.72
1811.58
2220.51
)
;
    }
    atmosphere
    {
        type            prghTotalPressure;
        rho             rho;
        psi             none;
        gamma           1;
        p0              uniform 0;
        value           nonuniform List<scalar> 
46
(
5.70077
5.66685
5.67231
5.6745
5.67649
5.67847
5.68064
5.68309
5.68585
5.68892
5.69229
5.6959
5.6997
5.70362
5.70758
5.71151
5.7153
5.71887
5.72211
5.72489
5.72706
5.72845
5.72899
5.72904
5.72904
5.72904
5.72904
5.72904
5.72904
5.72904
5.72904
5.72904
5.72904
5.72904
5.72904
5.72904
5.72904
5.72904
5.72904
5.72904
5.72904
5.72904
5.72904
5.72904
5.72904
5.72904
)
;
        rho             rho;
    }
    defaultFaces
    {
        type            empty;
    }
}


// ************************************************************************* //
