/*--------------------------------*- C++ -*----------------------------------*\
  =========                 |
  \\      /  F ield         | OpenFOAM: The Open Source CFD Toolbox
   \\    /   O peration     | Website:  https://openfoam.org
    \\  /    A nd           | Version:  13
     \\/     M anipulation  |
\*---------------------------------------------------------------------------*/
FoamFile
{
    format      ascii;
    class       surfaceScalarField;
    location    "0.25";
    object      phi;
}
// * * * * * * * * * * * * * * * * * * * * * * * * * * * * * * * * * * * * * //

dimensions      [0 3 -1 0 0 0 0];

internalField   nonuniform List<scalar> 
4432
(
-7.03151e-07
7.03153e-07
1.3339e-06
-2.03705e-06
4.53159e-06
-3.1977e-06
8.17556e-06
-3.64397e-06
1.20628e-05
-3.88721e-06
1.61033e-05
-4.04055e-06
2.02597e-05
-4.15634e-06
2.45132e-05
-4.2536e-06
2.88506e-05
-4.33732e-06
3.32586e-05
-4.40805e-06
3.77209e-05
-4.4623e-06
4.22074e-05
-4.48645e-06
4.66373e-05
-4.42998e-06
5.08226e-05
-4.18531e-06
5.45311e-05
-3.70851e-06
5.75928e-05
-3.06164e-06
5.98935e-05
-2.30071e-06
6.11543e-05
-1.26083e-06
6.02129e-05
9.41469e-07
5.48066e-05
5.40627e-06
4.24687e-05
1.23379e-05
2.21807e-05
2.0288e-05
2.21807e-05
1.1232e-06
-4.20037e-07
3.76456e-06
-4.67841e-06
7.05623e-06
-6.48936e-06
1.07183e-05
-7.30609e-06
1.45947e-05
-7.7636e-06
1.86111e-05
-8.05693e-06
2.27245e-05
-8.26972e-06
2.69074e-05
-8.43648e-06
3.1139e-05
-8.56889e-06
3.54012e-05
-8.67025e-06
3.96724e-05
-8.73357e-06
4.39184e-05
-8.73241e-06
4.8059e-05
-8.57056e-06
5.19215e-05
-8.04783e-06
5.52759e-05
-7.06288e-06
5.79128e-05
-5.69854e-06
5.96578e-05
-4.04575e-06
6.02722e-05
-1.87516e-06
5.88095e-05
2.40411e-06
5.33336e-05
1.08822e-05
4.13477e-05
2.43238e-05
2.23672e-05
3.92685e-05
4.45479e-05
2.51177e-06
-2.93181e-06
5.54098e-06
-7.70762e-06
8.90386e-06
-9.85224e-06
1.25308e-05
-1.09331e-05
1.63322e-05
-1.1565e-05
2.0251e-05
-1.19757e-05
2.42481e-05
-1.22668e-05
2.82944e-05
-1.24828e-05
3.23668e-05
-1.26413e-05
3.64452e-05
-1.27486e-05
4.05056e-05
-1.2794e-05
4.45134e-05
-1.27403e-05
4.83927e-05
-1.24498e-05
5.19778e-05
-1.1633e-05
5.50396e-05
-1.01246e-05
5.73443e-05
-8.00327e-06
5.86731e-05
-5.37453e-06
5.88575e-05
-2.05953e-06
5.71523e-05
4.1093e-06
5.18851e-05
1.61494e-05
4.07729e-05
3.5436e-05
2.31299e-05
5.69115e-05
6.76779e-05
3.55597e-06
-6.48776e-06
6.95389e-06
-1.11055e-05
1.04168e-05
-1.33151e-05
1.40176e-05
-1.45339e-05
1.77378e-05
-1.52852e-05
2.15459e-05
-1.57838e-05
2.54118e-05
-1.61327e-05
2.93078e-05
-1.63788e-05
3.32118e-05
-1.65452e-05
3.71032e-05
-1.66401e-05
4.0957e-05
-1.66477e-05
4.47394e-05
-1.65227e-05
4.83798e-05
-1.60903e-05
5.17186e-05
-1.49718e-05
5.45285e-05
-1.29345e-05
5.65553e-05
-1.003e-05
5.75207e-05
-6.33996e-06
5.73374e-05
-1.8762e-06
5.54337e-05
6.01299e-06
5.03964e-05
2.11867e-05
4.00837e-05
4.57487e-05
2.36011e-05
7.3394e-05
9.1279e-05
4.31759e-06
-1.08054e-05
8.06089e-06
-1.48488e-05
1.16409e-05
-1.68951e-05
1.5231e-05
-1.8124e-05
1.88767e-05
-1.8931e-05
2.25748e-05
-1.94819e-05
2.63068e-05
-1.98647e-05
3.00487e-05
-2.01207e-05
3.37817e-05
-2.02782e-05
3.74872e-05
-2.03457e-05
4.11391e-05
-2.02996e-05
4.47027e-05
-2.00862e-05
4.81113e-05
-1.94988e-05
5.12118e-05
-1.80723e-05
5.37876e-05
-1.55104e-05
5.55772e-05
-1.18196e-05
5.6189e-05
-6.95173e-06
5.55865e-05
-1.2737e-06
5.33654e-05
8.23403e-06
4.84171e-05
2.6135e-05
3.87467e-05
5.54191e-05
2.34255e-05
8.87153e-05
0.000114704
4.88477e-06
-1.56901e-05
8.89666e-06
-1.88607e-05
1.25807e-05
-2.05792e-05
1.61649e-05
-2.17082e-05
1.97426e-05
-2.25087e-05
2.33348e-05
-2.30741e-05
2.69347e-05
-2.34646e-05
3.05218e-05
-2.37079e-05
3.40844e-05
-2.38407e-05
3.76086e-05
-2.38699e-05
4.10662e-05
-2.37572e-05
4.44161e-05
-2.34361e-05
4.75883e-05
-2.2671e-05
5.04393e-05
-2.09234e-05
5.27806e-05
-1.78516e-05
5.43657e-05
-1.34047e-05
5.46288e-05
-7.21491e-06
5.34446e-05
-8.94448e-08
5.05803e-05
1.10983e-05
4.53515e-05
3.13639e-05
3.62745e-05
6.44961e-05
2.24731e-05
0.000102517
0.000137178
5.31441e-06
-2.10045e-05
9.47339e-06
-2.30197e-05
1.32287e-05
-2.43345e-05
1.68024e-05
-2.52819e-05
2.03155e-05
-2.60217e-05
2.38054e-05
-2.65641e-05
2.72758e-05
-2.69349e-05
3.07088e-05
-2.71409e-05
3.41045e-05
-2.72364e-05
3.74565e-05
-2.72218e-05
4.07353e-05
-2.7036e-05
4.38844e-05
-2.65852e-05
4.68139e-05
-2.56005e-05
4.9386e-05
-2.34955e-05
5.14416e-05
-1.99072e-05
5.27649e-05
-1.4728e-05
5.27071e-05
-7.15715e-06
5.06977e-05
1.92002e-06
4.68409e-05
1.4955e-05
4.08965e-05
3.73084e-05
3.23703e-05
7.30222e-05
2.09349e-05
0.000113952
0.000158112
5.59219e-06
-2.65967e-05
9.76882e-06
-2.71963e-05
1.35699e-05
-2.81356e-05
1.71273e-05
-2.88392e-05
2.0578e-05
-2.94725e-05
2.39679e-05
-2.9954e-05
2.73118e-05
-3.02789e-05
3.05965e-05
-3.04256e-05
3.38363e-05
-3.04762e-05
3.70317e-05
-3.04172e-05
4.01495e-05
-3.01539e-05
4.31217e-05
-2.95573e-05
4.5829e-05
-2.83079e-05
4.81446e-05
-2.58111e-05
4.99704e-05
-2.1733e-05
5.10609e-05
-1.58184e-05
5.12613e-05
-7.35756e-06
4.90597e-05
4.1216e-06
4.39561e-05
2.00586e-05
3.699e-05
4.42745e-05
2.83284e-05
8.16838e-05
2.03784e-05
0.000121902
0.000178491
-8.71774e-05
8.71774e-05
-0.00010024
1.30624e-05
-0.000103467
3.22721e-06
-0.000105281
1.8144e-06
-8.83557e-05
-1.69257e-05
-4.2849e-05
-4.55067e-05
-2.1058e-06
-4.07431e-05
2.98403e-05
-3.19461e-05
5.35518e-05
-2.37115e-05
7.35395e-05
-1.99877e-05
9.09316e-05
-1.73921e-05
0.000105555
-1.46233e-05
0.000116544
-1.09886e-05
0.000122203
-5.65918e-06
0.000120185
2.01744e-06
0.000107048
1.31375e-05
8.00753e-05
2.69728e-05
3.83701e-05
4.17052e-05
3.83702e-05
-8.08186e-05
0.000167996
-9.6443e-05
2.86867e-05
-9.32094e-05
-6.40026e-09
-8.75981e-05
-3.7969e-06
-5.69137e-05
-4.76102e-05
-1.54939e-05
-8.69266e-05
1.6645e-05
-7.2882e-05
4.20628e-05
-5.73639e-05
6.38886e-05
-4.55374e-05
8.2571e-05
-3.86701e-05
9.85576e-05
-3.33787e-05
0.000111767
-2.78331e-05
0.000121577
-2.07986e-05
0.00012681
-1.0892e-05
0.000125342
3.48578e-06
0.000113985
2.44945e-05
8.83103e-05
5.26473e-05
4.64589e-05
8.35566e-05
8.4829e-05
-6.32884e-05
0.000231284
-8.12525e-05
4.66506e-05
-9.0305e-05
9.04594e-06
-7.68477e-05
-1.72542e-05
-2.38236e-05
-0.000100634
7.96205e-06
-0.000118712
3.19717e-05
-9.68916e-05
5.29579e-05
-7.83501e-05
7.20874e-05
-6.46669e-05
8.88553e-05
-5.54379e-05
0.000103273
-4.77969e-05
0.000115162
-3.97216e-05
0.000123943
-2.95792e-05
0.000128542
-1.54914e-05
0.000127129
4.8985e-06
0.000116751
3.48732e-05
9.29792e-05
7.64187e-05
5.26449e-05
0.000123891
0.000137474
-5.08422e-05
0.000282126
-7.84681e-05
7.42762e-05
-8.14225e-05
1.20001e-05
-3.47093e-05
-6.39674e-05
1.12788e-05
-0.000146622
2.90496e-05
-0.000136483
4.62015e-05
-0.000114044
6.31851e-05
-9.53337e-05
7.94582e-05
-8.094e-05
9.41926e-05
-7.01724e-05
0.000107088
-6.06919e-05
0.00011782
-5.04539e-05
0.000125792
-3.75508e-05
0.000129992
-1.96915e-05
0.000128737
6.15336e-06
0.000119211
4.4399e-05
9.69318e-05
9.86978e-05
5.75662e-05
0.000163257
0.00019504
-3.73286e-05
0.000319454
-6.1487e-05
9.84345e-05
-4.85006e-05
-9.86514e-07
1.69502e-05
-0.000129418
3.70243e-05
-0.000166697
4.66074e-05
-0.000146066
5.86717e-05
-0.000126108
7.21991e-05
-0.000108861
8.58936e-05
-9.46344e-05
9.87629e-05
-8.30416e-05
0.000110299
-7.22281e-05
0.00012006
-6.02146e-05
0.000127422
-4.49133e-05
0.000131428
-2.36973e-05
0.000130484
7.09774e-06
0.000121786
5.30972e-05
0.000100598
0.000119886
6.158e-05
0.000202274
0.00025662
-1.64071e-05
0.000335861
1.50376e-05
6.69894e-05
4.77529e-05
-3.37019e-05
5.80819e-05
-0.000139747
5.49272e-05
-0.000163542
5.99186e-05
-0.000151058
6.88118e-05
-0.000135001
7.9727e-05
-0.000119776
9.13231e-05
-0.000106231
0.000102611
-9.43297e-05
0.000112989
-8.26059e-05
0.000121946
-6.91714e-05
0.000128851
-5.18186e-05
0.000132799
-2.76456e-05
0.000132246
7.65156e-06
0.000124272
6.10705e-05
0.000103734
0.000140424
6.47362e-05
0.000241272
0.000321356
-1.04653e-05
0.000346326
1.6317e-05
4.0207e-05
7.17924e-05
-8.91774e-05
7.02503e-05
-0.000138205
6.65596e-05
-0.000159851
6.98193e-05
-0.000154317
7.68549e-05
-0.000142037
8.58985e-05
-0.00012882
9.58425e-05
-0.000116175
0.000105818
-0.000104305
0.000115211
-9.19991e-05
0.000123486
-7.74461e-05
0.000130021
-5.83538e-05
0.00013396
-3.15846e-05
0.000133753
7.85887e-06
0.000126139
6.8684e-05
0.000105416
0.000161147
6.64423e-05
0.000280246
0.000387799
2.50991e-05
0.000321227
7.35561e-05
-8.24997e-06
7.70875e-05
-9.27088e-05
7.57345e-05
-0.000136852
7.44979e-05
-0.000158614
7.75113e-05
-0.000157331
8.33646e-05
-0.00014789
9.09944e-05
-0.00013645
9.9606e-05
-0.000124786
0.000108472
-0.000113171
0.000117003
-0.00010053
0.00012466
-8.51026e-05
0.000130837
-6.45309e-05
0.000134691
-3.54382e-05
0.000134656
7.89333e-06
0.000126475
7.68649e-05
0.000103682
0.000183941
6.49674e-05
0.00031896
0.000452766
1.22402e-05
-3.88369e-05
2.10385e-05
-3.59946e-05
2.90808e-05
-3.61779e-05
3.65609e-05
-3.63194e-05
4.37026e-05
-3.66142e-05
5.05957e-05
-3.6847e-05
5.72784e-05
-3.69616e-05
6.38648e-05
-3.70119e-05
7.04153e-05
-3.70267e-05
7.69143e-05
-3.69162e-05
8.32499e-05
-3.64894e-05
8.92487e-05
-3.55562e-05
9.46483e-05
-3.37075e-05
9.93766e-05
-3.05393e-05
0.000104405
-2.67614e-05
0.000108823
-2.02368e-05
0.000111555
-1.00897e-05
0.000111305
4.37214e-06
0.000106365
2.49986e-05
9.30545e-05
5.75849e-05
7.57123e-05
9.9026e-05
7.21336e-05
0.000125481
0.000156999
9.36249e-05
1.06742e-05
-4.9511e-05
1.91767e-05
-4.44972e-05
2.72663e-05
-4.42675e-05
3.47291e-05
-4.37822e-05
4.17391e-05
-4.36242e-05
4.84315e-05
-4.35394e-05
5.48012e-05
-4.33313e-05
6.10637e-05
-4.32744e-05
6.7395e-05
-4.33581e-05
7.37365e-05
-4.32577e-05
8.01544e-05
-4.29073e-05
8.6692e-05
-4.20938e-05
9.34188e-05
-4.04344e-05
0.00010033
-3.74506e-05
0.000106205
-3.26365e-05
0.000111119
-2.515e-05
0.000115035
-1.40058e-05
0.000117802
1.60451e-06
0.000118867
2.39336e-05
0.000119055
5.73976e-05
0.000112783
0.000105297
9.89271e-05
0.000139337
0.000149623
0.000106304
5.99341e-06
-5.55044e-05
1.37481e-05
-5.22518e-05
2.10756e-05
-5.1595e-05
2.83059e-05
-5.10125e-05
3.5261e-05
-5.05793e-05
4.20616e-05
-5.034e-05
4.90191e-05
-5.02888e-05
5.61512e-05
-5.04065e-05
6.33626e-05
-5.05696e-05
7.07223e-05
-5.06174e-05
7.81901e-05
-5.03751e-05
8.56744e-05
-4.9578e-05
9.3045e-05
-4.78049e-05
0.000100086
-4.44912e-05
0.000106472
-3.90226e-05
0.000112033
-3.0711e-05
0.000116839
-1.8812e-05
0.000120858
-2.41493e-06
0.000124519
2.02731e-05
0.000129084
5.28325e-05
0.000135533
9.88481e-05
0.000138642
0.000136229
0.000148826
0.000139439
3.80074e-06
-5.93051e-05
1.05463e-05
-5.89974e-05
1.75373e-05
-5.8586e-05
2.46146e-05
-5.80898e-05
3.17146e-05
-5.76793e-05
3.88239e-05
-5.74492e-05
4.59712e-05
-5.74361e-05
5.31842e-05
-5.76195e-05
6.05079e-05
-5.78932e-05
6.79768e-05
-5.80863e-05
7.55751e-05
-5.79733e-05
8.32192e-05
-5.72221e-05
9.07541e-05
-5.53398e-05
9.79565e-05
-5.16937e-05
0.000104567
-4.56334e-05
0.000110416
-3.65593e-05
0.000115504
-2.39004e-05
0.000119981
-6.89142e-06
0.000124358
1.58956e-05
0.000130666
4.65243e-05
0.000145848
8.36661e-05
0.000169339
0.000112738
0.000121624
0.000196541
4.3074e-06
-6.36125e-05
1.03524e-05
-6.50424e-05
1.67745e-05
-6.50081e-05
2.33961e-05
-6.47114e-05
3.01449e-05
-6.44282e-05
3.6977e-05
-6.42813e-05
4.3866e-05
-6.4325e-05
5.08037e-05
-6.45573e-05
5.78132e-05
-6.49027e-05
6.49295e-05
-6.52026e-05
7.21679e-05
-6.52117e-05
7.94962e-05
-6.45504e-05
8.67949e-05
-6.26386e-05
9.38294e-05
-5.87281e-05
0.000100279
-5.2083e-05
0.000105898
-4.2178e-05
0.000110666
-2.86686e-05
0.000114789
-1.10142e-05
0.000119286
1.1398e-05
0.000128467
3.73439e-05
0.000148473
6.36599e-05
0.000178256
8.29554e-05
8.72382e-05
0.000212641
4.94079e-06
-6.85533e-05
1.07684e-05
-7.087e-05
1.68307e-05
-7.10703e-05
2.30369e-05
-7.09176e-05
2.93395e-05
-7.07307e-05
3.5701e-05
-7.06428e-05
4.20894e-05
-7.07135e-05
4.84845e-05
-7.09523e-05
5.48896e-05
-7.13079e-05
6.13356e-05
-7.16486e-05
6.78672e-05
-7.17433e-05
7.45201e-05
-7.12033e-05
8.12347e-05
-6.93532e-05
8.776e-05
-6.52534e-05
9.36544e-05
-5.79774e-05
9.85907e-05
-4.71143e-05
0.000102561
-3.26391e-05
0.000106234
-1.46865e-05
0.000112422
5.20933e-06
0.000124826
2.49406e-05
0.000145587
4.28983e-05
0.000173752
5.47906e-05
5.58459e-05
0.000205144
5.33712e-06
-7.38904e-05
1.11546e-05
-7.66875e-05
1.70127e-05
-7.69284e-05
2.28959e-05
-7.68008e-05
2.87843e-05
-7.66191e-05
3.4649e-05
-7.65076e-05
4.04552e-05
-7.65196e-05
4.61725e-05
-7.66697e-05
5.17901e-05
-7.69254e-05
5.7329e-05
-7.71875e-05
6.28574e-05
-7.72718e-05
6.84998e-05
-7.68457e-05
7.42954e-05
-7.51488e-05
7.99859e-05
-7.0944e-05
8.50175e-05
-6.3009e-05
8.89502e-05
-5.10471e-05
9.22576e-05
-3.59465e-05
9.71748e-05
-1.96037e-05
0.000106165
-3.7807e-06
0.000120088
1.10173e-05
0.000139683
2.33033e-05
0.00016408
3.03934e-05
2.96041e-05
0.000190322
5.67333e-06
-7.95637e-05
1.15265e-05
-8.25407e-05
1.72393e-05
-8.26411e-05
2.28536e-05
-8.24152e-05
2.83729e-05
-8.21384e-05
3.37725e-05
-8.19071e-05
3.90053e-05
-8.17524e-05
4.40217e-05
-8.16861e-05
4.87838e-05
-8.16875e-05
5.32792e-05
-8.16828e-05
5.75661e-05
-8.15587e-05
6.18728e-05
-8.11524e-05
6.63946e-05
-7.96706e-05
7.09618e-05
-7.55112e-05
7.4883e-05
-6.69301e-05
7.80284e-05
-5.41924e-05
8.2341e-05
-4.02591e-05
8.96949e-05
-2.69575e-05
0.000100296
-1.43823e-05
0.000114553
-3.23957e-06
0.000132523
5.33362e-06
0.000153295
9.62135e-06
8.01796e-06
0.000174881
6.10152e-06
-8.56653e-05
1.19538e-05
-8.8393e-05
1.75126e-05
-8.81999e-05
2.28797e-05
-8.77824e-05
2.80745e-05
-8.73333e-05
3.30732e-05
-8.69059e-05
3.78096e-05
-8.64888e-05
4.22085e-05
-8.6085e-05
4.61981e-05
-8.56771e-05
4.97001e-05
-8.51849e-05
5.2661e-05
-8.45196e-05
5.53824e-05
-8.38738e-05
5.82896e-05
-8.25778e-05
6.14331e-05
-7.86547e-05
6.43211e-05
-6.98181e-05
6.81073e-05
-5.79787e-05
7.45557e-05
-4.67076e-05
8.33957e-05
-3.57975e-05
9.47602e-05
-2.57468e-05
0.000108719
-1.71983e-05
0.00012506
-1.10076e-05
0.000142972
-8.2908e-06
-1.01184e-05
0.000161109
6.84304e-06
-9.25083e-05
1.23551e-05
-9.3905e-05
1.76692e-05
-9.3514e-05
2.27864e-05
-9.28995e-05
2.76985e-05
-9.22454e-05
3.23811e-05
-9.15884e-05
3.67514e-05
-9.08591e-05
4.07193e-05
-9.00529e-05
4.41953e-05
-8.91531e-05
4.70495e-05
-8.8039e-05
4.8972e-05
-8.6442e-05
5.02017e-05
-8.51035e-05
5.14428e-05
-8.38189e-05
5.28796e-05
-8.00915e-05
5.54331e-05
-7.23716e-05
6.08048e-05
-6.33503e-05
6.84383e-05
-5.43411e-05
7.80863e-05
-4.54455e-05
8.96582e-05
-3.73188e-05
0.000103054
-3.05944e-05
0.000117995
-2.59486e-05
0.000133882
-2.41776e-05
-2.61324e-05
0.000149896
8.35837e-06
-0.000100867
1.25358e-05
-9.80823e-05
1.75713e-05
-9.85495e-05
2.23946e-05
-9.77229e-05
2.70303e-05
-9.6881e-05
3.14575e-05
-9.60156e-05
3.5607e-05
-9.50086e-05
3.93911e-05
-9.3837e-05
4.26989e-05
-9.24609e-05
4.54149e-05
-9.0755e-05
4.68662e-05
-8.78933e-05
4.69107e-05
-8.51479e-05
4.66632e-05
-8.35713e-05
4.71331e-05
-8.05613e-05
5.02575e-05
-7.5496e-05
5.60186e-05
-6.91114e-05
6.38649e-05
-6.21874e-05
7.35083e-05
-5.50889e-05
8.47662e-05
-4.85766e-05
9.74445e-05
-4.32728e-05
0.000111232
-3.97361e-05
0.00012566
-3.86052e-05
-4.07183e-05
0.000140245
2.68748e-05
-0.000127741
1.48677e-05
-8.60751e-05
1.70044e-05
-0.000100686
2.15249e-05
-0.000102243
2.6059e-05
-0.000101415
3.04198e-05
-0.000100376
3.45174e-05
-9.91061e-05
3.81873e-05
-9.75069e-05
4.11389e-05
-9.54125e-05
4.3201e-05
-9.28172e-05
4.44828e-05
-8.91752e-05
4.43941e-05
-8.50592e-05
4.29399e-05
-8.21172e-05
4.29774e-05
-8.05988e-05
4.60455e-05
-7.85639e-05
5.2323e-05
-7.53889e-05
6.00709e-05
-6.99353e-05
6.93601e-05
-6.43781e-05
8.01537e-05
-5.93702e-05
9.22568e-05
-5.53758e-05
0.000105499
-5.29787e-05
0.000119713
-5.28188e-05
-5.52205e-05
0.000134215
1.01497e-05
-0.000137891
1.27021e-05
-8.86275e-05
1.48639e-05
-0.000102848
1.79794e-05
-0.000105359
2.10468e-05
-0.000104482
2.36796e-05
-0.000103009
2.5978e-05
-0.000101405
2.80094e-05
-9.95385e-05
2.98524e-05
-9.72557e-05
3.14159e-05
-9.43809e-05
3.29117e-05
-9.06713e-05
3.46751e-05
-8.6823e-05
3.7399e-05
-8.48414e-05
3.99972e-05
-8.31972e-05
4.3036e-05
-8.16029e-05
4.68689e-05
-7.92218e-05
5.40216e-05
-7.7088e-05
6.3818e-05
-7.41745e-05
7.57047e-05
-7.1257e-05
8.95175e-05
-6.91887e-05
0.000105311
-6.87725e-05
0.000122953
-7.04608e-05
-7.1948e-05
0.000139681
-4.16876e-06
-0.000133722
5.14481e-06
-9.79409e-05
8.55769e-06
-0.000106261
1.09137e-05
-0.000107715
1.31294e-05
-0.000106698
1.51237e-05
-0.000105004
1.6809e-05
-0.00010309
1.82732e-05
-0.000101003
1.96725e-05
-9.86552e-05
2.12504e-05
-9.5959e-05
2.34414e-05
-9.28626e-05
2.6525e-05
-8.99068e-05
2.94867e-05
-8.78034e-05
3.28121e-05
-8.6523e-05
3.70466e-05
-8.58376e-05
4.2812e-05
-8.49874e-05
4.96674e-05
-8.39436e-05
5.77741e-05
-8.22814e-05
6.70088e-05
-8.04918e-05
7.73477e-05
-7.95277e-05
8.85261e-05
-7.99511e-05
9.94206e-05
-8.13555e-05
-8.14663e-05
0.000108939
-6.20995e-06
-0.000127512
2.37563e-06
-0.000106526
5.03157e-06
-0.000108916
6.01147e-06
-0.000108695
6.825e-06
-0.000107512
7.70782e-06
-0.000105887
8.67352e-06
-0.000104056
9.75467e-06
-0.000102084
1.10632e-05
-9.99639e-05
1.28011e-05
-9.76969e-05
1.52847e-05
-9.53464e-05
1.86151e-05
-9.32373e-05
2.25568e-05
-9.17452e-05
2.69925e-05
-9.09589e-05
3.18204e-05
-9.06657e-05
3.72764e-05
-9.04436e-05
4.3138e-05
-8.98054e-05
4.94406e-05
-8.85841e-05
5.61218e-05
-8.71732e-05
6.27754e-05
-8.61815e-05
6.87135e-05
-8.58894e-05
7.3191e-05
-8.58332e-05
-8.47172e-05
7.64417e-05
-4.68172e-06
-0.00012283
4.41781e-08
-0.000111252
1.51182e-06
-0.000110384
1.76803e-06
-0.000108951
1.77526e-06
-0.000107519
1.87678e-06
-0.000105988
2.20687e-06
-0.000104386
2.85453e-06
-0.000102732
3.92582e-06
-0.000101035
5.55792e-06
-9.93292e-05
7.91089e-06
-9.76994e-05
1.10148e-05
-9.63414e-05
1.47191e-05
-9.54496e-05
1.87888e-05
-9.50287e-05
2.30454e-05
-9.49225e-05
2.73595e-05
-9.47578e-05
3.17016e-05
-9.41477e-05
3.60893e-05
-9.29719e-05
4.03322e-05
-9.14163e-05
4.39384e-05
-8.97879e-05
4.62373e-05
-8.81885e-05
4.66437e-05
-8.62398e-05
-8.30569e-05
4.49834e-05
-3.60837e-06
-0.000119221
-1.949e-06
-0.000112912
-1.77246e-06
-0.000110561
-2.11862e-06
-0.000108605
-2.59876e-06
-0.000107039
-2.97014e-06
-0.000105617
-3.08592e-06
-0.00010427
-2.84208e-06
-0.000102976
-2.14397e-06
-0.000101734
-9.01946e-07
-0.000100571
9.48017e-07
-9.95495e-05
3.37505e-06
-9.87685e-05
6.22422e-06
-9.82989e-05
9.2833e-06
-9.80879e-05
1.23277e-05
-9.79671e-05
1.52151e-05
-9.76453e-05
1.79037e-05
-9.68364e-05
2.03366e-05
-9.54049e-05
2.23047e-05
-9.33846e-05
2.33986e-05
-9.0882e-05
2.31024e-05
-8.78925e-05
2.09906e-05
-8.41282e-05
-7.90821e-05
1.70156e-05
-3.26336e-06
-0.000115958
-3.71427e-06
-0.000112461
-4.49282e-06
-0.000109782
-5.373e-06
-0.000107725
-6.25397e-06
-0.000106158
-6.99769e-06
-0.000104873
-7.49848e-06
-0.00010377
-7.67263e-06
-0.000102802
-7.45153e-06
-0.000101955
-6.78718e-06
-0.000101236
-5.66922e-06
-0.000100668
-4.16086e-06
-0.000100277
-2.40669e-06
-0.000100053
-5.91362e-07
-9.99034e-05
1.09312e-06
-9.96517e-05
2.50567e-06
-9.9058e-05
3.56137e-06
-9.78922e-05
4.164e-06
-9.60077e-05
4.12939e-06
-9.33502e-05
3.15699e-06
-8.99097e-05
8.88736e-07
-8.56244e-05
-2.93798e-06
-8.03016e-05
-7.36729e-05
-8.34735e-06
-3.35214e-06
-0.000112606
-5.06524e-06
-0.000110747
-6.5648e-06
-0.000108282
-7.94122e-06
-0.000106348
-9.20755e-06
-0.000104892
-1.03153e-05
-0.000103765
-1.1207e-05
-0.000102878
-1.18321e-05
-0.000102177
-1.21534e-05
-0.000101633
-1.21563e-05
-0.000101233
-1.18624e-05
-0.000100962
-1.13465e-05
-0.000100793
-1.07356e-05
-0.000100664
-1.01851e-05
-0.000100454
-9.85127e-06
-9.99856e-05
-9.86209e-06
-9.90473e-05
-1.03167e-05
-9.74377e-05
-1.13199e-05
-9.50047e-05
-1.30188e-05
-9.16514e-05
-1.56149e-05
-8.73138e-05
-1.93235e-05
-8.19159e-05
-2.42835e-05
-7.53418e-05
-6.74679e-05
-3.04886e-05
-3.5632e-06
-0.000109043
-6.02234e-06
-0.000108288
-8.076e-06
-0.000106229
-9.88859e-06
-0.000104536
-1.15294e-05
-0.000103251
-1.3005e-05
-0.00010229
-1.42999e-05
-0.000101583
-1.53965e-05
-0.00010108
-1.62863e-05
-0.000100744
-1.69801e-05
-0.000100539
-1.7517e-05
-0.000100425
-1.79723e-05
-0.000100338
-1.84538e-05
-0.000100183
-1.9087e-05
-9.98209e-05
-1.9996e-05
-9.90768e-05
-2.12873e-05
-9.7756e-05
-2.30506e-05
-9.56746e-05
-2.53736e-05
-9.26818e-05
-2.83584e-05
-8.86668e-05
-3.21223e-05
-8.355e-05
-3.67723e-05
-7.72661e-05
-4.2356e-05
-6.97583e-05
-6.09956e-05
-4.88284e-05
-3.74233e-06
-0.0001053
-6.65787e-06
-0.000105373
-9.12566e-06
-0.000103761
-1.131e-05
-0.000102351
-1.33001e-05
-0.000101261
-1.51342e-05
-0.000100456
-1.68278e-05
-9.98895e-05
-1.83901e-05
-9.95178e-05
-1.98356e-05
-9.92982e-05
-2.11921e-05
-9.91828e-05
-2.25071e-05
-9.91097e-05
-2.38508e-05
-9.89944e-05
-2.53118e-05
-9.8722e-05
-2.69871e-05
-9.81457e-05
-2.89701e-05
-9.70939e-05
-3.13405e-05
-9.53857e-05
-3.41643e-05
-9.28509e-05
-3.74994e-05
-8.93468e-05
-4.14011e-05
-8.47653e-05
-4.59191e-05
-7.90321e-05
-5.10816e-05
-7.21036e-05
-5.6872e-05
-6.39681e-05
-5.46543e-05
-6.32135e-05
-3.84399e-06
-0.000101456
-7.03722e-06
-0.000102179
-9.80627e-06
-0.000100992
-1.22949e-05
-9.98624e-05
-1.45943e-05
-9.89612e-05
-1.6759e-05
-9.82911e-05
-1.88245e-05
-9.78241e-05
-2.08194e-05
-9.7523e-05
-2.27741e-05
-9.73435e-05
-2.4727e-05
-9.723e-05
-2.67279e-05
-9.71089e-05
-2.88386e-05
-9.68837e-05
-3.11293e-05
-9.64314e-05
-3.3671e-05
-9.56041e-05
-3.65276e-05
-9.42374e-05
-3.97504e-05
-9.21631e-05
-4.33759e-05
-8.92255e-05
-4.74283e-05
-8.52945e-05
-5.19204e-05
-8.02734e-05
-5.68499e-05
-7.41027e-05
-6.21916e-05
-6.6762e-05
-6.78871e-05
-5.82727e-05
-4.87015e-05
-7.38401e-05
-3.86822e-06
-9.75881e-05
-7.21862e-06
-9.8829e-05
-1.01961e-05
-9.80143e-05
-1.29208e-05
-9.71377e-05
-1.54779e-05
-9.64041e-05
-1.79283e-05
-9.58407e-05
-2.03189e-05
-9.54334e-05
-2.26906e-05
-9.51514e-05
-2.50833e-05
-9.49508e-05
-2.75408e-05
-9.47726e-05
-3.01112e-05
-9.45385e-05
-3.28469e-05
-9.41481e-05
-3.58004e-05
-9.3478e-05
-3.90195e-05
-9.23851e-05
-4.25418e-05
-9.07152e-05
-4.63905e-05
-8.83144e-05
-5.05736e-05
-8.50426e-05
-5.50837e-05
-8.07845e-05
-5.98985e-05
-7.54587e-05
-6.49789e-05
-6.90224e-05
-7.02656e-05
-6.14754e-05
-7.56772e-05
-5.28613e-05
-4.32686e-05
-8.11103e-05
-3.82743e-06
-9.37606e-05
-7.24851e-06
-9.54079e-05
-1.03572e-05
-9.49055e-05
-1.32514e-05
-9.42435e-05
-1.60075e-05
-9.36479e-05
-1.86869e-05
-9.31612e-05
-2.13415e-05
-9.27788e-05
-2.40183e-05
-9.24746e-05
-2.67623e-05
-9.22068e-05
-2.96183e-05
-9.19166e-05
-3.26308e-05
-9.15261e-05
-3.58421e-05
-9.09369e-05
-3.92892e-05
-9.00309e-05
-4.29998e-05
-8.86746e-05
-4.69885e-05
-8.67266e-05
-5.12545e-05
-8.40486e-05
-5.57805e-05
-8.05166e-05
-6.05337e-05
-7.60315e-05
-6.54656e-05
-7.05268e-05
-7.05129e-05
-6.39752e-05
-7.55973e-05
-5.63911e-05
-8.06273e-05
-4.78314e-05
-3.83943e-05
-8.55018e-05
-3.7374e-06
-9.00232e-05
-7.16355e-06
-9.19817e-05
-1.03376e-05
-9.17314e-05
-1.33382e-05
-9.12429e-05
-1.6232e-05
-9.0754e-05
-1.90773e-05
-9.03159e-05
-2.19265e-05
-8.99295e-05
-2.48287e-05
-8.95724e-05
-2.78299e-05
-8.92055e-05
-3.09738e-05
-8.87727e-05
-3.42997e-05
-8.82002e-05
-3.78406e-05
-8.7396e-05
-4.16202e-05
-8.62514e-05
-4.56496e-05
-8.46452e-05
-4.9925e-05
-8.24513e-05
-5.44261e-05
-7.95476e-05
-5.91162e-05
-7.58265e-05
-6.39436e-05
-7.12042e-05
-6.88425e-05
-6.5628e-05
-7.37355e-05
-5.90823e-05
-7.85357e-05
-5.15911e-05
-8.31502e-05
-4.3217e-05
-3.40596e-05
-8.74851e-05
-3.60956e-06
-8.64136e-05
-6.98969e-06
-8.86015e-05
-1.01732e-05
-8.85479e-05
-1.32222e-05
-8.81938e-05
-1.61936e-05
-8.77826e-05
-1.91403e-05
-8.73691e-05
-2.21127e-05
-8.6957e-05
-2.51588e-05
-8.65264e-05
-2.83234e-05
-8.60409e-05
-3.16471e-05
-8.54489e-05
-3.51641e-05
-8.46833e-05
-3.88992e-05
-8.3661e-05
-4.28653e-05
-8.22854e-05
-4.70606e-05
-8.045e-05
-5.14673e-05
-7.80446e-05
-5.60512e-05
-7.49638e-05
-6.0762e-05
-7.11159e-05
-6.55355e-05
-6.64308e-05
-7.02961e-05
-6.08675e-05
-7.49597e-05
-5.44188e-05
-7.94375e-05
-4.71133e-05
-8.36404e-05
-3.90143e-05
-3.02171e-05
-8.74831e-05
-3.45276e-06
-8.29607e-05
-6.74605e-06
-8.53081e-05
-9.89138e-06
-8.54024e-05
-1.29367e-05
-8.51483e-05
-1.59292e-05
-8.479e-05
-1.89157e-05
-8.43826e-05
-2.19424e-05
-8.39302e-05
-2.50545e-05
-8.34143e-05
-2.82941e-05
-8.28013e-05
-3.16982e-05
-8.20448e-05
-3.52958e-05
-8.10857e-05
-3.91049e-05
-7.98519e-05
-4.31303e-05
-7.82601e-05
-4.73611e-05
-7.62192e-05
-5.177e-05
-7.36358e-05
-5.63134e-05
-7.04205e-05
-6.0933e-05
-6.64964e-05
-6.55579e-05
-6.18059e-05
-7.01083e-05
-5.63172e-05
-7.44987e-05
-5.00285e-05
-7.86425e-05
-4.29697e-05
-8.24561e-05
-3.52007e-05
-2.68095e-05
-8.58639e-05
-3.27191e-06
-7.96888e-05
-6.44562e-06
-8.21344e-05
-9.51283e-06
-8.23352e-05
-1.25089e-05
-8.21522e-05
-1.54717e-05
-8.1827e-05
-1.84415e-05
-8.14127e-05
-2.14596e-05
-8.09121e-05
-2.45672e-05
-8.03067e-05
-2.78029e-05
-7.95655e-05
-3.11998e-05
-7.86479e-05
-3.47824e-05
-7.75031e-05
-3.85636e-05
-7.60707e-05
-4.25422e-05
-7.42815e-05
-4.67014e-05
-7.20601e-05
-5.10083e-05
-6.93289e-05
-5.54146e-05
-6.60142e-05
-5.98581e-05
-6.20529e-05
-6.42661e-05
-5.7398e-05
-6.85583e-05
-5.20251e-05
-7.26514e-05
-4.59354e-05
-7.64633e-05
-3.91578e-05
-7.99173e-05
-3.17469e-05
-2.37812e-05
-8.29458e-05
-3.07062e-06
-7.66181e-05
-6.09836e-06
-7.91065e-05
-9.05398e-06
-7.93794e-05
-1.19615e-05
-7.92446e-05
-1.48503e-05
-7.89381e-05
-1.77538e-05
-7.85091e-05
-2.07082e-05
-7.79576e-05
-2.37504e-05
-7.72644e-05
-2.69151e-05
-7.64009e-05
-3.02314e-05
-7.53315e-05
-3.37202e-05
-7.40143e-05
-3.73903e-05
-7.24006e-05
-4.12369e-05
-7.04349e-05
-4.52402e-05
-6.80569e-05
-4.93646e-05
-6.52045e-05
-5.35605e-05
-6.18184e-05
-5.77655e-05
-5.78479e-05
-6.19082e-05
-5.32554e-05
-6.59111e-05
-4.80223e-05
-6.9695e-05
-4.21515e-05
-7.31838e-05
-3.56692e-05
-7.63072e-05
-2.86235e-05
-2.10831e-05
-7.90055e-05
-2.85089e-06
-7.37672e-05
-5.71195e-06
-7.62454e-05
-8.52848e-06
-7.65628e-05
-1.13143e-05
-7.64587e-05
-1.4091e-05
-7.61613e-05
-1.68859e-05
-7.57141e-05
-1.97303e-05
-7.51132e-05
-2.26566e-05
-7.4338e-05
-2.56956e-05
-7.33618e-05
-2.88729e-05
-7.21542e-05
-3.22059e-05
-7.06814e-05
-3.57007e-05
-6.89058e-05
-3.93506e-05
-6.67851e-05
-4.31344e-05
-6.42731e-05
-4.70169e-05
-6.1322e-05
-5.09494e-05
-5.7886e-05
-5.48722e-05
-5.39251e-05
-5.87172e-05
-4.94105e-05
-6.24116e-05
-4.43279e-05
-6.58821e-05
-3.86811e-05
-6.90584e-05
-3.24929e-05
-7.18775e-05
-2.58046e-05
-1.86749e-05
-7.42859e-05
-2.61521e-06
-7.11518e-05
-5.2941e-06
-7.35664e-05
-7.94888e-06
-7.39079e-05
-1.05848e-05
-7.38226e-05
-1.32172e-05
-7.35289e-05
-1.58681e-05
-7.3063e-05
-1.85646e-05
-7.24167e-05
-2.13349e-05
-7.15677e-05
-2.4206e-05
-7.04907e-05
-2.72e-05
-6.91601e-05
-3.03313e-05
-6.755e-05
-3.36042e-05
-6.56328e-05
-3.70111e-05
-6.33782e-05
-4.05311e-05
-6.0753e-05
-4.41309e-05
-5.77224e-05
-4.77647e-05
-5.42522e-05
-5.13769e-05
-5.03129e-05
-5.49047e-05
-4.58828e-05
-5.8281e-05
-4.09517e-05
-6.14387e-05
-3.55234e-05
-6.43143e-05
-2.96174e-05
-6.68509e-05
-2.3268e-05
-1.65245e-05
-6.90015e-05
-2.36688e-06
-6.87849e-05
-4.85331e-06
-7.10799e-05
-7.32769e-06
-7.14334e-05
-9.78959e-06
-7.13606e-05
-1.22499e-05
-7.10684e-05
-1.47274e-05
-7.05854e-05
-1.72455e-05
-6.98984e-05
-1.98291e-05
-6.8984e-05
-2.25013e-05
-6.78184e-05
-2.52808e-05
-6.63806e-05
-2.81792e-05
-6.46515e-05
-3.11994e-05
-6.26127e-05
-3.43333e-05
-6.02443e-05
-3.75617e-05
-5.75246e-05
-4.0854e-05
-5.44301e-05
-4.41687e-05
-5.09375e-05
-4.74556e-05
-4.70261e-05
-5.06575e-05
-4.26809e-05
-5.37139e-05
-3.78954e-05
-5.6564e-05
-3.26733e-05
-5.91507e-05
-2.70308e-05
-6.14234e-05
-2.09954e-05
-1.46072e-05
-6.33409e-05
-2.11238e-06
-6.66723e-05
-4.40089e-06
-6.87912e-05
-6.6786e-06
-6.91555e-05
-8.94451e-06
-6.90945e-05
-1.12085e-05
-6.88043e-05
-1.34877e-05
-6.8306e-05
-1.58035e-05
-6.75825e-05
-1.81776e-05
-6.66099e-05
-2.06294e-05
-6.53665e-05
-2.31742e-05
-6.38358e-05
-2.58207e-05
-6.2005e-05
-2.85702e-05
-5.98632e-05
-3.14149e-05
-5.73996e-05
-3.43377e-05
-5.46018e-05
-3.73114e-05
-5.14564e-05
-4.02995e-05
-4.79493e-05
-4.32575e-05
-4.40681e-05
-4.61345e-05
-3.98039e-05
-4.88764e-05
-3.51535e-05
-5.14284e-05
-3.01213e-05
-5.37395e-05
-2.47198e-05
-5.57648e-05
-1.89701e-05
-1.29027e-05
-5.74695e-05
-1.8623e-06
-6.48099e-05
-3.95139e-06
-6.6702e-05
-6.01675e-06
-6.709e-05
-8.06542e-06
-6.70457e-05
-1.01105e-05
-6.67591e-05
-1.21704e-05
-6.62461e-05
-1.42649e-05
-6.54879e-05
-1.64131e-05
-6.44616e-05
-1.86307e-05
-6.31488e-05
-2.0929e-05
-6.15374e-05
-2.33139e-05
-5.962e-05
-2.57851e-05
-5.7392e-05
-2.83351e-05
-5.48495e-05
-3.09489e-05
-5.1988e-05
-3.36035e-05
-4.88019e-05
-3.62676e-05
-4.52852e-05
-3.89028e-05
-4.14329e-05
-4.14646e-05
-3.72422e-05
-4.39045e-05
-3.27136e-05
-4.61733e-05
-2.78525e-05
-4.82246e-05
-2.26686e-05
-5.00188e-05
-1.7176e-05
-1.13946e-05
-5.1527e-05
-1.63201e-06
-6.31776e-05
-3.52313e-06
-6.48106e-05
-5.35842e-06
-6.52545e-05
-7.16754e-06
-6.52364e-05
-8.97238e-06
-6.49541e-05
-1.07943e-05
-6.4424e-05
-1.26528e-05
-6.36292e-05
-1.45637e-05
-6.25505e-05
-1.65387e-05
-6.11737e-05
-1.85848e-05
-5.94911e-05
-2.07048e-05
-5.74999e-05
-2.28967e-05
-5.52001e-05
-2.51535e-05
-5.25927e-05
-2.74625e-05
-4.96789e-05
-2.98049e-05
-4.64594e-05
-3.21552e-05
-4.29349e-05
-3.44813e-05
-3.91069e-05
-3.67448e-05
-3.49787e-05
-3.89026e-05
-3.05558e-05
-4.09095e-05
-2.58456e-05
-4.27218e-05
-2.08563e-05
-4.43029e-05
-1.55949e-05
-1.00675e-05
-4.56302e-05
-1.44029e-06
-6.17373e-05
-3.13588e-06
-6.31149e-05
-4.71939e-06
-6.36708e-05
-6.26448e-06
-6.36911e-05
-7.80833e-06
-6.341e-05
-9.3767e-06
-6.28554e-05
-1.09879e-05
-6.20179e-05
-1.2654e-05
-6.08843e-05
-1.43815e-05
-5.94461e-05
-1.61731e-05
-5.76994e-05
-1.80282e-05
-5.56448e-05
-1.99432e-05
-5.3285e-05
-2.19117e-05
-5.06242e-05
-2.39237e-05
-4.76669e-05
-2.59648e-05
-4.44183e-05
-2.80156e-05
-4.08841e-05
-3.00508e-05
-3.70717e-05
-3.20386e-05
-3.29909e-05
-3.39412e-05
-2.86532e-05
-3.57155e-05
-2.40713e-05
-3.73175e-05
-1.92544e-05
-3.87095e-05
-1.42031e-05
-8.90429e-06
-3.98729e-05
-1.32061e-06
-6.04164e-05
-2.8122e-06
-6.16231e-05
-4.11327e-06
-6.23696e-05
-5.3667e-06
-6.24375e-05
-6.63036e-06
-6.21462e-05
-7.93312e-06
-6.15525e-05
-9.28976e-06
-6.06611e-05
-1.07063e-05
-5.94676e-05
-1.21835e-05
-5.79688e-05
-1.37192e-05
-5.61637e-05
-1.53096e-05
-5.40543e-05
-1.69502e-05
-5.16443e-05
-1.86353e-05
-4.8939e-05