/*--------------------------------*- C++ -*----------------------------------*\
  =========                 |
  \\      /  F ield         | OpenFOAM: The Open Source CFD Toolbox
   \\    /   O peration     | Website:  https://openfoam.org
    \\  /    A nd           | Version:  13
     \\/     M anipulation  |
\*---------------------------------------------------------------------------*/
FoamFile
{
    format      ascii;
    class       volVectorField;
    location    "0.25";
    object      U;
}
// * * * * * * * * * * * * * * * * * * * * * * * * * * * * * * * * * * * * * //

dimensions      [0 1 -1 0 0 0 0];

internalField   nonuniform List<vector> 
2268
(
(-0.0131216 0.00411672 0)
(-0.00160154 -0.00655678 0)
(0.0330386 -0.0113761 0)
(0.0720498 -0.0128896 0)
(0.115166 -0.013667 0)
(0.160452 -0.0141347 0)
(0.20725 -0.0145093 0)
(0.255257 -0.0148639 0)
(0.304301 -0.0152115 0)
(0.354234 -0.0155455 0)
(0.404894 -0.0158506 0)
(0.456039 -0.0160787 0)
(0.507124 -0.0160506 0)
(0.556648 -0.0153793 0)
(0.602105 -0.0139591 0)
(0.640997 -0.0121004 0)
(0.671751 -0.0100316 0)
(0.692904 -0.00695839 0)
(0.698052 0.000122242 0)
(0.668946 0.0147936 0)
(0.583653 0.0393985 0)
(0.378606 0.0716815 0)
(0.186332 0.0870829 0)
(0.00190413 0.00301558 0)
(0.0251426 -0.0173145 0)
(0.0610728 -0.026118 0)
(0.100897 -0.0299463 0)
(0.144084 -0.0320612 0)
(0.189237 -0.0333992 0)
(0.235699 -0.0343728 0)
(0.283095 -0.035146 0)
(0.331164 -0.035772 0)
(0.379687 -0.0362651 0)
(0.428446 -0.0365996 0)
(0.477157 -0.0366645 0)
(0.525301 -0.0360497 0)
(0.571472 -0.0338979 0)
(0.613201 -0.02982 0)
(0.647773 -0.0242645 0)
(0.672998 -0.0176811 0)
(0.687336 -0.00886485 0)
(0.685778 0.00901393 0)
(0.652573 0.0448738 0)
(0.566806 0.101518 0)
(0.373527 0.163296 0)
(0.188698 0.176542 0)
(0.0152485 -0.00738853 0)
(0.0442273 -0.032584 0)
(0.0818733 -0.0437528 0)
(0.12185 -0.0491811 0)
(0.164389 -0.0522892 0)
(0.208558 -0.0542942 0)
(0.253811 -0.0557272 0)
(0.29978 -0.0568161 0)
(0.346173 -0.0576463 0)
(0.39275 -0.058245 0)
(0.439265 -0.0585659 0)
(0.485417 -0.0584373 0)
(0.530726 -0.0572233 0)
(0.573866 -0.053594 0)
(0.612424 -0.0468357 0)
(0.643589 -0.0374265 0)
(0.664606 -0.0259482 0)
(0.673946 -0.0112238 0)
(0.668176 0.0170924 0)
(0.634052 0.0730099 0)
(0.552039 0.162177 0)
(0.375029 0.260354 0)
(0.199341 0.299829 0)
(0.025016 -0.0242843 0)
(0.059078 -0.0500808 0)
(0.0989162 -0.0621478 0)
(0.139134 -0.0685483 0)
(0.180985 -0.0723888 0)
(0.224031 -0.0749091 0)
(0.267898 -0.0766818 0)
(0.312263 -0.0779648 0)
(0.35684 -0.0788694 0)
(0.401391 -0.0794359 0)
(0.445665 -0.079597 0)
(0.48935 -0.079134 0)
(0.53201 -0.0772071 0)
(0.572378 -0.0720179 0)
(0.608116 -0.0625011 0)
(0.636411 -0.0490055 0)
(0.653908 -0.0320093 0)
(0.65885 -0.0109849 0)
(0.649343 0.0271218 0)
(0.614613 0.100961 0)
(0.536488 0.219604 0)
(0.373724 0.352118 0)
(0.208133 0.428304 0)
(0.0317641 -0.0457625 0)
(0.0703984 -0.0694723 0)
(0.112633 -0.0811903 0)
(0.153255 -0.0879561 0)
(0.194525 -0.0922558 0)
(0.236477 -0.0951465 0)
(0.278937 -0.0971606 0)
(0.321654 -0.0985455 0)
(0.364369 -0.0994477 0)
(0.406881 -0.0999193 0)
(0.448947 -0.099867 0)
(0.490241 -0.0990336 0)
(0.53033 -0.0963952 0)
(0.567977 -0.0896879 0)
(0.601001 -0.0774679 0)
(0.626724 -0.0597969 0)
(0.641185 -0.0366543 0)
(0.641619 -0.00891897 0)
(0.62726 0.0385487 0)
(0.590131 0.128609 0)
(0.514331 0.274005 0)
(0.364399 0.438271 0)
(0.211169 0.555857 0)
(0.0368648 -0.0699399 0)
(0.0787874 -0.0902725 0)
(0.123138 -0.100757 0)
(0.164158 -0.107316 0)
(0.204921 -0.11178 0)
(0.24584 -0.114884 0)
(0.286925 -0.117045 0)
(0.327993 -0.118471 0)
(0.368835 -0.119341 0)
(0.40933 -0.119718 0)
(0.449261 -0.119457 0)
(0.488261 -0.118238 0)
(0.5258 -0.114831 0)
(0.560602 -0.106452 0)
(0.590797 -0.0912319 0)
(0.614029 -0.0691638 0)
(0.626013 -0.0401912 0)
(0.621388 -0.00629638 0)
(0.599265 0.0491616 0)
(0.554658 0.15258 0)
(0.478362 0.322889 0)
(0.343974 0.51695 0)
(0.207141 0.680324 0)
(0.0413693 -0.0974037 0)
(0.084522 -0.112606 0)
(0.130398 -0.121175 0)
(0.171675 -0.126975 0)
(0.211948 -0.131285 0)
(0.251883 -0.134411 0)
(0.291626 -0.136608 0)
(0.331053 -0.137987 0)
(0.370034 -0.138738 0)
(0.408579 -0.13885 0)
(0.446519 -0.138031 0)
(0.48343 -0.13582 0)
(0.518481 -0.130853 0)
(0.550168 -0.120065 0)
(0.577072 -0.101628 0)
(0.597198 -0.0756039 0)
(0.606675 -0.039469 0)
(0.595853 0.00252792 0)
(0.563522 0.0652851 0)
(0.504925 0.177084 0)
(0.422748 0.362911 0)
(0.313773 0.583376 0)
(0.198599 0.800192 0)
(0.045624 -0.132952 0)
(0.0872108 -0.137704 0)
(0.1342 -0.142972 0)
(0.175624 -0.147114 0)
(0.215413 -0.150665 0)
(0.254396 -0.153328 0)
(0.292812 -0.155108 0)
(0.330625 -0.155932 0)
(0.367836 -0.156079 0)
(0.404602 -0.155551 0)
(0.440751 -0.153927 0)
(0.475815 -0.150595 0)
(0.508595 -0.143957 0)
(0.537364 -0.130784 0)
(0.561423 -0.109456 0)
(0.578834 -0.0795222 0)
(0.588632 -0.0362836 0)
(0.579233 0.0191383 0)
(0.544395 0.0939164 0)
(0.463279 0.213393 0)
(0.36544 0.410568 0)
(0.287429 0.639083 0)
(0.208981 0.911269 0)
(-1.00399 0.0658684 0)
(-1.07662 -0.0703187 0)
(-1.18876 -0.0327791 0)
(-1.26365 -0.0115154 0)
(-1.14328 -0.067956 0)
(-0.734438 -0.179114 0)
(-0.264427 -0.17315 0)
(0.206666 -0.129536 0)
(0.475323 -0.091061 0)
(0.727466 -0.0746268 0)
(0.94341 -0.0644618 0)
(1.12665 -0.0547559 0)
(1.2746 -0.0428393 0)
(1.37255 -0.0247338 0)
(1.40029 0.00213652 0)
(1.32582 0.038357 0)
(1.12581 0.0845183 0)
(0.657933 0.138851 0)
(0.390772 0.144596 0)
(-0.984034 0.54258 0)
(-0.988341 0.133296 0)
(-1.141 0.047264 0)
(-1.11701 0.0132563 0)
(-0.816181 -0.133904 0)
(-0.38044 -0.332199 0)
(0.0160681 -0.284452 0)
(0.348285 -0.224272 0)
(0.60916 -0.173039 0)
(0.841021 -0.146341 0)
(1.03965 -0.126665 0)
(1.20695 -0.105897 0)
(1.34012 -0.0790716 0)
(1.42936 -0.0409277 0)
(1.4576 0.0139568 0)
(1.39476 0.0933738 0)
(1.21497 0.198716 0)
(0.772585 0.309434 0)
(0.446171 0.293518 0)
(-1.01273 0.824854 0)
(-0.656339 0.182886 0)
(-1.1836 -0.0257638 0)
(-1.03404 -0.0461716 0)
(-0.391598 -0.350716 0)
(-0.0595239 -0.507097 0)
(0.230295 -0.415824 0)
(0.489099 -0.33292 0)
(0.717698 -0.2705 0)
(0.923539 -0.230864 0)
(1.1022 -0.199127 0)
(1.25322 -0.165785 0)
(1.37304 -0.12375 0)
(1.45271 -0.0650236 0)
(1.47713 0.0201123 0)
(1.41888 0.14478 0)
(1.25399 0.315027 0)
(0.845138 0.504679 0)
(0.500526 0.534172 0)
(-0.700125 1.52902 0)
(-0.665697 0.334215 0)
(-1.44419 0.163558 0)
(-0.595549 -0.105451 0)
(0.11441 -0.629805 0)
(0.222881 -0.627587 0)
(0.423003 -0.517936 0)
(0.624759 -0.425636 0)
(0.816366 -0.35642 0)
(0.994844 -0.307068 0)
(1.15355 -0.264942 0)
(1.28954 -0.22007 0)
(1.39822 -0.163763 0)
(1.47083 -0.0858306 0)
(1.4936 0.0268761 0)
(1.44055 0.192852 0)
(1.28708 0.425651 0)
(0.901322 0.697277 0)
(0.548184 0.805765 0)
(-0.477282 1.53377 0)
(-0.489488 0.398109 0)
(-1.39836 -0.247613 0)
(0.223099 -0.556419 0)
(0.472368 -0.783472 0)
(0.458175 -0.694849 0)
(0.590135 -0.588249 0)
(0.744632 -0.499435 0)
(0.902749 -0.429084 0)
(1.0563 -0.374063 0)
(1.19695 -0.324216 0)
(1.31985 -0.269736 0)
(1.41954 -0.200858 0)
(1.48737 -0.105582 0)
(1.5107 0.0323343 0)
(1.46433 0.237102 0)
(1.32067 0.531085 0)
(0.948123 0.887423 0)
(0.588518 1.09503 0)
(-0.27761 1.58869 0)
(-0.247942 0.38385 0)
(0.535153 0.31072 0)
(0.694605 -0.664533 0)
(0.666001 -0.803551 0)
(0.636844 -0.725264 0)
(0.723928 -0.636898 0)
(0.844003 -0.557644 0)
(0.975442 -0.48979 0)
(1.10814 -0.432259 0)
(1.23334 -0.377103 0)
(1.34516 -0.314949 0)
(1.43763 -0.235325 0)
(1.50231 -0.124756 0)
(1.52764 0.0361252 0)
(1.48861 0.278226 0)
(1.35215 0.633575 0)
(0.983821 1.07731 0)
(0.6212 1.40085 0)
(-0.183929 1.69995 0)
(-0.238809 0.506934 0)
(0.795095 -0.492808 0)
(0.837753 -0.676174 0)
(0.781177 -0.783537 0)
(0.763895 -0.741793 0)
(0.82801 -0.673951 0)
(0.924748 -0.605122 0)
(1.03574 -0.541396 0)
(1.15142 -0.483387 0)
(1.26355 -0.424743 0)
(1.36591 -0.356525 0)
(1.45231 -0.267768 0)
(1.51467 -0.143685 0)
(1.5424 0.0386225 0)
(1.50941 0.318118 0)
(1.37275 0.736231 0)
(0.997084 1.26666 0)
(0.642119 1.7184 0)
(-0.0557783 2.09673 0)
(0.703911 -0.0617615 0)
(0.865895 -0.452866 0)
(0.883635 -0.660764 0)
(0.857455 -0.771389 0)
(0.858714 -0.757419 0)
(0.911012 -0.706236 0)
(0.991037 -0.646809 0)
(1.08587 -0.587716 0)
(1.18742 -0.530376 0)
(1.28827 -0.469404 0)
(1.3822 -0.39616 0)
(1.46295 -0.29927 0)
(1.52298 -0.16286 0)
(1.55219 0.0393561 0)
(1.52062 0.35281 0)
(1.36406 0.826713 0)
(0.96096 1.44101 0)
(0.643656 2.02172 0)
(0.0500246 -0.171758 0)
(0.0876855 -0.168506 0)
(0.1354 -0.17089 0)
(0.176687 -0.173112 0)
(0.2157 -0.175474 0)
(0.253255 -0.177192 0)
(0.289552 -0.177959 0)
(0.325123 -0.177515 0)
(0.360333 -0.176988 0)
(0.395391 -0.176004 0)
(0.430007 -0.173918 0)
(0.463428 -0.170071 0)
(0.494003 -0.16267 0)
(0.520776 -0.149353 0)
(0.54758 -0.132884 0)
(0.57382 -0.100487 0)
(0.594053 -0.0442739 0)
(0.601691 0.033495 0)
(0.591572 0.146136 0)
(0.578701 0.321094 0)
(0.443933 0.530216 0)
(0.349971 0.691728 0)
(0.425328 0.957418 0)
(0.0486792 -0.237184 0)
(0.0752683 -0.211045 0)
(0.126179 -0.209319 0)
(0.167034 -0.208091 0)
(0.205647 -0.208273 0)
(0.242012 -0.208403 0)
(0.276887 -0.207941 0)
(0.311053 -0.208513 0)
(0.345055 -0.210408 0)
(0.378822 -0.212132 0)
(0.412917 -0.212711 0)
(0.447579 -0.210732 0)
(0.483131 -0.203681 0)
(0.520208 -0.188202 0)
(0.554994 -0.162353 0)
(0.584536 -0.122386 0)
(0.608666 -0.0641126 0)
(0.626702 0.0176868 0)
(0.636402 0.135966 0)
(0.649625 0.317096 0)
(0.666951 0.564646 0)
(0.519113 0.730274 0)
(0.545005 0.8668 0)
(0.0200563 -0.294946 0)
(0.0496849 -0.268232 0)
(0.0941697 -0.266002 0)
(0.132964 -0.263062 0)
(0.170908 -0.261948 0)
(0.207699 -0.262135 0)
(0.244318 -0.262897 0)
(0.281983 -0.263516 0)
(0.32055 -0.263055 0)
(0.359684 -0.261084 0)
(0.399509 -0.257263 0)
(0.439719 -0.250643 0)
(0.479734 -0.239372 0)
(0.518823 -0.220922 0)
(0.555262 -0.192782 0)
(0.587503 -0.150016 0)
(0.615355 -0.0879891 0)
(0.63918 -0.00128768 0)
(0.6589 0.120551 0)
(0.677318 0.299211 0)
(0.718033 0.554429 0)
(0.760252 0.746512 0)
(0.744321 0.800972 0)
(0.00675823 -0.311229 0)
(0.036938 -0.302962 0)
(0.0755422 -0.300537 0)
(0.113157 -0.297177 0)
(0.151212 -0.294275 0)
(0.189303 -0.292217 0)
(0.227473 -0.291221 0)
(0.265944 -0.291537 0)
(0.304942 -0.292583 0)
(0.344632 -0.293182 0)
(0.385108 -0.292184 0)
(0.426138 -0.287946 0)
(0.467094 -0.278022 0)
(0.506996 -0.25925 0)
(0.544402 -0.228288 0)
(0.577972 -0.181542 0)
(0.607366 -0.115382 0)
(0.633157 -0.025048 0)
(0.655071 0.0979056 0)
(0.675128 0.268174 0)
(0.733965 0.500945 0)
(0.846656 0.686044 0)
(0.989472 0.73556 0)
(0.0105323 -0.330477 0)
(0.0382566 -0.334461 0)
(0.0726938 -0.333572 0)
(0.10764 -0.331486 0)
(0.143578 -0.329601 0)
(0.180056 -0.328542 0)
(0.216881 -0.328583 0)
(0.253972 -0.329714 0)
(0.291376 -0.331476 0)
(0.329253 -0.332935 0)
(0.367776 -0.33277 0)
(0.406949 -0.329017 0)
(0.446423 -0.318787 0)
(0.485262 -0.298415 0)
(0.521835 -0.264217 0)
(0.554493 -0.213156 0)
(0.582479 -0.142601 0)
(0.605497 -0.0490098 0)
(0.62397 0.0725656 0)
(0.653576 0.231234 0)
(0.733597 0.406515 0)
(0.869052 0.534508 0)
(1.05485 0.568201 0)
(0.0142751 -0.356104 0)
(0.0414082 -0.366661 0)
(0.0740148 -0.367332 0)
(0.10685 -0.366252 0)
(0.140466 -0.365094 0)
(0.174494 -0.364573 0)
(0.208739 -0.365004 0)
(0.243056 -0.366404 0)
(0.277391 -0.368426 0)
(0.311835 -0.37028 0)
(0.346606 -0.37065 0)
(0.381987 -0.36741 0)
(0.418048 -0.357179 0)
(0.454028 -0.335504 0)
(0.487928 -0.298039 0)
(0.517317 -0.242148 0)
(0.540585 -0.166531 0)
(0.558103 -0.0703079 0)
(0.580221 0.0483494 0)
(0.62904 0.173822 0)
(0.71656 0.287992 0)
(0.849806 0.367544 0)
(1.02187 0.379402 0)
(0.0163691 -0.38401 0)
(0.0436941 -0.39811 0)
(0.0757385 -0.399497 0)
(0.107076 -0.39889 0)
(0.138696 -0.398022 0)
(0.170278 -0.39761 0)
(0.201638 -0.397972 0)
(0.232593 -0.399178 0)
(0.263015 -0.401005 0)
(0.292911 -0.402828 0)
(0.322489 -0.403495 0)
(0.352346 -0.40097 0)
(0.38317 -0.391351 0)
(0.414573 -0.368883 0)
(0.443968 -0.32788 0)
(0.467645 -0.266088 0)
(0.485112 -0.185702 0)
(0.504085 -0.0893675 0)
(0.540984 0.00842128 0)
(0.600951 0.0985527 0)
(0.690247 0.176284 0)
(0.810676 0.224027 0)
(0.955253 0.22266 0)
(0.0183964 -0.413173 0)
(0.0454971 -0.429395 0)
(0.0776112 -0.430469 0)
(0.107698 -0.429664 0)
(0.137593 -0.428563 0)
(0.166943 -0.427776 0)
(0.195535 -0.427552 0)
(0.223097 -0.427972 0)
(0.249383 -0.428903 0)
(0.274214 -0.429887 0)
(0.297616 -0.430092 0)
(0.32042 -0.428068 0)
(0.344164 -0.419542 0)
(0.369045 -0.396854 0)
(0.391763 -0.351664 0)
(0.40953 -0.284046 0)
(0.427402 -0.202501 0)
(0.458498 -0.121857 0)
(0.505603 -0.0470541 0)
(0.571844 0.0211176 0)
(0.658684 0.0753957 0)
(0.764599 0.104002 0)
(0.884061 0.0963644 0)
(0.022111 -0.445717 0)
(0.0470898 -0.462029 0)
(0.0797909 -0.461911 0)
(0.108602 -0.460275 0)
(0.13695 -0.458454 0)
(0.164367 -0.456834 0)
(0.190573 -0.455479 0)
(0.215181 -0.454409 0)
(0.237794 -0.45351 0)
(0.257956 -0.452381 0)
(0.275185 -0.450492 0)
(0.290137 -0.447769 0)
(0.30514 -0.440142 0)
(0.321026 -0.417834 0)
(0.336251 -0.369676 0)
(0.35274 -0.30061 0)
(0.380431 -0.232027 0)
(0.420786 -0.167419 0)
(0.47477 -0.107431 0)
(0.542812 -0.0556374 0)
(0.624676 -0.0172914 0)
(0.71807 0.000335226 0)
(0.818651 -0.00969985 0)
(0.0305236 -0.484507 0)
(0.0481307 -0.49505 0)
(0.0814946 -0.493341 0)
(0.108819 -0.49031 0)
(0.135734 -0.487196 0)
(0.161551 -0.484132 0)
(0.185929 -0.480899 0)
(0.208416 -0.477531 0)
(0.228561 -0.473979 0)
(0.245649 -0.469842 0)
(0.258565 -0.464654 0)
(0.266968 -0.459949 0)
(0.273111 -0.452214 0)
(0.278896 -0.430839 0)
(0.287541 -0.385914 0)
(0.308794 -0.328927 0)
(0.344278 -0.274225 0)
(0.390605 -0.221407 0)
(0.447683 -0.173122 0)
(0.514947 -0.132905 0)
(0.59146 -0.104899 0)
(0.675182 -0.0940211 0)
(0.763629 -0.104844 0)
(0.0452185 -0.515498 0)
(0.0493317 -0.5191 0)
(0.081972 -0.516298 0)
(0.107426 -0.512068 0)
(0.132893 -0.507555 0)
(0.157257 -0.503 0)
(0.180317 -0.497998 0)
(0.201745 -0.492505 0)
(0.221028 -0.486375 0)
(0.237237 -0.478909 0)
(0.248976 -0.468693 0)
(0.25351 -0.460627 0)
(0.25154 -0.453938 0)
(0.248751 -0.434199 0)
(0.257873 -0.397845 0)
(0.282452 -0.357517 0)
(0.319106 -0.316318 0)
(0.366301 -0.274496 0)
(0.422708 -0.23597 0)
(0.487223 -0.204158 0)
(0.55855 -0.182207 0)
(0.634935 -0.173484 0)
(0.715022 -0.181692 0)
(0.344266 -0.561342 0)
(0.0337857 -0.529856 0)
(0.0851332 -0.512766 0)
(0.103621 -0.510428 0)
(0.127769 -0.504757 0)
(0.151959 -0.500216 0)
(0.174655 -0.495337 0)
(0.1958 -0.490404 0)
(0.214121 -0.485345 0)
(0.227262 -0.479115 0)
(0.2363 -0.467548 0)
(0.241456 -0.456109 0)
(0.235834 -0.449716 0)
(0.225011 -0.432918 0)
(0.23404 -0.404093 0)
(0.262623 -0.37632 0)
(0.299295 -0.344356 0)
(0.344976 -0.310158 0)
(0.399237 -0.278094 0)
(0.460944 -0.251405 0)
(0.528907 -0.232558 0)
(0.602704 -0.224075 0)
(0.681724 -0.229134 0)
(0.134319 -0.773335 0)
(0.018519 -0.440919 0)
(0.0818155 -0.586652 0)
(0.0873085 -0.600244 0)
(0.105304 -0.598099 0)
(0.121132 -0.592821 0)
(0.133941 -0.585882 0)
(0.145176 -0.574178 0)
(0.155378 -0.556168 0)
(0.164133 -0.532692 0)
(0.172022 -0.499545 0)
(0.181713 -0.461631 0)
(0.194413 -0.438106 0)
(0.209758 -0.436694 0)
(0.22232 -0.429453 0)
(0.235516 -0.394621 0)
(0.266802 -0.354581 0)
(0.313232 -0.317102 0)
(0.371861 -0.284464 0)
(0.440903 -0.258709 0)
(0.520111 -0.243257 0)
(0.609134 -0.244246 0)
(0.702759 -0.270282 0)
(-0.0275128 -0.766517 0)
(-0.00342328 -0.475056 0)
(0.0458141 -0.578158 0)
(0.0513731 -0.592901 0)
(0.0647286 -0.586307 0)
(0.0762122 -0.573691 0)
(0.0860266 -0.559476 0)
(0.094321 -0.545195 0)
(0.101771 -0.530364 0)
(0.109341 -0.514139 0)
(0.119 -0.49495 0)
(0.132915 -0.475541 0)
(0.150539 -0.463691 0)
(0.166734 -0.460359 0)
(0.185984 -0.471186 0)
(0.212481 -0.48905 0)
(0.246493 -0.504213 0)
(0.286775 -0.51192 0)
(0.333598 -0.515782 0)
(0.38665 -0.522533 0)
(0.444852 -0.537148 0)
(0.504218 -0.557045 0)
(0.560028 -0.552466 0)
(-0.0491333 -0.702843 0)
(-0.00733241 -0.554038 0)
(0.0275276 -0.581582 0)
(0.0291217 -0.583506 0)
(0.0344097 -0.577626 0)
(0.0389617 -0.568687 0)
(0.0438715 -0.558387 0)
(0.0492758 -0.547115 0)
(0.0554962 -0.534826 0)
(0.0633418 -0.521443 0)
(0.0743853 -0.507144 0)
(0.0900139 -0.493928 0)
(0.109905 -0.484713 0)
(0.132344 -0.478899 0)
(0.157273 -0.475876 0)
(0.184807 -0.47429 0)
(0.215038 -0.469781 0)
(0.247779 -0.461024 0)
(0.283077 -0.451535 0)
(0.319546 -0.445631 0)
(0.354204 -0.445831 0)
(0.383227 -0.450034 0)
(0.404363 -0.447936 0)
(-0.0365716 -0.674458 0)
(-0.00898848 -0.59154 0)
(0.00864752 -0.592792 0)
(0.00879106 -0.586998 0)
(0.00949342 -0.57972 0)
(0.00961531 -0.571259 0)
(0.010651 -0.56209 0)
(0.0131573 -0.552391 0)
(0.0176156 -0.542167 0)
(0.0246665 -0.531549 0)
(0.0352319 -0.521026 0)
(0.0499771 -0.511944 0)
(0.0685063 -0.505674 0)
(0.0895498 -0.502158 0)
(0.112097 -0.500817 0)
(0.135165 -0.499178 0)
(0.158341 -0.495292 0)
(0.18189 -0.48859 0)
(0.205554 -0.480461 0)
(0.227403 -0.473226 0)
(0.244013 -0.467907 0)
(0.251643 -0.462468 0)
(0.248195 -0.452009 0)
(-0.0243188 -0.653127 0)
(-0.0132415 -0.607736 0)
(-0.00831632 -0.597434 0)
(-0.0103489 -0.587531 0)
(-0.0126893 -0.579221 0)
(-0.0151678 -0.57123 0)
(-0.0166186 -0.563322 0)
(-0.0163957 -0.555438 0)
(-0.0139853 -0.5476 0)
(-0.0088905 -0.539988 0)
(-0.000622278 -0.533017 0)
(0.0109859 -0.527468 0)
(0.0253912 -0.523989 0)
(0.0415081 -0.522424 0)
(0.0581034 -0.521842 0)
(0.0741154 -0.520578 0)
(0.0891111 -0.516972 0)
(0.103017 -0.510293 0)
(0.115263 -0.501001 0)
(0.124137 -0.490078 0)
(0.126889 -0.477709 0)
(0.120691 -0.4621 0)
(0.104223 -0.439807 0)
(-0.0177401 -0.634861 0)
(-0.0182926 -0.609852 0)
(-0.0215859 -0.595569 0)
(-0.0264689 -0.584328 0)
(-0.0312968 -0.575716 0)
(-0.0357912 -0.568378 0)
(-0.0392455 -0.561788 0)
(-0.0411521 -0.555745 0)
(-0.0411004 -0.55021 0)
(-0.0387644 -0.545287 0)
(-0.0339506 -0.541201 0)
(-0.0267688 -0.538266 0)
(-0.017795 -0.536607 0)
(-0.00797366 -0.535833 0)
(0.00162494 -0.534998 0)
(0.0100579 -0.532693 0)
(0.0167714 -0.527569 0)
(0.021393 -0.518853 0)
(0.0232475 -0.506423 0)
(0.0210137 -0.490452 0)
(0.0127663 -0.47069 0)
(-0.00344555 -0.445795 0)
(-0.0282074 -0.413745 0)
(-0.0150475 -0.617007 0)
(-0.0227596 -0.603256 0)
(-0.0313393 -0.589098 0)
(-0.0390506 -0.578105 0)
(-0.0461708 -0.56985 0)
(-0.0526109 -0.563329 0)
(-0.0580451 -0.557998 0)
(-0.062172 -0.55358 0)
(-0.0647451 -0.549956 0)
(-0.0656107 -0.547101 0)
(-0.0647682 -0.545032 0)
(-0.062464 -0.543725 0)
(-0.0592544 -0.542953 0)
(-0.0559357 -0.542127 0)
(-0.0533872 -0.540292 0)
(-0.0523907 -0.536246 0)
(-0.0535243 -0.528841 0)
(-0.0572811 -0.517256 0)
(-0.0642984 -0.501039 0)
(-0.0755277 -0.479927 0)
(-0.0922115 -0.453509 0)
(-0.115465 -0.420989 0)
(-0.145213 -0.381357 0)
(-0.0141617 -0.598232 0)
(-0.0261603 -0.591558 0)
(-0.0382183 -0.579269 0)
(-0.0484159 -0.569394 0)
(-0.0576599 -0.561953 0)
(-0.0660369 -0.556329 0)
(-0.0734951 -0.552079 0)
(-0.0799305 -0.548922 0)
(-0.08526 -0.546675 0)
(-0.0894771 -0.545196 0)
(-0.092705 -0.544322 0)
(-0.0952476 -0.543796 0)
(-0.0976091 -0.543168 0)
(-0.100441 -0.541723 0)
(-0.104437 -0.538508 0)
(-0.110227 -0.532438 0)
(-0.118321 -0.522477 0)
(-0.12917 -0.507799 0)
(-0.143266 -0.487813 0)
(-0.161215 -0.462096 0)
(-0.183711 -0.430248 0)
(-0.21129 -0.391827 0)
(-0.243328 -0.346472 0)
(-0.0138995 -0.578383 0)
(-0.0284537 -0.576786 0)
(-0.042833 -0.5669 0)
(-0.0550816 -0.558518 0)
(-0.0662308 -0.552107 0)
(-0.0764687 -0.547369 0)
(-0.0859224 -0.54399 0)
(-0.0946454 -0.541716 0)
(-0.10269 -0.540326 0)
(-0.110159 -0.53959 0)
(-0.117251 -0.539217 0)
(-0.124282 -0.538794 0)
(-0.131689 -0.537738 0)
(-0.139985 -0.535267 0)
(-0.149697 -0.530442 0)
(-0.161294 -0.522253 0)
(-0.175162 -0.509743 0)
(-0.191622 -0.492113 0)
(-0.210971 -0.468756 0)
(-0.233504 -0.43924 0)
(-0.259507 -0.403265 0)
(-0.289102 -0.360664 0)
(-0.321309 -0.311475 0)
(-0.0137172 -0.557798 0)
(-0.0297623 -0.560128 0)
(-0.0456858 -0.55264 0)
(-0.0595482 -0.54582 0)
(-0.0723301 -0.540471 0)
(-0.0842612 -0.536529 0)
(-0.0955744 -0.533796 0)
(-0.106433 -0.532055 0)
(-0.116987 -0.531068 0)
(-0.127416 -0.53055 0)
(-0.137952 -0.530124 0)
(-0.1489 -0.52929 0)
(-0.160621 -0.527397 0)
(-0.173505 -0.523638 0)
(-0.187924 -0.517105 0)
(-0.204189 -0.506852 0)
(-0.222535 -0.492001 0)
(-0.243121 -0.471808 0)
(-0.266043 -0.445716 0)
(-0.291337 -0.413356 0)
(-0.318993 -0.37456 0)
(-0.348863 -0.329369 0)
(-0.379781 -0.278074 0)
(-0.0134395 -0.536897 0)
(-0.0302869 -0.542349 0)
(-0.0471849 -0.537029 0)
(-0.0622475 -0.531667 0)
(-0.0763505 -0.527294 0)
(-0.0897273 -0.524008 0)
(-0.102664 -0.521699 0)
(-0.115392 -0.520186 0)
(-0.128122 -0.51923 0)
(-0.141078 -0.518515 0)
(-0.154504 -0.517624 0)
(-0.168675 -0.516017 0)
(-0.183879 -0.51302 0)
(-0.200392 -0.507843 0)
(-0.21845 -0.49962 0)
(-0.238217 -0.487482 0)
(-0.259778 -0.470628 0)
(-0.283132 -0.448395 0)
(-0.308196 -0.4203 0)
(-0.33481 -0.386069 0)
(-0.362764 -0.345652 0)
(-0.39174 -0.29924 0)
(-0.420528 -0.247276 0)
(-0.0130332 -0.516069 0)
(-0.0302081 -0.523989 0)
(-0.0476454 -0.520518 0)
(-0.0635293 -0.516423 0)
(-0.0786235 -0.51288 0)
(-0.093144 -0.510087 0)
(-0.107395 -0.507998 0)
(-0.121642 -0.506463 0)
(-0.13613 -0.505249 0)
(-0.151099 -0.504033 0)
(-0.166791 -0.50239 0)
(-0.183441 -0.499776 0)
(-0.20127 -0.495532 0)
(-0.220455 -0.488909 0)
(-0.241113 -0.479106 0)
(-0.263284 -0.465333 0)
(-0.286917 -0.446876 0)
(-0.311878 -0.423158 0)
(-0.337942 -0.393782 0)
(-0.364812 -0.358562 0)
(-0.39215 -0.317544 0)
(-0.419555 -0.271012 0)
(-0.445857 -0.219487 0)
(-0.0125229 -0.495609 0)
(-0.0296811 -0.505446 0)
(-0.0473064 -0.503492 0)
(-0.0636688 -0.500442 0)
(-0.0794237 -0.497557 0)
(-0.0947591 -0.495097 0)
(-0.109975 -0.493055 0)
(-0.125347 -0.491304 0)
(-0.141129 -0.489623 0)
(-0.157565 -0.487701 0)
(-0.17488 -0.485124 0)
(-0.193271 -0.481373 0)
(-0.212896 -0.475834 0)
(-0.233852 -0.467815 0)
(-0.25616 -0.456593 0)
(-0.279755 -0.441465 0)
(-0.304485 -0.421808 0)
(-0.330109 -0.397127 0)
(-0.356306 -0.367107 0)
(-0.382688 -0.331634 0)
(-0.408854 -0.290821 0)
(-0.434362 -0.244998 0)
(-0.45814 -0.194712 0)
(-0.011931 -0.475751 0)
(-0.0288128 -0.487028 0)
(-0.0463421 -0.486275 0)
(-0.0628783 -0.48405 0)
(-0.0789783 -0.481658 0)
(-0.0947977 -0.479388 0)
(-0.110618 -0.477257 0)
(-0.126707 -0.475152 0)
(-0.143316 -0.472868 0)
(-0.160679 -0.470116 0)
(-0.178998 -0.46651 0)
(-0.198436 -0.461577 0)
(-0.219098 -0.45476 0)
(-0.241016 -0.445443 0)
(-0.26414 -0.432988 0)
(-0.288328 -0.416782 0)
(-0.313352 -0.396287 0)
(-0.338901 -0.371091 0)
(-0.364593 -0.340945 0)
(-0.389996 -0.305792 0)
(-0.414675 -0.265778 0)
(-0.438192 -0.221249 0)
(-0.459582 -0.172741 0)
(-0.0112774 -0.456667 0)
(-0.0276832 -0.468979 0)
(-0.0448803 -0.469146 0)
(-0.061323 -0.467546 0)
(-0.0774779 -0.465498 0)
(-0.0934661 -0.463304 0)
(-0.109542 -0.460986 0)
(-0.125958 -0.458441 0)
(-0.14295 -0.455482 0)
(-0.160735 -0.451843 0)
(-0.179494 -0.447183 0)
(-0.199356 -0.441081 0)
(-0.220388 -0.433051 0)
(-0.242572 -0.42256 0)
(-0.265809 -0.409058 0)
(-0.289905 -0.392022 0)
(-0.314585 -0.370996 0)
(-0.339498 -0.345641 0)
(-0.364231 -0.315761 0)
(-0.388336 -0.281336 0)
(-0.411377 -0.242529 0)
(-0.43293 -0.199674 0)
(-0.452142 -0.153271 0)
(-0.0105682 -0.4385 0)
(-0.0263413 -0.451496 0)
(-0.0430138 -0.452339 0)
(-0.0591329 -0.451193 0)
(-0.0750841 -0.449371 0)
(-0.0909543 -0.447167 0)
(-0.106968 -0.444602 0)
(-0.123352 -0.441577 0)
(-0.140327 -0.437918 0)
(-0.158088 -0.433392 0)
(-0.176794 -0.4277 0)
(-0.196548 -0.420485 0)
(-0.217386 -0.411337 0)
(-0.23926 -0.399805 0)
(-0.262038 -0.38543 0)
(-0.285498 -0.367774 0)
(-0.30934 -0.346458 0)
(-0.3332 -0.321206 0)
(-0.356657 -0.291865 0)
(-0.379268 -0.258438 0)
(-0.400609 -0.221086 0)
(-0.420284 -0.180119 0)
(-0.437545 -0.135989 0)
(-0.00980733 -0.421367 0)
(-0.0248244 -0.434737 0)
(-0.0408139 -0.436053 0)
(-0.0564133 -0.435221 0)
(-0.071936 -0.433531 0)
(-0.0874363 -0.431263 0)
(-0.103107 -0.428424 0)
(-0.11915 -0.424914 0)
(-0.135764 -0.420574 0)
(-0.153123 -0.415196 0)
(-0.171366 -0.408533 0)
(-0.190575 -0.40029 0)
(-0.210766 -0.390132 0)
(-0.231871 -0.377693 0)
(-0.253741 -0.362599 0)
(-0.276147 -0.344491 0)
(-0.298785 -0.323065 0)
(-0.321289 -0.298094 0)
(-0.343253 -0.269464 0)
(-0.364251 -0.237187 0)
(-0.383884 -0.201414 0)
(-0.401784 -0.162421 0)
(-0.4173 -0.120608 0)
(-0.00899354 -0.405372 0)
(-0.023157 -0.418827 0)
(-0.0383392 -0.420449 0)
(-0.0532534 -0.419822 0)
(-0.0681556 -0.418202 0)
(-0.08307 -0.41584 0)
(-0.0981597 -0.412727 0)
(-0.113603 -0.408755 0)
(-0.129573 -0.403776 0)
(-0.146226 -0.397613 0)
(-0.163681 -0.390062 0)
(-0.182006 -0.380892 0)
(-0.201199 -0.36984 0)
(-0.221188 -0.35662 0)
(-0.241819 -0.340938 0)
(-0.262866 -0.322511 0)
(-0.284035 -0.301097 0)
(-0.304977 -0.276519 0)
(-0.325308 -0.248687 0)
(-0.34463 -0.217622 0)
(-0.362571 -0.183455 0)
(-0.378798 -0.146429 0)
(-0.392744 -0.106886 0)
(-0.00813217 -0.390608 0)
(-0.0213648 -0.403864 0)
(-0.0356452 -0.405662 0)
(-0.0497333 -0.405162 0)
(-0.0638513 -0.403572 0)
(-0.0779971 -0.401107 0)
(-0.0923089 -0.397736 0)
(-0.106941 -0.393342 0)
(-0.122047 -0.387786 0)
(-0.137762 -0.380918 0)
(-0.154188 -0.372576 0)
(-0.171378 -0.362587 0)
(-0.189324 -0.350757 0)
(-0.207951 -0.336873 0)
(-0.227112 -0.320715 0)
(-0.246593 -0.302068 0)
(-0.26612 -0.280747 0)
(-0.28537 -0.256616 0)
(-0.303988 -0.22961 0)
(-0.321609 -0.19975 0)
(-0.337892 -0.16715 0)
(-0.352537 -0.132014 0)
(-0.365054 -0.0946304 0)
(-0.00723847 -0.377155 0)
(-0.0194748 -0.389918 0)
(-0.0327911 -0.391802 0)
(-0.0459298 -0.39138 0)
(-0.0591222 -0.3898 0)
(-0.0723448 -0.387237 0)
(-0.0857172 -0.383634 0)
(-0.0993752 -0.378865 0)
(-0.113451 -0.3728 0)
(-0.128061 -0.365311 0)
(-0.143289 -0.356279 0)
(-0.159177 -0.345581 0)
(-0.175711 -0.333085 0)
(-0.192819 -0.318644 0)
(-0.210368 -0.302103 0)
(-0.228161 -0.283309 0)
(-0.245951 -0.262128 0)
(-0.263445 -0.238461 0)
(-0.280321 -0.212264 0)
(-0.296249 -0.183557 0)
(-0.310921 -0.152435 0)
(-0.324067 -0.119067 0)
(-0.335268 -0.0836901 0)
(-0.00635458 -0.365068 0)
(-0.017527 -0.377029 0)
(-0.0298476 -0.378961 0)
(-0.0419215 -0.378597 0)
(-0.054061 -0.377025 0)
(-0.0662268 -0.374375 0)
(-0.0785283 -0.370566 0)
(-0.0910861 -0.365466 0)
(-0.104014 -0.358955 0)
(-0.117407 -0.350929 0)
(-0.131332 -0.341304 0)
(-0.145818 -0.330003 0)
(-0.160848 -0.316946 0)
(-0.176356 -0.302042 0)
(-0.192223 -0.285195 0)
(-0.208278 -0.266306 0)
(-0.2243 -0.245287 0)
(-0.24003 -0.222073 0)
(-0.255183 -0.196637 0)
(-0.269459 -0.169002 0)
(-0.282582 -0.139245 0)
(-0.29431 -0.107496 0)
(-0.304288 -0.0739454 0)
(-0.0055596 -0.354369 0)
(-0.0155733 -0.365215 0)
(-0.0268991 -0.367223 0)
(-0.0377893 -0.366929 0)
(-0.0487553 -0.365371 0)
(-0.0597456 -0.362644 0)
(-0.070868 -0.358646 0)
(-0.0822312 -0.353249 0)
(-0.09393 -0.346344 0)
(-0.106038 -0.337854 0)
(-0.118603 -0.327724 0)
(-0.13164 -0.315916 0)
(-0.14513 -0.302392 0)
(-0.159014 -0.28711 0)
(-0.173189 -0.27002 0)
(-0.187509 -0.25107 0)
(-0.201787 -0.230214 0)
(-0.215797 -0.207421 0)
(-0.229286 -0.182682 0)
(-0.241986 -0.156023 0)
(-0.253643 -0.127502 0)
(-0.26404 -0.097216 0)
(-0.272879 -0.0653009 0)
(-0.00498073 -0.345023 0)
(-0.0136771 -0.35447 0)
(-0.0240436 -0.356672 0)
(-0.0336141 -0.35649 0)
(-0.0432866 -0.354956 0)
(-0.0529938 -0.352149 0)
(-0.0628483 -0.347964 0)
(-0.0729471 -0.342286 0)
(-0.0833642 -0.335026 0)
(-0.0941496 -0.32613 0)
(-0.10533 -0.315571 0)
(-0.116907 -0.30334 0)
(-0.128859 -0.289432 0)
(-0.141133 -0.27384 0)
(-0.153645 -0.256554 0)
(-0.166278 -0.237562 0)
(-0.178875 -0.216854 0)
(-0.191247 -0.194432 0)
(-0.203172 -0.170312 0)
(-0.214408 -0.144523 0)
(-0.224716 -0.117113 0)
(-0.233888 -0.0881394 0)
(-0.241673 -0.0576759 0)
(-0.00480619 -0.336863 0)
(-0.0118997 -0.344778 0)
(-0.0213861 -0.347413 0)
(-0.0294688 -0.347405 0)
(-0.0377265 -0.345895 0)
(-0.0460546 -0.342983 0)
(-0.0545708 -0.338591 0)
(-0.063356 -0.332628 0)
(-0.0724586 -0.325033 0)
(-0.0819022 -0.315775 0)
(-0.0916913 -0.304849 0)
(-0.101815 -0.292266 0)
(-0.112248 -0.278042 0)
(-0.122946 -0.262196 0)
(-0.133845 -0.244745 0)
(-0.144856 -0.22571 0)
(-0.15586 -0.205116 0)
(-0.166703 -0.182997 0)
(-0.177199 -0.159398 0)
(-0.187125 -0.134368 0)
(-0.196245 -0.107948 0)
(-0.204339 -0.0801581 0)
(-0.211174 -0.0509866 0)
(-0.00539024 -0.329446 0)
(-0.0103226 -0.336166 0)
(-0.0190324 -0.339593 0)
(-0.0254082 -0.339818 0)
(-0.0321309 -0.338296 0)
(-0.0390014 -0.335223 0)
(-0.0461303 -0.330576 0)
(-0.0535711 -0.324306 0)
(-0.0613395 -0.316383 0)
(-0.0694294 -0.306796 0)
(-0.0778242 -0.295554 0)
(-0.0865015 -0.282676 0)
(-0.0954344 -0.268191 0)
(-0.104589 -0.25213 0)
(-0.113924 -0.234529 0)
(-0.123379 -0.215432 0)
(-0.132876 -0.194893 0)
(-0.142306 -0.172981 0)
(-0.151523 -0.14978 0)
(-0.16033 -0.125375 0)
(-0.168482 -0.0998251 0)
(-0.175706 -0.0731198 0)
(-0.181737 -0.0451281 0)
(-0.00751684 -0.32206 0)
(-0.00913994 -0.328724 0)
(-0.0170664 -0.333407 0)
(-0.0214496 -0.333893 0)
(-0.0265316 -0.332262 0)
(-0.0318975 -0.328923 0)
(-0.0376183 -0.323949 0)
(-0.0437016 -0.317341 0)
(-0.0501227 -0.309092 0)
(-0.0568452 -0.299203 0)
(-0.0638343 -0.287687 0)
(-0.0710596 -0.274562 0)
(-0.0784963 -0.259858 0)
(-0.0861225 -0.243609 0)
(-0.0939168 -0.225856 0)
(-0.101854 -0.206658 0)
(-0.109901 -0.186088 0)
(-0.118005 -0.164249 0)
(-0.126078 -0.141273 0)
(-0.133971 -0.11731 0)
(-0.141434 -0.092483 0)
(-0.148102 -0.0667951 0)
(-0.153553 -0.0399534 0)
(-0.0125784 -0.314439 0)
(-0.00868989 -0.322485 0)
(-0.0155016 -0.329024 0)
(-0.0175609 -0.329763 0)
(-0.0209332 -0.327847 0)
(-0.0247984 -0.324099 0)
(-0.0291254 -0.318716 0)
(-0.033854 -0.31174 0)
(-0.0389153 -0.303174 0)
(-0.0442472 -0.293015 0)
(-0.0498029 -0.281266 0)
(-0.05555 -0.267938 0)
(-0.0614682 -0.253049 0)
(-0.0675478 -0.236628 0)
(-0.0737879 -0.218713 0)
(-0.0801956 -0.199361 0)
(-0.0867851 -0.178653 0)
(-0.0935716 -0.156712 0)
(-0.100556 -0.133719 0)
(-0.107686 -0.109918 0)
(-0.114775 -0.0855833 0)
(-0.121334 -0.0608618 0)
(-0.126564 -0.0352903 0)
(-0.0221427 -0.307593 0)
(-0.00894269 -0.318172 0)
(-0.0142421 -0.326752 0)
(-0.0136983 -0.327503 0)
(-0.0153407 -0.325024 0)
(-0.0177653 -0.3207 0)
(-0.0207453 -0.314843 0)
(-0.02413 -0.307496 0)
(-0.0278123 -0.298642 0)
(-0.031716 -0.288257 0)
(-0.0357919 -0.276323 0)
(-0.040011 -0.262835 0)
(-0.04436 -0.247796 0)
(-0.0488389 -0.231223 0)
(-0.0534618 -0.21314 0)