/*--------------------------------*- C++ -*----------------------------------*\
  =========                 |
  \\      /  F ield         | OpenFOAM: The Open Source CFD Toolbox
   \\    /   O peration     | Website:  https://openfoam.org
    \\  /    A nd           | Version:  13
     \\/     M anipulation  |
\*---------------------------------------------------------------------------*/
FoamFile
{
    format      ascii;
    class       volScalarField;
    location    "2.7";
    object      alpha.oil;
}
// * * * * * * * * * * * * * * * * * * * * * * * * * * * * * * * * * * * * * //

dimensions      [];

internalField   nonuniform List<scalar> 
2268
(
2.79369e-14
1.52409e-13
5.88874e-13
1.72528e-12
4.12512e-12
8.59586e-12
1.62944e-11
2.99351e-11
5.34492e-11
9.54845e-11
1.70522e-10
3.05833e-10
5.47797e-10
9.90262e-10
2.00173e-09
3.89667e-09
6.91164e-09
7.06538e-09
7.39736e-09
4.36429e-05
0.000475219
0.000565843
0.000565376
2.26517e-14
1.41718e-13
3.80277e-13
1.72952e-12
4.18732e-12
9.05739e-12
1.7983e-11
3.46452e-11
6.17237e-11
1.17119e-10
2.01532e-10
3.80696e-10
6.98477e-10
1.26645e-09
2.55882e-09
5.02657e-09
1.00962e-08
3.44001e-08
2.4072e-07
8.45722e-06
9.97665e-05
0.000164264
9.27811e-05
5.98146e-14
5.87171e-13
6.18421e-13
1.49725e-12
3.69603e-12
7.60388e-12
1.6087e-11
3.20225e-11
6.39562e-11
1.23423e-10
2.21915e-10
4.14802e-10
7.38254e-10
1.29993e-09
2.36044e-09
4.10115e-09
5.83253e-09
8.48969e-09
1.32915e-07
4.70149e-07
1.3724e-08
1.15928e-08
1.27201e-08
3.30779e-12
4.97554e-12
5.62412e-12
4.88418e-12
5.36182e-12
7.69706e-12
1.41582e-11
2.65745e-11
5.9478e-11
1.23936e-10
2.52584e-10
4.81392e-10
8.27502e-10
1.4652e-09
2.72552e-09
4.49388e-09
6.84737e-09
1.09745e-08
4.03103e-08
1.48682e-07
3.03639e-08
2.40991e-08
6.38018e-08
1.7473e-10
2.04255e-10
1.73734e-10
1.22612e-10
7.69991e-11
4.97808e-11
3.01401e-11
2.79036e-11
4.16278e-11
7.98917e-11
1.74451e-10
3.9221e-10
8.56274e-10
1.76404e-09
3.23721e-09
5.94748e-09
9.63663e-09
9.14272e-09
1.08178e-08
2.0681e-08
1.95062e-08
2.01965e-08
1.15082e-08
2.08378e-09
1.91425e-09
1.55207e-09
1.14845e-09
8.40376e-10
6.0712e-10
3.99612e-10
2.06892e-10
9.42536e-11
7.66838e-11
9.43398e-11
1.89615e-10
5.83121e-10
1.52306e-09
2.90375e-09
5.38434e-09
1.58117e-08
5.8048e-08
7.35661e-08
5.46903e-08
1.0364e-07
1.11332e-07
1.15902e-05
3.50312e-09
3.35299e-09
2.86107e-09
2.24875e-09
1.73581e-09
1.45396e-09
1.22141e-09
9.0994e-10
5.00782e-10
2.30781e-10
1.42886e-10
1.54868e-10
2.56114e-10
8.27638e-10
1.49922e-09
1.01433e-09
5.93289e-10
2.86984e-07
1.11015e-06
8.75819e-07
3.25158e-07
4.31628e-06
2.67509e-05
3.65769e-09
3.65757e-09
3.39146e-09
2.73472e-09
2.16196e-09
1.73483e-09
1.63728e-09
1.45632e-09
1.04438e-09
6.38548e-10
3.63979e-10
2.41248e-10
2.42329e-10
4.0042e-10
6.34371e-10
5.93288e-10
5.93935e-10
3.629e-07
1.18909e-06
1.18059e-06
6.23558e-07
1.25882e-05
2.5714e-05
0.113048
0.0918025
0.0415966
0.0387771
0.0512638
0.261429
0.290667
0.2917
0.278223
0.273198
0.279199
0.26939
0.131878
0.060602
0.0743133
0.109667
0.191534
0.231251
0.222144
0.168955
0.153478
0.157931
0.0902479
0.0520505
0.0548242
0.113867
0.0936999
0.0455544
0.0644034
0.15302
0.227184
0.130807
0.0605356
0.0621186
0.144711
0.23097
0.231493
0.222438
0.453858
0.459128
0.468606
0.4653
0.214652
0.0120206
5.44831e-08
5.92129e-08
5.4689e-08
0.000175328
0.0276294
0.140319
0.172774
0.0830397
0.0624405
0.186471
0.350493
0.420765
0.447385
0.453424
0.348112
0.350597
0.361516
0.430169
0.42541
0.132752
0.0795942
0.0262024
0.00185163
0.083498
0.164579
0.174078
0.213541
0.242919
0.331598
0.425068
0.421203
0.452074
0.192292
0.0271335
0.0178693
0.014078
0.368243
0.742475
0.735521
0.574279
0.160335
7.81055e-07
0.00869933
0.173608
0.305346
0.324681
0.3249
0.22875
0.099137
0.000219602
0.325231
0.0230693
0.0077215
0.00666674
0.0132151
0.435809
0.742466
0.742467
0.726485
0.245094
-5.71616e-20
-1.46165e-12
0.031825
0.308377
0.324889
0.170711
0.000200113
0.000184601
0.00022756
0.120401
0.0243287
0.0100233
0.00672094
0.0287773
0.515474
0.742409
0.740807
0.379854
0.0206634
-7.27987e-21
-3.44361e-28
0.0119261
0.277666
0.292182
0.000238353
0.000168163
0.000166831
0.00207175
0.0021645
0.0384347
0.032036
0.0163081
0.0346639
0.372061
0.692408
0.51208
0.00497482
4.85876e-06
2.5652e-06
1.56771e-07
0.0222944
0.27992
0.258953
0.00370909
0.000175895
0.000164433
0.00646524
0.00218319
2.33805e-09
2.44989e-09
2.41085e-09
2.09762e-09
2.06448e-09
2.0443e-09
2.21028e-09
2.02226e-09
1.59607e-09
1.1649e-09
7.53415e-10
4.6966e-10
3.53426e-10
3.90496e-10
5.09489e-10
7.70248e-10
7.59256e-10
2.4982e-08
2.82205e-07
3.96575e-07
4.62779e-06
8.55452e-07
8.30331e-12
2.73671e-10
2.55606e-10
2.55602e-10
2.55606e-10
2.55602e-10
1.08222e-08
4.74347e-09
3.16291e-09
2.20655e-09
1.8088e-09
1.38028e-09
7.93243e-10
4.29671e-10
3.54912e-10
4.74229e-10
8.76006e-10
1.30425e-09
1.61236e-09
5.58976e-08
1.90541e-07
-1.11761e-07
-1.33856e-08
-8.30882e-12
2.55606e-10
0.0107728
0.0136045
0.00636904
0.000742921
5.61862e-08
9.80669e-16
-6.87308e-27
-5.16988e-28
-4.8858e-27
-6.45269e-21
-5.30901e-12
2.10125e-21
-3.23117e-28
-3.87741e-28
-1.40178e-21
-4.42068e-14
-3.94981e-14
0.00242042
0.013846
0.042948
0.128147
0.247123
0.394269
0.576068
0.619117
0.563322
0.454956
0.253262
0.0916993
0.0655943
0.0702765
0.0768148
0.0834161
0.107319
0.129971
0.127932
0.131222
0.153595
0.219274
0.350544
0.47925
0.57474
0.675663
0.840224
0.905678
0.899003
0.995794
0.999489
0.999924
0.996246
0.814675
0.708867
0.708239
0.719503
0.727238
0.746244
0.789784
0.841883
0.859787
0.850681
0.836661
0.872805
0.964721
0.993653
0.99546
0.998942
0.996325
0.956193
0.999693
0.999696
0.999813
1
0.970517
0.951604
0.985236
0.999976
0.988653
0.976185
0.982281
0.990567
0.995692
0.998047
0.996142
0.996835
1
1
1
1
0.999064
0.999035
0.99998
0.999693
0.99928
0.999948
1
1
1
1
1
1
0.999999
0.999999
1
1
1
1
1
1
1
1
1
0.999999
0.999999
0.999999
0.864517
0.856016
0.873273
0.892481
0.910514
0.916248
0.928934
0.946818
0.954507
0.956622
0.954739
0.949037
0.939128
0.925692
0.908586
0.885523
0.856507
0.823841
0.792905
0.768368
0.75421
0.755299
0.768732
0.164554
0.132997
0.140395
0.168452
0.199935
0.233916
0.253614
0.260168
0.265495
0.267236
0.260483
0.243718
0.220511
0.194443
0.167022
0.139096
0.11246
0.0885926
0.0694934
0.0559385
0.0485218
0.0477623
0.0538761
5.90466e-06
1.9387e-06
6.31224e-09
1.64036e-09
4.91693e-09
1.64036e-09
1.06939e-08
6.42558e-09
1.61028e-08
1.24292e-08
1.47504e-08
2.49705e-08
2.49013e-08
2.03123e-09
4.56855e-10
5.59152e-10
4.56852e-10
2.39407e-16
4.92714e-17
7.59156e-17
-5.11905e-13
1.02502e-10
1.32349e-25
1.45241e-06
4.47209e-07
1.24291e-07
1.74431e-07
3.75342e-07
2.49064e-07
4.19566e-07
9.37592e-07
6.5924e-07
9.80331e-08
1.49639e-08
2.74179e-08
2.65052e-08
2.50777e-08
2.86234e-08
4.42788e-08
5.7766e-08
5.73258e-08
5.38256e-08
5.70791e-08
6.7415e-08
1.04041e-07
1.69648e-07
1.56467e-06
1.45214e-06
5.06889e-07
3.52953e-07
3.80478e-07
1.34344e-06
6.90259e-06
2.76443e-05
1.55222e-05
1.07519e-06
8.68509e-09
6.5227e-08
4.08845e-08
5.03318e-08
1.07272e-07
2.26264e-07
2.36054e-07
1.97995e-07
1.70861e-07
1.26142e-07
1.33369e-07
1.62145e-07
2.00137e-07
1.9254e-06
7.21354e-06
2.62106e-05
1.38677e-05
4.5585e-07
2.34116e-06
7.98966e-05
0.000163442
0.000142798
2.4858e-06
5.09646e-11
2.08169e-09
8.65922e-17
7.4803e-09
2.00132e-07
2.68877e-07
2.63872e-07
2.13941e-07
1.71713e-07
1.12518e-07
1.06975e-07
9.21431e-08
1.1487e-07
3.20335e-06
2.57045e-05
5.1306e-05
4.63253e-05
4.5244e-06
6.43702e-06
0.000128353
0.000163202
0.00016305
0.00012526
-1.52636e-15
4.49703e-19
-4.80674e-19
1.41411e-08
2.10755e-07
2.68807e-07
2.67943e-07
2.46709e-07
1.79018e-07
1.07675e-07
9.22513e-08
6.20968e-08
6.59048e-08
2.36155e-06
2.30948e-05
5.12624e-05
4.99045e-05
4.32119e-06
1.0472e-06
3.47738e-05
0.000162288
0.000161939
0.000144191
-2.76677e-10
2.77638e-10
6.20125e-09
6.25008e-09
3.00499e-08
1.87599e-07
2.53823e-07
2.40924e-07
1.81267e-07
1.09726e-07
8.02017e-08
5.03907e-08
3.82293e-08
1.47594e-06
7.37115e-06
2.80691e-05
2.04674e-05
6.02151e-07
2.17342e-07
9.02565e-07
2.02616e-05
6.48956e-05
3.66564e-05
5.66705e-09
8.87913e-09
5.88599e-08
2.21892e-08
8.94148e-09
1.98367e-08
1.45832e-07
1.83032e-07
1.55927e-07
1.02116e-07
7.57993e-08
3.60688e-08
2.93478e-08
1.07175e-06
1.97309e-06
2.08368e-06
1.3603e-06
2.7752e-07
1.09997e-07
1.66702e-07
2.41169e-07
1.25308e-07
1.35596e-07
2.02179e-07
3.87805e-07
5.05433e-07
9.2406e-08
1.03623e-08
6.82592e-09
3.46918e-08
8.69074e-08
1.02041e-07
8.04838e-08
4.92798e-08
3.9785e-08
2.09087e-08
8.10793e-07
8.91761e-07
3.88713e-07
1.97491e-07
1.09032e-07
8.94557e-08
1.04344e-07
1.20961e-07
1.2806e-07
1.67496e-07
3.03066e-07
6.55316e-07
7.83577e-07
4.92815e-07
1.23345e-08
6.64815e-09
8.20419e-09
3.93863e-08
5.37245e-08
4.51839e-08
3.50117e-08
2.24824e-08
1.62683e-08
5.94001e-07
5.79977e-07
2.47428e-07
9.91358e-08
8.29011e-08
8.4558e-08
8.99217e-08
8.88333e-08
5.23063e-08
5.92028e-08
2.02761e-07
6.10033e-07
7.73881e-07
4.42127e-07
6.58153e-08
9.72923e-09
7.82432e-09
1.48803e-08
2.34394e-08
2.3147e-08
1.7094e-08
1.52755e-08
9.80235e-09
3.49754e-07
4.47534e-07
2.35079e-07
9.72583e-08
7.69915e-08
7.35499e-08
7.10784e-08
6.37308e-08
3.87195e-08
3.59829e-08
9.16437e-08
3.01461e-07
4.65878e-07
1.86723e-07
5.30202e-08
1.94393e-08
9.98257e-09
9.26958e-09
1.12079e-08
1.18389e-08
1.02709e-08
7.32188e-09
6.3438e-09
2.17975e-07
3.04999e-07
1.77058e-07
9.00105e-08
6.80485e-08
5.79487e-08
5.09304e-08
4.18479e-08
2.97703e-08
3.19052e-08
5.09657e-08
9.14373e-08
9.16286e-08
5.78728e-08
3.18005e-08
1.62886e-08
9.56955e-09
8.21174e-09
7.71154e-09
7.43411e-09
6.24229e-09
5.28166e-09
4.08979e-09
1.30076e-07
1.89079e-07
1.30932e-07
7.92784e-08
5.80398e-08
4.40635e-08
3.55895e-08
2.77227e-08
2.17294e-08
2.31649e-08
3.09099e-08
3.4881e-08
2.51246e-08
2.02302e-08
1.57967e-08
1.07007e-08
7.74825e-09
6.46574e-09
5.59547e-09
5.00162e-09
4.3806e-09
3.46766e-09
2.96444e-09
7.73912e-08
1.2011e-07
9.27075e-08
6.73931e-08
4.99518e-08
3.5081e-08
2.59447e-08
1.94751e-08
1.54895e-08
1.52967e-08
1.69911e-08
1.61335e-08
1.24277e-08
9.90655e-09
7.94788e-09
6.49867e-09
5.32404e-09
4.48156e-09
3.75686e-09
3.2841e-09
2.80543e-09
2.46937e-09
2.03793e-09
5.22077e-08
8.46767e-08
7.31959e-08
5.59238e-08
4.14301e-08
2.84425e-08
2.06238e-08
1.46396e-08
1.10561e-08
9.50212e-09
8.74798e-09
7.44846e-09
5.87771e-09
4.82277e-09
4.17974e-09
3.70859e-09
3.16615e-09
2.70453e-09
2.24829e-09
1.97903e-09
1.74787e-09
1.42996e-09
1.26893e-09
3.87354e-08
6.55195e-08
5.98851e-08
4.75119e-08
3.42691e-08
2.33388e-08
1.6067e-08
1.09738e-08
7.73178e-09
5.93196e-09
4.79183e-09
3.77498e-09
3.05803e-09
2.58732e-09
2.27835e-09
2.01993e-09
1.74518e-09
1.47334e-09
1.23816e-09
1.07459e-09
9.0212e-10
8.02686e-10
6.84484e-10
3.14121e-08
4.84429e-08
4.67469e-08
3.70442e-08
2.73023e-08
1.8991e-08
1.25942e-08
8.21335e-09
5.3694e-09
3.66301e-09
2.64998e-09
2.00271e-09
1.59682e-09
1.34756e-09
1.16128e-09
1.0213e-09
8.75561e-10
7.34808e-10
6.16434e-10
5.23922e-10
4.52254e-10
3.74022e-10
3.22626e-10
2.12007e-08
3.46208e-08
3.37364e-08
2.63155e-08
1.97243e-08
1.40532e-08
9.52453e-09
6.03548e-09
3.76581e-09
2.40108e-09
1.60109e-09
1.11052e-09
8.43272e-10
6.85685e-10
5.76245e-10
4.90648e-10
4.10212e-10
3.47453e-10
2.85382e-10
2.40549e-10
2.00068e-10
1.65177e-10
1.36576e-10
1.60185e-08
2.35838e-08
2.25113e-08
1.76108e-08
1.30784e-08
9.43105e-09
6.42353e-09
4.02252e-09
2.47704e-09
1.5122e-09
9.42248e-10
6.08173e-10
4.19042e-10
3.15542e-10
2.54326e-10
2.1225e-10
1.78811e-10
1.51041e-10
1.23242e-10
1.00671e-10
8.35899e-11
6.34361e-11
5.25963e-11
1.07751e-08
1.59486e-08
1.45444e-08
1.11413e-08
8.00325e-09
5.62151e-09
3.83477e-09
2.42377e-09
1.4638e-09
8.68972e-10
5.15266e-10
3.1195e-10
1.98265e-10
1.37724e-10
1.03769e-10
8.30433e-11
6.92245e-11
5.75894e-11
4.63247e-11
3.80337e-11
2.97576e-11
2.23457e-11
1.77964e-11
7.79227e-09
1.02559e-08
8.85531e-09
6.50207e-09
4.44125e-09
3.01176e-09
2.01531e-09
1.27347e-09
7.6897e-10
4.48445e-10
2.57798e-10
1.47072e-10
8.79477e-11
5.59513e-11
3.9169e-11
2.96949e-11
2.3675e-11
1.95093e-11
1.57264e-11
1.26226e-11
9.88059e-12
7.02544e-12
5.50067e-12
4.51271e-09
6.12489e-09
4.95959e-09
3.43553e-09
2.21018e-09
1.43981e-09
9.3295e-10
5.84044e-10
3.46582e-10
2.00446e-10
1.12375e-10
6.20468e-11
3.45973e-11
2.09279e-11
1.36435e-11
9.55946e-12
7.34454e-12
5.90684e-12
4.70812e-12
3.79465e-12
2.76573e-12
1.99819e-12
1.50715e-12
3.07731e-09
3.48351e-09
2.56447e-09
1.66071e-09
1.00296e-09
6.11833e-10
3.78077e-10
2.30336e-10
1.36849e-10
7.61967e-11
4.09947e-11
2.26264e-11
1.24205e-11
7.03324e-12
4.23024e-12
2.879e-12
2.08549e-12
1.6652e-12
1.27585e-12
9.878e-13
7.48385e-13
5.05025e-13
3.61605e-13
1.49686e-09
1.56592e-09
1.12535e-09
6.82878e-10
3.86057e-10
2.20503e-10
1.29341e-10
7.69312e-11
4.45598e-11
2.51083e-11
1.36104e-11
7.19766e-12
3.84392e-12
2.10331e-12
1.1979e-12
7.59585e-13
5.29775e-13
4.06749e-13
3.05134e-13
2.2855e-13
1.57687e-13
1.11124e-13
7.59258e-14
8.64965e-10
7.34672e-10
4.44889e-10
2.54025e-10
1.35203e-10
7.12203e-11
4.00637e-11
2.34873e-11
1.34935e-11
7.5304e-12
3.88543e-12
2.06158e-12
1.04576e-12
5.45598e-13
2.95846e-13
1.81283e-13
1.22278e-13
8.89983e-14
6.53437e-14
4.69213e-14
3.27663e-14
2.10105e-14
1.33675e-14
3.28098e-10
2.41509e-10
1.46482e-10
7.88593e-11
4.02495e-11
2.04538e-11
1.11415e-11
6.20832e-12
3.51071e-12
1.91063e-12
9.96086e-13
4.91318e-13
2.42904e-13
1.22329e-13
6.53279e-14
3.81917e-14
2.5154e-14
1.77282e-14
1.24943e-14
8.58708e-15
5.58779e-15
3.50881e-15
2.09551e-15
1.29616e-10
8.59088e-11
4.6649e-11
2.40216e-11
1.1517e-11
5.54408e-12
2.87103e-12
1.55384e-12
8.44228e-13
4.41277e-13
2.17635e-13
1.06381e-13
5.02355e-14
2.49688e-14
1.32523e-14
7.71057e-15
4.92807e-15
3.31018e-15
2.2298e-15
1.43781e-15
8.78912e-16
5.06445e-16
2.79163e-16
3.22739e-11
2.20916e-11
1.16133e-11
5.72406e-12
2.73968e-12
1.31381e-12
6.58568e-13
3.42502e-13
1.7929e-13
9.12165e-14
4.32616e-14
2.07207e-14
9.97939e-15
4.82638e-15
2.50682e-15
1.41528e-15
8.84763e-16
5.73083e-16
3.66599e-16
2.16507e-16
1.22127e-16
6.39703e-17
3.48005e-17
7.77233e-12
4.17345e-12
2.14009e-12
1.09999e-12
5.57506e-13
2.74457e-13
1.31536e-13
6.75462e-14
3.55412e-14
1.80178e-14
8.54536e-15
3.93344e-15
1.79762e-15
8.42198e-16
4.25517e-16
2.38085e-16
1.45586e-16
9.05673e-17
5.38988e-17
2.9632e-17
1.49626e-17
7.45599e-18
5.93355e-18
1.00336e-12
5.35414e-13
3.1094e-13
1.73755e-13
9.97754e-14
5.09334e-14
2.45844e-14
1.23994e-14
6.47363e-15
3.25843e-15
1.48528e-15
6.65524e-16
3.00082e-16
1.37094e-16
6.83028e-17
3.77365e-17
2.2624e-17
1.33608e-17
7.25691e-18
3.5908e-18
1.70322e-18
1.07192e-18
2.53594e-18
5.67857e-14
3.50758e-14
3.04939e-14
2.37038e-14
1.4263e-14
7.7243e-15
4.0793e-15
2.23553e-15
1.19427e-15
5.87442e-16
2.64234e-16
1.12453e-16
4.7974e-17
2.14068e-17
1.04204e-17
5.76635e-18
3.39492e-18
1.84223e-18
8.84137e-19
3.94812e-19
2.15479e-19
3.51533e-19
1.91351e-18
7.933e-17
5.41652e-16
1.86667e-15
2.61803e-15
2.0151e-15
1.22873e-15
6.73004e-16
3.7327e-16
2.07576e-16
1.02291e-16
4.44105e-17
1.76966e-17
7.26044e-18
3.16339e-18
1.54711e-18
8.54369e-19
4.62586e-19
2.31613e-19
1.03794e-19
4.86139e-20
5.65435e-20
2.19899e-19
1.41157e-18
1.24331e-22
1.07358e-18
6.22644e-17
2.39281e-16
2.31592e-16
1.58417e-16
9.5501e-17
5.73889e-17
3.30009e-17
1.67353e-17
7.22906e-18
2.83889e-18
1.1266e-18
4.78832e-19
2.28239e-19
1.24881e-19
6.43759e-20
2.92263e-20
1.27037e-20
8.86235e-21
2.28805e-20
1.04962e-19
7.26409e-19
1.16847e-14
0.000474009
0.00084168
0.000173475
0.000180765
0.00496212
0.00767169
0.000377122
0.373902
0.460796
0.465186
0.316987
0.864342
0.862591
0.862858
0.900806
0.962025
0.987044
0.999757
0.999767
0.999972
0.999982
0.999991
0.999982
0.999997
0.999996
0.999994
0.999987
0.799411
0.81683
0.832935
0.849
0.0719143
0.0829625
0.0928399
0.101483
-3.42437e-10
-3.30237e-10
-4.54984e-10
-5.7842e-10
1.99878e-07
1.97157e-07
1.98995e-07
1.94801e-07
2.24649e-07
2.44316e-07
2.57604e-07
2.56937e-07
1.67572e-07
1.92571e-07
1.6226e-07
1.93581e-07
9.03362e-08
8.94518e-08
1.29232e-07
1.22316e-07
6.11476e-08
7.2819e-08
6.36479e-08
7.74367e-08
2.6276e-08
2.83599e-08
4.24267e-08
4.11166e-08
1.39292e-08
1.49896e-08
1.79357e-08
2.13548e-08
9.25703e-09
8.17302e-09
8.9061e-09
8.93077e-09
6.22324e-09
5.52318e-09
4.78176e-09
4.77382e-09
4.30701e-09
3.31913e-09
2.96633e-09
2.64508e-09
3.22088e-09
2.64302e-09
2.2018e-09
1.96573e-09
2.47663e-09
2.07407e-09
1.79325e-09
1.5446e-09
1.76566e-09
1.56719e-09
1.38568e-09
1.22446e-09
1.13608e-09
9.78878e-10
9.11637e-10
8.23042e-10
6.28616e-10
5.43446e-10
4.99673e-10
4.72028e-10
2.95007e-10
2.53702e-10
2.36095e-10
2.25792e-10
1.24551e-10
1.09159e-10
1.01044e-10
9.13842e-11
4.66707e-11
3.83656e-11
3.50153e-11
3.35822e-11
1.63343e-11
1.35747e-11
1.23255e-11
1.06968e-11
4.72732e-12
3.9839e-12
3.42154e-12
3.15394e-12
1.28233e-12
1.07284e-12
9.50386e-13
8.06587e-13
2.95825e-13
2.35678e-13
2.07548e-13
1.75779e-13
6.15716e-14
4.9867e-14
3.96715e-14
3.20444e-14
1.02843e-14
8.19153e-15
6.62134e-15
5.06306e-15
1.57321e-15
1.20144e-15
9.03061e-16
6.76197e-16
2.02267e-16
1.54437e-16
1.25166e-16
1.06447e-16
2.69884e-17
2.46209e-17
2.84437e-17
4.29952e-17
6.73558e-18
9.48792e-18
1.77487e-17
4.17308e-17
4.03824e-18
7.72009e-18
1.9855e-17
5.91833e-17
3.44507e-18
8.34118e-18
2.69254e-17
8.72528e-17
2.91923e-18
9.30123e-18
3.30469e-17
1.07689e-16
2.14161e-18
7.53264e-18
2.60122e-17
8.00322e-17
0.0010951
0.0262514
0.0351569
0.0362932
0.0991268
0.512429
0.242984
0.00044688
-1.25639e-20
-7.09207e-09
7.11195e-05
0.00311808
0.0781102
0.0201482
0.000225425
0.000220644
0.000167593
0.100727
0.167336
0.00135806
0.0339498
0.0361908
0.0372463
0.0387909
0.412384
0.211764
0.0160355
0.0503104
0.0351988
0.00948939
0.00690076
0.00718639
0.0118225
0.0555566
0.167215
0.309313
0.346613
0.293048
0.274718
0.382896
0.30134
0.146363
0.291492
0.636311
0.426096
0.343518
0.606076
0.75984
0.727343
0.647144
0.522623
0.575934
0.707423
0.825644
0.854148
0.813287
0.705206
0.889489
0.875967
0.860046
0.856427
0.926706
0.862796
0.777061
0.790015
0.947315
0.999945
0.999996
0.999972
0.99994
0.999935
0.99981
0.999685
0.99786
0.980711
0.982185
0.998434
0.996753
0.998439
0.999871
0.999923
0.98692
0.937943
0.952071
0.993209
0.999995
0.999996
0.999998
1
0.999999
0.999923
0.999759
0.999798
0.99993
0.99986
0.999985
0.999986
0.999989
0.999877
0.999924
0.999986
0.999999
1
1
1
0.999999
0.999999
1
1
0.999997
0.999947
0.999962
0.999977
0.999979
0.999991
0.999997
0.999998
0.999998
0.999998
0.999998
0.999999
1
1
1
1
1
0.99999
0.99998
0.999997
0.999992
0.999992
0.999995
0.999996
0.869298
0.906711
0.933375
0.951783
0.966304
0.977849
0.986441
0.992912
0.997185
0.999785
0.999999
0.999998
0.999995
0.999996
0.999321
0.995143
0.992278
0.992662
0.994645
0.111021
0.140044
0.169142
0.194917
0.219095
0.24186
0.259379
0.272175
0.286427
0.31114
0.352465
0.412879
0.492057
0.579983
0.600513
0.596064
0.619181
0.64542
0.666335
-3.53122e-10
2.65588e-17
-3.0808e-17
-1.86826e-22
-1.61771e-22
-7.26188e-20
-1.08825e-19
2.57066e-18
4.9112e-18
2.63913e-06
3.19527e-17
4.26132e-11
0.00210606
0.0109705
0.0136412
0.0128822
0.0169872
0.0212113
0.030678
1.99144e-07
3.46465e-07
2.19858e-06
0.000185573
0.000476623
0.000646082
0.00065896
0.000252111
1.43952e-14
3.04717e-08
4.26133e-11
0.000151956
0.000150831
5.03573e-07
7.11815e-10
7.98727e-10
6.93875e-10
7.98729e-10
3.49277e-10
3.19333e-07
7.84711e-07
3.63368e-06
0.000312061
0.000903139
0.000919379
0.000782827
0.000110959
9.32396e-09
-4.80094e-09
0.000592115
0.000700807
0.000700979
0.00029178
1.49868e-07
1.4088e-07
1.71702e-07
1.1623e-07
6.27303e-08
2.00035e-07
3.22586e-07
4.93667e-07
1.09695e-07
1.64444e-07
6.43045e-05
5.64409e-07
2.20835e-06
5.10371e-07
1.73161e-05
0.000223984
0.000443667
0.000289916
0.000116148
2.23214e-06
1.43675e-07
3.00404e-07
2.4995e-07
9.80493e-08
1.30624e-07
1.18093e-07
1.03516e-07
1.09159e-07
1.13389e-07
1.52084e-07
9.53131e-07
2.22135e-06
1.85607e-06
3.63603e-06
3.04782e-07
3.83036e-06
1.38204e-07
1.3749e-07
7.647e-07
3.74081e-07
3.7953e-07
3.68036e-07
2.40585e-07
8.19062e-08
9.49969e-08
1.04019e-07
1.36815e-07
1.58193e-07
1.70378e-07
1.97603e-07
2.95562e-07
4.34265e-07
3.26044e-07
2.9511e-07
1.94162e-07
1.79527e-07
1.37426e-07
3.1522e-07
3.22123e-07
3.64437e-07
3.75114e-07
3.55384e-07
4.74427e-08
6.76192e-08
9.78479e-08
1.57393e-07
2.10305e-07
2.32992e-07
2.0209e-07
1.79841e-07
1.99154e-07
2.55038e-07
2.86709e-07
2.39658e-07
1.9637e-07
1.42034e-07
1.92239e-07
2.21054e-07
2.26281e-07
2.91335e-07
2.96761e-07
2.46106e-08
3.32133e-08
5.07408e-08
8.33885e-08
1.32393e-07
1.7262e-07
1.79462e-07
1.51453e-07
1.2513e-07
1.37449e-07
1.86602e-07
1.96294e-07
1.53358e-07
1.05285e-07
1.00501e-07
9.9057e-08
1.17468e-07
1.19748e-07
1.27569e-07
1.14573e-08
1.45453e-08
1.81417e-08
2.41838e-08
3.4356e-08
4.76797e-08
5.88974e-08
5.85855e-08
5.00842e-08
4.99184e-08
6.46293e-08
8.23026e-08
7.98884e-08
5.66335e-08
4.38452e-08
4.59308e-08
4.18168e-08
3.40028e-08
2.94877e-08
4.7531e-09
6.53448e-09
8.42875e-09
9.75101e-09
1.02838e-08
9.95538e-09
1.00864e-08
1.25377e-08
1.65084e-08
2.029e-08
2.31221e-08
2.61691e-08
2.76528e-08
2.62921e-08
2.21401e-08
1.84222e-08
1.68815e-08
1.62637e-08
1.5591e-08
2.55424e-09
2.74406e-09
3.87909e-09
5.05694e-09
6.27479e-09
7.37238e-09
8.17266e-09
9.07202e-09
1.01858e-08
1.13929e-08
1.20994e-08
1.21775e-08
1.22201e-08
1.19323e-08
1.23265e-08
1.35718e-08
1.4378e-08
1.68127e-08
1.93305e-08
1.67138e-09
1.52284e-09
1.6142e-09
2.11975e-09
2.69122e-09
3.34035e-09
4.01707e-09
4.66427e-09
5.31542e-09
5.82722e-09
6.13851e-09
6.3219e-09
6.62109e-09
7.38356e-09
8.85543e-09
1.17653e-08
1.49814e-08
2.33904e-08
3.1108e-08
1.31945e-09
1.1019e-09
9.79087e-10
9.44734e-10
1.0518e-09
1.29876e-09
1.59107e-09
1.90095e-09
2.20296e-09
2.54498e-09
2.87322e-09
3.25606e-09
3.85226e-09
4.87058e-09
6.8889e-09
1.14397e-08
2.03967e-08
3.79444e-08
4.9027e-08
1.01019e-09
8.26997e-10
6.84861e-10
5.81462e-10
5.35449e-10
5.39776e-10
6.30929e-10
7.63895e-10
9.38505e-10
1.17871e-09
1.46765e-09
1.86744e-09
2.49046e-09
3.54057e-09
5.5396e-09
1.05801e-08
2.28585e-08
5.58682e-08
8.10031e-08
6.96661e-10
5.63712e-10
4.65766e-10
3.73891e-10
3.07662e-10
2.69057e-10
2.63593e-10
3.09137e-10
4.12343e-10
5.7727e-10
8.14684e-10
1.17246e-09
1.76071e-09
2.77194e-09
4.79601e-09
1.08182e-08
2.80751e-08
7.86924e-08
8.28962e-08
3.90256e-10
3.29977e-10
2.73049e-10
2.16389e-10
1.7376e-10
1.42896e-10
1.36136e-10
1.55114e-10
2.13273e-10
3.26681e-10
5.17942e-10
8.29894e-10
1.36119e-09
2.26106e-09
4.13048e-09
1.01958e-08
3.00096e-08
8.34574e-08
8.13222e-08
1.88085e-10
1.5589e-10
1.2853e-10
1.04396e-10
8.27237e-11
6.92378e-11
6.88543e-11
8.57404e-11
1.28241e-10
2.14717e-10
3.7192e-10
6.5291e-10
1.14373e-09
2.00726e-09
3.77699e-09
9.60457e-09
3.23804e-08
9.05052e-08
7.13258e-08
7.47027e-11
6.22756e-11
5.03572e-11
4.01648e-11
3.26278e-11
2.96154e-11
3.39878e-11
4.98401e-11
8.58234e-11
1.58961e-10
2.98647e-10
5.59508e-10
1.02575e-09
1.84747e-09
3.55981e-09
9.62388e-09
3.5418e-08
9.26566e-08
4.58341e-08
2.67733e-11
2.07103e-11
1.66197e-11
1.30374e-11
1.12302e-11
1.20277e-11
1.75766e-11
3.13304e-11
6.39659e-11
1.28366e-10
2.57919e-10
5.10487e-10
9.69894e-10
1.79495e-09
3.4061e-09
9.5964e-09
3.88597e-08
9.57981e-08
3.85411e-08
8.12609e-12
6.18535e-12
4.59218e-12
3.65415e-12
3.7063e-12
5.57196e-12
1.08945e-11
2.32029e-11
5.20101e-11
1.12427e-10
2.38075e-10
4.95169e-10
9.76861e-10
1.81935e-09
3.42486e-09
9.66167e-09
4.31895e-08
9.58189e-08
2.99621e-08
2.29321e-12
1.61934e-12
1.16719e-12
1.08456e-12
1.59698e-12
3.44392e-12
8.11742e-12
1.96155e-11
4.55613e-11
1.05324e-10
2.34377e-10
5.04918e-10
1.02414e-09
1.91448e-09
3.55108e-09
9.99087e-09
4.42649e-08
8.89804e-08
1.92558e-08
5.45142e-13
3.56138e-13
2.83923e-13
4.12639e-13
9.8754e-13
2.62838e-12
6.93692e-12
1.74851e-11
4.29915e-11
1.03783e-10
2.41113e-10
5.30141e-10
1.09708e-09
2.09356e-09
3.80478e-09
1.01674e-08
4.2272e-08
5.6361e-08
1.15577e-08
1.12308e-13
7.53366e-14
9.29112e-14
2.45372e-13
7.75491e-13
2.25025e-12
6.27695e-12
1.65334e-11
4.183e-11
1.06427e-10
2.54594e-10
5.71654e-10
1.20257e-09
2.31689e-09
4.14568e-09
1.11733e-08
3.2329e-08
3.40122e-08
5.72318e-09
1.9503e-14
1.84845e-14
5.1579e-14
1.97994e-13
6.71144e-13
2.04524e-12
5.88777e-12
1.63253e-11
4.32444e-11
1.11249e-10
2.73719e-10
6.23451e-10
1.30977e-09
2.53147e-09
4.41178e-09
1.13646e-08
2.44668e-08
6.90722e-09
3.43655e-09
3.66074e-15
9.5782e-15
4.43607e-14
1.82522e-13
6.26799e-13
1.98653e-12
5.96101e-12
1.67578e-11
4.53424e-11
1.17781e-10
2.92855e-10
6.6796e-10
1.40764e-09
2.65917e-09
4.60413e-09
1.08838e-08
1.40693e-08
9.376e-09
1.86973e-09
1.35517e-15
8.63399e-15
4.33479e-14
1.7608e-13
6.19619e-13
1.9895e-12
6.08437e-12
1.74747e-11
4.77076e-11
1.24272e-10
3.07647e-10
6.98461e-10
1.45462e-09
2.70584e-09
4.66426e-09
8.92527e-09
9.3418e-09
3.77001e-09
1.1794e-09
1.14448e-15
8.57994e-15
4.2164e-14
1.74643e-13
6.13785e-13
2.03702e-12
6.1522e-12
1.76623e-11
4.84859e-11
1.26082e-10
3.11124e-10
6.9636e-10
1.43492e-09
2.61496e-09
4.21515e-09
6.88707e-09
5.33841e-09
2.83408e-09
5.80356e-10
1.21271e-15
8.6349e-15
4.1433e-14
1.70652e-13
5.99303e-13
1.97185e-12
5.97557e-12
1.70825e-11
4.62725e-11
1.19967e-10
2.94053e-10
6.48652e-10
1.31479e-09
2.35952e-09
3.54908e-09
4.96557e-09
3.53179e-09
1.09697e-09
3.28894e-10
1.3007e-15
8.5911e-15
3.96128e-14
1.56965e-13
5.51069e-13
1.76265e-12
5.35215e-12
1.51113e-11
4.0767e-11
1.05226e-10
2.5411e-10
5.59747e-10
1.11308e-09
1.92901e-09
2.76958e-09
3.07433e-09
1.83119e-09
6.67343e-10
1.68452e-10
1.3778e-15
7.80711e-15
3.42171e-14
1.29749e-13
4.43798e-13
1.40295e-12
4.18976e-12
1.18012e-11
3.18343e-11
8.23104e-11
1.99259e-10
4.32453e-10
8.40464e-10
1.4377e-09
1.85056e-09
1.88125e-09
9.81404e-10
2.616e-10
9.21995e-11
1.25219e-15
6.21469e-15
2.47855e-14
8.67726e-14
2.86111e-13
8.78862e-13
2.63286e-12
7.63798e-12
2.0864e-11
5.44381e-11
1.32291e-10
2.93203e-10
5.83082e-10
9.36615e-10
1.1194e-09
1.02308e-09
4.25978e-10
1.32503e-10
4.87315e-11
8.52089e-16
3.6024e-15
1.30023e-14
4.27018e-14
1.38251e-13
4.37704e-13
1.33459e-12
3.9444e-12
1.11611e-11
3.04421e-11
7.64143e-11
1.70473e-10
3.25374e-10
5.39353e-10
6.17896e-10
4.66589e-10
1.60122e-10
5.5927e-11
1.581e-11
3.14158e-16
1.1009e-15
3.49866e-15
1.08672e-14
3.91794e-14
1.36061e-13
4.59285e-13
1.44759e-12
4.38153e-12
1.24206e-11
3.25451e-11
7.62624e-11
1.46832e-10
2.34069e-10
2.47053e-10
1.45144e-10
4.85139e-11
1.11594e-11
8.2793e-13
)
;

boundaryField
{
    leftWall
    {
        type            alphaContactAngle;
        contactAngleProperties 
        {
            mercury         
            {
                theta0          90;
            }
            air             
            {
                theta0          90;
            }
            water           
            {
                theta0          90;
            }
        }
        value           nonuniform List<scalar> 
50
(
2.79369e-14
2.26517e-14
5.98146e-14
3.30779e-12
1.7473e-10
2.08378e-09
3.50312e-09
3.65769e-09
2.33805e-09
2.73671e-10
2.55606e-10
0.394269
0.899003
0.999693
0.999693
0.864517
0.164554
5.90466e-06
1.45241e-06
1.56467e-06
1.9254e-06
3.20335e-06
2.36155e-06
1.47594e-06
1.07175e-06
8.10793e-07
5.94001e-07
3.49754e-07
2.17975e-07
1.30076e-07
7.73912e-08
5.22077e-08
3.87354e-08
3.14121e-08
2.12007e-08
1.60185e-08
1.07751e-08
7.79227e-09
4.51271e-09
3.07731e-09
1.49686e-09
8.64965e-10
3.28098e-10
1.29616e-10
3.22739e-11
7.77233e-12
1.00336e-12
5.67857e-14
7.933e-17
1.24331e-22
)
;
    }
    rightWall
    {
        type            alphaContactAngle;
        contactAngleProperties 
        {
            mercury         
            {
                theta0          90;
            }
            air             
            {
                theta0          90;
            }
            water           
            {
                theta0          90;
            }
        }
        value           nonuniform List<scalar> 
50
(
0.222144
0.222438
0.447385
0.452074
0.325231
0.120401
0.0021645
0.00218319
0.167336
0.293048
0.705206
0.982185
0.99986
0.999979
0.999996
0.994645
0.666335
0.030678
3.49277e-10
6.27303e-08
9.80493e-08
2.40585e-07
3.55384e-07
2.96761e-07
1.27569e-07
2.94877e-08
1.5591e-08
1.93305e-08
3.1108e-08
4.9027e-08
8.10031e-08
8.28962e-08
8.13222e-08
7.13258e-08
4.58341e-08
3.85411e-08
2.99621e-08
1.92558e-08
1.15577e-08
5.72318e-09
3.43655e-09
1.86973e-09
1.1794e-09
5.80356e-10
3.28894e-10
1.68452e-10
9.21995e-11
4.87315e-11
1.581e-11
8.2793e-13
)
;
    }
    lowerWall
    {
        type            alphaContactAngle;
        contactAngleProperties 
        {
            mercury         
            {
                theta0          90;
            }
            air             
            {
                theta0          90;
            }
            water           
            {
                theta0          90;
            }
        }
        value           nonuniform List<scalar> 
62
(
2.79369e-14
1.52409e-13
5.88874e-13
1.72528e-12
4.12512e-12
8.59586e-12
1.62944e-11
2.99351e-11
5.34492e-11
9.54845e-11
1.70522e-10
3.05833e-10
5.47797e-10
9.90262e-10
2.00173e-09
3.89667e-09
6.91164e-09
7.06538e-09
7.39736e-09
4.36429e-05
0.000475219
0.000565843
0.000565376
0.000565376
9.27811e-05
1.27201e-08
6.38018e-08
1.15082e-08
1.15902e-05
2.67509e-05
2.5714e-05
1.16847e-14
0.000474009
0.00084168
0.000173475
0.113048
0.168955
0.453858
0.453424
0.192292
0.0230693
0.0243287
0.0384347
0.113048
0.0918025
0.0415966
0.0387771
0.0512638
0.261429
0.290667
0.2917
0.278223
0.273198
0.279199
0.26939
0.131878
0.060602
0.0743133
0.109667
0.191534
0.231251
0.222144
)
;
    }
    atmosphere
    {
        type            inletOutlet;
        inletValue      uniform 0;
        value           nonuniform List<scalar> 
46
(
0
0
0
2.39281e-16
2.31592e-16
1.58417e-16
9.55009e-17
5.73889e-17
3.30009e-17
1.67352e-17
7.22905e-18
2.83889e-18
0
0
0
0
0
0
0
0
0
0
0
0
0
0
0
0
0
0
0
0
1.36061e-13
4.59285e-13
1.44759e-12
4.38153e-12
1.24206e-11
3.25451e-11
7.62624e-11
1.46831e-10
2.34069e-10
2.47053e-10
0
0
0
0
)
;
    }
    defaultFaces
    {
        type            empty;
    }
}


// ************************************************************************* //
