/*--------------------------------*- C++ -*----------------------------------*\
  =========                 |
  \\      /  F ield         | OpenFOAM: The Open Source CFD Toolbox
   \\    /   O peration     | Website:  https://openfoam.org
    \\  /    A nd           | Version:  13
     \\/     M anipulation  |
\*---------------------------------------------------------------------------*/
FoamFile
{
    format      ascii;
    class       volScalarField;
    location    "2.7";
    object      alpha.air;
}
// * * * * * * * * * * * * * * * * * * * * * * * * * * * * * * * * * * * * * //

dimensions      [];

internalField   nonuniform List<scalar> 
2268
(
5.78472e-13
6.78008e-13
8.20082e-13
7.64929e-13
6.28463e-13
4.40399e-13
2.67159e-13
1.40073e-13
6.51582e-14
3.09283e-14
2.83069e-14
3.1302e-14
4.12599e-14
6.05622e-14
1.05003e-13
1.8762e-13
3.3148e-13
6.42749e-13
1.55997e-12
2.23297e-12
2.23891e-12
6.65569e-12
3.6019e-11
2.08612e-12
3.1214e-12
3.24422e-12
3.16074e-12
2.83394e-12
2.22661e-12
1.35368e-12
6.33319e-13
2.85128e-13
1.87018e-13
2.08894e-13
3.32711e-13
6.55055e-13
1.27087e-12
2.27056e-12
3.36006e-12
4.77723e-12
9.1817e-12
1.53111e-11
2.2037e-11
7.46171e-11
4.53687e-10
7.61846e-10
5.19197e-12
8.67959e-12
9.14376e-12
8.0881e-12
7.41262e-12
6.37948e-12
4.82125e-12
2.53005e-12
9.92962e-13
6.42495e-13
8.01832e-13
1.59303e-12
3.62503e-12
8.04361e-12
1.7226e-11
3.45263e-11
5.68315e-11
7.72372e-11
1.2889e-10
3.25886e-10
9.17575e-10
1.90959e-09
1.66216e-09
1.71551e-11
1.61524e-11
2.9659e-11
8.17268e-12
1.00749e-11
9.9278e-12
1.07486e-11
1.04495e-11
7.57359e-12
4.4724e-12
3.71805e-12
4.80376e-12
8.47237e-12
1.94779e-11
4.65952e-11
9.35671e-11
1.72932e-10
2.73376e-10
3.40112e-10
3.24723e-10
1.46382e-09
3.27124e-09
6.35552e-08
4.35813e-11
1.61225e-11
5.09451e-11
8.10075e-12
8.07248e-12
1.01994e-11
1.04941e-11
1.33958e-11
1.52278e-11
1.48805e-11
1.2269e-11
1.17259e-11
1.54925e-11
3.00399e-11
6.1297e-11
1.02593e-10
1.6598e-10
2.78837e-10
2.0219e-09
1.75871e-08
2.11218e-08
2.09458e-08
-5.1679e-08
4.11088e-09
4.63154e-09
2.01639e-09
3.92032e-07
4.92433e-07
2.31932e-07
1.828e-08
1.28718e-11
1.29463e-11
1.29824e-11
5.0323e-11
4.62521e-11
4.59473e-11
5.31571e-11
6.62722e-11
8.32083e-11
8.50057e-11
8.43838e-11
2.00507e-08
2.13781e-07
7.62872e-07
2.73213e-07
0.000187578
1.58333e-08
2.52782e-08
4.89251e-08
7.32653e-07
2.10857e-06
1.51559e-06
4.63002e-07
5.6048e-08
2.6081e-09
1.38654e-09
7.95295e-10
5.20706e-10
3.83233e-10
2.66063e-10
1.50369e-10
1.03456e-09
1.34522e-08
2.08386e-08
1.43742e-08
1.048e-07
3.59075e-06
6.21293e-05
0.000429114
3.1778e-08
7.62674e-08
4.78854e-08
5.53802e-08
3.5629e-06
3.18317e-06
6.38095e-07
2.84241e-07
8.73457e-08
2.23483e-08
7.90311e-09
4.18509e-09
2.19143e-09
1.01219e-09
1.52913e-10
4.95854e-09
3.44396e-08
3.18495e-08
1.7244e-08
3.3416e-07
1.82728e-06
0.000479483
0.000618121
0.000348456
0.00526995
0.0293366
0.0344161
0.0570619
0.0571598
0.056943
0.0507117
0.0454076
0.0453415
0.0642511
0.0665918
0.0693166
0.0624259
0.0487062
0.0138915
0.0137587
0.0136444
0.0134757
0.000330419
0.000323382
0.00363722
0.00771693
0.0119309
0.0227267
0.0274734
0.0288815
0.0705976
0.0939306
0.0636821
0.0646935
0.0704857
0.122922
0.112865
0.0701281
0.0136935
0.0133895
0.01341
0.00877966
0.0110143
0.0143058
0.014559
0.00240899
2.32127e-05
2.309e-05
2.32066e-05
0.0999709
0.320236
0.369145
0.245599
0.231961
0.31728
0.314827
0.175625
0.052893
0.0285305
0.02904
0.0141773
0.0150626
0.0247609
0.0246744
0.0203248
2.31502e-05
2.32281e-05
0.00271694
0.0407616
0.382451
0.573865
0.57384
0.573862
0.573818
0.57384
0.505684
0.307835
0.227803
0.271785
0.0108583
0.010815
0.0112971
0.0197042
0.0166937
0.00275313
0.00215277
0.0150682
0.00971644
0.0179632
0.393591
0.573865
0.57383
0.572179
0.304616
0.114987
0.13479
0.0898256
0.276528
0.0108146
0.0138363
0.00986516
0.00986889
0.00989147
0.0135149
0.0418741
0.0510418
0.0154222
1.3615e-05
4.00544e-05
0.383924
0.573854
0.298986
3.12055e-06
7.2504e-06
1.34212e-05
3.82048e-06
0.275959
0.0302704
0.057385
0.0447802
0.0135642
0.0102871
0.0488044
0.0581464
0.0582308
0.0168961
1.35635e-05
1.36155e-05
0.00103549
0.573815
0.215731
3.1039e-06
2.87542e-05
5.35706e-05
3.8059e-06
0.252446
0.0537513
0.0583683
0.0580457
0.0388175
0.0320742
0.0997092
0.141574
0.0562849
0.000803773
0.000132326
2.88434e-05
0.017195
0.481144
0.10899
3.1972e-06
2.42494e-05
0.00121003
3.76776e-06
0.172485
3.23714e-08
3.19805e-08
6.04014e-05
9.98105e-05
5.88657e-05
1.33066e-06
2.28714e-07
1.58641e-07
1.04411e-07
5.94453e-08
4.02276e-08
3.09486e-08
2.00128e-08
9.25972e-09
6.1441e-09
1.3971e-08
1.71997e-08
1.11731e-08
8.57188e-08
3.54719e-06
9.28386e-06
0.00178639
0.00515313
0.007618
0.00467994
0.00169501
0.000671771
1.8499e-05
1.78763e-09
-7.15572e-15
2.3157e-15
-7.02881e-12
-4.4022e-12
1.16218e-09
1.14773e-09
-1.23834e-10
-4.41021e-11
-6.1199e-18
-2.53379e-27
1.22042e-07
2.76095e-07
6.15789e-07
1.00209e-06
1.49124e-05
0.0101931
0.0289087
0.11276
0.0413726
0.0008527
9.53571e-05
3.33489e-08
2.00536e-08
0.00218933
0.00201772
0.00011261
2.01628e-07
4.6091e-12
7.20505e-10
1.37723e-06
0.00235333
0.0029886
0.00099863
0.00297202
0.0070852
0.0150219
0.0288894
0.0566498
0.0773833
0.134845
0.121076
0.0463629
2.44965e-06
2.71855e-06
3.07251e-06
0.0363117
0.117201
0.136033
0.125605
0.116108
0.112064
0.110169
0.123854
0.142894
0.149113
0.150276
0.150329
0.142475
0.1392
0.140294
0.127736
0.0805962
0.0943223
0.100697
0.00420629
0.000510691
7.61733e-05
0.00375422
0.136318
0.183024
0.183199
0.186017
0.186061
0.186017
0.164629
0.119207
0.106879
0.125177
0.150329
0.127195
0.0352794
0.00634709
0.00453982
0.00105777
0.00367416
0.0438022
0.000260485
1.95411e-20
0.000176328
4.93513e-07
0.0294829
0.0483962
0.0147637
2.39118e-05
0.0113471
0.0238147
0.0177187
0.00943291
0.00430788
0.00195316
0.00385796
0.00316536
1.54893e-07
7.85196e-08
9.32188e-08
5.47392e-09
0.000935151
0.000962692
4.05425e-19
0.000242555
9.27134e-20
-1.48224e-07
4.58993e-07
2.84698e-07
2.78358e-07
3.22488e-07
2.89253e-07
3.12987e-07
7.87968e-07
5.33985e-07
1.53779e-07
3.9762e-08
2.12597e-08
5.522e-09
2.49039e-08
-3.86638e-11
-2.03588e-13
-1.00622e-12
-1.74876e-15
-2.35627e-19
3.45063e-19
3.27914e-20
0.135405
0.143264
0.126651
0.107519
0.0894861
0.0837515
0.0710656
0.0531823
0.0454931
0.0433783
0.045261
0.0509627
0.0608718
0.0743076
0.091414
0.114477
0.143492
0.176159
0.207095
0.231632
0.24579
0.244701
0.231267
0.835418
0.866835
0.859565
0.831548
0.800065
0.766084
0.746385
0.739832
0.734505
0.732763
0.739517
0.756282
0.779489
0.805557
0.832978
0.860904
0.88754
0.911407
0.930507
0.944061
0.951478
0.952238
0.946124
0.999994
0.999998
1
0.999999
1
1
1
1
1
1
1
1
1
1
1
1
1
1
1
1
1
1
1
0.999998
0.999999
0.999999
0.999999
1
1
1
0.999999
0.999999
1
1
1
1
1
1
1
1
1
1
1
1
1
1
0.999998
0.999996
0.999996
0.999999
1
0.999999
0.999993
0.999972
0.999983
0.999998
1
1
1
1
1
1
1
1
1
1
1
1
1
0.999997
0.99999
0.999969
0.999984
1
0.999998
0.99992
0.999835
0.999854
0.999995
0.999999
0.999999
1
1
1
1
1
1
1
1
1
1
1
0.999997
0.999972
0.999944
0.99995
0.999995
0.999994
0.999871
0.999835
0.999834
0.999871
0.999997
0.999997
0.999999
0.999999
0.999999
1
1
1
1
1
1
1
1
0.999998
0.999976
0.999945
0.999947
0.999996
0.999999
0.999965
0.999838
0.999837
0.999853
0.999997
0.999997
0.999997
0.999997
0.999999
1
1
1
1
1
1
1
1
0.999999
0.999993
0.999972
0.999979
0.999999
1
0.999999
0.99998
0.999935
0.999963
0.999998
0.999997
0.999997
0.999997
0.999999
1
1
1
1
1
1
1
1
0.999999
0.999998
0.999998
0.999999
1
1
1
1
1
1
1
0.999999
0.999998
0.999999
1
1
1
1
1
1
1
1
1
0.999999
0.999999
1
1
1
1
1
1
1
1
1
0.999999
0.999999
1
1
1
1
1
1
1
1
1
1
0.999999
0.999999
1
1
1
1
1
1
1
1
1
0.999999
0.999999
1
1
1
1
1
1
1
1
1
1
1
1
1
1
1
1
1
1
1
1
1
1
1
1
1
1
1
1
1
1
1
1
1
1
1
1
1
1
1
1
1
1
1
1
1
1
1
1
1
1
1
1
1
1
1
1
1
1
1
1
1
1
1
1
1
1
1
1
1
1
1
1
1
1
1
1
1
1
1
1
1
1
1
1
1
1
1
1
1
1
1
1
1
1
1
1
1
1
1
1
1
1
1
1
1
1
1
1
1
1
1
1
1
1
1
1
1
1
1
1
1
1
1
1
1
1
1
1
1
1
1
1
1
1
1
1
1
1
1
1
1
1
1
1
1
1
1
1
1
1
1
1
1
1
1
1
1
1
1
1
1
1
1
1
1
1
1
1
1
1
1
1
1
1
1
1
1
1
1
1
1
1
1
1
1
1
1
1
1
1
1
1
1
1
1
1
1
1
1
1
1
1
1
1
1
1
1
1
1
1
1
1
1
1
1
1
1
1
1
1
1
1
1
1
1
1
1
1
1
1
1
1
1
1
1
1
1
1
1
1
1
1
1
1
1
1
1
1
1
1
1
1
1
1
1
1
1
1
1
1
1
1
1
1
1
1
1
1
1
1
1
1
1
1
1
1
1
1
1
1
1
1
1
1
1
1
1
1
1
1
1
1
1
1
1
1
1
1
1
1
1
1
1
1
1
1
1
1
1
1
1
1
1
1
1
1
1
1
1
1
1
1
1
1
1
1
1
1
1
1
1
1
1
1
1
1
1
1
1
1
1
1
1
1
1
1
1
1
1
1
1
1
1
1
1
1
1
1
1
1
1
1
1
1
1
1
1
1
1
1
1
1
1
1
1
1
1
1
1
1
1
1
1
1
1
1
1
1
1
1
1
1
1
1
1
1
1
1
1
1
1
1
1
1
1
1
1
1
1
1
1
1
1
1
1
1
1
1
1
1
1
1
1
1
1
1
1
1
1
1
1
1
1
1
1
1
1
1
1
1
1
1
1
1
1
1
1
1
1
1
1
1
1
1
1
1
1
1
1
1
1
1
1
1
1
1
1
1
1
1
1
1
1
1
1
1
1
1
1
1
1
1
1
1
1
1
1
1
1
1
1
1
1
1
1
1
1
1
1
1
1
1
1
1
1
1
1
1
1
1
1
1
1
1
1
1
1
1
1
1
1
1
1
1
1
1
1
1
1
1
1
1
1
1
1
1
1
1
1
0.00693871
0.00359611
0.000802319
0.000233739
0.0359445
0.0168455
0.00118753
0.0047772
0.136631
0.122516
0.0389592
0.0390985
0.135658
0.137369
0.137133
0.0987452
0.0379734
0.0129163
7.55883e-07
8.04785e-07
1.72563e-33
4.99267e-14
7.1194e-07
3.52446e-06
8.57909e-16
1.77222e-06
8.66129e-20
-1.84577e-19
0.200587
0.183169
0.167065
0.151
0.928085
0.917038
0.90716
0.898517
1
1
1
1
1
1
1
1
1
1
1
1
1
1
1
1
1
1
1
1
1
1
1
1
1
1
1
1
1
1
1
1
1
1
1
1
1
1
1
1
1
1
1
1
1
1
1
1
1
1
1
1
1
1
1
1
1
1
1
1
1
1
1
1
1
1
1
1
1
1
1
1
1
1
1
1
1
1
1
1
1
1
1
1
1
1
1
1
1
1
1
1
1
1
1
1
1
1
1
1
1
1
1
1
1
1
1
1
1
1
1
1
1
1
1
1
1
1
1
1
1
1
1
1
1
1
1
1
1
1
1
1
0.00419135
0.00492629
0.0280742
0.0389412
0.101649
0.180849
0.1739
0.0223105
0.000950162
0.000668
0.000350403
0.000615538
0.0231812
0.000828683
3.02516e-05
1.99125e-05
0.0064534
0.0314844
0.0593335
0.00176994
0.00845041
0.076681
0.104389
0.180579
0.180849
0.180849
0.140249
0.0168503
0.000252115
0.00061695
0.000879142
0.00045295
0.000336556
0.000131852
2.02736e-05
0.0133288
0.0593497
0.0448964
0.130224
0.176276
0.180827
0.180827
0.180849
0.180849
0.180849
0.180849
0.081666
4.10188e-05
4.85767e-05
0.000731403
0.000837193
0.000698262
0.000173641
1.99397e-05
0.0149709
0.0593533
0.057342
0.101731
0.120902
0.115292
0.071198
0.046243
0.124995
0.180849
0.180849
0.0508737
1.35317e-07
2.87677e-06
2.69762e-05
6.01062e-05
6.49727e-05
0.000159039
0.000246897
0.00192781
0.0160295
0.0131246
0.00129559
0.0031833
0.00155287
8.83579e-05
7.10622e-05
0.0130791
0.0620562
0.0479192
0.00677965
1.25979e-07
9.47239e-07
5.00481e-07
5.22611e-08
5.06947e-11
7.158e-05
0.000218411
0.000177478
3.07801e-20
3.55558e-18
7.89477e-08
8.27689e-21
7.40988e-06
0.000117151
6.45756e-05
2.00833e-08
1.51688e-19
2.62906e-16
6.57594e-20
1.20993e-07
2.72457e-07
2.21998e-07
6.94943e-08
3.67126e-11
2.87736e-06
5.31221e-05
3.8158e-05
9.43545e-06
1.05767e-07
-6.43082e-10
-5.07163e-11
6.7239e-07
2.19508e-07
-2.49282e-07
-6.37148e-09
-5.55839e-11
5.86913e-30
2.63163e-16
7.78352e-09
2.38898e-11
1.42105e-11
2.1158e-12
4.65608e-13
4.27955e-07
7.72857e-06
7.73772e-06
1.69506e-06
5.43192e-08
0.130702
0.0932883
0.0666247
0.0482173
0.0336963
0.0221504
0.013559
0.00708835
0.00281462
0.000215364
1.13524e-06
1.86539e-06
1.58555e-06
1.35046e-06
2.48874e-12
2.26645e-12
7.17346e-13
5.4071e-20
-3.06585e-12
0.888979
0.859956
0.830858
0.805083
0.780905
0.758139
0.74062
0.727823
0.713573
0.688842
0.647515
0.587121
0.507942
0.420017
0.39297
0.391533
0.36842
0.342177
0.322081
1
1
1
1
1
0.999999
0.999998
0.999994
0.999985
0.999982
0.999915
0.999725
0.997613
0.988457
0.981276
0.978282
0.973453
0.970907
0.961797
1
1
0.999998
0.999814
0.999523
0.999354
0.999341
0.999745
0.99997
0.999959
0.999929
0.9997
0.999613
0.999483
0.999697
0.999749
0.999709
0.999969
0.999841
1
0.999999
0.999996
0.999688
0.999097
0.999081
0.999217
0.999889
0.999995
0.999988
0.999389
0.999268
0.999259
0.999676
1
1
1
1
0.999998
1
1
1
1
1
0.999936
0.999999
0.999998
0.999999
0.999982
0.999776
0.999549
0.999707
0.999884
0.999998
1
1
1
1
1
1
1
1
1
1
0.999999
0.999998
0.999998
0.999996
1
0.999996
1
1
0.999999
1
1
1
1
1
1
1
1
1
1
1
1
1
1
1
1
1
1
1
1
1
1
1
1
1
1
1
1
1
1
1
1
1
1
1
1
1
1
1
1
1
1
1
1
1
1
1
1
1
1
1
1
1
1
1
1
1
1
1
1
1
1
1
1
1
1
1
1
1
1
1
1
1
1
1
1
1
1
1
1
1
1
1
1
1
1
1
1
1
1
1
1
1
1
1
1
1
1
1
1
1
1
1
1
1
1
1
1
1
1
1
1
1
1
1
1
1
1
1
1
1
1
1
1
1
1
1
1
1
1
1
1
1
1
1
1
1
1
1
1
1
1
1
1
1
1
1
1
1
1
1
1
1
1
1
1
1
1
1
1
1
1
1
1
1
1
1
1
1
1
1
1
1
1
1
1
1
1
1
1
1
1
1
1
1
1
1
1
1
1
1
1
1
1
1
1
1
1
1
1
1
1
1
1
1
1
1
1
1
1
1
1
1
1
1
1
1
1
1
1
1
1
1
1
1
1
1
1
1
1
1
1
1
1
1
1
1
1
1
1
1
1
1
1
1
1
1
1
1
1
1
1
1
1
1
1
1
1
1
1
1
1
1
1
1
1
1
1
1
1
1
1
1
1
1
1
1
1
1
1
1
1
1
1
1
1
1
1
1
1
1
1
1
1
1
1
1
1
1
1
1
1
1
1
1
1
1
1
1
1
1
1
1
1
1
1
1
1
1
1
1
1
1
1
1
1
1
1
1
1
1
1
1
1
1
1
1
1
1
1
1
1
1
1
1
1
1
1
1
1
1
1
1
1
1
1
1
1
1
1
1
1
1
1
1
1
1
1
1
1
1
1
1
1
1
1
1
1
1
1
1
1
1
1
1
1
1
1
1
1
1
1
1
1
1
1
1
1
1
1
1
1
1
1
1
1
1
1
1
1
1
1
1
1
1
1
1
1
1
1
1
1
1
1
1
1
1
1
1
1
1
1
1
1
1
1
1
1
1
1
1
1
1
1
1
1
1
1
1
1
1
1
1
1
1
1
1
1
1
1
1
1
1
1
1
1
1
1
1
1
1
1
1
1
1
1
1
1
1
1
1
1
1
1
1
1
1
1
1
1
1
1
1
1
1
1
1
1
1
1
1
1
1
1
1
1
1
1
1
1
1
1
1
1
1
1
1
1
1
1
1
1
1
1
1
1
1
1
1
1
1
1
1
1
1
1
)
;

boundaryField
{
    leftWall
    {
        type            alphaContactAngle;
        contactAngleProperties 
        {
            mercury         
            {
                theta0          90;
            }
            water           
            {
                theta0          90;
            }
            oil             
            {
                theta0          90;
            }
        }
        value           nonuniform List<scalar> 
50
(
5.78472e-13
2.08612e-12
5.19197e-12
1.71551e-11
4.35813e-11
4.11088e-09
1.58333e-08
3.1778e-08
3.23714e-08
0.007618
0.11276
0.121076
0.100697
0.000260485
0.000242555
0.135405
0.835418
0.999994
0.999998
0.999998
0.999997
0.999997
0.999998
0.999999
0.999999
0.999999
0.999999
1
1
1
1
1
1
1
1
1
1
1
1
1
1
1
1
1
1
1
1
1
1
1
)
;
    }
    rightWall
    {
        type            alphaContactAngle;
        contactAngleProperties 
        {
            mercury         
            {
                theta0          90;
            }
            water           
            {
                theta0          90;
            }
            oil             
            {
                theta0          90;
            }
        }
        value           nonuniform List<scalar> 
50
(
0.0134757
0.01341
0.02904
0.271785
0.276528
0.275959
0.252446
0.172485
0.0593335
0.0448964
0.057342
0.0131246
3.55558e-18
1.05767e-07
5.43192e-08
-3.06585e-12
0.322081
0.961797
0.999841
0.999998
1
1
1
1
1
1
1
1
1
1
1
1
1
1
1
1
1
1
1
1
1
1
1
1
1
1
1
1
1
1
)
;
    }
    lowerWall
    {
        type            alphaContactAngle;
        contactAngleProperties 
        {
            mercury         
            {
                theta0          90;
            }
            water           
            {
                theta0          90;
            }
            oil             
            {
                theta0          90;
            }
        }
        value           nonuniform List<scalar> 
62
(
5.78472e-13
6.78008e-13
8.20082e-13
7.64929e-13
6.28463e-13
4.40399e-13
2.67159e-13
1.40073e-13
6.51582e-14
3.09283e-14
2.83069e-14
3.1302e-14
4.12599e-14
6.05622e-14
1.05003e-13
1.8762e-13
3.3148e-13
6.42749e-13
1.55997e-12
2.23297e-12
2.23891e-12
6.65569e-12
3.6019e-11
3.6019e-11
7.61846e-10
1.66216e-09
6.35552e-08
-5.1679e-08
0.000187578
0.000429114
0.000618121
0.00693871
0.00359611
0.000802319
0.000233739
0.000348456
0.000330419
0.00877966
0.0141773
0.0108583
0.0108146
0.0302704
0.0537513
0.000348456
0.00526995
0.0293366
0.0344161
0.0570619
0.0571598
0.056943
0.0507117
0.0454076
0.0453415
0.0642511
0.0665918
0.0693166
0.0624259
0.0487062
0.0138915
0.0137587
0.0136444
0.0134757
)
;
    }
    atmosphere
    {
        type            inletOutlet;
        inletValue      uniform 1;
        value           nonuniform List<scalar> 
46
(
1
1
1
1
1
1
1
1
1
1
1
1
1
1
1
1
1
1
1
1
1
1
1
1
1
1
1
1
1
1
1
1
1
1
1
1
1
1
1
1
0.999999
0.999999
1
1
1
1
)
;
    }
    defaultFaces
    {
        type            empty;
    }
}


// ************************************************************************* //
