/*--------------------------------*- C++ -*----------------------------------*\
  =========                 |
  \\      /  F ield         | OpenFOAM: The Open Source CFD Toolbox
   \\    /   O peration     | Website:  https://openfoam.org
    \\  /    A nd           | Version:  13
     \\/     M anipulation  |
\*---------------------------------------------------------------------------*/
FoamFile
{
    format      ascii;
    class       volScalarField;
    location    "2.7";
    object      alpha.water;
}
// * * * * * * * * * * * * * * * * * * * * * * * * * * * * * * * * * * * * * //

dimensions      [];

internalField   nonuniform List<scalar> 
2268
(
1.03298e-10
1.29143e-10
1.50268e-10
1.55246e-10
1.61012e-10
1.67471e-10
1.75084e-10
1.82255e-10
1.88105e-10
1.93089e-10
1.98301e-10
2.0337e-10
2.1139e-10
2.2773e-10
2.64623e-10
3.25563e-10
4.17637e-10
5.27295e-10
8.32943e-10
1.7371e-09
2.63737e-09
2.77784e-09
2.77734e-09
2.1963e-10
2.98615e-10
3.02109e-10
2.90151e-10
2.9374e-10
3.08373e-10
3.32467e-10
3.7224e-10
4.15686e-10
4.66281e-10
5.02585e-10
5.36017e-10
5.49532e-10
5.54098e-10
5.58045e-10
5.68181e-10
5.94766e-10
6.9296e-10
9.06517e-10
1.46903e-09
2.41675e-09
2.65867e-09
2.21175e-09
2.17305e-10
1.1185e-09
2.3513e-09
2.18252e-09
1.75245e-09
1.28385e-09
3.59926e-10
4.06455e-10
5.01484e-10
6.14605e-10
7.29039e-10
8.56464e-10
9.67216e-10
1.01936e-09
1.00643e-09
9.1785e-10
8.9288e-10
9.40994e-10
1.15028e-09
1.56554e-09
2.04802e-09
2.30909e-09
1.43551e-09
1.66731e-10
1.76183e-10
1.88319e-10
1.82804e-10
2.03353e-10
1.7443e-09
1.04747e-08
2.33876e-10
2.61564e-10
3.57269e-10
4.85154e-10
6.118e-10
8.3846e-10
1.04941e-09
1.14341e-09
1.00608e-09
8.11877e-10
8.92627e-10
1.05651e-09
1.27727e-09
1.74019e-09
1.77754e-09
1.00951e-09
9.08626e-08
0.00675136
0.00752554
0.00319399
2.57454e-07
1.36538e-08
1.67518e-09
8.46647e-09
1.61796e-11
4.22354e-11
3.21159e-10
1.98829e-09
8.59386e-10
1.16569e-09
5.44138e-10
5.42992e-10
4.10561e-10
5.07591e-10
4.11015e-10
7.59805e-10
5.93805e-10
1.86287e-10
1.72799e-10
0.624141
0.615639
0.603802
0.572717
0.51857
0.443172
0.353598
0.260531
0.183511
0.115372
0.0581626
0.0151875
4.86338e-07
4.75411e-08
3.57782e-08
5.82982e-09
2.55704e-08
4.11885e-10
7.61241e-10
6.00527e-10
8.22895e-10
1.14804e-10
1.99442e-10
1
1
1
0.99979
0.998149
0.995017
0.988985
0.971669
0.925441
0.860524
0.77634
0.670361
0.532995
0.384926
0.253159
0.14964
0.0727791
0.0267107
0.0157097
0.00809361
0.00375075
0.00611424
0.0127495
1
1
1
1
0.999996
0.999997
0.999999
1
1
1
1
1
0.998991
0.984234
0.948615
0.8843
0.800381
0.700998
0.585082
0.498827
0.461234
0.490074
0.535137
0.00880831
0.0251329
0.0512727
0.0491844
0.0217031
0.00319461
0.00126703
0.00119626
0.000896704
0.000858418
0.00726537
0.032552
0.124399
0.124401
0.12441
0.12387
0.0421384
0.0025471
0.0118196
0.00849628
0.00851499
0.0141558
0.0738125
0.0966513
0.0861112
0.035487
0.0525568
0.058655
0.0166629
0.000696157
0.0135736
0.0521627
0.0641357
0.0724414
0.0325912
0.00277974
0.00255742
0.0116008
0.00851468
0.0120171
0.0495805
0.0970504
0.305951
0.437583
0.43752
0.440836
0.36062
0.0592289
0.000665516
0.000666251
0.000646572
0.000650882
0.000645318
0.000647721
0.000641566
0.000647163
0.000643815
0.243571
0.438223
0.456181
0.474283
0.440599
0.490042
0.775653
0.840473
0.841189
0.52117
0.119937
0.000656327
0.000656512
0.000792803
0.00794639
0.0496563
0.14874
0.196252
0.0488645
0.729997
0.893969
0.879996
0.854472
0.550716
0.218955
0.228503
0.376934
0.796801
0.976202
0.597424
0.19354
0.0131022
0.0394331
0.365992
0.656263
0.766073
0.909955
0.398241
0.900548
0.901528
0.902359
0.889872
0.450888
0.181726
0.159254
0.160971
0.690322
0.988454
0.99944
0.584232
0.117683
0.374718
0.829286
0.999793
0.999802
0.999769
0.60364
0.8988
0.891853
0.904939
0.906224
0.381524
0.118592
0.118574
0.478769
0.935069
0.992069
0.99944
0.986954
0.148519
0.492087
0.999758
0.999794
0.999779
0.997924
0.74539
0.889482
0.889008
0.909014
0.913968
0.565756
0.118693
0.257241
0.89916
0.99912
0.999164
0.999482
0.960401
0.238936
0.632057
0.996286
0.999786
0.998595
0.993531
0.825332
1
1
0.99994
0.9999
0.999941
0.999999
1
1
1
1
1
1
1
1
1
1
1
1
1
0.999996
0.999986
0.998214
0.994847
0.992382
0.99532
0.998305
0.999328
0.999981
1
1
1
1
1
1
1
1
1
1
1
1
1
0.999999
0.999999
0.999985
0.989807
0.971091
0.88724
0.947855
0.985543
0.993536
0.999257
1
0.997811
0.997982
0.999887
1
1
1
0.999999
0.997647
0.997011
0.999001
0.997028
0.992915
0.982558
0.957265
0.900401
0.794468
0.618032
0.484655
0.377569
0.380881
0.436675
0.545041
0.710426
0.7911
0.798372
0.804118
0.807078
0.80452
0.782512
0.746175
0.729173
0.719664
0.696129
0.630397
0.50698
0.38155
0.284966
0.196601
0.0791801
1.43874e-18
0.000300336
8.72465e-10
-2.47768e-23
-2.81306e-10
-5.07278e-09
0.0490062
0.108109
0.108563
0.0944809
0.0867009
0.067739
0.0455871
0.0389097
0.0333346
0.0241415
0.0130093
-2.08264e-20
2.6848e-26
8.40834e-21
2.33078e-26
-4.32179e-12
-6.91782e-24
4.12364e-07
4.69006e-05
0.000304279
1.08273e-05
1.18833e-24
-2.90649e-07
-2.1931e-07
-1.76373e-08
-6.9061e-10
6.93115e-18
7.21854e-20
1.93435e-20
-6.39161e-22
-2.33657e-20
4.71689e-16
1.34357e-20
3.95216e-19
4.67233e-10
1.77967e-08
7.05571e-08
1.37724e-07
6.03719e-07
1.31184e-06
1.01807e-05
6.44374e-05
0.000720416
5.2169e-05
-2.46785e-26
3.18838e-08
4.59149e-08
7.18837e-09
4.29641e-09
3.96057e-09
2.7486e-09
6.04192e-09
1.2308e-08
1.98051e-08
2.55172e-08
2.23885e-08
2.69511e-08
5.33562e-08
9.37028e-08
3.2879e-07
4.37916e-07
3.27336e-07
5.81071e-07
1.2292e-06
7.72513e-05
0.000719854
7.59927e-05
-7.03547e-17
2.24226e-07
2.68129e-07
1.39396e-07
5.74868e-08
9.56474e-09
1.35009e-09
1.37667e-09
7.22713e-08
1.8449e-07
1.79359e-07
1.05493e-07
1.06795e-07
2.35866e-07
2.38278e-07
1.48771e-07
3.17022e-08
5.33615e-09
1.05443e-07
1.1556e-06
2.80788e-05
0.00016755
4.02746e-05
3.33638e-11
1.45805e-07
2.68171e-07
2.68129e-07
1.83959e-07
2.18209e-09
1.51638e-09
7.26493e-09
1.38255e-07
1.98136e-07
1.97966e-07
1.87235e-07
5.15673e-08
4.56102e-10
4.57596e-10
4.56102e-10
4.63651e-10
3.93994e-09
1.58545e-07
3.18285e-07
3.23834e-07
1.3131e-07
1.35244e-07
1.38867e-06
4.24996e-08
1.13659e-07
1.29432e-07
6.87746e-08
2.47429e-08
1.2802e-08
1.47667e-08
2.72192e-08
3.31557e-08
2.70873e-08
1.02808e-08
4.47075e-09
3.6595e-09
2.47635e-09
1.55804e-09
8.37204e-10
2.65392e-10
2.87631e-12
7.23785e-27
2.19777e-07
7.06763e-07
1.08663e-06
5.85209e-07
1.5534e-09
2.53981e-08
3.13503e-08
5.23948e-08
5.73865e-08
4.48661e-08
1.60589e-08
1.09789e-08
1.24852e-08
1.49785e-08
1.89611e-08
1.28656e-08
5.1265e-09
2.75024e-09
2.32895e-09
2.02001e-09
1.95718e-09
2.14685e-09
3.15618e-09
4.36418e-07
2.05397e-06
3.5067e-06
1.04483e-06
1.32646e-10
4.67685e-09
6.59271e-08
7.25279e-07
1.05695e-06
5.85314e-07
1.69946e-07
1.17501e-07
1.35017e-07
1.43576e-07
1.45274e-07
4.55258e-08
5.08023e-09
5.74404e-09
4.93281e-09
3.50071e-09
1.8862e-09
2.24412e-10
1.15397e-10
6.0786e-07
3.1857e-06
4.48968e-06
1.79858e-06
1.67567e-10
1.4034e-10
8.44776e-08
2.0145e-06
3.12665e-06
2.94415e-06
7.73493e-07
5.21572e-07
4.89084e-07
4.81787e-07
2.64455e-07
1.11526e-07
1.15284e-08
9.20287e-09
7.40742e-09
5.15073e-09
3.06671e-09
1.40866e-09
4.02009e-10
2.17974e-07
2.3515e-06
4.52098e-06
3.45238e-06
4.8994e-11
5.00408e-11
1.7868e-07
1.4113e-06
2.53578e-06
3.27411e-06
3.26438e-06
3.15559e-06
1.40655e-06
1.09161e-06
5.87276e-07
1.1039e-07
3.75693e-08
1.18747e-08
1.16019e-08
1.171e-08
9.43382e-09
6.2099e-09
2.54829e-09
5.27258e-08
7.57872e-07
3.34963e-06
3.02497e-06
4.9591e-11
4.94776e-11
5.00071e-11
9.73111e-09
1.11661e-06
2.55104e-06
3.26421e-06
3.27457e-06
3.26496e-06
3.2489e-06
1.07664e-06
1.18379e-08
1.17925e-08
1.1779e-08
1.5557e-08
1.87276e-08
1.74273e-08
1.37815e-08
7.50637e-09
2.07073e-08
2.58129e-08
3.66342e-07
5.24287e-07
7.24909e-08
6.6086e-11
9.10032e-11
8.95202e-11
8.55839e-11
4.50854e-07
1.82067e-06
2.90676e-06
3.25566e-06
3.1011e-06
6.76116e-07
8.21337e-08
3.40374e-08
1.17373e-08
1.45647e-08
2.07309e-08
2.08127e-08
1.60969e-08
1.0969e-08
1.81804e-08
1.70874e-08
2.03577e-08
1.86838e-08
1.55917e-08
2.63285e-09
2.21211e-10
3.98335e-10
1.44398e-09
1.10611e-08
1.02643e-07
5.25614e-07
1.44702e-06
1.02602e-06
9.25583e-08
9.67154e-08
9.24827e-08
3.80977e-08
9.7345e-09
1.38912e-08
1.85314e-08
1.49348e-08
9.88906e-09
2.01757e-08
1.73089e-08
1.79762e-08
6.59378e-09
4.06714e-09
1.92698e-09
4.67388e-10
5.39225e-10
1.33421e-09
6.98047e-09
3.54243e-08
1.0309e-07
1.44271e-07
1.68861e-09
2.67274e-08
5.5913e-08
6.06033e-08
3.11467e-08
9.64453e-09
1.00667e-08
1.20322e-08
1.00378e-08
8.1711e-09
2.03113e-08
1.5458e-08
1.91674e-08
6.67149e-09
3.27841e-09
1.94211e-09
6.90922e-10
7.89926e-10
1.259e-09
1.82965e-09
4.62196e-09
1.19194e-08
1.18048e-08
1.78738e-09
1.44455e-08
3.00567e-08
3.01281e-08
2.1595e-08
1.05639e-08
7.43986e-09
7.42428e-09
7.3206e-09
5.94452e-09
1.97601e-08
1.23687e-08
1.60695e-08
6.37156e-09
3.44933e-09
2.18725e-09
1.26679e-09
1.26203e-09
1.39026e-09
1.64896e-09
2.36709e-09
3.45139e-09
1.23761e-09
1.26225e-09
4.66129e-09
1.14218e-08
1.33096e-08
1.14001e-08
7.1244e-09
5.08673e-09
4.63685e-09
3.9679e-09
3.84224e-09
1.86523e-08
9.64018e-09
1.0251e-08
5.30394e-09
3.27467e-09
2.24466e-09
1.68719e-09
1.42944e-09
1.30086e-09
1.36741e-09
1.59144e-09
1.92948e-09
1.3971e-09
1.20317e-09
2.23597e-09
4.78008e-09
6.05898e-09
5.54243e-09
4.3231e-09
3.0901e-09
2.3935e-09
2.19819e-09
2.05302e-09
1.80519e-08
7.59307e-09
6.54965e-09
4.1574e-09
2.9014e-09
2.147e-09
1.68798e-09
1.40282e-09
1.18933e-09
1.05669e-09
1.07045e-09
1.03665e-09
8.79004e-10
8.10874e-10
1.11406e-09
1.97432e-09
2.72017e-09
2.53662e-09
2.03902e-09
1.52418e-09
1.14576e-09
9.3181e-10
9.33236e-10
1.79688e-08
6.35779e-09
4.26814e-09
3.19249e-09
2.52125e-09
1.99055e-09
1.60461e-09
1.31837e-09
1.09192e-09
8.72027e-10
6.9851e-10
6.02894e-10
4.96879e-10
4.60606e-10
5.55541e-10
8.02506e-10
1.07296e-09
1.03488e-09
8.3606e-10
6.25414e-10
4.46248e-10
3.80255e-10
3.63902e-10
1.7955e-08
5.74672e-09
3.0481e-09
2.54837e-09
2.18442e-09
1.80157e-09
1.47495e-09
1.18786e-09
9.45135e-10
7.2128e-10
5.43314e-10
4.08278e-10
3.06784e-10
2.60607e-10
2.62985e-10
3.06636e-10
3.77118e-10
3.63789e-10
2.93858e-10
2.23726e-10
1.64034e-10
1.24219e-10
1.22961e-10
1.79424e-08
5.79311e-09
2.41429e-09
2.23131e-09
1.93958e-09
1.59232e-09
1.28172e-09
1.01329e-09
7.85646e-10
5.93534e-10
4.37586e-10
3.11815e-10
2.20727e-10
1.63181e-10
1.34543e-10
1.22719e-10
1.23075e-10
1.12392e-10
9.15256e-11
6.98541e-11
4.90811e-11
4.05478e-11
3.78648e-11
1.79429e-08
6.96013e-09
2.32508e-09
2.10476e-09
1.75466e-09
1.3852e-09
1.0644e-09
8.12855e-10
6.14603e-10
4.57823e-10
3.36958e-10
2.41066e-10
1.66971e-10
1.14188e-10
7.78881e-11
5.7199e-11
4.44754e-11
3.51705e-11
2.70499e-11
2.04634e-11
1.57291e-11
1.22784e-11
1.12992e-11
1.70906e-08
7.64172e-09
2.84672e-09
2.1078e-09
1.58768e-09
1.17173e-09
8.56741e-10
6.2138e-10
4.52968e-10
3.31563e-10
2.423e-10
1.72502e-10
1.20922e-10
8.16363e-11
5.25441e-11
3.36208e-11
2.14643e-11
1.43672e-11
9.44198e-12
6.83856e-12
5.19216e-12
4.16004e-12
3.62053e-12
1.57446e-08
7.29848e-09
3.55207e-09
2.10589e-09
1.4173e-09
9.68389e-10
6.58662e-10
4.46565e-10
3.119e-10
2.20346e-10
1.56977e-10
1.1101e-10
7.69372e-11
5.20199e-11
3.34603e-11
2.07108e-11
1.24322e-11
7.49942e-12
4.28522e-12
2.71045e-12
1.97072e-12
1.43188e-12
1.23007e-12
1.38226e-08
6.78302e-09
3.50123e-09
1.99695e-09
1.23815e-09
7.76789e-10
4.88993e-10
3.09167e-10
1.99993e-10
1.33154e-10
9.04249e-11
6.21766e-11
4.24208e-11
2.86876e-11
1.87416e-11
1.151e-11
6.84179e-12
3.91861e-12
2.05567e-12
1.18358e-12
7.34426e-13
5.01231e-13
4.021e-13
1.23761e-08
6.07974e-09
3.22137e-09
1.78326e-09
1.03458e-09
6.04385e-10
3.49997e-10
2.03595e-10
1.21937e-10
7.51667e-11
4.78394e-11
3.09596e-11
2.05336e-11
1.35363e-11
8.83288e-12
5.52032e-12
3.21318e-12
1.80752e-12
8.99177e-13
4.69624e-13
2.75663e-13
1.64061e-13
1.25537e-13
9.82908e-09
5.17693e-09
2.74881e-09
1.47484e-09
8.08151e-10
4.44721e-10
2.37903e-10
1.27721e-10
6.93406e-11
3.92747e-11
2.30066e-11
1.39117e-11
8.63443e-12
5.58507e-12
3.58307e-12
2.18808e-12
1.27708e-12
7.05382e-13
3.42857e-13
1.73615e-13
8.6313e-14
5.06756e-14
3.57254e-14
8.38942e-09
4.20707e-09
2.16692e-09
1.12102e-09
5.84013e-10
3.00661e-10
1.49677e-10
7.41597e-11
3.73254e-11
1.87289e-11
9.78589e-12
5.60146e-12
3.3186e-12
2.019e-12
1.22886e-12
7.59379e-13
4.25674e-13
2.38081e-13
1.08631e-13
5.16534e-14
2.64186e-14
1.3802e-14
9.05227e-15
5.65139e-09
2.92723e-09
1.49676e-09
7.48015e-10
3.69249e-10
1.7848e-10
8.29308e-11
3.83378e-11
1.75039e-11
8.15046e-12
3.94919e-12
2.02971e-12
1.12211e-12
6.47962e-13
3.75594e-13
2.18722e-13
1.19724e-13
6.39931e-14
2.91054e-14
1.31054e-14
5.9911e-15
3.24025e-15
2.01204e-15
4.20053e-09
1.96118e-09
9.09984e-10
4.36042e-10
2.0428e-10
9.22234e-11
4.08449e-11
1.79128e-11
7.63608e-12
3.2989e-12
1.40425e-12
6.78955e-13
3.39404e-13
1.8178e-13
9.88915e-14
5.52567e-14
2.92306e-14
1.46102e-14
6.54894e-15
2.794e-15
1.30556e-15
6.47716e-16
3.77882e-16
2.1992e-09
1.00126e-09
4.65125e-10
2.11412e-10
9.49813e-11
4.12589e-11
1.75966e-11
7.11435e-12
2.8482e-12
1.12921e-12
4.57548e-13
1.91647e-13
8.88675e-14
4.44319e-14
2.3208e-14
1.21119e-14
6.10451e-15
2.87408e-15
1.20229e-15
5.05742e-16
2.25259e-16
1.13609e-16
6.25372e-17
1.146e-09
4.9733e-10
2.16713e-10
9.44634e-11
3.95048e-11
1.61751e-11
6.55294e-12
2.54052e-12
9.4866e-13
3.45123e-13
1.25632e-13
4.94579e-14
2.08314e-14
9.8823e-15
4.95722e-15
2.47791e-15
1.17297e-15
5.06968e-16
2.02901e-16
7.9815e-17
3.44898e-17
1.66812e-17
8.54225e-18
4.05406e-10
1.86268e-10
7.85355e-11
3.24005e-11
1.34042e-11
5.41153e-12
2.10871e-12
7.74788e-13
2.70624e-13
9.20831e-14
3.04692e-14
1.12392e-14
4.63854e-15
2.06096e-15
9.74167e-16
4.49491e-16
1.97849e-16
7.9535e-17
3.03924e-17
1.12682e-17
4.72674e-18
2.12435e-18
9.86284e-19
1.2738e-10
5.13415e-11
2.11293e-11
8.96135e-12
3.75967e-12
1.53034e-12
5.64371e-13
2.02091e-13
6.87467e-14
2.23576e-14
7.17142e-15
2.44302e-15
9.22134e-16
3.83333e-16
1.68451e-16
7.29525e-17
2.94864e-17
1.09107e-17
3.87343e-18
1.42384e-18
5.60445e-19
2.29423e-19
1.00655e-19
2.25559e-11
9.50613e-12
4.38571e-12
1.95299e-12
8.99617e-13
3.71366e-13
1.37631e-13
4.67215e-14
1.53889e-14
4.71562e-15
1.39652e-15
4.55017e-16
1.65507e-16
6.49106e-17
2.68718e-17
1.06935e-17
3.94962e-18
1.35551e-18
4.53692e-19
1.57948e-19
5.77924e-20
2.1266e-20
8.40998e-21
1.71097e-12
8.71736e-13
5.72434e-13
3.41763e-13
1.662e-13
7.08643e-14
2.80432e-14
1.01223e-14
3.27711e-15
9.51129e-16
2.76076e-16
8.28865e-17
2.79302e-17
1.03903e-17
3.93359e-18
1.43195e-18
4.85567e-19
1.53319e-19
4.73964e-20
1.50721e-20
4.84411e-21
1.60065e-21
1.82845e-22
4.99837e-15
1.80017e-14
4.23108e-14
4.46032e-14
2.74468e-14
1.32081e-14
5.33168e-15
1.91863e-15
6.25236e-16
1.80937e-16
4.90855e-17
1.37146e-17
4.37099e-18
1.52328e-18
5.3334e-19
1.75454e-19
5.16397e-20
1.50761e-20
4.48476e-21
1.28483e-21
3.95052e-22
3.81426e-23
1.03076e-24
9.27333e-21
5.77115e-17
1.70295e-15
4.63444e-15
3.59212e-15
1.93139e-15
8.45591e-16
3.20533e-16
1.06353e-16
3.10094e-17
8.33728e-18
2.27208e-18
6.82469e-19
2.18593e-19
6.68006e-20
1.94754e-20
5.1968e-21
1.40932e-21
3.93506e-22
9.98761e-23
1.85821e-23
5.10417e-25
4.58707e-27
0.948625
0.943289
0.942927
0.989566
0.963875
0.978192
0.991141
0.99484
0.489467
0.41668
0.495854
0.643825
4.60932e-19
1.8112e-14
1.44542e-11
4.26501e-13
1.41618e-06
1.38387e-06
3.84859e-05
2.02106e-05
1.64e-05
1.20796e-05
8.60192e-06
1.4688e-05
2.94929e-06
1.91487e-06
6.49264e-06
1.3178e-05
2.3107e-06
1.71919e-06
4.6521e-10
4.24221e-10
4.29703e-07
9.53996e-10
9.85822e-10
1.27599e-09
1.89428e-12
2.5284e-09
4.45863e-09
7.38001e-09
3.29366e-09
2.81751e-09
2.41904e-09
1.05584e-08
1.06887e-10
4.91256e-11
4.73581e-11
2.33728e-11
1.92186e-10
1.37704e-10
9.49748e-11
7.95155e-11
6.51209e-10
5.38361e-10
4.05449e-10
2.61263e-10
2.42238e-09
1.53047e-09
1.25678e-09
6.58124e-10
8.32935e-09
3.80477e-09
2.71636e-09
1.58363e-09
8.2374e-09
7.99921e-09
4.55548e-09
3.45269e-09
6.21399e-09
5.89414e-09
5.93753e-09
5.40364e-09
4.82043e-09
4.56767e-09
4.11131e-09
3.943e-09
3.30059e-09
2.95483e-09
2.86098e-09
2.65256e-09
1.91002e-09
1.81996e-09
1.73507e-09
1.68004e-09
9.25205e-10
8.95137e-10
9.24382e-10
8.93493e-10
3.63735e-10
3.82575e-10
4.0924e-10
4.10355e-10
1.24086e-10
1.18781e-10
1.45343e-10
1.50425e-10
3.77696e-11
3.57178e-11
4.01226e-11
4.4161e-11
1.1032e-11
1.00366e-11
1.08952e-11
1.18334e-11
3.43945e-12
3.14395e-12
3.13598e-12
3.06985e-12
1.1279e-12
9.54339e-13
9.18097e-13
9.3077e-13
3.76663e-13
3.23386e-13
3.05669e-13
2.77662e-13
1.09426e-13
9.49966e-14
8.47273e-14
8.17673e-14
3.04975e-14
2.62018e-14
2.40752e-14
2.13493e-14
7.36083e-15
5.97968e-15
5.45665e-15
4.82271e-15
1.61433e-15
1.33104e-15
1.09531e-15
9.21376e-16
2.87469e-16
2.32074e-16
1.92472e-16
1.51586e-16
4.63214e-17
3.55438e-17
2.685e-17
1.992e-17
6.00205e-18
4.38475e-18
3.25788e-18
2.0759e-18
6.51967e-19
4.39424e-19
3.31219e-19
1.45352e-19
5.85311e-20
2.40255e-20
9.50626e-21
1.91517e-21
1.33531e-21
2.93244e-22
8.33424e-23
9.3531e-24
8.21979e-36
6.29898e-25
1.49806e-25
4.82105e-27
-2.44721e-43
7.28726e-29
3.04597e-28
1.00268e-27
-3.85225e-46
6.72119e-29
2.5155e-28
7.65985e-28
0.992154
0.957949
0.921766
0.917406
0.792316
0.264416
0.54753
0.977208
0.999016
0.999304
0.999482
0.996143
0.898656
0.978999
0.999742
0.999757
0.992785
0.866228
0.77333
0.996742
0.951268
0.872045
0.85583
0.773879
0.378934
0.596321
0.843655
0.932798
0.964522
0.989867
0.992156
0.992295
0.987793
0.944306
0.832745
0.675985
0.588703
0.661605
0.594745
0.438808
0.514894
0.672144
0.520892
0.178125
0.392341
0.475479
0.312103
0.240049
0.272608
0.352122
0.476535
0.423368
0.29239
0.174297
0.129247
0.120909
0.230997
0.00816575
0.00293639
0.0246532
0.0718836
0.0265101
0.0122078
0.0420887
0.0290382
0.00166559
6.70285e-06
5.58101e-07
-2.07502e-25
-8.0011e-29
-1.65612e-25
-7.58884e-09
-7.25651e-10
5.55102e-21
3.07675e-20
-8.24493e-21
3.5002e-06
3.48296e-06
3.46657e-06
2.58903e-05
5.11224e-06
1.15153e-10
-1.95822e-19
6.61481e-20
7.76218e-22
2.10332e-23
6.43959e-08
3.44074e-08
1.13583e-08
6.36406e-07
5.43352e-07
7.6294e-08
1.52402e-06
2.75295e-05
0.000126301
1.50026e-05
1.44972e-05
3.45602e-06
5.56273e-06
1.02044e-05
1.24652e-05
8.25105e-07
-2.97398e-11
5.12474e-09
3.17863e-12
5.74372e-08
9.62648e-08
1.07561e-08
9.64716e-08
5.59381e-09
6.05536e-09
3.37611e-08
1.16115e-05
7.83127e-06
8.50302e-06
2.68979e-06
8.57901e-07
1.21637e-06
1.71731e-06
1.98938e-06
3.40891e-07
5.72409e-08
1.45592e-08
1.2941e-08
6.4587e-08
3.11317e-07
9.06182e-06
1.69606e-05
1.93849e-06
3.19925e-09
3.02164e-09
1.00983e-06
9.15141e-07
4.33594e-10
2.93689e-07
1.24396e-07
3.24335e-08
3.68339e-08
9.97096e-08
1.08369e-08
6.74658e-09
1.16392e-08
-3.34222e-11
7.60456e-13
5.24868e-08
3.10473e-06
2.29166e-06
0.000577404
0.00397794
0.00584817
0.00552758
0.00471064
1.95543e-09
1.75763e-09
1.22333e-08
3.26907e-08
3.0507e-08
3.08668e-08
1.12047e-06
1.02227e-06
1.20729e-08
1.38159e-05
1.74601e-05
5.30231e-08
4.52007e-08
5.69902e-08
0.00551183
0.00967333
0.0096701
0.00967342
0.00967011
1.94975e-08
2.99568e-08
5.02307e-08
9.49949e-08
1.53947e-07
6.80755e-07
1.58206e-06
4.64154e-06
1.08933e-05
1.17804e-05
5.4858e-05
0.000217812
0.000223795
0.00048845
0.00419258
0.00702112
0.00728821
0.00590519
0.00619772
2.16371e-08
3.38065e-08
3.95294e-08
1.77571e-08
5.38944e-11
1.2671e-07
3.53311e-11
1.41726e-06
2.28294e-05
3.27864e-05
5.42279e-05
0.000116271
0.000192746
0.000430006
0.000220718
0.000213369
0.000190661
1.73151e-06
0.000113009
2.25854e-11
2.34537e-11
2.25854e-11
2.36631e-11
5.71916e-11
3.78992e-11
4.00693e-11
1.14708e-07
3.98123e-06
9.6557e-06
1.4198e-05
2.40958e-05
3.28292e-05
2.33564e-05
-2.05203e-13
5.91533e-22
-3.14443e-27
3.46289e-11
1.10897e-06
6.9179e-11
6.46015e-11
7.37757e-11
1.2926e-10
3.05276e-10
8.34681e-10
1.91777e-09
1.14814e-08
1.88183e-07
2.8485e-07
4.39748e-08
5.60163e-06
2.77575e-06
1.54673e-09
1.38035e-09
5.39715e-09
1.27126e-08
8.65375e-09
2.00933e-09
1.61171e-10
1.02586e-10
1.28903e-10
2.09466e-10
4.64723e-10
1.46771e-09
5.49732e-09
1.06895e-08
1.29298e-08
1.37104e-08
2.10764e-08
7.77115e-10
8.02077e-10
2.69831e-09
7.68523e-09
2.25924e-08
2.45528e-08
1.64431e-08
8.63856e-09
2.86201e-10
1.15038e-10
1.33031e-10
1.83185e-10
2.863e-10
4.55853e-10
7.91224e-10
1.58569e-09
2.78094e-09
3.70608e-09
4.71309e-09
7.54435e-10
8.32711e-10
3.8789e-09
8.93698e-09
1.87256e-08
2.10299e-08
1.25822e-08
1.13607e-08
6.54155e-10
1.2961e-10
1.27365e-10
1.3535e-10
1.76052e-10
2.78767e-10
4.78911e-10
1.03723e-09
1.224e-09
1.21935e-09
9.17722e-10
5.55943e-10
5.93446e-10
2.20786e-09
5.26697e-09
9.53588e-09
9.61177e-09
6.84225e-09
7.65266e-09
1.72247e-09
3.81805e-10
1.57732e-10
1.42391e-10
1.48378e-10
1.75929e-10
2.19501e-10
3.57726e-10
4.76892e-10
5.31601e-10
4.67856e-10
3.402e-10
3.27678e-10
7.15887e-10
1.88469e-09
2.83101e-09
3.08238e-09
1.99458e-09
2.72327e-09
3.01706e-09
1.21958e-09
4.3407e-10
2.23746e-10
1.58274e-10
1.54812e-10
1.61869e-10
1.82777e-10
2.15052e-10
2.31051e-10
2.2953e-10
1.80637e-10
1.61517e-10
2.01881e-10
4.05872e-10
6.36558e-10
5.93352e-10
3.39012e-10
4.30303e-10
3.61539e-09
1.99631e-09
9.46802e-10
4.95912e-10
2.56463e-10
1.6796e-10
1.28011e-10
1.18338e-10
1.15425e-10
1.09443e-10
9.92636e-11
8.26245e-11
6.44591e-11
5.9786e-11
6.82536e-11
7.69202e-11
6.45959e-11
3.69283e-11
1.96444e-11
2.55261e-09
2.10986e-09
1.24459e-09
7.63536e-10
4.54733e-10
2.46012e-10
1.33478e-10
8.43157e-11
6.40768e-11
5.44876e-11
4.6617e-11
3.94652e-11
2.84165e-11
1.73354e-11
9.63779e-12
8.30577e-12
5.59642e-12
1.6088e-12
4.64792e-13
1.54045e-09
1.42013e-09
1.20809e-09
8.11132e-10
5.38647e-10
3.23672e-10
1.79438e-10
8.86517e-11
4.71276e-11
3.29873e-11
2.59779e-11
1.88106e-11
1.114e-11
5.14767e-12
1.63338e-12
6.56769e-13
9.56935e-14
4.22688e-14
2.61169e-14
8.63891e-10
8.05547e-10
7.18297e-10
6.40165e-10
5.00744e-10
3.32709e-10
2.0827e-10
1.10797e-10
5.24173e-11
2.67313e-11
1.5733e-11
8.31991e-12
3.96132e-12
1.51998e-12
3.82958e-13
9.42205e-14
1.2769e-14
4.91379e-15
1.9522e-15
4.00644e-10
3.92703e-10
3.63767e-10
3.22869e-10
2.85822e-10
2.50717e-10
1.78005e-10
1.10551e-10
5.8843e-11
2.6606e-11
1.08685e-11
4.14824e-12
1.49894e-12
4.80719e-13
1.19766e-13
2.74631e-14
2.75377e-15
9.32213e-16
3.16393e-16
1.51361e-10
1.51793e-10
1.51449e-10
1.40426e-10
1.26277e-10
1.10457e-10
9.7888e-11
7.4848e-11
4.66671e-11
2.37589e-11
9.56266e-12
3.00979e-12
7.8874e-13
1.94161e-13
4.42547e-14
5.84177e-15
7.78617e-16
4.42249e-16
1.73661e-16
4.33917e-11
4.69783e-11
4.82504e-11
4.66887e-11
4.41322e-11
3.99179e-11
3.72581e-11
3.21658e-11
2.44665e-11
1.51474e-11
7.23537e-12
2.35785e-12
5.2292e-13
9.54123e-14
1.82903e-14
1.44171e-15
3.51403e-16
2.89561e-16
1.21713e-16
1.14903e-11
1.17666e-11
1.20303e-11
1.21583e-11
1.16593e-11
1.11146e-11
1.07167e-11
1.00768e-11
8.77917e-12
6.79267e-12
3.94529e-12
1.47937e-12
3.24309e-13
4.59748e-14
5.04796e-15
3.21839e-16
1.72596e-16
1.83031e-16
8.11036e-17
2.90145e-12
2.88454e-12
2.8036e-12
2.69689e-12
2.59524e-12
2.52356e-12
2.48187e-12
2.40699e-12
2.41626e-12
2.18018e-12
1.52223e-12
6.78973e-13
1.66456e-13
2.10947e-14
1.09923e-15
8.16553e-17
8.36643e-17
1.04847e-16
5.6931e-17
8.32255e-13
7.37819e-13
6.80603e-13
6.05965e-13
5.49712e-13
5.07284e-13
4.69627e-13
4.72341e-13
5.24422e-13
5.38116e-13
4.3407e-13
2.32084e-13
5.39491e-14
4.34896e-15
1.87797e-16
3.33546e-17
3.97263e-17
7.38011e-17
3.61347e-17
2.34297e-13
2.00338e-13
1.6416e-13
1.33413e-13
1.12931e-13
8.78973e-14
7.42903e-14
7.94387e-14
9.25839e-14
1.01856e-13
9.34156e-14
4.62306e-14
5.96741e-15
3.1501e-16
1.76819e-17
1.21272e-17
1.90406e-17
4.50674e-17
2.28111e-17
6.56175e-14
5.12772e-14
3.85652e-14
3.04333e-14
2.28024e-14
1.22471e-14
8.00813e-15
9.21842e-15
1.18604e-14
1.44346e-14
1.2283e-14
3.03778e-15
4.18762e-16
1.68329e-17
2.29492e-18
4.02734e-18
1.02373e-17
3.13463e-17
1.32345e-17
1.5856e-14
1.11792e-14
7.95854e-15
6.09664e-15
3.28531e-15
1.13834e-15
5.18196e-16
6.99404e-16
1.04856e-15
1.36604e-15
5.14022e-16
1.61714e-16
1.97226e-17
5.61255e-19
5.1394e-19
1.98581e-18
7.46748e-18
1.74007e-17
7.50718e-18
3.35236e-15
2.22087e-15
1.6115e-15
8.5719e-16
2.99545e-16
5.23315e-17
1.88606e-17
3.72897e-17
7.50129e-17
2.87146e-17
1.43426e-17
5.23408e-18
5.62602e-19
9.46951e-20
2.72309e-19
1.42194e-18
5.34422e-18
1.13809e-17
3.80252e-18
5.86174e-16
3.87874e-16
2.12903e-16
6.72006e-17
1.06467e-17
6.43623e-19
4.59114e-19
1.57963e-18
7.02438e-19
4.5102e-19
2.82649e-19
7.83806e-20
2.69211e-20
4.86922e-20
1.9095e-19
1.08218e-18
3.75833e-18
5.61398e-18
1.94378e-18
8.89405e-17
5.42814e-17
1.73148e-17
2.20749e-18
9.63187e-20
4.81447e-21
1.14183e-20
6.96164e-21
6.84989e-21
7.77747e-21
7.43781e-21
9.58628e-21
1.70566e-20
3.9787e-20
1.60237e-19
8.92925e-19
2.34961e-18
3.4071e-18
8.43286e-19
1.20797e-17
3.92506e-18
5.52682e-19
1.98018e-20
1.86533e-22
1.10187e-22
1.45485e-22
2.99939e-22
6.81765e-22
1.54762e-21
3.58281e-21
7.91004e-21
1.56242e-20
3.66978e-20
1.50756e-19
6.48037e-19
1.48493e-18
1.40638e-18
3.83528e-19
1.0157e-18
1.33511e-19
3.47063e-21
2.01112e-23
1.35195e-23
2.77534e-23
7.48906e-23
2.09712e-22
5.59194e-22
1.41957e-21
3.43796e-21
7.61971e-21
1.49683e-20
3.45436e-20
1.24436e-19
4.09567e-19
8.60764e-19
7.78118e-19
1.32794e-19
1.88055e-20
3.84712e-22
2.75666e-24
2.57922e-24
6.88228e-24
2.18814e-23
6.55004e-23
1.85301e-22
4.94731e-22
1.26058e-21
3.04622e-21
6.66456e-21
1.30007e-20
2.95372e-20
9.51438e-20
2.67986e-19
4.70308e-19
2.62785e-19
5.27998e-20
1.36693e-22
1.07144e-24
5.54057e-25
1.66805e-24
5.69238e-24
1.79872e-23
5.4069e-23
1.51138e-22
4.02922e-22
1.0233e-21
2.43931e-21
5.347e-21
1.03475e-20
2.27934e-20
6.65577e-20
1.65034e-19
2.07624e-19
1.18623e-19
1.75516e-20
4.16286e-25
9.37641e-26
3.42587e-25
1.26884e-24
4.2636e-24
1.32953e-23
3.92264e-23
1.09118e-22
2.90797e-22
7.40726e-22
1.77178e-21
3.82912e-21
7.35348e-21
1.61404e-20
3.95441e-20
9.45433e-20
8.39851e-20
3.20005e-20
7.08502e-21
1.25478e-26
5.99566e-26
2.33199e-25
7.95159e-25
2.56291e-24
7.7369e-24
2.28637e-23
6.54785e-23
1.76396e-22
4.53084e-22
1.0866e-21
2.40504e-21
4.82998e-21
1.00947e-20
2.13682e-20
4.46242e-20
2.78382e-20
1.13143e-20
3.12556e-21
8.09441e-27
3.33615e-26
1.16779e-25
3.71688e-25
1.17266e-24
3.63458e-24
1.09077e-23
3.17053e-23
8.83137e-23
2.37628e-22
5.89278e-22
1.30814e-21
2.56709e-21
5.56094e-21
1.05109e-20
1.68453e-20
7.4423e-21
3.62445e-21
8.45536e-22
2.93001e-27
9.95465e-27
3.05429e-26
9.14907e-26
3.20835e-25
1.08786e-24
3.61094e-24
1.11807e-23
3.32605e-23
9.27735e-23
2.3978e-22
5.58763e-22
1.11178e-21
2.28454e-21
3.70486e-21
4.30392e-21
1.81881e-21
5.84818e-22
4.11461e-23
)
;

boundaryField
{
    leftWall
    {
        type            alphaContactAngle;
        contactAngleProperties 
        {
            mercury         
            {
                theta0          90;
            }
            air             
            {
                theta0          90;
            }
            oil             
            {
                theta0          90;
            }
        }
        value           nonuniform List<scalar> 
50
(
1.03298e-10
2.1963e-10
2.17305e-10
1.66731e-10
9.08626e-08
0.624141
1
1
1
0.992382
0.88724
0.484655
0.000300336
4.69006e-05
6.44374e-05
7.72513e-05
2.80788e-05
3.23834e-07
2.19777e-07
4.36418e-07
6.0786e-07
2.17974e-07
5.27258e-08
2.07073e-08
1.81804e-08
2.01757e-08
2.03113e-08
1.97601e-08
1.86523e-08
1.80519e-08
1.79688e-08
1.7955e-08
1.79424e-08
1.79429e-08
1.70906e-08
1.57446e-08
1.38226e-08
1.23761e-08
9.82908e-09
8.38942e-09
5.65139e-09
4.20053e-09
2.1992e-09
1.146e-09
4.05406e-10
1.2738e-10
2.25559e-11
1.71097e-12
4.99837e-15
9.27333e-21
)
;
    }
    rightWall
    {
        type            alphaContactAngle;
        contactAngleProperties 
        {
            mercury         
            {
                theta0          90;
            }
            air             
            {
                theta0          90;
            }
            oil             
            {
                theta0          90;
            }
        }
        value           nonuniform List<scalar> 
50
(
0.0118196
0.0116008
0.000643815
0.0488645
0.398241
0.60364
0.74539
0.825332
0.77333
0.661605
0.230997
-8.24493e-21
0.000126301
7.83127e-06
9.15141e-07
0.00471064
0.00967011
0.00619772
0.000113009
1.10897e-06
2.00933e-09
8.63856e-09
1.13607e-08
7.65266e-09
2.72327e-09
4.30303e-10
1.96444e-11
4.64792e-13
2.61169e-14
1.9522e-15
3.16393e-16
1.73661e-16
1.21713e-16
8.11036e-17
5.6931e-17
3.61347e-17
2.28111e-17
1.32345e-17
7.50718e-18
3.80252e-18
1.94378e-18
8.43286e-19
3.83528e-19
1.32794e-19
5.27998e-20
1.75516e-20
7.08502e-21
3.12556e-21
8.45536e-22
4.11461e-23
)
;
    }
    lowerWall
    {
        type            alphaContactAngle;
        contactAngleProperties 
        {
            mercury         
            {
                theta0          90;
            }
            air             
            {
                theta0          90;
            }
            oil             
            {
                theta0          90;
            }
        }
        value           nonuniform List<scalar> 
62
(
1.03298e-10
1.29143e-10
1.50268e-10
1.55246e-10
1.61012e-10
1.67471e-10
1.75084e-10
1.82255e-10
1.88105e-10
1.93089e-10
1.98301e-10
2.0337e-10
2.1139e-10
2.2773e-10
2.64623e-10
3.25563e-10
4.17637e-10
5.27295e-10
8.32943e-10
1.7371e-09
2.63737e-09
2.77784e-09
2.77734e-09
2.77734e-09
2.21175e-09
1.43551e-09
1.00951e-09
1.72799e-10
1.99442e-10
0.0127495
0.535137
0.948625
0.943289
0.942927
0.989566
0.00880831
0.00849628
0.00851468
0.243571
0.729997
0.900548
0.8988
0.889482
0.00880831
0.0251329
0.0512727
0.0491844
0.0217031
0.00319461
0.00126703
0.00119626
0.000896704
0.000858418
0.00726537
0.032552
0.124399
0.124401
0.12441
0.12387
0.0421384
0.0025471
0.0118196
)
;
    }
    atmosphere
    {
        type            inletOutlet;
        inletValue      uniform 0;
        value           nonuniform List<scalar> 
46
(
0
0
0
4.63444e-15
3.59211e-15
1.93139e-15
8.45591e-16
3.20533e-16
1.06353e-16
3.10094e-17
8.33728e-18
2.27208e-18
0
0
0
0
0
0
0
0
0
0
0
0
0
0
0
0
0
0
0
0
1.08786e-24
3.61094e-24
1.11807e-23
3.32605e-23
9.27734e-23
2.3978e-22
5.58763e-22
1.11178e-21
2.28454e-21
3.70485e-21
0
0
0
0
)
;
    }
    defaultFaces
    {
        type            empty;
    }
}

