/*--------------------------------*- C++ -*----------------------------------*\
  =========                 |
  \\      /  F ield         | OpenFOAM: The Open Source CFD Toolbox
   \\    /   O peration     | Website:  https://openfoam.org
    \\  /    A nd           | Version:  13
     \\/     M anipulation  |
\*---------------------------------------------------------------------------*/
FoamFile
{
    format      ascii;
    class       volScalarField;
    location    "2.7";
    object      alphas;
}
// * * * * * * * * * * * * * * * * * * * * * * * * * * * * * * * * * * * * * //

dimensions      [];

internalField   nonuniform List<scalar> 
2268
(
2
2
2
2
2
2
2
2
2
2
2
2
2
2
2
2
2
2
2
1.99996
1.99952
1.99943
1.99943
2
2
2
2
2
2
2
2
2
2
2
2
2
2
2
2
2
2
2
1.99999
1.9999
1.99984
1.99991
2
2
2
2
2
2
2
2
2
2
2
2
2
2
2
2
2
2
2
2
2
2
2
2
2
2
2
2
2
2
2
2
2
2
2
2
2
2
2
2
2
2
2
2
2
2
2
1.9865
1.98495
1.99361
2
2
2
2
2
2
2
2
2
2
2
2
2
2
2
2
2
2
2
0.751718
0.768721
0.792396
0.854566
0.962861
1.11366
1.2928
1.47894
1.63298
1.76926
1.88367
1.96963
2
2
2
2
2
2
2
2
2
2
2.00018
5.15422e-08
3.23126e-07
5.01423e-07
0.000421678
0.0037042
0.00996819
0.0220312
0.056662
0.149117
0.278951
0.44732
0.659279
0.934009
1.23015
1.49368
1.70072
1.85444
1.94658
1.96858
1.98381
1.9925
1.98783
1.9749
9.95971e-08
2.32999e-07
1.49452e-07
4.7006e-07
1.06909e-05
9.55124e-06
1.91592e-06
8.54179e-07
5.69938e-07
6.26066e-07
6.58117e-07
7.51779e-07
0.00201895
0.0315326
0.10277
0.231399
0.399238
0.598003
0.829835
1.00235
1.07753
1.02032
0.930318
1.86968
1.8632
1.88519
1.89727
1.96239
1.78934
1.76374
1.75662
1.76539
1.77043
1.77052
1.7321
1.68864
1.75302
1.72557
1.65648
1.73795
1.7773
1.76769
1.81438
1.82982
1.81739
1.76984
1.76658
1.79568
1.84263
1.83007
1.90773
1.9962
1.90927
1.81036
1.83535
1.93411
1.90586
1.86023
1.77716
1.77678
1.76777
1.53789
1.52785
1.44654
1.35516
1.17585
1.11284
1.12498
1.11835
1.37873
2.2016
2.34018
2.10395
2.05789
2.23294
2.2511
1.98786
1.70112
1.60647
1.58037
1.07361
0.790504
0.761802
0.714592
0.708957
0.594529
0.315966
0.242177
0.332182
1.33826
2.25049
2.40795
2.39847
2.35869
2.31503
2.07477
1.58529
1.4141
1.72198
0.358573
0.195743
0.233436
0.296682
0.54702
0.822368
0.809626
0.686921
0.255779
0.0655592
1.19004
2.01318
2.24228
2.16863
1.24773
0.57371
0.503506
0.269696
1.15482
0.186648
0.203059
0.198481
0.216911
0.672307
0.907598
0.980899
1.00261
0.389685
0.0231046
0.00116018
1.18364
2.03011
1.22466
0.17072
0.000222056
0.000225269
0.000239138
0.948278
0.208342
0.263655
0.228181
0.172338
0.731764
1.06921
1.08019
0.720839
0.126095
0.0158749
0.0011333
0.0152022
1.99911
0.939374
0.000248644
0.000272955
0.000328911
0.00208331
0.759501
0.236352
0.248316
0.223709
0.176218
0.528502
1.16991
1.11501
0.25299
0.00255858
0.00180096
0.00106398
0.0740983
1.72335
0.585923
0.0037213
0.000276562
0.00385617
0.00647655
0.519639
1.00051e-07
9.89965e-08
0.000181207
0.000299434
0.0001766
3.99484e-06
6.89197e-07
4.78762e-07
3.15614e-07
1.80287e-07
1.22224e-07
9.41651e-08
6.12531e-08
7.78665e-08
1.93887e-07
1.49435e-07
5.27166e-08
5.84053e-08
5.39362e-07
1.10382e-05
3.24794e-05
0.00535727
0.0154594
0.022854
0.0140398
0.00508502
0.00201531
5.54989e-05
1.80764e-08
6.6097e-09
4.88842e-09
3.78886e-09
3.50854e-09
7.14844e-09
6.59512e-09
1.77588e-09
1.909e-09
8.33147e-09
1.18114e-08
3.80839e-07
8.54702e-07
1.90712e-06
3.20521e-06
4.46703e-05
0.0305794
0.0867261
0.338281
0.134891
0.0161626
0.00665512
0.000743023
1.18344e-07
0.00656798
0.00605317
0.000337833
6.06986e-07
1.96046e-09
3.87792e-09
4.13301e-06
0.00705998
0.00896581
0.00299589
0.00891606
0.0212556
0.0474862
0.100514
0.2129
0.3603
0.651657
0.757496
0.715156
0.619124
0.56333
0.454965
0.362197
0.443303
0.473695
0.447092
0.425137
0.419609
0.437826
0.501534
0.556615
0.578563
0.604423
0.670262
0.77797
0.896851
0.995621
1.05887
1.08201
1.18864
1.20109
1.00841
1.00102
1.00015
1.00751
1.22363
1.25794
1.25783
1.27755
1.28542
1.30429
1.28367
1.19951
1.18042
1.22621
1.28765
1.25439
1.07056
1.01269
1.00908
1.00212
1.00735
1.08761
1.00047
0.999696
1.00034
1
1.05897
1.09679
1.02953
1.00005
1.02269
1.04763
1.03544
1.01887
1.00862
1.00391
1.00772
1.00633
1
1
1
1
1.00187
1.00192
0.999999
1.00042
0.99928
0.999948
1
1
1
1
1
1
1
1
1
1
1
1
1
1
1
1
1
1
1
0.999999
1.27073
1.28581
1.25323
1.21504
1.17897
1.1675
1.14213
1.10636
1.09099
1.08676
1.09052
1.10193
1.12174
1.14862
1.18283
1.22895
1.28698
1.35232
1.41419
1.46326
1.49158
1.4894
1.46253
2.67081
2.7335
2.71909
2.6631
2.60013
2.53217
2.49277
2.47966
2.46901
2.46553
2.47903
2.51256
2.55898
2.61111
2.66596
2.72181
2.77508
2.82281
2.86101
2.88812
2.90296
2.90447
2.89225
2.99999
3
3
3
3
3
3
3
3
3
3
3
3
3
3
3
3
3
3
3
3
3
3
3
3
3
3
3
3
3
3
3
3
3
3
3
3
3
3
3
3
3
3
3
3
3
3
2.99999
2.99999
3
3
3
2.99999
2.99994
2.99997
3
3
3
3
3
3
3
3
3
3
3
3
3
3
2.99999
2.99998
2.99993
2.99997
3
3
2.99984
2.99967
2.99971
2.99999
3
3
3
3
3
3
3
3
3
3
3
3
3
2.99999
2.99994
2.99988
2.9999
2.99999
2.99999
2.99974
2.99967
2.99967
2.99974
2.99999
2.99999
3
3
3
3
3
3
3
3
3
3
3
3
2.99995
2.99989
2.99989
2.99999
3
2.99993
2.99968
2.99967
2.9997
2.99999
2.99999
2.99999
2.99999
3
3
3
3
3
3
3
3
3
3
2.99999
2.99994
2.99996
3
3
3
2.99996
2.99987
2.99993
2.99999
2.99999
2.99999
2.99999
3
3
3
3
3
3
3
3
3
3
3
3
3
3
3
3
3
3
3
3
3
2.99999
3
3
3
3
3
3
3
3
3
3
3
3
3
3
3
3
3
3
3
3
3
3
3
3
3
3
3
3
3
3
3
3
3
3
3
3
3
3
3
3
3
3
3
3
3
3
3
3
3
3
3
3
3
3
3
3
3
3
3
3
3
3
3
3
3
3
3
3
3
3
3
3
3
3
3
3
3
3
3
3
3
3
3
3
3
3
3
3
3
3
3
3
3
3
3
3
3
3
3
3
3
3
3
3
3
3
3
3
3
3
3
3
3
3
3
3
3
3
3
3
3
3
3
3
3
3
3
3
3
3
3
3
3
3
3
3
3
3
3
3
3
3
3
3
3
3
3
3
3
3
3
3
3
3
3
3
3
3
3
3
3
3
3
3
3
3
3
3
3
3
3
3
3
3
3
3
3
3
3
3
3
3
3
3
3
3
3
3
3
3
3
3
3
3
3
3
3
3
3
3
3
3
3
3
3
3
3
3
3
3
3
3
3
3
3
3
3
3
3
3
3
3
3
3
3
3
3
3
3
3
3
3
3
3
3
3
3
3
3
3
3
3
3
3
3
3
3
3
3
3
3
3
3
3
3
3
3
3
3
3
3
3
3
3
3
3
3
3
3
3
3
3
3
3
3
3
3
3
3
3
3
3
3
3
3
3
3
3
3
3
3
3
3
3
3
3
3
3
3
3
3
3
3
3
3
3
3
3
3
3
3
3
3
3
3
3
3
3
3
3
3
3
3
3
3
3
3
3
3
3
3
3
3
3
3
3
3
3
3
3
3
3
3
3
3
3
3
3
3
3
3
3
3
3
3
3
3
3
3
3
3
3
3
3
3
3
3
3
3
3
3
3
3
3
3
3
3
3
3
3
3
3
3
3
3
3
3
3
3
3
3
3
3
3
3
3
3
3
3
3
3
3
3
3
3
3
3
3
3
3
3
3
3
3
3
3
3
3
3
3
3
3
3
3
3
3
3
3
3
3
3
3
3
3
3
3
3
3
3
3
3
3
3
3
3
3
3
3
3
3
3
3
3
3
3
3
3
3
3
3
3
3
3
3
3
3
3
3
3
3
3
3
3
3
3
3
3
3
3
3
3
3
3
3
3
3
3
3
3
3
3
3
3
3
3
3
3
3
3
3
3
3
3
3
3
3
3
3
3
3
3
3
3
3
3
3
3
3
3
3
3
3
3
3
3
3
3
3
3
3
3
3
3
3
3
3
3
3
3
3
3
3
3
3
3
3
3
3
3
3
3
3
3
3
3
3
3
3
3
3
3
3
3
3
3
3
3
3
3
3
3
3
3
3
3
3
3
3
3
3
3
3
3
3
3
0.109689
0.116544
0.114107
0.0209281
0.108014
0.0555002
0.0112346
0.0147197
0.783796
0.828359
0.582065
0.434461
1.27132
1.27478
1.27428
1.19794
1.07595
1.02587
1.00017
1.00019
0.999996
0.999994
0.999993
0.999992
0.999997
1
0.999994
0.999987
1.40117
1.36634
1.33413
1.302
2.85617
2.83408
2.81432
2.79703
3
3
3
3
3
3
3
3
3
3
3
3
3
3
3
3
3
3
3
3
3
3
3
3
3
3
3
3
3
3
3
3
3
3
3
3
3
3
3
3
3
3
3
3
3
3
3
3
3
3
3
3
3
3
3
3
3
3
3
3
3
3
3
3
3
3
3
3
3
3
3
3
3
3
3
3
3
3
3
3
3
3
3
3
3
3
3
3
3
3
3
3
3
3
3
3
3
3
3
3
3
3
3
3
3
3
3
3
3
3
3
3
3
3
3
3
3
3
3
3
3
3
3
3
3
3
3
3
3
3
3
3
0.018788
0.0627771
0.149386
0.167836
0.417891
1.13959
0.835856
0.0674485
0.00291889
0.00205901
0.00131562
0.00521052
0.147758
0.0226834
0.000320854
0.000285525
0.0207167
0.198301
0.345337
0.00692769
0.0719637
0.2964
0.355484
0.59403
1.0106
0.776442
0.436903
0.100944
0.03601
0.0113939
0.00966736
0.00867579
0.0129286
0.0559627
0.167316
0.352046
0.535331
0.428638
0.666015
0.915763
0.8497
0.690176
0.847573
1.18829
0.970071
0.886374
0.851383
0.760103
0.72749
0.649344
0.525145
0.578029
0.707971
0.825781
0.902328
1.00425
0.890143
1.19591
1.23906
1.20594
1.071
1.06652
1.23778
1.31961
1.33276
1.10023
1.00004
1.00001
1.00005
1.00012
1.00013
1.00035
1.00056
1.00407
1.03532
1.03094
1.00285
1.00642
1.00311
1.00017
1.00014
1.02616
1.12411
1.09585
1.01357
1
1
1
1
0.999999
1.00015
1.00046
1.00038
1.00001
0.999887
0.999985
0.999986
1.00001
1.00023
1.00012
0.999989
0.999999
1
1
1
1
1
1
1
1.00001
1.00011
1.00008
1.00001
1.00001
0.999991
0.999997
1
0.999999
0.999998
0.999998
1
1
1
1
1
1
0.999992
0.999987
0.999999
1.00002
1.00002
1
1
1.2614
1.18658
1.13325
1.09643
1.06739
1.0443
1.02712
1.01418
1.00563
1.00043
1
1
1
1
0.999524
0.996902
0.996025
0.996283
0.995934
2.77796
2.71991
2.66172
2.61017
2.56181
2.51628
2.48124
2.45565
2.42715
2.37768
2.29501
2.17424
2.01588
1.84003
1.78143
1.77612
1.7299
1.67741
1.63641
3
3
3
3
3
3
2.99999
2.99998
2.99996
2.99996
2.9998
2.99929
2.99506
2.97651
2.95925
2.95136
2.94189
2.93788
2.91872
3
3
3
2.99963
2.99905
2.99871
2.99868
2.99949
2.99992
2.99989
2.99982
2.99932
2.99908
2.99862
2.99926
2.99932
2.99933
2.99997
2.99961
3
3
2.99999
2.99938
2.99819
2.99816
2.99843
2.99978
2.99999
2.99997
2.99877
2.99852
2.99849
2.99934
3
3
3
3
3
3
3
3
3
3
2.99987
3
3
3
2.99996
2.99955
2.99909
2.99941
2.99977
3
3
3
3
3
3
3
3
3
3
3
3
3
3
2.99999
3
2.99999
3
3
3
3
3
3
3
3
3
3
3
3
3
3
3
3
3
3
3
3
3
3
3
3
3
3
3
3
3
3
3
3
3
3
3
3
3
3
3
3
3
3
3
3
3
3
3
3
3
3
3
3
3
3
3
3
3
3
3
3
3
3
3
3
3
3
3
3
3
3
3
3
3
3
3
3
3
3
3
3
3
3
3
3
3
3
3
3
3
3
3
3
3
3
3
3
3
3
3
3
3
3
3
3
3
3
3
3
3
3
3
3
3
3
3
3
3
3
3
3
3
3
3
3
3
3
3
3
3
3
3
3
3
3
3
3
3
3
3
3
3
3
3
3
3
3
3
3
3
3
3
3
3
3
3
3
3
3
3
3
3
3
3
3
3
3
3
3
3
3
3
3
3
3
3
3
3
3
3
3
3
3
3
3
3
3
3
3
3
3
3
3
3
3
3
3
3
3
3
3
3
3
3
3
3
3
3
3
3
3
3
3
3
3
3
3
3
3
3
3
3
3
3
3
3
3
3
3
3
3
3
3
3
3
3
3
3
3
3
3
3
3
3
3
3
3
3
3
3
3
3
3
3
3
3
3
3
3
3
3
3
3
3
3
3
3
3
3
3
3
3
3
3
3
3
3
3
3
3
3
3
3
3
3
3
3
3
3
3
3
3
3
3
3
3
3
3
3
3
3
3
3
3
3
3
3
3
3
3
3
3
3
3
3
3
3
3
3
3
3
3
3
3
3
3
3
3
3
3
3
3
3
3
3
3
3
3
3
3
3
3
3
3
3
3
3
3
3
3
3
3
3
3
3
3
3
3
3
3
3
3
3
3
3
3
3
3
3
3
3
3
3
3
3
3
3
3
3
3
3
3
3
3
3
3
3
3
3
3
3
3
3
3
3
3
3
3
3
3
3
3
3
3
3
3
3
3
3
3
3
3
3
3
3
3
3
3
3
3
3
3
3
3
3
3
3
3
3
3
3
3
3
3
3
3
3
3
3
3
3
3
3
3
3
3
3
3
3
3
3
3
3
3
3
3
3
3
3
3
3
3
3
3
3
3
3
3
3
3
3
3
3
3
3
3
3
3
3
3
3
3
3
3
3
3
3
3
3
3
3
3
3
3
3
3
3
3
3
3
3
3
3
3
3
3
3
3
3
3
3
3
3
3
3
3
3
3
3
3
3
3
3
3
3
3
3
3
3
3
3
3
3
3
3
3
3
3
3
3
)
;

boundaryField
{
    leftWall
    {
        type            calculated;
        value           nonuniform List<scalar> 
50
(
2
2
2
2
2
0.751718
5.15422e-08
9.95971e-08
1.00051e-07
0.022854
0.338281
0.757496
1.20109
1.00047
1.00042
1.27073
2.67081
2.99999
3
3
2.99999
2.99999
3
3
3
3
3
3
3
3
3
3
3
3
3
3
3
3
3
3
3
3
3
3
3
3
3
3
3
3
)
;
    }
    rightWall
    {
        type            calculated;
        value           nonuniform List<scalar> 
50
(
1.76769
1.76777
1.58037
1.72198
1.15482
0.948278
0.759501
0.519639
0.345337
0.428638
0.890143
1.03094
0.999887
1.00001
1
0.995934
1.63641
2.91872
2.99961
3
3
3
3
3
3
3
3
3
3
3
3
3
3
3
3
3
3
3
3
3
3
3
3
3
3
3
3
3
3
3
)
;
    }
    lowerWall
    {
        type            calculated;
        value           nonuniform List<scalar> 
62
(
2
2
2
2
2
2
2
2
2
2
2
2
2
2
2
2
2
2
2
1.99996
1.99952
1.99943
1.99943
1.99943
1.99991
2
2
2
2.00018
1.9749
0.930318
0.109689
0.116544
0.114107
0.0209281
1.86968
1.81438
1.53789
1.07361
0.358573
0.186648
0.208342
0.236352
1.86968
1.8632
1.88519
1.89727
1.96239
1.78934
1.76374
1.75662
1.76539
1.77043
1.77052
1.7321
1.68864
1.75302
1.72557
1.65648
1.73795
1.7773
1.76769
)
;
    }
    atmosphere
    {
        type            calculated;
        value           nonuniform List<scalar> 
46
(
3
3
3
3
3
3
3
3
3
3
3
3
3
3
3
3
3
3
3
3
3
3
3
3
3
3
3
3
3
3
3
3
3
3
3
3
3
3
3
3
3
3
3
3
3
3
)
;
    }
    defaultFaces
    {
        type            empty;
    }
}


// ************************************************************************* //
