/*--------------------------------*- C++ -*----------------------------------*\
  =========                 |
  \\      /  F ield         | OpenFOAM: The Open Source CFD Toolbox
   \\    /   O peration     | Website:  https://openfoam.org
    \\  /    A nd           | Version:  13
     \\/     M anipulation  |
\*---------------------------------------------------------------------------*/
FoamFile
{
    format      ascii;
    class       volScalarField;
    location    "2.7";
    object      epsilon;
}
// * * * * * * * * * * * * * * * * * * * * * * * * * * * * * * * * * * * * * //

dimensions      [0 2 -3 0 0 0 0];

internalField   nonuniform List<scalar> 
2268
(
0.00273098
0.0145247
0.0296463
0.0449497
0.0593057
0.0723082
0.0837945
0.0936712
0.101929
0.108636
0.113818
0.117457
0.11948
0.119737
0.118047
0.114371
0.108652
0.100723
0.0900617
0.076037
0.0578698
0.0348599
0.0104171
0.004776
0.00944807
0.0156897
0.0220671
0.0281503
0.0337621
0.0388177
0.0432731
0.0470997
0.0502535
0.0526918
0.054384
0.0553137
0.0554657
0.0548137
0.0533426
0.0510531
0.0479344
0.0438343
0.0385323
0.0318196
0.0239009
0.0177079
0.00804869
0.00994997
0.0142906
0.0187658
0.0230716
0.0270946
0.0307728
0.0340648
0.0369346
0.0393379
0.0412339
0.0425949
0.0434106
0.0436821
0.0434136
0.0426172
0.0413193
0.0395366
0.0372241
0.0343244
0.030874
0.0275151
0.0300156
0.0116301
0.0114578
0.0148419
0.0184398
0.0219404
0.0252485
0.0283093
0.0310788
0.0335172
0.0355858
0.03725
0.0384851
0.0392824
0.0396477
0.0395986
0.0391668
0.0384027
0.0373531
0.0360517
0.0345897
0.0332787
0.0333554
0.0440857
0.0157464
0.0135032
0.0161626
0.0191833
0.0221803
0.0250532
0.0277445
0.0302031
0.0323836
0.0342539
0.0357853
0.0369561
0.0377571
0.0381955
0.0382979
0.0381128
0.0377138
0.0371783
0.0366159
0.0362771
0.0368491
0.0406184
0.0620285
0.0204726
0.0159693
0.0179538
0.0205057
0.0231238
0.025686
0.0281244
0.0303742
0.0323803
0.0341178
0.0355635
0.0366976
0.0375089
0.0380043
0.0382181
0.0382145
0.0380879
0.037944
0.0379629
0.0385596
0.0409177
0.0492986
0.0894143
0.0259178
0.0187965
0.0200935
0.0222122
0.0245078
0.0268255
0.0290802
0.0311868
0.033071
0.0347164
0.0361052
0.0372195
0.0380437
0.0385828
0.0388766
0.0390064
0.0390852
0.0392428
0.0397161
0.0410585
0.0449818
0.0589612
0.139872
0.0317433
0.0219549
0.022522
0.0241831
0.02614
0.028203
0.0302732
0.0322572
0.0340729
0.0356894
0.0370799
0.0382213
0.0390911
0.0396803
0.0400335
0.0402538
0.0404794
0.0408579
0.0416566
0.0434999
0.0483876
0.0671586
0.249614
0.0110102
0.033693
0.0536564
0.0726961
0.0913586
0.0976059
0.0986508
0.103537
0.103338
0.0971638
0.0850075
0.0718507
0.0665516
0.0614276
0.0504356
0.0428349
0.032189
0.0188059
0.00356217
0.0141849
0.0248089
0.032878
0.0392472
0.0442458
0.0463926
0.0470261
0.0481147
0.0476805
0.0449709
0.0410605
0.0374155
0.0333772
0.0300462
0.0257622
0.0221428
0.0179657
0.0127475
0.00654924
0.0212
0.0242025
0.030281
0.034994
0.0381044
0.0391903
0.0393009
0.039572
0.0389224
0.0368322
0.0340072
0.0313264
0.0282496
0.0253313
0.0224066
0.0199345
0.0175961
0.0151099
0.0129261
0.0262435
0.0250944
0.0306902
0.0345337
0.0366626
0.0374757
0.037331
0.0373078
0.0364439
0.0346336
0.032175
0.0298174
0.0272481
0.0244772
0.0221464
0.0204351
0.0194847
0.0196177
0.0232055
0.0283525
0.0269532
0.0325039
0.0354066
0.0363782
0.0366976
0.0365046
0.0362261
0.0350955
0.0333617
0.0313736
0.0295354
0.0278
0.0247579
0.0228086
0.0218271
0.0216294
0.0235069
0.0427998
0.0296426
0.0302627
0.0353153
0.037362
0.0370896
0.0365685
0.036036
0.035368
0.034141
0.0324829
0.0307643
0.0292498
0.0288932
0.0250996
0.0236769
0.0228871
0.0223965
0.0237682
0.047372
0.0355278
0.0359232
0.0389131
0.0399832
0.0385999
0.0371296
0.036122
0.0351561
0.0338677
0.0322484
0.0306899
0.0292109
0.0285897
0.0255503
0.0242344
0.0232682
0.0224947
0.0232138
0.0459984
0.0569314
0.0450648
0.0430882
0.0424013
0.0403376
0.0381073
0.0367032
0.0355288
0.0340574
0.0323818
0.0308677
0.0294122
0.0284184
0.0261099
0.0246866
0.0236095
0.0227546
0.0230433
0.0424036
0.0413003
0.027345
0.0267199
0.0275924
0.0289359
0.0304977
0.0321578
0.033832
0.0354647
0.0370079
0.0384103
0.0396289
0.0406182
0.041359
0.0418955
0.042322
0.0427811
0.0434397
0.0445762
0.0467818
0.051554
0.0638971
0.10438
0.0555273
0.035253
0.0330093
0.0328338
0.0333634
0.0342387
0.0352981
0.0364552
0.0376529
0.0388423
0.039976
0.0410157
0.041936
0.0427336
0.0434394
0.0441186
0.0448541
0.0457507
0.0469948
0.0489285
0.0522272
0.058361
0.070388
0.0692711
0.0434762
0.0394553
0.0382841
0.0380987
0.0383838
0.0389365
0.0396582
0.0404858
0.0413657
0.0422503
0.0431045
0.0439078
0.0446579
0.0453773
0.0461137
0.0469152
0.0478362
0.0489558
0.0504252
0.0524912
0.0555513
0.0600076
0.0838288
0.0516404
0.045726
0.0436092
0.0427768
0.0425551
0.0427002
0.0430753
0.0436002
0.0442237
0.0449028
0.0456052
0.046309
0.0470038
0.0477037
0.0484445
0.049255
0.0501445
0.0511159
0.0522175
0.0534972
0.0550078
0.0567203
0.0986503
0.0590646
0.0514988
0.0485935
0.0472063
0.0465507
0.0463455
0.0464089
0.0466611
0.0470507
0.0475396
0.0480937
0.048684
0.0492927
0.0499265
0.0505994
0.0513265
0.0520796
0.0528316
0.0535824
0.0542906
0.0549112
0.0553946
0.112006
0.0655029
0.0565393
0.0530655
0.0512506
0.0502257
0.0496714
0.0494258
0.0494093
0.0495716
0.0498682
0.0502551
0.050699
0.0511817
0.0516945
0.052236
0.0528027
0.0533643
0.0538824
0.0543312
0.0546624
0.0548303
0.05484
0.127144
0.0707691
0.0608996
0.0569582
0.0547721
0.0534037
0.0525074
0.0519606
0.0516975
0.0516507
0.0517602
0.0519793
0.0522711
0.0526125
0.0529852
0.0533739
0.0537673
0.0541463
0.0544775
0.0547277
0.0548543
0.0548316
0.0546972
0.142456
0.075711
0.0646746
0.0602603
0.0577131
0.0560108
0.054808
0.0539923
0.0535093
0.0532846
0.0532442
0.0533307
0.0535028
0.0537279
0.0539764
0.0542254
0.0544645
0.0546883
0.0548807
0.0550078
0.0550254
0.0549188
0.0547491
0.148843
0.0797814
0.0679532
0.0629829
0.0600294
0.0580025
0.05653
0.0555006
0.0548575
0.0545175
0.0543925
0.0544135
0.0545276
0.0546877
0.0548514
0.0549908
0.0551012
0.0551961
0.0552814
0.055327
0.0552714
0.0550896
0.0548714
0.142999
0.082124
0.0708201
0.0651882
0.0617202
0.0593487
0.0576402
0.0564699
0.0557497
0.0553725
0.0552448
0.0552872
0.0554273
0.0555939
0.0557245
0.0557841
0.0557782
0.0557375
0.0556819
0.0555868
0.055398
0.0551058
0.0548563
0.138761
0.0861627
0.073288
0.0667085
0.0625105
0.0595909
0.057559
0.0562542
0.0554937
0.0551228
0.0550517
0.0551863
0.0554278
0.0556758
0.0558449
0.0558861
0.0558052
0.0556454
0.0554487
0.0552303
0.0549841
0.054697
0.0544611
0.152623
0.0873328
0.0732227
0.0665442
0.0623074
0.0591724
0.056824
0.0552582
0.0543594
0.053948
0.0538675
0.0539735
0.054162
0.054353
0.0544838
0.0545188
0.054459
0.0543344
0.0541789
0.0540075
0.0538141
0.0535859
0.0533718
0.170453
0.0865971
0.0706066
0.0638427
0.0598526
0.0570143
0.054896
0.0534446
0.0525901
0.0521933
0.0521041
0.0521799
0.0523191
0.0524621
0.0525673
0.0526133
0.0526001
0.0525438
0.0524628
0.052365
0.0522444
0.0520926
0.0519353
0.172215
0.0830625
0.0664626
0.0599125
0.0563515
0.0540348
0.0523705
0.0512175
0.0505306
0.0502214
0.0501671
0.0502448
0.0503735
0.0505086
0.0506217
0.0506976
0.0507338
0.0507363
0.0507117
0.0506611
0.0505814
0.0504717
0.0503404
0.161714
0.0772759
0.0616523
0.0556686
0.0526084
0.0507812
0.0495971
0.0488091
0.0483575
0.0481824
0.0481918
0.0483013
0.0484548
0.0486154
0.0487598
0.0488748
0.0489548
0.0489994
0.049009
0.0489824
0.0489187
0.0488196
0.0486842
0.147125
0.0705876
0.0566612
0.0514666
0.0489384
0.0475531
0.046771
0.0463318
0.0461311
0.0461112
0.0462067
0.046372
0.0465714
0.0467746
0.046961
0.0471175
0.0472371
0.0473162
0.0473523
0.0473442
0.0472925
0.047199
0.0470605
0.130944
0.0635978
0.0516707
0.0473823
0.0454088
0.0444284
0.0439724
0.0438224
0.0438497
0.0439888
0.0441912
0.0444332
0.0446927
0.0449481
0.0451822
0.0453833
0.0455442
0.0456599
0.0457276
0.0457461
0.0457162
0.0456397
0.0455143
0.114562
0.0567501
0.0468601
0.0434845
0.0420503
0.0414372
0.041253
0.0413256
0.0415356
0.041818
0.0421328
0.0424615
0.0427905
0.0431048
0.0433918
0.0436421
0.0438492
0.0440084
0.0441172
0.0441744
0.0441807
0.0441379
0.044045
0.0991761
0.0504383
0.0424277
0.0398728
0.0389123
0.0386113
0.0386483
0.0388844
0.0392353
0.0396342
0.0400482
0.0404605
0.0408597
0.0412354
0.0415784
0.0418815
0.0421395
0.0423488
0.0425071
0.0426135
0.0426687
0.0426738
0.042629
0.085817
0.0449821
0.0385384
0.0366406
0.0360506
0.0359896
0.036193
0.0365487
0.0369955
0.037481
0.0379731
0.0384556
0.0389181
0.0393518
0.0397495
0.0401058
0.0404166
0.040679
0.0408915
0.0410534
0.041165
0.0412269
0.0412393
0.0756021
0.0406571
0.0352919
0.0338418
0.0335028
0.0336031
0.0339171
0.0343514
0.0348566
0.0353993
0.0359461
0.0364816
0.036995
0.0374785
0.0379255
0.0383314
0.0386929
0.0390078
0.0392749
0.0394938
0.039664
0.0397855
0.0398581
0.0681985
0.0373059
0.0326456
0.0314663
0.0312702
0.0314604
0.0318358
0.032313
0.0328501
0.0334204
0.0340013
0.034572
0.0351225
0.0356448
0.0361329
0.0365821
0.0369895
0.0373531
0.0376719
0.0379452
0.0381722
0.0383518
0.038483
0.0628178
0.0346903
0.0304762
0.0294455
0.0293181
0.0295468
0.029946
0.0304388
0.0309878
0.0315684
0.0321637
0.0327545
0.0333293
0.0338798
0.0344
0.0348853
0.0353324
0.0357394
0.0361051
0.0364284
0.0367078
0.0369412
0.0371266
0.058869
0.032591
0.0286523
0.0276955
0.0275925
0.02783
0.0282318
0.0287243
0.0292715
0.0298514
0.0304485
0.0310493
0.0316387
0.0322091
0.032754
0.0332688
0.03375
0.0341952
0.0346027
0.0349709
0.0352975
0.0355795
0.0358136
0.0558165
0.0308208
0.0270579
0.0261374
0.0260392
0.0262731
0.0266692
0.0271556
0.0276969
0.0282722
0.0288672
0.0294705
0.0300688
0.0306538
0.0312191
0.0317594
0.0322706
0.03275
0.0331954
0.0336043
0.0339736
0.0342992
0.0345766
0.0532386
0.0292404
0.0256084
0.0247122
0.0246155
0.0248454
0.0252367
0.0257185
0.0262558
0.0268283
0.0274225
0.0280279
0.0286347
0.0292333
0.0298174
0.0303817
0.0309217
0.0314338
0.0319151
0.0323623
0.0327711
0.0331365
0.033453
0.0508488
0.0277636
0.0242535
0.023385
0.0232956
0.023528
0.0239206
0.0244038
0.0249428
0.025518
0.0261167
0.0267294
0.0273478
0.0279633
0.0285693
0.0291602
0.0297309
0.0302772
0.0307948
0.0312798
0.0317267
0.0321297
0.0324821
0.0485007
0.0263505
0.0229728
0.0221427
0.0220705
0.0223143
0.0227167
0.0232091
0.0237576
0.0243434
0.0249546
0.0255826
0.0262203
0.02686
0.0274949
0.0281188
0.0287259
0.0293108
0.0298684
0.0303933
0.0308791
0.031319
0.0317055
0.0461409
0.0249938
0.0217668
0.0209883
0.0209442
0.0212087
0.0216292
0.0221391
0.0227058
0.0233114
0.0239451
0.0245993
0.0252676
0.0259428
0.0266176
0.0272848
0.0279375
0.0285689
0.0291726
0.0297418
0.0302693
0.030747
0.0311668
0.0437852
0.0237066
0.0206493
0.0199355
0.0199296
0.0202233
0.0206698
0.0212053
0.021799
0.0224347
0.0231032
0.0237974
0.0245114
0.0252376
0.0259675
0.0266923
0.0274034
0.0280922
0.0287506
0.0293705
0.0299435
0.0304609
0.0309138
0.0414745
0.0225122
0.0196418
0.0190051
0.0190468
0.0193773
0.0198564
0.0204247
0.0210545
0.0217324
0.0224506
0.0232028
0.0239824
0.0247802
0.0255854
0.0263866
0.0271724
0.0279322
0.0286558
0.0293339
0.029957
0.0305157
0.0310012
0.0392661
0.0214393
0.0187717
0.0182249
0.0183233
0.0186965
0.0192134
0.0198209
0.0204967
0.0212312
0.0220187
0.022853
0.0237248
0.0246217
0.0255285
0.0264296
0.0273101
0.0281565
0.0289569
0.0297006
0.0303778
0.0309788
0.0314946
0.0372114
0.0205211
0.0180769
0.0176358
0.0177993
0.0182182
0.0187744
0.0194255
0.020158
0.0209679
0.0218517
0.0228011
0.023802
0.0248348
0.025877
0.026907
0.0279051
0.0288551
0.0297434
0.0305589
0.0312919
0.0319335
0.0324752
0.0353766
0.0198079
0.0176224
0.0173089
0.017542
0.0180007
0.0185886
0.0192824
0.0200824
0.0209928
0.0220108
0.023123
0.0243044
0.0255229
0.0267441
0.0279375
0.0290783
0.0301478
0.0311324
0.0320221
0.0328089
0.0334853
0.0340442
0.033877
0.0194099
0.0175512
0.0173891
0.017676
0.0181407
0.0187294
0.0194511
0.0203277
0.0213724
0.0225801
0.0239243
0.02536
0.0268322
0.0282877
0.0296842
0.030992
0.0321927
0.0332758
0.0342352
0.0350669
0.0357666
0.0363291
0.0330336
0.0196359
0.0182144
0.0181878
0.0184361
0.0187985
0.0193028
0.0200088
0.0209643
0.0221895
0.0236684
0.0253482
0.0271458
0.0289662
0.0307259
0.0323677
0.0338611
0.0351944
0.0363663
0.0373798
0.038238
0.0389417
0.0394886
0.0338019
0.0214033
0.0204758
0.0203532
0.0202405
0.0202183
0.0204452
0.0210386
0.0220635
0.0235329
0.0254042
0.0275764
0.0298984
0.0322008
0.0343514
0.0362781
0.0379609
0.0394089
0.0406413
0.0416773
0.0425312
0.0432112
0.0437181
0.0391849
0.0272919
0.0262746
0.025079
0.0237275
0.0227028
0.0222856
0.0225956
0.0236648
0.0254668
0.0279094
0.0308156
0.0339155
0.0368951
0.0395443
0.0417822
0.0436291
0.0451429
0.046381
0.0473881
0.0481939
0.0488149
0.0492548
0.0589515
0.0435343
0.039065
0.0340006
0.0295637
0.0264628
0.0248452
0.024636
0.0257171
0.0279691
0.0312353
0.0352471
0.0395416
0.0434889
0.0467744
0.0493198
0.0512563
0.0527431
0.053901
0.0548083
0.0555114
0.0560342
0.0563827
0.12537
0.0814334
0.0622205
0.0479212
0.0377485
0.0312792
0.0278769
0.026929
0.0280016
0.0308347
0.0352368
0.0409062
0.0471242
0.0524609
0.0565953
0.0593886
0.0612652
0.0625801
0.0635432
0.0642669
0.0648095
0.0651984
0.0654394
0.351148
0.149975
0.0925481
0.0641745
0.0466076
0.0361461
0.0307496
0.0290123
0.0300832
0.0335691
0.0393653
0.0474032
0.0568823
0.0640903
0.0696626
0.0725331
0.0740852
0.0750323
0.0756736
0.0761342
0.0764685
0.0766992
0.0768309
1.57746
0.208098
0.109633
0.0754115
0.0527019
0.0393637
0.0325637
0.030289
0.0313724
0.0353637
0.0423944
0.0531313
0.0678169
0.0768774
0.0870291
0.0893709
0.0901357
0.090493
0.0907086
0.0908561
0.0909599
0.0910289
0.0910644
0.325045
0.267987
0.230995
0.197571
0.0875657
0.0901144
0.0880148
0.0833167
0.0635762
0.064796
0.0646981
0.0636323
0.0576789
0.0579811
0.0578852
0.0574371
0.055538
0.0555272
0.0553999
0.0551618
0.0547594
0.0546816
0.0545761
0.0544413
0.0545814
0.0545111
0.0544474
0.0543887
0.0546509
0.0546068
0.0545846
0.0545862
0.054769
0.0547396
0.0547498
0.0547994
0.0547787
0.0547613
0.0547829
0.0548468
0.0543948
0.0544004
0.0544469
0.0544844
0.0532869
0.0532699
0.05327
0.0532587
0.0518621
0.0518321
0.051796
0.0517428
0.0502533
0.0501988
0.0501318
0.0500506
0.0485711
0.0484946
0.0484069
0.048308
0.0469321
0.0468426
0.0467427
0.0466328
0.0453875
0.0452961
0.0451942
0.0450819
0.0439364
0.0438533
0.0437589
0.0436533
0.0425511
0.0424841
0.0424047
0.0423133
0.0411992
0.0411535
0.0410938
0.0410215
0.0398588
0.0398364
0.0397989
0.0397479
0.0385238
0.0385251
0.0385101
0.0384809
0.0372048
0.0372288
0.0372357
0.0372274
0.0359259
0.035971
0.0359982
0.0360098
0.0347196
0.0347841
0.0348304
0.0348603
0.0336239
0.0337064
0.0337702
0.0338172
0.0326787
0.0327779
0.0328583
0.0329213
0.0319259
0.0320409
0.0321368
0.0322146
0.0314096
0.0315395
0.0316496
0.0317411
0.0311776
0.0313211
0.0314441
0.0315474
0.0312839
0.0314392
0.031573
0.0316857
0.0317929
0.0319574
0.0320986
0.0322171
0.0327835
0.0329529
0.033097
0.0332159
0.0343544
0.0345228
0.0346629
0.0347749
0.0366296
0.0367889
0.0369165
0.0370121
0.0397648
0.0399054
0.0400101
0.0400782
0.043954
0.0440654
0.0441369
0.0441664
0.0494357
0.0495098
0.0495401
0.0495233
0.0565
0.0565338
0.0565225
0.0564602
0.0654963
0.0654968
0.0654549
0.0653632
0.0768454
0.0768302
0.0767835
0.0766976
0.0910627
0.0910538
0.0910332
0.0909978
0.0937715
0.0613151
0.0496353
0.0451083
0.0423368
0.0399029
0.0381681
0.036629
0.034759
0.0329752
0.0314494
0.0300948
0.02916
0.0272682
0.0256747
0.0245213
0.0237083
0.023439
0.0336993
0.0712915
0.0590367
0.0511766
0.0463719
0.0435231
0.0419616
0.0403953
0.0384114
0.0363479
0.0345395
0.0329829
0.0316118
0.0304401
0.0289512
0.0276224
0.0267035
0.025973
0.0249362
0.0300867
0.0606847
0.0556434
0.0510529
0.0473764
0.0447159
0.0430896
0.0415895
0.0397731
0.0379632
0.0363175
0.0347987
0.0333409
0.0319528
0.0306475
0.0295989
0.0287218
0.0277817
0.0271428
0.0335323
0.0562701
0.053915
0.0510977
0.0483504
0.0459521
0.0440893
0.0425353
0.0409777
0.0394522
0.0380226
0.0366218
0.0352117
0.0338262
0.032613
0.0315456
0.0304532
0.029519
0.0304164
0.0461635
0.0546019
0.0533611
0.0515548
0.049484
0.0474511
0.0456292
0.0439614
0.042414
0.0409987
0.0396785
0.0383768
0.0370815
0.0358128
0.0346093
0.0333987
0.0321558
0.0314803
0.0338338
0.0594713
0.0541605
0.053504
0.0523798
0.0508762
0.04922
0.0475356
0.0458266
0.0441815
0.0426955
0.0413583
0.040092
0.0388551
0.037619
0.0363517
0.0350089
0.0337482
0.0334716
0.0373031
0.0699343
0.0542879
0.0540218
0.0533983
0.0523723
0.051049
0.0495053
0.0477916
0.0460554
0.0444602
0.0430469
0.0417519
0.0405021
0.0392212
0.0378463
0.0364017
0.0351856
0.0352078
0.0397003
0.0748506
0.0546221
0.0546548
0.0544092
0.0537609
0.0527109
0.0512869
0.0495795
0.0477927
0.0461326
0.0446611
0.0433164
0.0420203
0.0406672
0.0391535
0.037567
0.0363416
0.0364509
0.0408712
0.074481
0.0549409
0.0552057
0.0552437
0.054891
0.0540638
0.052722
0.050996
0.0491818
0.0475403
0.0460977
0.044736
0.0434119
0.0420228
0.0403506
0.0385276
0.0371808
0.0372612
0.0416152
0.073508
0.0550375
0.0554496
0.0556766
0.0555805
0.0549745
0.0536627
0.0518395
0.0499978
0.0485239
0.0472978
0.0459916
0.0447385
0.0434714
0.0415125
0.0392812
0.0378351
0.0381055
0.0437467
0.0893036
0.0545433
0.0547065
0.0548434
0.054873
0.0545047
0.0533781
0.0516599
0.0499665
0.0486503
0.0474232
0.0460219
0.0446887
0.043341
0.041596
0.0396901
0.0382935
0.03853
0.044644
0.0935337
0.0532164
0.0531857
0.0531526
0.0530104
0.0525406
0.0516063
0.0503419
0.04908
0.0479517
0.0468818
0.0457592
0.044639
0.0433432
0.0415542
0.0397066
0.03846
0.038568
0.0442691
0.0932482
0.0516197
0.0514444
0.0512713
0.0509781
0.0504005
0.0495332
0.0485542
0.0476803
0.0468725
0.0460142
0.0449236
0.0436952
0.0424435
0.0409729
0.0394608
0.0382379
0.0377601
0.0407347
0.0783806
0.0498851
0.0496212
0.0493313
0.0489198
0.0482868
0.0474625
0.0466196
0.045927
0.0453172
0.044621
0.0436166
0.0424021
0.0411977
0.0399796
0.0386666
0.0371897
0.0358098
0.0366098
0.0621577
0.0481182
0.0477985
0.0474274
0.0469455
0.0463013
0.0455218
0.0447257
0.0440319
0.0434075
0.0427126
0.0417868
0.040681
0.0395829
0.0384701
0.0371969
0.0356295
0.0338599
0.0336082
0.0505008
0.0464286
0.0460813
0.0456723
0.0451675
0.0445382
0.043798
0.0430129
0.0422551
0.0415257
0.040746
0.0398348
0.0388188
0.0377975
0.0367547
0.0355685
0.03412
0.0325472
0.0321964
0.0443349
0.0448762
0.0445265
0.0441136
0.0436176
0.0430193
0.0423187
0.0415449
0.040738
0.039917
0.0390573
0.0381358
0.0371737
0.0362172
0.0352574
0.0342334
0.0331148
0.0320831
0.0321863
0.0425476
0.0434604
0.0431297
0.0427359
0.0422673
0.0417082
0.0410504
0.0403027
0.0394871
0.038627
0.0377315
0.0368107
0.0358887
0.0349949
0.0341378
0.0333172
0.032579
0.0321456
0.0329656
0.0437054
0.0421447
0.0418485
0.0414874
0.0410547
0.0405371
0.0399236
0.0392139
0.0384211
0.0375677
0.0366771
0.0357742
0.0348882
0.0340486
0.0332832
0.0326341
0.0322012
0.0322607
0.0338718
0.0464483
0.0408845
0.0406313
0.040309
0.0399141
0.0394361
0.0388644
0.0381963
0.0374405
0.036617
0.0357521
0.0348751
0.0340179
0.0332152
0.0325097
0.0319715
0.0317413
0.0321687
0.03456
0.0500513
0.0396457
0.0394382
0.0391559
0.0387971
0.0383543
0.0378194
0.0371898
0.0364723
0.0356842
0.03485
0.0339983
0.033162
0.0323802
0.031707
0.0312322
0.0311306
0.0318278
0.0348959
0.053559
0.0384136
0.0382507
0.0380064
0.0376806
0.0372685
0.0367648
0.0361683
0.0354854
0.0347305
0.0339256
0.0330972
0.032278
0.0315107
0.0308578
0.0304242
0.0304122
0.0313113
0.0349252
0.0564099
0.0371935
0.0370719
0.0368627
0.0365668
0.0361819
0.0357053
0.0351376
0.0344851
0.0337608
0.0329839
0.0321792
0.0313792
0.0306292
0.0299982
0.0296026
0.0296654
0.0307302
0.0347848
0.0586018
0.0360069
0.0359228
0.0357458
0.0354774
0.0351176
0.0346659
0.0341246
0.0335005
0.0328058
0.0320579
0.0312802
0.0305052
0.0297804
0.0291794
0.028827
0.0289631
0.030171
0.0345799
0.0602677
0.0348861
0.0348359
0.0346884
0.034446
0.0341102
0.0336828
0.0331674
0.0325716
0.0319072
0.0311906
0.0304444
0.0297012
0.02901
0.0284473
0.0281438
0.0283528
0.0296848
0.034377
0.0615687
0.0338694
0.0338499
0.0337296
0.0335118
0.0331996
0.0327963
0.0323072
0.0317402
0.0311075
0.0304248
0.0297141
0.0290082
0.0283566
0.027838
0.027587
0.0278652
0.0293031
0.0342235
0.0626355
0.0329979
0.033006
0.0329107
0.032716
0.0324263
0.0320466
0.0315836
0.0310459
0.0304457
0.0297983
0.0291256
0.0284601
0.0278514
0.0273792
0.0271804
0.0275218
0.0290498
0.0341576
0.0635924
0.0323136
0.0323462
0.032273
0.0320986
0.0318293
0.0314716
0.0310332
0.0305237
0.0299555
0.0293435
0.0287096
0.0280856
0.0275209
0.0270949
0.026946
0.0273448
0.028952
0.0342255
0.0645766
0.0318601
0.0319131
0.0318573
0.031699
0.0314458
0.0311061
0.0306889
0.0302047
0.0296662
0.0290883
0.0284925
0.0279101
0.0273894
0.0270093
0.0269087
0.0273615
0.0290436
0.034482
0.0657859
0.0316833
0.0317511
0.0317061
0.0315566
0.0313121
0.0309831
0.0305805
0.0301161
0.029603
0.0290566
0.0284978
0.0279572
0.0274817
0.0271487
0.0270968
0.0276035
0.0293617
0.0349784
0.0672666
0.0318339
0.0319083
0.0318643
0.0317123
0.0314648
0.0311348
0.0307361
0.0302825
0.0297882
0.0292692
0.0287465
0.0282495
0.0278233
0.0275431
0.0275457
0.0281118
0.0299518
0.0357547
0.0690545
0.0323708
0.0324398
0.0323822
0.0322109
0.0319422
0.0315931
0.0311819
0.0307253
0.03024
0.0297435
0.0292571
0.028809
0.0284422
0.0282286
0.0283017
0.0289431
0.0308794
0.0368842
0.071265
0.0333654
0.0334118
0.0333191
0.0331036
0.0327861
0.0323906
0.0319417
0.0314617
0.0309714
0.0304911
0.0300431
0.0296551
0.0293676
0.0292481
0.0294247
0.030176
0.0322417
0.0384865
0.0741372
0.0349067
0.0349068
0.0347486
0.0344519
0.0340445
0.033561
0.0330366
0.0325027
0.0319874
0.0315152
0.0311106
0.0308017
0.0306279
0.0306519
0.0309933
0.0319221
0.0341831
0.0407394
0.0779522
0.037109
0.037031
0.0367651
0.0363334
0.0357741
0.0351391
0.034482
0.0338498
0.0332808
0.0328056
0.0324525
0.0322529
0.0322476
0.0324974
0.0331121
0.0343449
0.0369314
0.0439373
0.0832147
0.0401197
0.0399246
0.0394945
0.03885
0.0380438
0.0371601
0.036285
0.0354899
0.0348265
0.0343328
0.0340429
0.0339957
0.0342414
0.034848
0.0359213
0.0376916
0.0408622
0.0485945
0.0907499
0.044132
0.0437766
0.0431104
0.042141
0.0409411
0.0396569
0.0384366
0.0373873
0.0365746
0.0360415
0.035829
0.035991
0.0366032
0.0377639
0.0396001
0.0423305
0.0466085
0.0556898
0.102284
0.0493986
0.048846
0.0478622
0.0464098
0.0445806
0.0426531
0.0408999
0.0394736
0.0384425
0.0378439
0.0377236
0.0381616
0.0392868
0.0412768
0.0443437
0.0487552
0.0551685
0.0671007
0.12148
0.0562483
0.055492
0.0541246
0.0519824
0.0491286
0.0461505
0.0435899
0.0416332
0.0403074
0.0396152
0.0395986
0.0403769
0.0421744
0.0453312
0.0502719
0.0574422
0.0677879
0.0862646
0.157213
0.0650998
0.0642091
0.062484
0.0594505
0.0548772
0.050105
0.0463401
0.0436866
0.0420029
0.0411958
0.0412853
0.0424416
0.0450372
0.049703
0.0572969
0.0684115
0.0849098
0.118274
0.234061
0.0764622
0.0756454
0.0738592
0.0700144
0.062376
0.054339
0.0488463
0.0453783
0.043326
0.0424037
0.0425849
0.0440955
0.0475087
0.0539659
0.0653959
0.0806726
0.103053
0.165223
0.448495
0.0908991
0.0905259
0.0895136
0.0861837
0.0717863
0.0580695
0.0505551
0.046384
0.0440666
0.0430665
0.0433034
0.0450476
0.0490907
0.0575336
0.0777602
0.0928528
0.109848
0.192803
1.45375
)
;

boundaryField
{
    leftWall
    {
        type            epsilonWallFunction;
        value           nonuniform List<scalar> 
50
(
0.00273098
0.004776
0.00804869
0.0116301
0.0157464
0.0204726
0.0259178
0.0317433
0.0413003
0.0555273
0.0692711
0.0838288
0.0986503
0.112006
0.127144
0.142456
0.148843
0.142999
0.138761
0.152623
0.170453
0.172215
0.161714
0.147125
0.130944
0.114562
0.0991761
0.085817
0.0756021
0.0681985
0.0628178
0.058869
0.0558165
0.0532386
0.0508488
0.0485007
0.0461409
0.0437852
0.0414745
0.0392661
0.0372114
0.0353766
0.033877
0.0330336
0.0338019
0.0391849
0.0589515
0.12537
0.351148
1.57746
)
;
    }
    rightWall
    {
        type            epsilonWallFunction;
        value           nonuniform List<scalar> 
50
(
0.00356217
0.00654924
0.0129261
0.0232055
0.0427998
0.047372
0.0459984
0.0424036
0.0336993
0.0300867
0.0335323
0.0461635
0.0594713
0.0699343
0.0748506
0.074481
0.073508
0.0893036
0.0935337
0.0932482
0.0783806
0.0621577
0.0505008
0.0443349
0.0425476
0.0437054
0.0464483
0.0500513
0.053559
0.0564099
0.0586018
0.0602677
0.0615687
0.0626355
0.0635924
0.0645766
0.0657859
0.0672666
0.0690545
0.071265
0.0741372
0.0779522
0.0832147
0.0907499
0.102284
0.12148
0.157213
0.234061
0.448495
1.45375
)
;
    }
    lowerWall
    {
        type            epsilonWallFunction;
        value           nonuniform List<scalar> 
62
(
0.00273098
0.0145247
0.0296463
0.0449497
0.0593057
0.0723082
0.0837945
0.0936712
0.101929
0.108636
0.113818
0.117457
0.11948
0.119737
0.118047
0.114371
0.108652
0.100723
0.0900617
0.076037
0.0578698
0.0348599
0.0104171
0.0104171
0.0177079
0.0300156
0.0440857
0.0620285
0.0894143
0.139872
0.249614
0.325045
0.267987
0.230995
0.197571
0.0110102
0.0141849
0.0212
0.0262435
0.0283525
0.0296426
0.0355278
0.0569314
0.0110102
0.033693
0.0536564
0.0726961
0.0913586
0.0976059
0.0986508
0.103537
0.103338
0.0971638
0.0850075
0.0718507
0.0665516
0.0614276
0.0504356
0.0428349
0.032189
0.0188059
0.00356217
)
;
    }
    atmosphere
    {
        type            inletOutlet;
        inletValue      uniform 0.1;
        value           nonuniform List<scalar> 
46
(
0.1
0.1
0.1
0.0754115
0.0527019
0.0393637
0.0325637
0.030289
0.0313724
0.0353637
0.0423944
0.0531313
0.0678169
0.0768774
0.1
0.1
0.1
0.1
0.1
0.1
0.1
0.1
0.1
0.1
0.1
0.1
0.1
0.1
0.1
0.1
0.1
0.0717863
0.0580695
0.0505551
0.046384
0.0440666
0.0430665
0.0433034
0.0450476
0.0490907
0.0575336
0.1
0.1
0.1
0.1
0.1
)
;
    }
    defaultFaces
    {
        type            empty;
    }
}


// ************************************************************************* //
