/*--------------------------------*- C++ -*----------------------------------*\
  =========                 |
  \\      /  F ield         | OpenFOAM: The Open Source CFD Toolbox
   \\    /   O peration     | Website:  https://openfoam.org
    \\  /    A nd           | Version:  13
     \\/     M anipulation  |
\*---------------------------------------------------------------------------*/
FoamFile
{
    format      ascii;
    class       volScalarField;
    location    "2.7";
    object      k;
}
// * * * * * * * * * * * * * * * * * * * * * * * * * * * * * * * * * * * * * //

dimensions      [0 2 -2 0 0 0 0];

internalField   nonuniform List<scalar> 
2268
(
0.00075026
0.00228557
0.00366964
0.00483579
0.00581117
0.00662688
0.00730607
0.00786414
0.00831449
0.00867081
0.00894124
0.00912925
0.00923357
0.0092479
0.00916418
0.00897966
0.0086907
0.0082807
0.00770128
0.00689155
0.00574715
0.0040865
0.00182448
0.00179272
0.00532851
0.00822813
0.0106686
0.0127234
0.0144524
0.0158996
0.0170944
0.0180615
0.0188276
0.0194106
0.0198193
0.0200539
0.0201067
0.0199698
0.0196421
0.0191159
0.0183457
0.0172424
0.0156596
0.0133318
0.00980483
0.00427011
0.00253891
0.00721281
0.0107969
0.0137929
0.016323
0.018462
0.0202613
0.0217559
0.0229742
0.0239446
0.0246871
0.0252129
0.0255244
0.0256186
0.0254931
0.0251504
0.024584
0.023743
0.0225205
0.0207249
0.017998
0.0136761
0.00607233
0.00323796
0.00881057
0.0128658
0.0162068
0.0190277
0.021421
0.0234435
0.0251319
0.0265154
0.0276236
0.0284781
0.0290917
0.0294689
0.0296106
0.0295208
0.0292076
0.0286698
0.0278567
0.0266574
0.0248591
0.0220391
0.0173038
0.00786366
0.00395303
0.0103301
0.0147609
0.0183535
0.021382
0.0239585
0.0261453
0.0279786
0.0294866
0.030701
0.0316455
0.0323341
0.032773
0.0329665
0.0329245
0.0326625
0.0321865
0.0314503
0.030349
0.0286675
0.0259479
0.0210708
0.00990982
0.00470745
0.0118507
0.0165864
0.0203766
0.0235661
0.0262874
0.0286075
0.0305601
0.0321705
0.0334741
0.0344966
0.0352537
0.0357522
0.035999
0.0360101
0.0358097
0.0354111
0.0347771
0.0338162
0.0323299
0.0298714
0.0251866
0.012687
0.00550724
0.013372
0.0183761
0.0223306
0.0256526
0.0284965
0.0309344
0.0329952
0.0346974
0.0360815
0.0371761
0.0379988
0.0385559
0.0388557
0.0389196
0.0387823
0.0384663
0.0379456
0.0371481
0.0359059
0.0338401
0.0297749
0.0170935
0.00627966
0.0148924
0.0201477
0.0242301
0.0276416
0.0305658
0.0330864
0.0352368
0.0370359
0.0385163
0.0397022
0.040609
0.0412413
0.0416026
0.0417189
0.0416392
0.0414034
0.0409962
0.0403648
0.0393803
0.0377702
0.0347282
0.0250131
0.00190198
0.00395841
0.00541032
0.00664191
0.00774918
0.00806239
0.00815649
0.00840323
0.00836075
0.00802551
0.00732591
0.00654992
0.00624839
0.00590897
0.00519135
0.00466114
0.00385315
0.00269447
0.00088282
0.00393798
0.00832689
0.0115067
0.0141851
0.0161
0.0170095
0.0175087
0.0178219
0.0176073
0.0168683
0.0158585
0.0146138
0.0138589
0.0127484
0.0115261
0.0103382
0.0087405
0.00636847
0.00235565
0.00512494
0.0108297
0.0148525
0.0181418
0.0204352
0.0216027
0.0222581
0.0225974
0.022306
0.0213698
0.020234
0.0190234
0.0178101
0.0163484
0.014946
0.0135203
0.011721
0.00902918
0.00371625
0.0059078
0.0125011
0.0172395
0.0209324
0.0234081
0.0248343
0.0256288
0.0260176
0.0256542
0.024637
0.0234332
0.0221905
0.0207939
0.0190971
0.0176163
0.0161309
0.0143829
0.0118412
0.00550606
0.00624341
0.0137084
0.0191776
0.0231764
0.0256981
0.0272392
0.0281753
0.0285645
0.0280939
0.0270301
0.0258778
0.0247129
0.0234536
0.0214407
0.0199434
0.0185237
0.016692
0.0141254
0.00826836
0.00638049
0.0147348
0.0208762
0.0252526
0.0277956
0.0293098
0.030229
0.0305071
0.0299925
0.0289339
0.0278059
0.0266534
0.0258554
0.0233469
0.0219818
0.0204151
0.0181538
0.014942
0.00883094
0.00713962
0.0159319
0.022522
0.0272746
0.0298762
0.0313148
0.0321425
0.0323244
0.0317856
0.0307351
0.0296095
0.028354
0.0272604
0.0250503
0.0236069
0.0217414
0.0190795
0.0151958
0.00866981
0.00974693
0.0180425
0.0244545
0.0292135
0.0319157
0.033282
0.0340414
0.0341586
0.0335383
0.0324487
0.0312841
0.0299435
0.0285655
0.0266458
0.0249904
0.0228682
0.0198722
0.0153545
0.00822277
0.00746745
0.0173134
0.0229384
0.0271606
0.0306302
0.0335789
0.0361159
0.0383001
0.0401749
0.041767
0.0430869
0.0441394
0.044918
0.0454243
0.0456877
0.0457514
0.0456643
0.0454362
0.045042
0.0444065
0.0433788
0.0416761
0.0382625
0.00907834
0.0205449
0.0266781
0.0310757
0.0345822
0.0374907
0.039946
0.0420387
0.0438303
0.0453584
0.0466432
0.0476971
0.0485301
0.0491572
0.0496047
0.0499056
0.0500773
0.050116
0.0500109
0.0497271
0.0491892
0.0482642
0.0466643
0.0104647
0.02344
0.0301821
0.0348356
0.038427
0.0413258
0.0437236
0.0457401
0.0474535
0.0489123
0.0501454
0.0511737
0.0520148
0.0526881
0.0532186
0.053635
0.0539403
0.0541266
0.0541685
0.0540341
0.0536673
0.0529977
0.0519483
0.0118525
0.0261968
0.0334523
0.0383525
0.0420385
0.0449559
0.047339
0.0493154
0.0509741
0.052379
0.0535716
0.0545811
0.0554287
0.0561318
0.0567137
0.057199
0.0575902
0.0578701
0.0579965
0.0579357
0.0576302
0.0570197
0.0560788
0.0132019
0.0289302
0.0365553
0.0416376
0.0453935
0.04833
0.0507083
0.0526487
0.0542578
0.0556119
0.0567637
0.0577472
0.0585836
0.0592886
0.0598839
0.060382
0.0607909
0.0610817
0.0612126
0.0611524
0.0608417
0.0602338
0.0593398
0.0143597
0.0312739
0.0394078
0.0446592
0.048467
0.0514008
0.0537354
0.0556231
0.057175
0.0584746
0.0595782
0.0605181
0.0613171
0.0619935
0.0625597
0.0630265
0.063397
0.0636496
0.0637488
0.0636648
0.0633563
0.0627989
0.0620345
0.0156547
0.0336419
0.0419434
0.0472718
0.0511042
0.0540208
0.0563061
0.0581348
0.0596379
0.0608925
0.0619486
0.0628421
0.0635964
0.0642298
0.064753
0.0651716
0.065488
0.0656945
0.0657676
0.0656817
0.0654083
0.064941
0.0643322
0.0169347
0.035497
0.0439847
0.0494012
0.0532641
0.0561619
0.058399
0.0601823
0.0616453
0.0628675
0.0638961
0.0647634
0.0654927
0.0660988
0.0665877
0.0669628
0.0672303
0.0673958
0.0674526
0.0673796
0.0671507
0.0667661
0.0662862
0.0173722
0.0367191
0.0454986
0.0510386
0.0549477
0.0578384
0.06004
0.0617859
0.0632296
0.0644452
0.0654785
0.0663571
0.0670981
0.0677082
0.068186
0.0685329
0.0687613
0.0688919
0.0689366
0.0688794
0.0686834
0.0683404
0.0679237
0.0170958
0.0367585
0.0463673
0.0521899
0.0561775
0.0590731
0.0612489
0.0629764
0.0644229
0.0656601
0.0667357
0.0676718
0.0684729
0.0691288
0.0696251
0.0699586
0.0701492
0.0702313
0.0702281
0.0701294
0.0699041
0.0695511
0.0691772
0.0165867
0.0362062
0.0467385
0.0529267
0.0569154
0.0596742
0.0617249
0.0633878
0.0648109
0.0660622
0.0671931
0.0682149
0.0691126
0.0698548
0.0704102
0.0707649
0.0709388
0.0709751
0.0709136
0.0707726
0.0705535
0.0702518
0.0699328
0.0175461
0.0373335
0.0472414
0.0533153
0.0572679
0.0599039
0.0617535
0.0632303
0.0645394
0.0657479
0.0668686
0.0678783
0.0687554
0.0694798
0.0700338
0.0704117
0.0706295
0.0707214
0.0707218
0.0706488
0.0705039
0.0702811
0.0700129
0.0188987
0.0380926
0.0471118
0.0527097
0.0564919
0.059099
0.0609591
0.0624268
0.0637136
0.0649012
0.0660024
0.0669912
0.067844
0.0685521
0.0691106
0.0695225
0.0698022
0.0699734
0.0700591
0.0700718
0.0700114
0.0698738
0.0696741
0.0191012
0.0376902
0.0460738
0.0513117
0.0549727
0.0576357
0.059618
0.0611842
0.0625299
0.0637498
0.0648645
0.0658566
0.0667135
0.0674344
0.0680219
0.0684823
0.0688272
0.0690718
0.0692294
0.0693067
0.0693048
0.0692237
0.0690668
0.0184019
0.0364223
0.0444194
0.0494395
0.0530374
0.0557683
0.0579109
0.0596365
0.0611016
0.062399
0.0635575
0.0645813
0.0654724
0.0662337
0.0668697
0.0673868
0.0677936
0.0680992
0.0683112
0.0684339
0.0684692
0.0684188
0.0682795
0.0173414
0.0346126
0.042364
0.047281
0.0508736
0.0536834
0.0559713
0.0578701
0.0594839
0.060888
0.0621176
0.063199
0.0641459
0.0649644
0.0656594
0.0662367
0.0667024
0.0670627
0.0673221
0.0674841
0.0675514
0.067526
0.067403
0.0160998
0.0324915
0.0400496
0.044936
0.048572
0.0514729
0.0538854
0.0559376
0.0576987
0.0592235
0.0605489
0.0617104
0.0627291
0.0636155
0.0643763
0.0650171
0.0655435
0.0659598
0.0662696
0.0664761
0.0665821
0.0665895
0.0664945
0.0147725
0.0302405
0.037618
0.0425045
0.0462065
0.0492023
0.0517243
0.0539003
0.0557875
0.0574294
0.0588608
0.060115
0.0612161
0.0621782
0.0630103
0.0637193
0.0643105
0.0647883
0.0651561
0.0654167
0.0655729
0.0656264
0.0655751
0.0134516
0.0280174
0.0352123
0.0400957
0.0438575
0.0469362
0.0495493
0.0518184
0.0538086
0.0555526
0.0570833
0.0584301
0.0596162
0.0606574
0.0615644
0.0623451
0.0630057
0.0635507
0.0639837
0.0643077
0.064525
0.0646372
0.0646436
0.0122335
0.0259538
0.0329548
0.037811
0.0416055
0.0447409
0.0474193
0.0497562
0.05182
0.0536452
0.0552595
0.0566892
0.0579552
0.0590731
0.0600544
0.0609077
0.0616396
0.0622552
0.0627582
0.0631516
0.0634376
0.0636173
0.0636906
0.0112467
0.024131
0.0309283
0.0357269
0.0395167
0.0426738
0.0453867
0.0477644
0.0498737
0.0517565
0.0534348
0.0549321
0.0562672
0.0574546
0.0585054
0.0594284
0.0602303
0.0609164
0.0614906
0.0619558
0.0623136
0.0625648
0.0627091
0.010494
0.0226378
0.0291973
0.0338871
0.0376301
0.0407729
0.0434901
0.0458814
0.0480132
0.0499271
0.0516497
0.0531977
0.0545883
0.0558348
0.0569473
0.0579341
0.0588018
0.0595554
0.0601988
0.0607345
0.0611635
0.061486
0.0617012
0.00992499
0.0214559
0.0277617
0.0323107
0.0359696
0.0390615
0.0417494
0.0441293
0.046264
0.0481903
0.0499368
0.0515193
0.0529518
0.054246
0.0554112
0.0564546
0.0573821
0.0581984
0.0589067
0.0595092
0.0600061
0.0603969
0.0606799
0.00949534
0.020527
0.0265766
0.0309655
0.0345169
0.0375355
0.0401743
0.0425234
0.0446406
0.0465636
0.0483188
0.0499234
0.0513862
0.0527182
0.0539275
0.0550203
0.0560015
0.0568749
0.0576431
0.0583075
0.0588676
0.0593218
0.0596678
0.00915766
0.0197739
0.0255776
0.0298016
0.0332361
0.036171
0.0387503
0.0410587
0.0431502
0.045061
0.0468154
0.0484304
0.0499148
0.0512773
0.0525246
0.0536613
0.0546909
0.0556165
0.0564398
0.0571611
0.0577792
0.0582916
0.0586949
0.00887012
0.0191247
0.024701
0.0287675
0.0320876
0.0349386
0.0374574
0.0397236
0.041788
0.0436842
0.0454354
0.0470573
0.0485598
0.0499489
0.05123
0.0524066
0.0534812
0.0544555
0.05533
0.0561043
0.0567758
0.0573411
0.0577963
0.00860213
0.0185255
0.0238974
0.0278214
0.0310378
0.0338131
0.0362776
0.0385067
0.0405481
0.0424336
0.0441847
0.0458163
0.0473377
0.0487541
0.0500694
0.0512858
0.0524046
0.0534259
0.0543493
0.0551729
0.0558937
0.0565072
0.057009
0.00833651
0.0179445
0.0231358
0.0269367
0.0300648
0.0327773
0.0351988
0.0374006
0.0394281
0.0413111
0.0430699
0.0447182
0.0462646
0.0477136
0.0490675
0.050327
0.0514919
0.0525612
0.0535329
0.0544043
0.0551715
0.0558293
0.0563725
0.00806621
0.0173688
0.022403
0.0261012
0.029159
0.0318244
0.0342168
0.0364045
0.0384304
0.0403229
0.0421011
0.0437775
0.0453595
0.0468505
0.048251
0.0495601
0.0507761
0.0518964
0.0529178
0.0538366
0.0546482
0.0553468
0.0559269
0.00779188
0.0167994
0.0216991
0.0253157
0.028322
0.0309571
0.0333362
0.0355248
0.037564
0.0394812
0.0412941
0.0430137
0.0446459
0.0461923
0.0476512
0.0490197
0.050294
0.0514702
0.0525439
0.0535106
0.0543649
0.0551011
0.0557134
0.00751774
0.016245
0.0210335
0.0245902
0.0275643
0.030187
0.0325693
0.0347752
0.036845
0.0388049
0.0406715
0.0424538
0.0441553
0.0457745
0.047307
0.0487473
0.0500893
0.0513275
0.0524566
0.0534715
0.0543669
0.0551368
0.055776
0.00725038
0.0157198
0.0204231
0.0239433
0.0269059
0.0295342
0.0319369
0.0341777
0.0362971
0.0383212
0.0402649
0.0421345
0.0439292
0.0456434
0.0472684
0.0487952
0.0502155
0.0515222
0.0527094
0.0537721
0.0547053
0.0555039
0.056163
0.00699669
0.0152424
0.0198939
0.0234058
0.026379
0.0290307
0.0314699
0.0337631
0.0359533
0.038067
0.040117
0.0421048
0.0440233
0.0458601
0.0476003
0.0492306
0.05074
0.0521207
0.0533669
0.0544746
0.0554401
0.0562598
0.0569297
0.00676611
0.014844
0.0194928
0.0230321
0.0260378
0.028726
0.0312129
0.0335735
0.0358566
0.03809
0.040283
0.0424293
0.0445112
0.0465052
0.0483877
0.0501398
0.0517483
0.0532056
0.0545079
0.0556538
0.0566422
0.0574719
0.0581405
0.00657609
0.0145911
0.0193176
0.0229267
0.025977
0.0286985
0.0312295
0.0336635
0.03606
0.0384487
0.0408321
0.0431905
0.0454884
0.0476845
0.0497418
0.0516343
0.0533482
0.054879
0.056228
0.0573989
0.0583953
0.0592194
0.0598711
0.00647282
0.0146501
0.0195853
0.0232966
0.0263626
0.029069
0.0316052
0.0340979
0.0366222
0.0392077
0.0418443
0.0444891
0.0470764
0.0495343
0.051805
0.0538548
0.0556731
0.0572645
0.0586405
0.0598142
0.0607963
0.0615937
0.0622091
0.00658771
0.0154387
0.0207699
0.0245356
0.0274686
0.0300077
0.0324402
0.0349394
0.0375934
0.0404246
0.0434001
0.0464389
0.0494229
0.0522257
0.0547562
0.0569741
0.0588821
0.0605051
0.061874
0.0630164
0.0639532
0.0646975
0.0652546
0.00729631
0.0179157
0.0238142
0.0273136
0.0296872
0.0317116
0.0338188
0.0362178
0.0389865
0.0421222
0.045556
0.0491497
0.0526962
0.055964
0.0588106
0.0611944
0.063154
0.0647564
0.0660649
0.0671285
0.0679807
0.0686412
0.0691175
0.00959662
0.0239273
0.030262
0.032523
0.033424
0.034311
0.0357407
0.0378789
0.0407319
0.0442419
0.0482966
0.0526897
0.0570695
0.0609801
0.0642142
0.0667367
0.0686734
0.0701718
0.0713455
0.0722704
0.0729927
0.0735376
0.073914
0.0158542
0.0362937
0.0419088
0.0408008
0.0387593
0.0376768
0.0380183
0.0397252
0.0426277
0.0465826
0.0514556
0.0570086
0.0626906
0.0674958
0.0712351
0.0738249
0.0756088
0.0768831
0.0778294
0.078549
0.0790961
0.0794978
0.0797621
0.0314535
0.058353
0.0602323
0.0516556
0.04492
0.0411888
0.0401969
0.0413898
0.0443168
0.048743
0.0545911
0.0617601
0.0695824
0.0755559
0.0801792
0.0826743
0.0840879
0.0849813
0.0856006
0.0860536
0.0863893
0.0866295
0.0867802
0.0855171
0.090947
0.0857915
0.062413
0.0498422
0.0436571
0.0416003
0.0424074
0.0453454
0.0501247
0.0568202
0.0657836
0.0768693
0.0839727
0.0916149
0.093503
0.0941718
0.0945064
0.0947169
0.094865
0.0949725
0.0950479
0.0950932
0.0295448
0.0259985
0.0236641
0.0213192
0.0445946
0.0429519
0.0412375
0.0394327
0.0507976
0.0498329
0.0486894
0.047447
0.0551175
0.0543854
0.0535688
0.0526986
0.0585254
0.0579601
0.0573723
0.0567752
0.0613991
0.0609809
0.0605632
0.0601516
0.0638558
0.0635528
0.0632598
0.0629797
0.0659302
0.0657106
0.0655053
0.0653171
0.0676317
0.067462
0.067314
0.0671886
0.0689434
0.0688059
0.0686868
0.0685884
0.0697349
0.0696298
0.0695425
0.0694389
0.0698252
0.0697189
0.0696124
0.0694857
0.069514
0.0694104
0.0692891
0.0691414
0.0689127
0.0688012
0.0686659
0.068505
0.0681199
0.068
0.0678563
0.0676881
0.0672439
0.0671212
0.0669747
0.0668037
0.0663483
0.066231
0.0660893
0.0659225
0.0654553
0.0653518
0.065223
0.0650683
0.0645613
0.0644787
0.0643696
0.0642342
0.063653
0.0635962
0.0635119
0.0634006
0.0627199
0.0626917
0.0626349
0.0625506
0.061761
0.0617621
0.0617338
0.0616776
0.0607868
0.0608168
0.0608166
0.060788
0.0598188
0.0598763
0.059903
0.0599009
0.0588866
0.0589697
0.0590216
0.0590442
0.0580248
0.0581315
0.0582067
0.0582523
0.0572709
0.0573992
0.0574957
0.0575622
0.0566639
0.0568116
0.0569273
0.0570124
0.0562439
0.0564086
0.0565409
0.0566421
0.056052
0.0562309
0.0563769
0.0564912
0.0561312
0.056321
0.0564773
0.0566008
0.0565289
0.0567254
0.0568874
0.0570156
0.0572986
0.0574965
0.0576587
0.0577856
0.0585028
0.0586956
0.0588511
0.0589696
0.0602148
0.0603947
0.0605356
0.0606372
0.0625212
0.0626796
0.062797
0.0628727
0.0655214
0.0656499
0.0657358
0.0657773
0.0693275
0.06942
0.0694687
0.069471
0.0740611
0.0741157
0.0741278
0.0740929
0.0798491
0.0798715
0.0798559
0.0797969
0.0868198
0.0868228
0.0867985
0.0867416
0.0951025
0.0951011
0.0950896
0.0950659
0.0208917
0.0243324
0.0285446
0.0322579
0.0348685
0.0362784
0.036987
0.0369654
0.0361693
0.0350176
0.0337666
0.03238
0.0309926
0.0291013
0.0270498
0.0245441
0.0210587
0.0154882
0.00707719
0.0362148
0.0352644
0.0361131
0.0374808
0.0389855
0.0403435
0.0409259
0.0405811
0.0396322
0.0384259
0.0370788
0.0355984
0.0339981
0.032078
0.029801
0.0269346
0.0226051
0.0153316
0.00653703
0.0452721
0.0434585
0.0429535
0.0430423
0.0434663
0.0440534
0.0442614
0.0437814
0.0428579
0.0416659
0.0402607
0.0386373
0.0368069
0.034744
0.0323127
0.0290346
0.0241372
0.0165332
0.0069707
0.0512315
0.0496634
0.0487331
0.0481922
0.0478511
0.0476218
0.0473366
0.0467265
0.0458068
0.0446388
0.0432139
0.041521
0.0395611
0.0373538
0.0346744
0.0310956
0.026163
0.0191718
0.00861524
0.0557835
0.0545886
0.0536091
0.0527756
0.052021
0.0513056
0.0505449
0.0496566
0.0486175
0.0473866
0.0459153
0.0441864
0.0421731
0.0398147
0.0369011
0.0331316
0.0282978
0.0218201
0.0101686
0.0594782
0.0586066
0.0577514
0.0568572
0.0559197
0.0549196
0.0538118
0.0526071
0.0513299
0.0499427
0.0483729
0.046565
0.0444493
0.0419178
0.0387935
0.034891
0.030073
0.0236398
0.0113157
0.0625311
0.0619305
0.0612514
0.0604165
0.0594149
0.0582361
0.0568757
0.0553945
0.0538652
0.05228
0.0505633
0.0486265
0.0463604
0.0436353
0.0403188
0.0362976
0.0314145
0.0248309
0.0118449
0.0650296
0.0646522
0.0641407
0.0633971
0.0623843
0.0610856
0.0595344
0.057838
0.0561024
0.0543345
0.0524554
0.050366
0.0479331
0.0449997
0.041474
0.0373117
0.0323015
0.0254552
0.011819
0.0670119
0.0667987
0.0664267
0.0657765
0.0647756
0.0633826
0.0616658
0.0597988
0.0579288
0.056042
0.054023
0.0517943
0.0492202
0.0460729
0.0422983
0.0379618
0.0328222
0.0258158
0.0117521
0.0684664
0.0683488
0.0680621
0.067509
0.0665592
0.0650742
0.0631695
0.061153
0.0592591
0.0573823
0.055275
0.0529767
0.0503664
0.0469381
0.0428482
0.0384014
0.0332638
0.0264718
0.013357
0.0692453
0.0689623
0.0685904
0.0680726
0.0672093
0.0657544
0.063804
0.0617598
0.059841
0.0578362
0.0555504
0.0531041
0.0503753
0.0470419
0.0431294
0.0387094
0.0335623
0.0268813
0.0137138
0.0692367
0.0688262
0.0683279
0.0676653
0.0666813
0.0652708
0.0635172
0.0616385
0.0597253
0.0577115
0.055504
0.0530995
0.0503245
0.0469078
0.0429982
0.0386879
0.0336125
0.0268947
0.0138098
0.0688469
0.06834
0.0677377
0.0669466
0.065842
0.0644101
0.0627666
0.0610584
0.059261
0.0572855
0.0549915
0.0523996
0.0495321
0.0461941
0.0423805
0.0380291
0.0327255
0.0254291
0.0123837
0.0681886
0.0676224
0.0669316
0.0660376
0.0648582
0.0634057
0.0617966
0.0601468
0.0584092
0.0564531
0.0540992
0.0513828
0.0483928
0.0450491
0.0411928
0.0365718
0.0308022
0.0231003
0.0106367
0.0673616
0.0667598
0.0660078
0.0650509
0.0638404
0.0623869
0.0607705
0.0590717
0.057262
0.055227
0.0528253
0.0500523
0.0469825
0.0435329
0.0395203
0.0346687
0.0285731
0.0206175
0.00922976
0.0664745
0.06586
0.0650828
0.0641057
0.062896
0.0614546
0.0598229
0.0580467
0.0561159
0.0539563
0.0514785
0.0486593
0.0455163
0.041972
0.0378475
0.0328816
0.0267477
0.01897
0.00841904
0.0656017
0.0649971
0.0642259
0.0632613
0.0620773
0.0606637
0.0590337
0.0572073
0.0551841
0.0529266
0.0503864
0.0475368
0.0443586
0.0407766
0.0366432
0.0317505
0.0258244
0.0183777
0.00814822
0.0647688
0.064195
0.0634539
0.0625249
0.0613845
0.0600156
0.0584145
0.0565861
0.0545322
0.0522386
0.0496825
0.0468414
0.0436841
0.0401438
0.0361059
0.0314022
0.0257692
0.0186259
0.00827046
0.0639672
0.0634407
0.0627463
0.0618675
0.0607826
0.059472
0.057924
0.0561358
0.0541084
0.0518386
0.0493168
0.0465262
0.0434366
0.0399921
0.0361003
0.0316118
0.0262491
0.0193257
0.00861294
0.0631742
0.0627057
0.0620676
0.0612467
0.0602235
0.0589788
0.0574986
0.0557766
0.0538122
0.0516055
0.0491519
0.0464392
0.0434413
0.0401112
0.0363689
0.0320721
0.0269286
0.0201755
0.00906597
0.0623691
0.0619634
0.0613857
0.060625
0.0596649
0.0584881
0.0570809
0.0554359
0.0535507
0.0514249
0.0490552
0.0464311
0.0435302
0.0403114
0.0367015
0.0325615
0.0275907
0.0209694
0.0094982
0.061542
0.0611996
0.0606822
0.0599809
0.0590821
0.0579711
0.0566359
0.0550686
0.0532656
0.0512249
0.0489421
0.0464073
0.0436
0.0404827
0.0369858
0.0329719
0.0281332
0.0215967
0.009845
0.0606975
0.0604157
0.0599561
0.0593114
0.0584705
0.0574214
0.056154
0.0546606
0.0529367
0.0509783
0.0487799
0.046331
0.0436119
0.0405867
0.0371879
0.0332784
0.0285416
0.0220669
0.0101096
0.0598531
0.0596278
0.0592221
0.0586301
0.0578432
0.0568516
0.055647
0.0542223
0.0525722
0.0506916
0.0485732
0.0462056
0.0435693
0.040629
0.0373175
0.0334967
0.0288436
0.0224221
0.01031
0.0590363
0.0588625
0.0585063
0.0579631
0.057226
0.0562877
0.055141
0.0537798
0.0521983
0.0503902
0.0483469
0.0460562
0.0434977
0.0406357
0.0374028
0.033659
0.0290768
0.0227018
0.0104664
0.0582807
0.0581533
0.057842
0.0573432
0.0566519
0.0557625
0.0546693
0.0533666
0.0518486
0.0501079
0.048135
0.0459161
0.0434298
0.0406395
0.0374764
0.0337985
0.0292747
0.0229369
0.0105942
0.0576235
0.0575369
0.0572656
0.0568066
0.0561567
0.0553118
0.0542674
0.0530183
0.0515587
0.0498802
0.0479722
0.0458196
0.0433993
0.040673
0.03757
0.0339464
0.0294675
0.0231543
0.0107084
0.0571026
0.0570512
0.0568142
0.0563896
0.0557758
0.0549702
0.0539693
0.0527686
0.0513618
0.0497399
0.0478912
0.0457986
0.0434374
0.0407667
0.0377136
0.0341313
0.0296825
0.0233786
0.0108242
0.0567569
0.0567337
0.0565241
0.0561272
0.0555429
0.05477
0.0538062
0.0526475
0.0512874
0.0497162
0.0479207
0.0458821
0.0435729
0.0409495
0.0379357
0.0343819
0.0299476
0.0236351
0.0109638
0.0566252
0.0566224
0.0564315
0.0560534
0.0554897
0.0547407
0.0538055
0.052681
0.0513605
0.0498338
0.0480861
0.0460962
0.0438334
0.0412501
0.0382661
0.0347274
0.0302887
0.0239415
0.0111322
0.0567476
0.0567553
0.0565723
0.0562015
0.0556462
0.0549093
0.0539916
0.0528914
0.0516022
0.0501135
0.0484087
0.0464638
0.044244
0.0416964
0.0387348
0.0351989
0.0307366
0.0243245
0.0113313
0.0571672
0.0571728
0.0569836
0.0566043
0.0560412
0.0553001
0.054385
0.053296
0.0520282
0.0505706
0.0489052
0.0470046
0.0448287
0.0423175
0.0393758
0.035834
0.0313288
0.024817
0.0115731
0.0579319
0.0579195
0.0577053
0.0572965
0.0567029
0.0559351
0.0550018
0.053907
0.052648
0.0512147
0.0495873
0.0477349
0.0456107
0.0431452
0.0402301
0.0366804
0.032115
0.0254627
0.011882
0.0590979
0.0590473
0.0587838
0.0583167
0.0576609
0.0568345
0.0558541
0.0547299
0.0534639
0.0520474
0.0504599
0.0486664
0.0466128
0.0442167
0.0413507
0.0378044
0.0331664
0.0263238
0.0122849
0.060733
0.0606194
0.060275
0.0597103
0.0589473
0.0580165
0.0569477
0.0557621
0.0544683
0.0530607
0.0515188
0.0498047
0.0478568
0.0455773
0.0428111
0.0393059
0.034596
0.0275004
0.0128303
0.06292
0.0627153
0.0622504
0.0615343
0.0605987
0.0594966
0.0582807
0.0569894
0.0556405
0.0542328
0.0527473
0.0511459
0.0493626
0.0472842
0.0447188
0.0413456
0.0365966
0.0291686
0.0135939
0.0657614
0.0654371
0.0648049
0.0638643
0.0626599
0.0612859
0.0598384
0.0583813
0.0569425
0.0555242
0.0541112
0.0526711
0.0511431
0.0494076
0.0472317
0.0441862
0.0395088
0.0316582
0.0147294
0.0693834
0.0689191
0.0680718
0.0668102
0.0651894
0.0633875
0.0615867
0.0598848
0.0583135
0.0568731
0.0555529
0.0543372
0.0531921
0.0520211
0.0505667
0.0482414
0.0439154
0.0355852
0.016539
0.0739392
0.0733398
0.0722487
0.0705511
0.0682772
0.0657913
0.0634608
0.0614161
0.0596659
0.0581912
0.0569843
0.0560621
0.0554582
0.055169
0.0549861
0.0541029
0.0507127
0.0420377
0.0196827
0.0796065
0.0789328
0.0776411
0.0754175
0.0720898
0.0684614
0.0653469
0.0628517
0.0608832
0.0593643
0.0582826
0.0577073
0.0578025
0.0588041
0.0607786
0.0625069
0.0609936
0.0527158
0.0257438
0.0865734
0.0859794
0.0847124
0.0820723
0.0769136
0.0712719
0.0670451
0.0640214
0.0618255
0.06026
0.0592944
0.0590651
0.0599462
0.0627106
0.0685069
0.0742492
0.0754264
0.0697502
0.0399562
0.094996
0.0947327
0.094046
0.0918687
0.0826302
0.0736788
0.0681898
0.0647116
0.06235
0.0607515
0.0598599
0.0598711
0.061409
0.0663069
0.0811313
0.0900594
0.0925904
0.0932213
0.0869173
)
;

boundaryField
{
    leftWall
    {
        type            kqRWallFunction;
        value           nonuniform List<scalar> 
50
(
0.00075026
0.00179272
0.00253891
0.00323796
0.00395303
0.00470745
0.00550724
0.00627966
0.00746745
0.00907834
0.0104647
0.0118525
0.0132019
0.0143597
0.0156547
0.0169347
0.0173722
0.0170958
0.0165867
0.0175461
0.0188987
0.0191012
0.0184019
0.0173414
0.0160998
0.0147725
0.0134516
0.0122335
0.0112467
0.010494
0.00992499
0.00949534
0.00915766
0.00887012
0.00860213
0.00833651
0.00806621
0.00779188
0.00751774
0.00725038
0.00699669
0.00676611
0.00657609
0.00647282
0.00658771
0.00729631
0.00959662
0.0158542
0.0314535
0.0855171
)
;
    }
    rightWall
    {
        type            kqRWallFunction;
        value           nonuniform List<scalar> 
50
(
0.00088282
0.00235565
0.00371625
0.00550606
0.00826836
0.00883094
0.00866981
0.00822277
0.00707719
0.00653703
0.0069707
0.00861524
0.0101686
0.0113157
0.0118449
0.011819
0.0117521
0.013357
0.0137138
0.0138098
0.0123837
0.0106367
0.00922976
0.00841904
0.00814822
0.00827046
0.00861294
0.00906597
0.0094982
0.009845
0.0101096
0.01031
0.0104664
0.0105942
0.0107084
0.0108242
0.0109638
0.0111322
0.0113313
0.0115731
0.011882
0.0122849
0.0128303
0.0135939
0.0147294
0.016539
0.0196827
0.0257438
0.0399562
0.0869173
)
;
    }
    lowerWall
    {
        type            kqRWallFunction;
        value           nonuniform List<scalar> 
62
(
0.00075026
0.00228557
0.00366964
0.00483579
0.00581117
0.00662688
0.00730607
0.00786414
0.00831449
0.00867081
0.00894124
0.00912925
0.00923357
0.0092479
0.00916418
0.00897966
0.0086907
0.0082807
0.00770128
0.00689155
0.00574715
0.0040865
0.00182448
0.00182448
0.00427011
0.00607233
0.00786366
0.00990982
0.012687
0.0170935
0.0250131
0.0295448
0.0259985
0.0236641
0.0213192
0.00190198
0.00393798
0.00512494
0.0059078
0.00624341
0.00638049
0.00713962
0.00974693
0.00190198
0.00395841
0.00541032
0.00664191
0.00774918
0.00806239
0.00815649
0.00840323
0.00836075
0.00802551
0.00732591
0.00654992
0.00624839
0.00590897
0.00519135
0.00466114
0.00385315
0.00269447
0.00088282
)
;
    }
    atmosphere
    {
        type            inletOutlet;
        inletValue      uniform 0.1;
        value           nonuniform List<scalar> 
46
(
0.1
0.1
0.1
0.062413
0.0498422
0.0436571
0.0416003
0.0424074
0.0453454
0.0501247
0.0568202
0.0657836
0.0768693
0.0839727
0.1
0.1
0.1
0.1
0.1
0.1
0.1
0.1
0.1
0.1
0.1
0.1
0.1
0.1
0.1
0.1
0.1
0.0826302
0.0736788
0.0681898
0.0647116
0.06235
0.0607515
0.0598599
0.0598711
0.061409
0.0663069
0.1
0.1
0.1
0.1
0.1
)
;
    }
    defaultFaces
    {
        type            empty;
    }
}


// ************************************************************************* //
