/*--------------------------------*- C++ -*----------------------------------*\
  =========                 |
  \\      /  F ield         | OpenFOAM: The Open Source CFD Toolbox
   \\    /   O peration     | Website:  https://openfoam.org
    \\  /    A nd           | Version:  13
     \\/     M anipulation  |
\*---------------------------------------------------------------------------*/
FoamFile
{
    format      ascii;
    class       volScalarField;
    location    "2.7";
    object      nut;
}
// * * * * * * * * * * * * * * * * * * * * * * * * * * * * * * * * * * * * * //

dimensions      [0 2 -1 0 0 0 0];

internalField   nonuniform List<scalar> 
2268
(
1.85501e-05
3.23686e-05
4.08809e-05
4.68221e-05
5.12476e-05
5.46604e-05
5.73317e-05
5.94209e-05
6.10403e-05
6.22856e-05
6.32161e-05
6.38607e-05
6.42221e-05
6.42833e-05
6.40285e-05
6.34521e-05
6.25626e-05
6.12701e-05
5.9269e-05
5.62149e-05
5.13683e-05
4.31141e-05
2.87589e-05
6.05624e-05
0.000270465
0.000388357
0.000464203
0.000517566
0.000556796
0.00058612
0.000607759
0.000623349
0.000634845
0.000643544
0.000650053
0.000654345
0.000655995
0.000654788
0.000650947
0.000644182
0.000631923
0.000610414
0.00057277
0.000502723
0.000362
9.26729e-05
7.20793e-05
0.000470575
0.000734163
0.000912408
0.00103936
0.00113218
0.00120063
0.00125052
0.00128614
0.00131174
0.00133024
0.00134316
0.0013507
0.00135223
0.00134729
0.00133582
0.00131643
0.00128326
0.00122624
0.00112622
0.000944275
0.000611781
0.000110562
8.11339e-05
0.000609744
0.00100375
0.00128197
0.00148515
0.00163563
0.00174726
0.00182907
0.00188787
0.00192986
0.00195948
0.00197919
0.00198963
0.0019903
0.0019807
0.00196027
0.00192633
0.00186972
0.001774
0.00160793
0.0013136
0.000807902
0.000126239
8.93143e-05
0.000711236
0.00121327
0.00158036
0.00185511
0.00206204
0.00221744
0.00233262
0.00241639
0.0024765
0.00251861
0.00254611
0.00256022
0.0025608
0.00254745
0.00251925
0.00247223
0.00239443
0.00226392
0.00203887
0.00164445
0.00098374
0.00014249
9.74183e-05
0.00079148
0.00137908
0.00182234
0.00216151
0.00242125
0.00261889
0.00276724
0.00287659
0.00295582
0.00301155
0.00304799
0.003067
0.00306896
0.00305367
0.00302006
0.00296302
0.0028687
0.00271102
0.0024396
0.00196265
0.0011581
0.000162013
0.00010532
0.000856172
0.00151249
0.00202046
0.00241657
0.00272444
0.0029616
0.00314177
0.00327635
0.00337502
0.0034451
0.0034915
0.00351674
0.00352175
0.00350663
0.00347034
0.00340715
0.00330222
0.00312716
0.00282599
0.00229123
0.00135325
0.000188008
0.000111805
0.000909161
0.00162213
0.00218494
0.00263065
0.0029814
0.00325449
0.00346425
0.0036231
0.00374104
0.0038259
0.00388313
0.00391589
0.00392561
0.00391277
0.0038765
0.00381136
0.00370215
0.00352018
0.00320857
0.00265343
0.00161624
0.000225584
2.95706e-05
4.18548e-05
4.90984e-05
5.46156e-05
5.91569e-05
5.99369e-05
6.06944e-05
6.13817e-05
6.08797e-05
5.966e-05
5.6821e-05
5.37383e-05
5.27984e-05
5.11567e-05
4.80912e-05
4.56488e-05
4.15115e-05
3.47453e-05
1.96912e-05
9.83925e-05
0.000251537
0.000362444
0.000461425
0.000527255
0.000561276
0.000586697
0.000594116
0.000585178
0.000569448
0.000551243
0.000513709
0.000517905
0.000486817
0.000464117
0.000434408
0.000382711
0.000286343
7.6256e-05
0.000111502
0.000436129
0.00065565
0.000846467
0.000986337
0.00107172
0.00113453
0.00116137
0.0011505
0.00111588
0.00108352
0.0010397
0.00101057
0.000949588
0.000897256
0.000825297
0.000702672
0.000485599
9.61583e-05
0.000119694
0.00056048
0.000871552
0.00114193
0.00134509
0.00148115
0.00158354
0.00163296
0.0016253
0.00157732
0.00153598
0.00148631
0.00142816
0.00134097
0.00126116
0.001146
0.000955517
0.000643263
0.00011758
0.000123736
0.000627486
0.00101835
0.00136537
0.00163381
0.00181967
0.00195718
0.00202709
0.00202403
0.00197102
0.00192103
0.001861
0.0017808
0.00167112
0.00156943
0.00141481
0.00115934
0.00076392
0.000143761
0.000123605
0.000645691
0.00111066
0.00153611
0.00187474
0.00211428
0.00228221
0.00236829
0.00237132
0.00231954
0.00226188
0.00218588
0.00208233
0.00195449
0.00183673
0.0016389
0.00132433
0.0008454
0.000148161
0.000129129
0.000635921
0.00117317
0.00167449
0.00208117
0.00237696
0.00257413
0.00267486
0.00268483
0.00263635
0.00257105
0.002477
0.00233937
0.0022104
0.00206961
0.00182832
0.00145645
0.000895248
0.000147068
0.000150185
0.000650129
0.00124911
0.00181147
0.00227269
0.00261609
0.00284154
0.00295571
0.00297244
0.00292642
0.00285356
0.0027436
0.00258421
0.00244735
0.00227682
0.00199351
0.00156194
0.000920802
0.000143508
0.000121516
0.000986566
0.00177228
0.00240621
0.00291812
0.00332742
0.0036505
0.00390224
0.00409597
0.00424243
0.00434996
0.00442469
0.00447057
0.00449003
0.00448409
0.00445127
0.00438676
0.00427721
0.00409614
0.00379366
0.003285
0.00244645
0.00126232
0.000133582
0.00107759
0.00194051
0.00264706
0.0032261
0.00369465
0.00406853
0.00436297
0.0045919
0.00476708
0.00489801
0.00499202
0.0050545
0.00508918
0.00509804
0.00508066
0.00503179
0.0049408
0.00478984
0.00454849
0.00416951
0.00359228
0.00278429
0.00014228
0.00113738
0.00207796
0.00285279
0.00348823
0.00400439
0.00441893
0.00474791
0.00500583
0.0052052
0.00535642
0.00546781
0.00554569
0.0055946
0.00561733
0.00561448
0.00558156
0.00551196
0.00539427
0.00521111
0.00493827
0.00455053
0.00404743
0.000150823
0.00119605
0.00220257
0.00303565
0.00371817
0.00427429
0.00472336
0.00508136
0.00536355
0.00558344
0.00575226
0.00587912
0.00597099
0.00603293
0.0060683
0.00607819
0.00606025
0.00601074
0.00592229
0.00578521
0.00558742
0.00531947
0.00499001
0.000159007
0.00127532
0.00233532
0.00321097
0.00392853
0.00451596
0.00499336
0.00537547
0.00567823
0.00591578
0.00609997
0.00624044
0.00634466
0.00641803
0.00646445
0.00648503
0.00648004
0.00644759
0.00638307
0.00628127
0.00613651
0.00594652
0.00572094
0.000165689
0.00134384
0.00247204
0.00338261
0.00412512
0.0047343
0.00523186
0.00563376
0.0059545
0.0062079
0.0064061
0.00655892
0.00667431
0.00675802
0.00681376
0.00684414
0.00685051
0.00683254
0.00678797
0.00671416
0.00660896
0.0064733
0.00631555
0.000173475
0.00143933
0.00259989
0.00353094
0.00429137
0.00491805
0.00543417
0.00585385
0.00619182
0.00646091
0.00667282
0.00683775
0.0069638
0.00705711
0.0071221
0.00716193
0.00717873
0.00717351
0.00714578
0.00709454
0.00701937
0.00692227
0.00680981
0.000181183
0.00149785
0.00269223
0.0036449
0.00442423
0.00506822
0.00560028
0.00603737
0.00639165
0.00667564
0.00690112
0.00707823
0.00721525
0.00731862
0.00739311
0.0074423
0.00746894
0.00747504
0.00746139
0.00742806
0.00737532
0.00730524
0.00722289
0.000182484
0.00152098
0.00274176
0.00372235
0.00452665
0.00519073
0.00573912
0.00619047
0.00655915
0.00685627
0.00709417
0.00728299
0.007431
0.00754458
0.00762861
0.0076869
0.0077227
0.00773875
0.00773683
0.00771762
0.0076815
0.00763005
0.00756727
0.000183946
0.00148077
0.00273219
0.0037605
0.00460194
0.00529188
0.00585753
0.00632094
0.00670009
0.0070073
0.00725549
0.00745475
0.00761299
0.0077363
0.00782939
0.00789612
0.00794006
0.00796447
0.00797169
0.00796289
0.00793878
0.00790047
0.0078513
0.000178442
0.00136927
0.00268263
0.00377929
0.00466391
0.00537818
0.00595732
0.00642834
0.00681232
0.00712554
0.0073811
0.00758874
0.00775585
0.00788804
0.00798969
0.00806444
0.00811588
0.00814753
0.00816226
0.00816197
0.00814783
0.00812071
0.00808197
0.000181545
0.00143636
0.00274311
0.00384447
0.00473724
0.00545801
0.00603996
0.00651173
0.00689634
0.00721159
0.00747068
0.00768287
0.00785527
0.0079935
0.00810197
0.00818438
0.00824414
0.00828455
0.00830842
0.0083176
0.00831329
0.00829599
0.00826583
0.000188584
0.00150806
0.00282915
0.00391663
0.00479878
0.00551339
0.00609227
0.00656267
0.00694708
0.0072633
0.00752472
0.0077406
0.00791781
0.00806194
0.00817742
0.00826794
0.0083367
0.00838663
0.00842015
0.00843894
0.00844386
0.00843518
0.00841246
0.000190675
0.0015392
0.00287456
0.00395509
0.0048265
0.00553288
0.00610816
0.00657814
0.00696409
0.00728302
0.0075481
0.00776874
0.00795183
0.00810289
0.00822628
0.00832552
0.00840359
0.00846301
0.0085058
0.00853333
0.00854631
0.00854484
0.00852834
0.000188461
0.00154501
0.0028803
0.00395167
0.00481229
0.00551207
0.00608565
0.00655792
0.00694839
0.00727293
0.00754402
0.00777136
0.007962
0.00812131
0.00825352
0.00836196
0.00844937
0.00851795
0.00856941
0.00860488
0.00862497
0.00862976
0.00861857
0.000183959
0.00152751
0.0028507
0.00390922
0.00475967
0.00545436
0.00602833
0.00650538
0.00690314
0.00723601
0.00751568
0.00775188
0.00795172
0.00812049
0.00826227
0.00838026
0.008477
0.0085545
0.00861424
0.00865722
0.00868399
0.00869463
0.00868849
0.000178154
0.00149397
0.00279379
0.00383544
0.004676
0.00536708
0.005943
0.0064262
0.00683295
0.0071761
0.00746655
0.00771352
0.00792399
0.00810321
0.00825518
0.00838304
0.00848923
0.00857562
0.00864357
0.00869401
0.00872746
0.00874401
0.00874311
0.000171439
0.00145029
0.00271788
0.00373918
0.00456962
0.00525803
0.00583682
0.00632711
0.00674365
0.00709821
0.00740074
0.00765971
0.00788182
0.00807222
0.00823489
0.00837295
0.00848878
0.00858421
0.00866054
0.00871865
0.00875907
0.00878188
0.00878666
0.000164203
0.00140068
0.00263015
0.00362879
0.00444881
0.00513506
0.00571726
0.00621492
0.00664154
0.00700781
0.0073228
0.00759424
0.00782846
0.00803045
0.00820415
0.00835266
0.00847837
0.00858306
0.00866804
0.00873415
0.00878191
0.00881144
0.00882244
0.000156953
0.00134773
0.00253622
0.00351169
0.00432147
0.00500581
0.00559149
0.00609628
0.00653264
0.00691024
0.00723737
0.00752112
0.0077674
0.00798101
0.00816583
0.00832491
0.00846063
0.00857478
0.00866863
0.00874303
0.00879848
0.00883514
0.00885282
0.000150576
0.00128902
0.00243939
0.00339453
0.0041949
0.00487737
0.00546615
0.00597732
0.00642246
0.00681046
0.00714888
0.00744426
0.00770211
0.00792703
0.00812277
0.00829232
0.00843804
0.00856169
0.00866452
0.00874738
0.00881073
0.00885479
0.00887946
0.000145328
0.00123632
0.0023502
0.00328448
0.00407551
0.00475578
0.00534696
0.00586325
0.00631578
0.00671281
0.00706127
0.00736723
0.00763584
0.00787146
0.00807767
0.00825739
0.0084129
0.00854592
0.00865766
0.00874894
0.00882023
0.00887176
0.00890351
0.00014113
0.00119434
0.00227601
0.00319093
0.00397172
0.00464761
0.00523848
0.00575797
0.00621638
0.00662078
0.0069778
0.00729309
0.00757145
0.00781695
0.00803301
0.0082224
0.0083873
0.00852936
0.00864975
0.00874924
0.00882827
0.0088871
0.0089258
0.00013784
0.00116357
0.00221862
0.00311595
0.00388611
0.00455632
0.00514519
0.00566563
0.00612714
0.0065369
0.00690094
0.00722434
0.00751133
0.00776579
0.00799094
0.00818937
0.00836311
0.00851371
0.00864228
0.00874953
0.00883591
0.00890167
0.00894694
0.000135223
0.00114178
0.00217604
0.00305816
0.003818
0.00448179
0.00506737
0.00558718
0.00605032
0.00646374
0.00683304
0.00716291
0.00745736
0.00771985
0.00795331
0.00816005
0.00834192
0.00850038
0.00863645
0.00875083
0.00884392
0.00891601
0.00896729
0.000133007
0.00112577
0.00214433
0.00301395
0.00376451
0.00442188
0.00500364
0.00552198
0.00598577
0.00640175
0.00677524
0.0071106
0.00741147
0.00768099
0.00792174
0.00813584
0.00832497
0.00849042
0.00863313
0.00875377
0.00885273
0.00893032
0.00898683
0.000130971
0.00111251
0.00211918
0.00297896
0.00372177
0.00437347
0.00495162
0.00546838
0.00593252
0.0063506
0.00672773
0.00706793
0.00737452
0.00765027
0.00789746
0.00811796
0.00831328
0.0084846
0.0086328
0.00875852
0.00886222
0.00894426
0.00900502
0.000128962
0.0010998
0.002097
0.00294917
0.00368592
0.00433316
0.00490854
0.00542429
0.00588913
0.00630949
0.00669022
0.00703504
0.00734689
0.00762819
0.00788094
0.00810677
0.00830705
0.0084829
0.00863519
0.00876461
0.00887169
0.00895692
0.00902075
0.00012691
0.0010863
0.0020752
0.00292138
0.00365364
0.00429784
0.00487172
0.00538756
0.00585403
0.00627737
0.00666213
0.00701165
0.00732849
0.0076147
0.00787201
0.0081019
0.00830566
0.00848442
0.00863914
0.00877063
0.00887955
0.00896653
0.00903215
0.000124796
0.00107142
0.0020522
0.00289332
0.00362236
0.00426493
0.00483881
0.00535624
0.00582574
0.0062532
0.00664273
0.00699723
0.00731878
0.00760911
0.00786975
0.0081021
0.00830752
0.00848728
0.00864252
0.00877425
0.00888334
0.00897059
0.0090367
0.000122641
0.00105503
0.00202715
0.00286349
0.00359016
0.00423242
0.00480794
0.00532877
0.00580301
0.00623602
0.00663124
0.00699093
0.0073167
0.00761001
0.00787231
0.00810513
0.00831006
0.00848863
0.00864232
0.0087724
0.00888
0.00896607
0.00903148
0.000120489
0.00103735
0.00199977
0.00283102
0.00355577
0.00419888
0.00477777
0.00530403
0.00578501
0.00622511
0.00662681
0.00699158
0.0073206
0.00761518
0.00787698
0.00810787
0.00830989
0.00848501
0.00863509
0.00876176
0.00886637
0.00895006
0.00901377
0.0001184
0.00101894
0.00197042
0.00279573
0.00351851
0.00416343
0.00474751
0.00528146
0.00577131
0.00621993
0.00662849
0.0069976
0.00732816
0.00762169
0.00788038
0.00810676
0.00830347
0.00847306
0.0086178
0.00873963
0.00884013
0.00892056
0.00898192
0.000116468
0.00100117
0.00194056
0.00275829
0.00347834
0.00412576
0.00471697
0.00526108
0.0057619
0.00622008
0.00663514
0.00700696
0.0073366
0.00762633
0.00787927
0.00809881
0.00828833
0.00845088
0.00858913
0.00870525
0.008801
0.00887768
0.00893629
0.000114888
0.000987183
0.00191356
0.0027205
0.00343586
0.00408609
0.00468652
0.00524343
0.00575713
0.00622519
0.00664539
0.00701743
0.00734334
0.00762677
0.00787203
0.0080834
0.00826482
0.00841973
0.00855106
0.00866117
0.00875188
0.00882456
0.00888017
0.000114149
0.000983728
0.00189535
0.00268564
0.00339274
0.00404557
0.00465735
0.00522972
0.00575772
0.006235
0.00665803
0.00702754
0.00734759
0.00762365
0.00786107
0.00806454
0.0082382
0.00838571
0.00851019
0.00861418
0.00869965
0.008768
0.00882021
0.00011555
0.00100227
0.00189614
0.00266196
0.00335502
0.00400834
0.00463251
0.00522222
0.0057649
0.00624969
0.00667297
0.00703831
0.00735277
0.00762332
0.00785532
0.00805291
0.00822
0.00836049
0.00847795
0.00857532
0.00865485
0.00871808
0.00876605
0.000122273
0.00105846
0.00194257
0.00267725
0.00334294
0.00398657
0.00461886
0.00522471
0.00578053
0.00627032
0.00669242
0.00705526
0.0073689
0.00763998
0.00787171
0.00806629
0.0082275
0.00836024
0.00846923
0.0085583
0.00863021
0.0086868
0.00872911
0.000140599
0.00118358
0.00210985
0.00279986
0.00340095
0.00400382
0.00462727
0.00524164
0.00580618
0.00629842
0.00672095
0.00708878
0.00741306
0.00769557
0.00793408
0.00812738
0.0082808
0.00840236
0.00849922
0.00857664
0.00863813
0.00868577
0.00872067
0.000180442
0.0014558
0.0025405
0.00312646
0.00358175
0.00408446
0.00466641
0.00527416
0.0058404
0.0063336
0.00676256
0.00715045
0.00750591
0.00781557
0.00806957
0.00825932
0.00839796
0.00850096
0.00857948
0.00864045
0.00868789
0.008724
0.00874976
0.000253565
0.00204338
0.00352804
0.0037421
0.00389641
0.00422414
0.00472922
0.00531431
0.00587564
0.00636984
0.00681353
0.00724187
0.00766061
0.00801653
0.00830552
0.008481
0.00858971
0.00866246
0.00871468
0.00875388
0.00878375
0.0088061
0.00882161
0.000417243
0.00357727
0.00604215
0.00464896
0.0042424
0.00435769
0.00478302
0.00534369
0.00589877
0.00639423
0.00685392
0.00733039
0.0078417
0.00825506
0.00867982
0.00880435
0.00885498
0.0088828
0.00890121
0.00891457
0.00892459
0.00893199
0.00893702
0.000241691
0.000226999
0.000218182
0.000207043
0.00204397
0.00184253
0.00173889
0.00167967
0.00365288
0.00344926
0.00329777
0.00318407
0.00474028
0.00459114
0.00446169
0.00435159
0.00555061
0.00544496
0.00534734
0.00525922
0.00619595
0.00612053
0.00604864
0.00598147
0.00672355
0.00666847
0.00661486
0.00656349
0.00715836
0.00711652
0.00707496
0.00703418
0.00751636
0.00748272
0.00744855
0.00741409
0.00780937
0.00778073
0.00775077
0.00771956
0.00804611
0.00802104
0.0079941
0.00796482
0.00823468
0.00821224
0.00818716
0.00815911
0.00838565
0.00836552
0.0083421
0.00831514
0.00850505
0.00848674
0.00846471
0.00843873
0.00859829
0.00858157
0.00856083
0.00853587
0.00867118
0.00865607
0.00863674
0.00861294
0.00872902
0.00871574
0.00869807
0.00867577
0.00877622
0.00876507
0.00874939
0.008729
0.00881609
0.0088074
0.00879409
0.00877601
0.00885098
0.00884502
0.00883438
0.00881897
0.00888238
0.00887937
0.00887164
0.00885914
0.00891131
0.00891135
0.00890663
0.00889717
0.00893843
0.0089415
0.0089398
0.00893337
0.00896419
0.00897017
0.00897136
0.00896784
0.00898876
0.00899743
0.00900131
0.00900049
0.00901202
0.00902307
0.00902932
0.00903089
0.00903329
0.00904633
0.00905458
0.00905816
0.00905133
0.00906591
0.00907572
0.00908087
0.00906423
0.00907985
0.00909075
0.00909702
0.00906948
0.00908565
0.00909718
0.00910416
0.00906422
0.00908053
0.00909231
0.00909963
0.00904593
0.00906204
0.00907378
0.00908119
0.00901311
0.00902881
0.00904033
0.00904766
0.00896629
0.00898146
0.00899263
0.00899979
0.00890877
0.00892326
0.00893396
0.00894082
0.00884704
0.00886061
0.00887056
0.00887685
0.00879043
0.00880264
0.00881139
0.00881662
0.0087501
0.00876032
0.00876726
0.00877082
0.00873723
0.0087449
0.00874951
0.0087509
0.00876125
0.0087661
0.00876829
0.00876761
0.00882801
0.00883035
0.00883079
0.00882907
0.00893894
0.00893954
0.0089394
0.00893842
0.000418909
0.000869047
0.00147741
0.00207614
0.00258458
0.00296848
0.00322581
0.00335743
0.00338732
0.00334679
0.00326291
0.00313549
0.00296463
0.00279519
0.00256486
0.00221104
0.00168347
0.000921097
0.000133765
0.00165568
0.0018958
0.00229351
0.0027265
0.00314288
0.0034909
0.00373172
0.00385861
0.0038892
0.00384747
0.0037515
0.00360789
0.00341747
0.00319883
0.00289362
0.0024451
0.00177064
0.000848373
0.000127829
0.00303965
0.00305477
0.0032525
0.00351943
0.00380265
0.00405348
0.00423944
0.00433744
0.00435453
0.00430219
0.00419219
0.00402976
0.00381586
0.00354493
0.00317478
0.00264156
0.00188737
0.000906357
0.000130416
0.00419797
0.00411724
0.00418302
0.00432311
0.00448457
0.00462937
0.00474118
0.00479536
0.00478665
0.00471656
0.00458933
0.00440647
0.00416415
0.00385053
0.00343021
0.00285763
0.00208698
0.00108758
0.000144703
0.00512916
0.00502599
0.00501707
0.00506575
0.00513278
0.00519194
0.00523029
0.00523224
0.00518868
0.00509328
0.00494411
0.00473874
0.00446968
0.00412227
0.00366937
0.00307233
0.00228933
0.00126651
0.000156481
0.00587861
0.00577763
0.00573065
0.00571873
0.00571782
0.00571055
0.00568695
0.00563754
0.00555395
0.0054278
0.00525278
0.00502243
0.00472678
0.00435026
0.00386885
0.00324653
0.00243175
0.0013483
0.000164783
0.00648234
0.00638974
0.00632335
0.00627266
0.00622367
0.00616559
0.00609178
0.00599646
0.00587337
0.0057144
0.0055111
0.00525425
0.00493192
0.00452789
0.00401917
0.00337003
0.00252269
0.00139777
0.000168698
0.0069678
0.00688304
0.00680513
0.00672845
0.00664497
0.00654808
0.00643393
0.00629951
0.0061404
0.00594928
0.00571702
0.00543323
0.00508474
0.00465468
0.00412086
0.0034477
0.0025762
0.00142685
0.000168794
0.00735614
0.00727435
0.00718862
0.00709387
0.00698487
0.0068579
0.00671112
0.0065437
0.00635287
0.00613184
0.00587142
0.00556158
0.00518851
0.0047346
0.00417941
0.00348833
0.00260209
0.00144132
0.000169099
0.00766547
0.00758238
0.00748825
0.00737978
0.00725266
0.00710211
0.00692781
0.00673173
0.00651324
0.00626552
0.0059789
0.00564588
0.00525196
0.00477655
0.00420652
0.00350786
0.00261335
0.00144166
0.000179801
0.00791191
0.00782396
0.00772048
0.00760025
0.00745878
0.00729002
0.00709225
0.00687029
0.00662451
0.00634822
0.00603465
0.00567937
0.00526961
0.00478807
0.004218
0.00352168
0.00263116
0.00145673
0.000180964
0.00810718
0.00801596
0.00790523
0.00777345
0.00761652
0.00742982
0.00721266
0.00696693
0.00669507
0.00639385
0.00605916
0.00568471
0.00525874
0.00476561
0.00419065
0.00350255
0.00263644
0.00147054
0.000184067
0.00826411
0.00817061
0.00805433
0.00791253
0.0077413
0.00753796
0.00730251
0.00703711
0.00674314
0.00641861
0.0060584
0.00565541
0.00520241
0.00468726
0.00409645
0.00340393
0.0025526
0.00142869
0.00017609
0.00838871
0.00829386
0.00817302
0.00802306
0.00784052
0.00762339
0.00737231
0.00708924
0.00677553
0.00642805
0.00603911
0.00560391
0.005116
0.00456853
0.00394957
0.00323678
0.00238454
0.00131184
0.000163817
0.00848707
0.00839186
0.00826806
0.0081125
0.0079221
0.00769502
0.00743141
0.00713238
0.00679846
0.00642673
0.00601019
0.00554242
0.00501889
0.00443358
0.00377899
0.00303604
0.00217006
0.00113834
0.000151819
0.00856579
0.00847152
0.00834684
0.0081886
0.00799385
0.00776063
0.00748823
0.0071766
0.00682492
0.00643046
0.00598732
0.0054895
0.00493301
0.00431369
0.00362454
0.00285194
0.00197834
0.00100594
0.000143887
0.00863092
0.0085391
0.00841572
0.00825767
0.00806203
0.00782651
0.0075496
0.00723011
0.00686613
0.00645488
0.0059915
0.00547098
0.00488972
0.00424439
0.00353004
0.00273982
0.0018708
0.000944401
0.000140441
0.00868721
0.00859941
0.00847943
0.00832424
0.0081309
0.00789684
0.0076199
0.00729805
0.00692878
0.00650911
0.00603499
0.00550231
0.00490778
0.00424857
0.00352152
0.00272411
0.00185918
0.000947147
0.000140853
0.00873804
0.00865565
0.00854088
0.00839084
0.00820256
0.00797329
0.0077005
0.00738163
0.00701387
0.00659409
0.00611874
0.00558418
0.00498718
0.0043248
0.00359411
0.00279299
0.00192219
0.000992368
0.000143739
0.00878545
0.00870957
0.00860143
0.00845825
0.00827715
0.00805529
0.00778995
0.00747832
0.00711741
0.00670398
0.00623459
0.00570563
0.00511342
0.00445411
0.0037234
0.00291658
0.00202879
0.00106003
0.000147793
0.00883051
0.00876185
0.00866124
0.00852604
0.00835347
0.00814073
0.00788499
0.00758334
0.00723264
0.00682947
0.00637022
0.00585085
0.00526677
0.00461258
0.00388157
0.00306524
0.00215259
0.00113407
0.000151598
0.00887363
0.00881252
0.00871984
0.00859313
0.00842972
0.00822686
0.00798174
0.00769133
0.00735234
0.00696107
0.00651352
0.00600493
0.00542948
0.00477988
0.00404664
0.00321723
0.002275
0.00120193
0.000154639
0.00891492
0.0088613
0.00877651
0.00865826
0.00850401
0.00831109
0.00807665
0.00779759
0.00747039
0.00709106
0.00665502
0.00615664
0.00558877
0.00494213
0.00420453
0.00335983
0.0023858
0.0012599
0.000156964
0.00895428
0.00890777
0.00883051
0.00872031
0.00857476
0.00839124
0.00816691
0.00789853
0.00758237
0.00721405
0.00678838
0.00629881
0.00573686
0.00509141
0.00434779
0.00348661
0.00248173
0.00130849
0.000158736
0.00899142
0.00895143
0.00888105
0.00877822
0.00864062
0.00846567
0.00825049
0.00799174
0.0076854
0.00732673
0.00690992
0.00642754
0.00586987
0.00522417
0.00447371
0.00359625
0.00256331
0.00134926
0.000160131
0.00902579
0.00899153
0.00892725
0.00883095
0.00870039
0.00853302
0.0083259
0.00807555
0.00777771
0.00742726
0.00701781
0.00654112
0.00598639
0.00533951
0.00458197
0.00368958
0.00263217
0.00138352
0.000161272
0.0090564
0.00902699
0.00896794
0.00887729
0.00875283
0.00859202
0.00839187
0.00814874
0.00785816
0.00751464
0.00711127
0.00663908
0.00608639
0.00543793
0.0046738
0.00376836
0.00269021
0.0014126
0.000162289
0.00908175
0.00905625
0.00900155
0.00891568
0.00879645
0.00864129
0.00844714
0.00821023
0.00792586
0.00758823
0.00718995
0.00672146
0.00617033
0.00552036
0.00475055
0.00383418
0.00273883
0.00143724
0.000163289
0.00909981
0.0090773
0.0090261
0.00894425
0.00882951
0.00867927
0.00849038
0.00825892
0.00797999
0.00764752
0.00725368
0.00678841
0.00623868
0.0055876
0.00481335
0.00388833
0.00277917
0.00145802
0.000164449
0.00910817
0.00908784
0.00903945
0.00896101
0.00885022
0.00870439
0.00852025
0.00829375
0.00801984
0.00769214
0.00730248
0.00684037
0.00629229
0.00564083
0.00486355
0.00393208
0.00281204
0.00147484
0.000165809
0.00910433
0.00908558
0.00903954
0.00896415
0.00885704
0.0087154
0.00853585
0.00831419
0.00804518
0.00772219
0.00733674
0.00687797
0.00633201
0.00568103
0.0049022
0.00396655
0.00283879
0.00148935
0.000167345
0.00908619
0.00906866
0.00902477
0.00895237
0.00884897
0.00871166
0.00853686
0.00832024
0.00805636
0.00773833
0.00735736
0.00690232
0.00635902
0.00570943
0.00493049
0.00399289
0.00286063
0.00150279
0.000169148
0.00905277
0.00903632
0.00899458
0.00892534
0.008826
0.00869344
0.00852391
0.00831287
0.00805464
0.00774208
0.00736612
0.00691537
0.00637542
0.00572809
0.00495033
0.0040128
0.00287899
0.00151615
0.000171389
0.00900486
0.00898943
0.00894994
0.00888415
0.00878938
0.00866227
0.0084988
0.00829417
0.00804239
0.00773607
0.00736593
0.00692032
0.00638464
0.00574061
0.00496524
0.00402934
0.00289619
0.00153082
0.000174243
0.00894567
0.00893102
0.00889367
0.00883151
0.00874181
0.00862094
0.00846452
0.00826731
0.008023
0.00772397
0.00736081
0.00692173
0.00639194
0.00575295
0.00498158
0.00404851
0.00291674
0.00154913
0.000178039
0.008881
0.00886644
0.00883059
0.00877174
0.00868732
0.00857333
0.0084249
0.00823617
0.00800047
0.00771005
0.00735556
0.00692533
0.00640452
0.00577427
0.00501039
0.00408184
0.00294986
0.00157574
0.000183267
0.00881924
0.00880337
0.00876751
0.00871072
0.00863103
0.00852402
0.00838413
0.00820476
0.00797876
0.00769847
0.007355
0.00693735
0.00643128
0.00581772
0.00507006
0.00415109
0.00301415
0.00161972
0.000190901
0.00877081
0.0087517
0.00871334
0.00865602
0.00857927
0.00847811
0.00834632
0.00817653
0.00796103
0.00769237
0.00736281
0.00696323
0.00648172
0.0059006
0.00518967
0.00429598
0.00314619
0.00169846
0.000202654
0.00874748
0.00872351
0.00867978
0.00861774
0.00854004
0.00844116
0.00831512
0.00815393
0.00794895
0.00769298
0.00738027
0.00700564
0.00656333
0.00604277
0.00541281
0.00458621
0.00341448
0.00184369
0.00022178
0.00876112
0.00873296
0.00868275
0.00861055
0.00852313
0.00841887
0.00829345
0.00813819
0.0079425
0.00769909
0.007405
0.00706175
0.00667675
0.00626145
0.00580246
0.00514008
0.00394324
0.00211463
0.000254835
0.00882196
0.00879527
0.00874442
0.00865863
0.00853556
0.00841334
0.00828217
0.00812914
0.00794015
0.00770721
0.00743044
0.00712048
0.00680758
0.00655851
0.00645892
0.00615035
0.00496855
0.00265011
0.000320372
0.00893499
0.00892216
0.00889271
0.00881358
0.00856009
0.00841355
0.00827783
0.00812527
0.00793973
0.00771289
0.0074472
0.00716153
0.00691364
0.00687762
0.00761836
0.0078615
0.00702394
0.00405657
0.000467697
)
;

boundaryField
{
    leftWall
    {
        type            nutkWallFunction;
        Cmu             0.09;
        kappa           0.41;
        E               9.8;
        value           nonuniform List<scalar> 
50
(
2.11771e-06
6.26834e-06
7.34389e-06
8.20309e-06
8.9825e-06
1.02847e-05
1.25013e-05
1.32973e-05
1.44218e-05
1.57988e-05
1.68807e-05
1.78863e-05
1.88035e-05
1.95448e-05
2.03404e-05
2.10988e-05
2.15531e-05
1.7886e-05
1.74618e-05
1.82206e-05
1.92512e-05
1.94034e-05
1.8876e-05
1.80574e-05
1.7065e-05
1.59554e-05
1.47934e-05
1.36626e-05
1.26987e-05
1.19306e-05
1.13289e-05
1.08614e-05
1.04855e-05
1.01592e-05
9.84947e-06
9.53704e-06
9.2132e-06
8.87813e-06
8.53648e-06
8.19634e-06
7.86688e-06
7.56147e-06
7.30525e-06
7.16422e-06
7.32101e-06
8.25519e-06
1.09723e-05
1.68591e-05
2.72517e-05
4.92138e-05
)
;
    }
    rightWall
    {
        type            nutkWallFunction;
        Cmu             0.09;
        kappa           0.41;
        E               9.8;
        value           nonuniform List<scalar> 
50
(
2.29868e-06
7.87506e-06
9.8021e-06
1.20301e-05
1.66917e-05
1.72089e-05
1.7061e-05
1.66443e-05
1.55192e-05
1.4948e-05
1.52796e-05
1.68743e-05
1.83644e-05
1.92959e-05
1.97084e-05
1.96659e-05
1.95603e-05
2.0723e-05
2.10976e-05
1.78851e-05
1.63878e-05
1.44993e-05
1.28453e-05
1.18254e-05
1.14715e-05
1.16311e-05
1.20727e-05
1.26418e-05
1.31699e-05
1.35838e-05
1.38941e-05
1.41259e-05
1.43051e-05
1.44503e-05
1.45792e-05
1.47091e-05
1.48647e-05
1.5051e-05
1.52691e-05
1.5531e-05
1.58612e-05
1.62847e-05
1.68455e-05
1.76083e-05
1.86989e-05
2.03422e-05
2.29699e-05
2.7432e-05
3.59595e-05
5.5674e-05
)
;
    }
    lowerWall
    {
        type            nutkWallFunction;
        Cmu             0.09;
        kappa           0.41;
        E               9.8;
        value           nonuniform List<scalar> 
62
(
2.11771e-06
3.53458e-06
4.3881e-06
4.97652e-06
5.41106e-06
5.74463e-06
6.00558e-06
6.21023e-06
6.36964e-06
6.49246e-06
6.58384e-06
6.64648e-06
6.68094e-06
6.68566e-06
6.65805e-06
6.5967e-06
6.49923e-06
6.35785e-06
6.15135e-06
5.84799e-06
5.38389e-06
4.60891e-06
3.18815e-06
3.18815e-06
9.3034e-06
1.09196e-05
1.22827e-05
1.36462e-05
1.52709e-05
1.7504e-05
2.17174e-05
2.64033e-05
2.4779e-05
2.36995e-05
2.33495e-05
3.26093e-06
9.92493e-06
1.13522e-05
1.25436e-05
1.39704e-05
1.41656e-05
1.50678e-05
1.77238e-05
3.26093e-06
4.56068e-06
5.2595e-06
5.77352e-06
6.18629e-06
6.34211e-06
6.38368e-06
6.47052e-06
6.45071e-06
6.33009e-06
6.07927e-06
5.78673e-06
5.66796e-06
5.50696e-06
5.19332e-06
4.94903e-06
4.52635e-06
3.83923e-06
2.29868e-06
)
;
    }
    atmosphere
    {
        type            calculated;
        value           nonuniform List<scalar> 
46
(
0.009
0.009
0.009
0.00464896
0.0042424
0.00435769
0.00478302
0.00534369
0.00589877
0.00639423
0.00685392
0.00733039
0.0078417
0.00825506
0.009
0.009
0.009
0.009
0.009
0.009
0.009
0.009
0.009
0.009
0.009
0.009
0.009
0.009
0.009
0.009
0.009
0.00856009
0.00841355
0.00827783
0.00812527
0.00793973
0.00771289
0.0074472
0.00716153
0.00691364
0.00687762
0.009
0.009
0.009
0.009
0.009
)
;
    }
    defaultFaces
    {
        type            empty;
    }
}


// ************************************************************************* //
