/*--------------------------------*- C++ -*----------------------------------*\
  =========                 |
  \\      /  F ield         | OpenFOAM: The Open Source CFD Toolbox
   \\    /   O peration     | Website:  https://openfoam.org
    \\  /    A nd           | Version:  13
     \\/     M anipulation  |
\*---------------------------------------------------------------------------*/
FoamFile
{
    format      ascii;
    class       volScalarField;
    location    "2.7";
    object      p_rgh;
}
// * * * * * * * * * * * * * * * * * * * * * * * * * * * * * * * * * * * * * //

dimensions      [1 -1 -2 0 0 0 0];

internalField   nonuniform List<scalar> 
2268
(
5203.43
5208.21
5225.57
5257.36
5302.32
5359.47
5427.57
5505.08
5590.38
5682.1
5778.82
5879.03
5981.08
6083.66
6185.53
6284.9
6379.24
6466.32
6541.5
6601.01
6640.23
6655.54
6651.8
5202.73
5208.05
5225.13
5257.16
5302.45
5360.03
5428.65
5506.79
5592.77
5685.08
5782.19
5882.51
5984.38
6086.62
6188.11
6287.06
6381.17
6466.85
6541.31
6599.88
6637.58
6648.84
6643.38
5199.86
5207.1
5224.28
5256.61
5302.27
5360.38
5429.8
5508.87
5595.75
5688.84
5786.52
5887.1
5988.74
6090.49
6191.25
6289.2
6382.02
6466.66
6540.12
6597.72
6634.34
6642.28
6636.25
5194.02
5203.67
5220.58
5253.23
5299.61
5358.62
5429.33
5509.74
5597.65
5691.65
5790.18
5891.37
5993.07
6094.3
6194.25
6291.23
6383.05
6466.86
6539.74
6596.93
6632.92
6637.73
6630.48
5184.23
5174.34
5187.33
5232.65
5289.18
5349.6
5422.39
5504.99
5594.54
5690.3
5790.73
5893.87
5996.51
6097.6
6196.91
6293.04
6384
6466.85
6538.84
6595.35
6630.38
6632.52
6625.4
2874.6
2917.31
2974.43
3116.92
3361.21
3699.82
4103.46
4530.17
4904.42
5253.02
5566.7
5831.57
5992.63
6096.46
6198.1
6295.43
6386.67
6468.35
6538
6592.37
6625.33
6625.95
6620.68
1209.34
1211.76
1214.85
1219.31
1230.22
1248.17
1280.65
1370.69
1607.96
1941.66
2374.38
2918.89
3623.65
4387.57
5078.35
5639.73
6076.37
6364.6
6483.01
6570.26
6619.07
6603.01
6561.96
1207.72
1209.67
1212.15
1215.01
1217.13
1218.58
1219.37
1219.49
1218.3
1216.18
1213.16
1209.31
1210.19
1289.29
1489.53
1856.18
2337.22
2907.27
3572.15
4066.25
4281.64
4115.23
3863.69
3092.57
3038.48
2981.26
2946.35
2927.26
2806.17
2773.49
2761.42
2757.87
2749.91
2709.41
2669.22
2703.07
2740.06
2734.1
2725.38
2709.3
2698.03
2694.89
3053.79
3015.08
2942.21
2906.19
2907.89
2917.8
2894.12
2879.02
2860.12
2853.11
2806.18
2709.74
2755
2735.64
2729.15
2718.42
2705.92
2697.02
2694.4
2601.4
2524.61
2395.45
2283.45
2370.5
2500.71
2517.3
2494.35
2431.97
2530.52
2511.44
2565.4
2510.04
2485.47
2514.1
2535.19
2462.32
2383.94
2339.35
2066.51
1823.08
1741.73
1661.87
1536.92
1434.95
1468.4
1424.9
1451.33
1356.31
1632.47
1727.65
1694.01
1571.17
1464.26
1304.42
1353.31
1470.23
1640.06
1443.34
1474.03
1556.28
1626.91
1413.57
1251.68
1230.19
1239.26
1274.09
1177.28
1029.1
1134.36
1257.11
1120.18
1013.29
1072.41
1082.06
1094.16
982.252
1464.21
1510.13
1526.12
1545.69
1551.9
1341.55
1300.58
1312.02
1322.62
1201.33
1145.03
993.911
856.38
968.672
1107.74
1138.87
1135.34
1122.77
1008.25
1374.63
1337.4
1351.81
1388.73
1495.8
1450.55
1409.76
1466.19
1265.27
1183.71
1145.16
1135.65
854.826
996.081
1139.24
1138.5
1135.01
1124.92
1032.1
1217.87
1231.76
1208.95
1178.7
1195.08
1437.25
1459.04
1323.88
1134.29
1145.32
1145.75
1132.37
884.431
1045.83
1141.46
1139.47
1135.86
1126.72
1059.83
1204.74
1207.08
1209.75
1212.56
1214.84
1216.29
1216.81
1216.33
1214.64
1211.84
1208.12
1203.8
1199.26
1194.39
1188.6
1180.99
1170.84
1158.93
1145.84
1133.37
1123.72
1118.32
1119.75
1194.49
1199.43
1204.97
1208.82
1211.86
1213.66
1214.33
1213.94
1212.59
1210.31
1207.13
1203.14
1198.45
1192.98
1186.63
1179.12
1170.81
1161.83
1152.37
1142.66
1132.82
1116.74
1096.41
1111.42
1164.52
1197.33
1203.43
1208.6
1211.27
1210.33
1210.06
1210.5
1208.83
1206.22
1202.69
1198.23
1191.21
1184.87
1179.79
1170.83
1159.56
1144.09
1120.93
1080.85
1025.42
929.548
930.478
916.245
939.128
964.897
1014.36
1072.81
1073.04
1067.27
1073.35
1077.39
1075.95
1064.4
1039.04
1019.22
1007.72
991.769
957.526
901.328
842.025
794.393
758.006
725.907
685.54
700.043
749.96
751.485
750.709
746.971
702.373
708.581
708.445
698.794
693.449
682.283
680.435
698.871
700.192
683.231
661.747
664.724
710.88
724.957
725.321
727.353
727.539
709.698
751.315
750.308
749.304
748.938
731.565
720.918
740.372
748.926
742.132
734.28
736.866
740.271
741.297
740.59
737.454
735.774
735.291
732.608
730.907
730.129
729.602
730.671
733.498
747.782
746.965
746.13
746.404
747.218
748.077
748.257
748.458
748.568
748.295
747.472
746.147
744.436
742.568
740.596
738.454
736.047
733.856
732.212
731.197
730.848
731.247
732.384
652.048
645.792
657.198
671.7
685.594
690.711
700.423
713.484
719.099
720.462
718.601
713.615
705.326
694.354
680.675
662.723
640.658
616.08
592.989
574.735
564.177
564.826
574.653
136.666
111.875
117.513
139.556
164.344
191.093
206.622
211.79
215.943
217.252
211.864
198.585
180.213
159.57
137.852
115.741
94.6615
75.7842
60.667
49.9146
44.0045
43.3561
48.154
5.42064
5.41909
5.42235
5.39336
5.34855
5.31317
5.29231
5.27527
5.25058
5.22241
5.19776
5.1789
5.16388
5.15105
5.14036
5.13221
5.12757
5.12618
5.12272
5.113
5.09748
5.07548
5.04226
5.40939
5.40947
5.40628
5.39581
5.38124
5.36575
5.34989
5.33262
5.31114
5.2871
5.26357
5.24128
5.22006
5.19969
5.18006
5.16106
5.14268
5.12465
5.10648
5.08801
5.07005
5.05157
5.03024
5.40754
5.40893
5.40614
5.39075
5.37491
5.36083
5.35114
5.35543
5.32438
5.28721
5.26338
5.24224
5.22194
5.20236
5.18342
5.1649
5.14686
5.12905
5.11134
5.09365
5.07492
5.05512
5.03333
5.40569
5.41283
5.43
5.40219
5.37178
5.35965
5.4246
5.4974
5.46003
5.29677
5.26872
5.24817
5.22851
5.20919
5.18991
5.1709
5.15209
5.13339
5.11445
5.09513
5.07523
5.05511
5.03347
5.40571
5.42965
5.45674
5.44065
5.37685
5.36599
5.48352
5.5083
5.4937
5.43681
5.28217
5.26314
5.24046
5.2207
5.20064
5.18047
5.161
5.14133
5.12128
5.10088
5.08025
5.0601
5.03908
5.40562
5.42541
5.4579
5.44819
5.37978
5.36427
5.38809
5.51836
5.50452
5.47106
5.29144
5.27418
5.25604
5.2373
5.21331
5.19179
5.17229
5.15228
5.13177
5.11091
5.08995
5.06977
5.04882
5.4074
5.4094
5.42944
5.4139
5.38076
5.36945
5.35682
5.36463
5.40278
5.35444
5.29884
5.2851
5.26844
5.24972
5.2251
5.20453
5.18494
5.16478
5.14409
5.12304
5.10197
5.08176
5.06083
5.41143
5.40838
5.40344
5.39641
5.38747
5.37748
5.36555
5.35177
5.33678
5.3221
5.30751
5.29269
5.27798
5.25844
5.23751
5.21852
5.19898
5.17875
5.15797
5.13691
5.11584
5.09573
5.07481
5.41708
5.414
5.40914
5.40332
5.39609
5.38707
5.3762
5.36372
5.35011
5.3359
5.32124
5.30598
5.28941
5.27107
5.25233
5.23363
5.21426
5.19419
5.17352
5.15256
5.13162
5.11161
5.09085
5.42406
5.42173
5.41782
5.41261
5.406
5.39769
5.38768
5.37617
5.36342
5.34975
5.33541
5.32048
5.30433
5.28671
5.26844
5.24998
5.23089
5.21111
5.19071
5.16997
5.14926
5.12949
5.10894
5.43206
5.43061
5.42747
5.42281
5.41672
5.40902
5.39975
5.38904
5.37708
5.36408
5.35016
5.3355
5.31991
5.30291
5.28543
5.26743
5.24877
5.22941
5.2094
5.18903
5.16868
5.14922
5.12906
5.44113
5.4402
5.43766
5.43356
5.42799
5.42088
5.41228
5.4023
5.39109
5.37879
5.36548
5.35123
5.33604
5.32002
5.30329
5.28588
5.26778
5.24895
5.22947
5.2096
5.18972
5.1707
5.15096
5.45103
5.4504
5.44835
5.44476
5.43968
5.43313
5.42517
5.41589
5.40541
5.39383
5.38123
5.36766
5.35318
5.33791
5.32191
5.30519
5.28777
5.2696
5.25076
5.23153
5.21224
5.19375
5.17458
5.46161
5.46118
5.45949
5.45635
5.45176
5.44575
5.4384
5.42979
5.42002
5.40918
5.39734
5.38454
5.37086
5.35638
5.34117
5.32525
5.3086
5.29121
5.27315
5.25466
5.2361
5.21829
5.19974
5.47278
5.47245
5.47105
5.4683
5.46417
5.4587
5.45195
5.444
5.43492
5.42482
5.41375
5.40178
5.38894
5.37533
5.36098
5.34593
5.33016
5.31365
5.29646
5.27885
5.26114
5.24411
5.22639
5.48444
5.48417
5.48299
5.48059
5.4769
5.47196
5.4658
5.45851
5.45014
5.44077
5.43049
5.41935
5.4074
5.39468
5.38125
5.36714
5.35232
5.33678
5.32058
5.30393
5.28718
5.27105
5.25417
5.49652
5.49629
5.4953
5.49321
5.48994
5.4855
5.47993
5.47329
5.46563
5.45703
5.44756
5.43727
5.42621
5.41442
5.40195
5.38882
5.37501
5.36051
5.34535
5.32976
5.31403
5.29887
5.28291
5.50896
5.50877
5.50794
5.50614
5.50326
5.49931
5.49432
5.48832
5.48137
5.47354
5.46489
5.45547
5.44533
5.4345
5.42303
5.41093
5.39818
5.38476
5.37072
5.35623
5.34159
5.32744
5.31253
5.52173
5.52158
5.52091
5.51937
5.51687
5.51338
5.50894
5.50357
5.49733
5.49027
5.48244
5.4739
5.46469
5.45485
5.4444
5.43337
5.42172
5.40944
5.39655
5.38324
5.36974
5.35666
5.34294
5.53474
5.53466
5.53415
5.53287
5.53071
5.52768
5.52377
5.51902
5.51347
5.50716
5.50015
5.49249
5.48422
5.47537
5.46597
5.45602
5.44551
5.4344
5.42271
5.41061
5.39831
5.38637
5.37379
5.54797
5.54797
5.54762
5.54658
5.54476
5.54216
5.53877
5.53461
5.52973
5.52417
5.51797
5.51119
5.50385
5.496
5.48764
5.47879
5.46942
5.4595
5.44904
5.43818
5.42712
5.41633
5.40497
5.56133
5.56144
5.56125
5.56046
5.55897
5.55678
5.55389
5.55032
5.54609
5.54125
5.53585
5.52992
5.5235
5.51663
5.50931
5.50155
5.49333
5.4846
5.47538
5.46579
5.45599
5.44641
5.43625
5.5748
5.57502
5.575
5.57445
5.57328
5.5715
5.56909
5.56608
5.56249
5.55836
5.55373
5.54863
5.54311
5.53719
5.53089
5.5242
5.5171
5.50956
5.50157
5.49325
5.48472
5.47637
5.46752
5.58828
5.58864
5.58879
5.58848
5.58764
5.58626
5.58433
5.58187
5.5789
5.57544
5.57155
5.56725
5.56259
5.55759
5.55226
5.5466
5.54059
5.5342
5.52742
5.52034
5.51308
5.50596
5.49836
5.60175
5.60225
5.60258
5.60251
5.60199
5.60101
5.59956
5.59764
5.59526
5.59246
5.58928
5.58574
5.58189
5.57775
5.57333
5.56863
5.56365
5.55835
5.55273
5.54685
5.5408
5.53485
5.52852
5.61514
5.61579
5.61629
5.61648
5.6163
5.61574
5.61477
5.61337
5.61157
5.6094
5.60688
5.60405
5.60094
5.59758
5.59398
5.59018
5.58614
5.58185
5.57731
5.57256
5.56766
5.56284
5.55765
5.62842
5.62921
5.6299
5.63035
5.63053
5.63041
5.62993
5.62907
5.62782
5.62623
5.62432
5.62213
5.61968
5.617
5.61414
5.61111
5.60793
5.60456
5.60101
5.5973
5.59347
5.58969
5.58564
5.64156
5.64251
5.64337
5.6441
5.64469
5.64506
5.64509
5.64475
5.64403
5.64298
5.64162
5.63999
5.63809
5.63597
5.63371
5.63135
5.62892
5.62638
5.62371
5.62094
5.61808
5.61526
5.6122
5.65457
5.6557
5.65672
5.65777
5.65884
5.65976
5.66032
5.66048
5.66026
5.65969
5.6588
5.65762
5.65614
5.65444
5.65265
5.65086
5.64907
5.64726
5.64538
5.64345
5.64145
5.63947
5.63731
5.6675
5.66886
5.67008
5.67155
5.67322
5.67471
5.67577
5.67638
5.67658
5.67642
5.67594
5.67512
5.67392
5.67245
5.67102
5.66971
5.66849
5.66732
5.66613
5.66493
5.6637
5.66249
5.66114
5.68048
5.68222
5.68383
5.6859
5.68823
5.6902
5.69163
5.69255
5.69307
5.69328
5.69319
5.69279
5.69177
5.69035
5.68921
5.68832
5.68762
5.68701
5.68642
5.68586
5.68531
5.68484
5.68444
5.69382
5.69613
5.69818
5.70153
5.7044
5.70653
5.70802
5.70905
5.70978
5.71032
5.71076
5.71118
5.70982
5.70815
5.70721
5.7067
5.70645
5.7063
5.70619
5.70611
5.7061
5.70621
5.70687
5.71391
5.71371
5.71494
5.71812
5.7203
5.72168
5.72258
5.72323
5.72376
5.72426
5.72485
5.72596
5.72567
5.72388
5.72316
5.72275
5.72263
5.72261
5.72265
5.7227
5.72281
5.72299
5.72361
1431.85
1493.46
1515.47
1211.41
1083.77
1093.95
1107.06
1115.51
877.486
854.977
920.318
982.445
668.819
669.747
670.173
693.889
714.653
729.074
738.783
739.926
734.949
735.539
736.09
736.924
733.643
734.459
735.248
736.05
597.035
609.862
621.819
633.785
62.3097
71.0057
78.7885
85.5872
4.99274
4.958
4.9296
4.90944
5.00046
4.97298
4.94612
4.92741
5.00173
4.97148
4.94046
4.91883
5.00158
4.97118
4.93945
4.91669
5.0083
4.97799
4.94585
4.92201
5.01799
4.98737
4.95474
4.93047
5.02975
4.99888
4.96607
4.94154
5.0437
5.01281
4.9799
4.95529
5.05988
5.02911
4.99636
4.97178
5.07835
5.04789
5.01536
4.99092
5.09898
5.069
5.03692
5.01267
5.1216
5.09225
5.06068
5.03678
5.14598
5.11738
5.0866
5.06315
5.17215
5.14446
5.11448
5.09161
5.19992
5.17328
5.14436
5.12207
5.22902
5.20357
5.1757
5.15417
5.2591
5.23493
5.20843
5.18774
5.29019
5.26741
5.24222
5.22255
5.32213
5.3008
5.27715
5.2584
5.35466
5.33491
5.31274
5.29511
5.38746
5.36932
5.34894
5.33249
5.42052
5.40408
5.38535
5.37018
5.45359
5.43888
5.42201
5.40802
5.48631
5.47337
5.45818
5.44546
5.51819
5.50694
5.49361
5.48214
5.54906
5.53947
5.52781
5.51764
5.57865
5.57066
5.56075
5.5518
5.60675
5.60027
5.5919
5.58422
5.63314
5.62802
5.62128
5.61484
5.65818
5.65434
5.64904
5.64387
5.68276
5.68023
5.67636
5.67225
5.70762
5.7067
5.70419
5.70075
5.72507
5.72519
5.72432
5.72259
1158.87
1204.88
1214.01
1149.57
1089.77
1171.08
1198.91
1110.63
1132.51
1139.86
1144.68
1149.86
1132.55
1150.88
1146.76
1142.18
1140.04
1103.02
1066.22
1129.12
1164.4
1191.49
1072.47
1055.72
1097.54
1025.04
1032.32
1107.5
1128.75
1141.84
1148.79
1158.31
1153.77
1134.47
1095.99
1053.03
1046.71
1038.68
935.329
874.855
914.486
959.756
964.175
806.104
851.237
882.077
860.334
867.342
883.114
918.068
971.797
952.161
902.444
859.683
857.137
889.994
935.872
701.942
690.004
701.882
751.528
746.093
702.188
692.097
689.769
740.504
765.205
767.59
770.039
772.562
775.587
779.984
784.873
789.128
820.143
838.411
742.303
741.937
743.917
746.515
749.857
748.075
726.204
736.216
759.264
765.071
767.913
770.757
773.729
776.842
780.289
783.951
786.101
786.438
786.095
738.584
741.368
743.726
746.167
749.608
753.915
757.766
760.534
762.637
765.238
768.257
771.397
774.629
777.882
781.121
784.064
786.02
786.494
787.106
737.499
740.051
742.667
745.468
748.755
752.469
756.023
759.195
762.134
765.3
768.743
772.313
775.905
779.335
782.404
785.277
787.314
788.037
788.424
649.221
677.375
698.153
713.317
726.062
736.856
745.579
752.817
758.636
763.669
767.488
771.648
776.11
780.269
785.88
805.332
826.771
826.319
804.636
93.1185
115.957
139.012
159.558
178.875
197.172
211.481
222.155
234.055
254.381
287.832
336.357
399.825
470.212
518.048
559.013
578.004
598.697
597.762
4.88678
4.86152
4.8597
4.88612
4.92444
4.95094
4.9588
4.97917
5.05092
5.09708
5.85088
6.83465
8.75192
17.5315
44.8495
70.4034
84.9743
79.3287
72.9612
4.91105
4.90648
4.90982
5.08521
5.36183
5.51681
5.51335
5.16759
5.1069
5.16603
5.4339
6.06279
6.51603
7.85432
7.35705
6.2172
7.68931
5.60633
6.23809
4.90222
4.89664
4.89544
5.18703
5.75252
5.76719
5.63238
4.99306
4.9176
4.967
5.59728
5.80032
5.80653
5.43554
4.86808
4.86408
4.8621
4.87001
4.89026
4.89851
4.89163
4.88509
4.8751
4.86591
4.92891
4.86787
4.87889
4.88422
4.90428
5.10947
5.3887
5.19599
4.99248
4.8758
4.87377
4.87548
4.88058
4.8857
4.90215
4.89465
4.88777
4.88028
4.87413
4.87174
4.87513
4.88144
4.88496
4.88863
4.88329
4.8852
4.88318
4.88516
4.88838
4.88934
4.89093
4.89404
4.89669
4.91009
4.90229
4.89538
4.88867
4.88347
4.88111
4.8819
4.88481
4.88773
4.88953
4.89036
4.8916
4.89443
4.89753
4.9008
4.9034
4.90574
4.90796
4.90907
4.92092
4.91291
4.90597
4.89959
4.89485
4.89241
4.89233
4.894
4.89625
4.8985
4.90046
4.90286
4.90617
4.90987
4.91381
4.91729
4.92021
4.92241
4.92278
4.93457
4.92641
4.91942
4.91314
4.90856
4.906
4.90542
4.90637
4.90822
4.91056
4.91315
4.91622
4.9199
4.92396
4.92817
4.93208
4.9354
4.93751
4.93747
4.95101
4.94277
4.93572
4.92942
4.92476
4.92195
4.92094
4.92139
4.92289
4.92513
4.92793
4.9313
4.93521
4.93945
4.94381
4.94793
4.95136
4.95344
4.9533
4.9702
4.96188
4.95475
4.94835
4.94352
4.94041
4.93896
4.93895
4.94006
4.94206
4.94476
4.94811
4.952
4.95626
4.96063
4.96477
4.96821
4.97028
4.97024
4.992
4.9836
4.97637
4.96981
4.96474
4.96129
4.9594
4.9589
4.95957
4.96119
4.96362
4.96675
4.97045
4.97453
4.97876
4.9828
4.98617
4.98815
4.98823
5.01631
5.00782
5.00045
4.99369
4.98833
4.9845
4.98214
4.98114
4.9813
4.98248
4.98451
4.98728
4.99066
4.99446
4.99846
5.0023
5.00552
5.00744
5.00771
5.04292
5.03439
5.02688
5.0199
5.01422
5.00997
5.00714
5.00561
5.00524
5.0059
5.00745
5.00979
5.01276
5.01621
5.01989
5.0235
5.02656
5.02849
5.02901
5.07176
5.06314
5.05549
5.04829
5.04229
5.03763
5.03431
5.03224
5.03132
5.03143
5.03245
5.03429
5.0368
5.03984
5.04317
5.0465
5.0494
5.05143
5.05219
5.10255
5.0939
5.08613
5.07871
5.0724
5.06733
5.06353
5.06093
5.05945
5.05899
5.05945
5.06075
5.06277
5.06536
5.06831
5.07135
5.07411
5.07622
5.07711
5.13516
5.12646
5.11859
5.11099
5.10439
5.09894
5.09468
5.09155
5.08951
5.08847
5.08837
5.08911
5.0906
5.09271
5.09526
5.09797
5.10059
5.10271
5.10369
5.16929
5.16059
5.15268
5.14493
5.13808
5.13228
5.12757
5.12395
5.12136
5.11975
5.11906
5.11923
5.12017
5.12178
5.12389
5.12628
5.1287
5.13078
5.13178
5.20488
5.19601
5.18817
5.18034
5.17327
5.16715
5.16204
5.15794
5.15481
5.15264
5.15137
5.15096
5.15134
5.15243
5.15408
5.15609
5.15828
5.16026
5.16121
5.24135
5.23283
5.22491
5.21699
5.20975
5.20335
5.19786
5.19332
5.18969
5.18697
5.18512
5.18413
5.18394
5.18448
5.18563
5.18726
5.18915
5.19097
5.1919
5.27891
5.27057
5.26269
5.25472
5.24733
5.24069
5.23487
5.22992
5.22581
5.22257
5.22016
5.21859
5.21781
5.21779
5.21843
5.21961
5.22117
5.22278
5.22363
5.31714
5.30904
5.30123
5.29329
5.2858
5.27896
5.27286
5.26753
5.263
5.25927
5.25632
5.25418
5.25282
5.25221
5.25231
5.25301
5.25418
5.2555
5.25625
5.35582
5.34791
5.34024
5.33236
5.32485
5.31789
5.31157
5.30594
5.30103
5.29684
5.29339
5.29069
5.28874
5.28754
5.28706
5.28723
5.28796
5.28893
5.28959
5.39451
5.38685
5.37935
5.3716
5.36415
5.35714
5.35069
5.34484
5.33962
5.33505
5.33113
5.3279
5.32537
5.32356
5.32247
5.32208
5.32231
5.32291
5.32347
5.43291
5.42548
5.41822
5.41068
5.40336
5.39642
5.38994
5.38397
5.37853
5.37364
5.36932
5.36559
5.36249
5.36006
5.35834
5.35736
5.35706
5.35726
5.35771
5.47052
5.46344
5.45648
5.44925
5.44218
5.43542
5.42903
5.42306
5.41752
5.41242
5.40777
5.40359
5.39994
5.39688
5.3945
5.39289
5.39203
5.39188
5.39219
5.5071
5.50039
5.49383
5.48702
5.48033
5.47389
5.46774
5.46191
5.45641
5.45122
5.44633
5.44178
5.4376
5.4339
5.43082
5.42851
5.42708
5.42656
5.42674
5.54225
5.53604
5.52998
5.52372
5.51757
5.51161
5.50588
5.50038
5.49507
5.48993
5.48494
5.48009
5.47544
5.47109
5.46724
5.46416
5.4621
5.46121
5.46131
5.5758
5.57016
5.56472
5.55916
5.55372
5.54843
5.54333
5.53835
5.53343
5.52852
5.52359
5.51859
5.51354
5.50853
5.50382
5.49984
5.49705
5.49579
5.49585
5.6076
5.60265
5.59793
5.59321
5.58867
5.58429
5.58005
5.57582
5.5715
5.56704
5.56238
5.55743
5.55215
5.54654
5.54087
5.53575
5.53205
5.53033
5.53044
5.63788
5.6336
5.62966
5.62589
5.62243
5.61925
5.61613
5.61285
5.60934
5.60557
5.60146
5.59688
5.59167
5.58568
5.57899
5.57246
5.56749
5.56513
5.56521
5.66722
5.66347
5.66028
5.65746
5.65517
5.65345
5.65169
5.64954
5.64703
5.64419
5.64097
5.6372
5.63262
5.62683
5.6195
5.61113
5.60455
5.60086
5.60051
5.6953
5.69184
5.68942
5.68745
5.68599
5.68708
5.68684
5.68589
5.68451
5.68284
5.68086
5.67843
5.67526
5.67081
5.66408
5.65292
5.64484
5.63853
5.63641
5.7191
5.71731
5.71622
5.7152
5.71409
5.71576
5.71625
5.71618
5.71583
5.71535
5.71474
5.71394
5.71284
5.71113
5.70817
5.70129
5.69628
5.68964
5.68856
)
;

boundaryField
{
    leftWall
    {
        type            fixedFluxPressure;
        gradient        uniform 0;
        value           nonuniform List<scalar> 
50
(
5203.43
5202.73
5199.86
5194.02
5184.23
2874.6
1209.34
1207.72
1204.74
1194.49
1111.42
930.478
700.043
751.315
747.782
652.048
136.666
5.42064
5.40939
5.40754
5.40569
5.40571
5.40562
5.4074
5.41143
5.41708
5.42406
5.43206
5.44113
5.45103
5.46161
5.47278
5.48444
5.49652
5.50896
5.52173
5.53474
5.54797
5.56133
5.5748
5.58828
5.60175
5.61514
5.62842
5.64156
5.65457
5.6675
5.68048
5.69382
5.71391
)
;
    }
    rightWall
    {
        type            fixedFluxPressure;
        gradient        uniform 0;
        value           nonuniform List<scalar> 
50
(
2694.89
2694.4
2339.35
1640.06
982.252
1008.25
1032.1
1059.83
1066.22
1038.68
935.872
838.411
786.095
787.106
788.424
804.636
597.762
72.9612
6.23809
4.89026
4.8857
4.89669
4.90907
4.92278
4.93747
4.9533
4.97024
4.98823
5.00771
5.02901
5.05219
5.07711
5.10369
5.13178
5.16121
5.1919
5.22363
5.25625
5.28959
5.32347
5.35771
5.39219
5.42674
5.46131
5.49585
5.53044
5.56521
5.60051
5.63641
5.68856
)
;
    }
    lowerWall
    {
        type            fixedFluxPressure;
        gradient        uniform 0;
        value           nonuniform List<scalar> 
62
(
5203.43
5208.21
5225.57
5257.36
5302.32
5359.47
5427.57
5505.08
5590.38
5682.1
5778.82
5879.03
5981.08
6083.66
6185.53
6284.9
6379.24
6466.32
6541.5
6601.01
6640.23
6655.54
6651.8
6651.8
6643.38
6636.25
6630.48
6625.4
6620.68
6561.96
3863.69
1431.85
1493.46
1515.47
1211.41
3092.57
3053.79
2601.4
2066.51
1443.34
1464.21
1374.63
1217.87
3092.57
3038.48
2981.26
2946.35
2927.26
2806.17
2773.49
2761.42
2757.87
2749.91
2709.41
2669.22
2703.07
2740.06
2734.1
2725.38
2709.3
2698.03
2694.89
)
;
    }
    atmosphere
    {
        type            prghTotalPressure;
        rho             rho;
        psi             none;
        gamma           1;
        p0              uniform 0;
        value           nonuniform List<scalar> 
46
(
5.72904
5.72904
5.72904
5.72904
5.72904
5.72904
5.72904
5.72904
5.72904
5.72904
5.72904
5.72904
5.72904
5.72904
5.72904
5.72904
5.72904
5.72904
5.72904
5.72904
5.72904
5.72904
5.72904
5.72904
5.72904
5.72904
5.72904
5.72904
5.72904
5.72904
5.72904
5.72904
5.72904
5.72904
5.72904
5.72904
5.72904
5.72904
5.72904
5.72904
5.72904
5.72904
5.72904
5.72904
5.72899
5.72899
)
;
        rho             rho;
    }
    defaultFaces
    {
        type            empty;
    }
}


// ************************************************************************* //
