/*--------------------------------*- C++ -*----------------------------------*\
  =========                 |
  \\      /  F ield         | OpenFOAM: The Open Source CFD Toolbox
   \\    /   O peration     | Website:  https://openfoam.org
    \\  /    A nd           | Version:  13
     \\/     M anipulation  |
\*---------------------------------------------------------------------------*/
FoamFile
{
    format      ascii;
    class       surfaceScalarField;
    location    "2.7";
    object      phi;
}
// * * * * * * * * * * * * * * * * * * * * * * * * * * * * * * * * * * * * * //

dimensions      [0 3 -1 0 0 0 0];

internalField   nonuniform List<scalar> 
4432
(
-1.1153e-06
1.11532e-06
-1.62337e-06
5.08082e-07
-1.91466e-06
2.9129e-07
-2.1782e-06
2.63547e-07
-2.45038e-06
2.7218e-07
-2.73205e-06
2.81675e-07
-3.01894e-06
2.86892e-07
-3.31979e-06
3.00858e-07
-3.64699e-06
3.27201e-07
-3.98977e-06
3.42782e-07
-4.32532e-06
3.35551e-07
-4.62865e-06
3.03329e-07
-4.88329e-06
2.54648e-07
-5.08427e-06
2.00979e-07
-5.22609e-06
1.41833e-07
-5.28753e-06
6.14486e-08
-5.24867e-06
-3.88451e-08
-5.09726e-06
-1.51396e-07
-4.82997e-06
-2.67277e-07
-4.39346e-06
-4.36488e-07
-3.65127e-06
-7.42164e-07
-2.41409e-06
-1.23716e-06
-2.41404e-06
-7.19228e-07
1.83457e-06
-1.10002e-06
8.88886e-07
-1.48004e-06
6.71319e-07
-1.85453e-06
6.38028e-07
-2.21414e-06
6.31784e-07
-2.55919e-06
6.26719e-07
-2.89681e-06
6.245e-07
-3.24073e-06
6.4477e-07
-3.60293e-06
6.89386e-07
-3.97736e-06
7.17208e-07
-4.34487e-06
7.03049e-07
-4.6819e-06
6.4035e-07
-4.97087e-06
5.43609e-07
-5.19966e-06
4.29757e-07
-5.34685e-06
2.8901e-07
-5.37996e-06
9.45358e-08
-5.264e-06
-1.54836e-07
-4.98376e-06
-4.31666e-07
-4.52865e-06
-7.22422e-07
-3.88063e-06
-1.08454e-06
-3.01603e-06
-1.6068e-06
-1.86781e-06
-2.3854e-06
-4.28194e-06
-4.2516e-07
2.25974e-06
-8.04974e-07
1.2687e-06
-1.23942e-06
1.10577e-06
-1.66477e-06
1.06337e-06
-2.06118e-06
1.02819e-06
-2.43314e-06
9.98676e-07
-2.79224e-06
9.83597e-07
-3.15394e-06
1.00647e-06
-3.5293e-06
1.06475e-06
-3.9135e-06
1.10141e-06
-4.29002e-06
1.07957e-06
-4.63664e-06
9.86981e-07
-4.93624e-06
8.43226e-07
-5.17055e-06
6.64082e-07
-5.31146e-06
4.29932e-07
-5.32042e-06
1.03516e-07
-5.16079e-06
-3.14452e-07
-4.81541e-06
-7.77022e-07
-4.27695e-06
-1.26086e-06
-3.54455e-06
-1.81691e-06
-2.63374e-06
-2.51758e-06
-1.5269e-06
-3.49222e-06
-5.80878e-06
-1.6116e-07
2.4209e-06
-6.03326e-07
1.71086e-06
-1.07896e-06
1.58139e-06
-1.52809e-06
1.51249e-06
-1.93934e-06
1.43943e-06
-2.32255e-06
1.38187e-06
-2.69118e-06
1.35221e-06
-3.06078e-06
1.37606e-06
-3.44048e-06
1.44444e-06
-3.82501e-06
1.48593e-06
-4.20069e-06
1.45526e-06
-4.54666e-06
1.33295e-06
-4.84388e-06
1.14045e-06
-5.07242e-06
8.92615e-07
-5.19963e-06
5.57142e-07
-5.1838e-06
8.76758e-08
-4.98873e-06
-5.09535e-07
-4.59948e-06
-1.16628e-06
-4.01256e-06
-1.84778e-06
-3.23707e-06
-2.59239e-06
-2.30373e-06
-3.45091e-06
-1.22977e-06
-4.56616e-06
-7.03859e-06
-2.23093e-08
2.44319e-06
-4.94029e-07
2.18254e-06
-9.72753e-07
2.06007e-06
-1.42086e-06
1.96055e-06
-1.82979e-06
1.84831e-06
-2.20786e-06
1.7599e-06
-2.57658e-06
1.7209e-06
-2.94815e-06
1.7476e-06
-3.32567e-06
1.82194e-06
-3.70145e-06
1.86169e-06
-4.06681e-06
1.82061e-06
-4.40415e-06
1.67029e-06
-4.69417e-06
1.43047e-06
-4.90905e-06
1.1075e-06
-5.01238e-06
6.60483e-07
-4.965e-06
4.02987e-08
-4.73352e-06
-7.40996e-07
-4.30719e-06
-1.59261e-06
-3.68738e-06
-2.46757e-06
-2.89068e-06
-3.38907e-06
-1.95781e-06
-4.38376e-06
-9.41521e-07
-5.58245e-06
-7.98008e-06
-1.02928e-07
2.54614e-06
-5.12605e-07
2.59218e-06
-9.21942e-07
2.46937e-06
-1.32166e-06
2.36023e-06
-1.69283e-06
2.21944e-06
-2.04509e-06
2.11212e-06
-2.41078e-06
2.08655e-06
-2.79861e-06
2.13538e-06
-3.16977e-06
2.19306e-06
-3.52864e-06
2.2205e-06
-3.8781e-06
2.17001e-06
-4.20731e-06
1.99945e-06
-4.4823e-06
1.7054e-06
-4.66575e-06
1.29091e-06
-4.73327e-06
7.27984e-07
-4.64606e-06
-4.6926e-08
-4.37822e-06
-1.00884e-06
-3.92293e-06
-2.04789e-06
-3.28164e-06
-3.10884e-06
-2.47419e-06
-4.19649e-06
-1.55411e-06
-5.30382e-06
-6.07478e-07
-6.52905e-06
-8.58753e-06
-2.84505e-07
2.83064e-06
-5.19158e-07
2.82682e-06
-7.67106e-07
2.71729e-06
-1.04002e-06
2.63311e-06
-1.33519e-06
2.51456e-06
-1.67073e-06
2.44761e-06
-2.07231e-06
2.48806e-06
-2.51575e-06
2.57876e-06
-2.8902e-06
2.56742e-06
-3.23342e-06
2.56363e-06
-3.55915e-06
2.49564e-06
-3.87246e-06
2.31267e-06
-4.13075e-06
1.96363e-06
-4.28319e-06
1.4433e-06
-4.30966e-06
7.54408e-07
-4.17659e-06
-1.80013e-07
-3.87555e-06
-1.30987e-06
-3.40824e-06
-2.51515e-06
-2.74718e-06
-3.76981e-06
-1.93912e-06
-5.00441e-06
-1.03999e-06
-6.20277e-06
-1.56827e-07
-7.41201e-06
-8.74421e-06
-1.63687e-07
2.99439e-06
-2.55384e-07
2.91857e-06
-2.25939e-07
2.68788e-06
-2.01635e-07
2.60883e-06
-2.28022e-07
2.54096e-06
-3.37429e-07
2.55702e-06
-5.66714e-07
2.71735e-06
-9.23227e-07
2.93525e-06
-1.39058e-06
3.03474e-06
-1.8859e-06
3.05892e-06
-2.37964e-06
2.98934e-06
-2.84456e-06
2.77755e-06
-3.24957e-06
2.36859e-06
-3.51017e-06
1.70385e-06
-3.56881e-06
8.1302e-07
-3.41661e-06
-3.32227e-07
-3.09674e-06
-1.62972e-06
-2.63152e-06
-2.9803e-06
-1.98318e-06
-4.41804e-06
-1.22258e-06
-5.76486e-06
-4.15328e-07
-7.00983e-06
2.60643e-07
-8.08774e-06
-8.48339e-06
-4.3502e-06
4.35018e-06
-7.58607e-06
3.23585e-06
-9.15388e-06
1.56781e-06
-9.23819e-06
8.43038e-08
-7.4394e-06
-1.79878e-06
-6.42738e-06
-1.01202e-06
-5.68735e-06
-7.40027e-07
-4.55333e-06
-1.13402e-06
-3.25893e-06
-1.29441e-06
-1.68599e-06
-1.57294e-06
-1.06883e-06
-6.17166e-07
-2.28779e-06
1.21896e-06
-2.13864e-06
-1.49156e-07
-1.33557e-06
-8.03075e-07
-1.05358e-06
-2.81998e-07
-5.48825e-07
-5.04753e-07
-1.98582e-07
-3.50246e-07
1.88117e-07
-3.86701e-07
1.88117e-07
-3.97752e-06
8.32763e-06
-6.5057e-06
5.76399e-06
-7.52381e-06
2.58589e-06
-7.64132e-06
2.01797e-07
-7.19682e-06
-2.24328e-06
-6.14503e-06
-2.0638e-06
-4.88183e-06
-2.00322e-06
-3.72159e-06
-2.29425e-06
-2.96455e-06
-2.05144e-06
-2.45432e-06
-2.08316e-06
-2.05755e-06
-1.01394e-06
-1.30939e-06
4.70791e-07
-9.01732e-07
-5.56823e-07
-1.08468e-06
-6.20132e-07
-1.01707e-06
-3.49617e-07
-8.04668e-07
-7.17154e-07
-6.79248e-07
-4.75666e-07
-6.11949e-07
-4.54002e-07
-4.23839e-07
-3.25401e-06
1.15816e-05
-5.26522e-06
7.77517e-06
-5.80717e-06
3.12783e-06
-5.58755e-06
-1.78231e-08
-5.43465e-06
-2.39616e-06
-5.12352e-06
-2.3749e-06
-4.04701e-06
-3.07968e-06
-3.01376e-06
-3.32747e-06
-2.21411e-06
-2.85106e-06
-2.39232e-06
-1.90494e-06
-2.05601e-06
-1.35023e-06
-9.95251e-07
-5.89961e-07
-6.76652e-07
-8.75424e-07
-9.2999e-07
-3.66787e-07
-9.10803e-07
-3.68795e-07
-9.69313e-07
-6.58633e-07
-8.92746e-07
-5.52223e-07
-8.79724e-07
-4.67013e-07
-1.30355e-06
-2.77337e-06
1.43549e-05
-4.06493e-06
9.06665e-06
-4.10847e-06
3.17133e-06
-3.07844e-06
-1.04787e-06
-3.001e-06
-2.47361e-06
-3.487e-06
-1.88891e-06
-2.76458e-06
-3.80209e-06
-1.7697e-06
-4.32235e-06
-7.1501e-07
-3.90575e-06
-1.29584e-06
-1.32411e-06
-1.26512e-06
-1.38096e-06
-6.46382e-07
-1.2087e-06
-7.10947e-07
-8.10868e-07
-1.16347e-06
8.57219e-08
-1.07918e-06
-4.53104e-07
-8.08655e-07
-9.29181e-07
-3.62639e-08
-1.32463e-06
1.10837e-06
-1.61167e-06
-1.95224e-07
-1.87719e-06
1.6232e-05
-2.09407e-06
9.28352e-06
-1.94778e-06
3.02508e-06
-1.55212e-06
-1.44351e-06
-9.8999e-07
-3.03574e-06
-9.45246e-07
-1.93365e-06
-5.66931e-07
-4.1804e-06
4.97704e-07
-5.38699e-06
1.18657e-06
-4.59462e-06
1.19694e-06
-1.33447e-06
6.61149e-07
-8.45162e-07
4.25085e-07
-9.72653e-07
-1.58219e-06
1.19639e-06
-2.71671e-06
1.22024e-06
-1.73009e-06
-1.43972e-06
4.51829e-07
-3.1111e-06
2.95201e-06
-3.8248e-06
6.86275e-06
-5.5224e-06
6.66759e-06
2.22524e-07
1.60094e-05
6.01535e-07
8.90453e-06
4.51239e-07
3.17537e-06
-3.69481e-07
-6.22803e-07
-4.169e-07
-2.98835e-06
3.62673e-07
-2.71329e-06
9.86451e-07
-4.80425e-06
1.68711e-06
-6.08772e-06
1.54797e-06
-4.45553e-06
1.51635e-06
-1.30291e-06
1.99338e-06
-1.32226e-06
2.38957e-06
-1.36887e-06
-2.76385e-06
6.3497e-06
-3.28751e-06
1.74385e-06
-9.08644e-07
-3.81863e-06
1.43249e-06
-5.45228e-06
4.16e-06
-6.55235e-06
6.23991e-06
-7.60234e-06
1.29074e-05
2.38598e-06
1.36236e-05
3.39689e-06
7.89358e-06
2.96512e-06
3.60711e-06
1.45257e-06
8.89726e-07
3.45945e-07
-1.88176e-06
1.07649e-06
-3.44389e-06
1.71365e-06
-5.44148e-06
1.7242e-06
-6.09832e-06
9.74173e-07
-3.70554e-06
9.45887e-07
-1.27468e-06
1.09521e-06
-1.47165e-06
1.31318e-06
-1.58689e-06
-1.50338e-06
9.16619e-06
-1.3035e-06
1.54391e-06
1.61787e-07
-5.28397e-06
1.90261e-06
-7.19314e-06
3.69579e-06
-8.34556e-06
4.22765e-06
-8.13426e-06
1.7135e-05
5.10918e-06
8.51428e-06
5.99485e-06
7.00788e-06
5.47256e-06
4.12939e-06
3.61741e-06
2.74484e-06
1.68358e-06
5.20433e-08
1.8034e-06
-3.56371e-06
1.94066e-06
-5.57876e-06
1.07467e-06
-5.23236e-06
3.05e-07
-2.9359e-06
1.74719e-07
-1.14443e-06
9.10756e-08
-1.38803e-06
-6.30765e-07
-8.65083e-07
6.69863e-08
8.46842e-06
5.20349e-07
1.09052e-06
1.08659e-06
-5.85023e-06
1.97966e-06
-8.08622e-06
2.7378e-06
-9.10373e-06
2.33794e-06
-7.73438e-06
1.94729e-05
-2.16524e-07
3.21099e-06
2.35162e-07
2.46701e-06
9.6547e-07
1.9577e-06
1.68019e-06
1.89424e-06
2.2911e-06
1.93018e-06
2.74468e-06
2.10357e-06
2.99145e-06
2.47069e-06
3.03425e-06
2.89255e-06
2.88064e-06
3.18845e-06
2.59288e-06
3.34676e-06
2.20556e-06
3.37672e-06
1.7167e-06
3.26645e-06
1.10001e-06
2.9853e-06
3.79483e-07
2.42436e-06
-3.19723e-07
1.5122e-06
-8.195e-07
1.67534e-07
-9.85265e-07
-1.46395e-06
-7.15259e-07
-3.25028e-06
3.17954e-09
-5.13643e-06
1.1625e-06
-6.92412e-06
2.52937e-06
-8.37661e-06
3.61365e-06
-9.17188e-06
-8.52266e-06
3.65315e-06
-5.80532e-07
3.79155e-06
4.82295e-07
1.40421e-06
1.76356e-06
6.76464e-07
2.8621e-06
7.9574e-07
3.88124e-06
9.11077e-07
4.79532e-06
1.18954e-06
5.51507e-06
1.75099e-06
6.03869e-06
2.369e-06
6.4068e-06
2.82041e-06
6.66625e-06
3.08739e-06
6.8554e-06
3.18765e-06
7.00127e-06
3.12066e-06
7.14856e-06
2.83808e-06
7.32328e-06
2.24969e-06
7.59239e-06
1.24312e-06
7.95621e-06
-1.96289e-07
8.44499e-06
-1.95279e-06
9.12534e-06
-3.93072e-06
1.00045e-05
-6.01569e-06
1.10956e-05
-8.01547e-06
1.22578e-05
-9.53901e-06
1.31788e-05
-1.00931e-05
-9.38116e-06
1.40371e-05
5.52788e-07
3.23875e-06
1.3383e-06
6.18703e-07
2.31728e-06
-3.02499e-07
3.27633e-06
-1.63296e-07
4.29117e-06
-1.03742e-07
5.35554e-06
1.25179e-07
6.2483e-06
8.58251e-07
6.96944e-06
1.64788e-06
7.58864e-06
2.20122e-06
8.14217e-06
2.53389e-06
8.66406e-06
2.66578e-06
9.19122e-06
2.59352e-06
9.73367e-06
2.29564e-06
1.03185e-05
1.66484e-06
1.09523e-05
6.09358e-07
1.15984e-05
-8.42342e-07
1.22606e-05
-2.61507e-06
1.2916e-05
-4.58617e-06
1.34728e-05
-6.57259e-06
1.38886e-05
-8.43144e-06
1.40676e-05
-9.71819e-06
1.38359e-05
-9.86171e-06
-8.14576e-06
1.26002e-05
1.16963e-06
2.06914e-06
2.2228e-06
-4.34464e-07
2.95897e-06
-1.03867e-06
3.76431e-06
-9.68629e-07
4.5614e-06
-9.00839e-07
5.16172e-06
-4.75141e-07
5.93756e-06
8.23955e-08
6.74582e-06
8.39605e-07
7.47919e-06
1.46783e-06
8.18026e-06
1.8328e-06
8.84282e-06
2.0032e-06
9.52915e-06
1.90716e-06
1.03312e-05
1.49364e-06
1.11588e-05
8.372e-07
1.18741e-05
-1.05975e-07
1.23938e-05
-1.36208e-06
1.27456e-05
-2.9668e-06
1.30645e-05
-4.9051e-06
1.30799e-05
-6.58808e-06
1.26228e-05
-7.97439e-06
1.16675e-05
-8.76296e-06
1.0212e-05
-8.40622e-06
-6.497e-06
8.56314e-06
8.95891e-07
1.17324e-06
2.15624e-06
-1.69482e-06
2.83324e-06
-1.71569e-06
3.5293e-06
-1.66471e-06
3.96871e-06
-1.34028e-06
4.12118e-06
-6.27643e-07
4.70122e-06
-4.97677e-07
5.58215e-06
-4.1363e-08
6.46814e-06
5.81799e-07
7.29127e-06
1.00963e-06
8.09624e-06
1.19821e-06
8.92589e-06
1.07748e-06
9.82009e-06
5.99427e-07
1.06566e-05
7.14704e-10
1.1274e-05
-7.23473e-07
1.15698e-05
-1.65785e-06
1.14969e-05
-2.89393e-06
1.12277e-05
-4.63588e-06
1.06337e-05
-5.99413e-06
9.59679e-06
-6.93753e-06
8.1486e-06
-7.3148e-06
6.52784e-06
-6.7856e-06
-5.24519e-06
5.27598e-06
1.27875e-06
-1.05505e-07
8.35053e-07
-1.25112e-06
8.52359e-07
-1.73302e-06
1.11276e-06
-1.92515e-06
1.4308e-06
-1.65837e-06
2.04841e-06
-1.2453e-06
2.76721e-06
-1.21652e-06
3.672e-06
-9.4619e-07
4.68362e-06
-4.29863e-07
5.68571e-06
7.51654e-09
6.70073e-06
1.83162e-07
7.68307e-06
9.51331e-08
8.51787e-06
-2.3539e-07
9.21555e-06
-6.96976e-07
9.7486e-06
-1.25654e-06
1.00723e-05
-1.98153e-06
1.01103e-05
-2.93205e-06
9.57416e-06
-4.09974e-06
8.66697e-06
-5.08699e-06
7.42651e-06
-5.69713e-06
5.91608e-06
-5.80446e-06
4.41921e-06
-5.28872e-06
-4.27644e-06
3.45038e-06
-5.74552e-07
4.69045e-07
-1.45942e-06
-3.66269e-07
-1.69194e-06
-1.5005e-06
-1.46872e-06
-2.14836e-06
-8.43109e-07
-2.28399e-06
1.11003e-07
-2.19942e-06
1.05303e-06
-2.15855e-06
2.07023e-06
-1.96339e-06
3.19886e-06
-1.55849e-06
4.3847e-06
-1.17832e-06
5.53506e-06
-9.6719e-07
6.5869e-06
-9.56698e-07
7.47689e-06
-1.12538e-06
8.19972e-06
-1.4198e-06
8.7559e-06
-1.81273e-06
9.08837e-06
-2.31401e-06
9.01181e-06
-2.85548e-06
8.47023e-06
-3.55816e-06
7.51177e-06
-4.12852e-06
6.23144e-06
-4.41679e-06
4.77499e-06
-4.34798e-06
3.40749e-06
-3.92124e-06
-3.29396e-06
2.42503e-06
-2.03648e-06
2.50542e-06
-3.53008e-06
1.12724e-06
-3.83314e-06
-1.1973e-06
-3.39433e-06
-2.58693e-06
-2.52781e-06
-3.15028e-06
-1.39587e-06
-3.33112e-06
-2.03248e-07
-3.35097e-06
9.90573e-07
-3.15703e-06
2.23159e-06
-2.79936e-06
3.51597e-06
-2.46257e-06
4.77563e-06
-2.22675e-06
5.92178e-06
-2.10276e-06
6.90133e-06
-2.10484e-06
7.69961e-06
-2.21799e-06
8.29614e-06
-2.40916e-06
8.60964e-06
-2.6274e-06
8.57645e-06
-2.82216e-06
8.06876e-06
-3.05031e-06
7.11019e-06
-3.16977e-06
5.79608e-06
-3.10247e-06
4.31274e-06
-2.86444e-06
2.94414e-06
-2.55243e-06
-2.26501e-06
1.91537e-06
-9.22174e-07
3.42748e-06
-4.01324e-06
4.21821e-06
-4.93116e-06
-2.79117e-07
-4.61153e-06
-2.90617e-06
-3.72513e-06
-4.03631e-06
-2.31892e-06
-4.73703e-06
-8.94904e-07
-4.77474e-06
3.93625e-07
-4.44535e-06
1.73776e-06
-4.14333e-06
3.16006e-06
-3.88474e-06
4.57725e-06
-3.64382e-06
5.88258e-06
-3.40799e-06
7.01932e-06
-3.24146e-06
7.96576e-06
-3.16432e-06
8.68749e-06
-3.13074e-06
9.11314e-06
-3.05286e-06
9.14311e-06
-2.85187e-06
8.63052e-06
-2.53735e-06
7.53708e-06
-2.07581e-06
5.95912e-06
-1.52385e-06
4.15418e-06
-1.05875e-06
2.49766e-06
-8.95206e-07
-9.0594e-07
1.13918e-06
-2.20677e-06
5.63401e-06
-1.47189e-06
3.48328e-06
-2.76303e-06
1.01263e-06
-3.67472e-06
-1.99369e-06
-3.29235e-06
-4.418e-06
-2.3537e-06
-5.67505e-06
-1.17614e-06
-5.95172e-06
1.5236e-07
-5.77337e-06
1.56368e-06
-5.55426e-06
3.01171e-06
-5.33244e-06
4.43562e-06
-5.06744e-06
5.772e-06
-4.74412e-06
6.94468e-06
-4.4139e-06
7.8825e-06
-4.10187e-06
8.51879e-06
-3.76673e-06
8.79566e-06
-3.32936e-06
8.62907e-06
-2.68483e-06
7.94483e-06
-1.85255e-06
6.79525e-06
-9.25538e-07
5.35734e-06
-8.50914e-08
3.8982e-06
4.0135e-07
2.76018e-06
2.43492e-07
-2.26263e-07
2.08113e-06
3.05559e-06
2.57915e-06
1.75995e-06
4.77954e-06
4.54302e-07
2.31861e-06
-8.51111e-07
-6.88053e-07
-2.08573e-06
-3.18314e-06
-2.89941e-06
-4.8611e-06
-3.03176e-06
-5.8191e-06
-2.54961e-06
-6.25529e-06
-1.91215e-06
-6.1915e-06
-1.41619e-06
-5.8282e-06
-1.04297e-06
-5.44048e-06
-7.11708e-07
-5.07521e-06
-3.97758e-07
-4.72767e-06
-1.21517e-07
-4.37793e-06
7.81337e-08
-3.9662e-06
1.58897e-07
-3.40997e-06
1.08678e-07
-2.63451e-06
-7.52627e-08
-1.6686e-06
-3.75881e-07
-6.24995e-07
-7.68237e-07
3.07191e-07
-1.07827e-06
7.11132e-07
-1.26353e-06
4.28515e-07
1.2546e-08
-1.50319e-06
1.23997e-06
1.34042e-06
1.27573e-06
4.74446e-06
3.04555e-07
3.2898e-06
-1.32782e-06
9.44049e-07
-3.26758e-06
-1.24374e-06
-4.92572e-06
-3.20334e-06
-5.80291e-06
-4.94228e-06
-5.93009e-06
-6.12844e-06
-5.78113e-06
-6.34072e-06
-5.8075e-06
-5.80202e-06
-5.97123e-06
-5.2769e-06
-6.15549e-06
-4.89107e-06
-6.2979e-06
-4.58539e-06
-6.39888e-06
-4.27708e-06
-6.47473e-06
-3.89053e-06
-6.52437e-06
-3.36058e-06
-6.51302e-06
-2.64622e-06
-6.40859e-06
-1.77352e-06
-6.16882e-06
-8.6538e-07
-5.73564e-06
-1.26632e-07
-5.21372e-06
1.88477e-07
-4.75804e-06
-2.81278e-08
-4.28605e-07
-4.31811e-06
-1.5643e-06
2.90531e-06
-1.6495e-06
4.8301e-06
-2.13635e-06
3.77689e-06
-3.38068e-06
2.18847e-06
-5.12605e-06
5.01628e-07
-6.80577e-06
-1.52369e-06
-7.87312e-06
-3.87501e-06
-8.42591e-06
-5.57572e-06
-8.6613e-06
-6.10536e-06
-8.85236e-06
-5.61097e-06
-9.27441e-06
-4.85486e-06
-9.67339e-06
-4.49207e-06
-1.00044e-05
-4.25439e-06
-1.02542e-05
-4.02727e-06
-1.0423e-05
-3.72173e-06
-1.04883e-05
-3.29535e-06
-1.04023e-05
-2.73231e-06
-1.01119e-05
-2.06413e-06
-9.58478e-06
-1.39277e-06
-8.83813e-06
-8.73486e-07
-7.98922e-06
-6.60753e-07
-7.19298e-06
-8.24772e-07
-1.22833e-06
-6.39411e-06
-2.62396e-06
5.53003e-06
-3.45333e-06
5.65993e-06
-4.14518e-06
4.46903e-06
-5.12478e-06
3.16824e-06
-6.46222e-06
1.83917e-06
-7.8173e-06
-1.68559e-07
-9.01874e-06
-2.67356e-06
-9.90585e-06
-4.68858e-06
-1.05276e-05
-5.48357e-06
-1.08483e-05
-5.29018e-06
-1.13051e-05
-4.39796e-06
-1.17031e-05
-4.09405e-06
-1.20199e-05
-3.93749e-06
-1.22527e-05
-3.79439e-06
-1.23918e-05
-3.58252e-06
-1.24061e-05
-3.28105e-06
-1.22499e-05
-2.88854e-06
-1.18841e-05
-2.42996e-06
-1.12958e-05
-1.98106e-06
-1.05219e-05
-1.64737e-06
-9.65373e-06
-1.52902e-06
-8.80098e-06
-1.6778e-06
-2.04751e-06
-7.9824e-06
-2.63848e-06
8.16894e-06
-4.0235e-06
7.04534e-06
-5.02139e-06
5.46722e-06
-5.98169e-06
4.12877e-06
-6.93481e-06
2.79246e-06
-7.94234e-06
8.39086e-07
-9.15627e-06
-1.45954e-06
-1.02928e-05
-3.552e-06
-1.11727e-05
-4.60355e-06
-1.18196e-05
-4.64316e-06
-1.22163e-05
-4.00107e-06
-1.25327e-05
-3.77756e-06
-1.27767e-05
-3.69336e-06
-1.2946e-05
-3.62504e-06
-1.30314e-05
-3.49696e-06
-1.29991e-05
-3.31329e-06
-1.28153e-05
-3.07226e-06
-1.2454e-05
-2.79118e-06
-1.19126e-05
-2.52235e-06
-1.12237e-05
-2.3362e-06
-1.04548e-05
-2.29782e-06
-9.68557e-06
-2.44708e-06
-2.76622e-06
-8.96744e-06
-2.25618e-06
1.04258e-05
-3.73209e-06
8.5217e-06
-4.92365e-06
6.65908e-06
-5.89214e-06
5.0975e-06
-6.654e-06
3.55451e-06
-7.46651e-06
1.65175e-06
-8.48505e-06
-4.40869e-07
-9.71979e-06
-2.31713e-06
-1.08201e-05
-3.50316e-06
-1.16661e-05
-3.79697e-06
-1.20788e-05
-3.58823e-06
-1.23593e-05
-3.49697e-06
-1.25583e-05
-3.49416e-06
-1.26938e-05
-3.48942e-06
-1.27487e-05
-3.44191e-06
-1.27016e-05
-3.36032e-06
-1.25323e-05
-3.24142e-06
-1.22247e-05
-3.09868e-06
-1.17809e-05
-2.96608e-06
-1.12275e-05
-2.88933e-06
-1.06139e-05
-2.9113e-06
-9.99912e-06
-3.062e-06
-3.31194e-06
-9.45383e-06
-1.77248e-06
1.21987e-05
-3.07617e-06
9.82574e-06
-4.19977e-06
7.78296e-06
-5.09873e-06
5.99668e-06
-5.81022e-06
4.26618e-06
-6.55788e-06
2.39957e-06
-7.48465e-06
4.86041e-07
-8.58945e-06
-1.2122e-06
-9.70723e-06
-2.38525e-06
-1.05677e-05
-2.93638e-06
-1.10711e-05
-3.08474e-06
-1.1392e-05
-3.17592e-06
-1.16143e-05
-3.27166e-06
-1.17614e-05
-3.34216e-06
-1.18269e-05
-3.3763e-06
-1.18047e-05
-3.38243e-06
-1.16846e-05
-3.36143e-06
-1.14601e-05
-3.32302e-06
-1.11362e-05
-3.28987e-06
-1.07342e-05
-3.2911e-06
-1.02925e-05
-3.35298e-06
-9.85843e-06
-3.49597e-06
-3.67076e-06
-9.50017e-06
-1.2218e-06
1.3421e-05
-2.23797e-06
1.08423e-05
-3.14572e-06
8.69097e-06
-3.92279e-06
6.77396e-06
-4.60473e-06
4.94828e-06
-5.32165e-06
3.11664e-06
-6.17379e-06
1.33832e-06
-7.1595e-06
-2.26376e-07
-8.14694e-06
-1.3977e-06
-8.96081e-06
-2.12239e-06
-9.52643e-06
-2.519e-06
-9.91405e-06
-2.78817e-06
-1.01907e-05
-2.99493e-06
-1.0381e-05
-3.15169e-06
-1.04902e-05
-3.26697e-06
-1.05211e-05
-3.35141e-06
-1.04723e-05
-3.41017e-06
-1.03436e-05
-3.4516e-06
-1.01426e-05
-3.49069e-06
-9.88873e-06
-3.5448e-06
-9.61125e-06
-3.63032e-06
-9.34892e-06
-3.75848e-06
-3.85625e-06
-9.16384e-06
-6.48138e-07
1.40694e-05
-1.31997e-06
1.15144e-05
-1.98965e-06
9.36087e-06
-2.62666e-06
7.41115e-06
-3.24412e-06
5.5659e-06
-3.9115e-06
3.78416e-06
-4.68139e-06
2.10833e-06
-5.54286e-06
6.35204e-07
-6.40591e-06
-5.34534e-07
-7.15939e-06
-1.3688e-06
-7.74118e-06
-1.9371e-06
-8.18032e-06
-2.34891e-06
-8.51124e-06
-2.66388e-06
-8.75439e-06
-2.90841e-06
-8.92017e-06
-3.10107e-06
-9.01511e-06
-3.25635e-06
-9.04339e-06
-3.3818e-06
-9.00946e-06
-3.48546e-06
-8.92273e-06
-3.57731e-06
-8.79941e-06
-3.66795e-06
-8.66482e-06
-3.76484e-06
-8.5506e-06
-3.8726e-06
-3.90304e-06
-8.50437e-06
-1.33444e-07
1.42033e-05
-4.67083e-07
1.18483e-05
-9.0162e-07
9.79564e-06
-1.38284e-06
7.89255e-06
-1.90426e-06
6.08746e-06
-2.49271e-06
4.37273e-06
-3.16692e-06
2.78265e-06
-3.90993e-06
1.37833e-06
-4.66057e-06
2.16209e-07
-5.34341e-06
-6.85853e-07
-5.91543e-06
-1.36496e-06
-6.37863e-06
-1.8856e-06
-6.74834e-06
-2.29405e-06
-7.03756e-06
-2.61907e-06
-7.25568e-06
-2.88284e-06
-7.41115e-06
-3.10077e-06
-7.51032e-06
-3.28255e-06
-7.55988e-06
-3.43582e-06
-7.56958e-06
-3.56753e-06
-7.55481e-06
-3.68254e-06
-7.5352e-06
-3.78433e-06
-7.5362e-06
-3.87183e-06
-3.8407e-06
-7.59896e-06
2.73973e-07
1.39295e-05
2.19794e-07
1.19027e-05
4.67449e-09
1.00109e-05
-3.12851e-07
8.21023e-06
-7.13323e-07
6.48806e-06
-1.19732e-06
4.85684e-06
-1.76278e-06
3.34821e-06
-2.38842e-06
2.00408e-06
-3.03079e-06
8.58686e-07
-3.63827e-06
-7.82642e-08
-4.17644e-06
-8.26678e-07
-4.63705e-06
-1.42488e-06
-5.02358e-06
-1.90739e-06
-5.34186e-06
-2.30068e-06
-5.59899e-06
-2.6256e-06
-5.80219e-06
-2.89748e-06
-5.95816e-06
-3.12649e-06
-6.07426e-06
-3.31965e-06
-6.16016e-06
-3.48152e-06
-6.22793e-06
-3.61461e-06
-6.29515e-06
-3.71708e-06
-6.38189e-06
-3.785e-06
-3.70679e-06
-6.51639e-06
5.0743e-07
1.34226e-05
6.86087e-07
1.17243e-05
6.69987e-07
1.00272e-05
5.16308e-07
8.36405e-06
2.52555e-07
6.75193e-06
-1.08703e-07
5.21821e-06
-5.54187e-07
3.7938e-06
-1.06054e-06
2.51053e-06
-1.59359e-06
1.39185e-06
-2.11681e-06
4.4506e-07
-2.60211e-06
-3.41265e-07
-3.0367e-06
-9.90174e-07
-3.41709e-06
-1.52688e-06
-3.74438e-06
-1.97328e-06
-4.02223e-06
-2.34763e-06
-4.25581e-06
-2.66379e-06
-4.45093e-06
-2.9313e-06
-4.61426e-06
-3.15625e-06
-4.75396e-06
-3.34173e-06
-4.88142e-06
-3.48697e-06
-5.00903e-06
-3.58933e-06
-5.15192e-06
-3.64231e-06
-3.52366e-06
-5.33542e-06
6.05304e-07
1.28173e-05
9.41752e-07
1.1388e-05
1.08967e-06
9.87944e-06
1.08967e-06
8.36417e-06
9.66609e-07
6.8751e-06
7.37692e-07
5.44723e-06
4.20259e-07
4.11134e-06
3.68573e-08
2.89404e-06
-3.84776e-07
1.81359e-06
-8.16005e-07
8.76398e-07
-1.23312e-06
7.59586e-08
-1.62233e-06
-6.00845e-07
-1.97655e-06
-1.17253e-06
-2.29322e-06
-1.6565e-06
-2.57303e-06
-2.06771e-06
-2.81885e-06
-2.41788e-06
-3.03484e-06
-2.71522e-06
-3.22642e-06
-2.9646e-06
-3.40054e-06
-3.16751e-06
-3.56496e-06
-3.32238e-06
-3.73078e-06
-3.42346e-06
-3.90942e-06
-3.46352e-06
-3.31778e-06
-4.11583e-06
6.01175e-07
1.22165e-05
1.03143e-06
1.0958e-05
1.30458e-06
9.60645e-06
1.43803e-06
8.23084e-06
1.44799e-06
6.86525e-06
1.34972e-06
5.5456e-06
1.16005e-06
4.30111e-06
8.9931e-07
3.15488e-06
5.90653e-07
2.12235e-06
2.57251e-07
1.20991e-06
-8.14318e-08
4.14755e-07
-4.11542e-07
-2.7062e-07
-7.23981e-07
-8.5998e-07
-1.01372e-06
-1.36665e-06
-1.27908e-06
-1.80225e-06
-1.52078e-06
-2.17608e-06
-1.74133e-06
-2.4946e-06
-1.94435e-06
-2.7615e-06
-2.1347e-06
-2.97708e-06
-2.31936e-06
-3.13752e-06
-2.50503e-06
-3.23764e-06
-2.69994e-06
-3.26885e-06
-3.09768e-06
-2.9204e-06
5.41287e-07
1.16752e-05
1.01497e-06
1.04844e-05
1.37532e-06
9.24622e-06
1.61649e-06
7.98979e-06
1.74316e-06
6.73868e-06
1.76498e-06
5.52388e-06
1.69538e-06
4.37082e-06
1.55118e-06
3.29918e-06
1.35138e-06
2.32226e-06
1.11505e-06
1.44635e-06
8.58845e-07
6.71071e-07
5.96322e-07
-7.98297e-09
3.36576e-07
-6.00121e-07
8.59008e-08
-1.11586e-06
-1.52379e-07
-1.56386e-06
-3.77207e-07
-1.95116e-06
-5.89148e-07
-2.28257e-06
-7.90274e-07
-2.56031e-06
-9.84091e-07
-2.78316e-06
-1.17402e-06
-2.94743e-06
-1.36633e-06
-3.04532e-06
-1.56615e-06
-3.06889e-06
-2.88078e-06
-1.78361e-06
4.64835e-07
1.12108e-05
9.49192e-07
1.00002e-05
1.36498e-06
8.83057e-06
1.68709e-06
7.66779e-06
1.90915e-06
6.51673e-06
2.03399e-06
5.39913e-06
2.07034e-06
4.33457e-06
2.03097e-06
3.33865e-06
1.93105e-06
2.42229e-06
1.7862e-06
1.59131e-06
1.61076e-06
8.46629e-07
1.41717e-06
1.85716e-07
1.214e-06
-3.96836e-07
1.00836e-06
-9.10117e-07
8.04795e-07
-1.36019e-06
6.05755e-07
-1.75202e-06
4.11967e-07
-2.08871e-06
2.22731e-07
-2.371e-06
3.65384e-08
-2.59689e-06
-1.50116e-07
-2.76061e-06
-3.40207e-07
-2.85508e-06
-5.38427e-07
-2.87091e-06
-2.67428e-06
-7.45261e-07
3.99503e-07
1.08112e-05
8.78907e-07
9.52094e-06
1.327e-06
8.38259e-06
1.70604e-06
7.28886e-06
2.00089e-06
6.22198e-06
2.20825e-06
5.19188e-06
2.33216e-06
4.21076e-06
2.38154e-06
3.28939e-06
2.36806e-06
2.43587e-06
2.30444e-06
1.65503e-06
2.20287e-06
9.48311e-07
2.07437e-06
3.14324e-07
1.92699e-06
-2.49351e-07
1.76793e-06
-7.50952e-07
1.60225e-06
-1.19441e-06
1.43318e-06
-1.58287e-06
1.26249e-06
-1.91795e-06
1.09065e-06
-2.19911e-06
9.17086e-07
-2.42324e-06
7.41462e-07
-2.58484e-06
5.61254e-07
-2.67483e-06
3.75401e-07
-2.68486e-06
-2.48043e-06
1.81028e-07
3.60689e-07
1.04509e-05
8.33281e-07
9.04855e-06
1.30009e-06
7.91593e-06
1.71705e-06
6.87202e-06
2.06371e-06
5.87543e-06
2.3324e-06
4.9233e-06
2.52357e-06
4.01969e-06
2.64294e-06
3.17012e-06
2.6994e-06
2.37951e-06
2.70323e-06
1.65131e-06
2.66471e-06
9.86938e-07
2.59335e-06
3.85788e-07
2.49671e-06
-1.52613e-07
2.38155e-06
-6.35692e-07
2.25295e-06
-1.06571e-06
2.11453e-06
-1.44437e-06
1.96865e-06
-1.772e-06
1.81678e-06
-2.04717e-06
1.65975e-06
-2.26614e-06
1.49693e-06
-2.42184e-06
1.32901e-06
-2.50675e-06
1.15584e-06
-2.51198e-06
-2.29656e-06
9.71657e-07
3.5506e-07
1.00958e-05
8.28517e-07
8.5752e-06
1.30826e-06
7.4363e-06
1.74966e-06
6.43074e-06
2.13033e-06
5.49486e-06
2.4405e-06
4.61323e-06
2.67856e-06
3.78173e-06
2.84827e-06
3.00051e-06
2.95658e-06
2.2713e-06
3.01199e-06
1.596e-06
3.02322e-06
9.75805e-07
2.99835e-06
4.10758e-07
2.9444e-06
-9.85727e-08
2.86736e-06
-5.58561e-07
2.77196e-06
-9.7022e-07
2.6618e-06
-1.33413e-06
2.5396e-06
-1.64974e-06
2.4073e-06
-1.91482e-06
2.26604e-06
-2.12481e-06
2.11781e-06
-2.27346e-06
1.9622e-06
-2.35116e-06
1.8e-06
-2.34956e-06
-2.13069e-06
1.6336e-06
3.83267e-07
9.71294e-06
8.70785e-07
8.08786e-06
1.36378e-06
6.94343e-06
1.82105e-06
5.97358e-06
2.22138e-06
5.09463e-06
2.55531e-06
4.27941e-06
2.82102e-06
3.51612e-06
3.02171e-06
2.79992e-06
3.16351e-06
2.12959e-06
3.25389e-06
1.50571e-06
3.30047e-06
9.29318e-07
3.31006e-06
4.01254e-07
3.28905e-06
-7.74768e-08
3.24243e-06
-5.11856e-07
3.17426e-06
-9.01974e-07
3.08784e-06
-1.24765e-06
2.98587e-06
-1.54772e-06
2.87062e-06
-1.79952e-06
2.7443e-06
-1.99842e-06
2.60779e-06
-2.1368e-06
2.46367e-06
-2.20686e-06
2.31403e-06
-2.20018e-06
-1.97566e-06
2.15877e-06
4.43503e-07
9.26932e-06
9.60827e-07
7.5706e-06
1.47082e-06
6.43353e-06
1.93882e-06
5.50567e-06
2.34733e-06
4.6862e-06
2.68941e-06
3.93741e-06
2.96501e-06
3.2406e-06
3.17833e-06
2.58667e-06
3.33587e-06
1.97213e-06
3.4449e-06
1.39676e-06
3.51242e-06
8.61876e-07
3.54424e-06
3.69505e-07
3.54587e-06
-7.9037e-08
3.52114e-06
-4.87054e-07
3.47316e-06
-8.53937e-07
3.40467e-06
-1.1791e-06
3.31821e-06
-1.46122e-06
3.21615e-06
-1.69743e-06
3.10061e-06
-1.88282e-06
2.9746e-06
-2.01066e-06
2.83947e-06
-2.07171e-06
2.69799e-06
-2.05843e-06
-1.83609e-06
2.55796e-06
5.32579e-07
8.73707e-06
1.09606e-06
7.00726e-06
1.62873e-06
5.90094e-06
2.10422e-06
5.03025e-06
2.51101e-06
4.27947e-06
2.84704e-06
3.60144e-06
3.11602e-06
2.97168e-06
3.32478e-06
2.37797e-06
3.48136e-06
1.8156e-06
3.59369e-06
1.28448e-06
3.66861e-06
7.87006e-07
3.7111e-06
3.27064e-07
3.72553e-06
-9.34108e-08
3.71426e-06
-4.75738e-07
3.67919e-06
-8.18835e-07
3.62231e-06
-1.12218e-06
3.54581e-06
-1.38471e-06
3.45228e-06
-1.60388e-06
3.34456e-06
-1.77506e-06
3.22468e-06
-1.89065e-06
3.09614e-06
-1.94303e-06
2.96227e-06
-1.92492e-06
-1.70161e-06
2.82754e-06
6.47538e-07
8.08938e-06
1.27343e-06
6.38136e-06
1.83455e-06
5.33985e-06
2.31436e-06
4.55046e-06
2.70968e-06
3.88418e-06
3.02579e-06
3.28535e-06
3.2723e-06
2.7252e-06
3.46026e-06
2.19003e-06
3.60043e-06
1.67545e-06
3.7021e-06
1.18283e-06
3.77235e-06
7.1678e-07
3.81535e-06
2.84076e-07
3.83389e-06
-1.11935e-07
3.82846e-06
-4.70297e-07
3.7994e-06
-7.89765e-07
3.74777e-06
-1.07055e-06
3.67558e-06
-1.31253e-06
3.58553e-06
-1.51384e-06
3.48045e-06
-1.66998e-06
3.36434e-06
-1.77447e-06
3.23932e-06
-1.81812e-06
3.10882e-06
-1.79421e-06
-1.57714e-06
2.98381e-06
7.8604e-07
7.30353e-06
1.49014e-06
5.67726e-06
2.08452e-06
4.74544e-06
2.56376e-06
4.0712e-06
2.9362e-06
3.51172e-06
3.21764e-06
3.0039e-06
3.42584e-06
2.51698e-06
3.57758e-06
2.03828e-06
3.68721e-06
1.5658e-06
3.76595e-06
1.10406e-06
3.82131e-06
6.61404e-07
3.85655e-06
2.48816e-07
3.87223e-06
-1.27625e-07
3.86628e-06
-4.64371e-07
3.83706e-06
-7.60573e-07
3.78471e-06
-1.01823e-06
3.71118e-06
-1.23905e-06
3.61965e-06
-1.42237e-06
3.51402e-06
-1.56439e-06
3.39733e-06
-1.65776e-06
3.27383e-06
-1.69456e-06
3.14736e-06
-1.66815e-06
-1.45613e-06
3.0261e-06
9.47516e-07
6.3556e-06
1.74481e-06
4.87979e-06
2.3741e-06
4.11604e-06
2.84377e-06
3.60146e-06
3.17864e-06
3.17679e-06
3.40898e-06
2.7735e-06
3.56298e-06
2.36292e-06
3.6641e-06
1.93711e-06
3.73074e-06
1.49912e-06
3.77623e-06
1.05852e-06
3.80858e-06
6.2901e-07
3.8299e-06
2.27441e-07
3.83767e-06
-1.35445e-07
3.8263e-06
-4.53047e-07
3.79165e-06
-7.25979e-07
3.7331e-06
-9.59745e-07
3.65315e-06
-1.15917e-06
3.55585e-06
-1.32515e-06
3.44553e-06
-1.45413e-06
3.32705e-06
-1.5393e-06
3.2036e-06
-1.57126e-06
3.079e-06
-1.54337e-06
-1.34454e-06
2.96689e-06
1.13416e-06
5.22146e-06
2.03601e-06
3.97782e-06
2.69563e-06
3.45627e-06
3.13985e-06
3.15711e-06
3.41807e-06
2.89847e-06
3.5797e-06
2.61179e-06
3.66471e-06
2.27783e-06
3.70305e-06
1.89869e-06
3.71666e-06
1.48543e-06
3.72081e-06
1.05429e-06
3.72406e-06
6.25687e-07
3.72732e-06
2.24103e-07
3.72404e-06
-1.32238e-07
3.70368e-06
-4.32758e-07
3.6591e-06
-6.81489e-07
3.58951e-06
-8.90246e-07
3.49875e-06
-1.06851e-06
3.39242e-06
-1.21893e-06
3.27619e-06
-1.33801e-06
3.15438e-06
-1.41752e-06
3.03146e-06
-1.44834e-06
2.91132e-06
-1.42376e-06
-1.23744e-06
2.80393e-06
1.35291e-06
3.86801e-06
2.35955e-06
2.97086e-06
3.03157e-06
2.78406e-06
3.4248e-06
2.76373e-06
3.62439e-06
2.69877e-06
3.70199e-06
2.53409e-06
3.70785e-06
2.27187e-06
3.67601e-06
1.93044e-06
3.63029e-06
1.53105e-06
3.58739e-06
1.0971e-06
3.55685e-06
6.56142e-07
3.53917e-06
2.41699e-07
3.52303e-06
-1.16191e-07
3.4909e-06
-4.00725e-07
3.43242e-06
-6.23102e-07
3.34756e-06
-8.05493e-07
3.2429e-06
-9.63958e-07
3.12603e-06
-1.10218e-06
3.0032e-06
-1.21527e-06
2.87987e-06
-1.29427e-06
2.75926e-06
-1.32799e-06
2.64521e-06
-1.30957e-06
-1.14322e-06
2.5504e-06
1.61191e-06
2.25598e-06
2.69619e-06