/*--------------------------------*- C++ -*----------------------------------*\
  =========                 |
  \\      /  F ield         | OpenFOAM: The Open Source CFD Toolbox
   \\    /   O peration     | Website:  https://openfoam.org
    \\  /    A nd           | Version:  13
     \\/     M anipulation  |
\*---------------------------------------------------------------------------*/
FoamFile
{
    format      ascii;
    class       volScalarField;
    location    "2.7";
    object      rho;
}
// * * * * * * * * * * * * * * * * * * * * * * * * * * * * * * * * * * * * * //

dimensions      [1 -3 0 0 0 0 0];

internalField   nonuniform List<scalar> 
2268
(
13529
13529
13529
13529
13529
13529
13529
13529
13529
13529
13529
13529
13529
13529
13529
13529
13529
13529
13529
13528.4
13522.8
13521.6
13521.6
13529
13529
13529
13529
13529
13529
13529
13529
13529
13529
13529
13529
13529
13529
13529
13529
13529
13529
13529
13528.9
13527.7
13526.9
13527.8
13529
13529
13529
13529
13529
13529
13529
13529
13529
13529
13529
13529
13529
13529
13529
13529
13529
13529
13529
13529
13529
13529
13529
13529
13529
13529
13529
13529
13529
13529
13529
13529
13529
13529
13529
13529
13529
13529
13529
13529
13529
13529
13529
13529
13529
13529
13529
13444.4
13434.7
13489
13529
13529
13529
13529
13529
13529
13529
13529
13529
13529
13529
13529
13529
13529
13529
13529
13529
13529
13529
5709.14
5815.65
5963.96
6353.42
7031.84
7976.5
9098.78
10264.8
11229.8
12083.5
12800.3
13338.7
13529
13529
13529
13529
13529
13529
13529
13529
13529
13529
13526.3
1000
1000
1000
1002.63
1023.16
1062.42
1138.01
1354.96
1934.15
2747.49
3802.24
5130.05
6851.1
8706.26
10357.2
11654.2
12617.2
13194.3
13332.2
13427.6
13482
13451.5
13363.1
1000
1000
1000
1000
999.996
999.997
999.999
1000
1000
1000
1000
1000
1012.65
1197.54
1643.8
2449.6
3501.03
4746.19
6198.49
7279.18
7750.16
7382.21
6815.57
11941
11946.7
11947.8
11942
11817.2
9309.55
8955.7
9027.43
9278.52
9345.36
8931.1
8710.42
9314.45
10336.3
10343.1
10360.3
10319.4
10299.5
10304.3
11216.8
11418.3
11244.8
11324
11478.5
11428.4
11229.2
11259
11245.5
11210.4
10665.1
9523.78
10217.6
10273.8
10285.2
10286.5
10299.6
10299.7
10304.1
7390.24
7247.46
6608.81
6053.71
6866.44
7889.59
8047
8005.45
7658.39
8452.48
8166.89
8369.96
8131.86
8146.75
8448.4
8715.5
8238.86
7652.79
7299.1
4377.84
3299.19
2910.61
2542.72
2129.11
1846.28
2080.9
1924.93
2096.93
1801.34
3175.18
3613.57
3489.5
2974.23
2501.54
1745.57
1962.82
2500.59
3350
1730.61
1828.63
2117.88
2373.34
1605.42
1074.76
1053.86
1120.27
1325.43
1055.15
606.035
1078.95
1623.71
1064.23
589.519
770.753
815.777
910.154
561.133
1799.16
1945.98
2003.03
2074.11
2067.86
1395.75
1293.63
1356.33
1478
1144.47
1006.48
600.788
273.609
556.499
914.642
999.894
999.897
999.883
664.116
1541.46
1448.07
1497.67
1616.48
1893.61
1710.09
1604.81
1793.64
1315.73
1099.18
1006.83
994.066
287.927
638.396
999.884
1000
999.872
998.961
746.725
1156.76
1183.61
1142.24
1101.14
1159.16
1671.64
1718.93
1437.18
1000.09
1008.65
1006.09
973.046
379.377
761.645
998.159
1000.06
999.095
996.764
826.596
1000
1000
999.94
999.9
999.941
999.999
1000
1000
1000
1000
1000
1000
1000
1000
1000
1000
1000
1000
1000
999.996
999.988
998.198
994.852
992.39
995.325
998.307
999.329
999.982
1000
1000
1000
1000
1000
1000
1000
1000
1000
1000
1000
1000
1000
999.999
999.999
999.985
989.818
971.12
887.353
953.282
992.346
996.72
999.629
1000
997.813
997.984
999.888
1000
1000
1000
999.999
997.649
997.014
999.002
997.031
992.922
983.783
964.217
921.949
858.639
741.735
681.911
665.65
690.439
718.336
772.519
837.093
837.066
831.305
839.382
845.601
846.34
836.282
811.284
793.282
785.425
773.077
740.184
682.395
621.314
572.477
534.56
499.374
452.934
449.902
497.901
499.745
499.962
498.127
456.48
462.726
462.865
454.418
450.506
441.047
440.644
459.97
463.335
449.607
431.49
436.53
482.396
496.833
497.735
499.472
498.172
478.196
499.893
500.152
499.917
500
485.288
475.85
492.633
499.988
494.338
488.116
491.158
495.293
497.85
499.025
498.075
498.421
500
500
500
500
499.534
499.531
500.131
499.911
500.36
500.026
500
500
500
500
500
500
500
500
500
500
500
500
500
500
500
500
500
500.004
500.005
500.001
432.471
428.871
436.839
446.348
455.347
458.208
464.538
473.462
477.299
478.354
477.415
474.57
469.625
462.921
454.384
442.876
428.397
412.097
396.66
384.416
377.351
377.894
384.599
83.1406
67.5331
71.0971
85.0575
100.768
117.724
127.554
130.824
133.482
134.351
130.981
122.615
111.035
98.0273
84.3442
70.4092
57.1173
45.2077
35.6772
28.9133
25.2124
24.8336
27.8845
1.00327
1.0011
1.00014
1.00139
1.00005
1.00011
1.00014
1.00007
1.00003
1.00002
1.00002
1.00004
1.00005
1.00003
1.00001
1
1
1
1
1.00001
1.00001
1.00002
1.00003
1.00095
1.00093
1.00115
1.00067
1.00019
1.00015
1.00024
1.00052
1.00039
1.00009
1.00002
1.00002
1.00003
1.00003
1.00003
1.00004
1.00003
1.00003
1.00003
1.00003
1.00004
1.00007
1.00011
1.00122
1.00278
1.00376
1.00122
1.00019
1.00068
1.00351
1.01452
1.0088
1.00112
1.00017
1.00015
1.00016
1.00017
1.0002
1.00016
1.00012
1.0001
1.00009
1.00007
1.00007
1.00008
1.0001
1.00157
1.00679
1.01757
1.00872
1.00023
1.00117
1.03995
1.08357
1.07438
1.00418
1.00077
1.00052
1.00049
1.00049
1.00036
1.00025
1.00014
1.00012
1.00009
1.00006
1.00006
1.00005
1.00006
1.00182
1.01518
1.03012
1.02657
1.00226
1.00322
1.06423
1.08285
1.0839
1.06578
1.00326
1.00315
1.00141
1.0011
1.00069
1.00024
1.00017
1.00013
1.0001
1.00007
1.00006
1.00004
1.00004
1.00123
1.01229
1.02893
1.02793
1.00216
1.00053
1.01736
1.08099
1.08193
1.0745
1.00326
1.00327
1.00327
1.00325
1.00109
1.00011
1.00014
1.00013
1.00011
1.00007
1.00006
1.00004
1.00003
1.00076
1.00371
1.01438
1.01074
1.00038
1.00011
1.00045
1.01011
1.03238
1.01874
1.00182
1.00291
1.00328
1.00311
1.00068
1.00009
1.00011
1.0001
1.00009
1.00007
1.00006
1.00003
1.00003
1.00056
1.00101
1.00107
1.0007
1.00016
1.00006
1.00009
1.00012
1.00007
1.00008
1.0002
1.00072
1.0017
1.00107
1.0001
1.0001
1.00011
1.00008
1.00006
1.00005
1.00004
1.00003
1.00002
1.00043
1.00047
1.00022
1.00011
1.00006
1.00005
1.00005
1.00006
1.00007
1.00009
1.00019
1.00043
1.00054
1.00025
1.00003
1.00006
1.00006
1.00005
1.00004
1.00003
1.00003
1.00002
1.00002
1.00032
1.00031
1.00015
1.00006
1.00005
1.00005
1.00005
1.00005
1.00003
1.00003
1.00011
1.00032
1.0004
1.00022
1.00005
1.00003
1.00003
1.00003
1.00002
1.00002
1.00002
1.00001
1.00001
1.0002
1.00024
1.00014
1.00006
1.00004
1.00004
1.00004
1.00003
1.00002
1.00002
1.00005
1.00015
1.00023
1.00009
1.00003
1.00002
1.00002
1.00002
1.00001
1.00001
1.00001
1.00001
1.00001
1.00013
1.00016
1.0001
1.00005
1.00004
1.00003
1.00003
1.00002
1.00002
1.00002
1.00003
1.00005
1.00005
1.00003
1.00002
1.00001
1.00001
1.00001
1.00001
1.00001
1.00001
1
1
1.00008
1.0001
1.00007
1.00005
1.00003
1.00003
1.00002
1.00002
1.00001
1.00001
1.00002
1.00002
1.00001
1.00001
1.00001
1.00001
1.00001
1.00001
1
1
1
1
1
1.00006
1.00007
1.00005
1.00004
1.00003
1.00002
1.00002
1.00001
1.00001
1.00001
1.00001
1.00001
1.00001
1.00001
1
1
1
1
1
1
1
1
1
1.00004
1.00005
1.00004
1.00003
1.00002
1.00002
1.00001
1.00001
1.00001
1.00001
1
1
1
1
1
1
1
1
1
1
1
1
1
1.00004
1.00004
1.00003
1.00003
1.00002
1.00001
1.00001
1.00001
1
1
1
1
1
1
1
1
1
1
1
1
1
1
1
1.00003
1.00003
1.00003
1.00002
1.00002
1.00001
1.00001
1
1
1
1
1
1
1
1
1
1
1
1
1
1
1
1
1.00003
1.00003
1.00002
1.00002
1.00001
1.00001
1.00001
1
1
1
1
1
1
1
1
1
1
1
1
1
1
1
1
1.00002
1.00002
1.00001
1.00001
1.00001
1.00001
1
1
1
1
1
1
1
1
1
1
1
1
1
1
1
1
1
1.00002
1.00001
1.00001
1.00001
1.00001
1
1
1
1
1
1
1
1
1
1
1
1
1
1
1
1
1
1
1.00002
1.00001
1.00001
1.00001
1
1
1
1
1
1
1
1
1
1
1
1
1
1
1
1
1
1
1
1.00001
1.00001
1.00001
1
1
1
1
1
1
1
1
1
1
1
1
1
1
1
1
1
1
1
1
1.00001
1.00001
1
1
1
1
1
1
1
1
1
1
1
1
1
1
1
1
1
1
1
1
1
1.00001
1
1
1
1
1
1
1
1
1
1
1
1
1
1
1
1
1
1
1
1
1
1
1
1
1
1
1
1
1
1
1
1
1
1
1
1
1
1
1
1
1
1
1
1
1
1
1
1
1
1
1
1
1
1
1
1
1
1
1
1
1
1
1
1
1
1
1
1
1
1
1
1
1
1
1
1
1
1
1
1
1
1
1
1
1
1
1
1
1
1
1
1
1
1
1
1
1
1
1
1
1
1
1
1
1
1
1
1
1
1
1
1
1
1
1
1
1
1
1
1
1
1
1
1
1
1
1
1
1
1
1
1
1
1
1
1
1
1
1
1
1
1
1
1
1
1
1
1
1
1
1
1
1
1
1
1
1
1
1
1
1
1
1
1
1
1
1
1
1
1
1
1
1
1
1
1
1
1
1
1
1
1
1
1
1
1
1
1
1
1
1
1
1
1
1
1
1
1
1
1
1
1
1
1
1
1
1
1
1
1
1
1
1
1
1
1
1
1
1
1
1
1
1
1
1
1
1
1
1
1549.81
1655.71
1693.25
1125.3
964.001
980.7
994.98
995.107
676.559
647.303
728.499
803.567
432.307
431.974
431.693
456.579
481.053
494.06
502.671
502.768
500.166
500.086
500.004
500.006
500.001
500
500.003
500.007
399.908
408.6
416.634
424.651
36.8857
42.3983
47.3272
51.6401
1.00004
1.00004
1.00004
1.00006
1.00012
1.00012
1.00012
1.00017
1.00011
1.00012
1.00013
1.00013
1.00008
1.0001
1.00008
1.0001
1.00005
1.00005
1.00006
1.00006
1.00003
1.00004
1.00003
1.00004
1.00002
1.00002
1.00002
1.00002
1.00002
1.00002
1.00001
1.00001
1.00001
1.00001
1.00001
1.00001
1.00001
1.00001
1.00001
1.00001
1.00001
1
1
1
1
1
1
1
1
1
1
1
1
1
1
1
1
1
1
1
1
1
1
1
1
1
1
1
1
1
1
1
1
1
1
1
1
1
1
1
1
1
1
1
1
1
1
1
1
1
1
1
1
1
1
1
1
1
1
1
1
1
1
1
1
1
1
1
1
1
1
1
1
1
1
1
1
1
1
1
1
1
1
1
1
1
1
1
1
1
1
1
1027.33
1118.19
1142.35
1035.16
935.449
1093.16
1150.65
977.927
999.479
999.677
1000.83
999.366
938.441
989.406
999.886
999.902
1000.92
937.733
857.058
999.18
1053.91
1094.28
908.85
884.787
961.862
852.083
852.629
958.53
982.493
994.975
996.481
996.772
994.356
972.156
916.626
849.235
834.241
814.264
736.467
657.75
705.505
754.521
758.365
560.251
615.22
649.505
617.311
620.915
636.289
675.731
737.921
711.337
646.284
587.645
578.436
614.878
670.991
461.332
443.661
454.898
506.821
497.229
443.748
430.817
425.544
477.344
500.636
500.008
499.995
499.974
499.969
500.323
500.769
501.803
534.473
554.556
502.835
499.2
499.288
500.165
499.978
493.484
469.046
476.218
496.762
500.059
500.039
500.019
500.002
500.001
500.034
500.186
500.214
500.566
500.24
500.007
500.007
500.001
499.951
499.986
500.02
500.005
500
500
500
500.002
500.002
500.001
500.001
499.999
499.974
499.982
500.029
500.175
500.004
500.002
500.001
500.003
500.007
500.007
500.003
500.001
500.001
500
500
500.001
500.019
500.054
500.007
499.997
499.997
500.03
500.038
434.78
453.45
466.756
475.942
483.187
488.948
493.235
496.463
498.596
499.893
499.999
499.999
500.005
500.009
501.609
513.449
527.334
526.352
510.753
56.3997
70.8819
85.4022
98.2639
110.329
121.689
130.436
136.821
143.928
156.33
176.938
207.027
246.537
290.411
319.76
345.025
356.554
369.653
369.049
1.00013
1.00018
1.00026
1.00044
1.00083
1.00432
1.01061
1.0287
1.06159
1.06703
1.46854
1.99133
3.05375
8.10102
24.045
38.9913
47.4893
44.2257
40.4548
1.00024
1.00036
1.00131
1.09269
1.23784
1.32327
1.32882
1.14752
1.1176
1.14707
1.28384
1.62057
1.85995
2.59868
2.33865
1.72878
2.5493
1.39985
1.74159
1.00016
1.00039
1.00181
1.15572
1.45067
1.45877
1.39063
1.05744
1.01707
1.04093
1.36635
1.46966
1.47625
1.29069
1.00007
1.00007
1.00009
1.00006
1.0074
1.0001
1.00016
1.00025
1.00006
1.00009
1.03211
1.00033
1.00125
1.00131
1.01023
1.11229
1.24982
1.1564
1.05797
1.00113
1.00013
1.00021
1.00016
1.00005
1.00007
1.00006
1.00005
1.00006
1.00007
1.00011
1.00058
1.00128
1.00115
1.00215
1.00055
1.00193
1.00009
1.0001
1.00045
1.00033
1.00034
1.00025
1.00014
1.00004
1.00005
1.00005
1.00007
1.00009
1.0001
1.00013
1.0002
1.00028
1.00023
1.00023
1.00012
1.00011
1.00011
1.00023
1.00029
1.00031
1.00024
1.0002
1.00002
1.00003
1.00005
1.00008
1.00011
1.00013
1.00012
1.00013
1.00015
1.00017
1.00017
1.00014
1.00012
1.0001
1.00014
1.00018
1.00017
1.00017
1.00017
1.00001
1.00002
1.00003
1.00004
1.00007
1.00009
1.0001
1.0001
1.00009
1.0001
1.00012
1.00011
1.00009
1.00006
1.00007
1.00007
1.00008
1.00007
1.00007
1.00001
1.00001
1.00001
1.00001
1.00002
1.00003
1.00004
1.00004
1.00004
1.00004
1.00005
1.00005
1.00005
1.00003
1.00003
1.00003
1.00003
1.00002
1.00002
1.00001
1.00001
1.00001
1.00001
1.00001
1.00001
1.00001
1.00001
1.00001
1.00002
1.00002
1.00002
1.00002
1.00002
1.00001
1.00001
1.00001
1.00001
1.00001
1
1
1
1
1
1
1.00001
1.00001
1.00001
1.00001
1.00001
1.00001
1.00001
1.00001
1.00001
1.00001
1.00001
1.00001
1.00001
1
1
1
1
1
1
1
1
1
1
1
1
1
1
1
1.00001
1.00001
1.00001
1.00002
1
1
1
1
1
1
1
1
1
1
1
1
1
1
1
1.00001
1.00001
1.00002
1.00002
1
1
1
1
1
1
1
1
1
1
1
1
1
1
1
1.00001
1.00001
1.00003
1.00004
1
1
1
1
1
1
1
1
1
1
1
1
1
1
1
1.00001
1.00001
1.00004
1.00004
1
1
1
1
1
1
1
1
1
1
1
1
1
1
1
1.00001
1.00001
1.00004
1.00004
1
1
1
1
1
1
1
1
1
1
1
1
1
1
1
1
1.00002
1.00005
1.00004
1
1
1
1
1
1
1
1
1
1
1
1
1
1
1
1
1.00002
1.00005
1.00002
1
1
1
1
1
1
1
1
1
1
1
1
1
1
1
1
1.00002
1.00005
1.00002
1
1
1
1
1
1
1
1
1
1
1
1
1
1
1
1
1.00002
1.00005
1.00001
1
1
1
1
1
1
1
1
1
1
1
1
1
1
1
1
1.00002
1.00004
1.00001
1
1
1
1
1
1
1
1
1
1
1
1
1
1
1
1.00001
1.00002
1.00003
1.00001
1
1
1
1
1
1
1
1
1
1
1
1
1
1
1
1.00001
1.00002
1.00002
1
1
1
1
1
1
1
1
1
1
1
1
1
1
1
1
1.00001
1.00001
1
1
1
1
1
1
1
1
1
1
1
1
1
1
1
1
1
1.00001
1.00001
1
1
1
1
1
1
1
1
1
1
1
1
1
1
1
1
1
1
1
1
1
1
1
1
1
1
1
1
1
1
1
1
1
1
1
1
1
1
1
1
1
1
1
1
1
1
1
1
1
1
1
1
1
1
1
1
1
1
1
1
1
1
1
1
1
1
1
1
1
1
1
1
1
1
1
1
1
1
1
1
1
1
1
1
1
1
1
1
1
1
1
1
1
1
1
1
1
1
1
1
1
1
1
1
1
1
1
1
1
1
1
1
1
1
1
1
1
1
1
1
1
1
1
1
1
1
1
1
1
1
1
1
1
1
1
1
1
1
1
1
1
1
1
1
1
1
1
1
1
1
1
1
1
1
)
;

boundaryField
{
    leftWall
    {
        type            calculated;
        value           nonuniform List<scalar> 
50
(
13529
13529
13529
13529
13529
5709.14
1000
1000
1000
992.39
887.353
681.911
449.902
499.893
499.911
432.471
83.1406
1.00327
1.00095
1.00122
1.00157
1.00182
1.00123
1.00076
1.00056
1.00043
1.00032
1.0002
1.00013
1.00008
1.00006
1.00004
1.00004
1.00003
1.00003
1.00002
1.00002
1.00002
1.00001
1.00001
1.00001
1
1
1
1
1
1
1
1
1
)
;
    }
    rightWall
    {
        type            calculated;
        value           nonuniform List<scalar> 
50
(
10304.3
10304.1
7299.1
3350
561.133
664.116
746.725
826.596
857.058
814.264
670.991
554.556
500.24
500.175
500.038
510.753
369.049
40.4548
1.74159
1.0074
1.00005
1.00014
1.0002
1.00017
1.00007
1.00002
1.00001
1.00001
1.00002
1.00002
1.00004
1.00004
1.00004
1.00004
1.00002
1.00002
1.00001
1.00001
1.00001
1
1
1
1
1
1
1
1
1
1
1
)
;
    }
    lowerWall
    {
        type            calculated;
        value           nonuniform List<scalar> 
62
(
13529
13529
13529
13529
13529
13529
13529
13529
13529
13529
13529
13529
13529
13529
13529
13529
13529
13529
13529
13528.4
13522.8
13521.6
13521.6
13521.6
13527.8
13529
13529
13529
13526.3
13363.1
6815.57
1549.81
1655.71
1693.25
1125.3
11941
11216.8
7390.24
4377.84
1730.61
1799.16
1541.46
1156.76
11941
11946.7
11947.8
11942
11817.2
9309.55
8955.7
9027.43
9278.52
9345.36
8931.1
8710.42
9314.45
10336.3
10343.1
10360.3
10319.4
10299.5
10304.3
)
;
    }
    atmosphere
    {
        type            calculated;
        value           nonuniform List<scalar> 
46
(
1
1
1
1
1
1
1
1
1
1
1
1
1
1
1
1
1
1
1
1
1
1
1
1
1
1
1
1
1
1
1
1
1
1
1
1
1
1
1
1
1
1
1
1
1
1
)
;
    }
    defaultFaces
    {
        type            empty;
    }
}


// ************************************************************************* //
