/*--------------------------------*- C++ -*----------------------------------*\
  =========                 |
  \\      /  F ield         | OpenFOAM: The Open Source CFD Toolbox
   \\    /   O peration     | Website:  https://openfoam.org
    \\  /    A nd           | Version:  13
     \\/     M anipulation  |
\*---------------------------------------------------------------------------*/
FoamFile
{
    format      ascii;
    class       volScalarField;
    location    "0.4";
    object      alpha.oil;
}
// * * * * * * * * * * * * * * * * * * * * * * * * * * * * * * * * * * * * * //

dimensions      [];

internalField   nonuniform List<scalar> 
2268
(
2.80919e-49
6.67433e-47
6.71059e-45
1.38212e-43
2.4112e-42
5.08266e-41
1.89875e-40
5.06844e-40
-5.14672e-33
-1.02307e-29
-2.67971e-28
-4.8565e-27
1.42959e-17
2.22371e-16
1.06213e-15
1.75642e-14
2.78696e-13
1.11252e-12
4.4889e-12
1.78524e-11
2.86311e-11
1.49464e-12
0.00068702
9.42787e-52
8.83483e-45
1.2136e-42
2.49918e-41
4.15374e-40
9.5265e-39
4.71743e-38
8.31182e-38
-1.17368e-31
-2.7185e-28
-6.90705e-27
-1.19089e-25
7.3353e-19
8.02141e-16
5.67971e-15
9.26979e-15
7.75129e-14
1.36474e-11
8.36564e-11
1.9535e-10
1.84536e-10
-2.42803e-13
0.000691922
5.0904e-45
3.35154e-43
4.08569e-41
8.22898e-40
1.32122e-38
2.95738e-37
2.48664e-36
3.93746e-36
-1.26183e-30
-3.70422e-27
-9.20708e-26
-1.54309e-24
6.69292e-19
4.01455e-15
3.57987e-14
7.88809e-14
4.02468e-12
4.44415e-12
5.49997e-12
7.53441e-12
3.72898e-11
1.49635e-12
0.000584518
6.72106e-43
4.0019e-42
5.0085e-40
9.70288e-39
1.58029e-37
2.74757e-36
3.25585e-35
5.40634e-35
-7.94595e-30
-3.41539e-26
-8.37519e-25
-1.37561e-23
1.64145e-19
6.71331e-15
1.09317e-13
3.82003e-13
3.78444e-13
2.64e-10
1.23459e-09
1.74793e-09
2.49743e-09
4.9187e-10
7.65251e-05
1.26411e-40
2.56462e-40
1.52297e-38
3.66721e-37
4.97897e-36
7.62552e-35
7.95302e-34
1.672e-32
-2.61082e-29
-2.38401e-25
-5.82507e-24
-9.42667e-23
1.73753e-19
2.89656e-15
2.19602e-13
3.47289e-13
3.59156e-13
1.27956e-08
2.05994e-08
1.23877e-08
5.44656e-09
9.27598e-10
6.81221e-08
2.76418e-37
4.20672e-37
1.62895e-35
3.54513e-34
4.79926e-33
6.08857e-32
5.385e-31
9.39265e-30
5.51895e-30
-1.33604e-24
-3.29415e-23
-5.27869e-22
8.37394e-17
7.15291e-15
6.61703e-14
3.24954e-12
8.50056e-12
1.01917e-08
1.79943e-08
9.31161e-09
9.58529e-10
9.30045e-10
4.93522e-08
1.9198e-35
3.02496e-35
1.03149e-33
1.84405e-32
2.53524e-31
2.99098e-30
2.42169e-29
2.61355e-28
1.26041e-27
-6.21918e-24
-1.57394e-22
-2.51192e-21
2.82895e-15
1.84555e-13
7.56778e-13
1.31819e-11
2.62247e-11
2.75525e-09
2.68006e-09
6.00615e-06
2.378e-06
8.34464e-07
1.25988e-06
1.22273e-34
2.07344e-34
6.67789e-33
1.03257e-31
1.32333e-30
1.4976e-29
1.15609e-28
1.03739e-27
8.38757e-27
-2.45354e-23
-6.52576e-22
-1.04496e-20
1.12713e-14
7.434e-13
3.81375e-12
1.79494e-11
8.01697e-11
7.72309e-12
9.24514e-06
4.9742e-05
2.94355e-05
9.55428e-07
1.0386e-06
0.999962
1
1
1
0.999981
0.999915
0.9999
0.999894
0.99989
0.999892
0.999976
1
1
0.998053
0.994928
0.995104
1
0.901605
0.914463
1
1
1
1
1
1
1
1
1
1
1
1
1
0.999976
0.998906
0.99883
1
0.900746
0.869383
0.999898
1
0.973792
0.84383
0.818741
0.89893
1
1
1
1
1
1
1
1
1
1
1
0.93136
0.869281
0.999889
0.95713
0.457505
0.0827219
0.0439894
0.0928922
0.474497
0.977512
1
1
1
1
1
1
1
1
1
0.98547
0.890402
0.999835
0.976201
0.0915413
3.56506e-06
-1.13621e-08
4.70574e-24
1.49984e-07
0.399515
0.988093
0.999992
1
1
1
1
1
1
1
1
0.986118
0.999752
0.840042
0.12217
1.18265e-06
7.49069e-07
2.23601e-08
0.00074987
0.128122
0.920899
0.999996
1
1
1
1
1
1
1
1
1
0.999661
0.756319
0.0967828
1.96828e-05
-6.89242e-09
1.15649e-08
0.0588323
0.465039
0.970886
1
1
1
1
1
1
1
1
1
1
0.999557
0.941498
0.412331
0.00801778
9.31484e-05
1.15509e-07
0.363514
0.932985
0.999998
1
1
1
1
1
1
1
1
1
1
7.06256e-34
1.32214e-33
4.02488e-32
5.27108e-31
6.06979e-30
6.4426e-29
5.17582e-28
4.17874e-27
4.13933e-26
-8.23941e-23
-2.3798e-21
-3.85345e-20
2.96441e-14
1.55938e-12
1.12278e-11
9.44493e-11
1.41361e-10
6.47346e-12
1.57679e-05
5.24607e-05
3.31201e-05
0.00377045
0.000112482
6.57321e-33
1.29205e-32
3.96839e-31
4.45496e-30
4.93886e-29
4.74459e-28
4.98401e-27
3.6063e-26
3.37329e-25
-3.67923e-22
-1.24376e-20
-2.05657e-19
3.99085e-14
2.1907e-13
2.04368e-12
1.93678e-11
8.1902e-11
5.24856e-12
2.88702e-06
4.20951e-10
0.00571566
0.0183547
0.0131498
3.88396e-32
1.16474e-31
3.56282e-30
3.63315e-29
3.37846e-28
2.68121e-27
4.08479e-26
2.6372e-25
2.04918e-24
-1.17525e-21
-5.23228e-20
-8.89545e-19
4.84653e-15
4.30153e-14
-1.82351e-12
3.34309e-15
1.0309e-11
7.47444e-12
1.99771e-07
4.11365e-10
0.00399985
0.00284148
0.00498629
5.11242e-31
9.76533e-31
2.09638e-29
2.09611e-28
1.68812e-27
1.0971e-26
2.05338e-25
1.29312e-24
8.59361e-24
-2.45513e-21
-1.82371e-19
-3.21911e-18
1.47246e-15
3.82486e-14
-5.26604e-11
1.85276e-12
5.39564e-12
1.1835e-11
1.00126e-09
4.18208e-10
8.23509e-05
-1.09376e-07
0.00187456
1.29726e-29
2.51217e-29
6.00703e-28
6.90898e-27
6.64995e-26
5.04205e-25
3.16405e-24
1.60795e-23
1.1352e-22
-1.85043e-21
-5.34195e-19
-9.96224e-18
4.91204e-10
1.01743e-13
-4.34881e-10
1.18754e-08
2.57033e-09
2.35266e-09
2.17808e-09
1.10427e-09
8.55265e-09
-7.02114e-10
6.30477e-11
7.49421e-28
1.84568e-27
5.02086e-26
7.17746e-25
8.11176e-24
7.33003e-23
4.55309e-22
2.43627e-21
9.77352e-21
1.47842e-20
-1.2973e-18
-2.67475e-17
2.04298e-08
2.4288e-14
-1.14888e-09
-3.00911e-10
1.39361e-05
1.10027e-06
6.34005e-11
1.16493e-10
9.1895e-10
6.49423e-10
4.77364e-11
6.45379e-27
2.15307e-26
5.85502e-25
9.24272e-24
1.10484e-22
1.07533e-21
7.86872e-21
4.89259e-20
2.36669e-19
6.93279e-19
-2.37816e-18
-6.33047e-17
4.48426e-08
1.02632e-06
5.2833e-09
-3.16485e-23
-2.86424e-15
0.0107889
0.0101387
-3.47358e-20
-5.94929e-15
0.000343501
0.0128165
1.62726e-26
7.19873e-26
1.77846e-24
2.87284e-23
3.42548e-22
3.34045e-21
2.56658e-20
1.67487e-19
8.50561e-19
2.8675e-18
-2.39991e-18
-1.3618e-16
1.14629e-11
1.56095e-05
5.29708e-05
1.25243e-05
-2.84238e-10
4.07119e-06
0.34267
0.775948
0.7991
0.794478
0.817175
3.74338e-26
3.01887e-25
5.71634e-24
8.61079e-23
9.82662e-22
9.2464e-21
7.12637e-20
4.72009e-19
2.34754e-18
7.92699e-18
3.84531e-18
-2.6079e-16
6.48546e-07
2.50065e-05
0.000111273
0.000106019
8.55889e-06
-5.63594e-07
0.317021
0.824007
0.952028
0.985185
0.98984
7.90718e-26
1.00153e-24
1.70261e-23
2.3922e-22
2.6389e-21
2.51391e-20
1.92954e-19
1.30612e-18
6.80222e-18
2.41839e-17
3.55015e-17
-4.47165e-16
9.44184e-09
5.69025e-09
0.000181745
0.00024061
0.000147179
1.21241e-05
5.43686e-08
9.94733e-08
0.0576878
0.314548
0.450629
1.58375e-25
2.67583e-24
4.4453e-23
5.99723e-22
6.43169e-21
6.41597e-20
4.90262e-19
3.31566e-18
1.70524e-17
6.5356e-17
1.49779e-16
-6.03272e-16
8.81692e-08
5.24321e-09
6.19227e-05
0.000232773
9.45193e-05
2.69298e-08
3.1451e-08
8.44868e-11
-1.04533e-10
-5.87393e-27
-1.67961e-27
2.86244e-25
6.13112e-24
1.02324e-22
1.34704e-21
1.43225e-20
1.37441e-19
1.04202e-18
6.77839e-18
3.68855e-17
1.52262e-16
4.57336e-16
-3.60383e-16
4.05776e-07
4.17695e-07
1.17369e-07
5.09009e-08
1.24466e-08
6.03925e-07
2.7584e-07
1.19773e-08
4.65387e-09
3.24017e-09
1.22759e-09
5.14256e-25
1.24529e-23
2.09443e-22
2.6831e-21
2.89245e-20
2.57472e-19
1.91771e-18
1.22818e-17
6.39411e-17
2.71011e-16
9.41007e-16
2.93175e-16
3.66231e-07
2.23545e-07
8.56726e-08
2.98043e-08
1.10013e-08
1.00667e-08
1.19417e-08
9.33904e-09
4.2051e-09
1.75706e-09
1.50707e-09
8.88402e-25
2.27419e-23
3.82247e-22
4.75842e-21
4.99379e-20
4.29469e-19
3.11665e-18
1.94782e-17
1.01462e-16
5.00477e-16
2.25316e-15
4.09504e-15
-3.33966e-14
-1.51337e-12
-5.09478e-11
-1.12961e-10
-1.48872e-10
-1.50005e-10
-1.29902e-10
-1.02097e-10
-7.30761e-11
1.60092e-10
1.15853e-09
1.41324e-24
3.7564e-23
6.2081e-22
7.61014e-21
7.63195e-20
6.27488e-19
4.44372e-18
2.69577e-17
1.56482e-16
7.67651e-16
3.26151e-15
1.00384e-14
-9.11165e-15
-9.25605e-13
-3.14074e-11
-6.80091e-11
-8.73674e-11
-8.46443e-11
-6.55925e-11
-3.88112e-11
-1.01499e-11
2.51313e-10
1.3308e-09
1.95933e-24
5.61207e-23
8.88733e-22
1.04234e-20
1.01484e-19
8.00314e-19
5.41751e-18
3.28131e-17
1.72038e-16
8.11437e-16
3.32439e-15
1.12302e-14
1.58486e-14
-3.52761e-13
-1.20032e-11
-2.09083e-11
-2.12259e-11
-1.49156e-11
-4.81154e-12
5.77097e-12
2.04687e-11
2.38752e-10
9.78016e-10
2.26154e-24
6.80328e-23
1.11142e-21
1.27144e-20
1.15728e-19
8.75745e-19
5.65607e-18
3.29114e-17
1.61913e-16
7.34586e-16
2.9606e-15
1.02077e-14
2.7955e-14
-4.24859e-14
-2.84634e-12
-3.4424e-12
-1.70693e-12
1.11367e-12
4.93852e-12
8.57247e-12
1.82884e-11
8.84461e-11
3.95827e-10
2.1021e-24
6.53344e-23
1.09325e-21
1.26478e-20
1.1307e-19
8.0604e-19
4.95143e-18
2.74042e-17
1.29996e-16
5.62952e-16
2.19148e-15
7.48046e-15
2.39137e-14
4.83867e-14
-2.04041e-13
1.04674e-13
8.18264e-13
1.78688e-12
3.00636e-12
4.24745e-12
7.73571e-12
3.84861e-11
4.94645e-11
1.52832e-24
4.87612e-23
8.31349e-22
9.62886e-21
8.44161e-20
5.82331e-19
3.57905e-18
1.91091e-17
8.43777e-17
3.49881e-16
1.28967e-15
4.26125e-15
1.32903e-14
3.6819e-14
9.07031e-14
2.04241e-13
4.02161e-13
7.57599e-13
1.21215e-12
2.07733e-12
3.40587e-12
5.89468e-12
1.16481e-11
8.4331e-25
2.73782e-23
4.6951e-22
5.40023e-21
4.63069e-20
3.08714e-19
1.96003e-18
9.84208e-18
4.22441e-17
1.68635e-16
5.79327e-16
1.84526e-15
5.3087e-15
1.35472e-14
3.1692e-14
6.78436e-14
1.40273e-13
2.59448e-13
5.52538e-13
1.19215e-12
2.48429e-12
5.15385e-12
8.82715e-12
3.44427e-25
1.1195e-23
1.8946e-22
2.14092e-21
1.71804e-20
1.27149e-19
7.1451e-19
3.47684e-18
1.41815e-17
5.53748e-17
1.831e-16
5.48822e-16
1.46469e-15
3.70771e-15
9.00264e-15
2.22285e-14
5.41121e-14
1.32356e-13
3.28263e-13
8.25677e-13
1.73789e-12
3.27361e-12
5.68758e-12
9.46102e-26
3.09943e-24
5.20751e-23
5.46716e-22
4.73577e-21
3.3556e-20
1.82702e-19
8.83391e-19
3.5999e-18
1.29808e-17
4.18448e-17
1.22291e-16
3.44473e-16
1.03328e-15
3.12414e-15
9.65762e-15
2.85981e-14
7.83757e-14
2.10918e-13
4.99879e-13
1.05295e-12
2.01816e-12
3.21646e-12
1.61203e-26
5.37658e-25
8.89966e-24
9.07198e-23
9.52547e-22
6.47616e-21
3.51767e-20
1.74704e-19
7.3815e-19
2.68224e-18
9.66821e-18
3.27481e-17
1.10774e-16
4.13187e-16
1.45386e-15
4.92584e-15
1.52321e-14
4.19431e-14
1.13919e-13
2.78183e-13
5.6042e-13
1.01353e-12
1.70084e-12
1.35143e-27
4.763e-26
8.52442e-25
9.5643e-24
9.67127e-23
6.83055e-22
4.02881e-21
2.27063e-20
1.09677e-19
4.76226e-19
2.18223e-18
9.26056e-18
3.75482e-17
1.62739e-16
6.19244e-16
2.19148e-15
7.01852e-15
1.9864e-14
5.43557e-14
1.27365e-13
2.7123e-13
4.92039e-13
8.16601e-13
6.48912e-29
2.52587e-27
4.67495e-26
7.3887e-25
7.59012e-24
6.26269e-23
4.28881e-22
2.91385e-21
1.75161e-20
9.53311e-20
5.37095e-19
2.66911e-18
1.2638e-17
5.55854e-17
2.22694e-16
8.05386e-16
2.62541e-15
7.75586e-15
2.19697e-14
5.27592e-14
1.10064e-13
2.12086e-13
3.65936e-13
2.43469e-30
1.14979e-28
2.95064e-27
4.37039e-26
5.9609e-25
5.79273e-24
4.81857e-23
4.15735e-22
3.02762e-21
1.88314e-20
1.23054e-19
6.77663e-19
3.47137e-18
1.62016e-17
6.83728e-17
2.61568e-16
8.98748e-16
2.71229e-15
7.84185e-15
1.90023e-14
4.23893e-14
8.11949e-14
1.47985e-13
9.95563e-32
5.58995e-30
1.41425e-28
3.07288e-27
4.42061e-26
5.13742e-25
5.2718e-24
5.4659e-23
4.46736e-22
3.14323e-21
2.30333e-20
1.38835e-19
7.6468e-19
3.79142e-18
1.69746e-17
6.84342e-17
2.44031e-16
7.65304e-16
2.37081e-15
6.11567e-15
1.38566e-14
2.84603e-14
5.4369e-14
2.84017e-33
2.03716e-31
7.01311e-30
1.41374e-28
2.78034e-27
3.89046e-26
5.34747e-25
5.72949e-24
5.17764e-23
4.07441e-22
3.34959e-21
2.22163e-20
1.32938e-19
7.10369e-19
3.41738e-18
1.47811e-17
5.61459e-17
1.85683e-16
6.02991e-16
1.63253e-15
3.98536e-15
8.54538e-15
1.78658e-14
6.86997e-35
5.64166e-33
1.97499e-31
6.36936e-30
1.26095e-28
2.09243e-27
3.39626e-26
4.28739e-25
4.4768e-24
3.97625e-23
3.66588e-22
2.65781e-21
1.72549e-20
1.00125e-19
5.21786e-19
2.43123e-18
9.95382e-18
3.59717e-17
1.29196e-16
3.78228e-16
1.00096e-15
2.38302e-15
5.13955e-15
1.20293e-36
1.20613e-34
5.97918e-33
1.95368e-31
4.69942e-30
9.38191e-29
1.72254e-27
2.37519e-26
2.74865e-25
2.75404e-24
2.85558e-23
2.32848e-22
1.70483e-21
1.10715e-20
6.36639e-20
3.24179e-19
1.44707e-18
5.73928e-18
2.27497e-17
7.30063e-17
2.10297e-16
5.46783e-16
1.30784e-15
1.64876e-38
2.03607e-36
1.21346e-34
4.56759e-33
1.32113e-31
3.39815e-30
6.41519e-29
9.82801e-28
1.28897e-26
1.74323e-25
1.8122e-24
1.6668e-23
1.34623e-22
9.5625e-22
6.00754e-21
3.37867e-20
1.71178e-19
6.89549e-19
3.03047e-18
1.13984e-17
3.66456e-17
1.0826e-16
2.83445e-16
1.49252e-40
2.24075e-38
1.51284e-36
6.97237e-35
2.65476e-33
7.06944e-32
1.478e-30
2.63243e-29
4.82914e-28
6.6901e-27
8.11368e-26
8.5866e-25
7.95056e-24
6.45412e-23
4.62126e-22
2.93924e-21
1.63561e-20
8.08533e-20
4.01424e-19
1.58456e-18
5.63389e-18
1.80852e-17
5.37868e-17
8.98509e-43
1.60884e-40
1.37439e-38
7.66977e-37
3.19551e-35
1.06311e-33
2.89495e-32
6.51024e-31
1.22874e-29
1.98859e-28
2.79549e-27
3.42463e-26
3.65833e-25
3.41204e-24
2.79072e-23
2.02223e-22
1.30406e-21
7.18613e-21
3.41303e-20
1.73194e-19
7.00077e-19
2.59871e-18
8.58081e-18
4.093e-45
9.37009e-43
9.78111e-41
6.59803e-39
3.2481e-37
1.24267e-35
3.83918e-34
9.8448e-33
2.14292e-31
4.02881e-30
6.60897e-29
9.50709e-28
1.20323e-26
1.33752e-25
1.29777e-24
1.10224e-23
8.23966e-23
5.29511e-22
3.00565e-21
1.66477e-20
7.66044e-20
3.13863e-19
1.19679e-18
1.22124e-47
3.32838e-45
4.2276e-43
3.47626e-41
2.08991e-39
9.78447e-38
3.70533e-36
1.15965e-34
3.03025e-33
6.67867e-32
1.26262e-30
2.07823e-29
2.99741e-28
3.80304e-27
4.26293e-26
4.24378e-25
3.72998e-24
2.79412e-23
1.8458e-22
1.24083e-21
6.54246e-21
3.23338e-20
1.42381e-19
1.84284e-50
7.10547e-48
1.07003e-45
1.06161e-43
7.80608e-42
4.50188e-40
2.10212e-38
8.10715e-37
2.61839e-35
7.15737e-34
1.66983e-32
3.34223e-31
5.74618e-30
8.56057e-29
1.13843e-27
1.36882e-26
1.4374e-25
1.28106e-24
1.02101e-23
8.30639e-23
5.15947e-22
2.86322e-21
1.40416e-20
1.749e-53
6.65213e-51
1.20859e-48
1.48495e-46
1.37678e-44
1.01185e-42
6.05778e-41
3.00322e-39
1.24637e-37
4.36462e-36
1.29567e-34
3.26363e-33
7.02364e-32
1.31658e-30
2.16116e-29
3.08754e-28
3.91615e-27
4.39486e-26
4.34819e-25
3.79305e-24
2.92094e-23
2.04095e-22
1.27952e-21
1.03081e-56
4.92171e-54
1.01144e-51
1.50634e-49
1.752e-47
1.63573e-45
1.24731e-43
7.88744e-42
4.179e-40
1.86081e-38
6.97981e-37
2.23546e-35
6.23324e-34
1.50849e-32
3.14407e-31
5.78393e-30
9.48986e-29
1.38216e-27
1.75247e-26
1.90066e-25
1.75774e-24
1.39005e-23
9.40882e-23
3.31615e-60
9.85804e-58
2.1614e-55
3.92115e-53
5.97022e-51
7.55356e-49
7.90466e-47
6.86291e-45
4.97899e-43
3.04335e-41
1.57879e-39
6.98842e-38
2.64767e-36
8.60308e-35
2.4058e-33
5.8268e-32
1.22915e-30
2.25922e-29
3.62669e-28
5.14383e-27
6.45857e-26
6.96354e-25
6.18886e-24
2.68976e-64
5.53708e-62
1.23206e-59
2.78446e-57
5.96981e-55
1.12452e-52
1.78364e-50
2.34592e-48
2.55393e-46
2.31116e-44
1.75202e-42
1.12459e-40
6.18939e-39
2.95291e-37
1.22698e-35
4.42401e-34
1.3712e-32
3.61637e-31
8.05617e-30
1.50853e-28
2.36191e-27
3.09589e-26
3.43751e-25
8.37748e-70
1.20995e-67
2.51596e-65
7.37875e-63
2.51722e-60
8.27178e-58
2.36208e-55
5.6275e-53
1.10711e-50
1.80123e-48
2.43613e-46
2.75615e-44
2.6258e-42
2.11986e-40
1.45595e-38
8.49031e-37
4.15777e-35
1.68297e-33
5.61188e-32
1.582e-30
3.9476e-29
8.56103e-28
1.42472e-26
2.15866e-79
1.54507e-77
3.33266e-75
1.63647e-72
1.28169e-69
1.1354e-66
9.05084e-64
5.99944e-61
3.32821e-58
1.56411e-55
6.22598e-53
2.08511e-50
5.88246e-48
1.40331e-45
2.64243e-43
4.4339e-41
6.65143e-39
8.0025e-37
7.56949e-35
5.71742e-33
3.4067e-31
1.52384e-29
4.66491e-28
0.000129549
0.000281026
0.00133399
0.000768503
0.00166232
0.000319722
0.000316861
0.00388625
0.0376776
0.236176
0.277955
0.276712
3.90579e-07
7.11789e-06
0.226118
0.27788
4.81828e-11
2.46836e-08
0.00496637
0.0216936
6.25944e-11
2.44223e-09
1.44629e-07
0.000307814
0.0312864
0.0276484
0.0685939
0.341309
0.852475
0.885646
0.928404
0.995642
0.988329
0.984279
0.983164
0.987531
0.43101
0.370673
0.351363
0.381826
1.25153e-26
1.48971e-27
4.18939e-20
1.13154e-26
1.02455e-09
1.01875e-09
1.10544e-09
9.58945e-10
1.46218e-09
1.92409e-09
2.32839e-09
2.2711e-09
1.50487e-09
2.79103e-09
3.19958e-09
3.1231e-09
1.82372e-09
2.72715e-09
2.99566e-09
3.15145e-09
1.32043e-09
1.82922e-09
1.94924e-09
2.33247e-09
5.49537e-10
5.77117e-10
6.62557e-10
8.60253e-10
5.71125e-11
5.61569e-11
4.56032e-11
3.98063e-11
1.67781e-11
2.04609e-11
2.63906e-11
3.03853e-11
1.30615e-11
1.55224e-11
1.71484e-11
1.87951e-11
7.90369e-12
9.08844e-12
1.02924e-11
1.11253e-11
4.50973e-12
5.25417e-12
5.72585e-12
6.30199e-12
2.32447e-12
2.78907e-12
3.08343e-12
3.43301e-12
1.16533e-12
1.32739e-12
1.58516e-12
1.79129e-12
5.32696e-13
6.38956e-13
7.47163e-13
8.69467e-13
2.25925e-13
2.69396e-13
3.31255e-13
3.8854e-13
8.72164e-14
1.087e-13
1.31874e-13
1.61161e-13
3.05752e-14
3.8785e-14
4.8998e-14
6.06421e-14
9.4311e-15
1.26041e-14
1.65159e-14
2.13356e-14
2.61477e-15
3.63805e-15
4.88979e-15
6.49433e-15
6.2863e-16
9.38523e-16
1.35246e-15
1.90388e-15
1.32828e-16
2.12308e-16
3.26827e-16
4.87647e-16
2.38758e-17
4.14662e-17
6.84201e-17
1.10095e-16
3.77564e-18
7.23443e-18
1.32109e-17
2.2978e-17
5.1603e-19
1.0875e-18
2.17969e-18
4.15164e-18
6.40009e-20
1.54962e-19
3.37327e-19
7.01518e-19
6.48445e-21
1.77155e-20
4.43626e-20
1.0411e-19
5.71288e-22
1.88521e-21
5.33028e-21
1.42016e-20
4.71882e-23
1.73825e-22
5.85889e-22
1.80101e-21
3.19828e-24
1.42181e-23
5.74986e-23
2.09664e-22
1.95497e-25
1.07589e-24
5.3737e-24
2.40592e-23
9.21579e-27
7.33164e-26
4.95319e-25
2.82015e-24
0.513288
0.746005
0.474396
0.10777
0.0839455
0.245243
0.572295
0.97281
1
1
1
1
1
1
1
1
1
1
1
0.0299934
0.0326735
0.0753
0.280348
0.427939
0.544966
0.850655
1
1
1
1
1
1
1
1
1
1
1
1
0.129526
0.0271096
0.150201
0.619769
0.949001
0.999892
0.999979
1
1
1
1
1
1
1
1
1
1
1
1
0.112273
0.00573767
0.160474
0.831218
0.996653
1
1
1
1
1
1
0.999981
0.999994
1
1
1
1
1
1
0.0062983
0.0066197
0.00696161
0.594754
0.999995
1
1
1
1
1
0.999468
1
1
1
1
1
1
1
1
1.26251e-06
0.0227684
0.388923
0.942451
0.999983
1
1
1
1
0.972972
0.956511
0.834143
0.560964
0.667902
0.972217
0.999491
1
1
1
0.456015
0.676652
0.996772
0.999903
1
1
0.985784
0.861544
0.655172
0.365724
0.0922206
0.0495758
0.0046541
0.0280775
0.546533
0.982294
1
1
1
0.998292
0.995975
0.999921
0.996834
0.925799
0.74205
0.444618
0.102135
2.79696e-07
7.13223e-08
1.30481e-07
2.74595e-07
3.11965e-08
2.75259e-08
0.0771909
0.998186
0.998576
1
1
0.98356
0.944938
0.812539
0.525348
0.216196
3.82227e-07
9.93393e-07
7.9765e-07
9.51395e-07
1.31784e-06
1.0636e-06
2.2458e-07
2.82235e-08
3.22094e-07
0.027566
0.970146
1
1
1
0.370698
0.24447
0.0499858
3.92679e-07
1.00035e-07
3.02415e-08
6.23732e-07
1.04775e-06
8.44434e-06
8.54425e-06
1.64725e-06
1.958e-07
2.39158e-08
6.57969e-08
0.000523777
0.455449
1
1
1
6.67016e-27
-1.73114e-25
1.10291e-25
0
2.80521e-08
1.41557e-08
3.93933e-06
1.13231e-05
1.12716e-05
9.9215e-06
1.00284e-06
1.03023e-07
2.18061e-08
2.31628e-08
1.6162e-08
0.173841
1
0.99997
1
1.22972e-09
9.00654e-09
8.09546e-09
7.20191e-08
2.25838e-07
7.36356e-08
4.16555e-06
1.11322e-05
6.96505e-06
2.03831e-06
2.52165e-07
3.54172e-08
2.29997e-08
2.32133e-08
1.6818e-08
0.150137
1
0.999969
1
6.02576e-09
2.75619e-08
2.46339e-08
1.58908e-07
3.95315e-07
3.78691e-07
4.14709e-08
7.45339e-08
2.43991e-07
1.69633e-07
2.70756e-08
2.42871e-08
2.48357e-08
2.45312e-08
5.1239e-08
0.0697277
0.952984
1
1
1.36516e-08
4.49911e-08
7.09756e-08
5.94271e-08
6.00837e-08
1.65021e-08
3.26642e-09
2.13095e-09
4.6272e-09
2.58718e-09
1.58253e-08
2.23985e-08
2.41639e-08
2.48949e-08
2.42367e-07
0.0024684
0.300708
1
1
1.8478e-08
3.32426e-08
2.82077e-08
9.90245e-09
8.43426e-10
1.94043e-10
1.89528e-10
3.44648e-10
8.58371e-10
2.54773e-09
1.12028e-08
1.77862e-08
2.08227e-08
2.32472e-08
1.68503e-08
2.14769e-08
0.0562749
1
1
9.66866e-09
1.05877e-08
4.98042e-09
2.10513e-09
7.8376e-10
2.86903e-10
1.9881e-10
2.45991e-10
5.26817e-10
1.67163e-09
6.5836e-09
1.19401e-08
1.62698e-08
1.97508e-08
1.55167e-08
3.96144e-07
0.0535839
1
1
3.11412e-10
1.45706e-10
1.0794e-10
1.01341e-10
1.04563e-10
1.25964e-10
1.87033e-10
3.22877e-10
5.5449e-10
1.13491e-09
3.65951e-09
7.46099e-09
1.19336e-08
1.57172e-08
1.35084e-08
1.20382e-08
0.040401
1
0.999106
3.90081e-11
5.08805e-11
6.14075e-11
6.56643e-11
8.21496e-11
1.37437e-10
2.71429e-10
5.06823e-10
8.4868e-10
1.32186e-09
2.60077e-09
5.04194e-09
8.66121e-09
1.21608e-08
1.13862e-08
1.10311e-08
0.0100025
0.501586
0.984638
3.36721e-11
3.7195e-11
4.03207e-11
5.15854e-11
8.81722e-11
1.83374e-10
3.87011e-10
7.10703e-10
1.17875e-09
1.76476e-09
2.59566e-09
4.17375e-09
6.63392e-09
9.63777e-09
9.77346e-09
8.41568e-09
0.00019038
0.00407793
0.979873
2.02043e-11
2.32142e-11
2.9018e-11
4.69802e-11
9.77075e-11
2.19732e-10
4.67954e-10
8.79793e-10
1.50714e-09
2.34958e-09
3.26769e-09
4.28568e-09
6.12996e-09
8.22788e-09
9.2386e-09
9.01166e-09
4.67084e-07
8.32121e-09
0.961384
1.20482e-11
1.49518e-11
2.20229e-11
4.24518e-11
9.75219e-11
2.25842e-10
4.89764e-10
9.62132e-10
1.72452e-09
2.83508e-09
4.32101e-09
5.57655e-09
6.83092e-09
9.47324e-09
9.83836e-09
1.01194e-08
1.04679e-07
5.4132e-09
0.628399
6.9849e-12
9.57336e-12
1.62293e-11
3.4758e-11
8.41854e-11
2.03376e-10
4.62987e-10
9.80821e-10
1.95077e-09
3.65633e-09
6.35473e-09
9.79028e-09
1.25189e-08
1.10548e-08
1.39286e-08
9.74505e-09
2.7208e-08
9.71962e-09
0.539853
3.9284e-12
5.88938e-12
1.08753e-11
2.50733e-11
6.35591e-11
1.62535e-10
4.02299e-10
9.78096e-10
2.35797e-09
5.28996e-09
1.02445e-08
1.79221e-08
2.72552e-08
2.29475e-08
3.4933e-08
2.39417e-08
1.48338e-08
1.02605e-08
0.759434
2.09796e-12
3.3485e-12
6.57547e-12
1.56671e-11
4.18529e-11
1.14817e-10
3.20565e-10
9.06402e-10
2.485e-09
6.29785e-09
1.41827e-08
2.91312e-08
5.1098e-08
1.00012e-07
7.64372e-08
2.07873e-08
1.97333e-08
1.02625e-08
0.93508
1.044e-12
1.69232e-12
3.21246e-12
8.51337e-12
2.0771e-11
7.04752e-11
2.07845e-10
6.4018e-10
1.92111e-09
5.46613e-09
1.41459e-08
2.98784e-08
8.05676e-08
9.3167e-08
7.51153e-08
8.02168e-08
1.9954e-08
0.00506761
0.93749
4.75137e-13
7.92953e-13
1.51638e-12
3.44188e-12
1.18241e-11
3.44732e-11
1.08757e-10
3.36709e-10
1.01852e-09
2.95985e-09
7.22472e-09
2.6072e-08
6.0266e-08
1.73267e-07
1.50594e-07
6.74729e-08
8.70827e-07
0.0431095
0.93749
2.00765e-13
3.31708e-13
6.54858e-13
1.5266e-12
4.9666e-12
1.54427e-11
5.03683e-11
1.60986e-10
4.98543e-10
1.48895e-09
3.95992e-09
6.33418e-09
5.95641e-08
1.64054e-07
7.12354e-07
6.53445e-07
8.64008e-07
0.064239
0.93749
7.68802e-14
1.33202e-13
2.61303e-13
6.24047e-13
1.74887e-12
6.40646e-12
2.08634e-11
6.93396e-11
2.17693e-10
6.61059e-10
1.87093e-09
3.77452e-09
7.34467e-09
1.38227e-07
8.55892e-07
2.02977e-06
1.20687e-06
0.0410286
0.573028
2.76198e-14
4.72232e-14
9.37496e-14
2.24093e-13
6.45533e-13
2.02726e-12
7.83223e-12
2.59532e-11
9.03455e-11
2.97659e-10
9.07449e-10
2.18544e-09
1.83299e-09
1.31164e-08
3.78159e-07
5.17708e-06
5.13486e-05
0.00220184
7.42325e-09
8.67518e-15
1.63113e-14
3.11278e-14
7.17889e-14
2.11946e-13
7.0441e-13
2.44837e-12
8.82844e-12
3.15767e-11
1.10559e-10
3.71977e-10
1.13949e-09
3.34208e-09
7.58326e-09
2.40352e-07
2.45183e-06
1.0358e-05
1.23127e-06
7.85318e-09
2.65135e-15
5.00057e-15
9.76891e-15
2.15104e-14
6.14675e-14
2.02621e-13
7.1082e-13
2.58024e-12
9.5232e-12
3.49668e-11
1.23943e-10
4.14304e-10
1.20687e-09
4.69565e-09
2.2666e-08
1.06129e-07
5.73774e-07
1.81588e-07
8.75623e-09
7.12205e-16
1.41007e-15
2.80582e-15
6.01156e-15
1.62064e-14
5.20536e-14
1.83019e-13
6.68631e-13
2.50744e-12
9.51659e-12
3.54626e-11
1.24992e-10
3.96438e-10
9.68394e-10
4.3512e-10
1.32701e-09
1.87274e-09
2.27019e-08
6.85183e-09
1.69019e-16
3.68417e-16
7.93034e-16
1.7052e-15
4.26673e-15
1.29048e-14
4.41837e-14
1.59135e-13
5.8973e-13
2.24767e-12
8.65566e-12
3.2347e-11
1.11068e-10
3.09571e-10
6.26201e-10
1.06013e-09
1.76457e-09
3.62556e-09
2.91652e-09
3.83782e-17
9.11501e-17
2.10494e-16
4.58212e-16
1.08504e-15
3.06758e-15
1.01009e-14
3.55433e-14
1.27944e-13
4.73953e-13
1.82058e-12
7.0462e-12
2.60017e-11
8.14016e-11
2.26505e-10
4.72255e-10
9.32602e-10
1.54904e-09
1.33397e-09
7.50597e-18
2.02187e-17
5.1883e-17
1.15522e-16
2.63313e-16
6.9175e-16
2.16205e-15
7.43264e-15
2.61107e-14
9.27342e-14
3.42259e-13
1.31541e-12
4.69746e-12
1.83233e-11
5.51508e-11
1.38434e-10
2.5044e-10
5.88059e-10
3.62291e-10
1.38302e-18
4.13851e-18
1.18052e-17
2.72452e-17
6.10922e-17
1.49573e-16
4.3487e-16
1.44611e-15
5.00749e-15
1.72643e-14
6.03976e-14
2.20788e-13
7.82176e-13
3.14169e-12
1.03412e-11
2.92636e-11
7.56669e-11
1.03401e-10
1.01649e-10
2.27365e-19
7.86044e-19
2.51077e-18
6.15016e-18
1.37249e-17
3.16563e-17
8.42101e-17
2.64749e-16
8.99354e-16
3.04027e-15
1.00456e-14
3.39682e-14
1.16764e-13
4.52647e-13
1.53865e-12
4.81557e-12
9.54873e-12
2.51482e-11
1.8148e-11
3.51634e-20
1.42683e-19
4.95844e-19
1.261e-18
2.83105e-18
6.25149e-18
1.52462e-17
4.45215e-17
1.47354e-16
4.96897e-16
1.58897e-15
4.69141e-15
1.72411e-14
5.64892e-14
1.83698e-13
5.31699e-13
1.86966e-12
2.0024e-12
2.03762e-12
5.07136e-21
2.40295e-20
9.14901e-20
2.51723e-19
5.78896e-19
1.23983e-18
2.75954e-18
7.22493e-18
2.24792e-17
7.51638e-17
2.30841e-16
7.05869e-16
2.295e-15
6.48381e-15
1.6336e-14
4.29526e-14
2.05172e-13
2.733e-13
1.47087e-13
6.85582e-22
3.77048e-21
1.62007e-20
4.78552e-20
1.14736e-19
2.4467e-19
5.09754e-19
1.19057e-18
3.35523e-18
1.07932e-17
3.44531e-17
9.74953e-17
3.05317e-16
7.66235e-16
1.29246e-15
3.33448e-15
1.75334e-14
1.47698e-14
1.2735e-14
9.59182e-23
5.9661e-22
2.73478e-21
8.67209e-21
2.16471e-20
4.62813e-20
9.23476e-20
1.96264e-19
4.95149e-19
1.4875e-18
4.69586e-18
1.33022e-17
3.90886e-17
9.35246e-17
1.53145e-16
3.45959e-16
1.20863e-15
1.10595e-15
1.26975e-15
1.34668e-23
9.21251e-23
4.49645e-22
1.51049e-21
3.90192e-21
8.34279e-21
1.60786e-20
3.16109e-20
7.14823e-20
1.95965e-19
5.95886e-19
1.68176e-18
4.77469e-18
1.08768e-17
1.88607e-17
3.65155e-17
7.64358e-17
9.09599e-17
1.06792e-17
)
;

boundaryField
{
    leftWall
    {
        type            alphaContactAngle;
        contactAngleProperties 
        {
            mercury         
            {
                theta0          90;
            }
            air             
            {
                theta0          90;
            }
            water           
            {
                theta0          90;
            }
        }
        value           nonuniform List<scalar> 
50
(
2.80919e-49
9.42787e-52
5.0904e-45
6.72106e-43
1.26411e-40
2.76418e-37
1.9198e-35
1.22273e-34
7.06256e-34
6.57321e-33
3.88396e-32
5.11242e-31
1.29726e-29
7.49421e-28
6.45379e-27
1.62726e-26
3.74338e-26
7.90718e-26
1.58375e-25
2.86244e-25
5.14256e-25
8.88402e-25
1.41324e-24
1.95933e-24
2.26154e-24
2.1021e-24
1.52832e-24
8.4331e-25
3.44427e-25
9.46102e-26
1.61203e-26
1.35143e-27
6.48912e-29
2.43469e-30
9.95563e-32
2.84017e-33
6.86997e-35
1.20293e-36
1.64876e-38
1.49252e-40
8.98509e-43
4.093e-45
1.22124e-47
1.84284e-50
1.749e-53
1.03081e-56
3.31615e-60
2.68976e-64
8.37748e-70
2.15866e-79
)
;
    }
    rightWall
    {
        type            alphaContactAngle;
        contactAngleProperties 
        {
            mercury         
            {
                theta0          90;
            }
            air             
            {
                theta0          90;
            }
            water           
            {
                theta0          90;
            }
        }
        value           nonuniform List<scalar> 
50
(
0.914463
0.869383
0.869281
0.890402
0.986118
1
1
1
1
1
1
1
1
1
1
1
1
1
1
1
1
1
1
1
0.999106
0.984638
0.979873
0.961384
0.628399
0.539853
0.759434
0.93508
0.93749
0.93749
0.93749
0.573028
7.42325e-09
7.85318e-09
8.75623e-09
6.85183e-09
2.91652e-09
1.33397e-09
3.62291e-10
1.01649e-10
1.8148e-11
2.03762e-12
1.47087e-13
1.2735e-14
1.26975e-15
1.06792e-17
)
;
    }
    lowerWall
    {
        type            alphaContactAngle;
        contactAngleProperties 
        {
            mercury         
            {
                theta0          90;
            }
            air             
            {
                theta0          90;
            }
            water           
            {
                theta0          90;
            }
        }
        value           nonuniform List<scalar> 
62
(
2.80919e-49
6.67433e-47
6.71059e-45
1.38212e-43
2.4112e-42
5.08266e-41
1.89875e-40
5.06844e-40
-5.14672e-33
-1.02307e-29
-2.67971e-28
-4.8565e-27
1.42959e-17
2.22371e-16
1.06213e-15
1.75642e-14
2.78696e-13
1.11252e-12
4.4889e-12
1.78524e-11
2.86311e-11
1.49464e-12
0.00068702
0.00068702
0.000691922
0.000584518
7.65251e-05
6.81221e-08
4.93522e-08
1.25988e-06
1.0386e-06
0.000129549
0.000281026
0.00133399
0.000768503
0.999962
1
0.999898
0.999889
0.999835
0.999752
0.999661
0.999557
0.999962
1
1
1
0.999981
0.999915
0.9999
0.999894
0.99989
0.999892
0.999976
1
1
0.998053
0.994928
0.995104
1
0.901605
0.914463
)
;
    }
    atmosphere
    {
        type            inletOutlet;
        inletValue      uniform 0;
        value           nonuniform List<scalar> 
46
(
0
0
0
0
0
0
0
0
0
0
0
0
0
0
0
0
0
0
0
0
0
0
0
0
0
4.95319e-25
2.82015e-24
1.34668e-23
9.21251e-23
4.49645e-22
1.51049e-21
3.90192e-21
8.34279e-21
1.60786e-20
3.16109e-20
7.14823e-20
1.95965e-19
5.95886e-19
1.68176e-18
4.77469e-18
1.08768e-17
1.88607e-17
3.65155e-17
7.64358e-17
9.09599e-17
1.06792e-17
)
;
    }
    defaultFaces
    {
        type            empty;
    }
}


// ************************************************************************* //
