/*--------------------------------*- C++ -*----------------------------------*\
  =========                 |
  \\      /  F ield         | OpenFOAM: The Open Source CFD Toolbox
   \\    /   O peration     | Website:  https://openfoam.org
    \\  /    A nd           | Version:  13
     \\/     M anipulation  |
\*---------------------------------------------------------------------------*/
FoamFile
{
    format      ascii;
    class       volScalarField;
    location    "0.4";
    object      alpha.water;
}
// * * * * * * * * * * * * * * * * * * * * * * * * * * * * * * * * * * * * * //

dimensions      [];

internalField   nonuniform List<scalar> 
2268
(
1.26027e-14
2.75688e-13
8.27715e-13
1.41199e-12
2.24193e-12
3.54647e-12
5.72185e-12
8.70812e-12
1.22059e-11
1.65917e-11
2.20451e-11
2.83294e-11
3.47755e-11
4.15356e-11
4.71288e-11
5.04496e-11
5.41098e-11
5.75182e-11
6.55536e-11
3.15152e-10
1.70708e-09
3.48671e-09
2.47164e-09
2.14416e-15
4.25295e-12
7.94909e-12
1.12102e-11
1.50723e-11
2.0958e-11
2.93198e-11
4.10289e-11
5.60783e-11
7.46484e-11
9.64497e-11
1.21746e-10
1.49613e-10
1.78339e-10
2.0418e-10
2.21047e-10
2.24804e-10
1.987e-10
4.13312e-10
1.49524e-09
2.64857e-09
3.6018e-09
2.34282e-09
1.38057e-11
6.47646e-11
7.34905e-11
7.76209e-11
7.83019e-11
7.92946e-11
8.49123e-11
1.06406e-10
1.2658e-10
1.5216e-10
1.87531e-10
2.28385e-10
2.78087e-10
3.36898e-10
3.98371e-10
4.52269e-10
4.90499e-10
4.72621e-10
5.97235e-10
1.28774e-09
1.85161e-09
3.95013e-09
3.05996e-09
5.63818e-10
6.98387e-10
6.92899e-10
6.57932e-10
5.97969e-10
5.06774e-10
4.30537e-10
4.24673e-10
3.7881e-10
3.27123e-10
3.02453e-10
2.82609e-10
2.91357e-10
3.31145e-10
4.11015e-10
4.96278e-10
6.06312e-10
6.97635e-10
6.202e-10
7.02535e-10
6.82651e-10
2.86788e-09
2.6473e-09
-4.53955e-16
-9.15656e-16
-1.44158e-15
1.7004e-10
4.49542e-10
5.32789e-10
5.75942e-10
5.99377e-10
5.9362e-10
6.58694e-10
6.59446e-10
6.8237e-10
6.21222e-10
5.29514e-10
4.0287e-10
6.25308e-10
7.77863e-10
7.64758e-10
4.41672e-10
2.80003e-10
2.65719e-08
6.09761e-08
2.70136e-09
0.0813234
0.0617503
0.0535262
0.0501963
0.0490643
0.0478686
0.0468796
0.0465986
0.0472955
0.0487687
0.050058
0.0493581
0.0444326
0.0340617
0.0175871
9.88093e-10
2.77726e-15
-3.76789e-16
-3.90147e-13
4.8477e-09
1.02464e-07
1.05836e-07
7.04873e-08
0.828341
0.782616
0.763313
0.75484
0.751688
0.74843
0.745378
0.743788
0.744204
0.746337
0.747982
0.744451
0.730214
0.697533
0.631838
0.509153
0.304145
0.0491896
3.25945e-08
3.21671e-08
7.31715e-08
8.46785e-08
4.61018e-08
1
1
1
1
1
1
1
1
1
1
1
1
1
1
1
0.996343
0.960109
0.774128
0.224496
2.01368e-11
1.96748e-11
3.62194e-08
4.79718e-08
8.91946e-11
1.34531e-10
1.63825e-10
1.98382e-10
2.09346e-10
2.10087e-10
2.08422e-10
1.9585e-10
1.67288e-10
1.39834e-10
1.08208e-10
8.17408e-11
6.93461e-11
4.34117e-11
2.97097e-11
2.07973e-11
8.80722e-12
1.03642e-12
3.70825e-14
9.64087e-11
2.11818e-10
3.19679e-10
3.84572e-10
4.17317e-10
4.56955e-10
4.54996e-10
4.02127e-10
3.56533e-10
3.10385e-10
2.66236e-10
2.20799e-10
1.78537e-10
1.40884e-10
9.532e-11
4.93065e-11
1.89618e-11
2.28066e-12
1.32063e-13
1.09191e-10
3.05036e-10
4.09571e-10
4.03326e-10
4.56304e-10
6.33348e-10
7.65115e-10
6.91084e-10
5.70379e-10
4.33126e-10
3.65417e-10
3.15576e-10
2.69129e-10
2.22368e-10
1.67952e-10
1.07944e-10
4.2568e-11
7.42815e-12
5.21263e-13
1.04781e-10
2.8685e-10
3.1517e-10
1.64709e-10
2.20511e-10
5.49198e-10
1.04609e-09
1.1733e-09
9.28144e-10
6.32153e-10
4.56938e-10
3.689e-10
3.05466e-10
2.74474e-10
2.21996e-10
1.54093e-10
6.89915e-11
1.9332e-11
1.42902e-12
9.06715e-11
2.38935e-10
1.59589e-10
4.78776e-11
4.06725e-11
1.11061e-10
6.74129e-10
1.53208e-09
1.61501e-09
1.2953e-09
7.65374e-10
4.92965e-10
3.58173e-10
2.91194e-10
2.52881e-10
1.85721e-10
9.06732e-11
2.85594e-11
3.03573e-12
7.48908e-11
1.48135e-10
9.16957e-11
2.99405e-11
1.62058e-11
9.9394e-12
1.40951e-10
1.10795e-09
1.95455e-09
1.85212e-09
1.39581e-09
8.47434e-10
5.36066e-10
3.57293e-10
2.72649e-10
2.09455e-10
1.20603e-10
4.05005e-11
9.41002e-12
5.52826e-11
4.22864e-11
3.84082e-11
1.8055e-11
4.56908e-12
7.1744e-12
1.26674e-09
9.7277e-10
2.11075e-09
2.25536e-09
1.83779e-09
1.30595e-09
8.07379e-10
5.03831e-10
3.43761e-10
2.34142e-10
1.32252e-10
5.67842e-11
1.46347e-11
3.23903e-11
-4.20843e-22
7.85936e-12
6.89317e-27
1.40434e-07
2.22288e-07
3.65419e-08
3.10397e-09
2.89844e-09
2.78815e-09
2.21067e-09
1.51251e-09
1.03668e-09
6.58919e-10
4.44004e-10
2.57221e-10
1.437e-10
6.23142e-11
2.24048e-11
1
1
1
1
1
1
1
1
1
1
1
1
1
1
1
1
1
1
0.955104
0.594021
0.057423
4.89281e-08
1.16401e-06
1
1
1
1
1
1
1
1
1
1
1
1
1
1
1
1
1
1
0.999997
0.999895
0.801778
0.259976
-9.68831e-09
1
1
1
1
1
1
1
1
1
1
1
1
1
1
1
1
1
1
1
0.999962
0.996
0.940571
0.70001
1
1
1
1
1
1
1
1
1
1
1
1
1
1
1
1
1
1
1
1
0.999918
1
0.998125
1
1
1
1
1
1
1
1
1
1
1
1
1
1
1
1
1
1
1
1
1
1
0.999988
0.624694
0.688287
0.745272
0.798323
0.846674
0.888854
0.924479
0.953407
0.975188
0.990463
0.99875
1
1
1
1
1
0.999986
0.999997
0.999997
0.999998
0.999999
0.999999
0.999996
0
0.00659964
0.0299294
0.0599378
0.0970816
0.141316
0.19324
0.253628
0.323446
0.406604
0.50959
0.615518
0.703026
0.782302
0.877096
0.970875
0.999602
0.98919
0.989858
0.999996
0.999992
0.999647
0.987178
-2.28645e-17
-5.76422e-17
-1.70886e-15
-1.50623e-13
-1.67487e-13
-1.12203e-13
-1.01163e-13
-9.38373e-14
-5.04891e-14
-2.09017e-16
-8.05347e-14
1.71266e-07
0.014051
0.0457068
0.102878
0.282439
0.62529
0.77548
0.58335
0.222589
0.200595
0.205204
0.182384
-3.89105e-17
-1.72954e-16
-3.84835e-15
-2.97578e-13
-3.4788e-13
-2.50439e-13
-2.51976e-13
-2.64117e-13
-1.77104e-13
5.52028e-14
5.31618e-13
2.21004e-12
1.7303e-23
-3.37385e-11
-6.3087e-13
5.11926e-06
0.000103426
0.00479457
0.0119609
0.00569888
2.02275e-11
1.71614e-10
2.01809e-11
-5.26742e-17
-3.54697e-16
-6.62293e-15
-3.9067e-13
-4.25101e-13
-2.92808e-13
-3.1707e-13
-3.40217e-13
-2.04297e-13
5.05021e-13
3.69651e-12
1.5527e-11
1.06878e-10
3.44683e-10
4.75453e-10
3.52278e-10
2.06133e-16
-2.06142e-14
4.44081e-09
1.46131e-07
0.000108135
0.000145051
0.000111308
-6.24095e-17
-5.60542e-16
-9.40405e-15
-3.98084e-13
-3.78502e-13
-2.35159e-13
-2.83996e-13
-2.98533e-13
-8.34795e-14
1.23966e-12
7.89768e-12
3.72681e-11
2.40345e-10
8.31057e-10
1.32582e-09
1.25299e-09
6.74449e-10
4.2001e-11
2.23865e-14
4.22294e-06
1.29409e-05
2.22085e-05
2.01378e-05
-6.44707e-17
-7.34767e-16
-1.11903e-14
-3.30217e-13
-2.63036e-13
-1.41388e-13
-1.98767e-13
-1.86035e-13
1.14091e-13
2.05941e-12
1.12262e-11
6.46833e-11
3.11137e-10
1.01196e-09
1.37691e-09
1.36914e-09
1.10555e-09
5.26653e-10
6.25832e-11
4.4748e-17
1.70278e-12
-5.85032e-15
-8.89268e-29
-6.11466e-17
-8.18539e-16
-1.12036e-14
-2.23021e-13
-1.42907e-13
-6.36544e-14
-1.08789e-13
-6.78765e-14
2.84532e-13
2.4661e-12
1.36813e-11
7.6218e-11
3.93646e-10
6.6251e-10
9.57125e-10
8.90274e-10
7.07608e-10
5.09685e-10
2.43174e-10
1.08337e-10
4.18809e-11
1.73448e-11
1.00202e-11
-5.31231e-17
-7.69111e-16
-9.29242e-15
-1.2062e-13
-5.97956e-14
-2.08381e-14
-4.36308e-14
9.8476e-15
3.71256e-13
2.31683e-12
1.39773e-11
6.43815e-11
2.84079e-10
4.55791e-10
4.87399e-10
4.10797e-10
2.9455e-10
1.92774e-10
1.07955e-10
5.5331e-11
2.7796e-11
1.6394e-11
6.13375e-12
-3.99063e-17
-5.93477e-16
-6.1637e-15
-5.04871e-14
-1.88198e-14
-4.52193e-15
-9.53403e-15
3.88452e-14
3.35597e-13
1.88487e-12
9.49474e-12
4.41321e-11
1.47603e-10
1.9506e-10
1.83597e-10
1.38276e-10
8.91082e-11
5.12879e-11
2.704e-11
1.35936e-11
6.47469e-12
2.93525e-12
7.80064e-13
-2.35826e-17
-3.61285e-16
-3.05237e-15
-1.55341e-14
-4.37948e-15
-3.25326e-16
1.9753e-15
3.59627e-14
2.23442e-13
1.19484e-12
5.25929e-12
1.96547e-11
5.78898e-11
6.68877e-11
4.94361e-11
2.99401e-11
1.59679e-11
7.83997e-12
3.58408e-12
1.93191e-12
7.2129e-13
2.06063e-13
4.92935e-14
-9.72644e-18
-1.40716e-16
-9.90594e-16
-3.32647e-15
-7.55401e-16
2.80811e-16
2.89716e-15
2.10905e-14
1.1225e-13
5.42194e-13
2.03638e-12
6.267e-12
1.45728e-11
1.2647e-11
7.24854e-12
3.30783e-12
1.33015e-12
5.91115e-13
1.47103e-13
5.445e-14
2.48578e-14
8.35558e-15
2.66702e-15
-2.45248e-18
-3.20318e-17
-1.87349e-16
-4.69082e-16
-7.23755e-17
1.87205e-16
1.32624e-15
7.99318e-15
3.90587e-14
1.59821e-13
5.30481e-13
1.26792e-12
2.02617e-12
1.0458e-12
3.32836e-13
8.99938e-14
8.69174e-15
1.05848e-16
3.94184e-15
5.74628e-15
4.77865e-15
1.53206e-15
8.28408e-17
-2.87671e-19
-3.35498e-18
-1.66635e-17
-3.32159e-17
-4.38013e-19
4.21935e-17
2.787e-16
1.56759e-15
6.57778e-15
2.32946e-14
6.41334e-14
1.19673e-13
1.05255e-13
7.51777e-15
1.93761e-17
2.91581e-35
-3.67064e-33
2.37793e-23
2.73833e-24
1.50006e-25
5.04248e-27
3.42362e-28
1.39692e-27
7.09795e-32
2.64892e-30
3.76382e-29
2.99679e-28
1.32898e-27
2.62266e-27
4.89422e-41
5.94678e-40
6.45848e-39
6.76956e-38
6.08965e-37
5.49693e-36
4.60313e-35
3.56683e-34
2.63688e-33
1.80379e-32
1.11495e-31
6.50533e-31
3.64319e-30
2.25588e-29
1.1118e-28
5.17669e-28
2.35884e-27
5.17292e-42
2.06918e-40
3.78124e-39
3.68259e-38
1.52548e-37
4.66619e-42
6.39781e-41
8.59651e-40
1.00468e-38
1.08833e-37
1.02337e-36
9.44637e-36
7.50209e-35
6.1414e-34
4.50402e-33
3.16884e-32
1.9325e-31
1.09601e-30
6.65838e-30
3.59915e-29
1.75967e-28
8.8714e-28
5.34969e-27
1.40277e-49
1.06014e-47
4.02619e-46
9.32817e-45
2.49658e-43
4.64427e-42
6.64799e-41
9.60872e-40
1.15373e-38
1.20237e-37
1.2765e-36
1.13769e-35
8.96511e-35
7.56647e-34
5.42918e-33
3.60045e-32
2.1781e-31
1.22033e-30
7.56386e-30
4.03635e-29
2.08343e-28
1.23185e-27
8.48935e-27
7.76788e-50
6.00738e-48
2.36129e-46
6.08747e-45
1.93183e-43
3.39335e-42
5.14828e-41
7.93793e-40
9.61473e-39
9.93197e-38
1.08488e-36
9.65725e-36
7.50232e-35
6.43418e-34
4.54685e-33
2.97619e-32
1.77753e-31
1.00329e-30
6.58234e-30
3.79628e-29
2.18162e-28
1.42213e-27
9.21923e-27
3.2334e-50
2.80007e-48
1.25054e-46
3.31818e-45
9.66048e-44
1.74307e-42
2.7699e-41
4.42198e-40
5.4392e-39
5.71467e-38
6.33271e-37
5.62265e-36
4.36111e-35
3.79316e-34
2.70825e-33
1.83252e-32
1.14424e-31
6.77933e-31
4.61327e-30
2.81507e-29
1.71898e-28
1.0417e-27
6.29734e-27
8.70666e-51
8.10861e-49
3.29124e-47
1.37435e-45
3.24623e-44
6.01522e-43
9.88769e-42
1.64097e-40
2.08444e-39
2.25761e-38
2.56756e-37
2.36833e-36
2.02444e-35
1.59323e-34
1.16169e-33
7.91023e-33
5.03758e-32
3.20526e-31
2.32017e-30
1.42989e-29
8.76051e-29
5.46039e-28
3.04127e-27
1.49193e-51
1.58495e-49
8.49622e-48
2.34205e-46
7.05595e-45
1.36338e-43
2.45214e-42
4.35988e-41
5.68781e-40
6.38779e-39
7.68313e-38
7.4059e-37
6.6093e-36
5.47324e-35
4.26612e-34
3.12295e-33
2.07405e-32
1.32493e-31
9.46725e-31
5.7731e-30
3.35672e-29
1.83797e-28
1.00746e-27
1.78744e-52
1.99879e-50
8.7873e-49
3.99195e-47
1.06762e-45
2.30612e-44
4.55163e-43
8.38357e-42
1.13076e-40
1.35083e-39
1.72914e-38
1.76081e-37
1.65821e-36
1.44232e-35
1.16181e-34
8.60778e-34
5.7444e-33
3.7319e-32
2.63462e-31
1.51727e-30
8.60884e-30
4.98269e-29
2.63765e-28
1.26358e-53
1.64332e-51
9.97349e-50
3.12495e-48
1.12614e-46
2.76742e-45
6.35651e-44
1.09549e-42
1.5681e-41
2.03149e-40
2.79776e-39
3.01793e-38
2.9846e-37
2.71121e-36
2.27062e-35
1.73708e-34
1.18312e-33
7.81107e-33
5.61277e-32
3.33037e-31
1.91523e-30
1.10223e-29
6.11934e-29
5.42269e-55
7.54448e-53
3.94124e-51
2.21823e-49
6.94172e-48
1.93463e-46
5.01565e-45
9.68367e-44
1.50432e-42
2.07825e-41
3.01599e-40
3.40484e-39
3.51663e-38
3.32318e-37
2.89265e-36
2.31239e-35
1.65336e-34
1.15863e-33
8.87189e-33
5.62646e-32
3.40159e-31
1.98775e-30
1.0806e-29
1.44698e-56
2.25382e-54
1.71606e-52
8.53089e-51
3.09839e-49
9.68198e-48
2.68415e-46
5.53383e-45
9.31181e-44
1.42447e-42
2.27858e-41
2.81671e-40
3.13287e-39
3.12428e-38
2.83887e-37
2.37741e-36
1.80306e-35
1.36731e-34
1.11866e-33
7.4384e-33
4.72098e-32
2.95334e-31
1.70139e-30
2.79929e-58
5.18991e-56
4.47821e-54
2.41865e-52
1.0517e-50
3.90798e-49
1.04793e-47
2.22838e-46
4.27388e-45
8.48354e-44
1.28277e-42
1.73026e-41
2.07827e-40
2.25107e-39
2.24094e-38
2.07176e-37
1.74038e-36
1.03518e-35
9.8641e-35
7.96419e-34
5.51744e-33
3.73965e-32
2.34732e-31
2.98301e-60
6.13376e-58
5.71988e-56
3.85105e-54
2.0797e-52
7.83715e-51
2.28133e-49
5.99909e-48
1.59609e-46
3.14457e-45
5.3996e-44
8.08346e-43
1.06557e-41
1.2604e-40
1.37193e-39
1.3733e-38
1.21797e-37
1.06789e-36
9.95176e-36
7.42009e-35
5.2854e-34
3.76421e-33
2.52509e-32
2.09826e-62
5.30251e-60
6.33447e-58
4.93647e-56
2.85074e-54
1.29039e-52
4.71023e-51
1.42306e-49
3.6554e-48
8.1369e-47
1.58477e-45
2.71824e-44
4.13488e-43
5.61599e-42
6.85472e-41
7.55451e-40
7.36548e-39
6.12177e-38
5.12738e-37
4.92204e-36
3.9036e-35
3.11605e-34
2.36131e-33
1.03224e-64
3.139e-62
4.37154e-60
3.91949e-58
2.56327e-56
1.30775e-54
5.4374e-53
1.90099e-51
5.70557e-50
1.48562e-48
3.37321e-47
6.72227e-46
1.18437e-44
1.8521e-43
2.58148e-42
3.23643e-41
3.61652e-40
3.49311e-39
3.28531e-38
3.14878e-37
2.61864e-36
2.15683e-35
1.71326e-34
3.49159e-67
1.24645e-64
2.05008e-62
2.16714e-60
1.66923e-58
1.0013e-56
4.86936e-55
1.96632e-53
6.70246e-52
1.96116e-50
5.00485e-49
1.12449e-47
2.2379e-46
3.97871e-45
6.37272e-44
9.21249e-43
1.17377e-41
1.27558e-40
1.35992e-39
1.52643e-38
1.40771e-37
1.34414e-36
1.21841e-35
4.88033e-70
2.48264e-67
4.89896e-65
6.31663e-63
5.99549e-61
4.44391e-59
2.66445e-57
1.32299e-55
5.53031e-54
1.96916e-52
6.02423e-51
1.5932e-49
3.67218e-48
7.5468e-47
1.42076e-45
2.43172e-44
3.62668e-43
4.58345e-42
5.681e-41
7.30893e-40
7.50479e-39
7.2719e-38
6.56693e-37
4.77534e-73
2.3589e-70
5.51144e-68
8.66829e-66
1.02626e-63
9.62637e-62
7.35783e-60
4.65885e-58
2.46844e-56
1.10114e-54
4.1491e-53
1.32866e-51
3.69621e-50
9.21332e-49
2.07334e-47
4.17344e-46
7.4779e-45
1.1901e-43
1.7039e-42
2.21108e-41
2.6972e-40
3.28918e-39
3.78792e-38
2.70506e-76
1.61253e-73
4.19194e-71
7.86355e-69
1.14899e-66
1.348e-64
1.29588e-62
1.03723e-60
6.9792e-59
3.96427e-57
1.91157e-55
7.94419e-54
2.88835e-52
9.20254e-51
2.59529e-49
6.60378e-48
1.50928e-46
3.05223e-45
5.41687e-44
8.50096e-43
1.19379e-41
1.4913e-40
1.69845e-39
7.899e-80
2.97181e-77
8.16683e-75
1.84379e-72
3.48298e-70
5.47441e-68
7.15308e-66
7.8135e-64
7.19219e-62
5.61829e-60
3.74173e-58
2.12993e-56
1.03896e-54
4.36704e-53
1.59709e-51
5.1284e-50
1.44906e-48
3.61825e-47
8.17121e-46
1.70405e-44
3.23145e-43
5.39353e-42
7.8546e-41
6.42507e-84
1.65691e-81
4.60611e-79
1.29876e-76
3.46567e-74
8.09372e-72
1.58374e-69
2.55812e-67
3.41528e-65
3.80877e-63
3.60487e-61
2.94431e-59
2.09945e-57
1.31025e-55
7.12042e-54
3.34487e-52
1.35178e-50
4.69733e-49
1.40756e-47
3.64822e-46
8.19571e-45
1.61327e-43
2.81933e-42
1.97811e-89
3.60834e-87
9.40065e-85
3.43319e-82
1.44822e-79
5.84159e-77
2.03374e-74
5.87423e-72
1.39588e-69
2.74144e-67
4.49379e-65
6.22098e-63
7.35149e-61
7.46094e-59
6.49347e-57
4.79923e-55
2.97065e-53
1.53657e-51
6.81354e-50
2.70324e-48
9.97249e-47
3.13192e-45
7.66951e-44
4.78208e-99
4.16846e-97
1.09289e-94
6.5262e-92
6.17601e-89
6.58132e-86
6.34536e-83
5.16213e-80
3.54932e-77
2.06821e-74
1.01562e-71
4.18864e-69
1.4562e-66
4.2859e-64
1.00186e-61
2.09089e-59
3.92365e-57
5.90907e-55
7.17299e-53
7.21736e-51
5.93336e-49
3.73336e-47
1.67376e-45
2.50331e-06
2.48249e-06
7.94688e-07
1.02871e-07
-7.18916e-12
-8.26899e-09
2.51694e-19
-3.64935e-11
0.422998
0.0921321
0.031155
0.0353374
0.994046
0.970287
0.720954
0.687885
0.999952
0.999955
0.995033
0.978306
0.999996
0.999997
0.999999
0.999692
0.968713
0.972352
0.931406
0.658691
0.146859
0.113423
0.0705906
0.00393726
1.71614e-10
2.01809e-11
1.87593e-10
2.01759e-11
1.23374e-05
2.14452e-06
4.11001e-06
3.44472e-06
2.15607e-05
1.9733e-05
1.58365e-05
1.13214e-05
4.01916e-29
1.11072e-14
1.43791e-15
1.24423e-07
2.67839e-12
2.73761e-13
7.2824e-15
1.33016e-29
1.57498e-12
3.02036e-13
3.67269e-14
8.19211e-15
8.47816e-14
4.48058e-14
2.37512e-14
8.86974e-15
7.41301e-15
5.06284e-15
3.3915e-15
1.29225e-15
2.10177e-16
6.9035e-17
3.58074e-17
7.07455e-18
1.75183e-24
1.91897e-19
9.74516e-20
2.38053e-20
3.96648e-27
1.22418e-26
4.75773e-26
2.23353e-25
1.32883e-26
6.40556e-26
2.67397e-25
1.00319e-24
3.2309e-26
1.5716e-25
4.99789e-25
1.44349e-24
4.54986e-26
2.02997e-25
5.42408e-25
1.37251e-24
4.26201e-26
1.60768e-25
3.75924e-25
8.80717e-25
3.11029e-26
7.65348e-26
1.99016e-25
4.38247e-25
1.4037e-26
3.56384e-26
8.43257e-26
1.95869e-25
4.42078e-27
1.06383e-26
2.89373e-26
6.84478e-26
1.19828e-27
3.17224e-27
8.11119e-27
2.05253e-26
2.82476e-28
7.27291e-28
1.87448e-27
4.92409e-27
5.25268e-29
1.47857e-28
4.04346e-28
1.10513e-27
8.43373e-30
2.37273e-29
6.7489e-29
2.01865e-28
1.31187e-30
4.09747e-30
1.25284e-29
3.75744e-29
1.51761e-31
5.14305e-31
1.71038e-30
5.44356e-30
1.62211e-32
5.95617e-32
2.09177e-31
7.11393e-31
1.27548e-33
5.33503e-33
2.17655e-32
8.3513e-32
1.00663e-34
4.45181e-34
1.92456e-33
7.99612e-33
6.77333e-36
3.29076e-35
1.49879e-34
6.75026e-34
3.8607e-37
1.96914e-36
9.69546e-36
4.78545e-35
1.96846e-38
1.17957e-37
6.37261e-37
3.45927e-36
1.03114e-39
6.60825e-39
4.0877e-38
2.46074e-37
4.39036e-41
3.29333e-40
2.33704e-39
1.57782e-38
1.74127e-42
1.58207e-41
1.3698e-40
1.13313e-39
5.20902e-44
6.79352e-43
7.91128e-42
8.22604e-41
1.5595e-10
0.000253364
1.53248e-09
2.86864e-10
2.89569e-06
1.0216e-06
2.02493e-08
3.19058e-09
4.99479e-09
4.50156e-09
2.80014e-09
1.80834e-09
1.27134e-09
7.40384e-10
5.11072e-10
2.71427e-10
1.54122e-10
7.33625e-11
2.53673e-11
4.47605e-19
0.0132108
0.0135529
0.00178768
-2.95098e-07
4.85745e-06
1.06289e-06
9.29517e-09
6.79925e-09
6.45056e-09
3.81511e-09
2.56702e-09
1.59336e-09
7.23054e-10
3.86367e-10
2.64322e-10
1.55565e-10
8.27815e-11
2.61522e-11
0.114406
0.186535
0.126858
0.0220549
0.00121837
6.87524e-05
2.14713e-05
2.38722e-09
2.77701e-09
2.67878e-09
2.0695e-09
1.69734e-09
1.28802e-09
7.01562e-10
3.01272e-10
2.28147e-10
1.43471e-10
8.34427e-11
2.59388e-11
0.831806
0.866085
0.796414
0.168782
0.00334693
-5.59235e-08
3.27099e-08
8.31178e-09
1.06114e-09
8.24311e-10
5.75046e-10
6.06054e-10
5.69047e-10
3.98233e-10
2.41069e-10
1.6583e-10
1.24222e-10
7.62502e-11
2.44154e-11
0.993702
0.99338
0.993038
0.405236
4.18576e-10
3.65737e-10
6.09389e-10
2.15957e-09
2.71734e-09
2.32068e-09
6.5141e-10
1.76995e-10
1.8592e-10
1.459e-10
1.12194e-10
8.74332e-11
8.43992e-11
6.67001e-11
2.24474e-11
0.999999
0.977232
0.611041
0.0575123
3.64861e-10
3.05938e-09
5.57715e-10
4.78959e-10
9.02663e-10
1.20612e-09
9.32675e-10
2.19589e-10
5.91051e-11
4.68053e-11
2.25907e-11
3.05393e-11
5.39669e-11
5.35027e-11
2.11953e-11
0.543985
0.322708
0.00310684
2.39769e-11
2.47086e-08
2.28324e-08
1.43435e-09
9.26947e-10
8.36595e-10
5.64551e-10
3.41549e-10
1.17883e-10
1.83463e-11
2.92523e-12
1.5239e-12
1.07475e-11
3.72711e-11
4.11793e-11
1.70356e-11
0.000629382
6.40595e-11
2.398e-11
5.60321e-10
5.73687e-09
3.21341e-09
3.45919e-09
4.55627e-09
2.86297e-09
1.51203e-09
5.76574e-10
1.38278e-10
2.34483e-11
5.17595e-13
1.03448e-13
4.79196e-12
2.68448e-11
3.16542e-11
1.51645e-11
1.88424e-10
7.37123e-07
2.57872e-07
5.94978e-08
1.11949e-07
8.13362e-08
1.87224e-08
8.4259e-09
4.89595e-09
1.67294e-09
3.42849e-10
9.81484e-11
1.32613e-11
4.33931e-13
4.29126e-14
1.96473e-12
1.57949e-11
2.65347e-11
1.2628e-11
3.48811e-06
4.10369e-06
3.35765e-06
2.20504e-07
1.77352e-07
1.5355e-07
5.68954e-08
3.70122e-11
4.77302e-10
5.0035e-10
1.58083e-10
4.14083e-11
6.53817e-12
4.2038e-13
3.35235e-14
1.08101e-12
1.06438e-11
1.86881e-11
1.13868e-11
5.62202e-06
4.03049e-06
3.6289e-06
5.96478e-07
1.69114e-07
8.48395e-08
1.62746e-08
2.93382e-10
4.9424e-11
6.25921e-11
3.54114e-11
1.25544e-11
2.40666e-12
3.16053e-13
2.80782e-14
3.16972e-13
6.79985e-12
1.45599e-11
8.94099e-12
3.98647e-07
2.36079e-07
6.82349e-08
3.59233e-08
2.70939e-09
4.42448e-12
7.01583e-10
3.40647e-10
1.23294e-11
3.54546e-12
6.59005e-12
2.86989e-12
4.54613e-13
2.0864e-13
2.63527e-14
8.62149e-14
3.86285e-12
1.13323e-11
6.84849e-12
3.51305e-29
-8.98985e-14
-2.36178e-13
-2.81043e-13
4.459e-11
1.01002e-11
7.45143e-11
6.16237e-11
1.27543e-11
1.1809e-12
1.00071e-12
7.13943e-13
2.92055e-13
1.29175e-13
2.598e-14
1.74748e-14
1.45351e-12
6.9724e-12
5.51758e-12
2.55887e-15
2.55418e-16
5.54693e-17
2.789e-18
1.52517e-15
1.09861e-15
1.21907e-14
1.96861e-12
1.84278e-12
1.96833e-13
3.09297e-13
3.31161e-13
2.3147e-13
1.10598e-13
2.81288e-14
5.82316e-15
4.76875e-13
4.78787e-12
4.90635e-12
1.9662e-15
1.58739e-16
2.7065e-17
9.72833e-18
1.74417e-18
2.34355e-19
2.90714e-20
6.99661e-14
1.66834e-13
4.29099e-14
1.32706e-13
1.92142e-13
1.53727e-13
7.87849e-14
2.61982e-14
4.49575e-15
1.03224e-13
2.73193e-12
4.19855e-12
1.43809e-16
3.09241e-18
5.71152e-19
1.6456e-19
6.83167e-20
2.97901e-20
9.91159e-21
2.57584e-15
1.37779e-14
1.13489e-14
5.52676e-14
9.40519e-14
8.7237e-14
4.95423e-14
2.12525e-14
4.01424e-15
1.71547e-14
1.18655e-12
3.46419e-12
8.49927e-19
7.44747e-20
2.91772e-21
1.93485e-22
3.03332e-22
9.75234e-22
2.51921e-21
1.95349e-18
1.42715e-16
2.57606e-15
1.91369e-14
3.80465e-14
4.28953e-14
2.85622e-14
1.5686e-14
3.67165e-15
1.35007e-15
3.82464e-13
2.77924e-12
1.80553e-21
2.2571e-23
2.71863e-23
1.43086e-22
4.95372e-22
1.30464e-21
3.18977e-21
7.36027e-21
1.57949e-19
1.09835e-16
5.88276e-15
1.3187e-14
1.86748e-14
1.53868e-14
1.06874e-14
3.59063e-15
1.02315e-15
1.51488e-14
1.90052e-12
1.01952e-24
1.02029e-23
6.28722e-23
2.15889e-22
6.1541e-22
1.63336e-21
4.07387e-21
9.01158e-21
2.49935e-20
1.2385e-18
2.89492e-16
4.37482e-15
7.98705e-15
7.99982e-15
7.1423e-15
3.43875e-15
1.0521e-15
3.9447e-16
1.13314e-12
3.21636e-24
1.88772e-23
7.5162e-23
2.30974e-22
6.62213e-22
1.81746e-21
4.65352e-21
1.06908e-20
2.28284e-20
5.30172e-20
1.57467e-18
2.51638e-16
2.21852e-15
4.12041e-15
3.74038e-15
2.03935e-15
7.96053e-16
3.48731e-16
6.36287e-13
3.9675e-24
1.94463e-23
6.79976e-23
2.07815e-22
6.20625e-22
1.77209e-21
4.76581e-21
1.16997e-20
2.60391e-20
5.31145e-20
1.06995e-19
9.38481e-19
3.97359e-17
5.30215e-16
3.1639e-16
3.94051e-16
5.15379e-16
3.2955e-16
2.47659e-13
3.38135e-24
1.48501e-23
5.07175e-23
1.59653e-22
5.00963e-22
1.52825e-21
4.39943e-21
1.16713e-20
2.82198e-20
6.16839e-20
1.21503e-19
2.22685e-19
4.55591e-19
4.94074e-18
2.62832e-18
1.50622e-17
3.80447e-16
2.91999e-16
3.27547e-14
2.11893e-24
9.05447e-24
3.16275e-23
1.06051e-22
3.54855e-22
1.16948e-21
3.64862e-21
1.0649e-20
2.87257e-20
6.84837e-20
1.39146e-19
2.55814e-19
4.50304e-19
8.16672e-19
1.28355e-18
9.27086e-18
2.99014e-16
2.60237e-16
5.57643e-16
1.08226e-24
4.74463e-24
1.70963e-23
5.98979e-23
2.17398e-22
7.91572e-22
2.80156e-21
9.17488e-21
2.65258e-20
6.69283e-20
1.46708e-19
2.88446e-19
5.18012e-19
9.0547e-19
1.49087e-18
9.77833e-18
1.92249e-16
2.38536e-16
5.65958e-18
4.76178e-25
1.96173e-24
6.76448e-24
2.81716e-23
9.09968e-23
4.65137e-22
1.79085e-21
6.48371e-21
2.04935e-20
5.6473e-20
1.35781e-19
2.79053e-19
5.88714e-19
9.95732e-19
1.75589e-18
9.56788e-18
1.00954e-16
2.11973e-16
4.46307e-18
1.71935e-25
7.29492e-25
2.56376e-24
8.93983e-24
4.86551e-23
2.076e-22
9.03123e-22
3.50194e-21
1.18988e-20
3.51337e-20
8.65337e-20
2.37994e-19
4.8771e-19
1.10463e-18
2.12116e-18
5.52939e-18
3.37814e-17
1.47145e-16
4.35425e-18
5.23518e-26
2.26618e-25
8.86233e-25
3.33075e-24
1.73326e-23
8.09873e-23
3.82634e-22
1.63585e-21
6.10079e-21
1.96836e-20
5.43659e-20
1.20636e-19
4.04538e-19
8.89222e-19
1.9296e-18
3.53532e-18
4.7253e-18
4.23923e-17
4.26068e-18
1.34788e-26
6.45854e-26
2.76633e-25
1.09666e-24
4.68984e-24
2.76579e-23
1.36951e-22
6.42191e-22
2.58125e-21
9.07475e-21
2.75483e-20
6.70775e-20
1.86009e-19
5.18238e-19
1.15762e-18
1.66313e-18
1.48738e-18
3.16897e-18
3.95433e-18
3.09839e-27
1.54784e-26
7.14627e-26
3.10724e-25
1.35258e-24
6.56734e-24
4.16599e-23
2.07469e-22
9.77394e-22
3.86555e-21
1.27913e-20
3.48217e-20
7.12096e-20
2.35852e-19
5.00463e-19
8.38508e-19
1.10111e-18
1.08745e-18
2.51652e-18
6.13442e-28
3.37787e-27
1.61715e-26
7.32997e-26
3.52897e-25
1.80372e-24
1.00876e-23
5.7492e-23
2.97889e-22
1.33754e-21
5.04037e-21
1.53556e-20
3.62592e-20
6.64883e-20
1.73531e-19
3.64899e-19
6.69447e-19
7.20765e-19
1.25765e-18
1.12567e-28
6.28147e-28
3.25995e-27
1.54373e-26
7.59772e-26
3.88821e-25
2.17786e-24
1.29696e-23
7.40271e-23
3.763e-22
1.6298e-21
5.80996e-21
1.61443e-20
3.3015e-20
6.51372e-20
1.19167e-19
2.86296e-19
4.32965e-19
4.24798e-19
1.70184e-29
1.01291e-28
5.69763e-28
2.90198e-27
1.4614e-26
7.36978e-26
4.04179e-25
2.44763e-24
1.50633e-23
8.55667e-23
4.23365e-22
1.761e-21
5.94098e-21
1.54986e-20
2.9273e-20
6.15732e-20
1.25708e-19
2.06776e-19
1.35829e-19
2.39612e-30
1.58322e-29
9.72266e-29
5.33125e-28
2.72998e-27
1.3437e-26
6.93197e-26
4.02794e-25
2.54814e-24
1.57702e-23
8.77518e-23
4.19414e-22
1.66757e-21
5.09653e-21
1.39681e-20
2.91557e-20
5.17817e-20
1.04286e-19
4.35996e-20
3.09307e-31
2.23658e-30
1.51044e-29
8.95857e-29
4.79368e-28
2.36831e-27
1.15452e-26
6.13257e-26
3.72062e-25
2.3948e-24
1.46172e-23
7.87245e-23
3.59826e-22
1.28224e-21
4.22812e-21
1.0312e-20
2.29533e-20
3.44207e-20
1.80488e-20
3.28485e-32
2.72117e-31
2.09138e-30
1.34496e-29
7.64506e-29
3.90286e-28
1.8671e-27
9.09196e-27
4.9833e-26
3.1128e-25
1.99775e-24
1.18231e-23
5.54939e-23
2.66643e-22
9.21298e-22
2.6375e-21
5.07412e-21
1.20112e-20
4.72077e-21
3.06306e-33
2.88687e-32
2.55521e-31
1.80128e-30
1.09909e-29
5.89092e-29
2.86033e-28
1.32909e-27
6.51235e-27
3.6859e-26
2.33458e-25
1.45998e-24
7.51416e-24
4.00609e-23
1.55694e-22
5.00985e-22
1.41629e-21
1.87641e-21
1.26665e-21
2.49201e-34
2.79982e-33
2.82002e-32
2.18364e-31
1.43768e-30
8.15642e-30
4.09594e-29
1.8886e-28
8.53804e-28
4.20338e-27
2.41352e-26
1.51507e-25
8.38943e-25
4.79055e-24
2.04457e-23
7.41599e-23
1.56113e-22
4.31593e-22
2.16401e-22
1.96144e-35
2.44283e-34
2.68765e-33
2.27347e-32
1.62736e-31
9.88856e-31
5.22475e-30
2.47246e-29
1.09094e-28
4.83047e-28
2.36362e-27
1.24237e-26
8.6616e-26
4.58051e-25
2.05553e-24
7.3927e-24
2.89122e-23
3.07843e-23
2.32929e-23
1.52451e-36
2.1034e-35
2.49272e-34
2.26012e-33
1.72379e-32
1.10681e-31
6.10759e-31
2.97974e-30
1.32093e-29
5.56967e-29
2.22562e-28
1.18261e-27
7.14882e-27
3.58898e-26
1.47241e-25
4.96852e-25
2.89014e-24
4.05679e-24
1.5655e-24
1.09306e-37
1.71303e-36
2.23275e-35
2.17635e-34
1.76898e-33
1.19711e-32
6.86755e-32
3.44132e-31
1.5406e-30
6.36558e-30
2.50443e-29
1.02922e-28
5.75973e-28
2.60157e-27
7.55465e-27
2.97818e-26
2.2294e-25
1.90741e-25
1.2452e-25
9.17124e-39
1.46239e-37
1.93828e-36
1.99929e-35
1.72329e-34
1.23144e-33
7.37585e-33
3.81393e-32
1.73451e-31
7.12194e-31
2.6898e-30
9.63259e-30
4.59633e-29
1.98322e-28
5.27167e-28
2.3986e-27
1.34185e-26
1.12504e-26
1.19728e-26
7.86401e-40
1.29931e-38
1.71344e-37
1.7975e-36
1.59903e-35
1.19041e-34
7.41648e-34
3.96282e-33
1.8404e-32
7.56809e-32
2.81055e-31
9.0998e-31
3.7078e-30
1.4535e-29
4.64066e-29
1.94845e-28
6.84793e-28
8.54992e-28
8.59238e-29
)
;

boundaryField
{
    leftWall
    {
        type            alphaContactAngle;
        contactAngleProperties 
        {
            mercury         
            {
                theta0          90;
            }
            air             
            {
                theta0          90;
            }
            oil             
            {
                theta0          90;
            }
        }
        value           nonuniform List<scalar> 
50
(
1.26027e-14
2.14416e-15
1.38057e-11
5.63818e-10
-4.53955e-16
0.0813234
0.828341
1
1
1
1
1
1
0.624694
0
-2.28645e-17
-3.89105e-17
-5.26742e-17
-6.24095e-17
-6.44707e-17
-6.11466e-17
-5.31231e-17
-3.99063e-17
-2.35826e-17
-9.72644e-18
-2.45248e-18
-2.87671e-19
7.09795e-32
5.17292e-42
1.40277e-49
7.76788e-50
3.2334e-50
8.70666e-51
1.49193e-51
1.78744e-52
1.26358e-53
5.42269e-55
1.44698e-56
2.79929e-58
2.98301e-60
2.09826e-62
1.03224e-64
3.49159e-67
4.88033e-70
4.77534e-73
2.70506e-76
7.899e-80
6.42507e-84
1.97811e-89
4.78208e-99
)
;
    }
    rightWall
    {
        type            alphaContactAngle;
        contactAngleProperties 
        {
            mercury         
            {
                theta0          90;
            }
            air             
            {
                theta0          90;
            }
            oil             
            {
                theta0          90;
            }
        }
        value           nonuniform List<scalar> 
50
(
3.70825e-14
1.32063e-13
5.21263e-13
1.42902e-12
3.03573e-12
9.41002e-12
1.46347e-11
2.24048e-11
2.53673e-11
2.61522e-11
2.59388e-11
2.44154e-11
2.24474e-11
2.11953e-11
1.70356e-11
1.51645e-11
1.2628e-11
1.13868e-11
8.94099e-12
6.84849e-12
5.51758e-12
4.90635e-12
4.19855e-12
3.46419e-12
2.77924e-12
1.90052e-12
1.13314e-12
6.36287e-13
2.47659e-13
3.27547e-14
5.57643e-16
5.65958e-18
4.46307e-18
4.35425e-18
4.26068e-18
3.95433e-18
2.51652e-18
1.25765e-18
4.24798e-19
1.35829e-19
4.35996e-20
1.80488e-20
4.72077e-21
1.26665e-21
2.16401e-22
2.32929e-23
1.5655e-24
1.2452e-25
1.19728e-26
8.59238e-29
)
;
    }
    lowerWall
    {
        type            alphaContactAngle;
        contactAngleProperties 
        {
            mercury         
            {
                theta0          90;
            }
            air             
            {
                theta0          90;
            }
            oil             
            {
                theta0          90;
            }
        }
        value           nonuniform List<scalar> 
62
(
1.26027e-14
2.75688e-13
8.27715e-13
1.41199e-12
2.24193e-12
3.54647e-12
5.72185e-12
8.70812e-12
1.22059e-11
1.65917e-11
2.20451e-11
2.83294e-11
3.47755e-11
4.15356e-11
4.71288e-11
5.04496e-11
5.41098e-11
5.75182e-11
6.55536e-11
3.15152e-10
1.70708e-09
3.48671e-09
2.47164e-09
2.47164e-09
2.34282e-09
3.05996e-09
2.6473e-09
2.70136e-09
7.04873e-08
4.61018e-08
4.79718e-08
2.50331e-06
2.48249e-06
7.94688e-07
1.02871e-07
8.91946e-11
9.64087e-11
1.09191e-10
1.04781e-10
9.06715e-11
7.48908e-11
5.52826e-11
3.23903e-11
8.91946e-11
1.34531e-10
1.63825e-10
1.98382e-10
2.09346e-10
2.10087e-10
2.08422e-10
1.9585e-10
1.67288e-10
1.39834e-10
1.08208e-10
8.17408e-11
6.93461e-11
4.34117e-11
2.97097e-11
2.07973e-11
8.80722e-12
1.03642e-12
3.70825e-14
)
;
    }
    atmosphere
    {
        type            inletOutlet;
        inletValue      uniform 0;
        value           nonuniform List<scalar> 
46
(
0
0
0
0
0
0
0
0
0
0
0
0
0
0
0
0
0
0
0
0
0
0
0
0
0
7.91128e-42
8.22604e-41
7.86401e-40
1.29931e-38
1.71344e-37
1.7975e-36
1.59903e-35
1.19041e-34
7.41648e-34
3.96282e-33
1.8404e-32
7.56809e-32
2.81055e-31
9.0998e-31
3.7078e-30
1.4535e-29
4.64066e-29
1.94845e-28
6.84793e-28
8.54992e-28
8.59238e-29
)
;
    }
    defaultFaces
    {
        type            empty;
    }
}

