/*--------------------------------*- C++ -*----------------------------------*\
  =========                 |
  \\      /  F ield         | OpenFOAM: The Open Source CFD Toolbox
   \\    /   O peration     | Website:  https://openfoam.org
    \\  /    A nd           | Version:  13
     \\/     M anipulation  |
\*---------------------------------------------------------------------------*/
FoamFile
{
    format      ascii;
    class       volScalarField;
    location    "0.4";
    object      alpha.mercury;
}
// * * * * * * * * * * * * * * * * * * * * * * * * * * * * * * * * * * * * * //

dimensions      [];

internalField   nonuniform List<scalar> 
2268
(
1
1
1
1
1
1
1
1
1
1
1
1
1
1
1
1
1
1
1
1
1
1
0.999313
1
1
1
1
1
1
1
1
1
1
1
1
1
1
1
1
1
1
1
1
1
1
0.999308
1
1
1
1
1
1
1
1
1
1
1
1
1
1
1
1
1
1
1
1
1
1
0.999415
1
1
1
1
1
1
1
1
1
1
1
1
1
1
1
1
1
1
1
1
1
1
0.999923
1
1
1
1
1
1
1
1
1
1
1
1
1
1
1
1
1
1
1
1
1
1
1
0.918677
0.93825
0.946474
0.949804
0.950936
0.952131
0.95312
0.953401
0.952705
0.951231
0.949942
0.950642
0.955567
0.965938
0.982413
1
1
1
1
1
1
1
1
0.171659
0.217384
0.236687
0.24516
0.248312
0.25157
0.254622
0.256212
0.255796
0.253663
0.252018
0.255549
0.269786
0.302467
0.368162
0.490847
0.695855
0.95081
1
0.999994
0.999998
0.999999
0.999999
-8.06641e-93
-2.18597e-20
-4.16629e-21
-9.8035e-20
-1.21024e-19
-4.19046e-14
-1.24684e-14
-1.75306e-15
-1.4637e-16
-7.54531e-18
-3.39263e-19
-3.50028e-19
-1.23699e-18
-3.32584e-18
-3.02852e-18
0.00365723
0.0398911
0.225872
0.775495
0.99995
0.999971
0.999999
0.999999
9.38819e-10
1.28246e-09
1.48855e-09
1.49585e-09
1.38052e-09
1.27474e-09
1.20157e-09
1.27484e-09
1.16829e-09
9.79982e-10
7.75065e-10
6.27938e-10
5.66695e-10
3.97329e-10
2.9376e-10
2.18911e-10
1.02821e-10
1.3935e-11
6.36583e-13
9.86813e-10
1.8432e-09
2.42827e-09
1.35892e-09
1.25069e-09
1.14503e-09
1.18316e-09
1.71119e-09
2.42275e-09
2.59411e-09
1.9491e-09
1.30863e-09
1.03514e-09
8.89093e-10
7.05871e-10
4.42494e-10
2.026e-10
2.91112e-11
1.95832e-12
1.03619e-09
2.40755e-09
4.27468e-09
2.06111e-07
5.0131e-06
1.95419e-08
4.35086e-10
6.98537e-10
9.10217e-09
1.33019e-08
9.95071e-09
4.58255e-09
2.06265e-09
1.23267e-09
9.66149e-10
7.38885e-10
3.68994e-10
7.84651e-11
6.37765e-12
1.04706e-09
2.87803e-09
2.89233e-09
8.45057e-07
3.71733e-05
7.39401e-05
5.27262e-06
7.461e-10
-4.12749e-09
4.21455e-07
1.51049e-07
2.3692e-08
4.675e-09
2.54794e-09
1.06496e-09
8.39053e-10
4.97936e-10
1.69146e-10
1.53877e-11
9.38187e-10
9.25399e-10
8.9616e-08
4.41944e-07
2.21306e-05
7.5856e-05
0.000116382
2.46528e-07
1.68034e-05
8.26859e-06
1.04645e-08
9.87718e-10
2.42171e-09
2.14721e-09
1.42462e-09
8.758e-10
5.56284e-10
2.39961e-10
3.07544e-11
8.37236e-10
1.50955e-09
4.69289e-09
5.33896e-09
1.17749e-06
3.24409e-05
0.0010525
0.000327727
0.000166751
3.92709e-06
6.28982e-09
4.07154e-09
1.14781e-09
1.12713e-09
9.37129e-10
7.84001e-10
6.22892e-10
3.11452e-10
7.67109e-11
5.78649e-10
1.87521e-09
-1.51429e-22
2.01066e-08
0.000656624
0.120647
0.0749249
0.00742676
6.43822e-09
3.05045e-09
3.04189e-09
1.35007e-09
1.15134e-09
9.64643e-10
7.64433e-10
6.74103e-10
6.0616e-10
3.69122e-10
1.08041e-10
-3.24971e-16
-6.21045e-19
-1.53938e-19
-3.13473e-18
0.201302
0.505723
0.389725
0.023705
1.95104e-09
2.18496e-09
1.58912e-09
1.10575e-09
8.57997e-10
6.55452e-10
5.69396e-10
5.51635e-10
5.55459e-10
3.79932e-10
1.53381e-10
-2.66263e-92
-6.53304e-21
-6.07163e-21
-3.09895e-19
-4.24429e-19
-3.54923e-19
-2.47864e-19
-1.44691e-19
-7.14405e-20
-3.08386e-20
-2.77007e-19
-1.13142e-18
-5.16529e-18
-1.98308e-17
-4.37229e-17
-2.85159e-12
-3.88047e-12
3.24708e-07
0.0448805
0.405926
0.942544
0.996229
0.999886
-6.1698e-92
-1.01901e-20
-9.8663e-21
-4.22301e-19
-5.80788e-19
-4.93279e-19
-3.27716e-19
-1.85629e-19
-9.35427e-20
-4.30413e-20
-1.85602e-20
-1.6827e-18
-1.34046e-17
-6.35408e-17
-2.23945e-16
4.32913e-11
4.11391e-10
1.38544e-08
-3.76299e-18
0.000105379
0.192506
0.72167
0.98685
1.12089e-68
-4.96004e-21
-4.73561e-21
-3.61905e-21
-2.59975e-21
-1.84122e-21
-1.30022e-21
-9.12119e-22
-6.30941e-22
-4.55334e-22
-4.22842e-22
-1.1081e-18
-9.45314e-18
-4.72488e-17
-1.78243e-16
4.28863e-17
2.25684e-13
1.26915e-09
-1.25347e-11
3.83253e-05
8.10913e-10
0.0565873
0.295004
2.38694e-67
-8.49146e-22
-8.20355e-22
-6.27004e-22
-4.38275e-22
-2.91901e-22
-1.88418e-22
-1.18942e-22
-7.38668e-23
-5.15269e-23
-5.96137e-23
-2.74056e-19
-2.46733e-18
-1.26643e-17
-4.98337e-17
1.18542e-17
1.72782e-13
3.13627e-13
3.8887e-13
3.0671e-08
1.85476e-09
1.11375e-07
9.55218e-08
8.22024e-66
2.03005e-71
3.28606e-70
2.20054e-68
-4.96576e-76
-5.48716e-75
-7.16496e-79
2.13416e-64
1.05039e-64
6.08423e-65
2.09223e-66
8.76821e-68
1.4022e-59
0
1.4471e-58
-8.42208e-20
1.34383e-14
1.7701e-13
1.07562e-13
8.02443e-10
4.0189e-09
4.04404e-09
1.15754e-05
4.69454e-63
2.98457e-62
1.65991e-60
4.48673e-59
7.58197e-58
5.17513e-57
7.24073e-56
1.14114e-55
8.31608e-56
3.7926e-56
4.65692e-57
1.25778e-58
1.57642e-58
3.49966e-58
2.08399e-56
-3.99851e-66
4.10804e-16
4.76407e-15
8.96893e-14
9.28884e-12
8.67824e-15
1.84063e-07
3.53659e-06
2.05637e-61
2.00538e-60
9.82361e-59
2.65478e-57
4.48945e-56
3.33905e-55
4.62083e-54
6.78839e-54
5.31863e-54
2.99251e-54
7.21211e-55
3.6703e-56
3.03721e-56
3.34855e-56
9.27564e-54
2.36619e-54
4.32641e-54
4.08237e-17
4.4412e-14
4.07095e-14
-4.28862e-15
7.8766e-08
1.56552e-07
1.18258e-60
1.53418e-59
6.58464e-58
1.77341e-56
3.05529e-55
2.55174e-54
3.1348e-53
4.19018e-53
3.12057e-53
1.66216e-53
4.91479e-54
1.16919e-54
6.38015e-55
5.38481e-55
1.52133e-52
2.55362e-52
5.24179e-50
4.67143e-50
3.75951e-16
5.19194e-13
5.62129e-12
1.48247e-09
2.68044e-12
5.84966e-60
1.33196e-58
4.47812e-57
1.13866e-55
1.98591e-54
2.09081e-53
2.13428e-52
2.66721e-52
1.75591e-52
7.17047e-53
1.89236e-53
7.8607e-54
2.4551e-54
3.21231e-54
3.04599e-52
1.16336e-50
2.26366e-48
5.71831e-46
4.29469e-46
3.55613e-15
8.70643e-14
-4.76884e-31
3.1345e-33
2.74163e-59
9.08813e-58
2.75975e-56
6.72929e-55
1.17708e-53
1.63556e-52
1.37095e-51
1.61504e-51
9.1986e-52
3.09739e-52
7.55646e-53
3.53522e-53
1.6996e-53
3.40187e-53
3.96851e-52
1.91049e-49
8.78241e-48
5.98071e-45
5.92289e-44
2.03004e-44
9.52418e-45
2.56777e-16
5.64946e-16
1.20526e-58
5.07043e-57
1.5226e-55
3.64337e-54
6.63249e-53
1.09758e-51
7.48151e-51
8.31643e-51
3.9825e-51
1.00238e-51
3.39975e-52
1.24237e-52
7.62239e-53
2.01111e-52
1.58879e-51
2.40371e-48
1.63295e-46
4.69436e-44
3.5235e-43
1.09825e-42
1.6667e-39
1.88393e-39
2.33265e-47
4.99837e-58
2.4976e-56
7.75101e-55
1.80754e-53
3.74046e-52
6.35519e-51
3.46899e-50
3.70659e-50
1.48766e-50
2.52047e-51
1.87394e-51
4.64857e-52
2.68542e-52
2.29216e-51
1.29957e-50
1.28665e-47
7.75622e-46
1.60073e-42
1.18924e-42
3.45532e-42
2.41829e-39
2.75569e-37
1.77018e-35
2.08112e-57
1.14095e-55
3.71394e-54
8.60397e-53
1.95906e-51
3.24824e-50
1.52362e-49
1.68167e-49
4.31557e-50
4.46538e-51
6.03715e-51
1.68855e-51
7.23656e-51
3.24896e-47
7.28933e-48
1.23015e-45
6.14052e-45
1.73404e-41
3.85075e-41
3.68754e-41
2.84182e-38
5.94129e-36
1.04572e-34
8.32931e-57
4.92808e-55
1.67596e-53
4.10632e-52
8.98595e-51
1.37359e-49
6.55596e-49
7.04235e-49
9.53168e-50
2.85779e-50
3.32635e-49
1.96218e-48
5.4672e-47
4.75051e-44
2.39538e-44
2.51256e-42
4.29811e-42
5.06199e-39
5.38176e-39
1.84188e-38
7.29156e-37
5.62639e-35
3.97541e-34
3.0434e-56
1.97609e-54
7.07164e-53
1.8214e-51
3.67412e-50
4.31985e-49
2.75079e-48
1.94441e-48
2.46583e-48
2.61779e-47
3.37781e-46
2.35439e-45
4.17209e-44
5.93763e-42
9.23233e-42
5.2762e-40
1.38367e-39
2.25744e-37
4.41059e-37
2.81242e-36
3.23684e-35
3.93042e-34
2.1687e-33
9.41377e-56
6.91297e-54
2.66584e-52
6.80983e-51
1.21705e-49
8.9381e-49
1.10156e-47
2.43397e-47
3.43202e-46
3.95224e-45
4.76082e-44
3.94315e-43
4.90995e-42
1.47921e-40
6.41748e-40
2.25832e-38
7.75511e-38
2.9722e-36
9.66772e-36
7.35129e-35
5.05889e-34
3.75653e-33
1.83311e-32
2.37079e-55
1.79903e-53
7.6382e-52
1.891e-50
2.95645e-49
4.46664e-48
4.17628e-47
8.46575e-46
1.0652e-44
1.21704e-43
1.37414e-42
1.31498e-41
1.34592e-40
1.62314e-39
1.26069e-38
2.7593e-37
1.16293e-36
1.54052e-35
7.71358e-35
5.07163e-34
2.8211e-33
1.46489e-32
5.40265e-32
1.34111e-54
9.43333e-53
3.43724e-51
9.25567e-50
2.02823e-48
3.3453e-47
5.82151e-46
8.51067e-45
1.02671e-43
1.20662e-42
1.32328e-41
1.34493e-40
1.27245e-39
1.12246e-38
9.7668e-38
1.2033e-36
6.76163e-36
3.49047e-35
2.75186e-34
1.68477e-33
8.1549e-33
3.3959e-32
1.19416e-31
4.1052e-54
3.37062e-52
1.43039e-50
4.13138e-49
8.75898e-48
1.52165e-46
2.65356e-45
3.86334e-44
4.57533e-43
5.82932e-42
6.22537e-41
6.26578e-40
5.66919e-39
4.8297e-38
3.94733e-37
2.35376e-36
2.0514e-35
1.26119e-34
6.37612e-34
3.62586e-33
1.6942e-32
8.36606e-32
9.67265e-31
6.70229e-54
5.95045e-52
2.68782e-50
8.07464e-49
1.86624e-47
3.6595e-46
6.72349e-45
1.0043e-43
1.32392e-42
1.7381e-41
1.75373e-40
1.76957e-39
1.55515e-38
1.29417e-37
1.00283e-36
7.30558e-36
4.51567e-35
2.47879e-34
1.2462e-33
7.96408e-33
7.96508e-32
1.9937e-30
5.07847e-29
7.87663e-54
7.2718e-52
3.36005e-50
1.0606e-48
2.47701e-47
6.46353e-46
1.0688e-44
1.77049e-43
2.48439e-42
3.07451e-41
3.30394e-40
3.37108e-39
2.88772e-38
2.49914e-37
1.86989e-36
1.26933e-35
7.69233e-35
4.47545e-34
4.10552e-33
6.92141e-32
1.51241e-30
3.01095e-29
5.08986e-28
7.62413e-54
7.15648e-52
3.35176e-50
9.54188e-49
3.347e-47
7.39828e-46
1.28811e-44
2.27853e-43
3.17843e-42
3.70289e-41
4.43241e-40
4.29877e-39
3.59953e-38
3.18345e-37
2.33697e-36
1.57914e-35
1.07126e-34
1.04641e-33
2.14549e-32
4.10017e-31
6.80816e-30
1.01767e-28
1.25163e-27
5.50142e-54
5.22533e-52
2.59127e-50
8.27557e-49
3.25886e-47
6.87583e-46
1.26633e-44
2.32173e-43
3.21756e-42
3.73968e-41
4.53718e-40
4.36122e-39
3.57922e-38
3.19037e-37
2.31334e-36
1.66135e-35
1.48652e-34
2.40424e-33
5.22856e-32
8.44575e-31
1.18918e-29
1.53736e-28
1.53614e-27
2.98045e-54
3.19376e-52
1.77878e-50
5.64213e-49
2.05057e-47
4.43842e-46
8.52845e-45
1.60138e-43
2.23334e-42
2.62435e-41
3.21526e-40
3.0701e-39
2.5067e-38
2.26062e-37
1.7146e-36
1.4734e-35
1.73932e-34
3.26239e-33
6.50007e-32
9.16063e-31
1.09889e-29
1.20105e-28
1.14909e-27
9.79279e-55
1.14896e-52
5.58403e-51
2.94887e-49
8.39018e-48
1.86348e-46
3.72634e-45
7.26385e-44
1.04105e-42
1.25935e-41
1.58385e-40
1.57043e-39
1.41066e-38
1.15759e-37
9.483e-37
9.42006e-36
1.25031e-34
2.29642e-33
4.11133e-32
5.41458e-31
6.38632e-30
6.77072e-29
5.82264e-28
2.04584e-55
2.73649e-53
1.7898e-51
5.77206e-50
2.19522e-48
5.17545e-47
1.14352e-45
2.36485e-44
3.46787e-43
4.36656e-42
5.7869e-41
5.96433e-40
5.5662e-39
4.8231e-38
4.30161e-37
4.50471e-36
5.75902e-35
1.00675e-33
1.69569e-32
2.062e-31
2.18373e-30
2.11829e-29
1.87647e-28
3.16768e-56
4.37132e-54
2.24877e-52
1.31276e-50
4.29127e-49
1.12333e-47
2.67039e-46
5.65959e-45
8.59849e-44
1.15189e-42
1.61523e-41
1.74166e-40
1.68975e-39
1.49923e-38
1.31321e-37
1.27891e-36
1.48496e-35
2.35994e-34
3.77728e-33
4.6826e-32
5.33717e-31
5.472e-30
4.74805e-29
2.98572e-57
4.75221e-55
3.54277e-53
1.29459e-51
5.95609e-50
1.80694e-48
4.91284e-47
9.81194e-46
1.58713e-44
2.29257e-43
3.41578e-42
3.85361e-41
3.88254e-40
3.54884e-39
3.11676e-38
2.86845e-37
3.03701e-36
4.55239e-35
7.11948e-34
8.77269e-33
1.00994e-31
1.08333e-30
9.99574e-30
1.74473e-58
3.00175e-56
1.82195e-54
1.29068e-52
4.85471e-51
1.64786e-49
4.97073e-48
1.08833e-46
1.87424e-45
2.85444e-44
4.45746e-43
5.26702e-42
5.55402e-41
5.25697e-40
4.62909e-39
4.03482e-38
3.96611e-37
5.97135e-36
9.70897e-35
1.22374e-33
1.41872e-32
1.54351e-31
1.49447e-30
5.55263e-60
1.0579e-57
9.90773e-56
5.97699e-54
2.60336e-52
9.77183e-51
3.12978e-49
7.30307e-48
1.35755e-46
2.28577e-45
3.9289e-44
5.08877e-43
5.80046e-42
5.81516e-41
5.29188e-40
4.61468e-39
4.30167e-38
5.89683e-37
9.38127e-36
1.25386e-34
1.62058e-33
1.91584e-32
1.90149e-31
1.3828e-61
3.05822e-59
3.09317e-57
1.96125e-55
1.01605e-53
4.35335e-52
1.32695e-50
3.15359e-49
6.82007e-48
1.494e-46
2.44248e-45
3.49514e-44
4.36789e-43
4.82798e-42
4.83165e-41
4.53036e-40
4.11971e-39
2.75496e-38
6.22871e-37
1.01331e-35
1.49253e-34
2.05533e-33
2.38024e-32
1.4715e-63
3.56023e-61
3.97481e-59
3.292e-57
2.11396e-55
9.33269e-54
3.11399e-52
9.48525e-51
2.83251e-49
6.13758e-48
1.14022e-46
1.81907e-45
2.51858e-44
3.08342e-43
3.42628e-42
3.47739e-41
3.23494e-40
3.52e-39
4.80105e-38
6.45967e-37
9.82421e-36
1.47206e-34
1.91756e-33
1.2168e-65
3.61334e-63
5.07402e-61
4.63947e-59
3.11553e-57
1.62124e-55
6.75468e-54
2.31994e-52
6.72801e-51
1.67138e-49
3.58408e-48
6.67646e-47
1.08705e-45
1.55474e-44
1.96384e-43
2.20767e-42
2.18869e-41
1.94085e-40
2.14132e-39
3.39062e-38
5.91992e-37
1.05508e-35
1.58595e-34
5.80965e-68
2.08432e-65
3.43538e-63
3.63436e-61
2.79507e-59
1.67147e-57
8.11246e-56
3.28639e-54
1.12878e-52
3.31006e-51
8.32989e-50
1.81328e-48
3.4402e-47
5.70887e-46
8.32163e-45
1.07639e-43
1.22941e-42
1.22966e-41
1.3115e-40
1.66005e-39
2.38923e-38
4.06332e-37
7.01731e-36
2.09634e-70
8.72997e-68
1.67128e-65
2.05289e-63
1.83458e-61
1.27435e-59
7.15434e-58
3.32295e-56
1.29836e-54
4.33233e-53
1.24838e-51
3.12425e-50
6.82752e-49
1.31398e-47
2.24358e-46
3.40259e-45
4.48292e-44
5.0261e-43
5.75782e-42
7.70029e-41
1.10602e-39
1.9996e-38
3.64362e-37
3.02023e-73
1.8009e-70
4.16899e-68
6.27984e-66
6.94071e-64
5.9755e-62
4.1503e-60
2.37688e-58
1.13801e-56
4.5983e-55
1.57999e-53
4.6463e-52
1.18113e-50
2.65705e-49
5.40312e-48
9.81565e-47
1.5305e-45
2.00655e-44
2.62026e-43
3.69633e-42
4.72988e-41
6.28078e-40
1.0982e-38
3.11319e-76
1.79319e-73
4.87669e-71
8.93247e-69
1.23203e-66
1.34405e-64
1.18893e-62
8.64229e-61
5.20271e-59
2.60753e-57
1.09302e-55
3.87472e-54
1.19424e-52
3.29561e-51
8.14323e-50
1.77349e-48
3.37703e-47
5.645e-46
8.45869e-45
1.16741e-43
1.63702e-42
2.63331e-41
4.61179e-40
1.68545e-79
1.15716e-76
3.51418e-74
7.68778e-72
1.30828e-69
1.7867e-67
1.99746e-65
1.85279e-63
1.43581e-61
9.32047e-60
5.09611e-58
2.38212e-56
9.65202e-55
3.40473e-53
1.05841e-51
2.93714e-50
7.21304e-49
1.54719e-47
2.89533e-46
4.81543e-45
7.30682e-44
1.03448e-42
1.55918e-41
4.76198e-83
2.05604e-80
6.49433e-78
1.69254e-75
3.71283e-73
6.81599e-71
1.04408e-68
1.33695e-66
1.43574e-64
1.29649e-62
9.86284e-61
6.33514e-59
3.45138e-57
1.60838e-55
6.48423e-54
2.27896e-52
6.98222e-51
1.87707e-49
4.5553e-48
1.02019e-46
2.08486e-45
3.84334e-44
6.65184e-43
3.99848e-87
1.20029e-84
3.8748e-82
1.26487e-79
3.89051e-77
1.04182e-74
2.32584e-72
4.27278e-70
6.49025e-68
8.26763e-66
8.98204e-64
8.42854e-62
6.85898e-60
4.82223e-58
2.90967e-56
1.49963e-54
6.59502e-53
2.48047e-51
8.01398e-50
2.23332e-48
5.39887e-47
1.15696e-45
2.28141e-44
1.28039e-92
2.70104e-90
8.09643e-88
3.39094e-85
1.63477e-82
7.50795e-80
2.96446e-77
9.67594e-75
2.5921e-72
5.73785e-70
1.06235e-67
1.66579e-65
2.23024e-63
2.55171e-61
2.47907e-59
2.02122e-57
1.36767e-55
7.72888e-54
3.76883e-52
1.64942e-50
6.69326e-49
2.27331e-47
6.13041e-46
2.79944e-102
2.78745e-100
8.37397e-98
5.74428e-95
6.22857e-92
7.59404e-89
8.41806e-86
7.92806e-83
6.30538e-80
4.21464e-77
2.35099e-74
1.09365e-71
4.26513e-69
1.40181e-66
3.65216e-64
8.45194e-62
1.74914e-59
2.88587e-57
3.8489e-55
4.27128e-53
3.86513e-51
2.66473e-49
1.31821e-47
0.999868
0.999716
0.859406
0.536137
0.998338
0.99968
0.989851
0.977311
0.539324
0.671692
0.690528
0.687492
0.00595324
0.0297061
0.0529274
0.0342352
4.79202e-05
4.45312e-05
1.47948e-07
1.50663e-20
3.15555e-06
2.09271e-06
2.8665e-07
1.88977e-11
9.99496e-08
1.66407e-08
1.44004e-08
1.59942e-08
1.90246e-14
1.04887e-14
1.87084e-12
2.44192e-10
-9.19801e-28
-1.16995e-27
-1.28338e-16
-3.13198e-16
5.77773e-16
5.30094e-16
2.25714e-16
9.0035e-18
1.83683e-47
-7.30035e-34
1.94684e-30
1.15726e-32
4.25921e-35
6.97924e-35
1.73632e-34
6.55668e-34
2.01158e-34
4.01441e-34
1.11088e-33
3.4115e-33
8.79859e-34
1.56211e-33
3.64051e-33
1.32988e-32
3.64009e-33
1.04623e-32
2.18061e-32
3.61918e-32
3.27635e-32
7.48011e-32
1.26373e-31
2.02178e-31
1.02571e-31
2.36345e-31
5.43025e-31
2.78188e-30
3.32669e-31
3.97355e-30
5.49076e-29
9.84311e-28
2.59329e-29
4.34672e-28
4.84215e-27
4.15594e-26
8.93118e-28
9.34699e-27
5.6843e-26
2.81071e-25
5.16795e-27
3.76851e-26
1.53556e-25
5.5791e-25
9.03801e-27
5.82354e-26
1.99701e-25
6.64281e-25
9.36616e-27
5.32262e-26
1.63828e-25
5.19644e-25
8.11919e-27
2.63932e-26
9.49718e-26
2.97616e-25
4.11146e-27
1.43178e-26
4.59722e-26
1.48359e-25
1.23935e-27
4.22295e-27
1.66405e-26
5.47934e-26
3.58437e-28
1.35384e-27
4.71059e-27
1.61767e-26
7.463e-29
2.74156e-28
9.89634e-28
3.66221e-27
1.26627e-29
5.19066e-29
1.98498e-28
7.62e-28
1.62026e-30
6.9474e-30
2.93905e-29
1.27046e-28
2.34547e-31
1.11415e-30
4.91963e-30
2.0673e-29
2.18847e-32
1.18675e-31
5.7777e-31
2.57947e-30
1.99409e-33
1.14307e-32
5.93156e-32
2.89628e-31
1.13849e-34
8.39797e-34
5.29412e-33
2.93017e-32
6.25315e-36
5.02219e-35
3.55465e-34
2.25775e-33
2.57437e-37
2.38782e-36
1.92684e-35
1.42878e-34
8.44664e-39
8.26e-38
7.94153e-37
7.38125e-36
3.002e-40
3.22604e-39
3.39665e-38
3.57721e-37
1.20718e-41
1.26428e-40
1.4305e-39
1.68073e-38
4.35296e-43
4.45809e-42
4.98908e-41
6.50999e-40
1.61385e-44
1.81716e-43
2.24856e-42
3.26593e-41
4.6282e-46
7.06884e-45
1.05602e-43
1.68906e-42
0.169837
0.0960403
0.0479709
0.231435
0.534093
0.523784
0.417121
0.0271897
1.94846e-09
2.92136e-09
8.92131e-10
6.41316e-10
5.15906e-10
3.81746e-10
3.45284e-10
4.04732e-10
4.30815e-10
3.70738e-10
1.54383e-10
0.958171
0.679655
0.624606
0.588067
0.572061
0.455029
0.149344
2.80122e-09
2.2761e-09
1.62556e-09
8.75374e-10
7.30444e-10
5.86119e-10
3.2868e-10
2.05527e-10
2.4804e-10
3.30613e-10
3.06876e-10
1.46874e-10
0.755127
0.786355
0.722942
0.358176
0.0497812
3.90013e-05
3.71639e-15
3.04346e-07
5.0667e-08
4.40925e-09
1.95407e-09
7.9404e-10
4.5972e-10
2.83256e-10
1.60874e-10
1.63694e-10
2.2195e-10
2.65145e-10
1.25007e-10
0.0559208
0.128177
0.0431112
2.79822e-11
2.85737e-11
6.95539e-08
8.00303e-09
1.12118e-07
8.52913e-08
2.20347e-08
7.12611e-09
1.2241e-09
2.48603e-10
1.95465e-10
1.43725e-10
1.17936e-10
1.83669e-10
1.94805e-10
1.1276e-10
-4.82615e-13
4.21323e-13
8.65347e-15
9.99387e-06
4.7198e-06
4.21642e-07
2.51787e-08
9.5974e-08
1.35208e-07
7.62492e-08
1.85667e-10
4.86572e-11
8.60169e-11
1.09739e-10
9.67082e-11
7.52833e-11
1.31476e-10
1.68137e-10
8.96005e-11
-5.22175e-15
-2.08617e-12
2.46437e-05
3.30053e-05
1.72904e-05
1.38814e-11
1.38865e-10
3.95716e-08
7.11818e-08
2.16983e-08
3.40958e-11
3.39014e-11
3.76263e-11
5.81447e-11
3.81146e-11
3.5467e-11
9.42317e-11
1.36522e-10
8.02507e-11
8.72841e-09
2.04073e-12
3.82317e-21
6.04053e-12
5.68508e-22
6.07515e-10
2.33517e-10
1.55093e-14
1.37212e-15
2.21835e-11
3.07844e-10
2.58384e-10
6.1413e-11
1.24976e-11
4.81686e-12
1.44387e-11
6.9939e-11
1.0509e-10
6.08506e-11
8.18731e-10
7.57664e-10
3.3178e-10
5.11099e-11
2.19532e-12
6.81076e-14
6.33995e-13
2.39554e-12
2.54342e-12
7.01432e-13
9.85019e-11
1.10892e-10
2.96936e-11
2.44511e-12
2.62238e-13
6.3211e-12
5.08604e-11
7.90611e-11
5.39397e-11
-1.20085e-16
3.05024e-12
8.29733e-12
7.5787e-12
3.00589e-12
1.5336e-13
3.50987e-14
2.06458e-13
6.56569e-13
6.0612e-13
5.04251e-12
2.82688e-11
9.50403e-12
1.06987e-12
6.82495e-14
2.09475e-12
2.80625e-11
6.50407e-11
4.34306e-11
6.18084e-20
7.60813e-28
2.21442e-29
1.4113e-28
1.18879e-23
1.35034e-23
3.31385e-24
6.77446e-32
1.44272e-31
9.29927e-14
4.55755e-14
4.71055e-12
2.79079e-12
6.6533e-13
3.9577e-14
1.38257e-12
1.80229e-11
4.42821e-11
3.79826e-11
1.20798e-25
4.35435e-24
3.05451e-23
6.26984e-23
6.54479e-23
5.59767e-23
2.82153e-23
3.49878e-24
3.42222e-25
1.49012e-15
1.56608e-16
4.5954e-13
7.22302e-13
3.32463e-13
2.11192e-14
3.64589e-13
1.13688e-11
3.40043e-11
2.84309e-11
3.64454e-33
2.90936e-32
2.054e-31
9.54712e-31
3.38353e-29
5.06611e-27
1.14455e-26
1.31363e-25
4.10157e-25
1.19179e-18
1.23233e-17
2.63567e-14
4.83474e-14
1.11001e-13
1.5554e-14
1.06208e-13
6.56142e-12
2.64151e-11
2.18301e-11
1.97196e-32
1.05091e-31
5.02144e-31
2.33924e-30
1.1556e-27
4.41512e-26
3.19125e-25
2.00044e-24
7.12416e-24
3.97803e-20
1.82644e-19
2.10621e-15
1.93943e-14
1.57916e-14
8.2167e-15
1.76572e-14
2.53542e-12
1.66358e-11
1.81665e-11
5.79243e-32
1.93965e-31
9.07435e-31
1.29776e-29
1.33945e-26
9.67774e-25
6.58958e-24
4.19447e-23
1.24846e-22
1.82607e-22
1.25115e-19
6.5513e-16
1.26986e-14
1.12166e-14
4.12026e-15
1.30659e-15
9.1435e-13
1.14405e-11
1.64773e-11
1.09899e-31
6.72877e-31
4.72674e-30
2.12366e-27
2.14217e-25
6.77777e-24
7.679e-23
2.61135e-22
6.94858e-22
1.16173e-21
7.56579e-20
3.4872e-16
6.49927e-15
6.59897e-15
2.39325e-15
2.39232e-16
2.04266e-13
6.4115e-12
1.44434e-11
4.0246e-30
3.02012e-29
3.84386e-27
2.92169e-25
7.48138e-24
5.81227e-23
4.08873e-22
1.11432e-21
3.41059e-21
5.54426e-21
4.51504e-20
1.58026e-16
2.91956e-15
3.11442e-15
1.1483e-15
1.86311e-16
3.40968e-14
2.66909e-12
1.22819e-11
3.62308e-28
1.18857e-26
4.43268e-25
7.70821e-24
7.42858e-23
4.08007e-22
1.20254e-21
3.46871e-21
7.98443e-21
1.73036e-20
3.93888e-20
5.58224e-17
1.10055e-15
1.242e-15
5.46891e-16
1.61238e-16
1.26297e-15
8.05501e-13
1.01333e-11
1.90298e-26
5.02345e-25
7.26153e-24
5.2293e-23
2.78482e-22
1.04442e-21
3.31596e-21
8.64705e-21
1.86274e-20
3.55308e-20
6.25412e-20
1.53273e-17
3.35436e-16
4.33819e-16
2.45079e-16
1.39855e-16
3.51204e-16
2.79828e-14
7.19716e-12
2.80719e-25
3.91245e-24
3.08614e-23
1.57955e-22
6.46708e-22
2.26331e-21
6.74003e-21
1.60667e-20
3.30074e-20
5.90785e-20
9.55652e-20
3.63811e-18
8.67485e-17
1.33471e-16
1.04528e-16
1.11669e-16
2.09003e-16
3.99759e-16
4.68261e-12
1.22229e-24
1.05637e-23
6.01753e-23
2.69702e-22
1.04913e-21
3.5523e-21
1.02258e-20
2.47024e-20
5.22534e-20
9.72049e-20
1.55759e-19
3.61332e-19
1.39684e-17
3.97506e-17
3.19315e-17
6.21395e-17
1.77145e-16
3.79728e-16
3.20564e-12
2.0449e-24
1.48539e-23
7.78578e-23
3.37241e-22
1.30293e-21
4.40665e-21
1.29661e-20
3.27792e-20
7.23566e-20
1.40775e-19
2.45126e-19
3.83365e-19
7.10085e-19
2.86005e-18
2.8284e-18
2.07306e-17
1.83605e-16
3.9004e-16
1.87779e-12
2.31338e-24
1.53428e-23
7.66611e-23
3.29796e-22
1.29682e-21
4.55476e-21
1.40649e-20
3.79245e-20
8.99223e-20
1.88627e-19
3.47981e-19
5.60584e-19
8.59762e-19
1.44548e-18
2.68085e-18
9.7391e-18
2.15112e-16
4.14695e-16
5.38114e-13
1.7785e-24
1.13808e-23
5.77528e-23
2.59818e-22
1.07142e-21
3.99298e-21
1.31626e-20
3.86501e-20
1.01816e-19
2.32379e-19
4.43638e-19
7.56228e-19
1.17994e-18
1.77488e-18
3.22106e-18
1.188e-17
2.42263e-16
4.24621e-16
3.00509e-14
1.06984e-24
6.89349e-24
3.53842e-23
1.65508e-22
7.32464e-22
2.9857e-21
1.10544e-20
3.61767e-20
1.01707e-19
2.4434e-19
5.0318e-19
9.23715e-19
1.53095e-18
2.54537e-18
4.08703e-18
1.45966e-17
2.23647e-16
4.25871e-16
1.22719e-16
5.05511e-25
2.94934e-24
1.42524e-23
8.22775e-23
3.17722e-22
1.88252e-21
7.53651e-21
2.71502e-20
8.3311e-20
2.19264e-19
4.96004e-19
9.5479e-19
1.86472e-18
2.93453e-18
4.99228e-18
1.99783e-17
1.70034e-16
4.23481e-16
1.72635e-17
1.87796e-25
1.13041e-24
5.31836e-24
2.54974e-23
1.82372e-22
8.81525e-22
4.00921e-21
1.55516e-20
5.1584e-20
1.46639e-19
3.4544e-19
8.73056e-19
1.66621e-18
3.47971e-18
6.44443e-18
1.66145e-17
1.00383e-16
3.84765e-16
1.64822e-17
5.57755e-26
3.4467e-25
1.84561e-24
9.62818e-24
6.62387e-23
3.54835e-22
1.76641e-21
7.59175e-21
2.77615e-20
8.65171e-20
2.2934e-19
4.92505e-19
1.48229e-18
2.97136e-18
6.1309e-18
1.34288e-17
3.30301e-17
2.10711e-16
1.60434e-17
1.38008e-26
9.44891e-26
5.74224e-25
3.07224e-24
1.72043e-23
1.22152e-22
6.4931e-22
3.09044e-21
1.22805e-20
4.20626e-20
1.23169e-19
2.89457e-19
7.74471e-19
2.06425e-18
4.47218e-18
7.40143e-18
8.06666e-18
3.13101e-17
1.50524e-17
2.95083e-27
2.10943e-26
1.36122e-25
8.2777e-25
4.68476e-24
2.81161e-23
2.00218e-22
1.02645e-21
4.80059e-21
1.86021e-20
5.99915e-20
1.58817e-19
3.2197e-19
1.08411e-18
2.32206e-18
3.75279e-18
4.64047e-18
4.87154e-18
1.00818e-17
5.31893e-28
4.11751e-27
2.74885e-26
1.74394e-25
1.14797e-24
7.48174e-24
4.83268e-23
2.89721e-22
1.50438e-21
6.64337e-21
2.45044e-20
7.32145e-20
1.71251e-19
3.25355e-19
8.67674e-19
1.7342e-18
2.84276e-18
3.112e-18
5.30424e-18
8.5886e-29
6.86268e-28
4.88469e-27
3.19704e-26
2.17037e-25
1.48737e-24
1.01477e-23
6.59302e-23
3.82794e-22
1.92151e-21
8.1527e-21
2.85159e-20
7.83109e-20
1.60617e-19
3.21096e-19
5.91145e-19
1.31583e-18
1.95862e-18
1.91706e-18
1.13326e-29
9.78912e-29
7.52497e-28
5.2286e-27
3.60739e-26
2.49796e-25
1.76999e-24
1.23326e-23
7.92821e-23
4.48416e-22
2.17401e-21
8.85127e-21
2.9384e-20
7.60726e-20
1.43515e-19
3.03154e-19
6.10966e-19
9.7291e-19
6.6852e-19
1.4029e-30
1.34947e-29
1.12969e-28
8.35447e-28
5.75685e-27
3.88454e-26
2.71218e-25
1.94608e-24
1.34836e-23
8.46231e-23
4.62907e-22
2.16001e-21
8.41122e-21
2.53613e-20
6.89224e-20
1.43388e-19
2.54066e-19
5.00492e-19
2.29305e-19
1.55995e-31
1.65675e-30
1.53656e-29
1.22922e-28
8.73135e-28
5.78768e-27
3.85732e-26
2.7019e-25
1.9295e-24
1.30739e-23
7.92863e-23
4.16624e-22
1.85683e-21
6.49501e-21
2.1119e-20
5.11287e-20
1.13227e-19
1.68046e-19
9.77074e-20
1.39614e-32
1.73388e-31
1.84416e-30
1.61262e-29
1.21479e-28
8.17333e-28
5.25113e-27
3.47251e-26
2.42458e-25
1.70058e-24
1.11285e-23
6.45274e-23
2.9504e-22
1.37955e-21
4.6827e-21
1.32561e-20
2.54441e-20
5.9477e-20
2.61334e-20
1.04539e-33
1.54499e-32
1.92867e-31
1.87497e-30
1.52663e-29
1.07219e-28
6.8476e-28
4.28821e-27
2.81828e-26
1.94785e-25
1.32468e-24
8.242e-24
4.12919e-23
2.13081e-22
8.09311e-22
2.56394e-21
7.18864e-21
9.53685e-21
7.11831e-21
6.78738e-35
1.22921e-33
1.78232e-32
1.94725e-31
1.73763e-30
1.29889e-29
8.48554e-29
5.15848e-28
3.15313e-27
2.03538e-26
1.36052e-25
8.82807e-25
4.79114e-24
2.63577e-23
1.09225e-22
3.88368e-22
8.13611e-22
2.21918e-21
1.24241e-21
3.80205e-36
8.15608e-35
1.3668e-33
1.70211e-32
1.69693e-31
1.38128e-30
9.51567e-30
5.83821e-29
3.41988e-28
2.03971e-27
1.26406e-26
7.36853e-26
5.14701e-25
2.62588e-24
1.13668e-23
3.96572e-23
1.52677e-22
1.63242e-22
1.36294e-22
2.06673e-37
5.21979e-36
9.89739e-35
1.37793e-33
1.51639e-32
1.33921e-31
9.78317e-31
6.16629e-30
3.55719e-29
2.0051e-28
1.04734e-27
6.95911e-27
4.41138e-26
2.16208e-25
8.46758e-25
2.78407e-24
1.56277e-23
2.17359e-23
9.43402e-24
9.87709e-39
3.07749e-37
6.77057e-36
1.06305e-34
1.29464e-33
1.2422e-32
9.64958e-32
6.29132e-31
3.61983e-30
1.95728e-29
1.03545e-28
5.68828e-28
3.61716e-27
1.65801e-26
4.65474e-26
1.77424e-25
1.23957e-24
1.06822e-24
7.76842e-25
5.32378e-40
1.75296e-38
4.30354e-37
7.63752e-36
1.0359e-34
1.08929e-33
9.09677e-33
6.21987e-32
3.62595e-31
1.91231e-30
9.52809e-30
4.72686e-29
2.83143e-28
1.3166e-27
3.55287e-27
1.50562e-26
7.75178e-26
6.86242e-26
7.58558e-26
3.00714e-41
1.02029e-39
2.65944e-38
5.18187e-37
7.73018e-36
8.88272e-35
8.00399e-34
5.79609e-33
3.47727e-32
1.81768e-31
8.7314e-31
3.79656e-30
2.14131e-29
9.8128e-29
3.24991e-28
1.28338e-27
4.20798e-27
5.37128e-27
5.87084e-28
)
;

boundaryField
{
    leftWall
    {
        type            alphaContactAngle;
        contactAngleProperties 
        {
            air             
            {
                theta0          90;
            }
            water           
            {
                theta0          90;
            }
            oil             
            {
                theta0          90;
            }
        }
        value           nonuniform List<scalar> 
50
(
1
1
1
1
1
0.918677
0.171659
-8.06641e-93
-2.66263e-92
-6.1698e-92
1.12089e-68
2.38694e-67
8.22024e-66
4.69454e-63
2.05637e-61
1.18258e-60
5.84966e-60
2.74163e-59
1.20526e-58
4.99837e-58
2.08112e-57
8.32931e-57
3.0434e-56
9.41377e-56
2.37079e-55
1.34111e-54
4.1052e-54
6.70229e-54
7.87663e-54
7.62413e-54
5.50142e-54
2.98045e-54
9.79279e-55
2.04584e-55
3.16768e-56
2.98572e-57
1.74473e-58
5.55263e-60
1.3828e-61
1.4715e-63
1.2168e-65
5.80965e-68
2.09634e-70
3.02023e-73
3.11319e-76
1.68545e-79
4.76198e-83
3.99848e-87
1.28039e-92
2.79944e-102
)
;
    }
    rightWall
    {
        type            alphaContactAngle;
        contactAngleProperties 
        {
            air             
            {
                theta0          90;
            }
            water           
            {
                theta0          90;
            }
            oil             
            {
                theta0          90;
            }
        }
        value           nonuniform List<scalar> 
50
(
6.36583e-13
1.95832e-12
6.37765e-12
1.53877e-11
3.07544e-11
7.67109e-11
1.08041e-10
1.53381e-10
1.54383e-10
1.46874e-10
1.25007e-10
1.1276e-10
8.96005e-11
8.02507e-11
6.08506e-11
5.39397e-11
4.34306e-11
3.79826e-11
2.84309e-11
2.18301e-11
1.81665e-11
1.64773e-11
1.44434e-11
1.22819e-11
1.01333e-11
7.19716e-12
4.68261e-12
3.20564e-12
1.87779e-12
5.38114e-13
3.00509e-14
1.22719e-16
1.72635e-17
1.64822e-17
1.60434e-17
1.50524e-17
1.00818e-17
5.30424e-18
1.91706e-18
6.6852e-19
2.29305e-19
9.77074e-20
2.61334e-20
7.11831e-21
1.24241e-21
1.36294e-22
9.43402e-24
7.76842e-25
7.58558e-26
5.87084e-28
)
;
    }
    lowerWall
    {
        type            alphaContactAngle;
        contactAngleProperties 
        {
            air             
            {
                theta0          90;
            }
            water           
            {
                theta0          90;
            }
            oil             
            {
                theta0          90;
            }
        }
        value           nonuniform List<scalar> 
62
(
1
1
1
1
1
1
1
1
1
1
1
1
1
1
1
1
1
1
1
1
1
1
0.999313
0.999313
0.999308
0.999415
0.999923
1
1
0.999999
0.999999
0.999868
0.999716
0.859406
0.536137
9.38819e-10
9.86813e-10
1.03619e-09
1.04706e-09
9.38187e-10
8.37236e-10
5.78649e-10
-3.24971e-16
9.38819e-10
1.28246e-09
1.48855e-09
1.49585e-09
1.38052e-09
1.27474e-09
1.20157e-09
1.27484e-09
1.16829e-09
9.79982e-10
7.75065e-10
6.27938e-10
5.66695e-10
3.97329e-10
2.9376e-10
2.18911e-10
1.02821e-10
1.3935e-11
6.36583e-13
)
;
    }
    atmosphere
    {
        type            inletOutlet;
        inletValue      uniform 0;
        value           nonuniform List<scalar> 
46
(
0
0
0
0
0
0
0
0
0
0
0
0
0
0
0
0
0
0
0
0
0
0
0
0
0
1.05601e-43
1.68906e-42
3.00714e-41
1.02029e-39
2.65944e-38
5.18187e-37
7.73018e-36
8.88272e-35
8.00399e-34
5.79609e-33
3.47727e-32
1.81768e-31
8.7314e-31
3.79656e-30
2.14131e-29
9.8128e-29
3.24991e-28
1.28338e-27
4.20798e-27
5.37128e-27
5.87084e-28
)
;
    }
    defaultFaces
    {
        type            empty;
    }
}


// ************************************************************************* //
