/*--------------------------------*- C++ -*----------------------------------*\
  =========                 |
  \\      /  F ield         | OpenFOAM: The Open Source CFD Toolbox
   \\    /   O peration     | Website:  https://openfoam.org
    \\  /    A nd           | Version:  13
     \\/     M anipulation  |
\*---------------------------------------------------------------------------*/
FoamFile
{
    format      ascii;
    class       volScalarField;
    location    "0.4";
    object      alpha.air;
}
// * * * * * * * * * * * * * * * * * * * * * * * * * * * * * * * * * * * * * //

dimensions      [];

internalField   nonuniform List<scalar> 
2268
(
1.88719e-21
1.46355e-19
3.9806e-19
3.64553e-19
3.23502e-19
2.59779e-19
2.77462e-19
2.42412e-19
1.64153e-19
1.28295e-19
1.02021e-19
6.79182e-20
1.26083e-19
4.54495e-19
1.21168e-18
1.77234e-18
2.07552e-18
2.13822e-18
1.93165e-18
1.27945e-18
4.49069e-19
8.49142e-20
2.04439e-20
2.58376e-23
9.67163e-18
2.10441e-17
1.77398e-17
1.36546e-17
1.17226e-17
9.08188e-18
5.96289e-18
3.84672e-18
2.8287e-18
2.62022e-18
1.63906e-18
2.01227e-18
5.42156e-18
1.47433e-17
2.46381e-17
3.4402e-17
3.69852e-17
3.12067e-17
1.57699e-17
4.32749e-18
8.6158e-19
2.62801e-19
2.48514e-17
2.65289e-16
4.63402e-16
3.89387e-16
2.67243e-16
2.59398e-16
2.19385e-16
1.08258e-16
6.7404e-17
4.51395e-17
4.28534e-17
2.03639e-17
1.9081e-17
3.46997e-17
8.78882e-17
1.83241e-16
2.97185e-16
3.41398e-16
3.04308e-16
1.60652e-16
4.40424e-17
1.07751e-17
1.53845e-18
1.20773e-15
2.66897e-15
4.98597e-15
4.23045e-15
2.96255e-15
2.53141e-15
2.47056e-15
1.16681e-15
6.7865e-16
4.71221e-16
4.3832e-16
3.49156e-16
3.213e-16
2.93571e-16
3.6647e-16
7.27953e-16
1.55855e-15
2.17881e-15
1.82445e-15
9.51114e-16
2.78321e-16
5.04238e-17
2.67045e-18
4.47301e-14
5.02331e-14
6.5263e-14
6.14565e-14
5.40475e-14
4.99872e-14
4.68448e-14
3.27469e-14
2.39947e-14
2.11229e-14
1.96779e-14
1.76164e-14
1.46825e-14
1.03334e-14
4.78256e-15
4.38499e-15
9.44636e-15
1.63843e-14
1.49574e-14
5.93635e-15
2.09018e-15
2.51303e-16
2.37539e-17
8.11879e-12
6.41618e-12
5.82223e-12
5.68224e-12
5.04693e-12
4.60618e-12
4.27841e-12
4.12054e-12
3.79147e-12
3.38862e-12
3.01766e-12
2.50045e-12
1.76433e-12
1.07361e-12
4.63893e-13
1.05152e-13
8.03933e-14
8.50821e-14
7.58054e-14
6.58446e-14
1.49459e-14
2.44216e-15
1.56133e-16
9.59625e-11
8.17278e-11
7.71495e-11
7.32248e-11
6.80872e-11
6.38205e-11
6.0066e-11
5.71256e-11
5.37566e-11
4.95054e-11
4.51247e-11
3.90914e-11
3.06836e-11
2.36736e-11
1.63827e-11
8.07645e-12
2.99957e-12
1.85352e-12
1.11018e-12
6.15597e-13
1.19394e-13
6.86445e-15
2.0618e-16
2.12253e-10
1.9367e-10
1.86354e-10
1.772e-10
1.68613e-10
1.60144e-10
1.508e-10
1.42485e-10
1.3514e-10
1.25878e-10
1.16765e-10
1.03291e-10
8.63653e-11
7.68158e-11
6.90577e-11
5.6949e-11
3.45693e-11
1.77468e-11
8.98653e-12
3.22523e-12
7.63874e-13
3.1533e-14
5.73658e-16
3.79067e-05
2.3775e-07
8.70372e-11
1.29732e-11
1.85979e-05
8.47523e-05
0.000100308
0.000105551
0.000109916
0.000108139
2.37415e-05
1.40813e-08
1.46447e-08
0.00194712
0.00507175
0.00489637
8.01168e-08
0.0983947
0.0855374
6.57544e-08
6.37915e-08
1.2881e-11
1.35809e-09
8.15749e-09
2.1488e-08
9.05463e-13
1.6471e-17
3.93179e-10
9.9938e-11
1.0408e-10
9.9938e-11
1.0408e-10
2.38158e-05
0.00109404
0.00116984
2.88021e-08
0.0992539
0.130617
0.000102054
6.57265e-08
0.0262075
0.15617
0.181254
0.10107
3.57969e-08
1.02195e-10
6.06036e-09
1.53177e-09
4.30536e-10
2.61649e-10
2.10456e-10
4.20919e-09
6.13382e-09
7.81314e-09
9.33362e-09
0.0686405
0.130719
0.000110644
0.0428699
0.542495
0.917277
0.955973
0.907034
0.525498
0.0224882
9.38015e-08
1.81282e-11
6.07151e-10
3.9487e-10
2.56837e-10
1.37962e-09
3.23805e-09
8.71942e-09
9.22486e-09
0.0145297
0.109598
0.000165014
0.0237985
0.908459
0.999996
0.999978
0.999924
0.999883
0.600485
0.0118899
5.09574e-11
1.20216e-10
2.72531e-10
2.90203e-10
2.68895e-10
2.68191e-10
4.93893e-09
7.32052e-09
8.2854e-09
0.013882
0.00024835
0.159958
0.87783
0.999999
0.999998
0.999968
0.998198
0.87155
0.0789342
4.72352e-11
9.16816e-11
2.58432e-10
3.42932e-10
3.05103e-10
2.58199e-10
2.19516e-09
1.30148e-08
1.2823e-08
4.66333e-08
0.00033933
0.243681
0.903217
0.99998
0.999343
0.879353
0.866243
0.527534
0.0291138
9.24128e-09
2.45256e-09
3.44844e-10
4.13018e-10
3.91613e-10
2.61267e-10
1.58761e-09
2.10115e-08
2.93589e-08
1.71243e-08
0.000442557
0.0585025
0.587669
0.991982
0.798605
0.494277
0.246761
0.0433101
1.99057e-06
1.72493e-08
3.75609e-09
6.43683e-10
5.53069e-10
5.07525e-10
2.99942e-10
1.08017e-09
2.20902e-08
2.88495e-08
2.06782e-08
3.5426e-10
3.41337e-10
3.33863e-10
3.26807e-10
3.09819e-10
2.9475e-10
2.74163e-10
2.59111e-10
2.45612e-10
2.27068e-10
2.14988e-10
1.9268e-10
1.63271e-10
1.54839e-10
1.63161e-10
1.57147e-10
1.32679e-10
8.6683e-11
5.42484e-11
3.13941e-11
1.07577e-11
1.75076e-12
2.25836e-13
6.96059e-10
6.8744e-10
6.95565e-10
7.29351e-10
7.46657e-10
7.21593e-10
6.8151e-10
6.45906e-10
6.04333e-10
5.71884e-10
5.27544e-10
4.69117e-10
3.9044e-10
3.87678e-10
5.172e-10
5.94749e-10
5.40341e-10
3.47758e-10
2.39818e-10
1.35281e-10
8.60434e-11
4.44764e-11
2.02173e-11
1.02784e-09
1.07445e-09
1.19267e-09
1.36004e-09
1.45389e-09
1.47078e-09
1.36037e-09
1.29751e-09
1.22292e-09
1.13274e-09
1.00584e-09
8.93258e-10
7.69649e-10
7.66766e-10
1.05838e-09
2.09313e-09
1.61156e-09
1.38791e-09
9.57371e-10
6.25344e-10
4.28746e-10
2.82808e-10
1.83506e-10
1.3232e-09
1.40945e-09
1.59117e-09
1.97143e-09
2.30937e-09
2.68083e-09
2.43788e-09
2.2863e-09
1.79312e-09
1.57162e-09
1.39596e-09
1.20761e-09
1.06048e-09
8.93923e-10
1.24621e-09
6.5115e-09
5.43275e-09
1.99347e-09
9.01367e-10
7.90795e-10
6.99812e-10
5.66046e-10
4.4208e-10
1.42678e-08
4.35044e-09
2.07829e-09
2.23403e-09
2.51832e-09
2.71937e-09
5.75422e-10
1.31211e-09
5.75422e-10
1.44383e-09
1.64014e-09
1.428e-09
7.92463e-10
8.02848e-10
6.97937e-10
6.94226e-10
1.14058e-07
7.5091e-10
-6.9238e-15
1.07006e-10
9.70675e-16
1.49442e-11
2.91008e-11
0.375306
0.311713
0.254728
0.201677
0.153326
0.111146
0.0755214
0.0465934
0.0248115
0.00953698
0.00125007
1.55372e-08
1.51702e-09
5.83594e-09
3.65514e-09
3.50547e-07
1.24085e-07
1.63191e-06
2.65224e-06
2.29947e-06
9.08017e-07
5.52352e-07
5.60783e-07
1
0.9934
0.970071
0.940062
0.902918
0.858684
0.80676
0.746372
0.676554
0.593396
0.49041
0.384482
0.296974
0.217697
0.122904
0.0291255
0.000397972
2.06948e-05
2.79858e-06
3.51763e-06
7.79897e-06
9.19587e-06
4.91274e-06
1
1
1
1
1
1
1
1
1
1
1
1
0.985949
0.954278
0.897069
0.717549
0.37471
0.224516
0.0739802
0.00146331
0.000304088
0.000317961
0.000440996
1
1
1
1
1
1
1
1
1
1
1
1
0.999999
0.999975
0.999889
0.999889
0.999888
0.995206
0.671018
0.170294
0.0479721
0.0148145
0.0101604
1
1
1
1
1
1
1
1
1
1
1
1
1
1
0.999818
0.999759
0.999853
0.999988
1
1
0.942204
0.685307
0.54926
1
1
1
1
1
1
1
1
1
1
1
1
1
1
0.999938
0.999767
0.999905
1
1
0.999996
0.999987
0.999978
0.99998
1
1
1
1
1
1
1
1
1
1
1
1
1
1
1
1
1
0.999999
1
1
1
1
1
1
1
1
1
1
1
1
1
1
1
1
1
1
1
1
1
1
1
1
1
1
1
1
1
1
1
1
1
1
1
1
1
1
1
1
1
1
1
1
1
1
1
1
1
1
1
1
1
1
1
1
1
1
1
1
1
1
1
1
1
1
1
1
1
1
1
1
1
1
1
1
1
1
1
1
1
1
1
1
1
1
1
1
1
1
1
1
1
1
1
1
1
1
1
1
1
1
1
1
1
1
1
1
1
1
1
1
1
1
1
1
1
1
1
1
1
1
1
1
1
1
1
1
1
1
1
1
1
1
1
1
1
1
1
1
1
1
1
1
1
1
1
1
1
1
1
1
1
1
1
1
1
1
1
1
1
1
1
1
1
1
1
1
1
1
1
1
1
1
1
1
1
1
1
1
1
1
1
1
1
1
1
1
1
1
1
1
1
1
1
1
1
1
1
1
1
1
1
1
1
1
1
1
1
1
1
1
1
1
1
1
1
1
1
1
1
1
1
1
1
1
1
1
1
1
1
1
1
1
1
1
1
1
1
1
1
1
1
1
1
1
1
1
1
1
1
1
1
1
1
1
1
1
1
1
1
1
1
1
1
1
1
1
1
1
1
1
1
1
1
1
1
1
1
1
1
1
1
1
1
1
1
1
1
1
1
1
1
1
1
1
1
1
1
1
1
1
1
1
1
1
1
1
1
1
1
1
1
1
1
1
1
1
1
1
1
1
1
1
1
1
1
1
1
1
1
1
1
1
1
1
1
1
1
1
1
1
1
1
1
1
1
1
1
1
1
1
1
1
1
1
1
1
1
1
1
1
1
1
1
1
1
1
1
1
1
1
1
1
1
1
1
1
1
1
1
1
1
1
1
1
1
1
1
1
1
1
1
1
1
1
1
1
1
1
1
1
1
1
1
1
1
1
1
1
1
1
1
1
1
1
1
1
1
1
1
1
1
1
1
1
1
1
1
1
1
1
1
1
1
1
1
1
1
1
1
1
1
1
1
1
1
1
1
1
1
1
1
1
1
1
1
1
1
1
1
1
1
1
1
1
1
1
1
1
1
1
1
1
1
1
1
1
1
1
1
1
1
1
1
1
1
1
1
1
1
1
1
1
1
1
1
1
1
1
1
1
1
1
1
1
1
1
1
1
1
1
1
1
1
1
1
1
1
1
1
1
1
1
1
1
1
1
1
1
1
1
1
1
1
1
1
1
1
1
1
1
1
1
1
1
1
1
1
1
1
1
1
1
1
1
1
1
1
1
1
1
1
1
1
1
1
1
1
1
1
1
1
1
1
1
1
1
1
1
1
1
1
1
1
1
1
1
1
1
1
1
1
1
1
1
1
1
1
1
1
1
1
1
1
1
1
1
1
1
1
1
1
1
1
1
1
1
1
1
1
1
1
1
1
1
1
1
1
1
1
1
1
1
1
1
1
1
1
1
1
1
1
1
1
1
1
1
1
1
1
1
1
1
1
1
1
1
1
1
1
1
1
1
1
1
1
1
1
1
1
1
1
1
1
1
1
1
1
1
1
1
1
1
1
1
1
1
1
1
1
1
1
1
1
6.61767e-23
8.30735e-23
0.13926
0.463095
7.78592e-12
8.40641e-23
0.00983235
0.0188025
9.45047e-11
1.73804e-22
0.000362111
0.000458522
3.49974e-10
9.173e-11
1.10232e-14
-7.06398e-10
1.58976e-11
1.52206e-08
4.1842e-08
5.14483e-09
7.27086e-07
9.27474e-07
9.54608e-07
6.41668e-07
3.43822e-08
3.91123e-08
3.4382e-08
3.91136e-08
0.000665155
0.000931003
0.00100511
0.000420621
0.0116712
0.0157214
0.016836
0.0124692
0.568977
0.629324
0.648633
0.618171
0.999978
0.99998
0.999984
0.999989
1
1
1
1
1
1
1
1
1
1
1
1
1
1
1
1
1
1
1
1
1
1
1
1
1
1
1
1
1
1
1
1
1
1
1
1
1
1
1
1
1
1
1
1
1
1
1
1
1
1
1
1
1
1
1
1
1
1
1
1
1
1
1
1
1
1
1
1
1
1
1
1
1
1
1
1
1
1
1
1
1
1
1
1
1
1
1
1
1
1
1
1
1
1
1
1
1
1
1
1
1
1
1
1
1
1
1
1
1
1
1
1
1
1
1
1
1
1
1
1
1
1
1
1
0.316875
0.157701
0.477633
0.660795
0.381958
0.230971
0.0105837
1.52634e-19
-2.22101e-10
1.03586e-09
9.81884e-10
8.16313e-10
8.29827e-10
8.67359e-10
7.08187e-10
1.04408e-09
8.55884e-09
2.50216e-08
1.14331e-08
0.0118355
0.274461
0.286541
0.129797
-5.84114e-19
2.41532e-18
5.64562e-15
1.5902e-11
5.84688e-11
2.69816e-10
6.58076e-10
8.83606e-10
1.60554e-09
3.25547e-09
3.50071e-09
2.88369e-09
5.87437e-09
6.53288e-09
8.18472e-09
0.000940542
2.27995e-09
-7.82009e-07
-3.32961e-07
-4.91245e-08
-1.67755e-09
6.97424e-10
3.69873e-10
1.5634e-10
2.28484e-10
1.69973e-09
1.78102e-09
2.36963e-09
3.63997e-09
4.60776e-09
4.15156e-09
3.8769e-09
5.06677e-09
4.37473e-09
-8.16813e-11
5.10098e-12
9.2024e-10
1.15428e-09
2.21297e-09
2.32437e-09
1.79491e-09
1.54129e-09
4.92525e-10
5.07708e-10
3.69487e-08
1.8791e-05
5.8543e-06
5.90716e-09
9.38134e-09
5.00633e-09
3.54788e-09
2.5161e-09
4.2693e-09
7.71084e-09
1.01193e-09
2.39983e-08
7.19542e-11
9.28136e-11
3.40296e-10
1.16957e-09
1.66265e-09
1.16555e-09
7.10911e-10
0.000532435
1.54398e-08
1.4921e-17
2.86387e-09
-1.21307e-09
5.60481e-09
4.2045e-09
2.33119e-09
3.62758e-09
1.93894e-07
9.79949e-10
1.20785e-05
4.06268e-06
1.1622e-08
2.25724e-10
3.88599e-09
3.76501e-13
1.01096e-09
0.0270281
0.0434891
0.165857
0.439036
0.332098
0.0277832
0.000509311
4.55049e-09
2.20172e-09
3.36911e-09
1.87546e-07
0.000639646
0.00012124
9.69848e-05
1.9601e-07
3.4887e-10
0.0142165
0.138456
0.344828
0.634276
0.907779
0.950424
0.995346
0.971922
0.453467
0.0177063
6.60831e-09
5.52943e-09
2.84208e-09
0.00107857
0.00402466
7.88473e-05
0.00316602
0.0742006
0.25795
0.555382
0.897865
1
1
1
1
1
1
0.922809
0.00181391
0.00142358
2.76916e-09
2.70379e-09
0.0164403
0.0550609
0.187461
0.474652
0.783804
1
0.999999
0.999999
0.999999
0.999999
0.999999
1
1
1
0.972434
0.0298535
3.71451e-09
2.75626e-09
2.76918e-09
0.629299
0.755526
0.950011
0.999999
1
1
0.999999
0.999999
0.999992
0.999991
0.999998
1
1
1
0.999476
0.544551
3.32509e-09
3.71394e-09
6.02997e-09
0.999994
0.999996
0.999996
0.999999
1
1
0.999996
0.999989
0.999989
0.99999
0.999999
1
1
1
1
0.826159
3.71451e-09
2.95855e-05
3.09477e-08
1
1
1
1
1
1
0.999996
0.999989
0.999993
0.999998
1
1
1
1
1
0.849863
3.39471e-09
3.08434e-05
4.04484e-08
1
1
1
1
1
1
1
1
1
1
1
1
1
1
1
0.930272
0.0470163
5.30274e-08
5.2803e-08
1
1
1
1
1
1
1
1
1
1
1
1
1
1
1
0.997532
0.699292
5.95373e-08
6.00291e-08
1
1
1
1
1
1
1
1
1
1
1
1
1
1
1
1
0.943725
5.84979e-08
7.29205e-08
1
1
1
1
1
1
1
1
1
1
1
1
1
1
1
1
0.946416
6.50966e-08
6.9834e-08
1
1
1
1
1
1
1
1
1
1
1
1
1
1
1
1
0.959599
6.8408e-08
0.000893572
1
1
1
1
1
1
1
1
1
1
1
1
1
1
1
1
0.989998
0.498414
0.0153619
1
1
1
1
1
1
1
1
1
1
1
1
1
1
1
1
0.99981
0.995922
0.0201269
1
1
1
1
1
1
1
1
1
1
1
1
1
1
1
1
1
1
0.0386156
1
1
1
1
1
1
1
1
1
1
1
1
1
1
1
1
1
1
0.371601
1
1
1
1
1
1
1
1
1
1
1
1
1
1
1
1
1
1
0.460147
1
1
1
1
1
1
1
1
1
1
1
1
1
1
1
1
1
1
0.240566
1
1
1
1
1
1
1
1
1
1
1
1
1
1
1
1
1
1
0.0649199
1
1
1
1
1
1
1
1
1
1
1
1
1
1
1
1
1
0.994932
0.0625097
1
1
1
1
1
1
1
1
1
1
1
1
1
1
1
1
0.999999
0.956891
0.0625097
1
1
1
1
1
1
1
1
1
1
1
1
1
1
0.999999
0.999999
0.999999
0.935761
0.0625097
1
1
1
1
1
1
1
1
1
1
1
1
1
1
0.999999
0.999998
0.999999
0.958971
0.426972
1
1
1
1
1
1
1
1
1
1
1
1
1
1
1
0.999995
0.999949
0.997798
1
1
1
1
1
1
1
1
1
1
1
1
1
1
1
1
0.999998
0.99999
0.999999
1
1
1
1
1
1
1
1
1
1
1
1
1
1
1
1
1
0.999999
1
1
1
1
1
1
1
1
1
1
1
1
1
1
1
1
1
1
1
1
1
1
1
1
1
1
1
1
1
1
1
1
1
1
1
1
1
1
1
1
1
1
1
1
1
1
1
1
1
1
1
1
1
1
1
1
1
1
1
1
1
1
1
1
1
1
1
1
1
1
1
1
1
1
1
1
1
1
1
1
1
1
1
1
1
1
1
1
1
1
1
1
1
1
1
1
1
1
1
1
1
1
1
1
1
1
1
1
1
1
1
1
1
1
1
1
1
1
1
1
1
1
1
1
1
1
1
1
1
1
1
1
1
1
1
1
1
1
1
1
1
1
1
1
1
1
1
1
1
1
1
1
1
1
1
1
1
1
1
1
1
1
1
1
1
1
1
1
1
1
1
1
1
1
1
1
1
1
1
1
1
1
1
1
1
1
1
1
1
1
1
1
1
1
1
1
1
1
1
1
1
1
1
1
1
1
1
1
1
1
1
)
;

boundaryField
{
    leftWall
    {
        type            alphaContactAngle;
        contactAngleProperties 
        {
            mercury         
            {
                theta0          90;
            }
            water           
            {
                theta0          90;
            }
            oil             
            {
                theta0          90;
            }
        }
        value           nonuniform List<scalar> 
50
(
1.88719e-21
2.58376e-23
2.48514e-17
1.20773e-15
4.47301e-14
8.11879e-12
9.59625e-11
2.12253e-10
3.5426e-10
6.96059e-10
1.02784e-09
1.3232e-09
1.42678e-08
0.375306
1
1
1
1
1
1
1
1
1
1
1
1
1
1
1
1
1
1
1
1
1
1
1
1
1
1
1
1
1
1
1
1
1
1
1
1
)
;
    }
    rightWall
    {
        type            alphaContactAngle;
        contactAngleProperties 
        {
            mercury         
            {
                theta0          90;
            }
            water           
            {
                theta0          90;
            }
            oil             
            {
                theta0          90;
            }
        }
        value           nonuniform List<scalar> 
50
(
0.0855374
0.130617
0.130719
0.109598
0.013882
4.66333e-08
1.71243e-08
2.06782e-08
1.14331e-08
8.18472e-09
4.37473e-09
4.2693e-09
3.62758e-09
3.36911e-09
2.84208e-09
2.70379e-09
2.76918e-09
6.02997e-09
3.09477e-08
4.04484e-08
5.2803e-08
6.00291e-08
7.29205e-08
6.9834e-08
0.000893572
0.0153619
0.0201269
0.0386156
0.371601
0.460147
0.240566
0.0649199
0.0625097
0.0625097
0.0625097
0.426972
1
1
1
1
1
1
1
1
1
1
1
1
1
1
)
;
    }
    lowerWall
    {
        type            alphaContactAngle;
        contactAngleProperties 
        {
            mercury         
            {
                theta0          90;
            }
            water           
            {
                theta0          90;
            }
            oil             
            {
                theta0          90;
            }
        }
        value           nonuniform List<scalar> 
62
(
1.88719e-21
1.46355e-19
3.9806e-19
3.64553e-19
3.23502e-19
2.59779e-19
2.77462e-19
2.42412e-19
1.64153e-19
1.28295e-19
1.02021e-19
6.79182e-20
1.26083e-19
4.54495e-19
1.21168e-18
1.77234e-18
2.07552e-18
2.13822e-18
1.93165e-18
1.27945e-18
4.49069e-19
8.49142e-20
2.04439e-20
2.04439e-20
2.62801e-19
1.53845e-18
2.67045e-18
2.37539e-17
1.56133e-16
2.0618e-16
5.73658e-16
6.61767e-23
8.30735e-23
0.13926
0.463095
3.79067e-05
6.57544e-08
0.000102054
0.000110644
0.000165014
0.00024835
0.00033933
0.000442557
3.79067e-05
2.3775e-07
8.70372e-11
1.29732e-11
1.85979e-05
8.47523e-05
0.000100308
0.000105551
0.000109916
0.000108139
2.37415e-05
1.40813e-08
1.46447e-08
0.00194712
0.00507175
0.00489637
8.01168e-08
0.0983947
0.0855374
)
;
    }
    atmosphere
    {
        type            inletOutlet;
        inletValue      uniform 1;
        value           nonuniform List<scalar> 
46
(
1
1
1
1
1
1
1
1
1
1
1
1
1
1
1
1
1
1
1
1
1
1
1
1
1
1
1
1
1
1
1
1
1
1
1
1
1
1
1
1
1
1
1
1
1
1
)
;
    }
    defaultFaces
    {
        type            empty;
    }
}


// ************************************************************************* //
