/*--------------------------------*- C++ -*----------------------------------*\
  =========                 |
  \\      /  F ield         | OpenFOAM: The Open Source CFD Toolbox
   \\    /   O peration     | Website:  https://openfoam.org
    \\  /    A nd           | Version:  13
     \\/     M anipulation  |
\*---------------------------------------------------------------------------*/
FoamFile
{
    format      ascii;
    class       volScalarField;
    location    "0.4";
    object      epsilon;
}
// * * * * * * * * * * * * * * * * * * * * * * * * * * * * * * * * * * * * * //

dimensions      [0 2 -3 0 0 0 0];

internalField   nonuniform List<scalar> 
2268
(
0.0202343
0.0786376
0.149129
0.213249
0.274631
0.332866
0.38755
0.438037
0.483565
0.523379
0.556766
0.583041
0.601568
0.611871
0.613719
0.606875
0.596497
0.580013
0.551519
0.504543
0.431349
0.315817
0.137189
0.0274258
0.0550783
0.082412
0.107466
0.13067
0.152254
0.172317
0.190806
0.207593
0.222532
0.235486
0.246342
0.255037
0.261629
0.266364
0.269766
0.274521
0.281962
0.292033
0.302047
0.303688
0.272325
0.196812
0.0433266
0.0576432
0.0761284
0.0932068
0.108716
0.12287
0.135837
0.147659
0.158309
0.167744
0.175932
0.182879
0.188677
0.193581
0.198099
0.203069
0.210528
0.222085
0.239034
0.260731
0.281282
0.281357
0.311251
0.0558761
0.0633528
0.0773606
0.0906033
0.102611
0.113471
0.123312
0.132177
0.140068
0.146974
0.152909
0.157942
0.162261
0.166271
0.170698
0.17664
0.185879
0.19988
0.219947
0.246093
0.274569
0.294776
0.416465
0.0659469
0.0693291
0.0804908
0.0912253
0.101014
0.109845
0.117779
0.124847
0.131057
0.136422
0.140984
0.144861
0.148325
0.151916
0.156557
0.163559
0.174549
0.190643
0.212671
0.24079
0.273287
0.309195
0.512204
0.0756909
0.0749596
0.0842055
0.0931313
0.101308
0.108666
0.115222
0.120995
0.126005
0.130281
0.133891
0.136999
0.139959
0.143449
0.148587
0.156864
0.16974
0.187823
0.211282
0.240253
0.275071
0.324695
0.602285
0.0860804
0.0806623
0.0884084
0.095867
0.102751
0.108921
0.114358
0.119083
0.12313
0.126545
0.129422
0.131969
0.134628
0.138224
0.144087
0.153911
0.168975
0.189162
0.213755
0.243019
0.279442
0.342032
0.697399
0.0967888
0.0861148
0.0925233
0.0987058
0.104495
0.109649
0.114133
0.117977
0.121229
0.123959
0.126288
0.128474
0.131034
0.134918
0.141659
0.153241
0.170912
0.193608
0.219491
0.249055
0.286798
0.361143
0.846669
0.854028
1.56263
2.37262
3.3366
4.41174
5.47865
6.12786
6.12546
5.93727
5.809
5.72105
5.57959
5.30967
4.9447
4.41341
3.6801
2.73894
1.51128
0.540658
0.760706
1.16865
1.51405
1.91456
2.42623
2.89977
3.06478
2.99628
2.87041
2.77756
2.7176
2.66047
2.58386
2.50298
2.39545
2.22324
1.92377
1.37351
0.864036
0.956822
1.10288
1.38769
1.73724
2.27121
2.62913
2.64785
2.49941
2.32731
2.20619
2.14014
2.10105
2.06924
2.04511
2.01879
1.9618
1.81465
1.48066
1.5614
1.0302
1.07828
1.36119
1.76101
2.44156
2.74815
2.58365
2.30504
2.09199
1.95947
1.89808
1.87671
1.87457
1.88454
1.89818
1.89173
1.81612
1.62212
2.18769
1.02992
1.08039
1.33836
1.82175
2.57644
2.588
2.42169
2.12802
1.90882
1.79524
1.75445
1.75669
1.78211
1.82061
1.86273
1.88755
1.85871
1.77586
2.7742
1.01727
1.09618
1.29214
1.65203
1.96533
1.93141
1.91134
1.81978
1.71385
1.65653
1.65131
1.68264
1.73604
1.8012
1.86747
1.91625
1.92443
1.93646
3.33281
0.992524
1.08977
1.23848
1.50028
1.4929
1.47565
1.51454
1.54272
1.53445
1.54009
1.57386
1.63547
1.7166
1.80731
1.89564
1.96531
2.00613
2.10259
3.87098
1.00217
1.04323
1.18106
1.28567
1.20178
1.21587
1.28581
1.37025
1.41202
1.45652
1.52083
1.60927
1.71632
1.8311
1.93992
2.02885
2.10034
2.27612
4.39842
0.106432
0.0900077
0.0951238
0.100347
0.105104
0.109203
0.112663
0.115563
0.117996
0.12008
0.121995
0.124077
0.126935
0.13163
0.139847
0.153801
0.175063
0.202866
0.233049
0.26403
0.302884
0.374717
0.598568
0.116411
0.0913719
0.0943128
0.0987282
0.102745
0.106095
0.108841
0.111124
0.113105
0.114986
0.117053
0.119761
0.123842
0.130425
0.14111
0.157843
0.182162
0.214098
0.251084
0.288523
0.327963
0.383357
0.488947
0.119875
0.0915245
0.0933354
0.0970436
0.100451
0.103248
0.105513
0.107418
0.109182
0.11108
0.11349
0.116971
0.122353
0.130806
0.143832
0.16305
0.189644
0.223353
0.261836
0.302467
0.344019
0.39026
0.447415
0.12097
0.0919226
0.0925994
0.0953036
0.0979168
0.10011
0.101948
0.103608
0.105332
0.107438
0.110359
0.114705
0.121344
0.131453
0.146484
0.167889
0.196593
0.232064
0.271961
0.313088
0.353635
0.395176
0.436529
0.124256
0.0940181
0.0929702
0.0941906
0.0957137
0.0971435
0.0984979
0.09993
0.10168
0.104084
0.107595
0.112835
0.120669
0.132265
0.149071
0.172532
0.203429
0.241112
0.283537
0.327979
0.372219
0.415316
0.456156
0.133934
0.0993968
0.0950867
0.0941628
0.0942882
0.0948007
0.0956015
0.0967931
0.0985957
0.101343
0.105503
0.111699
0.120797
0.13395
0.152598
0.17824
0.211571
0.251957
0.297851
0.347305
0.398384
0.448972
0.496899
0.154748
0.11052
0.0998224
0.0958295
0.0942907
0.093778
0.0939768
0.0949185
0.0967927
0.0999243
0.104802
0.112096
0.122733
0.137852
0.158768
0.186829
0.222733
0.266014
0.316178
0.371742
0.430047
0.488164
0.543275
0.189364
0.127419
0.106385
0.0988508
0.0958615
0.0944994
0.0942236
0.0950335
0.0971065
0.100755
0.106551
0.115241
0.127888
0.145875
0.170185
0.201551
0.240765
0.286828
0.340158
0.400222
0.463449
0.526393
0.585296
0.218872
0.13007
0.108893
0.0978903
0.0936704
0.0922086
0.0923606
0.0938969
0.0969296
0.101766
0.109042
0.119679
0.134942
0.157075
0.187246
0.225486
0.273892
0.323001
0.372754
0.432152
0.493974
0.557446
0.618228
0.237314
0.132064
0.105662
0.0943216
0.0897289
0.0884586
0.0892568
0.0917514
0.09598
0.102213
0.110858
0.122637
0.138806
0.160916
0.19086
0.22985
0.280073
0.343165
0.414565
0.484648
0.532047
0.591682
0.654716
0.246542
0.126218
0.101462
0.0913102
0.0872581
0.0865209
0.088031
0.0914386
0.0967621
0.104229
0.114131
0.126662
0.142439
0.162479
0.18862
0.223019
0.268426
0.329259
0.406736
0.481931
0.556441
0.636407
0.707982
0.250555
0.121188
0.0972371
0.088308
0.0850646
0.0850056
0.087242
0.0914898
0.0977637
0.106236
0.117126
0.13063
0.146971
0.166974
0.192107
0.224173
0.265104
0.316245
0.378683
0.451539
0.536459
0.621026
0.689757
0.254641
0.118369
0.0942188
0.0859206
0.08326
0.0837432
0.086549
0.0914284
0.0983903
0.107569
0.119141
0.133276
0.150244
0.170611
0.195316
0.225626
0.262935
0.308237
0.361515
0.423036
0.49259
0.563977
0.630085
0.259839
0.117447
0.0924695
0.0843028
0.0819233
0.0827264
0.0858822
0.0911415
0.0984989
0.108062
0.119984
0.134432
0.151631
0.171976
0.196082
0.224764
0.258912
0.299223
0.346084
0.399777
0.459432
0.521218
0.582928
0.265414
0.117619
0.0916565
0.0833568
0.0810391
0.0819689
0.0852776
0.0906953
0.0981939
0.107853
0.119799
0.134175
0.151163
0.171029
0.194159
0.221046
0.252243
0.288232
0.329318
0.375622
0.426478
0.47996
0.534653
0.270339
0.118074
0.0914224
0.0828937
0.0805228
0.0814529
0.0847731
0.0901861
0.0976359
0.107171
0.118884
0.132883
0.149292
0.168278
0.190066
0.214944
0.243238
0.275255
0.311214
0.351159
0.394677
0.440865
0.489112
0.273966
0.118503
0.091401
0.0827339
0.0802759
0.081141
0.0843867
0.0896903
0.0969656
0.10623
0.117538
0.130952
0.146543
0.164395
0.184625
0.207385
0.232857
0.26123
0.29265
0.327164
0.364592
0.404577
0.446864
0.276143
0.118744
0.0914327
0.08271
0.0802008
0.0809846
0.0841132
0.089252
0.0962819
0.105195
0.116006
0.128733
0.143393
0.160007
0.178612
0.199264
0.222053
0.247088
0.274471
0.304261
0.336426
0.370856
0.407465
0.276927
0.118723
0.0914236
0.0827272
0.0802049
0.080928
0.0839369
0.0888801
0.0956314
0.104167
0.114453
0.126466
0.14018
0.155564
0.172587
0.191237
0.211534
0.233524
0.257277
0.282854
0.31029
0.339581
0.370727
0.276446
0.118424
0.0913218
0.0827207
0.0802168
0.0808948
0.0837965
0.0885611
0.0950462
0.103192
0.112952
0.124272
0.137084
0.15132
0.16688
0.183693
0.201724
0.220971
0.241463
0.263248
0.286385
0.310925
0.336834
0.274862
0.117861
0.0911047
0.0826497
0.0801853
0.0808265
0.0836247
0.0882164
0.094448
0.102239
0.111521
0.122212
0.134207
0.147387
0.161623
0.176797
0.192821
0.209644
0.227251
0.245663
0.264912
0.285024
0.306026
0.272336
0.117069
0.0907707
0.0824936
0.0800775
0.0806809
0.0833708
0.0877864
0.0937679
0.101221
0.110061
0.120179
0.131443
0.143696
0.156775
0.170519
0.184795
0.199509
0.214606
0.230076
0.245933
0.262203
0.278948
0.269055
0.116101
0.0903372
0.0822507
0.0798783
0.0804327
0.0830013
0.0872291
0.0929544
0.100076
0.108493
0.118084
0.128693
0.140136
0.152217
0.164744
0.177545
0.190487
0.203485
0.216502
0.229541
0.242632
0.255877
0.265216
0.115026
0.0898394
0.0819371
0.0795907
0.0800752
0.082501
0.0865216
0.0919766
0.0987609
0.106768
0.115864
0.125879
0.136612
0.147843
0.159353
0.170942
0.182449
0.193761
0.20482
0.215624
0.226208
0.236706
0.261052
0.113932
0.0893298
0.0815867
0.0792362
0.0796206
0.0818748
0.0856623
0.0908256
0.0972599
0.104856
0.113476
0.122943
0.133046
0.143551
0.154222
0.164839
0.175217
0.185224
0.194785
0.203891
0.212581
0.221012
0.256822
0.112926
0.0888777
0.0812502
0.0788533
0.0790992
0.0811472
0.0846706
0.089516
0.0955806
0.102757
0.110907
0.119855
0.129386
0.139262
0.149236
0.159077
0.168585
0.177611
0.186068
0.193934
0.201249
0.208174
0.252822
0.112132
0.0885693
0.0809934
0.0784959
0.0785576
0.0803605
0.0835857
0.0880839
0.0937547
0.100494
0.10817
0.11661
0.125604
0.134916
0.144298
0.153513
0.16235
0.17065
0.178312
0.185301
0.19165
0.197514
0.249379
0.111697
0.0885058
0.0808953
0.0782302
0.0780553
0.0795709
0.0824633
0.0865841
0.0918354
0.0981177
0.105305
0.113235
0.121706
0.130491
0.139345
0.148031
0.156337
0.164093
0.171186
0.177567
0.183253
0.18838
0.246868
0.111789
0.0888022
0.0810445
0.0781307
0.0776602
0.0788449
0.0813703
0.0850856
0.0898925
0.0956954
0.102376
0.109784
0.117729
0.125996
0.134352
0.142565
0.150421
0.157748
0.164419
0.170373
0.175605
0.180229
0.245702
0.112598
0.0895855
0.0815353
0.0782754
0.0774439
0.0782534
0.0803804
0.0836659
0.0880074
0.093311
0.0994662
0.106333
0.113739
0.121481
0.129341
0.137096
0.144539
0.151492
0.157823
0.163455
0.168366
0.172635
0.246367
0.114343
0.0909919
0.0824632
0.0787407
0.0774763
0.0778667
0.0795681
0.0824052
0.086266
0.0910553
0.0966684
0.102977
0.109824
0.117024
0.124372
0.13166
0.138687
0.145279
0.151298
0.156655
0.161309
0.165313
0.249439
0.117276
0.0931633
0.0839184
0.0795946
0.0778193
0.077749
0.0790037
0.0813811
0.0847536
0.0890207
0.0940812
0.0998177
0.106088
0.112724
0.119538
0.126335
0.132923
0.139133
0.144828
0.14991
0.154325
0.158096
0.25566
0.121691
0.096242
0.085977
0.0808894
0.0785216
0.0779541
0.078749
0.0806645
0.0835498
0.0872949
0.0918001
0.0969573
0.102639
0.108694
0.11495
0.121227
0.127344
0.133136
0.13847
0.143244
0.147397
0.150933
0.266031
0.127943
0.100362
0.088689
0.0826519
0.0796116
0.0785205
0.0788543
0.0803164
0.0827253
0.0859574
0.0899127
0.0944915
0.0995803
0.105044
0.110728
0.116462
0.122076
0.127411
0.132335
0.136751
0.140594
0.143855
0.282031
0.136471
0.105632
0.0920595
0.0848713
0.0810917
0.0794695
0.0793574
0.0803879
0.0823411
0.0850775
0.0884956
0.0925044
0.0970046
0.101878
0.106983
0.112163
0.117254
0.122101
0.126573
0.130573
0.134043
0.136973
0.30599
0.147828
0.112098
0.0960183
0.0874833
0.082932
0.0808035
0.0802849
0.0809213
0.0824502
0.0847153
0.0876148
0.091067
0.0949879
0.0992766
0.103808
0.108437
0.113003
0.11735
0.121342
0.124882
0.127916
0.130443
0.341888
0.162693
0.119667
0.100371
0.0903512
0.0850667
0.0825091
0.0816558
0.0819549
0.0831016
0.084926
0.0873283
0.0902389
0.0935909
0.0973035
0.101271
0.105359
0.109415
0.113275
0.116791
0.119852
0.122404
0.124461
0.396956
0.181769
0.127928
0.104721
0.0932465
0.0873971
0.0845649
0.0834906
0.0835299
0.0843466
0.0857652
0.0876929
0.0900744
0.092863
0.0960009
0.0994061
0.102965
0.106533
0.109942
0.113023
0.115635
0.117699
0.11924
0.485258
0.205295
0.135786
0.108368
0.0958443
0.0898098
0.0869598
0.0858233
0.0856998
0.0862465
0.0872965
0.0887708
0.0906311
0.0928517
0.0954006
0.0982253
0.101242
0.104329
0.107326
0.110046
0.1123
0.11395
0.11499
0.637305
0.231203
0.140767
0.110216
0.0977707
0.0922266
0.089724
0.0887195
0.0885398
0.0888787
0.0895977
0.0906384
0.0919799
0.0936158
0.0955387
0.0977282
0.10014
0.102695
0.10527
0.107689
0.109729
0.111162
0.111863
0.933962
0.248695
0.13798
0.108909
0.0987829
0.0947055
0.0929743
0.092294
0.0921543
0.0923411
0.0927644
0.0933909
0.0942144
0.095241
0.0964797
0.097936
0.099605
0.101463
0.103458
0.105492
0.107395
0.108907
0.109726
1.65879
0.214784
0.120073
0.103739
0.0991962
0.0975927
0.0969605
0.0967238
0.0966813
0.0967547
0.0969138
0.0971489
0.097461
0.0978566
0.0983454
0.0989388
0.0996493
0.100491
0.101479
0.10263
0.103953
0.105412
0.106803
1.18544
0.934786
0.769595
0.782947
0.588758
0.590555
0.573017
0.568698
0.480603
0.498873
0.514393
0.533706
0.462253
0.482654
0.504641
0.52951
0.48417
0.507146
0.531654
0.558274
0.530372
0.556162
0.582224
0.608998
0.580406
0.60808
0.635403
0.662522
0.624442
0.65303
0.680806
0.707888
0.658109
0.686815
0.714592
0.741845
0.695917
0.725004
0.752513
0.779156
0.749762
0.777311
0.802395
0.826476
0.732507
0.762314
0.790997
0.819799
0.676849
0.711722
0.747415
0.783279
0.62747
0.659644
0.692376
0.725823
0.575644
0.605188
0.635451
0.666387
0.526163
0.552515
0.579539
0.607151
0.479704
0.502615
0.526085
0.550023
0.436039
0.455542
0.475483
0.495765
0.395102
0.411379
0.428002
0.444855
0.357153
0.370525
0.384187
0.398048
0.322572
0.3334
0.344437
0.355626
0.29217
0.30078
0.309535
0.318396
0.266314
0.273074
0.279934
0.286862
0.244921
0.250209
0.255562
0.260961
0.227525
0.231686
0.235886
0.240114
0.213426
0.21675
0.220086
0.223434
0.201851
0.204562
0.20726
0.209947
0.192066
0.194333
0.196559
0.198748
0.183451
0.185396
0.187272
0.189083
0.175525
0.177235
0.178849
0.180371
0.167953
0.169487
0.170902
0.172199
0.160533
0.161925
0.16318
0.164298
0.153178
0.154442
0.15556
0.156526
0.145896
0.147031
0.148015
0.148841
0.138776
0.139766
0.140606
0.141287
0.131961
0.13278
0.133455
0.133973
0.125641
0.126257
0.126738
0.127066
0.120034
0.120417
0.120675
0.12078
0.115374
0.115506
0.115518
0.115367
0.111884
0.111782
0.111555
0.11113
0.109664
0.109449
0.10902
0.108328
0.10734
0.107536
0.107115
0.106218
0.795254
0.888383
0.98966
0.991766
0.9931
1.03555
1.12288
1.22887
1.30741
1.38149
1.47664
1.59882
1.74198
1.89109
2.02884
2.14533
2.26288
2.5612
5.28865
0.603689
0.686587
0.76812
0.825969
0.879389
0.954109
1.06481
1.19597
1.30239
1.39836
1.5156
1.66859
1.84713
2.02568
2.18075
2.30916
2.45518
2.84327
6.05382
0.576939
0.63974
0.708397
0.77588
0.8472
0.942933
1.0763
1.22681
1.35626
1.4793
1.62741
1.81764
2.03066
2.22477
2.372
2.4839
2.63133
3.07703
6.64574
0.577178
0.638788
0.70437
0.772606
0.852343
0.959062
1.1009
1.26145
1.42113
1.58942
1.79441
2.0459
2.30378
2.49673
2.59844
2.65353
2.76903
3.23916
7.01517
0.606212
0.66436
0.726608
0.794273
0.875418
0.981778
1.12218
1.29331
1.48983
1.72303
2.01619
2.36552
2.69725
2.86339
2.85699
2.80666
2.86049
3.32563
7.1285
0.654848
0.708462
0.766073
0.830448
0.908973
1.01318
1.15457
1.3403
1.58149
1.89502
2.31484
2.82013
3.2867
3.35605
3.13158
2.93594
2.91748
3.35743
7.00356
0.707086
0.757755
0.811986
0.873983
0.95164
1.05729
1.20663
1.41847
1.72631
2.14257
2.72854
3.46858
4.24786
3.95451
3.37273
3.04261
2.96887
3.37264
6.71336
0.751967
0.802059
0.85637
0.919918
1.00127
1.11599
1.28663
1.54131
1.96976
2.51559
3.17145
3.94159
4.44848
4.13174
3.52172
3.13572
3.03769
3.4035
6.37172
0.787192
0.840771
0.899293
0.968265
1.05809
1.19326
1.40749
1.69126
2.09637
2.63022
3.19538
3.75968
4.00466
3.88183
3.52105
3.20133
3.11886
3.46817
6.11613
0.824044
0.880365
0.944079
1.02093
1.12208
1.26507
1.47438
1.7262
2.0353
2.50318
3.05062
3.54205
3.72393
3.70175
3.50141
3.24796
3.19232
3.53034
5.9193
0.867176
0.922896
0.990491
1.07225
1.16833
1.28208
1.43993
1.67154
1.99736
2.44094
2.95236
3.38347
3.53431
3.57703
3.48091
3.27868
3.24401
3.56958
5.77099
0.870091
0.934834
1.0063
1.07878
1.15565
1.2542
1.39529
1.61469
1.92707
2.34235
2.81423
3.20854
3.37388
3.45737
3.45247
3.29599
3.27322
3.57959
5.66418
0.842896
0.909579
0.973633
1.03758
1.10851
1.19823
1.32956
1.52891
1.82014
2.20697
2.64389
3.01702
3.20744
3.32171
3.41756
3.30969
3.28929
3.56927
5.59052
0.783112
0.85104
0.913666
0.975092
1.04162
1.12485
1.24467
1.42645
1.69552
2.05446
2.46102
2.81877
3.03361
3.16957
3.35639
3.33944
3.29734
3.54584
5.54061
0.719133
0.783796
0.844203
0.902638
0.964742
1.04138
1.15083
1.31707
1.56536
1.89934
2.28163
2.62917
2.86518
3.02739
3.27248
3.35796
3.28713
3.50592
5.51138
0.654165
0.713859
0.770449
0.825256
0.882937
0.953357
1.05318
1.20622
1.4364
1.7496
2.11454
2.45929
2.71472
2.90099
3.16458
3.32598
3.26051
3.4601
5.51513
0.590738
0.644325
0.695859
0.746174
0.799238
0.863942
0.955673
1.09735
1.31205
1.60809
1.96064
2.30746
2.58265
2.78405
3.02266
3.25281
3.23073
3.42795
5.58984
0.530184
0.577025
0.62261
0.66775
0.716048
0.775645
0.860825
0.992679
1.19372
1.47442
1.81632
2.1656
2.45802
2.67439
2.87331
3.12661
3.21211
3.42619
5.71697
0.473326
0.513245
0.552455
0.592123
0.635804
0.691058
0.770993
0.894708
1.08228
1.346
1.67651
2.02572
2.32976
2.55925
2.74581
2.96621
3.22818
3.43429
5.77236
0.42107
0.453749
0.486541
0.520819
0.560065
0.611345
0.686729
0.803444
0.979436
1.22682
1.53948
1.88284
2.19307
2.43071
2.62078
2.8386
3.16111
3.40682
5.6792
0.373804
0.399991
0.426957
0.456264
0.491301
0.53862
0.60927
0.718971
0.884006
1.11604
1.41092
1.73938
2.05033
2.29451
2.48648
2.69698
3.01789
3.24201
5.40404
0.332531
0.35327
0.375285
0.400243
0.431354
0.474566
0.539833
0.641609
0.79505
1.01191
1.29002
1.60405
1.90798
2.15857
2.35299
2.55
2.83101
3.04998
4.98325
0.297779
0.314178
0.33219
0.353482
0.380986
0.419946
0.479086
0.571527
0.711669
0.912102
1.17361
1.47509
1.77461
2.02947
2.22908
2.41131
2.63772
2.85955
4.51867
0.269412
0.28247
0.297325
0.315555
0.339738
0.374348
0.426766
0.508502
0.633146
0.8144
1.05704
1.34577
1.64305
1.90578
2.11528
2.28955
2.45456
2.67506
4.05537
0.246717
0.257232
0.269582
0.28519
0.306245
0.336439
0.38182
0.452001
0.559315
0.717991
0.936957
1.20828
1.50063
1.77078
1.99331
2.17892
2.28648
2.49359
3.62648
0.228661
0.237212
0.247508
0.26078
0.278818
0.304541
0.342944
0.401457
0.490675
0.624182
0.813809
1.05933
1.33831
1.60942
1.84023
2.0399
2.11905
2.33121
3.2403
0.214138
0.22113
0.229676
0.240811
0.255967
0.277396
0.309056
0.356449
0.42811
0.535821
0.69212
0.902731
1.15535
1.4158
1.64547
1.84419
1.9376
2.2068
2.87635
0.202148
0.207863
0.214878
0.224037
0.236467
0.253955
0.279336
0.316665
0.372388
0.455881
0.578443
0.748522
0.962145
1.19502
1.41081
1.59951
1.72852
2.11628
2.52248
0.191868
0.196522
0.202187
0.209545
0.219448
0.233376
0.253182
0.281785
0.323803
0.386174
0.478027
0.608006
0.777219
0.970068
1.15689
1.32024
1.46643
1.93376
2.05552
0.182675
0.186439
0.190924
0.19668
0.204387
0.215114
0.230131
0.251433
0.282148
0.327071
0.392937
0.487315
0.614185
0.765783
0.919038
1.04861
1.15485
1.26857
1.43442
0.174122
0.177141
0.180605
0.184939
0.190769
0.198752
0.209779
0.225161
0.2469
0.278054
0.323099
0.387714
0.4767
0.588615
0.709823
0.817322
0.876879
0.872678
0.876045
0.165914
0.168312
0.170916
0.174071
0.178271
0.183964
0.191754
0.202474
0.217333
0.238122
0.267474
0.308935
0.366231
0.44058
0.526078
0.607755
0.654346
0.622685
0.563895
0.157883
0.159752
0.161619
0.163807
0.166651
0.17048
0.175706
0.18285
0.192603
0.205927
0.224187
0.249221
0.283097
0.326962
0.378473
0.428964
0.458289
0.43
0.389289
0.149965
0.151373
0.152616
0.153998
0.155735
0.158081
0.161323
0.165785
0.171848
0.179985
0.19081
0.205101
0.223689
0.246981
0.273763
0.299359
0.312274
0.291357
0.285519
0.142177
0.14316
0.143871
0.144566
0.14541
0.146599
0.148339
0.150835
0.154292
0.158922
0.164948
0.172603
0.182061
0.193226
0.20523
0.215527
0.218428
0.205119
0.222374
0.134605
0.135146
0.135378
0.135484
0.13561
0.135913
0.136545
0.137637
0.1393
0.141614
0.144627
0.148337
0.152655
0.1573
0.1616
0.164176
0.162593
0.155107
0.184937
0.1274
0.127461
0.127205
0.126781
0.126324
0.12596
0.125796
0.125917
0.126381
0.12721
0.128383
0.129825
0.13138
0.132767
0.133514
0.132896
0.130148
0.126866
0.163605
0.120754
0.120264
0.119473
0.118548
0.117607
0.116743
0.116025
0.1155
0.115196
0.115108
0.115201
0.11539
0.115537
0.115429
0.114773
0.113247
0.110891
0.11068
0.151582
0.114902
0.113755
0.112373
0.110957
0.109604
0.108364
0.107266
0.106327
0.105553
0.10493
0.104421
0.103962
0.103452
0.102755
0.101719
0.100265
0.0988336
0.100956
0.144597
0.11014
0.108212
0.106188
0.104299
0.102592
0.101064
0.0997034
0.0985002
0.0974453
0.0965225
0.0957033
0.094942
0.0941759
0.0933322
0.0923569
0.0913242
0.0908876
0.0948122
0.140256
0.106724
0.103918
0.101292
0.0990121
0.0970342
0.0952942
0.0937453
0.0923601
0.0911218
0.0900159
0.0890236
0.088118
0.0872664
0.086441
0.0856562
0.085088
0.0855364
0.090944
0.137212
0.104205
0.10105
0.0982043
0.0957758
0.0936797
0.0918273
0.0901608
0.0886481
0.0872718
0.0860205
0.0848824
0.0838424
0.0828853
0.0820092
0.0812668
0.080892
0.0817832
0.0880359
0.134219
)
;

boundaryField
{
    leftWall
    {
        type            epsilonWallFunction;
        value           nonuniform List<scalar> 
50
(
0.0202343
0.0274258
0.0433266
0.0558761
0.0659469
0.0756909
0.0860804
0.0967888
0.106432
0.116411
0.119875
0.12097
0.124256
0.133934
0.154748
0.189364
0.218872
0.237314
0.246542
0.250555
0.254641
0.259839
0.265414
0.270339
0.273966
0.276143
0.276927
0.276446
0.274862
0.272336
0.269055
0.265216
0.261052
0.256822
0.252822
0.249379
0.246868
0.245702
0.246367
0.249439
0.25566
0.266031
0.282031
0.30599
0.341888
0.396956
0.485258
0.637305
0.933962
1.65879
)
;
    }
    rightWall
    {
        type            epsilonWallFunction;
        value           nonuniform List<scalar> 
50
(
0.540658
0.864036
1.5614
2.18769
2.7742
3.33281
3.87098
4.39842
5.28865
6.05382
6.64574
7.01517
7.1285
7.00356
6.71336
6.37172
6.11613
5.9193
5.77099
5.66418
5.59052
5.54061
5.51138
5.51513
5.58984
5.71697
5.77236
5.6792
5.40404
4.98325
4.51867
4.05537
3.62648
3.2403
2.87635
2.52248
2.05552
1.43442
0.876045
0.563895
0.389289
0.285519
0.222374
0.184937
0.163605
0.151582
0.144597
0.140256
0.137212
0.134219
)
;
    }
    lowerWall
    {
        type            epsilonWallFunction;
        value           nonuniform List<scalar> 
62
(
0.0202343
0.0786376
0.149129
0.213249
0.274631
0.332866
0.38755
0.438037
0.483565
0.523379
0.556766
0.583041
0.601568
0.611871
0.613719
0.606875
0.596497
0.580013
0.551519
0.504543
0.431349
0.315817
0.137189
0.137189
0.196812
0.311251
0.416465
0.512204
0.602285
0.697399
0.846669
1.18544
0.934786
0.769595
0.782947
0.854028
0.760706
0.956822
1.0302
1.02992
1.01727
0.992524
1.00217
0.854028
1.56263
2.37262
3.3366
4.41174
5.47865
6.12786
6.12546
5.93727
5.809
5.72105
5.57959
5.30967
4.9447
4.41341
3.6801
2.73894
1.51128
0.540658
)
;
    }
    atmosphere
    {
        type            inletOutlet;
        inletValue      uniform 0.1;
        value           nonuniform List<scalar> 
46
(
0.1
0.1
0.1
0.1
0.1
0.1
0.1
0.1
0.1
0.1
0.1
0.1
0.1
0.1
0.1
0.1
0.1
0.1
0.1
0.1
0.1
0.1
0.1
0.1
0.1
0.107115
0.106218
0.104205
0.10105
0.0982043
0.0957758
0.0936797
0.0918273
0.0901608
0.0886481
0.0872718
0.0860205
0.0848824
0.0838424
0.0828853
0.0820092
0.0812668
0.080892
0.0817832
0.0880359
0.134219
)
;
    }
    defaultFaces
    {
        type            empty;
    }
}


// ************************************************************************* //
