/*--------------------------------*- C++ -*----------------------------------*\
  =========                 |
  \\      /  F ield         | OpenFOAM: The Open Source CFD Toolbox
   \\    /   O peration     | Website:  https://openfoam.org
    \\  /    A nd           | Version:  13
     \\/     M anipulation  |
\*---------------------------------------------------------------------------*/
FoamFile
{
    format      ascii;
    class       volScalarField;
    location    "0.4";
    object      k;
}
// * * * * * * * * * * * * * * * * * * * * * * * * * * * * * * * * * * * * * //

dimensions      [0 2 -2 0 0 0 0];

internalField   nonuniform List<scalar> 
2268
(
0.00282372
0.00698127
0.0106983
0.0135774
0.0160694
0.0182651
0.020212
0.0219289
0.0234205
0.0246854
0.0257197
0.026517
0.0270696
0.0273716
0.0274213
0.0272137
0.0269103
0.0264136
0.0255357
0.0240488
0.0216361
0.0175433
0.0100269
0.00568881
0.0148996
0.0218165
0.027573
0.0324756
0.0367166
0.0404121
0.0436198
0.0463657
0.0486626
0.0505194
0.0519456
0.0529585
0.0535932
0.0539121
0.0539963
0.0539075
0.0534961
0.0525032
0.0504364
0.0464297
0.0383502
0.0210809
0.0077207
0.0182689
0.0267318
0.0338439
0.0399067
0.0451361
0.0496738
0.0535964
0.0569435
0.059739
0.0620033
0.0637628
0.0650622
0.0659817
0.0666493
0.0672312
0.067773
0.0681343
0.0679338
0.0664411
0.0623477
0.0526642
0.0286212
0.00915424
0.0205252
0.029996
0.0379599
0.0447506
0.0505995
0.0556607
0.0600223
0.0637351
0.0668336
0.0693508
0.0713314
0.0728502
0.0740361
0.0750848
0.0762282
0.0774989
0.0786708
0.0792046
0.0781872
0.0740718
0.0634449
0.0347539
0.0102312
0.0223565
0.0326063
0.0411545
0.0484322
0.0546963
0.0601081
0.0647637
0.0687236
0.072033
0.0747375
0.0769011
0.0786304
0.0801041
0.0815843
0.0833571
0.0854169
0.0873847
0.0885144
0.0877569
0.0834867
0.0721514
0.0398939
0.011226
0.0240831
0.0349934
0.0439349
0.0515229
0.0580508
0.0636858
0.0685314
0.0726568
0.0761176
0.0789716
0.0813025
0.0832501
0.0850444
0.0870136
0.0894894
0.0923942
0.0951391
0.0967502
0.0960907
0.0915782
0.0797129
0.0444471
0.0122412
0.0260279
0.0374437
0.0465957
0.0543459
0.0610122
0.0667658
0.0717159
0.07594
0.0795026
0.0824744
0.0849587
0.0871295
0.0892708
0.0917812
0.0950461
0.0988907
0.10244
0.104452
0.10381
0.0990993
0.0870108
0.0490279
0.0132387
0.0283073
0.0399277
0.0491138
0.0569009
0.0636045
0.069396
0.0743887
0.0786673
0.0823063
0.0853899
0.0880418
0.090465
0.0929865
0.0960716
0.100197
0.105122
0.109599
0.112067
0.111512
0.106816
0.0951322
0.0558715
0.0334649
0.0502048
0.0666338
0.0840152
0.102055
0.11878
0.128101
0.127482
0.124046
0.121611
0.120076
0.118086
0.114608
0.10959
0.101815
0.0903341
0.074227
0.0498811
0.0251251
0.0549026
0.0955989
0.133716
0.168946
0.211821
0.248529
0.261547
0.257616
0.249239
0.243632
0.240963
0.238762
0.234894
0.227214
0.214529
0.194975
0.165866
0.12169
0.0606384
0.0639297
0.1161
0.160373
0.204854
0.265028
0.307839
0.319236
0.312676
0.302502
0.296531
0.295198
0.295245
0.293797
0.288396
0.277287
0.257719
0.225377
0.172635
0.0900637
0.0670869
0.125176
0.173138
0.227629
0.305846
0.351856
0.355172
0.341872
0.331329
0.327107
0.328582
0.332011
0.333897
0.331663
0.323044
0.30464
0.27121
0.214027
0.112792
0.067139
0.128532
0.175632
0.240362
0.327824
0.355779
0.363573
0.352737
0.345206
0.345806
0.351749
0.359393
0.365218
0.366531
0.36062
0.343602
0.309801
0.249691
0.132156
0.0665962
0.126861
0.171075
0.230193
0.287116
0.312164
0.335059
0.34367
0.348767
0.35731
0.369018
0.381375
0.391462
0.396496
0.393346
0.377762
0.343894
0.281398
0.149359
0.0655267
0.122114
0.165332
0.221771
0.253795
0.282493
0.312474
0.334175
0.349601
0.365912
0.383217
0.400226
0.414585
0.423332
0.422893
0.408724
0.374919
0.310218
0.16504
0.0661784
0.118707
0.163841
0.210371
0.236429
0.270011
0.30426
0.333258
0.35418
0.375079
0.396526
0.41757
0.435907
0.448173
0.450277
0.437434
0.403746
0.337003
0.179714
0.0140981
0.030776
0.0425102
0.0517592
0.0595792
0.0663125
0.0721451
0.0772051
0.0815942
0.0854091
0.0887623
0.0918121
0.0947998
0.0980875
0.102173
0.107535
0.114028
0.120409
0.124338
0.124331
0.120181
0.110246
0.0820678
0.0149509
0.0324242
0.0441366
0.0534488
0.0613126
0.0680865
0.0739818
0.079154
0.0837385
0.0878731
0.0917198
0.0954904
0.09947
0.104023
0.109551
0.116367
0.124346
0.132575
0.139223
0.141946
0.139724
0.132354
0.118089
0.0152399
0.0327249
0.0447067
0.0542282
0.0622409
0.0691306
0.0751395
0.0804573
0.085259
0.0897288
0.0940795
0.0985726
0.10353
0.109317
0.116264
0.124524
0.133896
0.143464
0.151664
0.157071
0.158704
0.156575
0.151741
0.0153365
0.0322781
0.0445352
0.0542744
0.0624464
0.0694672
0.0756129
0.0811083
0.0861665
0.0910118
0.0958954
0.101108
0.106989
0.113902
0.122159
0.131844
0.142722
0.153875
0.163914
0.171539
0.176271
0.178961
0.180881
0.0156297
0.0317196
0.0442451
0.0541558
0.0624345
0.0695412
0.075793
0.0814508
0.0867623
0.091985
0.097397
0.103303
0.110044
0.117987
0.127461
0.138585
0.151086
0.164101
0.17646
0.187168
0.195864
0.203062
0.209889
0.0164648
0.0315097
0.0443839
0.0544029
0.0627018
0.0698136
0.0761048
0.081875
0.0874032
0.0929747
0.0988909
0.105468
0.113056
0.122022
0.132709
0.145309
0.159501
0.174505
0.189399
0.20349
0.216492
0.228471
0.239853
0.0182105
0.032233
0.0455617
0.0555601
0.0637801
0.0708075
0.0770604
0.0828799
0.0885743
0.0944516
0.100842
0.108094
0.116594
0.126701
0.1387
0.152735
0.168556
0.185426
0.202864
0.220316
0.237155
0.253055
0.267961
0.0207664
0.0345199
0.047597
0.0575997
0.0658182
0.072798
0.079025
0.0849016
0.0907727
0.0969637
0.103863
0.111863
0.121407
0.132965
0.14662
0.162225
0.179657
0.19805
0.217279
0.237145
0.256595
0.275004
0.291793
0.0228311
0.0393069
0.0503212
0.058893
0.0666633
0.0736213
0.0800435
0.086255
0.0925808
0.099346
0.106971
0.115933
0.126747
0.140265
0.15654
0.174952
0.195911
0.21535
0.233403
0.253597
0.273227
0.292425
0.310338
0.0240626
0.0433234
0.0524275
0.0602126
0.067446
0.0742152
0.0807242
0.0872282
0.094008
0.101358
0.109558
0.118964
0.130118
0.143541
0.159696
0.178515
0.200279
0.225013
0.250814
0.274784
0.290019
0.308272
0.327117
0.0246604
0.0441426
0.0540594
0.0619257
0.0690352
0.0757734
0.0824045
0.0891752
0.0963409
0.104159
0.112835
0.12243
0.133166
0.145393
0.159734
0.176753
0.197049
0.221715
0.250546
0.276524
0.30042
0.324824
0.346141
0.0249377
0.0444352
0.0551527
0.0633188
0.0705142
0.0773332
0.0841186
0.0911332
0.0986121
0.106766
0.115745
0.125617
0.136406
0.148402
0.162144
0.178169
0.196902
0.218401
0.242561
0.268528
0.296603
0.323255
0.344276
0.0252222
0.0448799
0.0560898
0.0644656
0.0717556
0.0786582
0.0855626
0.0927419
0.100416
0.108762
0.117903
0.127896
0.138807
0.150823
0.164264
0.179509
0.196879
0.216412
0.237714
0.260555
0.284738
0.308293
0.329077
0.025572
0.0455041
0.0569704
0.0654396
0.072771
0.0797093
0.0866625
0.0939055
0.101646
0.110042
0.119206
0.129203
0.140093
0.151994
0.165096
0.179625
0.195763
0.213533
0.232792
0.253392
0.27488
0.295859
0.315582
0.0259424
0.0461975
0.0577879
0.0662813
0.0736045
0.0805256
0.0874582
0.0946742
0.10237
0.110693
0.119744
0.129588
0.140279
0.151886
0.164509
0.178261
0.193231
0.209427
0.226752
0.245045
0.263902
0.282509
0.3003
0.0262647
0.0468963
0.0585105
0.0670061
0.0742932
0.0811607
0.0880216
0.0951441
0.102715
0.11087
0.1197
0.129265
0.139601
0.150746
0.16274
0.175627
0.189433
0.204142
0.219671
0.235862
0.252396
0.268797
0.284731
0.0265006
0.0475025
0.0591616
0.0676254
0.0748648
0.0816629
0.0884226
0.0954119
0.102807
0.110732
0.119271
0.128468
0.138347
0.14892
0.160191
0.172161
0.184821
0.198132
0.212017
0.226337
0.240867
0.255318
0.26946
0.0266422
0.0479807
0.0597034
0.0681642
0.075355
0.0820653
0.0887121
0.0955525
0.102746
0.110415
0.118626
0.127415
0.136791
0.146745
0.157261
0.168313
0.179867
0.191874
0.204259
0.216909
0.229658
0.24231
0.254683
0.0266944
0.0483272
0.0601211
0.0685977
0.0757615
0.0824028
0.0889352
0.0956122
0.102598
0.11001
0.117891
0.126268
0.135138
0.144481
0.154259
0.164428
0.174941
0.18574
0.196752
0.207879
0.218993
0.229941
0.240566
0.0266658
0.0485464
0.0604107
0.0689138
0.0760651
0.0826533
0.0890901
0.0956251
0.102418
0.109571
0.117132
0.125117
0.13351
0.142283
0.151374
0.160727
0.170282
0.179974
0.189729
0.19946
0.209056
0.218392
0.227305
0.0265665
0.0486461
0.0605731
0.0691059
0.076252
0.0827971
0.0891507
0.0955599
0.10218
0.109106
0.116383
0.124015
0.131979
0.140226
0.148694
0.157312
0.166007
0.174706
0.183331
0.191792
0.199989
0.207798
0.215088
0.0264065
0.0486365
0.0606132
0.0691719
0.0763132
0.0828182
0.0890946
0.0953875
0.101851
0.108573
0.115596
0.122917
0.130503
0.138294
0.146217
0.154191
0.162131
0.169956
0.177581
0.18492
0.191876
0.198339
0.204203
0.0261971
0.0485313
0.060541
0.0691158
0.0762458
0.0827067
0.0889045
0.0950838
0.101397
0.107932
0.114725
0.12177
0.129025
0.136424
0.143882
0.151308
0.158609
0.165693
0.172473
0.178864
0.184777
0.190114
0.194795
0.0259505
0.0483487
0.0603726
0.068949
0.0760551
0.0824613
0.0885722
0.0946331
0.100797
0.107151
0.11373
0.120526
0.127491
0.134553
0.14162
0.148592
0.155367
0.161849
0.167947
0.173575
0.178654
0.183101
0.186857
0.0256815
0.0481122
0.0601318
0.068692
0.0757566
0.0820913
0.0881008
0.0940313
0.100038
0.106209
0.112582
0.119145
0.12585
0.132621
0.13936
0.145962
0.152318
0.158327
0.163895
0.16894
0.173388
0.177169
0.180245
0.0254067
0.0478509
0.0598498
0.0683744
0.0753763
0.0816182
0.0875057
0.093288
0.099123
0.105103
0.111266
0.117603
0.124067
0.130579
0.137039
0.143339
0.149365
0.155013
0.160188
0.164807
0.168803
0.172115
0.174721
0.0251456
0.0475999
0.0595657
0.0680349
0.0749504
0.0810745
0.0868157
0.0924268
0.0980701
0.103842
0.109785
0.115893
0.122122
0.128393
0.134608
0.140655
0.146421
0.151796
0.156686
0.161008
0.164699
0.167702
0.170008
0.0249203
0.0473997
0.0593255
0.0677205
0.0745248
0.0805038
0.0860709
0.0914842
0.0969112
0.102454
0.108159
0.114026
0.120015
0.126051
0.132037
0.137862
0.143412
0.148578
0.153263
0.157384
0.160878
0.163695
0.165826
0.0247562
0.0472964
0.0591819
0.0674853
0.0741529
0.0799581
0.0853215
0.0905079
0.0956908
0.100978
0.106422
0.11203
0.117765
0.123559
0.129318
0.134933
0.140292
0.145285
0.149815
0.153799
0.157172
0.159885
0.161929
0.0246815
0.0473411
0.0591928
0.0673889
0.0738941
0.0794957
0.0846247
0.0895538
0.0944631
0.0994665
0.104624
0.109947
0.115408
0.120943
0.126464
0.131866
0.137039
0.141875
0.146275
0.150156
0.153452
0.156111
0.158122
0.0247292
0.0475906
0.0594213
0.0674951
0.0738112
0.0791786
0.0840419
0.0886829
0.0932885
0.0979791
0.102821
0.107833
0.112993
0.118246
0.12351
0.128684
0.133662
0.138336
0.14261
0.146398
0.149633
0.152262
0.154267
0.0249371
0.0481083
0.0599352
0.0678702
0.0739686
0.0790699
0.0836358
0.0879579
0.0922303
0.0965789
0.101076
0.105748
0.11058
0.115525
0.120506
0.125429
0.130191
0.134687
0.138822
0.142509
0.14568
0.148278
0.150282
0.0253525
0.0489664
0.0608071
0.0685821
0.0744298
0.0792307
0.0834667
0.0874399
0.0913503
0.095329
0.0994539
0.103758
0.108234
0.112841
0.117512
0.122157
0.126678
0.130972
0.134944
0.138509
0.141596
0.144149
0.14614
0.0260354
0.0502493
0.062116
0.0696991
0.0752556
0.0797176
0.0835902
0.0871851
0.0907067
0.0942897
0.0980164
0.101926
0.106018
0.110261
0.114593
0.118933
0.123186
0.127251
0.131033
0.134447
0.137422
0.139903
0.141856
0.0270707
0.0520612
0.0639482
0.071289
0.0765011
0.0805799
0.084054
0.0872421
0.0903506
0.093515
0.0968204
0.100311
0.103994
0.107846
0.111814
0.115823
0.119781
0.123591
0.127156
0.13039
0.133223
0.135599
0.137484
0.0285844
0.0545352
0.0663995
0.0734158
0.0782127
0.0818561
0.0848949
0.08765
0.0903243
0.0930513
0.0959162
0.0989669
0.102218
0.105654
0.109231
0.112883
0.116524
0.120056
0.123382
0.126413
0.129076
0.131315
0.133101
0.0307802
0.0578498
0.0695746
0.0761354
0.0804223
0.08357
0.0861367
0.0884359
0.0906607
0.0929369
0.0953469
0.0979402
0.100738
0.103732
0.106892
0.11016
0.113458
0.116694
0.119766
0.12258
0.125056
0.127138
0.1288
0.034005
0.0622481
0.0735804
0.0794841
0.0831392
0.0857252
0.087787
0.089615
0.0913828
0.0932026
0.0951497
0.0972723
0.0995956
0.102122
0.104833
0.107683
0.110608
0.113522
0.116327
0.11892
0.12121
0.123133
0.124666
0.0388813
0.0680594
0.0785034
0.0834566
0.086337
0.0883001
0.0898358
0.0911901
0.0925055
0.0938738
0.0953581
0.0970021
0.0988329
0.100862
0.103081
0.105465
0.107968
0.110518
0.11303
0.115398
0.11752
0.119312
0.120747
0.0466367
0.0756962
0.0843464
0.0879682
0.0899384
0.0912429
0.0922559
0.0931542
0.0940381
0.0949726
0.0960048
0.0971696
0.0984927
0.0999901
0.101667
0.103515
0.105511
0.107614
0.10976
0.111865
0.113827
0.115546
0.116973
0.0601923
0.0855191
0.0908772
0.0928009
0.0938049
0.0944756
0.0950094
0.0954963
0.0959884
0.0965219
0.0971245
0.0978194
0.0986258
0.0995596
0.100632
0.10185
0.103211
0.104707
0.106317
0.108004
0.109714
0.111375
0.112939
0.088366
0.0967333
0.0972964
0.0975591
0.0977527
0.0979155
0.0980641
0.0982121
0.0983707
0.0985497
0.0987581
0.0990041
0.0992961
0.0996419
0.100049
0.100526
0.101081
0.101722
0.102462
0.103321
0.104329
0.105535
0.107021
0.0703978
0.06013
0.0528763
0.0536144
0.110472
0.10556
0.104167
0.108475
0.150105
0.150649
0.153885
0.159654
0.18385
0.187466
0.192531
0.199224
0.216042
0.221557
0.2279
0.23522
0.248641
0.255404
0.262444
0.269893
0.278252
0.285772
0.293271
0.300808
0.302993
0.310932
0.318627
0.326123
0.322024
0.330138
0.337896
0.345405
0.339324
0.347609
0.355304
0.362579
0.358469
0.366286
0.373242
0.379681
0.356995
0.36541
0.373208
0.380686
0.343042
0.35285
0.362484
0.371756
0.328952
0.338051
0.346938
0.355654
0.312723
0.321171
0.329475
0.33762
0.296063
0.303682
0.311172
0.318505
0.279566
0.286239
0.29278
0.299151
0.263494
0.269188
0.274735
0.280095
0.248061
0.252791
0.25736
0.261725
0.233501
0.23733
0.240986
0.244432
0.220068
0.223088
0.22592
0.22853
0.208105
0.210416
0.212528
0.214408
0.197796
0.199521
0.20104
0.202323
0.189152
0.19042
0.191483
0.192313
0.182023
0.18296
0.183698
0.18421
0.176147
0.176862
0.177385
0.177693
0.171214
0.171793
0.172187
0.172377
0.16691
0.167416
0.167743
0.167876
0.162959
0.163434
0.163737
0.163852
0.159139
0.159611
0.159914
0.160035
0.155293
0.155775
0.156092
0.156231
0.151323
0.15182
0.152154
0.152315
0.147189
0.147697
0.148045
0.148226
0.142898
0.143408
0.143763
0.143954
0.138498
0.138997
0.139348
0.139539
0.134066
0.134543
0.134877
0.135056
0.129701
0.130146
0.130454
0.130611
0.125503
0.125919
0.126205
0.126337
0.121552
0.121965
0.122256
0.122383
0.117843
0.118333
0.118718
0.118908
0.114092
0.114862
0.115595
0.116039
0.108556
0.110068
0.112342
0.113493
0.0855874
0.122313
0.164141
0.198624
0.233142
0.269588
0.30689
0.341184
0.368099
0.392697
0.418203
0.444221
0.467997
0.485187
0.490777
0.479686
0.446149
0.376504
0.203209
0.125206
0.154785
0.188523
0.222089
0.255925
0.291747
0.330433
0.36886
0.399925
0.426646
0.454054
0.483557
0.511531
0.531772
0.538027
0.525346
0.488618
0.412541
0.222406
0.173995
0.196893
0.224096
0.253558
0.284731
0.320092
0.360756
0.401681
0.435576
0.465205
0.495778
0.529102
0.560204
0.58063
0.583491
0.565275
0.522631
0.439629
0.236775
0.213268
0.23404
0.257854
0.283973
0.313349
0.348042
0.388452
0.429985
0.467989
0.503688
0.541433
0.581516
0.616161
0.633514
0.627405
0.59836
0.546484
0.456264
0.245626
0.249024
0.267861
0.289163
0.312827
0.340073
0.372609
0.411136
0.453398
0.496721
0.541742
0.59104
0.642173
0.683064
0.693049
0.669591
0.623637
0.559705
0.462396
0.24843
0.283001
0.299881
0.318736
0.339931
0.364752
0.395113
0.432335
0.476035
0.525925
0.582308
0.647764
0.716301
0.769541
0.762711
0.708462
0.640827
0.564139
0.460325
0.245594
0.313366
0.328742
0.345625
0.36483
0.387894
0.417028
0.454403
0.501655
0.561675
0.632015
0.717191
0.8102
0.893833
0.839132
0.738877
0.651164
0.56407
0.454429
0.238657
0.338321
0.352846
0.368708
0.387008
0.409525
0.439229
0.479518
0.533325
0.612283
0.699075
0.788749
0.879142
0.923574
0.861717
0.754611
0.65677
0.563273
0.44873
0.230196
0.357696
0.372415
0.388343
0.406767
0.429941
0.462812
0.510509
0.567676
0.640119
0.723744
0.799875
0.862485
0.872314
0.830804
0.749977
0.656909
0.561767
0.443278
0.223666
0.374466
0.389204
0.40551
0.424714
0.449191
0.482225
0.527428
0.57744
0.632906
0.707072
0.782098
0.836357
0.838757
0.807353
0.742581
0.654572
0.559776
0.438523
0.218474
0.390083
0.403969
0.420366
0.439643
0.46165
0.486976
0.520938
0.567137
0.625887
0.696794
0.767586
0.814975
0.814167
0.789671
0.735322
0.651681
0.55774
0.434744
0.21444
0.393144
0.408766
0.425408
0.441657
0.458471
0.479818
0.509689
0.553408
0.610216
0.677564
0.744028
0.78818
0.790743
0.771733
0.727627
0.648917
0.556152
0.431978
0.211456
0.386514
0.402355
0.416795
0.430532
0.445435
0.464342
0.491823
0.531667
0.585374
0.649441
0.712607
0.756069
0.764037
0.750775
0.719694
0.646885
0.555178
0.430155
0.209362
0.369987
0.386105
0.399903
0.412619
0.42605
0.443102
0.467925
0.504449
0.554891
0.615796
0.676432
0.720201
0.733947
0.72603
0.70915
0.647384
0.554572
0.429181
0.207949
0.350942
0.366199
0.379198
0.3908
0.402746
0.417907
0.440277
0.473816
0.521137
0.579233
0.638174
0.682989
0.702292
0.70058
0.694073
0.64618
0.552842
0.428599
0.207109
0.330454
0.344376
0.35618
0.366512
0.376939
0.39021
0.410151
0.441034
0.485524
0.541299
0.599437
0.646292
0.67097
0.675298
0.674295
0.638493
0.549217
0.428553
0.207061
0.309485
0.321706
0.331974
0.340801
0.349606
0.360983
0.378645
0.406994
0.448858
0.502644
0.560519
0.609993
0.640121
0.649449
0.648946
0.625818
0.544727
0.429009
0.208519
0.288718
0.298981
0.307432
0.314537
0.321602
0.331065
0.346536
0.372338
0.411549
0.463296
0.520898
0.572877
0.6081
0.622608
0.621194
0.606411
0.541747
0.430601
0.211781
0.26865
0.276822
0.283285
0.288531
0.293793
0.301349
0.314628
0.337785
0.373899
0.422921
0.479798
0.533667
0.573122
0.592638
0.5939
0.581032
0.542501
0.435758
0.213868
0.24974
0.255745
0.260201
0.263579
0.267005
0.272571
0.28351
0.303815
0.336587
0.382332
0.436994
0.491649
0.534375
0.558108
0.563752
0.555461
0.52927
0.431672
0.212322
0.232377
0.236415
0.239025
0.240645
0.242265
0.245751
0.254093
0.271156
0.300125
0.342039
0.393739
0.447363
0.492383
0.519855
0.529249
0.524192
0.502757
0.410854
0.206418
0.217028
0.219414
0.220466
0.220564
0.220531
0.221959
0.22751
0.240896
0.265432
0.302809
0.350863
0.402695
0.448447
0.4794
0.492263
0.489313
0.468419
0.384695
0.1961
0.203977
0.20509
0.204952
0.203873
0.202488
0.202076
0.204877
0.214298
0.233755
0.265699
0.309218
0.358572
0.404513
0.438104
0.454605
0.453458
0.431687
0.357307
0.183921
0.193262
0.193483
0.192544
0.19068
0.188349
0.186503
0.186896
0.192408
0.206375
0.231937
0.269669
0.315424
0.36079
0.396556
0.416645
0.418181
0.395521
0.330569
0.17107
0.184682
0.184347
0.182952
0.180668
0.1778
0.175007
0.173554
0.175631
0.184199
0.202727
0.233229
0.273601
0.316819
0.353611
0.376812
0.382662
0.359336
0.30266
0.158567
0.177874
0.17724
0.175651
0.173226
0.170154
0.166848
0.164178
0.163595
0.167438
0.178972
0.201156
0.234042
0.27273
0.308483
0.333115
0.342472
0.320758
0.274463
0.146931
0.1724
0.171645
0.17003
0.167641
0.164588
0.161112
0.157752
0.155367
0.155579
0.160995
0.174725
0.198469
0.229872
0.261872
0.285665
0.295828
0.278614
0.246963
0.135669
0.167832
0.167063
0.165511
0.163244
0.160323
0.156891
0.153227
0.149801
0.147591
0.148374
0.154719
0.168982
0.190983
0.216099
0.236437
0.2455
0.233346
0.219669
0.124351
0.163795
0.163069
0.161619
0.159498
0.156739
0.153448
0.149729
0.145815
0.142226
0.140002
0.140888
0.147004
0.159367
0.175676
0.189972
0.195588
0.186632
0.185317
0.111542
0.159999
0.159338
0.157993
0.156009
0.153414
0.150273
0.14662
0.142553
0.138309
0.134417
0.131876
0.13217
0.136598
0.144603
0.152387
0.153825
0.143403
0.120379
0.089337
0.156229
0.155638
0.154384
0.152504
0.150051
0.147042
0.143493
0.139432
0.134949
0.130267
0.125867
0.12259
0.121463
0.12286
0.125165
0.124377
0.113895
0.0902331
0.0642847
0.152351
0.151822
0.150641
0.148844
0.146486
0.143577
0.140121
0.136122
0.131596
0.126608
0.121333
0.116141
0.111599
0.108199
0.105621
0.102074
0.0931616
0.0734976
0.0473771
0.148293
0.147809
0.146674
0.144939
0.142642
0.139798
0.136412
0.13248
0.127989
0.122929
0.117322
0.111262
0.104944
0.0986062
0.0922634
0.0852751
0.0754723
0.0587807
0.0368029
0.144042
0.143581
0.142467
0.140767
0.138503
0.135697
0.132359
0.128486
0.124054
0.119026
0.11336
0.107019
0.0999955
0.0922956
0.0838725
0.0744637
0.0631093
0.0477053
0.029807
0.139629
0.139164
0.138047
0.13635
0.134097
0.131312
0.128011
0.124191
0.11983
0.114883
0.109287
0.10296
0.0958119
0.0877338
0.0785877
0.0681503
0.0559452
0.0410351
0.0251457
0.135126
0.134615
0.133467
0.131745
0.129482
0.12671
0.123445
0.119685
0.115409
0.110574
0.105113
0.0989398
0.09194
0.0839717
0.0748517
0.0643402
0.0520792
0.0375292
0.0221382
0.130642
0.130044
0.12882
0.127038
0.124748
0.121985
0.118763
0.115078
0.110908
0.106212
0.100929
0.0949768
0.0882461
0.080595
0.0718362
0.0617154
0.0498805
0.0358066
0.0203101
0.126316
0.125588
0.124234
0.122356
0.120021
0.117263
0.114093
0.110499
0.106458
0.101927
0.0968521
0.0911578
0.084747
0.0774904
0.0692105
0.0596568
0.0484509
0.0349478
0.0192388
0.122315
0.121418
0.119883
0.117874
0.115475
0.112718
0.109602
0.106109
0.10221
0.0978614
0.0930116
0.0875929
0.0815182
0.0746715
0.0668895
0.0579271
0.0473841
0.0344866
0.0186056
0.118848
0.117753
0.116002
0.113841
0.111366
0.1086
0.10553
0.102131
0.0983674
0.0941967
0.0895683
0.0844193
0.0786697
0.0722125
0.0648942
0.0564767
0.0465422
0.034208
0.0182103
0.116129
0.11484
0.112885
0.110591
0.108051
0.10527
0.102228
0.098894
0.0952304
0.0911965
0.0867444
0.0818158
0.0763358
0.070203
0.0632703
0.0553025
0.0458703
0.0340168
0.0179337
0.114074
0.112886
0.110913
0.108595
0.106039
0.103256
0.100223
0.0969104
0.0932842
0.0893062
0.0849323
0.0801084
0.0747647
0.0688053
0.0620882
0.0543825
0.0452586
0.0337281
0.0176637
)
;

boundaryField
{
    leftWall
    {
        type            kqRWallFunction;
        value           nonuniform List<scalar> 
50
(
0.00282372
0.00568881
0.0077207
0.00915424
0.0102312
0.011226
0.0122412
0.0132387
0.0140981
0.0149509
0.0152399
0.0153365
0.0156297
0.0164648
0.0182105
0.0207664
0.0228311
0.0240626
0.0246604
0.0249377
0.0252222
0.025572
0.0259424
0.0262647
0.0265006
0.0266422
0.0266944
0.0266658
0.0265665
0.0264065
0.0261971
0.0259505
0.0256815
0.0254067
0.0251456
0.0249203
0.0247562
0.0246815
0.0247292
0.0249371
0.0253525
0.0260354
0.0270707
0.0285844
0.0307802
0.034005
0.0388813
0.0466367
0.0601923
0.088366
)
;
    }
    rightWall
    {
        type            kqRWallFunction;
        value           nonuniform List<scalar> 
50
(
0.0251251
0.0606384
0.0900637
0.112792
0.132156
0.149359
0.16504
0.179714
0.203209
0.222406
0.236775
0.245626
0.24843
0.245594
0.238657
0.230196
0.223666
0.218474
0.21444
0.211456
0.209362
0.207949
0.207109
0.207061
0.208519
0.211781
0.213868
0.212322
0.206418
0.1961
0.183921
0.17107
0.158567
0.146931
0.135669
0.124351
0.111542
0.089337
0.0642847
0.0473771
0.0368029
0.029807
0.0251457
0.0221382
0.0203101
0.0192388
0.0186056
0.0182103
0.0179337
0.0176637
)
;
    }
    lowerWall
    {
        type            kqRWallFunction;
        value           nonuniform List<scalar> 
62
(
0.00282372
0.00698127
0.0106983
0.0135774
0.0160694
0.0182651
0.020212
0.0219289
0.0234205
0.0246854
0.0257197
0.026517
0.0270696
0.0273716
0.0274213
0.0272137
0.0269103
0.0264136
0.0255357
0.0240488
0.0216361
0.0175433
0.0100269
0.0100269
0.0210809
0.0286212
0.0347539
0.0398939
0.0444471
0.0490279
0.0558715
0.0703978
0.06013
0.0528763
0.0536144
0.0334649
0.0549026
0.0639297
0.0670869
0.067139
0.0665962
0.0655267
0.0661784
0.0334649
0.0502048
0.0666338
0.0840152
0.102055
0.11878
0.128101
0.127482
0.124046
0.121611
0.120076
0.118086
0.114608
0.10959
0.101815
0.0903341
0.074227
0.0498811
0.0251251
)
;
    }
    atmosphere
    {
        type            inletOutlet;
        inletValue      uniform 0.1;
        value           nonuniform List<scalar> 
46
(
0.1
0.1
0.1
0.1
0.1
0.1
0.1
0.1
0.1
0.1
0.1
0.1
0.1
0.1
0.1
0.1
0.1
0.1
0.1
0.1
0.1
0.1
0.1
0.1
0.1
0.112342
0.113493
0.114074
0.112886
0.110913
0.108595
0.106039
0.103256
0.100223
0.0969104
0.0932842
0.0893062
0.0849323
0.0801084
0.0747647
0.0688053
0.0620882
0.0543825
0.0452586
0.0337281
0.0176637
)
;
    }
    defaultFaces
    {
        type            empty;
    }
}


// ************************************************************************* //
