/*--------------------------------*- C++ -*----------------------------------*\
  =========                 |
  \\      /  F ield         | OpenFOAM: The Open Source CFD Toolbox
   \\    /   O peration     | Website:  https://openfoam.org
    \\  /    A nd           | Version:  13
     \\/     M anipulation  |
\*---------------------------------------------------------------------------*/
FoamFile
{
    format      ascii;
    class       volScalarField;
    location    "0.4";
    object      nut;
}
// * * * * * * * * * * * * * * * * * * * * * * * * * * * * * * * * * * * * * //

dimensions      [0 2 -1 0 0 0 0];

internalField   nonuniform List<scalar> 
2268
(
3.54648e-05
5.57803e-05
6.90736e-05
7.78018e-05
8.46239e-05
9.02019e-05
9.48707e-05
9.88019e-05
0.000102089
0.000104787
0.000106931
0.000108541
0.000109628
0.0001102
0.000110268
0.000109829
0.000109263
0.000108258
0.000106409
0.000103165
9.76725e-05
8.77064e-05
6.59563e-05
0.0001062
0.000362755
0.000519782
0.000636704
0.000726408
0.000796892
0.00085298
0.000897467
0.000932018
0.000957728
0.000975424
0.000985831
0.000989714
0.000988043
0.000982062
0.000972711
0.000952721
0.000913474
0.000849536
0.000757977
0.000638863
0.000486061
0.000203222
0.000123823
0.0005211
0.0008448
0.001106
0.00131838
0.00149226
0.00163485
0.00175087
0.00184342
0.00191474
0.00196665
0.00200084
0.00201921
0.00202408
0.00201814
0.00200327
0.00196357
0.00188128
0.00173762
0.00152378
0.00124377
0.000887189
0.000236868
0.000134977
0.000598483
0.00104676
0.00143136
0.0017565
0.00203071
0.00226118
0.00245308
0.00261013
0.00273522
0.00283082
0.00289939
0.00294368
0.00296697
0.00297247
0.00296063
0.00290805
0.00278677
0.002567
0.0022357
0.00179844
0.00122898
0.000261018
0.000142856
0.000648833
0.00118877
0.00167094
0.00208991
0.0024512
0.00276083
0.00302362
0.00324335
0.00342311
0.00356574
0.00367414
0.00375154
0.00380144
0.00382634
0.00382343
0.00376194
0.0036049
0.00331561
0.0028785
0.0022954
0.0015153
0.000279648
0.000149847
0.000696369
0.0013088
0.00186537
0.00235832
0.00279102
0.00316805
0.00349344
0.00377059
0.00400251
0.00419211
0.00434243
0.00445668
0.0045377
0.00458602
0.00459475
0.00452633
0.00433723
0.00398735
0.00345889
0.00274399
0.00176126
0.000295208
0.000156671
0.000755875
0.00142727
0.00203829
0.00258696
0.00307585
0.00350821
0.00388708
0.00421522
0.00449531
0.00473012
0.0049225
0.00507503
0.00518893
0.00526168
0.00528253
0.00520873
0.00499286
0.00459365
0.00399098
0.00316295
0.00199215
0.000310204
0.000162971
0.000837456
0.00155074
0.00219941
0.00278858
0.00332057
0.00379752
0.00422144
0.00459435
0.00491848
0.00519627
0.00543004
0.00562108
0.00576784
0.00586393
0.00589627
0.00581909
0.00558381
0.00514965
0.00449357
0.00358047
0.00225537
0.000331825
0.000118019
0.00014517
0.000168424
0.000190394
0.00021247
0.000231769
0.000241013
0.000238783
0.00023325
0.000229134
0.000226818
0.000224926
0.00022264
0.000218596
0.000211395
0.000199566
0.000181044
0.000148174
0.000105084
0.000356625
0.00070382
0.00106285
0.00134174
0.00166436
0.00191705
0.00200883
0.00199345
0.00194774
0.0019233
0.00192291
0.00192849
0.00192184
0.00185634
0.00172912
0.00153891
0.00128708
0.000970334
0.000383007
0.000384429
0.00109996
0.00166807
0.00217407
0.00278335
0.00324398
0.00346396
0.00352041
0.00353872
0.00358707
0.00366459
0.00373398
0.0037543
0.0036602
0.00342776
0.00304706
0.00251923
0.00181152
0.00046755
0.000393186
0.00130784
0.00198202
0.0026481
0.00344811
0.00405445
0.00439427
0.00456342
0.00472282
0.00491454
0.00511935
0.00528627
0.00535263
0.0052533
0.00494798
0.00441526
0.00364511
0.00254155
0.000523371
0.0003939
0.00137621
0.00207433
0.0028542
0.00375408
0.0044019
0.00491257
0.00526222
0.0056187
0.00599496
0.00634696
0.00661736
0.00673615
0.00664121
0.00628336
0.00562934
0.00464727
0.00315966
0.000566603
0.00039238
0.00132134
0.00203848
0.00288675
0.00377505
0.00454081
0.00528626
0.00584128
0.00638763
0.00693637
0.00742181
0.00777956
0.00794444
0.00785521
0.00745656
0.00670234
0.0055308
0.00368025
0.000602411
0.000389348
0.0012315
0.00198639
0.00295038
0.00388307
0.00486716
0.00580216
0.00651483
0.00716861
0.00782437
0.00839779
0.00881474
0.0090116
0.00892429
0.00849079
0.0076502
0.00630608
0.00411927
0.000633283
0.000393307
0.00121567
0.00204558
0.00309803
0.00418618
0.00539655
0.00647974
0.00729467
0.00799555
0.00869302
0.00930477
0.00975154
0.00996395
0.00987235
0.00940632
0.00848825
0.00698505
0.0044907
0.000660858
0.00016807
0.00094708
0.00170977
0.00240278
0.00303959
0.00362408
0.0041579
0.0046421
0.005078
0.00546741
0.00581241
0.00611438
0.00637202
0.00657832
0.00671839
0.00676675
0.00668446
0.00643205
0.00597043
0.00526926
0.00429178
0.00291921
0.00101269
0.000172816
0.00103554
0.00185896
0.00260422
0.00329293
0.00393253
0.00452584
0.00507438
0.00557971
0.00604378
0.00646821
0.00685244
0.00719049
0.00746696
0.00765459
0.00772106
0.00763919
0.00738849
0.00694774
0.00628506
0.0053575
0.00411259
0.00256683
0.000174372
0.00105308
0.00192727
0.00272726
0.00347089
0.00416583
0.00481587
0.00542369
0.00599199
0.00652336
0.00701902
0.00747614
0.00788427
0.0082222
0.00845822
0.00855903
0.00850818
0.00829341
0.00790635
0.00734099
0.00658924
0.0056537
0.00463168
0.000174991
0.00102008
0.00192771
0.00278178
0.00358427
0.00433836
0.00504727
0.00571453
0.00634394
0.00693872
0.00749945
0.00802109
0.00848997
0.00888252
0.00916857
0.00931846
0.00932509
0.00918271
0.00889134
0.00845865
0.00790769
0.00729404
0.0067455
0.00017694
0.000963135
0.00189508
0.00280237
0.00366537
0.00448036
0.00524896
0.00597499
0.00666296
0.00731633
0.00793488
0.00851179
0.00903194
0.00947258
0.00980852
0.0100185
0.010099
0.0100519
0.00988386
0.00961305
0.00927585
0.0089355
0.00869182
0.000182165
0.000898995
0.00186455
0.00282883
0.00375271
0.00462712
0.00545258
0.00623305
0.00697332
0.00767674
0.00834242
0.00896269
0.009523
0.010004
0.0103871
0.0106615
0.0108222
0.0108776
0.0108392
0.0107304
0.0105882
0.0104637
0.0104199
0.000192869
0.000846065
0.0018716
0.00289914
0.0038828
0.00481171
0.00568701
0.00651314
0.00729483
0.00803507
0.00873287
0.00938116
0.00996856
0.0104807
0.0109051
0.0112377
0.0114801
0.0116326
0.0117144
0.0117515
0.0117704
0.0118061
0.0118951
0.00020496
0.00084168
0.00191656
0.00302066
0.00406715
0.00504721
0.00596501
0.00682649
0.00763668
0.00839834
0.00911194
0.00977261
0.0103729
0.0109078
0.0113686
0.0117515
0.0120653
0.0123075
0.012491
0.0126465
0.0127861
0.0129303
0.0130924
0.000214342
0.00106906
0.00209287
0.00318883
0.00426987
0.00529028
0.00624321
0.00713115
0.00795845
0.00872852
0.0094445
0.0101073
0.0107145
0.0112729
0.0117783
0.0122168
0.0126119
0.012922
0.0131532
0.0133935
0.0136014
0.013806
0.0140205
0.000219586
0.0012791
0.00234122
0.00345945
0.00456271
0.00560387
0.00657066
0.00746352
0.00828689
0.00904599
0.00974461
0.010386
0.0109777
0.0115238
0.0120259
0.012478
0.0128897
0.0132787
0.0136569
0.0140217
0.014228
0.0144552
0.0147094
0.000222
0.00138943
0.00259227
0.00377977
0.00491562
0.00597249
0.00694238
0.00782711
0.00863294
0.00936802
0.0100397
0.0106505
0.0112047
0.0117093
0.0121745
0.0126076
0.0130186
0.0134368
0.01389
0.0142798
0.0145976
0.0149212
0.0152309
0.000223385
0.00146635
0.00281543
0.00408609
0.00526075
0.0063318
0.00729963
0.00817002
0.0089521
0.00965676
0.0102942
0.0108717
0.011394
0.0118706
0.0123169
0.0127446
0.0131622
0.0135747
0.0139833
0.0143724
0.014759
0.0151434
0.0154654
0.000224844
0.00153147
0.0030052
0.00435312
0.00556567
0.00664939
0.00761287
0.00846669
0.00922347
0.00989712
0.010501
0.011046
0.0115416
0.0119998
0.0124334
0.0128537
0.0132676
0.0136748
0.0140677
0.0144433
0.0148131
0.0151673
0.0154681
0.000226501
0.00158673
0.00315895
0.00457174
0.0058177
0.00691221
0.0078705
0.00870781
0.00944039
0.0100853
0.010659
0.011176
0.011649
0.01209
0.0125106
0.0129196
0.0133214
0.0137145
0.0140928
0.0144547
0.0148016
0.0151144
0.0153763
0.000228213
0.00163307
0.00327909
0.00474333
0.00601667
0.00711969
0.00807251
0.00889448
0.00960521
0.0102247
0.010772
0.0112643
0.0117161
0.0121397
0.0125448
0.0129381
0.0133223
0.0136952
0.0140517
0.0143875
0.0146971
0.0149658
0.0151804
0.000229657
0.00167635
0.00337022
0.00487473
0.0061691
0.00727825
0.00822552
0.00903373
0.0097253
0.0103226
0.010847
0.0113171
0.0117486
0.0121536
0.0125408
0.0129151
0.0132778
0.0136261
0.0139549
0.0142578
0.0145267
0.0147497
0.0149178
0.000230705
0.00171374
0.00344644
0.00497483
0.00628367
0.00739693
0.00833864
0.00913485
0.00980995
0.0103883
0.0108926
0.0113428
0.0117549
0.0121411
0.0125091
0.0128628
0.0132025
0.0135248
0.013824
0.0140926
0.0143216
0.0145012
0.0146236
0.000231338
0.00174487
0.00350865
0.00505588
0.00637219
0.00748443
0.00842063
0.00920679
0.009868
0.0104304
0.0109175
0.01135
0.0117443
0.0121124
0.0124617
0.0127952
0.0131126
0.0134099
0.0136808
0.0139172
0.0141096
0.0142488
0.0143269
0.000231589
0.00177048
0.00355827
0.00511932
0.00644079
0.00755141
0.0084808
0.00925688
0.00990653
0.0104562
0.010929
0.0113464
0.011725
0.0120768
0.0124089
0.012724
0.0130211
0.013296
0.0135419
0.0137499
0.0139103
0.014013
0.0140493
0.000231495
0.00179109
0.00359663
0.00516702
0.00649154
0.0076005
0.00852462
0.00929273
0.00993259
0.0104709
0.0109321
0.0113371
0.0117027
0.0120407
0.0123578
0.0126568
0.0129366
0.0131924
0.0134172
0.0136015
0.0137347
0.0138058
0.0138052
0.000231099
0.00180705
0.00362461
0.00520033
0.00652605
0.00763341
0.00855377
0.00931632
0.00994913
0.0104792
0.0109311
0.0113261
0.0116809
0.0120072
0.012312
0.0125977
0.012863
0.0131032
0.0133109
0.0134761
0.0135879
0.0136346
0.0136055
0.00023044
0.00181855
0.00364277
0.00522013
0.00654533
0.0076511
0.00856901
0.00932821
0.00995669
0.0104814
0.0109269
0.0113147
0.0116612
0.0119785
0.0122733
0.0125483
0.0128022
0.0130302
0.0132249
0.0133764
0.0134731
0.0135028
0.0134537
0.000229566
0.00182579
0.00365153
0.00522705
0.00655006
0.00765405
0.00857048
0.00932812
0.00995459
0.0104765
0.0109184
0.0113014
0.0116423
0.0119529
0.0122403
0.0125071
0.0127523
0.0129713
0.0131569
0.0132993
0.0133868
0.0134068
0.0133465
0.000228526
0.00182901
0.00365137
0.00522178
0.0065409
0.00764265
0.00855813
0.00931545
0.00994164
0.0104628
0.0109032
0.0112837
0.0116212
0.0119273
0.0122094
0.0124702
0.0127091
0.0129218
0.0131014
0.0132387
0.0133221
0.0133387
0.0132755
0.000227382
0.00182854
0.00364296
0.00520518
0.00651869
0.00761749
0.00853201
0.00928962
0.00991659
0.0104384
0.0108789
0.0112586
0.0115943
0.0118977
0.0121762
0.0124329
0.0126673
0.0128758
0.013052
0.0131872
0.0132704
0.013289
0.0132298
0.000226207
0.00182486
0.00362723
0.00517852
0.00648473
0.00757956
0.00849262
0.00925043
0.0098785
0.0104016
0.0108431
0.0112232
0.0115584
0.0118604
0.0121367
0.0123907
0.0126222
0.012828
0.0130026
0.0131378
0.0132236
0.013248
0.0131979
0.000225088
0.00181855
0.00360539
0.00514347
0.00644085
0.00753049
0.00844105
0.00919828
0.00982697
0.0103513
0.010794
0.0111751
0.0115104
0.011812
0.0120871
0.0123394
0.0125691
0.0127735
0.0129478
0.0130846
0.0131748
0.0132073
0.0131699
0.000224124
0.0018103
0.00357894
0.00510222
0.00638954
0.00747263
0.00837918
0.00913429
0.0097623
0.0102869
0.0107304
0.0111122
0.0114481
0.0117496
0.0120242
0.0122756
0.0125044
0.0127083
0.0128832
0.0130225
0.0131182
0.0131602
0.0131374
0.000223431
0.00180094
0.00354974
0.00505752
0.00633399
0.00740916
0.00830972
0.00906045
0.0096856
0.0102087
0.0106516
0.0110334
0.0113694
0.011671
0.0119454
0.0121965
0.012425
0.0126292
0.0128054
0.0129479
0.0130495
0.0131015
0.0130939
0.00022314
0.00179138
0.00352
0.00501273
0.00627822
0.00734416
0.00823633
0.00897967
0.00959883
0.0101176
0.0105577
0.0109379
0.0112731
0.0115743
0.0118486
0.0120997
0.0123284
0.0125335
0.0127114
0.0128575
0.0129654
0.0130273
0.0130346
0.000223398
0.00178269
0.0034924
0.00497195
0.00622713
0.00728265
0.00816363
0.00889576
0.00950484
0.0100154
0.0104496
0.0108258
0.0111585
0.0114583
0.011732
0.0119831
0.0122124
0.0124187
0.0125991
0.0127491
0.0128633
0.0129349
0.0129563
0.000224373
0.00177613
0.00347025
0.00494018
0.00618662
0.00723065
0.00809714
0.00881343
0.00940732
0.00990486
0.0103288
0.0106975
0.0110253
0.0113221
0.0115942
0.0118449
0.0120748
0.0122828
0.012466
0.0126204
0.0127412
0.0128222
0.0128568
0.000226266
0.00177329
0.0034577
0.00492358
0.00616375
0.00719516
0.00804322
0.0087381
0.00931066
0.0097892
0.0101976
0.0105545
0.0108739
0.0111652
0.011434
0.0116834
0.0119136
0.0121233
0.0123099
0.0124693
0.0125971
0.0126876
0.0127349
0.000229319
0.00177618
0.00346004
0.00492978
0.0061669
0.00718414
0.00800885
0.00867564
0.0092197
0.00967236
0.010059
0.0103989
0.0107055
0.0109878
0.0112509
0.0114972
0.0117267
0.011938
0.0121281
0.0122932
0.0124287
0.0125294
0.0125896
0.000233854
0.00178744
0.00348422
0.00496842
0.00620608
0.00720642
0.00800126
0.00863192
0.00913931
0.00955846
0.00991658
0.0102333
0.010522
0.0107909
0.0110448
0.0112853
0.0115124
0.0117242
0.0119178
0.0120891
0.0122334
0.0123455
0.0124197
0.000240321
0.00181067
0.00353976
0.00505205
0.0062932
0.00727148
0.00802742
0.00861216
0.0090738
0.00945139
0.00977383
0.0100611
0.0103261
0.0105766
0.0108166
0.0110476
0.0112692
0.0114794
0.0116753
0.0118527
0.012007
0.0121325
0.0122232
0.000249403
0.0018513
0.00364056
0.00519766
0.0064426
0.00738896
0.00809315
0.00862011
0.00902622
0.00935426
0.0096342
0.00988575
0.0101212
0.0103475
0.0105683
0.0107847
0.0109962
0.0112011
0.0113966
0.011579
0.0117437
0.0118849
0.0119961
0.000262171
0.00191856
0.00380892
0.00542959
0.00667146
0.00756768
0.00820187
0.00865699
0.00899766
0.00926896
0.0095005
0.00971083
0.00991109
0.0101074
0.0103029
0.0104984
0.0106936
0.0108873
0.0110774
0.0112612
0.0114349
0.0115936
0.0117306
0.000280382
0.00203068
0.00408474
0.00578447
0.00699955
0.00781342
0.00835261
0.00872033
0.00898665
0.0091958
0.00937476
0.00953968
0.00969993
0.00986061
0.0100242
0.0101915
0.0103626
0.0105368
0.0107132
0.0108909
0.0110684
0.0112434
0.0114113
0.00030715
0.00223048
0.00454857
0.00631904
0.00744603
0.00812427
0.00853733
0.00880296
0.008989
0.00913359
0.0092583
0.00937543
0.00949201
0.00961187
0.00973694
0.00986802
0.0100054
0.0101491
0.0102997
0.0104582
0.0106269
0.0108092
0.0110084
0.000349137
0.00264668
0.00538688
0.00711675
0.008017
0.00848217
0.00873802
0.00889287
0.00899838
0.00908028
0.00915207
0.00922121
0.00929194
0.00936667
0.00944673
0.00953281
0.00962536
0.00972499
0.00983293
0.00995191
0.0100875
0.0102509
0.0104622
0.000423663
0.00392096
0.00709561
0.00825726
0.00866973
0.00884154
0.00892622
0.00897509
0.00900807
0.00903402
0.00905737
0.00908053
0.00910491
0.00913137
0.00916045
0.00919252
0.00922792
0.00926709
0.00931097
0.00936154
0.00942359
0.00950921
0.00965165
0.000376255
0.000348107
0.000326965
0.000330425
0.00186555
0.00169816
0.00170427
0.00186217
0.00421934
0.00409433
0.00414323
0.00429834
0.00658094
0.00655314
0.0066109
0.00674607
0.00867602
0.00871125
0.00879227
0.00891959
0.0104907
0.0105559
0.010647
0.0107649
0.0120057
0.0120871
0.0121824
0.0122919
0.0132317
0.0133241
0.0134209
0.013522
0.0141815
0.0142821
0.0143797
0.0144739
0.0148906
0.0149998
0.0150984
0.0151853
0.0154249
0.0155342
0.0156256
0.0156982
0.0156587
0.0157641
0.0158478
0.01591
0.0156475
0.0157439
0.0158219
0.0158797
0.0155208
0.0155919
0.0156461
0.0156844
0.01529
0.0153399
0.0153746
0.0153947
0.0149931
0.0150223
0.015037
0.0150376
0.0146634
0.0146712
0.0146646
0.0146435
0.0143304
0.0143162
0.0142868
0.0142422
0.0140168
0.0139805
0.0139277
0.0138584
0.0137394
0.0136813
0.0136046
0.013509
0.0135123
0.0134348
0.0133365
0.013217
0.0133404
0.0132481
0.0131331
0.0129945
0.0132216
0.0131201
0.0129943
0.0128428
0.0131474
0.0130426
0.0129124
0.0127552
0.0131059
0.0130033
0.012875
0.0127189
0.0130842
0.0129884
0.0128672
0.0127184
0.0130704
0.0129846
0.0128744
0.0127377
0.0130543
0.0129804
0.0128836
0.0127619
0.013028
0.0129667
0.0128843
0.0127789
0.0129855
0.0129366
0.0128685
0.0127793
0.0129229
0.0128856
0.0128308
0.012757
0.0128378
0.0128111
0.0127685
0.0127086
0.0127292
0.0127121
0.0126805
0.0126329
0.0125966
0.0125886
0.0125669
0.0125305
0.0124399
0.012441
0.0124291
0.0124032
0.0122585
0.0122696
0.0122683
0.0122533
0.0120502
0.0120738
0.0120852
0.0120828
0.0118098
0.0118504
0.0118789
0.0118934
0.0115255
0.0115908
0.0116449
0.0116842
0.0111707
0.0112742
0.0113707
0.0114508
0.0106829
0.0108489
0.0110309
0.0111868
0.00988065
0.0101393
0.0106042
0.0109139
0.000829004
0.00151561
0.00245014
0.00358011
0.00492595
0.00631647
0.00754872
0.0085254
0.00932737
0.0100464
0.0106596
0.0111082
0.0113158
0.0112034
0.0106847
0.00965301
0.00791663
0.00498126
0.000702723
0.00233713
0.00314054
0.00416429
0.00537442
0.00670327
0.00802894
0.00922863
0.0102387
0.0110525
0.0117155
0.0122426
0.0126121
0.0127494
0.0125638
0.0119466
0.0107567
0.00875181
0.00538715
0.00073537
0.00472266
0.00545381
0.00638019
0.00745765
0.00861246
0.00977935
0.0108827
0.0118367
0.0125901
0.0131666
0.0135932
0.0138616
0.0139091
0.0136382
0.012918
0.0115779
0.00934235
0.00565304
0.000759223
0.00709225
0.0077173
0.00849549
0.00939373
0.0103678
0.0113673
0.0123358
0.013191
0.0138701
0.0143657
0.0147031
0.0148758
0.0148317
0.0144672
0.0136341
0.0121435
0.00970664
0.00578419
0.000774022
0.00920664
0.00971986
0.0103568
0.0110887
0.0118897
0.0127273
0.0135566
0.0143054
0.014905
0.0153298
0.0155935
0.0156899
0.0155684
0.015097
0.0141239
0.0124714
0.00985646
0.00578623
0.000779208
0.0110072
0.0114242
0.0119353
0.0125231
0.0131731
0.0138674
0.0145701
0.0152165
0.0157408
0.016104
0.0163138
0.0163744
0.0162161
0.0156003
0.0144248
0.0125886
0.00981765
0.00568022
0.000775104
0.012499
0.0128359
0.0132405
0.0137063
0.0142297
0.014804
0.0154011
0.0159673
0.0164472
0.0167788
0.016966
0.0170324
0.0169272
0.0160255
0.0145682
0.0125423
0.00964532
0.00551068
0.000763575
0.0136994
0.0139703
0.0142872
0.0146532
0.0150748
0.0155584
0.0160841
0.0166087
0.017129
0.0174844
0.0176548
0.0176477
0.0172574
0.0161748
0.0145524
0.0123803
0.00940018
0.00532459
0.000748484
0.0146281
0.0148464
0.0150929
0.0153794
0.0157232
0.0161554
0.016665
0.0171487
0.0175912
0.0179234
0.0180204
0.0178072
0.017101
0.0160031
0.0143769
0.0121317
0.00910667
0.00509913
0.000736149
0.015315
0.0154858
0.0156761
0.0159016
0.0161838
0.0165435
0.0169808
0.0173846
0.017713
0.0179753
0.0180458
0.0177734
0.0170025
0.0158476
0.0141738
0.0118726
0.00883415
0.00490243
0.000725726
0.0157924
0.0159142
0.0160563
0.0162236
0.0164174
0.0166473
0.0169618
0.0173182
0.0176513
0.0179017
0.0179609
0.0176673
0.0168797
0.0156896
0.0139799
0.0116577
0.00863026
0.00476532
0.000717139
0.0159875
0.0160864
0.0161856
0.0162735
0.0163697
0.0165207
0.0167567
0.0170705
0.0173905
0.0176397
0.0177036
0.0174255
0.0166795
0.0155035
0.0138016
0.0114983
0.00850461
0.00469172
0.000710473
0.0159514
0.0160184
0.0160581
0.0160779
0.0161092
0.0161949
0.0163738
0.0166395
0.0169435
0.0171999
0.0172862
0.0170525
0.01638
0.0152722
0.0136403
0.0113791
0.00843345
0.00466566
0.000705646
0.0157323
0.0157653
0.015753
0.0157143
0.0156839
0.0157092
0.0158322
0.0160553
0.0163439
0.0166118
0.0167331
0.0165611
0.0159813
0.0149675
0.0134849
0.0112952
0.00839448
0.00467525
0.000702424
0.0154136
0.0153983
0.0153295
0.0152278
0.0151319
0.0150935
0.0151594
0.015341
0.0156146
0.0158981
0.0160648
0.0159681
0.0154927
0.0145912
0.0132488
0.0111911
0.0083681
0.00471565
0.000700456
0.0150237
0.0149519
0.0148196
0.0146497
0.0144829
0.0143742
0.0143756
0.0145132
0.0147703
0.0150723
0.0152938
0.0152858
0.0149253
0.0141478
0.0129308
0.0110315
0.00832617
0.0047771
0.000699656
0.0145924
0.0144563
0.0142537
0.0140089
0.0137634
0.0135747
0.013502
0.0135854
0.0138201
0.0141401
0.014422
0.014513
0.0142791
0.013635
0.0125392
0.0108363
0.00826606
0.00483217
0.000700058
0.0141502
0.0139423
0.0136623
0.0133344
0.0129998
0.0127176
0.0125552
0.0125692
0.0127697
0.0131021
0.0134448
0.0136391
0.0135397
0.0130451
0.0120869
0.0105853
0.00822328
0.00487057
0.000706076
0.0137233
0.0134376
0.0130735
0.0126536
0.012218
0.0118268
0.0115554
0.0114774
0.0116255
0.0119596
0.0123581
0.0126533
0.0126889
0.0123512
0.0115611
0.0102433
0.00820512
0.00497617
0.000713151
0.013331
0.012973
0.0125239
0.0120055
0.0114562
0.0109374
0.010534
0.0103396
0.0104103
0.0107237
0.011164
0.0115542
0.0117188
0.0115331
0.0109141
0.0097824
0.0079755
0.00492268
0.000714408
0.0130013
0.012576
0.0120433
0.011423
0.0107516
0.0100914
0.00953713
0.00920386
0.00917044
0.0094344
0.00988913
0.0103554
0.010642
0.0106003
0.0101386
0.00916953
0.00753798
0.004686
0.000709613
0.012748
0.0122649
0.0116564
0.0109393
0.0101472
0.00934308
0.00862945
0.0081401
0.00797545
0.00815527
0.00858853
0.00909866
0.00948619
0.00958238
0.00926864
0.00845038
0.00697543
0.00436695
0.00069452
0.012575
0.0120491
0.0113805
0.0105826
0.00968577
0.00875141
0.00788526
0.00723171
0.00691013
0.00696595
0.00733248
0.00784468
0.00829863
0.00851167
0.00834421
0.00767473
0.00635846
0.00401817
0.000673747
0.0124772
0.0119276
0.011222
0.01037
0.00939774
0.00836251
0.00736632
0.00655233
0.00605415
0.00594492
0.00619175
0.00665366
0.00713021
0.00742644
0.00738597
0.00687419
0.00573597
0.00367649
0.000649469
0.0124421
0.0118902
0.0111744
0.0103008
0.00929051
0.0081931
0.00709992
0.00614194
0.00545958
0.00515165
0.00522501
0.00557584
0.00601993
0.00635522
0.00641088
0.00604826
0.00508251
0.00330618
0.000623994
0.012453
0.0119188
0.0112189
0.010356
0.00934559
0.00822699
0.00707376
0.00599991
0.00514226
0.00461851
0.00447494
0.00465369
0.0050021
0.00532154
0.00542697
0.0051747
0.00436974
0.00290824
0.000599631
0.0124917
0.0119911
0.0113286
0.0105033
0.00952479
0.00842168
0.00724689
0.00609487
0.00508847
0.00435358
0.00396984
0.0039271
0.00411625
0.00435933
0.00446341
0.00427087
0.00360567
0.00248737
0.000575922
0.0125407
0.0120843
0.0114738
0.0107053
0.00978278
0.00872335
0.00756459
0.00637781
0.00526462
0.00434615
0.00372452
0.00343336
0.00341188
0.00351701
0.00356621
0.00339125
0.00283511
0.00205213
0.00055171
0.0125847
0.012178
0.0116272
0.0109264
0.0100755
0.00908046
0.00796927
0.00679092
0.00562239
0.00456801
0.00373714
0.00319884
0.00294101
0.00286329
0.00280756
0.00260779
0.00213772
0.00159835
0.000544749
0.0126123
0.0122559
0.0117668
0.0111374
0.0103638
0.0094479
0.00840727
0.00727399
0.00610195
0.00497176
0.0039834
0.00322627
0.00273422
0.00245747
0.00227406
0.00203087
0.00160263
0.00102809
0.000500759
0.0126157
0.0123071
0.0118773
0.0113182
0.0106221
0.00979073
0.00883364
0.00777096
0.00663837
0.00549264
0.00441296
0.00348849
0.0027854
0.00230797
0.00198637
0.00170344
0.0013314
0.000839693
0.000424553
0.0125907
0.0123253
0.0119494
0.0114546
0.0108331
0.010085
0.00921519
0.00823624
0.00717141
0.0060585
0.00495362
0.00392956
0.00306063
0.00239146
0.00190852
0.00154291
0.00119374
0.000780766
0.000358246
0.0125357
0.0123083
0.01198
0.0115419
0.0109883
0.0103174
0.00953145
0.00863867
0.00765461
0.00660443
0.00552572
0.00447043
0.00350124
0.00267642
0.00202426
0.00152569
0.00111861
0.000723176
0.000313137
0.0124518
0.0122572
0.0119693
0.0115805
0.011086
0.0104834
0.00977361
0.00896202
0.00805971
0.00708425
0.00606121
0.00502575
0.00402309
0.00310414
0.00231263
0.00166702
0.00114787
0.000702993
0.000280055
0.0123415
0.0121752
0.0119213
0.0115741
0.0111297
0.0105857
0.00994214
0.00920278
0.00837582
0.00747431
0.00651674
0.00552759
0.004538
0.00358518
0.00270839
0.00193945
0.00128961
0.000738834
0.00025591
0.0122084
0.0120678
0.0118426
0.0115298
0.0111268
0.0106317
0.0100441
0.00936671
0.00860544
0.00777037
0.00687559
0.00593928
0.00498357
0.00403441
0.00312037
0.00226933
0.0015013
0.000817239
0.000238508
0.012057
0.0119412
0.0117411
0.0114566
0.0110873
0.0106322
0.0100911
0.00946551
0.00875972
0.00798128
0.00714117
0.00625342
0.00533462
0.0044032
0.00347858
0.0025794
0.00172054
0.000909547
0.000226918
0.0118921
0.0118034
0.0116267
0.0113658
0.0110235
0.0106006
0.0100973
0.00951436
0.00885445
0.00812302
0.00732834
0.0064813
0.00559462
0.0046819
0.00375617
0.00282836
0.00190524
0.000993147
0.000219761
0.0117185
0.0116636
0.0115106
0.0112701
0.0109495
0.0105522
0.010079
0.00953028
0.00890753
0.00821424
0.00745637
0.0066421
0.00578116
0.00488371
0.00395872
0.00301201
0.00204457
0.00106025
0.000215462
0.0115419
0.0115323
0.011405
0.011183
0.0108802
0.0105028
0.0100528
0.00953065
0.00893685
0.00827343
0.00754439
0.00675565
0.0059145
0.00502846
0.00410379
0.00314337
0.00214502
0.00111079
0.000212792
0.0113727
0.0114218
0.0113224
0.0111172
0.0108286
0.0104661
0.0100331
0.00953012
0.00895718
0.00831532
0.00760712
0.00683679
0.00600968
0.00513138
0.00420614
0.00323493
0.00221388
0.00114513
0.000210954
0.011239
0.0113496
0.0112741
0.0110816
0.0108026
0.0104495
0.0100267
0.00953485
0.00897398
0.00834457
0.00764839
0.00688866
0.00606958
0.00519545
0.00426921
0.00329045
0.00225414
0.00116296
0.000209215
)
;

boundaryField
{
    leftWall
    {
        type            nutkWallFunction;
        Cmu             0.09;
        kappa           0.41;
        E               9.8;
        value           nonuniform List<scalar> 
50
(
3.89331e-06
1.06002e-05
1.21806e-05
1.31623e-05
1.38459e-05
1.45081e-05
1.66193e-05
1.88235e-05
1.93793e-05
1.99127e-05
2.00896e-05
2.01483e-05
2.03253e-05
2.08329e-05
1.87207e-05
2.05909e-05
2.2008e-05
2.28188e-05
2.32039e-05
2.33807e-05
2.3561e-05
2.37811e-05
2.40122e-05
2.42119e-05
2.43571e-05
2.44439e-05
2.44759e-05
2.44584e-05
2.43976e-05
2.42993e-05
2.41701e-05
2.40173e-05
2.38496e-05
2.36772e-05
2.35126e-05
2.33696e-05
2.32651e-05
2.32174e-05
2.32478e-05
2.33803e-05
2.36431e-05
2.407e-05
2.47051e-05
2.56094e-05
2.68742e-05
2.86423e-05
3.1144e-05
3.4781e-05
4.03936e-05
5.0108e-05
)
;
    }
    rightWall
    {
        type            nutkWallFunction;
        Cmu             0.09;
        kappa           0.41;
        E               9.8;
        value           nonuniform List<scalar> 
50
(
1.26141e-05
4.16847e-05
4.99188e-05
5.53005e-05
5.94195e-05
6.28197e-05
6.57389e-05
6.83364e-05
7.22648e-05
7.5294e-05
7.7469e-05
7.87732e-05
7.9181e-05
7.87686e-05
7.77486e-05
7.64824e-05
7.54877e-05
7.46855e-05
7.4055e-05
7.35845e-05
7.32521e-05
7.30268e-05
7.28925e-05
7.28848e-05
7.31179e-05
7.36388e-05
7.39689e-05
7.37288e-05
7.2888e-05
7.12526e-05
6.91138e-05
6.68325e-05
6.45637e-05
6.23633e-05
6.0141e-05
5.78994e-05
6.35602e-05
5.65005e-05
4.72198e-05
3.97278e-05
3.42385e-05
3.00961e-05
2.70203e-05
2.48604e-05
2.34651e-05
2.26141e-05
2.20984e-05
2.17714e-05
2.15402e-05
2.13125e-05
)
;
    }
    lowerWall
    {
        type            nutkWallFunction;
        Cmu             0.09;
        kappa           0.41;
        E               9.8;
        value           nonuniform List<scalar> 
62
(
3.89331e-06
5.88253e-06
7.14389e-06
7.96198e-06
8.59632e-06
9.112e-06
9.54165e-06
9.90218e-06
1.02031e-05
1.04502e-05
1.06472e-05
1.07961e-05
1.08979e-05
1.0953e-05
1.09621e-05
1.09242e-05
1.08687e-05
1.07769e-05
1.06125e-05
1.03267e-05
9.84182e-06
8.94641e-06
6.93641e-06
6.93641e-06
1.92468e-05
2.21267e-05
2.41761e-05
2.57472e-05
2.70498e-05
2.82892e-05
3.00295e-05
3.35351e-05
3.12032e-05
2.94277e-05
2.96318e-05
1.44279e-05
3.98232e-05
4.26859e-05
4.36343e-05
4.36497e-05
4.34885e-05
4.31688e-05
4.33639e-05
1.44279e-05
1.74288e-05
1.98704e-05
2.21133e-05
2.41843e-05
2.59306e-05
2.68453e-05
2.67857e-05
2.6452e-05
2.62125e-05
2.606e-05
2.58609e-05
2.55083e-05
2.49892e-05
2.41584e-05
2.28646e-05
2.08857e-05
1.73803e-05
1.26141e-05
)
;
    }
    atmosphere
    {
        type            calculated;
        value           nonuniform List<scalar> 
46
(
0.009
0.009
0.009
0.009
0.009
0.009
0.009
0.009
0.009
0.009
0.009
0.009
0.009
0.009
0.009
0.009
0.009
0.009
0.009
0.009
0.009
0.009
0.009
0.009
0.009
0.0106042
0.0109139
0.011239
0.0113496
0.0112741
0.0110816
0.0108026
0.0104495
0.0100267
0.00953485
0.00897398
0.00834457
0.00764839
0.00688866
0.00606958
0.00519545
0.00426921
0.00329045
0.00225414
0.00116296
0.000209215
)
;
    }
    defaultFaces
    {
        type            empty;
    }
}


// ************************************************************************* //
