/*--------------------------------*- C++ -*----------------------------------*\
  =========                 |
  \\      /  F ield         | OpenFOAM: The Open Source CFD Toolbox
   \\    /   O peration     | Website:  https://openfoam.org
    \\  /    A nd           | Version:  13
     \\/     M anipulation  |
\*---------------------------------------------------------------------------*/
FoamFile
{
    format      ascii;
    class       volScalarField;
    location    "0.4";
    object      p_rgh;
}
// * * * * * * * * * * * * * * * * * * * * * * * * * * * * * * * * * * * * * //

dimensions      [1 -1 -2 0 0 0 0];

internalField   nonuniform List<scalar> 
2268
(
5808.22
5844.04
5904.46
5963.6
6008.37
6040.58
6064.27
6083.01
6099.85
6118.31
6143.07
6180.46
6238.55
6327.03
6456.85
6639.56
6885.6
7209.44
7620.37
8116.11
8661.38
9151.99
9522.24
5803.65
5825.41
5866.83
5912.13
5947.88
5974.6
5995.22
6012.63
6029.72
6049.97
6078.14
6120.69
6185.84
6283.45
6424.59
6620.49
6885.94
7229.41
7663.31
8182.74
8748.18
9241.69
9598.75
5798.68
5819.76
5841.78
5869.08
5891.38
5908.78
5923.25
5937.03
5952.72
5973.74
6004.92
6052.88
6126.08
6234.59
6389.75
6603.55
6886.09
7249.51
7702.01
8234.84
8804.42
9288.53
9664.27
5787.79
5817.01
5822.77
5833.39
5841.67
5848.45
5855.42
5864.3
5877.38
5897.96
5930.99
5983.4
6063.94
6183.02
6352.1
6582.11
6881.08
7258.34
7719.56
8256.03
8823.87
9303.78
9723.5
5767.07
5807.24
5801.91
5800.55
5797.28
5794.85
5795.12
5799.41
5809.66
5828.94
5862.22
5916.72
6001.63
6128.07
6308.73
6554.89
6869.83
7257.46
7717.98
8251.18
8820.36
9306.57
9770.94
5447.88
5572.44
5599.34
5609.52
5608.07
5608.5
5611.56
5616.01
5622.09
5632.86
5656.16
5705.46
5798.09
5950.57
6182.07
6493.16
6821.62
7234.74
7699.64
8229.42
8807.26
9309.18
9800.46
2145.81
2392.2
2485.05
2529.09
2545.88
2563.91
2582.82
2597.09
2604.83
2608.46
2620.23
2665.27
2774.07
2990.33
3394.41
4124.12
5332.36
6904.17
7635.26
8185.46
8787.81
9311.76
9802.15
1259.93
1270.7
1273.7
1279.83
1285.99
1292.43
1299.76
1308.51
1319.17
1332.26
1348.26
1367.77
1391.86
1422.3
1460.98
1537.45
1820.06
2994.64
6348.5
8099.13
8757.7
9280.19
9714.68
1574.13
1536.47
1513.77
1497.59
1487.51
1477.85
1458.72
1408.89
1336.14
1265.25
1209.24
1170.89
1149.32
1144.6
1155.57
1180.44
1215.46
1240.96
1257.28
1577.76
1538.57
1512.51
1490.47
1473.29
1457.34
1436.22
1389.21
1320.99
1253.89
1200.95
1165.37
1147.26
1145.82
1160.27
1188.11
1224.87
1246.42
1257.39
1578.87
1542.9
1513.11
1481.3
1464.64
1451.62
1428.54
1371.8
1304.79
1241.69
1191.93
1159.32
1144.3
1146.1
1163.59
1193.19
1229.88
1250.05
1262.96
1581.71
1545.95
1469.34
1418.83
1411.38
1408.54
1413.85
1374.58
1291.12
1228.58
1181.49
1151.38
1139
1143.31
1162.72
1193.06
1229.1
1253.85
1271.28
1589.4
1558.31
1426.32
1409.88
1408.38
1403.7
1380.77
1339.87
1288.36
1214.58
1168.81
1140.96
1130.81
1137
1157.55
1188.15
1223.81
1252.31
1288.8
1602.15
1553.51
1430.44
1409.65
1408.7
1407.23
1391.97
1304.96
1280.61
1197.73
1152.71
1127.46
1119.56
1127.37
1148.7
1179.39
1215.03
1246.53
1294.77
1618.01
1555.22
1427.22
1409.18
1411.21
1942.59
1711.68
1375.05
1250.36
1170.75
1131.69
1110.42
1105.21
1114.64
1136.58
1167.31
1203.14
1238.1
1294.68
1625.39
1600.71
1485.41
1409.66
2503.08
4081.84
3503.58
1466.39
1187.73
1132.22
1104.96
1089.7
1087.88
1099.07
1121.63
1152.45
1188.65
1227.75
1290.27
1254.7
1264.13
1271.85
1280.17
1288.79
1297.66
1307
1317.05
1328.12
1340.54
1354.69
1371.02
1390.08
1412.53
1439.23
1471.3
1511.99
1560.09
1919.67
4490.22
8415.88
9127.29
9080.52
1244.04
1250.65
1257.33
1264.62
1272.39
1280.69
1289.66
1299.52
1310.55
1323.05
1337.39
1353.97
1373.27
1395.82
1421.93
1450.4
1478.69
1501.91
1514.44
1491.98
3058.04
7508.31
9824.26
1231.45
1237.44
1243.73
1250.88
1258.62
1266.97
1276.06
1286.04
1297.11
1309.54
1323.58
1339.49
1357.61
1378.28
1401.47
1426.06
1448.78
1464.26
1468.35
1454.56
1390.54
1839.49
4124.59
1215.66
1222.31
1228.51
1235.96
1244.11
1252.92
1262.47
1272.85
1284.19
1296.63
1310.32
1325.33
1341.84
1360.09
1380.12
1400.95
1419.58
1431.17
1430.59
1412.81
1371.42
1296.23
1183.83
1196.13
1204.58
1210.74
1218.62
1227.19
1236.42
1246.37
1257.1
1268.68
1281.22
1294.72
1308.94
1323.87
1339.97
1357.75
1376.94
1394.16
1404.52
1404.28
1389.28
1357.13
1307.88
1246.7
768.186
847.976
918.292
985.526
1047.78
1103.5
1152.47
1194.65
1229.68
1258.49
1280.57
1294.57
1306.3
1318.79
1333.6
1351.97
1371.13
1381.95
1384.52
1376.05
1356.42
1326.11
1288.07
5.87398
15.1374
46.0241
86.1221
135.635
194.6
263.856
344.463
437.735
548.895
686.346
827.322
943.418
1048.42
1174.89
1306.43
1357.75
1362.43
1367.49
1372.9
1368.15
1357.46
1333.81
5.99059
6.0491
5.9837
5.94658
5.90855
5.88824
5.88276
5.88239
5.88155
5.87322
5.85238
5.81481
25.9252
70.9791
152.054
407.687
893.799
1102.8
1070.38
868.888
857.571
862.197
844.128
5.97825
5.9958
5.99053
5.99233
5.99616
6.00015
6.00275
6.00259
5.99947
5.9948
5.99287
5.98915
5.93952
5.78731
5.66295
5.53147
5.29212
11.7989
263.06
639.807
726.124
747.529
747.655
5.96055
5.96643
5.96468
5.96085
5.95818
5.95711
5.95653
5.95508
5.95212
5.94745
5.94496
5.94308
5.94286
5.93102
6.07079
6.10503
5.9726
5.69948
5.191
4.3444
50.9865
262.741
374.981
5.94315
5.94502
5.94342
5.93882
5.93384
5.92995
5.92681
5.92337
5.91873
5.91232
5.90327
5.89567
5.87621
5.85426
5.87312
5.98826
5.83298
5.74277
5.72712
5.55741
5.24164
4.83201
4.77415
5.92558
5.926
5.92516
5.92196
5.91759
5.91316
5.90872
5.90366
5.89718
5.88848
5.87677
5.86084
5.84156
5.81033
5.77244
5.73154
5.69274
5.66177
5.62715
5.58764
5.6174
5.60032
5.58535
5.90823
5.90793
5.9074
5.90517
5.90153
5.89711
5.89202
5.88592
5.87825
5.86832
5.85552
5.83917
5.81825
5.79071
5.75838
5.72254
5.68336
5.64004
5.59163
5.54698
5.52218
5.49256
5.43031
5.89155
5.89052
5.88967
5.88758
5.88418
5.87974
5.87429
5.8676
5.85931
5.84895
5.83605
5.82014
5.80036
5.7759
5.74724
5.71499
5.67914
5.63896
5.59332
5.54642
5.50815
5.46127
5.4142
5.87576
5.87411
5.87272
5.87036
5.86689
5.86233
5.85663
5.84962
5.84103
5.83053
5.8178
5.8024
5.78378
5.76138
5.73541
5.70623
5.674
5.63857
5.59962
5.55886
5.51889
5.47667
5.43564
5.86106
5.85889
5.8569
5.85415
5.85046
5.84572
5.83985
5.83266
5.82396
5.8135
5.80101
5.78617
5.76856
5.74786
5.72412
5.69756
5.66839
5.63672
5.60268
5.56708
5.53081
5.49225
5.45315
5.84749
5.84491
5.84235
5.83919
5.83523
5.83031
5.82429
5.81704
5.80835
5.79804
5.78589
5.77163
5.75499
5.73576
5.71391
5.68958
5.66298
5.6343
5.60372
5.57159
5.53804
5.50221
5.46501
5.83506
5.83214
5.8291
5.82554
5.82132
5.81623
5.81013
5.80287
5.79429
5.78422
5.77247
5.75884
5.74313
5.72518
5.70496
5.68257
5.65817
5.63195
5.60404
5.5745
5.54322
5.50961
5.47422
5.82372
5.82052
5.81708
5.81319
5.80874
5.80352
5.79738
5.7902
5.78179
5.77202
5.76074
5.74776
5.73294
5.71616
5.6974
5.67671
5.65422
5.63008
5.60437
5.57699
5.54773
5.51604
5.48226
5.81339
5.80998
5.80622
5.80206
5.79744
5.79215
5.78604
5.77897
5.77081
5.76142
5.75064
5.73834
5.7244
5.70872
5.69129
5.67213
5.65135
5.62904
5.60524
5.57977
5.55236
5.52243
5.49025
5.804
5.80044
5.79643
5.79208
5.78736
5.78205
5.77603
5.76915
5.76129
5.75232
5.7421
5.73051
5.71745
5.70284
5.68666
5.66893
5.64971
5.62909
5.60703
5.58333
5.55764
5.52937
5.49883
5.79547
5.79181
5.78764
5.78317
5.7784
5.77315
5.76727
5.76064
5.75314
5.74464
5.73502
5.72418
5.71201
5.69845
5.68348
5.6671
5.64937
5.63032
5.60992
5.58788
5.56386
5.5372
5.50832
5.78771
5.784
5.77973
5.77521
5.77047
5.76533
5.75966
5.75333
5.74624
5.73826
5.72929
5.71921
5.70795
5.69543
5.68164
5.66657
5.65025
5.63271
5.61387
5.59344
5.57102
5.54592
5.51874
5.78063
5.77692
5.77263
5.76813
5.76348
5.75851
5.75309
5.74711
5.74047
5.73305
5.72475
5.71546
5.70511
5.69363
5.68099
5.66719
5.65224
5.63614
5.61878
5.59988
5.579
5.55547
5.52995
5.77414
5.77048
5.76622
5.7618
5.7573
5.75255
5.74743
5.74185
5.73569
5.72886
5.72125
5.71277
5.70333
5.69288
5.68137
5.6688
5.65516
5.64043
5.6245
5.60706
5.5877
5.56571
5.5419
5.76815
5.76459
5.76042
5.75614
5.75183
5.74734
5.74256
5.7374
5.73176
5.72554
5.71864
5.71096
5.70244
5.69299
5.68259
5.6712
5.65882
5.64541
5.63084
5.61482
5.59693
5.57651
5.55437
5.76259
5.75915
5.75514
5.75105
5.74697
5.74278
5.73837
5.73366
5.72855
5.72295
5.71676
5.70989
5.70225
5.6938
5.68446
5.67422
5.66305
5.6509
5.63764
5.62298
5.60652
5.58764
5.56719
5.75738
5.75411
5.75029
5.74642
5.74261
5.73874
5.73473
5.73048
5.72592
5.72094
5.71546
5.70938
5.70262
5.69512
5.68682
5.67768
5.66766
5.65672
5.64471
5.63136
5.61631
5.59895
5.5801
5.75246
5.74937
5.74579
5.74217
5.73866
5.73514
5.73153
5.72776
5.72375
5.71939
5.71461
5.7093
5.70339
5.69681
5.6895
5.68141
5.67251
5.66272
5.65191
5.63983
5.62615
5.61032
5.59313
5.74779
5.7449
5.74157
5.73823
5.73502
5.73187
5.72868
5.7254
5.72193
5.71818
5.71408
5.70952
5.70443
5.69873
5.69237
5.68529
5.67744
5.66876
5.65912
5.64827
5.63594
5.62165
5.60609
5.7433
5.74062
5.73756
5.73451
5.73163
5.72884
5.72609
5.72328
5.72036
5.71721
5.71376
5.70993
5.70562
5.70077
5.69532
5.6892
5.68237
5.67474
5.66621
5.65655
5.64553
5.63274
5.61884
5.73899
5.7365
5.73372
5.73097
5.72842
5.726
5.72367
5.72135
5.71895
5.71639
5.71357
5.71042
5.70687
5.70283
5.69824
5.69304
5.68718
5.68057
5.6731
5.66459
5.65484
5.64351
5.63113
5.73481
5.73249
5.73
5.72754
5.72531
5.72328
5.72137
5.71951
5.71763
5.71563
5.71342
5.71093
5.70809
5.70482
5.70106
5.69675
5.69182
5.68619
5.67976
5.67237
5.66386
5.65394
5.64311
5.73075
5.72855
5.72635
5.72418
5.72228
5.72061
5.71912
5.71772
5.71633
5.71486
5.71323
5.71138
5.70921
5.70668
5.70372
5.70026
5.69624
5.69157
5.68616
5.67987
5.67261
5.66412
5.65478
5.72681
5.72465
5.72274
5.72084
5.71927
5.71797
5.71689
5.71592
5.715
5.71403
5.71295
5.71169
5.71018
5.70836
5.70617
5.70355
5.70041
5.69669
5.6923
5.68712
5.68109
5.674
5.66621
5.72302
5.72072
5.71913
5.7175
5.71624
5.71531
5.71461
5.71406
5.71357
5.71308
5.71251
5.71182
5.71093
5.7098
5.70836
5.70655
5.7043
5.70153
5.69816
5.69411
5.68932
5.68365
5.67734
5.7195
5.71668
5.71545
5.71409
5.71316
5.71259
5.71226
5.71209
5.712
5.71194
5.71186
5.7117
5.71141
5.71094
5.71024
5.70924
5.70787
5.70605
5.70372
5.70082
5.69731
5.69309
5.68838
5.71631
5.7124
5.71165
5.71057
5.70998
5.70975
5.70977
5.70994
5.71021
5.71055
5.71091
5.71126
5.71154
5.71171
5.71173
5.71152
5.71102
5.71016
5.70889
5.70716
5.70498
5.70231
5.69931
5.71309
5.70778
5.70772
5.70694
5.70668
5.70677
5.70708
5.70755
5.70814
5.70883
5.70961
5.71042
5.71124
5.71203
5.71272
5.71327
5.71362
5.71371
5.71348
5.71293
5.71209
5.711
5.70997
5.70921
5.70205
5.70343
5.70324
5.70331
5.70366
5.70421
5.70492
5.70578
5.70679
5.70792
5.70916
5.71047
5.71181
5.71314
5.71439
5.71552
5.71647
5.7172
5.71773
5.71812
5.71855
5.71966
5.70727
5.69068
5.6969
5.699
5.69967
5.70028
5.70104
5.70196
5.70306
5.70435
5.70582
5.70744
5.70918
5.71101
5.71288
5.71475
5.71655
5.71824
5.71979
5.72122
5.72267
5.72456
5.72843
5.72052
5.66664
5.68654
5.69268
5.69447
5.69559
5.69668
5.69789
5.69929
5.7009
5.70273
5.70477
5.70698
5.70933
5.71177
5.71427
5.71676
5.71922
5.72165
5.72416
5.72712
5.73157
5.74177
8001.07
8126.89
7334.93
5062.32
9790.17
9694.96
9492.29
9267.44
6460.43
7619.46
7748.52
7687.78
1165.36
1391.69
1524.09
1263.55
1192.03
1158.71
1133.53
1109.7
1250.93
1228.65
1212.38
1201.23
1305.03
1297.3
1265.01
1084.46
813.834
786.474
755.394
708.183
737.617
730.231
729.434
736.205
357.111
306.212
290.586
317.205
4.62317
4.54353
4.50299
4.5458
5.59502
5.57616
5.54038
5.48483
5.34968
5.31111
5.29175
5.28764
5.38063
5.36116
5.34304
5.32359
5.40647
5.38754
5.36905
5.34818
5.4241
5.40522
5.38618
5.36404
5.43659
5.41758
5.39758
5.37401
5.44621
5.42687
5.40596
5.38114
5.45449
5.43479
5.4131
5.38729
5.46296
5.44318
5.42117
5.39475
5.47236
5.45282
5.43088
5.40415
5.48289
5.46379
5.44214
5.41545
5.49443
5.47591
5.45483
5.42852
5.50683
5.48902
5.46865
5.44311
5.52003
5.503
5.48359
5.45907
5.53387
5.51776
5.49931
5.47608
5.54803
5.53288
5.51564
5.49389
5.56231
5.54819
5.53215
5.51217
5.57674
5.56366
5.54903
5.53087
5.59121
5.5793
5.56593
5.54968
5.60542
5.59464
5.58273
5.56837
5.61911
5.6095
5.59894
5.5866
5.63245
5.62395
5.61488
5.60444
5.64556
5.63822
5.63043
5.6218
5.65838
5.65215
5.64572
5.63871
5.67091
5.66579
5.66054
5.65506
5.68338
5.67934
5.67533
5.67113
5.69601
5.69317
5.69019
5.68706
5.7088
5.70734
5.70549
5.70309
5.72161
5.72231
5.72166
5.71959
5.7352
5.74162
5.74364
5.73976
5.76497
5.78656
5.78994
5.77651
2587.32
2152.12
1756.44
2810.94
4691.41
4594.09
3948.9
1257.39
1065.81
1062.38
1056.67
1052.76
1056.92
1071.1
1094.94
1126.48
1164.39
1211.77
1279.88
8995.91
6604.56
6151.28
5754.04
5655.84
4763.55
2091.65
860.246
940.164
977.034
989.038
996.275
1006.91
1024.11
1049.17
1081.95
1122.7
1176.43
1251.89
8395.5
8779.55
8090.69
4294.64
1117.61
652.92
704.094
784.753
867.292
908.178
925.601
938.716
952.558
969.71
993.291
1025.97
1067.99
1123.62
1201.25
1562.44
2471.15
1424.38
657.211
631.46
667.689
712.352
771.356
825.049
854.212
868.696
884.572
898.628
912.809
932.526
964.517
1007.19
1061.39
1135.42
1099.86
1106.36
1133.81
847.618
655.531
684.337
722.039
761.584
792.113
806.433
814.542
820.935
822.415
837.568
864.808
902.13
947.177
998.053
1064.12
1195.88
1192.81
996.308
692.627
678.606
703.783
730.456
750.146
756.099
726.087
689.542
606.922
435.92
526.172
759.316
839.76
895.093
942.532
997.599
1008.1
874.103
679.392
691.041
707.07
724.633
725.462
634.214
482.652
277.53
81.7324
49.8744
16.1396
40.982
406.53
774.679
858.954
903.824
946.424
705.643
710.514
720.545
727.623
687.026
559.219
344.521
87.7649
7.32122
7.08167
7.54303
7.53146
7.7669
8.75119
65.6538
764.203
846.907
887.912
917.95
744.477
725.506
632.099
416.941
177.917
5.88455
6.22285
6.03755
5.77666
5.833
6.02131
6.19856
6.67802
6.65343
28.1342
766.689
859.748
894.279
912.538
311.092
208.761
46.8653
5.08587
5.45496
5.48067
5.45797
5.51102
5.76676
5.92081
6.07557
6.23581
6.48987
6.43814
7.03015
386.245
884.642
916.598
926.797
4.75041
5.02976
5.33888
5.36136
5.34899
5.4314
5.47806
5.5743
5.72568
5.86025
5.99555
6.12236
6.24992
6.28602
6.29379
160.732
923.127
950.791
955.495
5.37709
5.32867
5.31764
5.32623
5.33421
5.38455
5.45047
5.51205
5.59368
5.68557
5.78961
5.88034
5.95073
5.99814
5.86747
148.886
975.309
993.822
994.635
5.29796
5.28241
5.27219
5.28525
5.29595
5.32611
5.3551
5.3906
5.44256
5.504
5.56992
5.62294
5.64826
5.64143
5.32024
76.6959
982.598
1041.42
1040.92
5.29614
5.27387
5.26358
5.25736
5.2554
5.2613
5.27027
5.2836
5.30526
5.33263
5.36096
5.37749
5.35044
5.2727
5.04216
7.82414
330.128
1090.34
1092.46
5.31423
5.28143
5.25803
5.23798
5.2198
5.20548
5.19324
5.18338
5.17665
5.17218
5.16616
5.14951
5.09925
4.99488
4.87875
4.87267
68.5398
1147.72
1148.88
5.32751
5.28695
5.25214
5.21912
5.18636
5.15451
5.12291
5.0912
5.05909
5.02606
4.98935
4.9439
4.87756
4.78085
4.69398
4.54548
68.8304
1210.42
1209.41
5.33501
5.28867
5.24519
5.20167
5.15658
5.11004
5.06165
5.01085
4.95677
4.89872
4.83485
4.76328
4.67898
4.57529
4.47199
4.17769
55.482
1275.62
1270.91
5.34007
5.28959
5.23961
5.18782
5.13275
5.07431
5.01226
4.94563
4.87347
4.79452
4.70686
4.6111
4.50758
4.38141
4.25017
3.9433
17.3434
677.146
1313.79
5.34486
5.29218
5.23772
5.17994
5.11738
5.04977
4.97689
4.8975
4.81059
4.71475
4.60866
4.49201
4.36743
4.2216
4.01487
3.75901
3.82987
8.70026
1369.24
5.35154
5.29743
5.24056
5.17903
5.11145
5.03743
4.95664
4.86787
4.7698
4.66122
4.54145
4.41019
4.2691
4.11603
3.91927
3.66765
3.57445
3.62077
1403.81
5.3606
5.30623
5.2483
5.18484
5.11451
5.03683
4.95142
4.85712
4.75243
4.63594
4.50666
4.36493
4.21249
4.05508
3.88813
3.71629
3.64556
3.79032
958.577
5.37214
5.31847
5.26073
5.19699
5.12599
5.04727
4.96042
4.86443
4.75774
4.63857
4.5052
4.3572
4.19768
4.03362
3.88461
3.75452
3.70371
3.7901
857.473
5.38603
5.33388
5.27744
5.21489
5.14509
5.06772
4.98239
4.88825
4.78389
4.66725
4.53588
4.38868
4.2278
4.06184
3.91683
3.82291
3.76199
3.74273
1253.93
5.40203
5.35209
5.29791
5.23782
5.17088
5.09698
5.01579
4.92674
4.82864
4.71944
4.59651
4.45817
4.30585
4.14721
4.00116
3.91808
3.86022
3.75868
1602.49
5.41982
5.37269
5.32161
5.2651
5.20245
5.1338
5.05906
4.97791
4.88955
4.79235
4.68423
4.56355
4.4311
4.29236
4.15996
4.06318
4.05812
12.6389
1666.56
5.43912
5.39528
5.348
5.29603
5.2389
5.17698
5.11056
5.03964
4.96394
4.88272
4.79507
4.70062
4.60035
4.49734
4.3958
4.32143
4.2872
81.9813
1731.51
5.45954
5.41944
5.37653
5.32984
5.27921
5.22523
5.16854
5.10957
5.04868
4.98631
4.92324
4.86141
4.80311
4.74743
4.69424
4.63847
4.59549
125.212
1799.28
5.48084
5.44475
5.40661
5.36573
5.32225
5.27707
5.23101
5.18502
5.14021
5.09818
5.06153
5.03389
5.01978
5.01785
5.01039
4.99315
4.96536
84.8862
1144.58
5.50264
5.47077
5.43762
5.40284
5.36687
5.33082
5.29576
5.26309
5.23459
5.21296
5.2021
5.20663
5.23091
5.27359
5.31114
5.30788
5.40859
9.44284
6.94347
5.52468
5.49704
5.46891
5.44026
5.41182
5.38476
5.36048
5.34069
5.32766
5.32476
5.33663
5.36796
5.42128
5.49406
5.56717
5.60865
5.61602
5.74564
6.64941
5.54656
5.52311
5.49987
5.47717
5.45586
5.43723
5.42291
5.4148
5.41536
5.42809
5.45747
5.50732
5.57772
5.66211
5.74377
5.79291
5.80297
5.76126
6.16761
5.5681
5.54861
5.52999
5.51276
5.49788
5.48674
5.4811
5.48285
5.49439
5.51885
5.5599
5.61991
5.6969
5.78179
5.85778
5.90323
5.90769
5.87009
5.87705
5.589
5.57323
5.55879
5.54639
5.537
5.53213
5.5335
5.54292
5.56247
5.59467
5.64204
5.70551
5.78183
5.86186
5.93147
5.97808
6.00651
6.02455
6.04733
5.60925
5.59676
5.58595
5.57757
5.57261
5.5726
5.57915
5.59387
5.61844
5.65464
5.70392
5.76604
5.83714
5.90894
5.97057
6.01371
6.04188
6.05877
6.06043
5.62866
5.61905
5.61122
5.60598
5.60433
5.60772
5.61759
5.63531
5.66213
5.69914
5.7469
5.80437
5.86758
5.92935
5.98087
6.01572
6.03343
6.03572
6.02675
5.64732
5.64003
5.63452
5.6315
5.63204
5.63742
5.64888
5.66752
5.69419
5.72944
5.7732
5.82397
5.87801
5.92924
5.97067
5.99693
6.00719
6.00415
5.99362
5.66521
5.65973
5.6558
5.65417
5.65584
5.66192
5.67345
5.69124
5.71584
5.74741
5.78548
5.82842
5.87293
5.91408
5.94635
5.96579
5.97164
5.96711
5.95787
5.6825
5.67818
5.67515
5.67412
5.676
5.6817
5.69203
5.70758
5.72865
5.75518
5.78652
5.82113
5.8563
5.88817
5.91261
5.92658
5.92986
5.9254
5.91731
5.69918
5.69547
5.69271
5.69162
5.69296
5.69741
5.70557
5.71782
5.73433
5.75489
5.7789
5.80507
5.8313
5.85478
5.87251
5.88244
5.88431
5.88039
5.87402
5.71604
5.71242
5.70924
5.70739
5.70748
5.70996
5.71516
5.72333
5.73449
5.74847
5.76478
5.78251
5.80023
5.81607
5.8281
5.83489
5.83634
5.83388
5.82909
5.73632
5.73136
5.72651
5.7229
5.72087
5.72054
5.72199
5.72529
5.7304
5.73723
5.74551
5.75476
5.76424
5.77301
5.78004
5.78463
5.78659
5.78632
5.78417
5.75579
5.74476
5.73865
5.73424
5.73103
5.7288
5.72739
5.72672
5.72676
5.72747
5.72879
5.73062
5.73281
5.73513
5.73734
5.73923
5.74076
5.74177
5.74164
)
;

boundaryField
{
    leftWall
    {
        type            fixedFluxPressure;
        gradient        uniform 0;
        value           nonuniform List<scalar> 
50
(
5808.22
5803.65
5798.68
5787.79
5767.07
5447.88
2145.81
1259.93
1254.7
1244.04
1231.45
1215.66
1196.13
768.186
5.87398
5.99059
5.97825
5.96055
5.94315
5.92558
5.90823
5.89155
5.87576
5.86106
5.84749
5.83506
5.82372
5.81339
5.804
5.79547
5.78771
5.78063
5.77414
5.76815
5.76259
5.75738
5.75246
5.74779
5.7433
5.73899
5.73481
5.73075
5.72681
5.72302
5.7195
5.71631
5.71309
5.70921
5.70727
5.72052
)
;
    }
    rightWall
    {
        type            fixedFluxPressure;
        gradient        uniform 0;
        value           nonuniform List<scalar> 
50
(
1257.28
1257.39
1262.96
1271.28
1288.8
1294.77
1294.68
1290.27
1279.88
1251.89
1201.25
1135.42
1064.12
997.599
946.424
917.95
912.538
926.797
955.495
994.635
1040.92
1092.46
1148.88
1209.41
1270.91
1313.79
1369.24
1403.81
958.577
857.473
1253.93
1602.49
1666.56
1731.51
1799.28
1144.58
6.94347
6.64941
6.16761
5.87705
6.04733
6.06043
6.02675
5.99362
5.95787
5.91731
5.87402
5.82909
5.78417
5.74164
)
;
    }
    lowerWall
    {
        type            fixedFluxPressure;
        gradient        uniform 0;
        value           nonuniform List<scalar> 
62
(
5808.22
5844.04
5904.46
5963.6
6008.37
6040.58
6064.27
6083.01
6099.85
6118.31
6143.07
6180.46
6238.55
6327.03
6456.85
6639.56
6885.6
7209.44
7620.37
8116.11
8661.38
9151.99
9522.24
9522.24
9598.75
9664.27
9723.5
9770.94
9800.46
9802.15
9714.68
8001.07
8126.89
7334.93
5062.32
1574.13
1577.76
1578.87
1581.71
1589.4
1602.15
1618.01
1625.39
1574.13
1536.47
1513.77
1497.59
1487.51
1477.85
1458.72
1408.89
1336.14
1265.25
1209.24
1170.89
1149.32
1144.6
1155.57
1180.44
1215.46
1240.96
1257.28
)
;
    }
    atmosphere
    {
        type            prghTotalPressure;
        rho             rho;
        psi             none;
        gamma           1;
        p0              uniform 0;
        value           nonuniform List<scalar> 
46
(
5.71146
5.68669
5.68916
5.69039
5.6914
5.69241
5.69355
5.69489
5.69646
5.69828
5.70035
5.70264
5.70514
5.7078
5.71057
5.71342
5.71628
5.71907
5.72173
5.72415
5.72622
5.72778
5.72872
5.72897
5.72901
5.72904
5.72904
5.72904
5.72904
5.72904
5.72904
5.72904
5.72904
5.72904
5.72904
5.72904
5.72904
5.72904
5.72904
5.72904
5.72904
5.72904
5.72904
5.72904
5.72904
5.72904
)
;
        rho             rho;
    }
    defaultFaces
    {
        type            empty;
    }
}


// ************************************************************************* //
