/*--------------------------------*- C++ -*----------------------------------*\
  =========                 |
  \\      /  F ield         | OpenFOAM: The Open Source CFD Toolbox
   \\    /   O peration     | Website:  https://openfoam.org
    \\  /    A nd           | Version:  13
     \\/     M anipulation  |
\*---------------------------------------------------------------------------*/
FoamFile
{
    format      ascii;
    class       volVectorField;
    location    "0.4";
    object      U;
}
// * * * * * * * * * * * * * * * * * * * * * * * * * * * * * * * * * * * * * //

dimensions      [0 1 -1 0 0 0 0];

internalField   nonuniform List<vector> 
2268
(
(-0.0238471 0.00714167 0)
(-0.0124911 -0.00820075 0)
(0.0249008 -0.013726 0)
(0.0632779 -0.0143674 0)
(0.103117 -0.0141309 0)
(0.14235 -0.0136487 0)
(0.180449 -0.0131316 0)
(0.217236 -0.0125805 0)
(0.252484 -0.0119517 0)
(0.285824 -0.0112034 0)
(0.31675 -0.0103009 0)
(0.344631 -0.00920717 0)
(0.368693 -0.00787367 0)
(0.387978 -0.00623707 0)
(0.401319 -0.00421728 0)
(0.407313 -0.00164426 0)
(0.403768 0.00155828 0)
(0.387482 0.00633619 0)
(0.354238 0.0130569 0)
(0.299384 0.0216437 0)
(0.221555 0.0313373 0)
(0.11117 0.0386861 0)
(0.0151006 0.0198426 0)
(-0.00314913 0.00986807 0)
(0.0234848 -0.0180056 0)
(0.0572528 -0.0262922 0)
(0.0930987 -0.0282435 0)
(0.129914 -0.0282309 0)
(0.166231 -0.0275896 0)
(0.201596 -0.0267572 0)
(0.235798 -0.0257692 0)
(0.268561 -0.0245418 0)
(0.299472 -0.0229769 0)
(0.327979 -0.0209844 0)
(0.353395 -0.0184711 0)
(0.374877 -0.01532 0)
(0.391389 -0.0113823 0)
(0.40168 -0.00648632 0)
(0.404234 -0.000319917 0)
(0.397063 0.00772331 0)
(0.377732 0.0186215 0)
(0.342982 0.0328508 0)
(0.289606 0.049449 0)
(0.21757 0.0657864 0)
(0.122266 0.0739884 0)
(0.0408667 0.0414608 0)
(0.0183833 -0.000504115 0)
(0.0467374 -0.0321547 0)
(0.0794041 -0.0416838 0)
(0.112666 -0.0442164 0)
(0.146516 -0.04415 0)
(0.179987 -0.0432058 0)
(0.212727 -0.0419522 0)
(0.244497 -0.0404282 0)
(0.274965 -0.0384974 0)
(0.303665 -0.0359962 0)
(0.329987 -0.0327692 0)
(0.353183 -0.0286542 0)
(0.372339 -0.0234518 0)
(0.386332 -0.0169198 0)
(0.393841 -0.00880642 0)
(0.393404 0.00131086 0)
(0.383357 0.0143559 0)
(0.36197 0.0312935 0)
(0.32708 0.052858 0)
(0.276648 0.0775384 0)
(0.211634 0.101332 0)
(0.129576 0.114185 0)
(0.0595091 0.0818254 0)
(0.0339995 -0.0199281 0)
(0.0631759 -0.0478747 0)
(0.0957508 -0.0571049 0)
(0.126931 -0.0598299 0)
(0.158256 -0.0596614 0)
(0.189257 -0.0584589 0)
(0.219718 -0.0568384 0)
(0.249384 -0.0548076 0)
(0.277874 -0.0521677 0)
(0.304665 -0.0486853 0)
(0.329093 -0.0441326 0)
(0.350341 -0.0382663 0)
(0.36741 -0.0307951 0)
(0.379076 -0.0213779 0)
(0.383939 -0.0097207 0)
(0.380587 0.00458609 0)
(0.367781 0.0224133 0)
(0.344564 0.0447792 0)
(0.309784 0.0726128 0)
(0.262321 0.103868 0)
(0.203878 0.133367 0)
(0.132477 0.150859 0)
(0.0706005 0.126495 0)
(0.0439275 -0.0465627 0)
(0.0734917 -0.065267 0)
(0.10648 -0.0728134 0)
(0.136232 -0.0752477 0)
(0.165682 -0.0748662 0)
(0.194785 -0.0734357 0)
(0.223458 -0.0714988 0)
(0.251442 -0.0689896 0)
(0.278317 -0.0656368 0)
(0.30352 -0.0611349 0)
(0.326342 -0.0551775 0)
(0.345895 -0.0474318 0)
(0.361084 -0.0374954 0)
(0.370556 -0.024908 0)
(0.372788 -0.00933596 0)
(0.366407 0.00947464 0)
(0.35063 0.0320475 0)
(0.325438 0.0591492 0)
(0.290818 0.0920361 0)
(0.246332 0.128239 0)
(0.19417 0.161757 0)
(0.132281 0.183838 0)
(0.0768482 0.172377 0)
(0.0513562 -0.0763874 0)
(0.0782215 -0.0814136 0)
(0.111647 -0.0862616 0)
(0.140514 -0.0879518 0)
(0.168779 -0.0872078 0)
(0.196673 -0.0855381 0)
(0.224149 -0.0833174 0)
(0.250927 -0.0803913 0)
(0.27657 -0.0764261 0)
(0.300506 -0.0710577 0)
(0.321999 -0.0639151 0)
(0.340101 -0.0545863 0)
(0.35361 -0.0425635 0)
(0.361018 -0.0272477 0)
(0.360616 -0.00818526 0)
(0.350984 0.0148527 0)
(0.331707 0.0421999 0)
(0.304056 0.0740539 0)
(0.269626 0.110909 0)
(0.228556 0.150546 0)
(0.183124 0.18646 0)
(0.131257 0.213394 0)
(0.0814492 0.219518 0)
(0.0555496 -0.0994084 0)
(0.077611 -0.0933272 0)
(0.111954 -0.0967784 0)
(0.140202 -0.0979628 0)
(0.167803 -0.0969718 0)
(0.195008 -0.0951852 0)
(0.221685 -0.0927854 0)
(0.247522 -0.089536 0)
(0.272076 -0.08505 0)
(0.294795 -0.0789072 0)
(0.314946 -0.0706678 0)
(0.33154 -0.0598381 0)
(0.343301 -0.0458164 0)
(0.348595 -0.02792 0)
(0.345515 -0.00574041 0)
(0.332674 0.0205829 0)
(0.309981 0.051081 0)
(0.279958 0.0863137 0)
(0.24595 0.127481 0)
(0.209475 0.169995 0)
(0.172241 0.206853 0)
(0.132489 0.239337 0)
(0.0881893 0.271094 0)
(0.0410005 -0.13432 0)
(0.0652738 -0.111197 0)
(0.102671 -0.113649 0)
(0.131478 -0.113672 0)
(0.159303 -0.112262 0)
(0.186318 -0.110207 0)
(0.212401 -0.107399 0)
(0.237313 -0.10353 0)
(0.260681 -0.0981596 0)
(0.282027 -0.0907654 0)
(0.300717 -0.0807326 0)
(0.31589 -0.0673537 0)
(0.326373 -0.049837 0)
(0.330662 -0.0275049 0)
(0.3266 -0.00041498 0)
(0.311975 0.0303897 0)
(0.285597 0.0633908 0)
(0.251782 0.0996084 0)
(0.220407 0.141013 0)
(0.190932 0.184283 0)
(0.164646 0.220929 0)
(0.140269 0.257838 0)
(0.108293 0.328701 0)
(-0.209476 0.0736244 0)
(-0.257531 0.0254071 0)
(-0.30657 -0.00568285 0)
(-0.255662 -0.0248386 0)
(-0.164246 -0.0384517 0)
(-0.0269576 -0.0551905 0)
(0.160567 -0.0652276 0)
(0.326832 -0.052144 0)
(0.441143 -0.0351403 0)
(0.512168 -0.0233954 0)
(0.554255 -0.0156919 0)
(0.576043 -0.00904923 0)
(0.577791 -0.00119866 0)
(0.55394 0.00869392 0)
(0.495616 0.0226284 0)
(0.392943 0.0397147 0)
(0.25563 0.0585249 0)
(0.0287443 0.0672326 0)
(-0.13186 -0.0358012 0)
(-0.159957 0.118032 0)
(-0.164297 0.0502766 0)
(-0.19778 -0.00573805 0)
(-0.151029 -0.0482629 0)
(-0.0512837 -0.0851975 0)
(0.112438 -0.118723 0)
(0.290734 -0.125825 0)
(0.438769 -0.0931195 0)
(0.534583 -0.0564677 0)
(0.588144 -0.0331151 0)
(0.614865 -0.018155 0)
(0.622818 -0.00549909 0)
(0.612328 0.00927 0)
(0.578869 0.0288058 0)
(0.516295 0.0539902 0)
(0.418006 0.0824974 0)
(0.292639 0.10929 0)
(0.119875 0.116197 0)
(0.00546828 -0.0190177 0)
(-0.118371 0.163728 0)
(-0.08308 0.0628291 0)
(-0.115536 -0.00891555 0)
(-0.0836121 -0.0697867 0)
(0.0239567 -0.12513 0)
(0.207237 -0.172743 0)
(0.393762 -0.19012 0)
(0.536237 -0.145612 0)
(0.611466 -0.0839531 0)
(0.644086 -0.0455928 0)
(0.655033 -0.0223043 0)
(0.650839 -0.00287748 0)
(0.630998 0.0197373 0)
(0.591223 0.0493267 0)
(0.526702 0.0863459 0)
(0.433151 0.127438 0)
(0.317791 0.164089 0)
(0.1725 0.169381 0)
(0.0836534 0.0261972 0)
(-0.0780354 0.193354 0)
(0.00131374 0.0622226 0)
(-0.0215758 -0.00888713 0)
(-0.0123111 -0.0881956 0)
(0.0942208 -0.155503 0)
(0.330278 -0.210376 0)
(0.517935 -0.232006 0)
(0.641566 -0.181285 0)
(0.691805 -0.10327 0)
(0.69722 -0.0506209 0)
(0.690444 -0.0204973 0)
(0.674826 0.00440475 0)
(0.647012 0.0338328 0)
(0.602142 0.0721763 0)
(0.536021 0.119511 0)
(0.445704 0.1711 0)
(0.336767 0.215622 0)
(0.204965 0.221006 0)
(0.116948 0.0879735 0)
(-0.0386271 0.197721 0)
(0.0810275 0.0422602 0)
(0.103283 -0.0125541 0)
(0.15608 -0.10598 0)
(0.350168 -0.264432 0)
(0.664477 -0.392696 0)
(0.790417 -0.27393 0)
(0.776524 -0.180785 0)
(0.773376 -0.100181 0)
(0.746802 -0.0450634 0)
(0.721711 -0.0125813 0)
(0.696168 0.0156444 0)
(0.661916 0.0505737 0)
(0.612978 0.0965457 0)
(0.545364 0.152832 0)
(0.456917 0.213292 0)
(0.351855 0.264437 0)
(0.226057 0.272397 0)
(0.133105 0.156093 0)
(-0.00405455 0.173904 0)
(0.154478 0.00412665 0)
(0.209865 -0.0400617 0)
(0.404644 -0.157089 0)
(0.659266 -0.44559 0)
(0.698284 -0.497987 0)
(0.863671 -0.410709 0)
(0.912395 -0.143592 0)
(0.830985 -0.0729221 0)
(0.78284 -0.0285144 0)
(0.745495 0.000495697 0)
(0.713736 0.0298704 0)
(0.675326 0.0692344 0)
(0.623491 0.121942 0)
(0.554551 0.186124 0)
(0.466961 0.254336 0)
(0.36394 0.31171 0)
(0.240583 0.325066 0)
(0.142004 0.228766 0)
(0.0245551 0.136223 0)
(0.218127 -0.0488231 0)
(0.283783 -0.0865644 0)
(0.462067 -0.172166 0)
(0.622072 -0.496396 0)
(0.674632 -0.498135 0)
(0.748433 -0.425186 0)
(0.835876 -0.170314 0)
(0.836623 -0.0487269 0)
(0.79368 -0.00989388 0)
(0.758325 0.0152913 0)
(0.726348 0.045391 0)
(0.68661 0.0889642 0)
(0.633141 0.148043 0)
(0.563099 0.219509 0)
(0.475657 0.294802 0)
(0.373333 0.358377 0)
(0.250697 0.378903 0)
(0.147165 0.305719 0)
(0.0958805 0.0539712 0)
(0.285988 -0.103056 0)
(0.35775 -0.140674 0)
(0.601043 -0.403493 0)
(0.629225 -0.483359 0)
(0.654784 -0.497418 0)
(0.69073 -0.43207 0)
(0.736208 -0.215059 0)
(0.799446 -0.0439207 0)
(0.782519 0.00152728 0)
(0.760686 0.0274708 0)
(0.733929 0.0602516 0)
(0.695424 0.108885 0)
(0.641412 0.174569 0)
(0.570449 0.253131 0)
(0.482622 0.335173 0)
(0.380046 0.405046 0)
(0.257672 0.433933 0)
(0.151139 0.383035 0)
(0.0173552 -0.163045 0)
(0.043429 -0.147117 0)
(0.0784325 -0.148428 0)
(0.108308 -0.146798 0)
(0.136344 -0.144275 0)
(0.162873 -0.141187 0)
(0.1879 -0.137144 0)
(0.211337 -0.131649 0)
(0.233 -0.124137 0)
(0.2526 -0.113983 0)
(0.269717 -0.100459 0)
(0.283756 -0.0826518 0)
(0.293923 -0.0593799 0)
(0.299176 -0.0291598 0)
(0.297959 0.00930531 0)
(0.288228 0.0562794 0)
(0.267555 0.104593 0)
(0.232408 0.1391 0)
(0.190102 0.164814 0)
(0.170744 0.202755 0)
(0.166169 0.232526 0)
(0.176035 0.259869 0)
(0.235356 0.306187 0)
(0.00935857 -0.181495 0)
(0.0342606 -0.17264 0)
(0.0644759 -0.168693 0)
(0.0923087 -0.164639 0)
(0.118795 -0.160285 0)
(0.143838 -0.155535 0)
(0.167331 -0.149995 0)
(0.189163 -0.143138 0)
(0.209204 -0.134358 0)
(0.227278 -0.122953 0)
(0.243143 -0.108092 0)
(0.256479 -0.0887849 0)
(0.266949 -0.0638919 0)
(0.274343 -0.0321728 0)
(0.278809 0.00753477 0)
(0.280562 0.0556982 0)
(0.279245 0.110449 0)
(0.273106 0.165275 0)
(0.259131 0.207136 0)
(0.221806 0.223226 0)
(0.206105 0.233544 0)
(0.22577 0.233119 0)
(0.272134 0.206167 0)
(0.010578 -0.198008 0)
(0.0325188 -0.199355 0)
(0.0593683 -0.195219 0)
(0.0846055 -0.19032 0)
(0.108985 -0.184884 0)
(0.132225 -0.178821 0)
(0.154157 -0.171797 0)
(0.174643 -0.163315 0)
(0.193562 -0.152769 0)
(0.210805 -0.139443 0)
(0.22627 -0.122475 0)
(0.239845 -0.100883 0)
(0.251533 -0.0736958 0)
(0.261717 -0.0400358 0)
(0.271373 0.000773226 0)
(0.281978 0.0487165 0)
(0.294596 0.102445 0)
(0.309017 0.157618 0)
(0.324213 0.206098 0)
(0.33715 0.233835 0)
(0.337951 0.228212 0)
(0.329828 0.204932 0)
(0.369128 0.161966 0)
(0.0151718 -0.218735 0)
(0.0334476 -0.224864 0)
(0.0584536 -0.220347 0)
(0.0812767 -0.214705 0)
(0.10354 -0.208338 0)
(0.124931 -0.201148 0)
(0.145276 -0.192826 0)
(0.164447 -0.182914 0)
(0.182354 -0.170842 0)
(0.198972 -0.155939 0)
(0.214337 -0.137366 0)
(0.228475 -0.114186 0)
(0.241544 -0.0857289 0)
(0.254196 -0.0517055 0)
(0.267915 -0.0121059 0)
(0.284898 0.0328685 0)
(0.307058 0.08221 0)
(0.335072 0.13303 0)
(0.368523 0.1789 0)
(0.406411 0.209162 0)
(0.445905 0.210885 0)
(0.483092 0.175173 0)
(0.522314 0.108006 0)
(0.0216916 -0.247294 0)
(0.0339938 -0.251425 0)
(0.0586386 -0.245764 0)
(0.0796509 -0.239149 0)
(0.100222 -0.23177 0)
(0.119998 -0.223478 0)
(0.138831 -0.213943 0)
(0.156636 -0.202731 0)
(0.173386 -0.189332 0)
(0.189187 -0.173186 0)
(0.204283 -0.153499 0)
(0.218825 -0.129277 0)
(0.232932 -0.10017 0)
(0.247251 -0.0666717 0)
(0.263487 -0.0296701 0)
(0.284416 0.0102078 0)
(0.312472 0.0527522 0)
(0.348305 0.0965083 0)
(0.391353 0.13571 0)
(0.440487 0.16147 0)
(0.493716 0.163204 0)
(0.547655 0.133109 0)
(0.600365 0.0704983 0)
(0.032009 -0.280809 0)
(0.0329279 -0.276141 0)
(0.0574777 -0.267646 0)
(0.0777175 -0.259285 0)
(0.0973823 -0.250656 0)
(0.116039 -0.241414 0)
(0.133592 -0.231036 0)
(0.150021 -0.219031 0)
(0.165378 -0.204934 0)
(0.179941 -0.188359 0)
(0.194218 -0.168707 0)
(0.208616 -0.144824 0)
(0.223391 -0.116445 0)
(0.238876 -0.0846043 0)
(0.256673 -0.0514112 0)
(0.279756 -0.0182666 0)
(0.311013 0.0165825 0)
(0.350591 0.0528231 0)
(0.397174 0.0850124 0)
(0.449744 0.104904 0)
(0.506585 0.103541 0)
(0.56463 0.0757443 0)
(0.620448 0.0224486 0)
(0.106879 -0.289925 0)
(0.0169472 -0.279475 0)
(0.047206 -0.275754 0)
(0.068817 -0.269036 0)
(0.0894996 -0.260716 0)
(0.108536 -0.25149 0)
(0.12606 -0.240933 0)
(0.14214 -0.228666 0)
(0.156909 -0.214352 0)
(0.170715 -0.197854 0)
(0.184169 -0.178765 0)
(0.197642 -0.15556 0)
(0.21198 -0.128275 0)
(0.228797 -0.0990537 0)
(0.24924 -0.0703566 0)
(0.274802 -0.0452303 0)
(0.307446 -0.0213652 0)
(0.347469 0.00640455 0)
(0.394202 0.0329094 0)
(0.446936 0.0500177 0)
(0.505034 0.0467948 0)
(0.564957 0.0208823 0)
(0.62293 -0.0260305 0)
(0.143664 -0.364217 0)
(0.0465793 -0.25214 0)
(0.0663272 -0.294135 0)
(0.0688326 -0.280203 0)
(0.0832594 -0.266031 0)
(0.0993264 -0.253397 0)
(0.114844 -0.240796 0)
(0.129032 -0.227371 0)
(0.141881 -0.212424 0)
(0.153541 -0.195945 0)
(0.164223 -0.177305 0)
(0.173444 -0.154617 0)
(0.188743 -0.131692 0)
(0.209334 -0.106059 0)
(0.23832 -0.0817628 0)
(0.274091 -0.0643472 0)
(0.309753 -0.046956 0)
(0.350701 -0.0264879 0)
(0.394289 -0.0125108 0)
(0.447092 -0.0080165 0)
(0.508271 -0.0171134 0)
(0.569724 -0.0430003 0)
(0.629025 -0.0849045 0)
(0.0102158 -0.454284 0)
(0.0441896 -0.255081 0)
(0.0814678 -0.324775 0)
(0.0974293 -0.340836 0)
(0.113986 -0.338716 0)
(0.13014 -0.327794 0)
(0.14564 -0.311457 0)
(0.160441 -0.292141 0)
(0.17421 -0.270827 0)
(0.185761 -0.247251 0)
(0.194 -0.223074 0)
(0.199636 -0.196118 0)
(0.190396 -0.162868 0)
(0.194198 -0.13316 0)
(0.218769 -0.101056 0)
(0.254442 -0.0735883 0)
(0.293644 -0.0490649 0)
(0.369347 -0.0328523 0)
(0.429413 -0.0448915 0)
(0.480339 -0.0506857 0)
(0.534595 -0.0693669 0)
(0.591479 -0.101151 0)
(0.648323 -0.143076 0)
(-0.0171127 -0.437213 0)
(0.0310194 -0.325239 0)
(0.0709965 -0.329022 0)
(0.0922083 -0.326755 0)
(0.109648 -0.31884 0)
(0.125518 -0.307505 0)
(0.140721 -0.293428 0)
(0.155619 -0.276955 0)
(0.170189 -0.257929 0)
(0.184726 -0.235556 0)
(0.19919 -0.208601 0)
(0.214914 -0.186718 0)
(0.232627 -0.180602 0)
(0.257991 -0.189312 0)
(0.289239 -0.207992 0)
(0.331132 -0.215544 0)
(0.379178 -0.229671 0)
(0.414834 -0.18604 0)
(0.414096 -0.066645 0)
(0.509606 -0.0550894 0)
(0.588484 -0.101258 0)
(0.63305 -0.136515 0)
(0.678173 -0.174593 0)
(-0.0140825 -0.439914 0)
(0.0224766 -0.370276 0)
(0.0538232 -0.355883 0)
(0.0749043 -0.345308 0)
(0.0922509 -0.333968 0)
(0.108015 -0.321256 0)
(0.123457 -0.306854 0)
(0.139243 -0.290548 0)
(0.155844 -0.272119 0)
(0.174015 -0.251356 0)
(0.195888 -0.228929 0)
(0.222995 -0.206974 0)
(0.254267 -0.193253 0)
(0.28822 -0.193145 0)
(0.321336 -0.194364 0)
(0.353816 -0.194894 0)
(0.387 -0.192494 0)
(0.424387 -0.207607 0)
(0.485411 -0.245198 0)
(0.564324 -0.296885 0)
(0.592811 -0.173858 0)
(0.655399 -0.147017 0)
(0.720793 -0.185342 0)
(-0.00841775 -0.444105 0)
(0.0154186 -0.399856 0)
(0.0375769 -0.379159 0)
(0.0557681 -0.364324 0)
(0.0720718 -0.351125 0)
(0.087642 -0.337876 0)
(0.103486 -0.323764 0)
(0.120364 -0.308383 0)
(0.138955 -0.291578 0)
(0.160167 -0.273533 0)
(0.18526 -0.255154 0)
(0.215383 -0.239298 0)
(0.249598 -0.229221 0)
(0.28427 -0.224729 0)
(0.31679 -0.223895 0)
(0.347758 -0.22339 0)
(0.381092 -0.222283 0)
(0.418765 -0.220582 0)
(0.462348 -0.234548 0)
(0.500533 -0.26015 0)
(0.536724 -0.296529 0)
(0.598323 -0.340707 0)
(0.648638 -0.387754 0)
(-0.00541626 -0.446913 0)
(0.00887888 -0.418579 0)
(0.0238856 -0.397291 0)
(0.0386356 -0.381092 0)
(0.0531655 -0.367284 0)
(0.067882 -0.354237 0)
(0.0834284 -0.341053 0)
(0.100446 -0.327293 0)
(0.119572 -0.312869 0)
(0.141496 -0.298054 0)
(0.166945 -0.283698 0)
(0.196165 -0.271366 0)
(0.228079 -0.263044 0)
(0.260589 -0.259143 0)
(0.292421 -0.258041 0)
(0.323862 -0.258103 0)
(0.356316 -0.258443 0)
(0.391652 -0.261477 0)
(0.428048 -0.269434 0)
(0.463576 -0.279968 0)
(0.502577 -0.28423 0)
(0.547917 -0.315685 0)
(0.589834 -0.341436 0)
(-0.00441508 -0.447567 0)
(0.00339755 -0.42954 0)
(0.0130392 -0.41007 0)
(0.0243444 -0.394367 0)
(0.0365499 -0.381059 0)
(0.0496714 -0.368901 0)
(0.0640402 -0.357116 0)
(0.0800975 -0.345305 0)
(0.09831 -0.333394 0)
(0.119131 -0.321633 0)
(0.142892 -0.310627 0)
(0.169553 -0.301377 0)
(0.198346 -0.29485 0)
(0.228086 -0.291272 0)
(0.257996 -0.290005 0)
(0.288028 -0.290462 0)
(0.318744 -0.292427 0)
(0.350457 -0.29658 0)
(0.381903 -0.304295 0)
(0.412347 -0.313686 0)
(0.445084 -0.325649 0)
(0.476113 -0.344466 0)
(0.498539 -0.365728 0)
(-0.00444323 -0.44608 0)
(-0.000990993 -0.43535 0)
(0.00458516 -0.418748 0)
(0.0126833 -0.404647 0)
(0.0223181 -0.392588 0)
(0.033341 -0.381767 0)
(0.0458678 -0.371598 0)
(0.060154 -0.361757 0)
(0.0764937 -0.352168 0)
(0.095148 -0.342997 0)
(0.116251 -0.334643 0)
(0.13966 -0.327682 0)
(0.164848 -0.322668 0)
(0.191082 -0.319768 0)
(0.217785 -0.318815 0)
(0.244696 -0.319605 0)
(0.271768 -0.322145 0)
(0.298819 -0.326825 0)
(0.325 -0.333933 0)
(0.349734 -0.342691 0)
(0.373088 -0.353037 0)
(0.392118 -0.367107 0)
(0.404179 -0.380001 0)
(-0.00489649 -0.44267 0)
(-0.00441929 -0.437462 0)
(-0.00202415 -0.424096 0)
(0.00315724 -0.4121 0)
(0.0101945 -0.401701 0)
(0.0188624 -0.392462 0)
(0.0291416 -0.383991 0)
(0.0411476 -0.37604 0)
(0.0550341 -0.368533 0)
(0.0709247 -0.361561 0)
(0.088838 -0.35536 0)
(0.108605 -0.350265 0)
(0.129833 -0.346581 0)
(0.152001 -0.344442 0)
(0.174619 -0.343819 0)
(0.197304 -0.344657 0)
(0.219731 -0.346974 0)
(0.241452 -0.350894 0)
(0.261732 -0.356457 0)
(0.279891 -0.363205 0)
(0.295273 -0.370857 0)
(0.306022 -0.379056 0)
(0.311198 -0.385069 0)
(-0.0054333 -0.437592 0)
(-0.00716176 -0.43687 0)
(-0.00726877 -0.426624 0)
(-0.00468789 -0.416897 0)
(-0.000169365 -0.408328 0)
(0.0060583 -0.400754 0)
(0.0138867 -0.393955 0)
(0.0233349 -0.387752 0)
(0.0344507 -0.382071 0)
(0.0472618 -0.376944 0)
(0.0617152 -0.372491 0)
(0.0776309 -0.368887 0)
(0.0946868 -0.366287 0)
(0.112465 -0.364766 0)
(0.130526 -0.364319 0)
(0.148438 -0.364909 0)
(0.165758 -0.366512 0)
(0.181956 -0.36911 0)
(0.196359 -0.372571 0)
(0.208279 -0.376501 0)
(0.21702 -0.380433 0)
(0.221433 -0.383603 0)
(0.221352 -0.384281 0)
(-0.00591811 -0.431112 0)
(-0.00937998 -0.434167 0)
(-0.0115365 -0.426779 0)
(-0.0112282 -0.419238 0)
(-0.00906905 -0.412489 0)
(-0.00526495 -0.406562 0)
(5.17268e-05 -0.401337 0)
(0.00683575 -0.396693 0)
(0.0150508 -0.39257 0)
(0.0246604 -0.388952 0)
(0.035565 -0.385879 0)
(0.0475767 -0.383414 0)
(0.0604114 -0.381608 0)
(0.0737088 -0.380473 0)
(0.0870656 -0.379978 0)
(0.100051 -0.380063 0)
(0.1122 -0.380654 0)
(0.12299 -0.381643 0)
(0.131825 -0.382821 0)
(0.138093 -0.383815 0)
(0.141226 -0.384124 0)
(0.140477 -0.383004 0)
(0.136084 -0.379268 0)
(-0.00631446 -0.423475 0)
(-0.0111906 -0.429738 0)
(-0.0150712 -0.424895 0)
(-0.0167603 -0.419373 0)
(-0.0167649 -0.414325 0)
(-0.015262 -0.409914 0)
(-0.0124024 -0.406103 0)
(-0.00827673 -0.402814 0)
(-0.00295876 -0.399981 0)
(0.00347203 -0.397558 0)
(0.0108798 -0.395525 0)
(0.0190704 -0.393868 0)
(0.0277845 -0.392564 0)
(0.0367008 -0.391564 0)
(0.0454527 -0.390798 0)
(0.0536373 -0.390169 0)
(0.0608187 -0.389562 0)
(0.0665245 -0.388818 0)
(0.0702465 -0.387704 0)
(0.0714774 -0.385874 0)
(0.0697932 -0.382871 0)
(0.0646876 -0.378066 0)
(0.0566386 -0.370616 0)
(-0.0066186 -0.414893 0)
(-0.0126687 -0.423862 0)
(-0.0180195 -0.421241 0)
(-0.0214663 -0.417524 0)
(-0.0234343 -0.414006 0)
(-0.0240709 -0.410941 0)
(-0.0235344 -0.40835 0)
(-0.021943 -0.406182 0)
(-0.0194016 -0.404373 0)
(-0.0160251 -0.402853 0)
(-0.0119597 -0.401555 0)
(-0.00739739 -0.40041 0)
(-0.00257997 -0.399336 0)
(0.00220541 -0.398239 0)
(0.00662896 -0.397004 0)
(0.0103289 -0.395506 0)
(0.0129213 -0.393597 0)
(0.0140018 -0.391098 0)
(0.0131533 -0.387775 0)
(0.00996808 -0.383322 0)
(0.0041537 -0.377348 0)
(-0.00468029 -0.369362 0)
(-0.0158463 -0.358773 0)
(-0.00684036 -0.405549 0)
(-0.0138672 -0.416768 0)
(-0.0204682 -0.416055 0)
(-0.0254514 -0.413908 0)
(-0.0291759 -0.411722 0)
(-0.0317626 -0.409812 0)
(-0.0333707 -0.408236 0)
(-0.0341337 -0.406963 0)
(-0.0341762 -0.405925 0)
(-0.0336317 -0.405037 0)
(-0.0326553 -0.404198 0)
(-0.0314346 -0.403299 0)
(-0.0301929 -0.402217 0)
(-0.0291871 -0.400819 0)
(-0.0287038 -0.39896 0)
(-0.0290535 -0.396486 0)
(-0.0305625 -0.393233 0)
(-0.033563 -0.389017 0)
(-0.0383884 -0.383618 0)
(-0.0453469 -0.376776 0)
(-0.0546372 -0.368185 0)
(-0.0665418 -0.357489 0)
(-0.080202 -0.344307 0)
(-0.00698562 -0.395601 0)
(-0.014812 -0.408657 0)
(-0.0224636 -0.409552 0)
(-0.0287705 -0.408738 0)
(-0.0340381 -0.407678 0)
(-0.0383638 -0.406726 0)
(-0.0419036 -0.405963 0)
(-0.0447976 -0.405369 0)
(-0.0471811 -0.404874 0)
(-0.0491961 -0.404379 0)
(-0.0510002 -0.403762 0)
(-0.0527724 -0.402885 0)
(-0.0547156 -0.401596 0)
(-0.0570552 -0.399735 0)
(-0.0600356 -0.397135 0)
(-0.0639151 -0.393628 0)
(-0.0689589 -0.389043 0)
(-0.0754279 -0.383199 0)
(-0.0835738 -0.375904 0)
(-0.0936266 -0.366945 0)
(-0.105692 -0.356094 0)
(-0.12002 -0.343113 0)
(-0.13561 -0.327763 0)
(-0.00705934 -0.385202 0)
(-0.0155189 -0.399715 0)
(-0.0240285 -0.40194 0)
(-0.0314493 -0.402232 0)
(-0.0380403 -0.402095 0)
(-0.0438779 -0.401908 0)
(-0.0491115 -0.401766 0)
(-0.053882 -0.401655 0)
(-0.0583278 -0.401502 0)
(-0.0625924 -0.401196 0)
(-0.0668296 -0.400602 0)
(-0.0712061 -0.399565 0)
(-0.0759025 -0.397914 0)
(-0.0811118 -0.395473 0)
(-0.0870363 -0.392063 0)
(-0.0938838 -0.387511 0)
(-0.10186 -0.381645 0)
(-0.11116 -0.374299 0)
(-0.121967 -0.365309 0)
(-0.134435 -0.35451 0)
(-0.148624 -0.34174 0)
(-0.164735 -0.326847 0)
(-0.181664 -0.30971 0)
(-0.00706147 -0.374495 0)
(-0.0159913 -0.390125 0)
(-0.0251728 -0.393422 0)
(-0.0334994 -0.394606 0)
(-0.0411899 -0.395201 0)
(-0.048302 -0.3956 0)
(-0.0549757 -0.395905 0)
(-0.0613484 -0.396103 0)
(-0.0675558 -0.396118 0)
(-0.0737378 -0.395833 0)
(-0.0800395 -0.395104 0)
(-0.0866124 -0.393766 0)
(-0.0936135 -0.391641 0)
(-0.101203 -0.388545 0)
(-0.109544 -0.384298 0)
(-0.118795 -0.378725 0)
(-0.129109 -0.371664 0)
(-0.140621 -0.362966 0)
(-0.153456 -0.352494 0)
(-0.167716 -0.340125 0)
(-0.183398 -0.325749 0)
(-0.200707 -0.309291 0)
(-0.21846 -0.290701 0)
(-0.00699319 -0.363625 0)
(-0.0162341 -0.380063 0)
(-0.0259034 -0.384199 0)
(-0.0349292 -0.386079 0)
(-0.0434943 -0.387232 0)
(-0.0516388 -0.388054 0)
(-0.0594915 -0.388652 0)
(-0.0671826 -0.389009 0)
(-0.0748417 -0.389048 0)
(-0.0826006 -0.388648 0)
(-0.0905932 -0.387662 0)
(-0.0989536 -0.385923 0)
(-0.107815 -0.38325 0)
(-0.117306 -0.379462 0)
(-0.127552 -0.374382 0)
(-0.138669 -0.367843 0)
(-0.15076 -0.359695 0)
(-0.163913 -0.349806 0)
(-0.178203 -0.338066 0)
(-0.193678 -0.324385 0)
(-0.210324 -0.3087 0)
(-0.2283 -0.290981 0)
(-0.246384 -0.271248 0)
(-0.00685419 -0.352735 0)
(-0.01625 -0.369705 0)
(-0.026229 -0.374468 0)
(-0.0357515 -0.376868 0)
(-0.0449687 -0.378421 0)
(-0.0539041 -0.379524 0)
(-0.0626744 -0.380281 0)
(-0.0714001 -0.380673 0)
(-0.080202 -0.38062 0)
(-0.0892019 -0.380001 0)
(-0.09852 -0.378668 0)
(-0.108273 -0.376458 0)
(-0.11857 -0.373196 0)
(-0.129511 -0.368709 0)
(-0.141187 -0.362827 0)
(-0.153676 -0.355396 0)
(-0.16704 -0.34628 0)
(-0.181325 -0.335365 0)
(-0.196564 -0.322564 0)
(-0.212779 -0.307814 0)
(-0.229906 -0.291085 0)
(-0.24812 -0.27239 0)
(-0.266196 -0.251782 0)
(-0.00664779 -0.341966 0)
(-0.0160486 -0.359219 0)
(-0.0261651 -0.364423 0)
(-0.035988 -0.367185 0)
(-0.0456403 -0.369 0)
(-0.0551308 -0.370261 0)
(-0.0645631 -0.371065 0)
(-0.074047 -0.371391 0)
(-0.083693 -0.371155 0)
(-0.0936114 -0.370237 0)
(-0.103909 -0.368495 0)
(-0.114683 -0.365772 0)
(-0.126023 -0.361905 0)
(-0.138001 -0.356731 0)
(-0.150679 -0.350095 0)
(-0.164101 -0.341856 0)
(-0.178296 -0.331895 0)
(-0.193275 -0.320114 0)
(-0.209041 -0.306445 0)
(-0.225577 -0.290847 0)
(-0.242829 -0.273316 0)
(-0.26092 -0.253884 0)
(-0.278657 -0.232646 0)
(-0.00637754 -0.331448 0)
(-0.0156408 -0.348766 0)
(-0.0257344 -0.354246 0)
(-0.0356703 -0.357234 0)
(-0.0455501 -0.359193 0)
(-0.0553692 -0.360508 0)
(-0.0652187 -0.361267 0)
(-0.0751974 -0.361445 0)
(-0.0854052 -0.360955 0)
(-0.0959407 -0.359682 0)
(-0.106897 -0.35749 0)
(-0.118355 -0.354233 0)
(-0.130382 -0.349761 0)
(-0.143031 -0.343928 0)
(-0.156335 -0.336594 0)
(-0.170311 -0.327636 0)
(-0.18496 -0.316948 0)
(-0.200266 -0.304449 0)
(-0.216206 -0.290085 0)
(-0.232752 -0.273835 0)
(-0.249807 -0.255703 0)
(-0.267521 -0.23575 0)
(-0.284733 -0.214081 0)
(-0.00605182 -0.321308 0)
(-0.0150459 -0.338497 0)
(-0.024968 -0.344112 0)
(-0.034841 -0.347208 0)
(-0.0447521 -0.349212 0)
(-0.0546858 -0.350495 0)
(-0.0647219 -0.351135 0)
(-0.074949 -0.3511 0)
(-0.0854572 -0.350305 0)
(-0.0963338 -0.348636 0)
(-0.107658 -0.345968 0)
(-0.119497 -0.342168 0)
(-0.131901 -0.337105 0)
(-0.144899 -0.330648 0)
(-0.158506 -0.322677 0)
(-0.172715 -0.313084 0)
(-0.187506 -0.301779 0)
(-0.202839 -0.288694 0)
(-0.218674 -0.273789 0)
(-0.234956 -0.25705 0)
(-0.25161 -0.238497 0)
(-0.268731 -0.218192 0)
(-0.285219 -0.196267 0)
(-0.00567976 -0.311655 0)
(-0.0142837 -0.328544 0)
(-0.0239038 -0.334179 0)
(-0.0335512 -0.337288 0)
(-0.043311 -0.339257 0)
(-0.0531599 -0.340438 0)
(-0.0631686 -0.340899 0)
(-0.0734175 -0.340603 0)
(-0.083988 -0.339461 0)
(-0.0949574 -0.337368 0)
(-0.106393 -0.334209 0)
(-0.118348 -0.329868 0)
(-0.130856 -0.324231 0)
(-0.143932 -0.317188 0)
(-0.157571 -0.308637 0)
(-0.171748 -0.298487 0)
(-0.186424 -0.286664 0)
(-0.201546 -0.27311 0)
(-0.217052 -0.257795 0)
(-0.23289 -0.240711 0)
(-0.248945 -0.221881 0)
(-0.265338 -0.201375 0)
(-0.281054 -0.179328 0)
(-0.0052759 -0.302588 0)
(-0.0133809 -0.319027 0)
(-0.0225862 -0.324591 0)
(-0.0318592 -0.327641 0)
(-0.0412996 -0.329512 0)
(-0.05088 -0.330537 0)
(-0.0606654 -0.330773 0)
(-0.0707306 -0.330174 0)
(-0.0811498 -0.328655 0)
(-0.0919918 -0.326117 0)
(-0.103313 -0.322459 0)
(-0.115155 -0.317582 0)
(-0.127538 -0.311391 0)
(-0.140462 -0.303798 0)
(-0.153908 -0.294719 0)
(-0.167839 -0.284081 0)
(-0.1822 -0.271823 0)
(-0.196923 -0.257899 0)
(-0.211939 -0.242285 0)
(-0.22717 -0.224976 0)
(-0.24253 -0.205995 0)
(-0.258079 -0.185408 0)
(-0.2729 -0.163352 0)
(-0.00485689 -0.294181 0)
(-0.0123621 -0.31004 0)
(-0.0210642 -0.315478 0)
(-0.029828 -0.318417 0)
(-0.0387957 -0.320145 0)
(-0.0479402 -0.320974 0)
(-0.0573252 -0.320947 0)
(-0.0670223 -0.320014 0)
(-0.0771012 -0.318092 0)
(-0.0876228 -0.315092 0)
(-0.0986347 -0.310929 0)
(-0.110167 -0.305521 0)
(-0.122229 -0.298796 0)
(-0.134812 -0.290683 0)
(-0.147884 -0.28112 0)
(-0.161397 -0.270051 0)
(-0.175287 -0.257426 0)
(-0.189476 -0.243212 0)
(-0.20388 -0.227389 0)
(-0.218424 -0.209953 0)
(-0.232982 -0.190922 0)
(-0.247642 -0.170356 0)
(-0.261562 -0.148383 0)
(-0.00445002 -0.286494 0)
(-0.0112584 -0.30166 0)
(-0.0193928 -0.306949 0)
(-0.0275241 -0.309753 0)
(-0.0358796 -0.311311 0)
(-0.0444369 -0.311913 0)
(-0.053263 -0.311593 0)
(-0.0624294 -0.310297 0)
(-0.0720021 -0.30795 0)
(-0.0820357 -0.304475 0)
(-0.0925694 -0.299801 0)
(-0.103624 -0.293867 0)
(-0.115202 -0.286621 0)
(-0.127284 -0.278013 0)
(-0.139833 -0.267998 0)
(-0.152795 -0.256537 0)
(-0.166097 -0.243597 0)
(-0.179654 -0.229154 0)
(-0.193375 -0.213193 0)
(-0.207157 -0.195709 0)
(-0.220904 -0.176713 0)
(-0.234631 -0.156252 0)
(-0.247586 -0.134447 0)
(-0.00409592 -0.279568 0)
(-0.0100997 -0.293938 0)
(-0.0176329 -0.299102 0)
(-0.0250167 -0.301772 0)
(-0.0326323 -0.303148 0)
(-0.0404667 -0.303502 0)
(-0.0485943 -0.302862 0)
(-0.0570882 -0.301179 0)
(-0.0660113 -0.298386 0)
(-0.0754116 -0.294421 0)
(-0.0853207 -0.289231 0)
(-0.0957523 -0.282774 0)
(-0.106702 -0.275016 0)
(-0.118148 -0.265926 0)
(-0.130051 -0.255478 0)
(-0.142354 -0.243651 0)
(-0.154982 -0.230426 0)
(-0.167845 -0.215791 0)
(-0.180841 -0.199741 0)
(-0.193867 -0.18227 0)
(-0.206775 -0.163384 0)
(-0.219599 -0.143111 0)
(-0.231659 -0.121549 0)
(-0.00386659 -0.273425 0)
(-0.00892487 -0.286901 0)
(-0.0158567 -0.292022 0)
(-0.0223785 -0.29459 0)
(-0.029135 -0.295781 0)
(-0.0361253 -0.29587 0)
(-0.0434338 -0.294887 0)
(-0.0511344 -0.292793 0)
(-0.0592849 -0.289535 0)
(-0.0679258 -0.285067 0)
(-0.0770808 -0.279356 0)
(-0.0867581 -0.272377 0)
(-0.0969508 -0.26411 0)
(-0.107637 -0.254543 0)
(-0.118782 -0.243667 0)
(-0.130332 -0.231476 0)
(-0.142217 -0.217971 0)
(-0.154348 -0.203157 0)
(-0.166617 -0.187039 0)
(-0.178895 -0.169623 0)
(-0.191048 -0.150906 0)
(-0.203012 -0.130899 0)
(-0.214188 -0.109667 0)
(-0.0038937 -0.267994 0)
(-0.00777558 -0.280554 0)
(-0.0141511 -0.285794 0)
(-0.0196856 -0.288316 0)
(-0.0254682 -0.289328 0)
(-0.0315074 -0.289131 0)
(-0.0378957 -0.287778 0)
(-0.0447029 -0.285249 0)
(-0.0519771 -0.28151 0)
(-0.059748 -0.276534 0)
(-0.0680312 -0.270302 0)
(-0.0768307 -0.262802 0)
(-0.0861404 -0.254028 0)
(-0.0959448 -0.243981 0)
(-0.106217 -0.232665 0)
(-0.116919 -0.220092 0)
(-0.127992 -0.206282 0)
(-0.139359 -0.191262 0)
(-0.150912 -0.175061 0)
(-0.162523 -0.157703 0)
(-0.173994 -0.139192 0)
(-0.18525 -0.119526 0)
(-0.195693 -0.098722 0)
(-0.00448797 -0.262964 0)
(-0.00674233 -0.274908 0)
(-0.0126279 -0.280524 0)
(-0.0170168 -0.283073 0)
(-0.0217093 -0.283897 0)
(-0.0267059 -0.283382 0)
(-0.0320947 -0.281626 0)
(-0.0379297 -0.27864 0)
(-0.0442412 -0.274413 0)
(-0.051044 -0.268931 0)
(-0.0583441 -0.262185 0)
(-0.0661431 -0.254173 0)
(-0.0744391 -0.244896 0)
(-0.083227 -0.23436 0)
(-0.092497 -0.222581 0)
(-0.102232 -0.209585 0)
(-0.1124 -0.19541 0)
(-0.122949 -0.180112 0)
(-0.133795 -0.163755 0)
(-0.144799 -0.146401 0)
(-0.155777 -0.128088 0)
(-0.166518 -0.108821 0)
(-0.17641 -0.0885739 0)
(-0.00638506 -0.257787 0)
(-0.00605763 -0.270027 0)
(-0.0114161 -0.276374 0)
(-0.0144381 -0.27901 0)
(-0.0179232 -0.279598 0)
(-0.0218086 -0.278703 0)
(-0.0261455 -0.276502 0)
(-0.0309522 -0.273043 0)
(-0.0362305 -0.268331 0)
(-0.0419759 -0.26236 0)
(-0.0481845 -0.255126 0)
(-0.0548567 -0.246624 0)
(-0.061997 -0.236855 0)
(-0.069614 -0.225827 0)
(-0.0777192 -0.213558 0)
(-0.0863251 -0.200081 0)
(-0.0954393 -0.18545 0)
(-0.105056 -0.169748 0)
(-0.115139 -0.153084 0)
(-0.125602 -0.135585 0)
(-0.136231 -0.117369 0)
(-0.146794 -0.0985076 0)
(-0.156559 -0.0789694 0)
(-0.0108934 -0.252407 0)
(-0.00613404 -0.265992 0)
(-0.0106049 -0.273511 0)
(-0.0119761 -0.276271 0)
(-0.01415 -0.27651 0)
(-0.0168944 -0.275141 0)
(-0.0201619 -0.27245 0)
(-0.0239077 -0.268514 0)
(-0.0280963 -0.263342 0)
(-0.0327019 -0.256924 0)
(-0.0377119 -0.249246 0)
(-0.0431263 -0.240296 0)
(-0.0489565 -0.230067 0)
(-0.0552245 -0.21856 0)
(-0.061963 -0.205785 0)
(-0.069216 -0.191772 0)
(-0.0770374 -0.176579 0)
(-0.0854866 -0.160303 0)
(-0.0946154 -0.143095 0)
(-0.104428 -0.125166 0)
(-0.114845 -0.10677 0)
(-0.12558 -0.0881695 0)
(-0.135811 -0.0694685 0)
(-0.0194168 -0.247793 0)
(-0.00708625 -0.263383 0)