/*--------------------------------*- C++ -*----------------------------------*\
  =========                 |
  \\      /  F ield         | OpenFOAM: The Open Source CFD Toolbox
   \\    /   O peration     | Website:  https://openfoam.org
    \\  /    A nd           | Version:  13
     \\/     M anipulation  |
\*---------------------------------------------------------------------------*/
FoamFile
{
    format      ascii;
    class       volScalarField;
    location    "0.9";
    object      alphas;
}
// * * * * * * * * * * * * * * * * * * * * * * * * * * * * * * * * * * * * * //

dimensions      [];

internalField   nonuniform List<scalar> 
2268
(
2
2
2
2
2
2
2
2
2
2
2
2
2
2
2
2
2
2
2
2
1.99982
1.99943
1.99943
2
2
2
2
2
2
2
2
2
2
2
2
2
2
2
2
2
2
2
2
1.99999
1.99981
1.99948
2
2
2
2
2
2
2
2
2
2
2
2
2
2
2
2
2
2
2
2
2
2
1.99999
2
2
2
2
2
2
2
2
2
2
2
2
2
2
2
2
2
2
2
2
2
2
2
2
2
2
2
2
2
2
2
2
2
2
2
2
2
2
2
2
2
2
2
2
1.99999
1.99998
2
2
2
2
2
2
2
2
2
2
2
2
2
1.99761
1.98732
1.96745
1.93774
1.89932
1.85526
1.80599
1.75009
1.68269
1.61792
1.70237
1.29101
1.32292
1.44309
1.5438
1.63786
1.68514
1.65916
1.57398
1.48439
1.40279
1.30695
1.18654
1.03265
0.881534
0.740245
0.61465
0.50587
0.416209
0.339194
0.268378
0.207492
0.171878
0.203181
0.0308586
0.0421796
0.0827926
0.12976
0.156359
0.141402
0.124245
0.128867
0.125647
0.0977135
0.0493733
0.00506234
6.61019e-09
4.1737e-08
2.8473e-07
1.46574e-06
4.3067e-06
6.70759e-06
7.3397e-06
2.31087e-05
0.000542374
0.100875
1.05865
1.06334
1.07285
1.14189
1.18731
1.17258
1.11701
1.07912
1.07898
1.12019
1.42748
1.57609
1.40274
1.2941
1.3351
2.09054
2.42402
2.11203
1.95905
1.06104
1.14737
1.27398
1.18777
1.03416
1.01751
1.0855
1.21388
1.32243
1.54781
1.80338
1.84695
1.83602
1.7837
1.58658
1.87899
2.50098
2.08717
1.73177
1.07296
1.19644
0.843557
0.521653
0.253592
0.294465
0.47953
0.706957
0.711769
0.606795
0.684821
1.16394
1.73772
1.77237
1.83757
1.76015
2.53113
2.24235
1.68853
0.982946
0.453784
0.212017
0.0211831
0.000594799
0.00056291
0.000537925
0.00115067
0.0099157
0.00140964
0.000702756
0.104812
0.741173
1.3769
1.71821
1.60572
2.47654
2.10989
1.71585
0.245085
0.103765
0.00210551
0.00130124
0.000829759
0.000786738
0.000496189
0.000371989
0.000370586
0.000362247
0.000505859
0.000860072
0.00152431
0.254428
1.25789
1.80135
2.19143
1.84749
1.86439
0.469384
0.122907
0.132158
0.104774
0.0517097
0.0157869
0.00267866
0.000632144
0.000316917
0.000299209
0.000320976
0.0011261
0.00141186
0.120573
1.25517
1.97166
1.98318
1.64074
1.75681
1.24946
1.10047
1.00285
0.761641
0.626869
0.480707
0.293806
0.116968
0.00323597
0.000398694
0.00034718
0.000299346
0.00116001
0.276167
1.71332
2.34069
2.32955
1.52869
1.69626
1.68157
1.74457
1.49656
1.14162
1.08254
1.05556
0.948879
0.760966
0.455159
0.0889253
0.000471965
0.000314405
0.011542
0.705791
2.33998
2.60635
2.52301
1.30449
1.70033
1.04415e-07
1.05645e-09
1.11706e-09
1.10017e-09
1.09053e-09
1.0965e-09
1.05289e-09
8.72916e-10
8.36201e-10
8.58703e-10
9.61543e-10
1.48236e-09
4.06114e-09
1.29055e-08
4.19838e-08
1.39337e-07
2.27778e-07
3.43462e-07
6.29924e-07
1.8603e-06
0.000137529
0.166801
1.22976
1.12206e-08
1.40724e-08
1.3474e-08
9.75467e-09
4.93173e-09
4.52382e-09
2.18461e-09
2.18614e-09
2.02454e-09
1.87815e-09
1.79718e-09
1.7313e-09
1.90061e-09
3.1182e-09
1.61034e-08
4.60739e-08
4.51227e-08
7.67955e-08
0.000125801
0.0280809
0.499616
1.72722
1.95667
9.89886e-09
1.00113e-08
9.63481e-09
8.03347e-09
4.11265e-09
2.653e-09
2.24511e-09
3.1262e-09
4.43331e-09
4.72482e-09
3.46945e-09
1.82163e-09
5.27286e-09
1.94159e-08
4.68323e-08
5.25876e-07
0.00494579
0.0565859
0.63547
1.53962
1.87648
1.32404
1
4.91415e-09
4.95152e-09
4.702e-09
4.08794e-09
2.32042e-09
1.69692e-09
1.1661e-09
7.96758e-10
5.34195e-10
2.97918e-10
1.9331e-11
3.40748e-08
1.37294e-07
2.33659e-07
2.39545e-07
0.0804235
1.22434
1.91554
2.04083
1.10835
0.999899
1
1
2.44549e-09
2.47612e-09
2.37897e-09
4.9569e-10
1.18107e-10
1.93651e-11
1.33425e-12
8.00024e-13
7.5965e-12
3.21265e-10
6.71594e-09
2.86239e-08
0.035
0.579212
1.4786
1.67638
1.76079
1.01389
1.01859
1.01381
1.00004
1
1
1.75849e-09
8.44539e-10
9.46119e-10
6.37883e-11
9.1336e-08
1.01801e-07
0.0960766
0.281914
0.428849
0.542958
0.695352
1.15427
1.63724
1.82561
1.34738
1.04241
1.0812
1.00706
1
1
1.00001
1
1.00018
0.430952
0.383496
0.480686
0.734169
1.12808
1.63804
2.09512
2.37892
2.55166
2.65897
2.73092
2.57992
1.21374
0.999492
1.02341
1
1
1.00001
1.00001
1
1
1
1.00001
2.66528
2.62863
2.69931
2.83819
2.9519
2.99889
3
3
3
2.99997
2.9934
1.77724
0.998769
0.998206
0.999948
0.999991
0.999991
0.999997
0.999999
1
1.01159
1.01308
1
3
3
3
3
3
3
3
3
3
3
2.99984
2.88969
2.21441
1.208
1.00015
1.0084
1.15078
1.31279
1.51271
1.91039
2.14194
1.98175
1.7668
3
3
3
3
3
3
3
3
3
3
3
3
2.99999
2.88035
2.71008
2.71132
2.80863
2.91304
2.96763
2.99575
3
3
3
3
3
3
3
3
3
3
3
3
3
3
3
3
3
3
3
3
3
3
3
3
3
3
3
3
3
3
3
3
3
3
3
3
3
3
3
3
3
3
3
3
3
3
3
3
3
3
3
3
3
3
3
3
3
3
3
3
3
3
3
3
3
2.99999
2.99999
2.99999
3
3
2.99999
2.99999
3
3
3
3
3
3
3
3
3
3
3
3
3
3
3
3
3
3
2.99975
2.99952
2.99986
2.99999
2.99999
3
3
3
3
3
3
3
3
3
3
3
3
3
3
3
3
3
3
2.99985
2.99952
2.99952
2.9998
2.99999
3
3
3
3
3
3
3
3
3
3
3
3
3
3
3
3
3
3
3
2.99973
2.99952
2.99968
2.99999
3
3
3
3
3
3
3
3
3
3
3
3
3
3
3
3
3
3
3
3
2.99987
2.99991
2.99999
3
3
3
3
3
3
3
3
3
3
3
3
3
3
3
3
3
3
3
3
3
3
3
3
3
3
3
3
3
3
3
3
3
3
3
3
3
3
3
3
3
3
3
3
3
3
3
3
3
3
3
3
3
3
3
3
3
3
3
3
3
3
3
3
3
3
3
3
3
3
3
3
3
3
3
3
3
3
3
3
3
3
3
3
3
3
3
3
3
3
3
3
3
3
3
3
3
3
3
3
3
3
3
3
3
3
3
3
3
3
3
3
3
3
3
3
3
3
3
3
3
3
3
3
3
3
3
3
3
3
3
3
3
3
3
3
3
3
3
3
3
3
3
3
3
3
3
3
3
3
3
3
3
3
3
3
3
3
3
3
3
3
3
3
3
3
3
3
3
3
3
3
3
3
3
3
3
3
3
3
3
3
3
3
3
3
3
3
3
3
3
3
3
3
3
3
3
3
3
3
3
3
3
3
3
3
3
3
3
3
3
3
3
3
3
3
3
3
3
3
3
3
3
3
3
3
3
3
3
3
3
3
3
3
3
3
3
3
3
3
3
3
3
3
3
3
3
3
3
3
3
3
3
3
3
3
3
3
3
3
3
3
3
3
3
3
3
3
3
3
3
3
3
3
3
3
3
3
3
3
3
3
3
3
3
3
3
3
3
3
3
3
3
3
3
3
3
3
3
3
3
3
3
3
3
3
3
3
3
3
3
3
3
3
3
3
3
3
3
3
3
3
3
3
3
3
3
3
3
3
3
3
3
3
3
3
3
3
3
3
3
3
3
3
3
3
3
3
3
3
3
3
3
3
3
3
3
3
3
3
3
3
3
3
3
3
3
3
3
3
3
3
3
3
3
3
3
3
3
3
3
3
3
3
3
3
3
3
3
3
3
3
3
3
3
3
3
3
3
3
3
3
3
3
3
3
3
3
3
3
3
3
3
3
3
3
3
3
3
3
3
3
3
3
3
3
3
3
3
3
3
3
3
3
3
3
3
3
3
3
3
3
3
3
3
3
3
3
3
3
3
3
3
3
3
3
3
3
3
3
3
3
3
3
3
3
3
3
3
3
3
3
3
3
3
3
3
3
3
3
3
3
3
3
3
3
3
3
3
3
3
3
3
3
3
3
3
3
3
3
3
3
3
3
3
3
3
3
3
3
3
3
3
3
3
3
3
3
3
3
3
3
3
3
3
3
3
3
3
3
3
3
3
3
3
3
3
3
3
3
3
3
3
3
3
3
3
3
3
3
3
3
3
3
3
3
3
3
3
3
3
3
3
3
3
3
3
3
3
3
3
3
3
3
3
1.47843
1.37148
1.13011
1.36041
1.25808
1
1
1
1
1
1
1
1
1.00003
1.00005
1.00005
1.0002
1.00024
1.00024
1.00024
1.00023
1.00024
1.00024
1.00003
1.00002
1
1
1
1.01302
1.02617
1.0132
1
2.21311
2.35975
2.02035
1.7837
3
3
3
3
3
3
3
3
3
3
3
3
3
3
3
3
2.99999
3
3
3
2.99998
2.99998
2.99999
2.99999
2.99998
2.99998
2.99998
2.99998
3
2.99999
2.99999
2.99999
3
3
3
3
3
3
3
3
3
3
3
3
3
3
3
3
3
3
3
3
3
3
3
3
3
3
3
3
3
3
3
3
3
3
3
3
3
3
3
3
3
3
3
3
3
3
3
3
3
3
3
3
3
3
3
3
3
3
3
3
3
3
3
3
3
3
3
3
3
3
3
3
3
3
3
3
3
3
3
3
3
3
3
3
3
3
3
3
3
3
3
3
3
3
3
3
3
3
3
3
1.60707
1.20645
1.00154
1
1.00106
1.00705
1.007
1.0082
0.992601
0.843502
0.294259
0.00085591
0.0144919
0.894007
2.19087
2.29566
2.01466
1.19232
1.69867
1
1
1
1
1
1
1
1
1.00004
1.00027
0.951887
0.290888
0.0143596
0.278286
1.28685
1.70853
1.07943
1.29672
1.95407
1
1
1
1
1
1
1
1
1
1
1.00002
0.925955
0.256226
0.130596
0.241433
0.469486
0.406108
0.996485
2.18908
1.00002
1
1
1
1
1
1
1
1
1
1.00005
1.0001
0.935668
0.406392
0.169143
0.211017
0.306785
0.939432
2.15241
1.00006
1
1
1
1
1
1
1
1
1
1
1.00205
1.00579
0.981222
0.798029
0.583587
0.849898
0.988355
2.00962
1
1
1
1
1
1
1
1
1
1
1
1
1.00738
1.0555
1.06668
1.06882
1.03381
1.02577
2.06953
1
1
1
1
1
1
1
1
1
1
1
1
1.00003
1.0057
1.11845
1.21074
1.20659
1.42833
2.50808
1
1
1
1
1
1
1
1
1
1
1
1
1
1
1.00001
1.09904
1.54597
2.13201
2.66864
1.71576
1.59565
1.42727
1.27173
1.15204
1.07683
1.03584
1.01496
1.00532
1.00215
1.00141
1.00467
1.01354
1.02808
1.06634
1.25254
1.92764
2.30363
2.66783
3
2.97696
2.88612
2.75819
2.59634
2.43244
2.28647
2.15942
2.05485
1.99042
1.97452
2.06505
2.17434
2.28953
2.46137
2.56924
2.52757
2.39947
2.27728
3
3
3
3
3
3
3
3
3
3
3
3
3
3
3
3
3
3
2.99993
3
3
3
3
3
3
3
3
3
3
3
3
3
2.99932
2.99641
2.99582
2.99744
2.99943
2.99967
3
3
3
3
3
3
3
3
3
3
3
3
3
2.99775
2.99133
2.9909
2.99504
2.99941
2.99914
3
3
3
3
3
3
3
3
3
3
2.99999
2.99998
2.99993
2.99957
2.99992
2.99982
3
3
3
2.99999
3
3
3
3
3
3
3
3
3
2.99999
2.99997
2.99998
3
3
3
2.99999
2.99998
3
2.99999
2.99999
3
3
3
3
3
3
3
3
3
3
3
3
3
3
2.99998
2.99998
3
2.99999
2.99999
3
3
3
3
3
3
3
3
3
3
3
3
3
3
3
2.99999
3
3
3
3
3
3
3
3
3
3
3
3
3
3
3
3
3
3
3
3
3
3
3
3
3
3
3
3
3
3
3
3
3
3
3
3
3
3
3
3
3
3
3
3
3
3
3
3
3
3
3
3
3
3
3
3
3
3
3
3
3
3
3
3
3
3
3
3
3
3
3
3
3
3
3
3
3
3
3
3
3
3
3
3
3
3
3
3
3
3
3
3
3
3
3
3
3
3
3
3
3
3
3
3
3
3
3
3
3
3
3
3
3
3
3
3
3
3
3
3
3
3
3
3
3
3
3
3
3
3
3
3
3
3
3
3
3
3
3
3
3
3
3
3
3
3
3
3
3
3
3
3
3
3
3
3
3
3
3
3
3
3
3
3
3
3
3
3
3
3
3
3
3
3
3
3
3
3
3
3
3
3
3
3
3
3
3
3
3
3
3
3
3
3
3
3
3
3
3
3
3
3
3
3
3
3
3
3
3
3
3
3
3
3
3
3
3
3
3
3
3
3
3
3
3
3
3
3
3
3
3
3
3
3
3
3
3
3
3
3
3
3
3
3
3
3
3
3
3
3
3
3
3
3
3
3
3
3
3
3
3
3
3
3
3
3
3
3
3
3
3
3
3
3
3
3
3
3
3
3
3
3
3
3
3
3
3
3
3
3
3
3
3
3
3
3
3
3
3
3
3
3
3
3
3
3
3
3
3
3
3
3
3
3
3
3
3
3
3
3
3
3
3
3
3
3
3
3
3
3
3
3
3
3
3
3
3
3
3
3
3
3
3
3
3
3
3
3
3
3
3
3
3
3
3
3
3
3
3
3
3
3
3
3
3
3
3
3
3
3
3
3
3
3
3
3
3
3
3
3
3
3
3
3
3
3
3
3
3
3
3
3
3
3
3
3
3
3
3
3
3
3
3
3
3
3
3
3
3
3
3
3
3
3
3
3
3
3
3
3
3
3
3
3
3
3
3
3
3
3
3
3
3
3
3
3
3
3
3
3
3
3
3
3
3
3
3
3
3
3
3
3
3
3
3
3
3
3
3
3
3
3
3
3
3
3
3
3
3
3
3
3
3
3
3
3
)
;

boundaryField
{
    leftWall
    {
        type            calculated;
        value           nonuniform List<scalar> 
50
(
2
2
2
2
2
2
1.70237
0.203181
1.04415e-07
1.12206e-08
9.89886e-09
4.91415e-09
2.44549e-09
1.75849e-09
0.430952
2.66528
3
3
3
3
3
3
3
3
3
3
3
3
3
3
3
3
3
3
3
3
3
3
3
3
3
3
3
3
3
3
3
3
3
3
)
;
    }
    rightWall
    {
        type            calculated;
        value           nonuniform List<scalar> 
50
(
1.95905
1.73177
1.68853
1.71585
1.86439
1.75681
1.69626
1.70033
1.69867
1.95407
2.18908
2.15241
2.00962
2.06953
2.50808
2.66864
2.66783
2.27728
2.99993
2.99967
2.99914
3
3
3
3
3
3
3
3
3
3
3
3
3
3
3
3
3
3
3
3
3
3
3
3
3
3
3
3
3
)
;
    }
    lowerWall
    {
        type            calculated;
        value           nonuniform List<scalar> 
62
(
2
2
2
2
2
2
2
2
2
2
2
2
2
2
2
2
2
2
2
2
1.99982
1.99943
1.99943
1.99943
1.99948
1.99999
2
1.99998
1.61792
0.171878
0.100875
1.47843
1.37148
1.13011
1.36041
1.05865
1.06104
1.07296
0.982946
0.245085
0.469384
1.24946
1.68157
1.05865
1.06334
1.07285
1.14189
1.18731
1.17258
1.11701
1.07912
1.07898
1.12019
1.42748
1.57609
1.40274
1.2941
1.3351
2.09054
2.42402
2.11203
1.95905
)
;
    }
    atmosphere
    {
        type            calculated;
        value           nonuniform List<scalar> 
46
(
3
3
3
3
3
3
3
3
3
3
3
3
3
3
3
3
3
3
3
3
3
3
3
3
3
3
3
3
3
3
3
3
3
3
3
3
3
3
3
3
3
3
3
3
3
3
)
;
    }
    defaultFaces
    {
        type            empty;
    }
}


// ************************************************************************* //
