/*--------------------------------*- C++ -*----------------------------------*\
  =========                 |
  \\      /  F ield         | OpenFOAM: The Open Source CFD Toolbox
   \\    /   O peration     | Website:  https://openfoam.org
    \\  /    A nd           | Version:  13
     \\/     M anipulation  |
\*---------------------------------------------------------------------------*/
FoamFile
{
    format      ascii;
    class       volScalarField;
    location    "0.9";
    object      alpha.air;
}
// * * * * * * * * * * * * * * * * * * * * * * * * * * * * * * * * * * * * * //

dimensions      [];

internalField   nonuniform List<scalar> 
2268
(
1.44115e-14
2.43486e-14
9.99605e-15
3.38149e-15
2.00516e-15
1.03232e-15
2.83895e-16
6.06856e-17
3.05246e-17
2.83613e-17
3.50848e-17
4.0607e-17
3.98285e-17
3.59453e-17
3.75638e-17
4.13575e-17
4.73433e-17
5.3289e-17
5.36135e-17
2.60395e-16
3.41752e-16
3.17738e-16
6.44079e-16
8.62349e-14
1.35508e-13
4.09235e-14
1.71667e-14
9.19855e-15
6.06014e-15
3.84006e-15
1.96309e-15
9.68426e-16
9.97269e-16
1.20094e-15
1.08483e-15
8.01687e-16
5.35109e-16
4.15391e-16
3.84904e-16
3.56051e-16
4.40633e-16
2.2947e-15
2.62364e-14
7.09058e-14
1.02597e-13
4.95367e-14
3.58339e-13
6.28186e-13
2.64878e-13
1.15377e-13
5.14908e-14
2.47242e-14
1.37005e-14
1.24669e-14
1.81284e-14
2.49551e-14
2.75314e-14
2.00622e-14
1.37057e-14
8.25956e-15
5.28701e-15
4.92105e-15
4.53523e-15
5.50903e-15
4.90014e-14
2.30224e-13
8.03903e-13
2.02968e-12
2.03246e-12
4.21901e-12
4.26096e-12
3.08316e-12
1.64051e-12
7.87721e-13
2.68812e-13
1.25334e-13
1.23229e-13
1.92741e-13
2.2945e-13
2.10159e-13
1.57186e-13
9.38494e-14
6.94519e-14
7.15845e-14
7.65663e-14
6.73553e-14
1.53914e-13
7.02423e-13
3.36139e-12
6.65656e-12
1.03476e-11
2.02079e-11
1.934e-11
2.32771e-11
1.80474e-11
1.31579e-11
8.38354e-12
4.8157e-12
3.0701e-12
2.56394e-12
2.0388e-12
1.46696e-12
1.01111e-12
6.24825e-13
3.62373e-13
3.03283e-13
3.48605e-13
3.2615e-13
2.59146e-13
6.87727e-13
2.19504e-12
7.00819e-12
9.93516e-12
6.51674e-11
7.60713e-10
4.25871e-11
4.33521e-11
3.70145e-11
3.08448e-11
2.3628e-11
1.84679e-11
1.56433e-11
1.23491e-11
7.37773e-12
4.41766e-12
2.8435e-12
1.76483e-12
1.25147e-12
2.26161e-12
7.22139e-12
1.5177e-11
3.12835e-11
3.19869e-11
2.51204e-10
5.71413e-13
5.44914e-13
4.39175e-09
1.53821e-07
9.2585e-11
9.60515e-11
8.5174e-11
7.32382e-11
5.99583e-11
4.83755e-11
4.02738e-11
3.57982e-11
3.39147e-11
3.27262e-11
3.16985e-11
3.17127e-11
3.85687e-11
1.01665e-10
2.82465e-10
6.51267e-10
1.73617e-09
4.21135e-09
5.92034e-09
1.2353e-07
6.52356e-07
9.48199e-09
4.40331e-06
2.05148e-10
1.95154e-10
1.65295e-10
1.55864e-10
1.41081e-10
1.32802e-10
1.28034e-10
1.28176e-10
1.31571e-10
1.37244e-10
1.47372e-10
1.7163e-10
2.61709e-10
5.60963e-10
1.27066e-09
2.53925e-09
5.91753e-09
1.48296e-08
5.78902e-09
7.04899e-07
6.19909e-06
2.96782e-08
0.00893206
0.00984862
0.0139665
0.0187262
0.0216016
0.00872935
0.00248115
1.15984e-06
2.13527e-06
4.76427e-06
2.81253e-06
0.0177327
0.0217572
0.0185135
0.00188677
0.0430154
0.426157
0.505568
0.221802
0.151609
0.012062
0.0552627
0.109449
0.103317
0.0319904
0.00947811
1.52893e-05
4.12159e-12
2.72716e-05
5.01655e-05
0.000355485
0.0043341
0.00415832
0.00103678
0.00280499
0.320254
0.583616
0.221423
0.0950842
0.0220776
0.110237
0.111831
0.0716167
0.0122705
0.00120889
1.18194e-18
5.59723e-12
2.89886e-06
0.000160087
0.00035957
0.000122318
0.000715461
0.000340494
4.57988e-05
0.228016
0.641113
0.440459
0.0950886
0.0568487
0.0331373
0.00361154
1.93375e-05
1.99304e-05
1.93024e-05
1.01963e-05
5.01476e-06
1.18605e-05
6.81923e-05
0.000133682
9.35369e-05
1.79908e-05
1.63595e-05
1.81147e-05
0.0558416
0.645778
0.473728
0.0986149
0.0298658
0.0032892
0.00070175
0.000433561
0.000256852
0.000248193
0.000102448
3.23981e-05
5.42514e-06
6.72654e-06
4.03687e-05
4.5275e-06
2.11867e-05
2.82837e-06
0.000606754
0.0527767
0.502414
0.332927
0.135051
0.142934
0.0409688
0.0440524
0.0349246
0.0169459
0.00526233
0.000892986
0.00017245
1.46978e-05
2.04681e-06
3.11629e-07
1.18227e-07
3.93836e-06
1.17059e-06
8.15344e-07
0.151765
0.321302
0.111335
0.0356322
0.40562
0.34753
0.2768
0.138897
0.0578451
0.0354624
0.015366
0.00473262
0.00100059
5.01348e-05
2.96081e-05
9.85066e-08
6.77961e-18
0.00521111
0.204992
0.42117
0.475086
0.00537102
0.00535728
0.403947
0.403522
0.2525
0.0708112
0.0412683
0.0344165
0.0191986
0.00962463
0.0047554
0.00122013
7.5913e-05
1.18968e-08
-2.00433e-11
0.106747
0.576074
0.677345
0.665354
0.00535747
0.0073921
4.09722e-10
3.5215e-10
3.72353e-10
3.66722e-10
3.63511e-10
3.65501e-10
3.50963e-10
2.90967e-10
2.78369e-10
2.83425e-10
3.00317e-10
3.58227e-10
5.43606e-10
9.98062e-10
2.22189e-09
5.10264e-09
9.8474e-09
4.69725e-08
5.58722e-09
5.46363e-08
4.20201e-05
0.0513227
0.306017
5.93467e-10
5.64763e-10
5.68789e-10
6.36092e-10
6.77564e-10
7.24342e-10
7.28202e-10
7.28605e-10
6.73449e-10
6.22336e-10
5.87572e-10
5.52e-10
5.93973e-10
9.31885e-10
4.68942e-09
1.27963e-08
1.13319e-08
1.3048e-08
4.19207e-05
0.0093603
0.161404
0.485306
0.478335
6.18385e-10
6.19526e-10
6.34041e-10
6.68262e-10
6.9599e-10
6.9311e-10
7.48025e-10
1.04093e-09
1.47387e-09
1.56303e-09
1.1247e-09
4.13389e-10
4.9753e-11
-7.79622e-12
-1.83327e-11
1.40813e-07
0.00164859
0.018862
0.210649
0.438414
0.438239
0.162022
0
5.98109e-10
5.42373e-10
5.36838e-10
5.43621e-10
5.32627e-10
5.13872e-10
3.87893e-10
2.6505e-10
1.72437e-10
5.91862e-11
1.66195e-12
1.51008e-12
-1.45465e-13
-1.85178e-21
3.83103e-09
0.0268078
0.405996
0.560799
0.520414
0.0542519
-7.33401e-08
-1.63842e-15
-6.79742e-25
5.32727e-10
5.16268e-10
5.0059e-10
1.52055e-28
-1.79415e-13
1.2764e-14
-4.31789e-28
4.67175e-21
5.66754e-21
7.59757e-21
4.41983e-10
1.64429e-12
0.0116666
0.193071
0.492866
0.4836
0.380733
0.0069456
0.00929612
0.00690506
2.10471e-05
-1.68324e-23
2.19879e-06
5.56546e-10
2.7058e-10
3.05206e-10
6.22818e-25
3.04385e-08
3.39324e-08
0.0320255
0.0939713
0.14295
0.180986
0.231784
0.384756
0.545746
0.545262
0.189922
0.0212323
0.0406016
0.00352914
2.29342e-09
2.97513e-09
3.58881e-06
5.23589e-07
8.81809e-05
0.143651
0.127832
0.160229
0.244723
0.376026
0.546012
0.698372
0.792974
0.850553
0.886322
0.910308
0.824437
0.143234
0.0053785
0.0117075
2.59021e-06
2.27321e-06
2.84533e-06
4.72469e-06
1.24612e-07
1.7033e-09
3.01602e-09
7.24396e-06
0.888426
0.876211
0.899771
0.946063
0.983966
0.999631
1
1
1
0.999991
0.996702
0.38888
0.00061807
1.73811e-07
6.72314e-08
6.52861e-08
6.61161e-08
6.45194e-08
6.55774e-08
1.54944e-07
0.00579531
0.00654073
1.99849e-08
1
1
1
1
1
1
1
1
1
1
0.99992
0.944845
0.607256
0.104144
9.50875e-05
0.0042002
0.0753904
0.156394
0.256355
0.455196
0.570971
0.490875
0.383399
1
1
1
1
1
1
1
1
1
1
1
0.999999
0.999997
0.940175
0.855038
0.855658
0.904313
0.95652
0.983816
0.997877
1
1
1
1
1
1
1
1
1
1
1
1
1
1
1
1
0.999999
0.999999
1
1
1
1
1
1
1
1
1
1
1
1
1
1
1
1
1
1
1
1
1
1
1
1
1
1
1
1
0.999999
0.999999
1
1
1
1
1
1
1
1
1
1
1
1
1
1
1
1
1
0.999997
0.999994
0.999997
0.999999
0.999999
0.999998
0.999998
1
1
1
1
1
1
1
1
1
1
1
1
1
1
1
0.999999
0.999998
0.999999
0.999876
0.999762
0.999929
0.999998
0.999996
1
1
1
1
1
1
1
1
1
1
1
1
1
1
1
0.999999
0.999999
1
0.999927
0.999762
0.999762
0.999902
0.999997
1
1
1
1
1
1
1
1
1
1
1
1
1
1
1
1
1
1
1
0.999866
0.999762
0.999839
0.999994
1
1
1
1
1
1
1
1
1
1
1
1
1
1
1
1
1
1
1
0.999998
0.999933
0.999954
0.999993
1
1
1
1
1
1
1
1
1
1
1
1
1
1
1
1
1
1
1
1
1
1
1
1
1
1
1
1
1
1
1
1
1
1
1
1
1
1
1
1
1
1
1
1
1
1
1
1
1
1
1
1
1
1
1
1
1
1
1
1
1
1
1
1
1
1
1
1
1
1
1
1
1
1
1
1
1
1
1
1
1
1
1
1
1
1
1
1
1
1
1
1
1
1
1
1
1
1
1
1
1
1
1
1
1
1
1
1
1
1
1
1
1
1
1
1
1
1
1
1
1
1
1
1
1
1
1
1
1
1
1
1
1
1
1
1
1
1
1
1
1
1
1
1
1
1
1
1
1
1
1
1
1
1
1
1
1
1
1
1
1
1
1
1
1
1
1
1
1
1
1
1
1
1
1
1
1
1
1
1
1
1
1
1
1
1
1
1
1
1
1
1
1
1
1
1
1
1
1
1
1
1
1
1
1
1
1
1
1
1
1
1
1
1
1
1
1
1
1
1
1
1
1
1
1
1
1
1
1
1
1
1
1
1
1
1
1
1
1
1
1
1
1
1
1
1
1
1
1
1
1
1
1
1
1
1
1
1
1
1
1
1
1
1
1
1
1
1
1
1
1
1
1
1
1
1
1
1
1
1
1
1
1
1
1
1
1
1
1
1
1
1
1
1
1
1
1
1
1
1
1
1
1
1
1
1
1
1
1
1
1
1
1
1
1
1
1
1
1
1
1
1
1
1
1
1
1
1
1
1
1
1
1
1
1
1
1
1
1
1
1
1
1
1
1
1
1
1
1
1
1
1
1
1
1
1
1
1
1
1
1
1
1
1
1
1
1
1
1
1
1
1
1
1
1
1
1
1
1
1
1
1
1
1
1
1
1
1
1
1
1
1
1
1
1
1
1
1
1
1
1
1
1
1
1
1
1
1
1
1
1
1
1
1
1
1
1
1
1
1
1
1
1
1
1
1
1
1
1
1
1
1
1
1
1
1
1
1
1
1
1
1
1
1
1
1
1
1
1
1
1
1
1
1
1
1
1
1
1
1
1
1
1
1
1
1
1
1
1
1
1
1
1
1
1
1
1
1
1
1
1
1
1
1
1
1
1
1
1
1
1
1
1
1
1
1
1
1
1
1
1
1
1
1
1
1
1
1
1
1
1
1
1
1
1
1
1
1
1
1
1
1
1
1
1
1
1
1
1
1
1
1
1
1
1
1
1
1
1
1
1
1
1
1
1
1
1
1
1
1
1
1
1
1
1
1
1
1
1
1
1
1
1
1
1
1
1
1
1
1
1
1
1
1
1
0.3232
0.28705
0.240579
0.303049
0.129042
1.79864e-07
8.37943e-10
-3.80216e-11
1.32797e-08
8.94064e-08
9.32362e-12
1.20118e-09
1.05631e-06
1.68389e-05
2.63093e-05
2.5408e-05
9.88223e-05
0.000117942
0.000118456
0.0001177
0.000116405
0.000118467
0.000117724
1.62613e-05
1.204e-05
1.90039e-07
1.21198e-07
1.13778e-07
0.00650967
0.0130862
0.0066003
1.3605e-07
0.606557
0.679877
0.510174
0.391848
1
1
1
1
1
1
1
1
1
1
1
1
1
1
1
1
0.999996
0.999999
1
0.999999
0.999995
0.999994
0.999995
0.999995
0.999994
0.999994
0.999994
0.999995
0.999998
0.999998
0.999996
0.999995
1
1
1
1
1
1
1
1
1
1
1
1
1
1
1
1
1
1
1
1
1
1
1
1
1
1
1
1
1
1
1
1
1
1
1
1
1
1
1
1
1
1
1
1
1
1
1
1
1
1
1
1
1
1
1
1
1
1
1
1
1
1
1
1
1
1
1
1
1
1
1
1
1
1
1
1
1
1
1
1
1
1
1
1
1
1
1
1
1
1
1
1
1
1
1
1
1
1
1
1
0.302178
0.103223
0.000767561
-9.28747e-21
0.000528496
0.00352504
0.00350036
0.00409923
0.00279153
0.00108798
0.000520994
6.95043e-05
-1.75311e-06
0.162024
0.545075
0.59752
0.430081
0.0054086
0.027922
-2.48743e-11
8.44064e-25
-3.05496e-25
-7.56422e-12
7.24658e-22
9.08325e-16
4.8929e-13
7.0153e-08
1.88294e-05
0.000136631
0.000344108
0.000461851
0.00141556
0.0433049
0.227146
0.291769
0.0552674
0.00753948
0.436881
7.07836e-24
3.71442e-07
7.90238e-08
1.65887e-08
5.11805e-09
2.48469e-08
3.02092e-08
2.87456e-08
1.74534e-08
1.6548e-08
9.76552e-06
0.000199171
0.000905798
0.00289505
0.000368667
0.000729785
2.23193e-08
1.54082e-10
0.584363
1.24247e-05
1.84135e-07
3.49057e-09
3.29079e-09
3.47996e-09
1.66269e-07
4.24993e-07
3.16412e-07
7.45353e-08
5.92567e-08
2.25514e-05
4.79823e-05
5.55875e-05
5.20724e-05
0.000364714
2.73302e-05
4.9468e-08
-2.13995e-08
0.570558
3.04642e-05
5.44059e-09
4.45811e-09
6.5911e-09
1.58958e-08
2.09732e-07
1.01548e-06
1.25394e-06
2.66787e-07
1.21561e-07
1.76649e-07
0.00102222
0.00288993
0.000780788
2.81735e-05
0.000466896
6.52348e-15
1.2933e-18
0.504477
2.99574e-08
2.02751e-08
2.32445e-08
2.79747e-08
5.52729e-08
1.10886e-07
4.97731e-07
1.3444e-06
9.76236e-07
2.07457e-07
1.52799e-07
2.74016e-07
0.00363749
0.0277966
0.0375416
0.0351893
0.0191403
0.0140607
0.53405
7.38566e-08
5.80201e-08
5.17161e-08
5.84898e-08
7.96617e-08
1.64477e-07
3.62374e-07
1.3351e-06
1.34351e-06
5.97704e-07
1.14526e-07
6.8593e-08
7.20028e-08
0.00277657
0.0591032
0.106152
0.103288
0.213932
0.753149
7.4934e-08
5.78057e-08
8.41676e-08
1.23054e-07
1.73644e-07
2.72603e-07
4.33919e-07
6.1166e-07
5.23871e-07
2.35451e-07
7.47376e-08
3.20732e-07
4.2734e-07
2.04821e-06
2.73503e-06
0.0495053
0.272982
0.566005
0.833934
0.357881
0.297824
0.213634
0.135864
0.0760223
0.0384131
0.0179216
0.00747956
0.00266065
0.00107444
0.000702537
0.00233258
0.00676988
0.0140385
0.0331694
0.126268
0.463815
0.651812
0.833905
1
0.988481
0.943058
0.879097
0.798172
0.71622
0.643235
0.57971
0.527425
0.495209
0.487261
0.532523
0.58717
0.644763
0.730684
0.784621
0.763785
0.699734
0.638635
1
1
1
1
1
1
1
1
1
1
1
1
1
1
1
1
1
1
0.999966
1
1
1
0.999999
0.999999
1
1
1
1
1
1
1
1
0.999662
0.998204
0.997908
0.998721
0.999715
0.999837
1
1
0.999999
0.999998
0.999998
0.999998
0.999999
0.999999
1
0.999999
0.999998
0.999999
1
0.998877
0.995663
0.995452
0.997519
0.999705
0.999568
1
1
1
0.999998
0.999998
0.999998
0.999998
0.999998
0.999999
0.999999
0.999997
0.999991
0.999967
0.999786
0.999959
0.999908
1
1
1
0.999998
1
1
1
0.999999
0.999999
0.999998
0.999998
0.999998
0.999998
0.999995
0.999986
0.999989
1
1
1
0.999995
0.999992
1
0.999995
0.999998
1
1
1
1
1
0.999999
0.999999
0.999999
1
1
1
1
1
0.999999
0.999989
0.999989
1
0.999995
0.999996
1
1
1
1
1
1
1
1
1
1
1
1
1
1
1
0.999997
1
0.999999
0.999999
1
1
1
1
1
1
1
1
1
1
1
1
1
1
1
1
0.999999
1
1
1
1
1
1
1
1
1
1
1
1
1
1
1
1
1
1
0.999998
1
1
1
1
1
1
1
1
1
1
1
1
1
1
1
1
1
1
0.999998
1
1
1
1
1
1
1
1
1
1
1
1
1
1
1
1
1
1
0.999998
1
1
1
1
1
1
1
1
1
1
1
1
1
1
1
1
1
1
0.999998
1
1
1
1
1
1
1
1
1
1
1
1
1
1
1
1
1
1
0.999998
1
1
1
1
1
1
1
1
1
1
1
1
1
1
1
1
1
1
0.999998
1
1
1
1
1
1
1
1
1
1
1
1
1
1
1
1
1
0.999999
0.999998
1
1
1
1
1
1
1
1
1
1
1
1
1
1
1
1
1
0.999999
0.999998
1
1
1
1
1
1
1
1
1
1
1
1
1
1
1
1
1
1
1
1
1
1
1
1
1
1
1
1
1
1
1
1
1
1
1
1
1
1
1
1
1
1
1
1
1
1
1
1
1
1
1
1
1
1
1
1
1
1
1
1
1
1
1
1
1
1
1
1
1
1
1
1
1
1
1
1
1
1
1
1
1
1
1
1
1
1
1
1
1
1
1
1
1
1
1
1
1
1
1
1
1
1
1
1
1
1
1
1
1
1
1
1
1
1
1
1
1
1
1
1
1
1
1
1
1
1
1
1
1
1
1
1
1
1
1
1
1
1
1
1
1
1
1
1
1
1
1
1
1
1
1
1
1
1
1
1
1
1
1
1
1
1
1
1
1
1
1
1
1
1
1
1
1
1
1
1
1
1
1
1
1
1
1
1
1
1
1
1
1
1
1
1
1
1
1
1
1
1
1
1
1
1
1
1
1
1
1
1
1
1
1
1
1
1
1
1
1
1
1
1
1
1
1
1
1
1
1
1
1
1
1
1
1
1
1
1
1
1
1
1
1
1
1
1
1
1
1
1
1
1
1
1
1
1
1
1
1
1
1
1
1
1
1
1
1
1
1
1
1
1
1
1
1
1
1
1
1
1
1
1
1
1
1
1
1
1
1
1
1
1
1
1
1
1
1
1
1
1
1
1
1
1
1
1
)
;

boundaryField
{
    leftWall
    {
        type            alphaContactAngle;
        contactAngleProperties 
        {
            mercury         
            {
                theta0          90;
            }
            water           
            {
                theta0          90;
            }
            oil             
            {
                theta0          90;
            }
        }
        value           nonuniform List<scalar> 
50
(
1.44115e-14
8.62349e-14
3.58339e-13
4.21901e-12
1.934e-11
4.25871e-11
9.2585e-11
2.05148e-10
4.09722e-10
5.93467e-10
6.18385e-10
5.98109e-10
5.32727e-10
5.56546e-10
0.143651
0.888426
1
1
1
1
1
1
1
1
1
1
1
1
1
1
1
1
1
1
1
1
1
1
1
1
1
1
1
1
1
1
1
1
1
1
)
;
    }
    rightWall
    {
        type            alphaContactAngle;
        contactAngleProperties 
        {
            mercury         
            {
                theta0          90;
            }
            water           
            {
                theta0          90;
            }
            oil             
            {
                theta0          90;
            }
        }
        value           nonuniform List<scalar> 
50
(
0.151609
0.0950842
0.0950886
0.0986149
0.135051
0.0356322
0.00535728
0.0073921
0.027922
0.436881
0.584363
0.570558
0.504477
0.53405
0.753149
0.833934
0.833905
0.638635
0.999966
0.999837
0.999568
1
1
1
1
0.999999
0.999998
0.999998
0.999998
0.999998
0.999998
0.999998
0.999998
0.999998
1
1
1
1
1
1
1
1
1
1
1
1
1
1
1
1
)
;
    }
    lowerWall
    {
        type            alphaContactAngle;
        contactAngleProperties 
        {
            mercury         
            {
                theta0          90;
            }
            water           
            {
                theta0          90;
            }
            oil             
            {
                theta0          90;
            }
        }
        value           nonuniform List<scalar> 
62
(
1.44115e-14
2.43486e-14
9.99605e-15
3.38149e-15
2.00516e-15
1.03232e-15
2.83895e-16
6.06856e-17
3.05246e-17
2.83613e-17
3.50848e-17
4.0607e-17
3.98285e-17
3.59453e-17
3.75638e-17
4.13575e-17
4.73433e-17
5.3289e-17
5.36135e-17
2.60395e-16
3.41752e-16
3.17738e-16
6.44079e-16
6.44079e-16
4.95367e-14
2.03246e-12
2.02079e-11
7.60713e-10
1.53821e-07
4.40331e-06
0.00893206
0.3232
0.28705
0.240579
0.303049
0.00984862
0.012062
0.0220776
0.0568487
0.0298658
0.142934
0.40562
0.403947
0.00984862
0.0139665
0.0187262
0.0216016
0.00872935
0.00248115
1.15984e-06
2.13527e-06
4.76427e-06
2.81253e-06
0.0177327
0.0217572
0.0185135
0.00188677
0.0430154
0.426157
0.505568
0.221802
0.151609
)
;
    }
    atmosphere
    {
        type            inletOutlet;
        inletValue      uniform 1;
        value           nonuniform List<scalar> 
46
(
1
1
1
1
1
1
1
1
1
1
1
1
1
1
1
1
1
1
1
1
1
1
1
1
1
1
1
1
1
1
1
1
1
1
1
1
1
1
1
1
1
1
1
1
1
1
)
;
    }
    defaultFaces
    {
        type            empty;
    }
}


// ************************************************************************* //
