/*--------------------------------*- C++ -*----------------------------------*\
  =========                 |
  \\      /  F ield         | OpenFOAM: The Open Source CFD Toolbox
   \\    /   O peration     | Website:  https://openfoam.org
    \\  /    A nd           | Version:  13
     \\/     M anipulation  |
\*---------------------------------------------------------------------------*/
FoamFile
{
    format      ascii;
    class       volScalarField;
    location    "0.9";
    object      alpha.water;
}
// * * * * * * * * * * * * * * * * * * * * * * * * * * * * * * * * * * * * * //

dimensions      [];

internalField   nonuniform List<scalar> 
2268
(
1.04089e-11
2.39807e-11
3.03823e-11
3.03155e-11
2.8381e-11
2.60652e-11
2.51516e-11
2.68226e-11
3.182e-11
3.94467e-11
4.96256e-11
6.33818e-11
8.25065e-11
1.10042e-10
1.52147e-10
2.16858e-10
3.11719e-10
4.421e-10
8.08723e-10
1.40813e-09
2.20181e-09
2.5664e-09
2.62236e-09
1.9891e-11
5.71621e-11
8.67269e-11
1.16686e-10
1.31752e-10
1.31e-10
1.19808e-10
1.16378e-10
1.22667e-10
1.37486e-10
1.5917e-10
1.82213e-10
2.08673e-10
2.40403e-10
2.91658e-10
3.79029e-10
5.26284e-10
8.10457e-10
1.42402e-09
2.27033e-09
2.96136e-09
3.06301e-09
2.73048e-09
1.32522e-11
3.99608e-11
7.49622e-11
1.4635e-10
2.54697e-10
3.8163e-10
4.70861e-10
5.21537e-10
5.50857e-10
5.85573e-10
6.36237e-10
6.39621e-10
6.72662e-10
6.36148e-10
5.27554e-10
5.21334e-10
5.91708e-10
1.08498e-09
2.26061e-09
3.1461e-09
4.49569e-09
4.58568e-09
4.27133e-09
4.27749e-12
6.84858e-12
1.96636e-11
8.1161e-11
1.85532e-10
3.37914e-10
5.2211e-10
7.99963e-10
1.1819e-09
1.68443e-09
2.33755e-09
3.11839e-09
3.75803e-09
4.43979e-09
4.10105e-09
1.89275e-09
4.47387e-10
6.0814e-10
1.23654e-09
2.17187e-09
2.49074e-09
3.01633e-09
3.42706e-09
1.62895e-11
1.43959e-10
2.67142e-10
2.91269e-11
6.94666e-11
1.3619e-10
3.61384e-10
9.63176e-10
2.25764e-09
4.51832e-09
7.46673e-09
9.7724e-09
1.10352e-08
1.47017e-08
1.40874e-08
7.95648e-09
-5.17069e-14
4.3126e-11
-2.82191e-12
3.65649e-11
6.2454e-20
4.3126e-11
1.72145e-20
-3.04998e-12
-9.9535e-11
-1.80855e-10
-2.35353e-29
5.21636e-28
-5.03851e-17
-3.32904e-14
-2.9075e-12
-1.26456e-11
-3.51319e-11
-7.0944e-11
-1.56248e-10
4.50076e-09
0.00119567
0.00633965
0.0162744
0.0311318
0.0503399
0.0723665
0.0970038
0.124954
0.158646
0.191029
0.148813
0.354497
0.338541
0.278457
0.228098
0.18107
0.157428
0.170422
0.213009
0.257806
0.298603
0.346526
0.406729
0.483673
0.559233
0.629877
0.692674
0.747061
0.791892
0.8304
0.865809
0.896248
0.914056
0.898409
0.984571
0.97891
0.958604
0.93512
0.921821
0.929299
0.937877
0.935566
0.937176
0.951143
0.975313
0.997469
1
1
1
0.999999
0.999996
0.999993
0.999994
0.999989
0.999726
0.954025
4.16892e-07
2.02994e-07
2.2162e-07
1.65336e-08
0.00942454
0.00307013
5.38045e-05
6.81867e-10
1.04725e-10
1.28323e-27
-2.47288e-46
2.14824e-49
-2.1852e-37
1.48611e-07
5.74544e-05
1.93014e-05
2.74748e-05
0.00112065
0.0147335
4.39229e-07
2.20792e-07
0.0209304
0.232873
0.421974
0.406303
0.319143
0.181743
0.120862
0.0967936
0.0611293
0.028174
1.42585e-20
-2.54762e-10
-1.35238e-07
0.000537278
2.29161e-05
0.0256508
0.128456
4.3205e-07
0.137535
0.540366
0.774982
0.879339
0.853372
0.760235
0.645907
0.6413
0.696133
0.657769
0.41809
0.118088
0.0960453
0.0300149
0.00166525
0.00305874
0.0599255
0.173477
0.182613
0.724883
0.895797
0.989418
0.999713
0.999713
0.999713
0.99941
0.995033
0.999316
0.999712
0.947641
0.629422
0.31156
0.133687
0.000212868
0.00166723
0.0615475
0.161762
0.892391
0.949762
0.999298
0.999566
0.999713
0.999713
0.999709
0.999713
0.999713
0.999712
0.999712
0.999151
0.998675
0.872552
0.36599
0.0150682
-4.16437e-06
0.0399782
0.091256
0.836775
0.959031
0.955947
0.965075
0.982182
0.994738
0.999107
0.999713
0.999712
0.999712
0.999712
0.998877
0.998599
0.939403
0.372036
0.0558594
-1.7119e-05
0.0327035
8.26223e-07
0.563618
0.594628
0.550756
0.516154
0.488822
0.590218
0.736926
0.892498
0.998765
0.999702
0.999712
0.999704
0.998843
0.860871
0.22771
0.0236087
0.0073849
0.121592
8.31626e-07
0.130502
0.0624908
0.00844005
-2.33725e-14
8.10605e-21
0.0132747
0.0895184
0.258283
0.554352
0.913515
0.999681
0.999707
0.991632
0.637113
0.0166038
0.0207639
0.0534562
0.320523
8.26075e-07
1
1
1
1
1
1
1
1
1
1
1
1
1
1
1
1
1
1
0.999999
0.999998
0.999951
0.942172
0.492898
1
1
1
1
1
1
1
1
1
1
1
1
1
1
1
1
1
1
0.999958
0.99064
0.823192
0.243391
4.02905e-22
1
1
1
1
1
1
1
1
1
1
1
1
1
1
1
1
0.998351
0.981138
0.785827
0.337204
2.45906e-10
6.01945e-10
3.91763e-09
1
1
1
1
1
1
1
1
1
1
1
1
1
1
1
0.973192
0.587652
0.20606
3.47719e-14
0.000157179
0.000101179
1.21039e-08
1.06786e-08
1
1
1
1
1
1
1
1
1
1
1
1
0.988333
0.806929
0.507134
0.290825
0.000673174
2.47758e-07
8.83119e-10
-1.92966e-13
1.39345e-07
2.19122e-09
1.26061e-10
1
1
1
1
1
1
0.967974
0.906029
0.85705
0.819014
0.768216
0.615244
0.454254
0.264915
0.0324659
5.51686e-05
-2.35911e-12
-1.90152e-22
-4.81898e-20
5.788e-10
1.8009e-10
1.98655e-10
2.97747e-10
0.856349
0.872168
0.839771
0.755277
0.623974
0.453988
0.301628
0.207026
0.149447
0.113678
0.089692
0.0689488
0.0727269
0.0112646
5.71765e-07
3.06325e-07
2.13415e-08
1.12442e-07
3.57498e-08
1.13399e-10
5.0356e-11
7.51911e-11
8.15262e-11
0.111574
0.123789
0.100229
0.0539375
0.0160338
0.00036947
1.05334e-09
4.00535e-17
1.05334e-09
8.79759e-06
1.33993e-07
0.0005207
0.00246738
0.00179426
5.22527e-05
8.91813e-06
9.07701e-06
3.41199e-06
7.66932e-07
1.86707e-11
2.06433e-11
3.7303e-11
1.17394e-10
2.05578e-09
1.77693e-09
3.32247e-07
4.14006e-07
2.96591e-07
1.98432e-08
1.25475e-08
1.26558e-09
1.03122e-09
1.52216e-09
2.31276e-07
2.53954e-06
9.9759e-05
0.000285624
4.04712e-05
9.4671e-08
5.85711e-07
4.45745e-07
3.73633e-08
2.06433e-11
7.93547e-10
4.33108e-10
5.4001e-10
2.3418e-08
1.86688e-08
4.57923e-09
1.38299e-09
2.78185e-09
1.33475e-08
1.32241e-08
2.67524e-09
3.69019e-09
1.61389e-09
2.57465e-08
7.95414e-08
6.13436e-07
1.96562e-22
3.1922e-07
7.78385e-08
8.33749e-11
1.32755e-09
4.02612e-08
1.1286e-07
8.53372e-08
4.62231e-08
9.2168e-09
2.52679e-08
1.5797e-08
8.7374e-09
1.40685e-09
1.86079e-09
5.74428e-09
6.49467e-09
3.12353e-09
5.34286e-09
4.59759e-09
2.29775e-09
4.50276e-09
-1.30484e-11
-2.42714e-12
6.47536e-13
3.66781e-09
4.83926e-09
5.15122e-08
1.70956e-07
1.9227e-07
1.90118e-07
1.95554e-07
6.02298e-08
1.744e-08
8.60519e-09
4.37512e-09
8.4953e-10
6.53932e-10
1.65032e-09
2.57076e-09
2.34121e-09
4.60022e-09
5.43297e-09
3.99673e-09
4.1892e-09
3.26146e-09
1.39867e-09
4.17159e-10
8.01594e-10
1.19638e-09
1.36479e-09
3.14744e-08
1.81255e-07
6.74863e-07
8.34865e-07
2.16742e-07
8.86709e-09
3.62218e-09
1.93209e-09
3.78118e-10
1.6722e-10
1.72823e-10
2.96806e-10
6.94392e-10
2.70916e-09
4.64991e-09
3.59068e-09
1.79816e-09
3.15615e-09
2.19878e-09
5.31286e-10
6.26532e-10
8.79734e-09
2.44325e-08
2.35836e-08
9.14051e-08
8.74143e-07
1.84018e-06
1.71449e-06
4.04546e-09
1.45175e-09
6.20992e-10
1.7404e-10
7.77484e-11
6.7256e-11
1.00678e-10
2.66899e-10
6.19859e-10
1.60274e-09
2.61768e-09
1.56115e-09
6.90999e-10
1.14245e-09
5.08337e-10
6.08942e-10
1.83918e-09
2.31431e-08
4.62212e-08
4.72098e-08
1.8037e-07
1.73423e-06
4.25551e-06
1.72034e-09
5.93992e-10
2.14278e-10
7.05836e-11
3.20309e-11
2.22157e-11
2.12991e-11
6.10242e-11
2.37351e-10
5.11175e-10
1.14685e-09
9.69729e-10
3.47059e-10
2.693e-10
3.38901e-10
5.27344e-10
2.38461e-10
6.8418e-09
5.09223e-08
5.03874e-08
3.36169e-08
6.29087e-07
2.93243e-06
7.12413e-10
2.48944e-10
8.51145e-11
3.02013e-11
1.3702e-11
8.41478e-12
3.82048e-12
8.34281e-12
4.88558e-11
1.70993e-10
2.81579e-10
3.26132e-10
1.52514e-10
1.25847e-10
2.14113e-10
3.95047e-10
2.38613e-10
1.60426e-09
1.78393e-08
4.07741e-08
3.37457e-08
7.53459e-10
6.87045e-07
2.71665e-10
9.83533e-11
3.34762e-11
1.25162e-11
5.60458e-12
3.33244e-12
1.09257e-12
1.00359e-12
5.51539e-12
2.47953e-11
7.91512e-11
1.13165e-10
6.19643e-11
6.27504e-11
1.20577e-10
2.46612e-10
2.39063e-10
9.7272e-10
8.33375e-10
3.91076e-09
6.12395e-09
4.15444e-10
6.45664e-10
8.97047e-11
3.42114e-11
1.19801e-11
4.65619e-12
2.06443e-12
1.17778e-12
3.8389e-13
1.74252e-13
4.88224e-13
2.40587e-12
1.0005e-11
2.22836e-11
1.92982e-11
3.19609e-11
5.28293e-11
1.06366e-10
1.76813e-10
6.42138e-10
5.02887e-10
2.99764e-10
1.43201e-10
1.3762e-10
2.06118e-08
2.51001e-11
1.02698e-11
3.76669e-12
1.5136e-12
6.70267e-13
3.61704e-13
1.21024e-13
3.77491e-14
6.48351e-14
3.22217e-13
1.12901e-12
4.09357e-12
7.43715e-12
1.67555e-11
3.22182e-11
5.41827e-11
1.02786e-10
3.4781e-10
3.62843e-10
3.20456e-10
2.14872e-10
2.26633e-10
3.98521e-09
5.96766e-12
2.6503e-12
1.02522e-12
4.26085e-13
1.89888e-13
9.76306e-14
3.33222e-14
8.75402e-15
1.09756e-14
6.17218e-14
2.57379e-13
1.16056e-12
3.31353e-12
8.81295e-12
1.89877e-11
3.65488e-11
7.02832e-11
1.83351e-10
2.29135e-10
2.33931e-10
1.98356e-10
3.53608e-10
9.74166e-10
1.22521e-12
5.88377e-13
2.40056e-13
1.03206e-13
4.64921e-14
2.31443e-14
8.03193e-15
2.03838e-15
2.26529e-15
1.41782e-14
7.93741e-14
3.89411e-13
1.40604e-12
4.23114e-12
1.01846e-11
2.14418e-11
4.25596e-11
9.54392e-11
1.32599e-10
1.47861e-10
1.42042e-10
2.23776e-10
5.76938e-10
2.17346e-13
1.12639e-13
4.83442e-14
2.14762e-14
9.79467e-15
4.77557e-15
1.6836e-15
4.53928e-16
6.65147e-16
4.14592e-15
2.51425e-14
1.30927e-13
5.38822e-13
1.77744e-12
4.71729e-12
1.07392e-11
2.22545e-11
4.69937e-11
7.00175e-11
8.4925e-11
9.05994e-11
1.34242e-10
3.5009e-10
3.40433e-14
1.86677e-14
8.40283e-15
3.84836e-15
1.77592e-15
8.51673e-16
3.03997e-16
9.67006e-17
2.29311e-16
1.35404e-15
7.93195e-15
4.2063e-14
1.8501e-13
6.53416e-13
1.87948e-12
4.60656e-12
1.009e-11
2.10392e-11
3.32128e-11
4.384e-11
5.24839e-11
7.59679e-11
1.8984e-10
3.13662e-15
2.69347e-15
1.26715e-15
5.96212e-16
2.77693e-16
1.3087e-16
4.70096e-17
2.062e-17
7.71533e-17
4.34086e-16
2.40689e-15
1.25867e-14
5.71119e-14
2.11533e-13
6.48858e-13
1.70059e-12
3.95461e-12
8.36125e-12
1.39691e-11
1.98542e-11
2.6449e-11
4.34268e-11
8.49186e-11
4.92047e-16
3.4054e-16
1.66769e-16
8.01799e-17
3.75243e-17
1.7297e-17
6.23916e-18
4.57504e-18
2.34286e-17
1.28095e-16
6.8069e-16
3.46279e-15
1.58567e-14
6.04114e-14
1.94894e-13
5.40507e-13
1.33231e-12
2.90194e-12
5.13707e-12
7.78606e-12
1.17481e-11
1.97533e-11
3.10705e-11
5.20234e-17
3.79685e-17
1.92667e-17
9.38625e-18
4.38667e-18
1.95952e-18
7.22011e-19
1.02712e-18
6.23077e-18
3.37029e-17
1.74707e-16
8.63513e-16
3.93224e-15
1.51865e-14
5.0943e-14
1.47753e-13
3.83824e-13
8.67929e-13
1.62365e-12
2.61628e-12
4.11374e-12
7.47879e-12
9.78756e-12
5.14489e-18
3.75557e-18
1.9631e-18
9.58123e-19
4.43322e-19
1.88726e-19
7.60232e-20
2.17871e-19
1.43305e-18
7.76609e-18
3.9822e-17
1.92024e-16
8.63442e-16
3.35566e-15
1.15787e-14
3.47157e-14
9.41619e-14
2.21048e-13
4.32844e-13
7.4135e-13
1.28215e-12
1.63176e-12
2.43516e-12
4.6741e-19
3.31193e-19
1.7705e-19
8.54731e-20
3.85821e-20
1.51792e-20
7.90463e-21
4.14859e-20
2.83474e-19
1.55054e-18
7.9391e-18
3.76117e-17
1.67101e-16
6.51977e-16
2.28606e-15
7.00583e-15
1.95934e-14
4.74216e-14
9.58754e-14
1.74086e-13
2.99335e-13
4.19615e-13
4.77735e-13
3.76035e-20
2.61469e-20
1.41987e-20
6.69036e-21
2.86007e-21
9.7567e-22
8.88438e-22
6.92898e-21
4.81563e-20
2.66739e-19
1.37295e-18
6.451e-18
2.84547e-17
1.11232e-16
3.91091e-16
1.21168e-15
3.44327e-15
8.49659e-15
1.75061e-14
3.3377e-14
5.81868e-14
4.76653e-14
7.81174e-14
2.67233e-21
1.85795e-21
1.02076e-21
4.6097e-22
1.75288e-22
4.40465e-23
1.08196e-22
1.00775e-21
7.03995e-21
3.95037e-20
2.05393e-19
9.66377e-19
4.24932e-18
1.65705e-17
5.76924e-17
1.78879e-16
5.0889e-16
1.26525e-15
2.6257e-15
5.16404e-15
8.62303e-15
8.60615e-15
9.12182e-15
1.75387e-22
1.19878e-22
6.65278e-23
2.78043e-23
8.09894e-24
5.12998e-25
1.31865e-23
1.27611e-22
8.90368e-22
5.05323e-21
2.65886e-20
1.26019e-19
5.52863e-19
2.13819e-18
7.29556e-18
2.24399e-17
6.30428e-17
1.56335e-16
3.22637e-16
6.39928e-16
9.97895e-16
8.06764e-16
9.82751e-16
1.098e-23
7.10782e-24
3.96878e-24
1.42642e-24
1.70508e-25
-1.45643e-25
1.4946e-24
1.41256e-23
9.81661e-23
5.61714e-22
2.98275e-21
1.42421e-20
6.22395e-20
2.37397e-19
7.87588e-19
2.38562e-18
6.54163e-18
1.60459e-17
3.24655e-17
6.34312e-17
9.08892e-17
7.50905e-17
7.00044e-17
6.43755e-25
3.91994e-25
2.17125e-25
5.67226e-26
-1.58263e-26
-1.91312e-26
1.52271e-25
1.37612e-24
9.51508e-24
5.46512e-23
2.90686e-22
1.39145e-21
6.04262e-21
2.26217e-20
7.25784e-20
2.15138e-19
5.70766e-19
1.37431e-18
2.68915e-18
4.96622e-18
6.75681e-18
3.98803e-18
3.98716e-18
3.39709e-26
2.01565e-26
1.08026e-26
1.10376e-27
-2.61484e-27
-1.5432e-27
1.38295e-26
1.18971e-25
8.17435e-25
4.68776e-24
2.47222e-23
1.17802e-22
5.06943e-22
1.85434e-21
5.73604e-21
1.6541e-20
4.22479e-20
9.89575e-20
1.8482e-19
3.22898e-19
2.41236e-19
1.60519e-19
1.33306e-19
1.55226e-27
9.50803e-28
4.80072e-28
-7.78324e-29
-2.41102e-28
-9.50081e-29
1.12207e-27
9.20043e-27
6.27103e-26
3.57025e-25
1.84853e-24
8.71246e-24
3.70025e-23
1.31629e-22
3.9212e-22
1.09328e-21
2.68328e-21
6.03585e-21
1.06236e-20
1.71392e-20
1.10892e-20
2.95076e-21
4.08312e-21
6.12755e-29
4.05335e-29
1.85083e-29
-1.20153e-29
-1.76405e-29
-4.61489e-30
8.166e-29
6.39962e-28
4.32696e-27
2.43219e-26
1.22731e-25
5.6996e-25
2.37402e-24
8.17291e-24
2.34381e-23
6.27596e-23
1.47794e-22
3.13785e-22
5.1419e-22
7.4478e-22
4.68892e-22
1.01424e-22
9.51122e-23
2.31631e-30
1.60095e-30
5.80292e-31
-1.01788e-30
-1.11745e-30
-1.65708e-31
5.34998e-30
4.01749e-29
2.70478e-28
1.49385e-27
7.31712e-27
3.34565e-26
1.35544e-25
4.49366e-25
1.23932e-24
3.16441e-24
7.12308e-24
1.40018e-23
2.1116e-23
2.69529e-23
1.47272e-23
2.369e-24
1.5306e-24
9.62196e-32
6.18498e-32
1.1518e-32
-6.91463e-32
-6.36537e-32
-2.71701e-33
3.17544e-31
2.28914e-30
1.54312e-29
8.34222e-29
3.9623e-28
1.78646e-27
6.97882e-27
2.2172e-26
5.86446e-26
1.4177e-25
3.03082e-25
5.42488e-25
7.44612e-25
8.30741e-25
3.65067e-25
4.58734e-26
1.7931e-26
4.19684e-33
2.35346e-33
-1.83698e-34
-4.12132e-33
-3.33057e-33
1.9537e-34
1.73048e-32
1.19919e-31
8.09387e-31
4.27199e-30
1.97089e-29
8.77734e-29
3.28224e-28
9.94739e-28
2.51084e-27
5.70744e-27
1.15041e-26
1.85622e-26
2.29225e-26
2.23642e-26
7.56605e-27
8.48675e-28
1.14212e-27
1.2605e-34
8.35654e-35
-3.83642e-35
-2.23785e-34
-1.62267e-34
2.54166e-35
8.82445e-34
5.88536e-33
3.92958e-32
2.02272e-31
9.10405e-31
4.00341e-30
1.42605e-29
4.10672e-29
9.82314e-29
2.08612e-28
3.94218e-28
5.7234e-28
6.26617e-28
5.39729e-28
1.44283e-28
7.91632e-29
4.58421e-28
4.20228e-36
2.62756e-36
-2.90226e-36
-1.12906e-35
-7.43036e-36
1.86725e-36
4.27706e-35
2.74833e-34
1.7766e-33
8.92391e-33
3.94465e-32
1.70627e-31
5.77584e-31
1.57535e-30
3.54164e-30
6.98432e-30
1.2347e-29
1.62149e-29
1.54592e-29
1.22833e-29
6.08793e-30
2.76464e-29
2.03098e-28
1.8889e-37
6.94702e-38
-1.71991e-37
-5.35309e-37
-3.21859e-37
1.1024e-37
1.97711e-36
1.22526e-35
7.51943e-35
3.6944e-34
1.61579e-33
6.82747e-33
2.19536e-32
5.65346e-32
1.18493e-31
2.15776e-31
3.57629e-31
4.29724e-31
3.63883e-31
4.14486e-31
1.40208e-30
9.7163e-30
6.6429e-29
0.305162
0.327424
0.372823
0.245693
-1.09511e-10
-3.8224e-11
1.7298e-09
7.65154e-10
1.04028e-08
1.06378e-08
9.3994e-09
6.54426e-09
4.46143e-09
1.53073e-10
2.80844e-10
5.23076e-10
1.27828e-10
1.71121e-10
2.41752e-10
3.01714e-10
3.37713e-10
3.54806e-10
3.5806e-10
3.56471e-10
1.10523e-10
1.23891e-10
1.41914e-10
1.54627e-10
1.20285e-10
8.43562e-11
7.92489e-11
7.23862e-11
4.299e-10
2.16101e-10
1.72087e-10
1.24816e-10
1.52837e-09
8.43009e-10
6.83529e-10
4.52764e-10
1.04945e-09
5.72391e-10
7.11997e-10
7.0187e-10
2.96216e-08
3.50473e-10
6.83424e-10
6.33148e-10
2.79901e-07
7.61435e-08
3.83024e-10
3.1791e-08
4.15221e-06
7.84033e-07
3.96324e-07
5.75941e-07
5.12643e-06
5.15247e-06
4.89469e-06
4.7003e-06
5.11658e-06
5.0536e-06
5.10026e-06
5.07274e-06
4.86735e-07
1.29931e-06
4.16037e-06
4.77101e-06
3.36016e-08
4.89857e-08
3.93031e-08
9.36586e-08
3.03086e-09
2.48376e-09
9.74054e-09
1.89966e-08
1.57864e-09
1.63803e-09
1.21138e-09
3.31792e-09
1.28335e-09
1.53453e-09
1.19345e-09
1.38685e-09
6.79349e-10
9.55252e-10
9.95355e-10
1.05564e-09
3.24761e-10
4.45459e-10
5.57838e-10
5.88357e-10
1.34865e-10
1.84641e-10
2.01446e-10
1.97241e-10
4.67854e-11
5.47325e-11
5.96085e-11
5.61407e-11
1.22718e-11
1.5236e-11
1.44227e-11
1.31733e-11
3.11746e-12
2.93163e-12
3.06711e-12
2.95899e-12
5.84444e-13
6.25077e-13
5.77585e-13
5.45716e-13
8.97665e-14
7.48656e-14
8.20624e-14
8.28526e-14
9.02502e-15
1.008e-14
9.5657e-15
9.29881e-15
1.01146e-15
1.01435e-15
9.59943e-16
8.97744e-16
7.2371e-17
7.55513e-17
6.75931e-17
5.2464e-17
4.02591e-18
3.26914e-18
2.68195e-18
2.13363e-18
1.46056e-19
1.24364e-19
7.38861e-20
4.13614e-20
3.86739e-21
2.08984e-21
9.4498e-22
5.01129e-22
6.54991e-23
2.96033e-23
8.53341e-24
2.45153e-24
6.37336e-25
2.19424e-25
2.35393e-25
5.39228e-25
1.32625e-26
3.40389e-26
1.02722e-25
3.10517e-25
4.50884e-27
1.5869e-26
6.04474e-26
1.77183e-25
2.61311e-27
9.24571e-27
2.88135e-26
9.36305e-26
1.16984e-27
4.07298e-27
1.33238e-26
3.84427e-26
4.01782e-28
1.23234e-27
3.51057e-27
8.83904e-27
1.82984e-19
2.76061e-19
3.61223e-20
8.0943e-11
2.75432e-10
9.40466e-17
7.51253e-17
4.92398e-17
0.0129818
0.158674
0.706785
0.999473
0.990085
0.523116
0.0172684
0.0167116
0.0799711
0.319749
8.47955e-07
1.0484e-09
1.74306e-09
3.14638e-09
5.06279e-09
1.0323e-08
1.33899e-08
1.35025e-08
2.5951e-09
1.31822e-17
1.46068e-16
0.0488017
0.710198
0.991905
0.841819
0.319585
0.132528
0.356544
0.037186
2.5664e-05
5.71803e-09
4.27348e-09
3.69426e-09
8.31152e-09
1.7597e-08
4.09521e-08
5.1495e-08
5.15125e-08
2.14079e-08
3.26654e-09
4.98969e-10
0.0744431
0.746307
0.896163
0.840481
0.71408
0.722287
0.0390767
0.00207547
5.41314e-10
5.48249e-10
6.25038e-10
3.28276e-10
1.79312e-10
1.79076e-10
1.79492e-10
1.79199e-10
1.45977e-09
1.8314e-09
4.6038e-10
2.51305e-10
0.0644438
0.595598
0.852334
0.840576
0.705105
0.0688365
0.00535978
3.56892e-10
3.84966e-10
3.8364e-10
3.40743e-10
3.23887e-10
3.37112e-10
4.84194e-10
6.40186e-10
7.40904e-10
7.48981e-10
4.91173e-10
2.32748e-10
2.51305e-10
0.0203463
0.202036
0.417355
0.150111
0.0194902
0.00249889
3.65837e-10
3.83177e-10
3.87673e-10
3.77017e-10
3.42269e-10
3.2524e-10
3.37446e-10
6.06273e-10
9.367e-10
1.04252e-09
8.39306e-10
2.34847e-10
1.52512e-14
0.000416837
0.00873107
0.0017447
0.00448768
0.00581368
0.000389898
1.50961e-10
1.40304e-10
1.23109e-10
1.20021e-10
1.3153e-10
1.56056e-10
2.08603e-10
5.9905e-10
1.08894e-09
1.2761e-09
1.30741e-09
2.27247e-09
9.50303e-07
3.51069e-05
2.48862e-07
0.00173819
4.7674e-14
1.90069e-29
1.29882e-25
6.04181e-11
5.0644e-11
4.67774e-11
4.66916e-11
5.42857e-11
5.98102e-11
6.62626e-11
7.22315e-11
8.09632e-11
1.14485e-10
1.67943e-09
7.08494e-09
1.03467e-08
4.52898e-11
4.83005e-11
1.02895e-10
1.04113e-06
2.00455e-20
-3.69096e-13
6.75892e-11
4.2395e-11
3.38637e-11
2.62161e-11
2.38333e-11
2.26148e-11
2.42054e-11
3.32447e-11
5.72129e-11
7.75484e-11
6.95728e-11
2.36465e-11
2.66898e-11
4.70104e-11
1.15184e-10
9.33752e-11
1.04726e-10
5.5422e-10
5.5126e-10
2.95795e-10
1.83099e-10
1.39362e-10
7.19002e-11
3.62099e-11
2.21659e-11
1.37492e-11
9.7757e-12
8.64365e-12
1.1691e-11
1.49699e-11
1.83489e-11
2.55766e-11
4.24637e-11
6.4898e-11
8.29847e-11
1.68678e-10
2.7492e-10
3.87767e-10
5.84437e-10
4.44517e-10
3.67247e-10
2.43214e-10
1.30161e-10
7.19871e-11
3.0865e-11
1.34926e-11
4.68789e-12
2.19385e-12
1.37343e-12
1.06982e-12
7.85948e-13
4.75935e-13
2.15002e-13
3.28767e-14
3.54394e-14
4.52605e-14
1.32975e-12
6.01943e-10
7.32441e-10
9.49036e-10
4.23053e-10
3.2766e-10
1.92347e-10
8.52528e-11
4.28119e-11
1.43222e-11
3.44018e-12
1.29082e-12
8.52964e-13
6.42286e-13
4.47287e-13
3.26632e-13
1.55961e-13
5.15434e-14
9.99375e-15
5.75733e-15
1.48021e-08
3.58753e-10
1.86048e-09
1.69403e-09
8.62752e-10
4.93772e-10
2.38492e-10
1.19122e-10
4.79072e-11
1.36661e-11
5.50815e-12
3.97356e-12
3.59561e-12
2.5779e-12
1.67862e-12
7.60489e-13
2.69268e-13
5.86658e-14
9.05194e-15
7.19217e-08
3.05345e-10
4.49897e-09
4.7579e-09
1.16685e-09
7.89655e-10
4.16023e-10
2.57664e-10
1.06257e-10
3.71649e-11
1.79343e-11
1.32716e-11
9.19202e-12
6.04372e-12
3.55148e-12
1.78234e-12
5.52337e-13
1.42748e-13
1.53852e-14
2.49389e-06
3.53568e-10
6.15212e-09
9.8605e-09
2.56086e-09
1.35808e-09
8.62958e-10
4.15251e-10
2.16762e-10
1.15952e-10
6.83468e-11
2.75703e-11
1.46767e-11
8.48483e-12
5.01262e-12
2.98731e-12
1.26156e-12
2.91626e-13
2.20341e-14
4.97831e-06
2.04518e-06
5.92155e-09
1.00765e-08
4.22749e-09
2.42098e-09
1.28185e-09
7.49433e-10
4.40136e-10
2.45436e-10
1.23393e-10
4.16868e-11
2.04743e-11
1.15704e-11
7.76742e-12
4.27559e-12
1.88277e-12
4.00579e-13
2.75566e-14
4.70413e-06
3.88084e-06
2.31424e-07
1.52679e-08
9.35086e-09
4.33635e-09
1.40413e-09
8.28439e-10
5.48019e-10
3.33831e-10
1.6387e-10
8.29603e-11
3.4066e-11
1.45465e-11
8.33645e-12
4.79245e-12
2.3507e-12
5.27241e-13
3.63938e-14
8.82492e-07
5.80513e-07
4.32784e-07
4.41534e-08
1.38078e-08
7.52464e-09
2.38249e-09
7.96953e-10
4.75737e-10
3.46469e-10
2.05276e-10
1.0714e-10
4.16291e-11
1.60181e-11
8.47451e-12
4.96178e-12
2.57008e-12
6.12981e-13
4.78555e-14
5.8228e-08
5.16135e-08
7.83649e-08
5.75488e-08
2.18882e-08
1.00595e-08
3.68778e-09
9.94183e-10
3.87622e-10
2.65619e-10
1.90644e-10
1.1202e-10
4.85185e-11
1.69281e-11
7.49259e-12
4.75535e-12
2.62859e-12
6.56608e-13
6.16642e-14
2.40389e-08
4.0993e-08
3.29344e-08
2.61869e-08
1.69355e-08
9.9239e-09
4.42875e-09
1.08141e-09
3.33572e-10
1.97815e-10
1.41572e-10
9.64147e-11
4.83315e-11
1.68624e-11
6.52378e-12
3.71227e-12
2.41456e-12
6.83322e-13
6.74898e-14
8.6292e-09
1.36524e-08
1.37387e-08
1.26779e-08
9.31627e-09
5.85544e-09
3.11095e-09
1.07861e-09
2.01759e-10
1.14754e-10
9.09317e-11
6.63515e-11
3.81751e-11
1.51534e-11
5.62297e-12
3.06444e-12
2.1184e-12
6.66283e-13
8.02353e-14
2.8587e-09
4.83346e-09
5.63006e-09
4.89899e-09
3.59456e-09
2.36213e-09
1.41063e-09
6.07494e-10
1.40249e-10
5.98012e-11
4.57902e-11
3.58221e-11
2.33139e-11
1.07886e-11
4.3117e-12
2.43726e-12
1.68528e-12
6.46362e-13
7.08508e-14
8.42605e-10
1.46581e-09
1.71663e-09
1.59989e-09
1.25602e-09
8.83802e-10
5.5785e-10
2.53317e-10
7.3896e-11
3.24263e-11
2.40655e-11
1.90756e-11
1.31091e-11
6.5502e-12
3.1403e-12
1.87677e-12
1.3554e-12
5.90026e-13
6.05541e-14
2.55302e-10
4.17934e-10
4.78307e-10
4.4733e-10
3.72336e-10
2.84236e-10
1.81636e-10
8.48313e-11
3.20327e-11
1.506e-11
1.09183e-11
8.67681e-12
6.16464e-12
3.5137e-12
2.04927e-12
1.50843e-12
1.00168e-12
4.97056e-13
5.21123e-14
7.02345e-11
1.05691e-10
1.16812e-10
1.14684e-10
1.01572e-10
7.79503e-11
5.11307e-11
2.64764e-11
1.10671e-11
5.86566e-12
4.48207e-12
3.65216e-12
2.83484e-12
1.85856e-12
1.30301e-12
1.11344e-12
7.25181e-13
3.35577e-13
4.78047e-14
1.76639e-11
2.455e-11
2.68156e-11
2.67505e-11
2.45995e-11
1.97706e-11
1.32421e-11
6.81711e-12
3.12043e-12
2.0478e-12
1.69473e-12
1.40099e-12
9.06911e-13
6.13774e-13
4.72527e-13
4.77799e-13
4.42258e-13
2.11784e-13
2.45493e-14
3.97348e-12
4.98072e-12
5.58177e-12
5.60246e-12
5.28044e-12
4.32852e-12
2.84548e-12
1.42482e-12
6.50679e-13
3.90022e-13
2.70414e-13
2.02159e-13
1.7221e-13
1.86467e-13
2.05396e-13
2.05573e-13
2.60019e-13
1.10418e-13
1.34032e-14
7.39384e-13
9.18804e-13
1.03881e-12
1.05112e-12
8.83309e-13
5.94767e-13
2.94004e-13
1.08916e-13
4.96507e-14
3.16743e-14
2.79193e-14
3.32479e-14
4.82638e-14
7.15992e-14
9.33049e-14
9.8242e-14
8.47828e-14
5.21102e-14
5.54697e-15
1.1298e-13
1.39622e-13
1.46745e-13
1.34777e-13
9.94455e-14
5.10386e-14
1.47935e-14
2.74291e-15
1.46443e-15
1.80448e-15
3.55609e-15
8.168e-15
1.69802e-14
2.97364e-14
4.15921e-14
4.50092e-14
3.43635e-14
1.52061e-14
3.1599e-15
1.0584e-14
8.30574e-15
4.02807e-15
1.52795e-15
5.34578e-16
1.15296e-16
1.12947e-17
5.6536e-18
3.03158e-17
2.08398e-16
8.48759e-16
2.44482e-15
5.70575e-15
1.10109e-14
1.63149e-14
1.79353e-14
1.25844e-14
5.3974e-15
8.16269e-16
5.11696e-16
9.43502e-17
4.19977e-18
1.28889e-19
1.72421e-20
5.15356e-21
5.96459e-21
1.74584e-20
4.80672e-18
3.67552e-17
1.45156e-16
4.85036e-16
1.42808e-15
3.20951e-15
5.35793e-15
5.85768e-15
3.8881e-15
1.31645e-15
2.17897e-16
2.0361e-17
2.56408e-18
1.02155e-19
3.13447e-21
2.15167e-21
2.91616e-21
5.08159e-21
9.59579e-21
3.54745e-19
2.39947e-18
1.09978e-17
6.47382e-17
2.64934e-16
7.79909e-16
1.40595e-15
1.4819e-15
8.59381e-16
3.03572e-16
3.63328e-17
9.53526e-19
1.17138e-19
3.26618e-21
7.61698e-22
1.2076e-21
2.49107e-21
5.29517e-21
1.07289e-20
2.51962e-20
7.01753e-20
3.29129e-19
6.26482e-18
6.55154e-17
1.53644e-16
2.76499e-16
2.7783e-16
1.85771e-16
4.86115e-17
9.48668e-18
1.58659e-20
1.4935e-21
2.36853e-22
4.22598e-22
1.00773e-21
2.38307e-21
5.33866e-21
1.11969e-20
2.20652e-20
4.14573e-20
7.44602e-20
5.57232e-19
9.41824e-18
2.49762e-17
3.88356e-17
4.60686e-17
3.17487e-17
1.05064e-17
1.24223e-18
1.21554e-22
4.74354e-23
1.0383e-22
2.90156e-22
7.77973e-22
1.97736e-21
4.68852e-21
1.04059e-20
2.167e-20
4.15229e-20
7.19969e-20
1.2731e-19
3.76459e-19
2.49778e-18
7.78492e-18
1.19578e-17
8.5708e-18
1.67542e-18
1.82142e-19
5.28864e-24
1.82082e-23
6.0645e-23
1.88071e-22
5.43708e-22
1.4597e-21
3.65805e-21
8.52724e-21
1.86622e-20
3.67591e-20
6.51841e-20
9.78353e-20
1.38093e-19
9.39994e-19
3.42204e-18
3.8868e-18
1.78187e-18
3.677e-19
3.17013e-20
2.54178e-24
9.55798e-24
3.44424e-23
1.13616e-22
3.45706e-22
9.65066e-22
2.50215e-21
6.0252e-21
1.36948e-20
2.77354e-20
4.98978e-20
7.66449e-20
1.13442e-19
4.8247e-19
8.64714e-19
7.37381e-19
2.82714e-19
4.08208e-20
8.34369e-21
1.27583e-24
5.08355e-24
1.91551e-23
6.61671e-23
2.04035e-22
5.77147e-22
1.51673e-21
3.65484e-21
8.33993e-21
1.74217e-20
3.13927e-20
4.86365e-20
6.82543e-20
1.85423e-19
1.3419e-19
8.38302e-20
1.99582e-20
9.27937e-21
2.63319e-21
6.21018e-25
2.62406e-24
1.00736e-23
3.47793e-23
1.06595e-22
3.06328e-22
7.89016e-22
1.84047e-21
4.08408e-21
8.473e-21
1.47932e-20
2.19079e-20
3.00608e-20
4.94306e-20
2.92163e-20
9.29878e-21
5.79845e-21
2.89818e-21
1.23474e-21
2.78259e-25
1.14324e-24
4.33039e-24
1.46289e-23
4.44143e-23
1.24092e-22
3.17237e-22
7.53791e-22
1.61254e-21
3.23278e-21
5.60611e-21
8.18455e-21
9.20693e-21
1.13646e-20
5.64681e-21
2.76876e-21
1.48788e-21
9.53906e-22
5.77694e-22
1.00106e-25
3.90842e-25
1.4221e-24
4.62746e-24
1.36486e-23
3.76648e-23
9.76103e-23
2.28138e-22
4.94474e-22
9.42392e-22
1.58589e-21
2.24045e-21
2.51329e-21
2.24605e-21
1.0831e-21
6.96062e-22
3.67665e-22
3.10414e-22
1.67321e-22
2.01359e-26
7.65174e-26
2.70093e-25
8.61411e-25
2.51211e-24
7.13981e-24
1.74957e-23
4.1535e-23
8.70945e-23
1.64232e-22
2.6434e-22
3.54584e-22
3.71638e-22
2.74924e-22
1.44231e-22
1.09931e-22
8.38249e-23
3.43839e-23
2.33146e-23
)
;

boundaryField
{
    leftWall
    {
        type            alphaContactAngle;
        contactAngleProperties 
        {
            mercury         
            {
                theta0          90;
            }
            air             
            {
                theta0          90;
            }
            oil             
            {
                theta0          90;
            }
        }
        value           nonuniform List<scalar> 
50
(
1.04089e-11
1.9891e-11
1.32522e-11
4.27749e-12
1.62895e-11
-3.04998e-12
0.148813
0.898409
1
1
1
1
1
1
0.856349
0.111574
2.05578e-09
2.3418e-08
2.52679e-08
1.744e-08
8.86709e-09
4.04546e-09
1.72034e-09
7.12413e-10
2.71665e-10
8.97047e-11
2.51001e-11
5.96766e-12
1.22521e-12
2.17346e-13
3.40433e-14
3.13662e-15
4.92047e-16
5.20234e-17
5.14489e-18
4.6741e-19
3.76035e-20
2.67233e-21
1.75387e-22
1.098e-23
6.43755e-25
3.39709e-26
1.55226e-27
6.12755e-29
2.31631e-30
9.62196e-32
4.19684e-33
1.2605e-34
4.20228e-36
1.8889e-37
)
;
    }
    rightWall
    {
        type            alphaContactAngle;
        contactAngleProperties 
        {
            mercury         
            {
                theta0          90;
            }
            air             
            {
                theta0          90;
            }
            oil             
            {
                theta0          90;
            }
        }
        value           nonuniform List<scalar> 
50
(
0.0147335
0.128456
0.173477
0.161762
0.091256
8.26223e-07
8.31626e-07
8.26075e-07
8.47955e-07
2.5664e-05
0.00207547
0.00535978
0.00249889
0.000389898
1.29882e-25
-3.69096e-13
5.5126e-10
3.87767e-10
1.32975e-12
5.75733e-15
9.05194e-15
1.53852e-14
2.20341e-14
2.75566e-14
3.63938e-14
4.78555e-14
6.16642e-14
6.74898e-14
8.02353e-14
7.08508e-14
6.05541e-14
5.21123e-14
4.78047e-14
2.45493e-14
1.34032e-14
5.54697e-15
3.1599e-15
8.16269e-16
2.17897e-16
3.63328e-17
9.48668e-18
1.24223e-18
1.82142e-19
3.17013e-20
8.34369e-21
2.63319e-21
1.23474e-21
5.77694e-22
1.67321e-22
2.33146e-23
)
;
    }
    lowerWall
    {
        type            alphaContactAngle;
        contactAngleProperties 
        {
            mercury         
            {
                theta0          90;
            }
            air             
            {
                theta0          90;
            }
            oil             
            {
                theta0          90;
            }
        }
        value           nonuniform List<scalar> 
62
(
1.04089e-11
2.39807e-11
3.03823e-11
3.03155e-11
2.8381e-11
2.60652e-11
2.51516e-11
2.68226e-11
3.182e-11
3.94467e-11
4.96256e-11
6.33818e-11
8.25065e-11
1.10042e-10
1.52147e-10
2.16858e-10
3.11719e-10
4.421e-10
8.08723e-10
1.40813e-09
2.20181e-09
2.5664e-09
2.62236e-09
2.62236e-09
2.73048e-09
4.27133e-09
3.42706e-09
1.72145e-20
0.191029
0.914056
0.954025
0.305162
0.327424
0.372823
0.245693
4.16892e-07
4.39229e-07
4.3205e-07
0.182613
0.892391
0.836775
0.563618
0.130502
4.16892e-07
2.02994e-07
2.2162e-07
1.65336e-08
0.00942454
0.00307013
5.38045e-05
6.81867e-10
1.04725e-10
1.28323e-27
-2.47288e-46
2.14824e-49
-2.1852e-37
1.48611e-07
5.74544e-05
1.93014e-05
2.74748e-05
0.00112065
0.0147335
)
;
    }
    atmosphere
    {
        type            inletOutlet;
        inletValue      uniform 0;
        value           nonuniform List<scalar> 
46
(
1.8889e-37
6.94702e-38
-1.71991e-37
-5.35309e-37
-3.21859e-37
1.1024e-37
1.97712e-36
1.22526e-35
7.51943e-35
3.6944e-34
1.61579e-33
6.82747e-33
2.19536e-32
5.65346e-32
1.18493e-31
2.15776e-31
3.57629e-31
4.29724e-31
3.63883e-31
4.14486e-31
1.40208e-30
9.7163e-30
6.6429e-29
0
0
0
0
0
0
0
0
0
0
0
0
0
0
0
0
0
0
0
0
0
0
0
)
;
    }
    defaultFaces
    {
        type            empty;
    }
}


// ************************************************************************* //
