/*--------------------------------*- C++ -*----------------------------------*\
  =========                 |
  \\      /  F ield         | OpenFOAM: The Open Source CFD Toolbox
   \\    /   O peration     | Website:  https://openfoam.org
    \\  /    A nd           | Version:  13
     \\/     M anipulation  |
\*---------------------------------------------------------------------------*/
FoamFile
{
    format      ascii;
    class       volScalarField;
    location    "0.9";
    object      alpha.mercury;
}
// * * * * * * * * * * * * * * * * * * * * * * * * * * * * * * * * * * * * * //

dimensions      [];

internalField   nonuniform List<scalar> 
2268
(
1
1
1
1
1
1
1
1
1
1
1
1
1
1
1
1
1
1
1
1
0.999819
0.999431
0.999431
1
1
1
1
1
1
1
1
1
1
1
1
1
1
1
1
1
1
1
1
0.999991
0.999811
0.999483
1
1
1
1
1
1
1
1
1
1
1
1
1
1
1
1
1
1
1
1
1
1
0.999992
1
1
1
1
1
1
1
1
1
1
1
1
1
1
1
1
1
1
1
1
1
0.999999
0.999999
1
1
1
1
1
1
1
1
1
1
1
1
1
1
1
1
1
1
0.999999
1
1
0.999992
0.999978
1
1
1
1
1
1
1
1
1
1
1
1
1
0.998804
0.99366
0.983726
0.968867
0.949655
0.927627
0.902991
0.875043
0.84134
0.808947
0.851187
0.645503
0.661459
0.721543
0.771902
0.81893
0.842572
0.829578
0.786991
0.742194
0.701397
0.653474
0.593271
0.516327
0.440767
0.370123
0.307323
0.252931
0.208101
0.169593
0.134185
0.10374
0.0859251
0.101591
0.0154293
0.0210898
0.0413963
0.0648798
0.0781794
0.0707012
0.0621226
0.0644336
0.0628237
0.0488567
0.0246867
0.00253117
1.42552e-28
3.50728e-27
-3.59545e-14
-4.19166e-31
1.00686e-28
2.81183e-31
8.22908e-20
3.90681e-09
0.00026836
0.0370367
0.0389524
0.0354035
0.035396
0.0986874
0.179278
0.170687
0.11706
0.079114
0.0789722
0.120189
0.392019
0.532574
0.36571
0.290328
0.249123
0.238247
0.412915
0.669543
0.670566
0.0369197
0.0368478
0.0760149
0.214012
0.39215
0.404857
0.404608
0.395626
0.443241
0.6445
0.863797
0.866454
0.827701
0.781631
0.580972
0.239016
0.333776
0.66998
0.670056
0.0288016
0.1135
0.160261
0.153402
0.10839
0.145419
0.239765
0.352864
0.353063
0.302608
0.341871
0.581788
0.854377
0.867738
0.867496
0.305779
0.251958
0.421356
0.671826
0.0518612
0.112393
0.100591
0.0105626
0.000267504
0.000237384
0.000230175
0.000550196
0.00492507
0.000589338
0.000147657
0.0522658
0.370559
0.688423
0.851856
0.494252
0.186657
0.223981
0.680382
0.0777437
0.0469489
1.14406e-08
2.11418e-07
2.90128e-05
3.06241e-06
-8.54919e-24
2.06043e-05
7.24427e-05
6.12019e-05
0.000137391
2.40426e-06
0.000156648
0.126975
0.622663
0.710863
0.186596
0.221615
0.685543
0.0202915
4.5243e-07
1.80786e-07
2.26978e-07
-7.88289e-11
-2.42683e-12
-1.11194e-17
4.0064e-24
2.36081e-09
7.5128e-06
3.27566e-05
2.43346e-06
2.5202e-06
0.0599734
0.627207
0.723987
0.340557
0.450777
0.685543
0.00184136
4.17262e-05
3.72915e-06
1.45013e-06
4.31464e-07
1.40185e-07
3.93576e-08
2.14332e-09
2.3125e-09
2.4146e-09
5.95683e-09
2.71561e-06
2.88453e-06
0.126616
0.53105
0.521961
0.386765
0.639541
0.685543
0.00417775
1.14754e-05
7.64063e-07
1.42955e-06
5.21176e-07
2.62177e-07
3.51343e-07
1.54135e-07
2.43274e-09
2.50203e-09
7.69207e-07
2.12484e-05
0.00317414
0.129412
0.204433
0.27242
0.245762
0.614293
0.685543
5.15927e-08
7.78873e-16
6.8253e-20
3.30995e-19
-1.91008e-20
2.83769e-20
-2.1529e-21
1.24577e-29
4.52454e-26
2.13901e-24
7.73032e-24
5.93732e-23
3.04853e-22
1.20492e-13
2.37299e-13
9.74532e-14
4.16275e-13
1.94112e-13
1.03902e-13
-8.79185e-24
4.87969e-06
0.00632801
0.110619
4.72009e-09
6.18908e-09
5.8838e-09
3.9232e-09
1.44952e-09
1.17539e-09
8.06961e-22
1.63386e-13
2.09157e-12
4.85866e-12
9.51178e-12
1.71004e-11
2.2206e-11
2.26331e-11
1.78639e-11
1.68857e-11
1.64484e-11
1.31742e-11
2.17827e-11
1.67435e-10
3.31512e-10
7.54249e-11
3.16158e-11
4.02185e-09
4.07639e-09
3.86634e-09
3.01434e-09
1.01234e-09
2.86836e-10
5.1887e-13
1.67999e-12
5.63333e-12
1.62946e-11
3.98135e-11
7.94738e-11
8.11784e-11
6.74112e-11
5.03923e-11
5.03907e-11
8.00098e-11
2.44456e-10
1.42894e-09
5.5009e-09
8.7137e-09
1.15068e-08
1.29329e-08
1.55991e-09
1.6622e-09
1.54574e-09
1.22854e-09
3.61271e-10
7.76508e-11
1.19259e-12
6.72313e-13
1.24963e-12
1.69019e-12
1.27116e-12
1.26305e-12
2.79836e-12
4.69171e-12
1.01488e-11
4.06777e-11
1.11248e-09
6.38622e-09
9.62277e-09
1.01888e-08
8.73052e-09
5.03157e-09
6.63272e-10
4.23652e-10
4.63656e-10
4.38598e-10
2.47845e-10
5.93218e-11
9.65984e-12
6.46128e-13
2.42051e-13
3.34251e-13
3.84001e-13
2.17297e-13
1.84942e-13
1.95919e-13
1.04471e-10
2.00004e-09
5.2849e-09
5.88884e-09
5.74757e-09
2.51679e-09
7.42863e-10
5.04726e-10
4.30325e-10
3.87961e-10
4.44248e-11
1.64002e-11
1.52498e-11
3.18941e-11
1.0221e-11
1.97109e-12
2.08815e-13
8.59518e-14
9.64794e-14
8.53609e-14
7.43608e-14
2.39207e-11
7.36103e-10
2.83402e-09
4.00812e-09
4.17456e-09
3.01703e-09
1.09392e-09
5.54176e-10
4.56687e-10
3.49755e-10
2.33869e-10
2.15685e-10
4.45601e-13
4.11549e-13
9.68282e-13
1.05301e-12
2.58409e-13
8.55656e-14
1.56214e-14
6.34133e-15
5.67003e-15
1.20474e-12
1.39662e-10
1.0962e-09
2.05602e-09
2.25484e-09
1.95734e-09
8.60096e-10
4.06275e-10
1.84865e-10
1.28168e-10
9.42106e-11
7.12725e-11
7.51044e-11
1.32781e-10
3.65816e-16
1.18492e-16
1.12858e-15
1.03068e-15
1.38505e-15
4.48727e-16
2.58663e-15
2.23882e-13
2.77096e-12
8.78531e-11
8.23287e-10
1.6389e-09
1.69463e-09
1.05926e-09
5.82782e-10
3.28908e-10
1.33859e-10
7.04404e-11
4.72915e-11
4.02434e-11
4.71837e-11
7.56303e-11
8.24314e-11
2.02322e-19
9.9722e-20
3.93443e-19
2.57441e-18
4.87952e-18
5.49035e-17
3.79219e-16
3.2563e-14
1.81788e-12
8.96053e-11
7.94703e-10
1.43409e-09
1.43426e-09
6.77681e-10
1.70453e-10
7.41676e-11
3.78922e-11
2.44003e-11
2.03052e-11
1.97162e-11
2.11559e-11
2.12366e-11
2.07744e-11
2.97547e-21
3.94214e-22
1.69187e-20
4.78008e-18
6.86132e-17
4.05166e-16
5.86917e-15
1.81794e-13
4.14856e-12
5.30664e-11
3.95308e-10
9.43529e-10
1.06445e-09
6.87488e-10
1.75957e-10
3.85609e-11
1.58277e-11
1.15363e-11
1.0259e-11
9.78469e-12
9.51302e-12
9.15054e-12
8.2558e-12
2.46652e-22
1.65062e-22
4.17674e-21
2.12499e-18
4.37227e-17
1.61998e-15
1.36711e-14
1.3952e-13
1.42689e-12
1.51762e-11
8.29895e-11
3.23068e-10
5.17323e-10
6.01827e-10
5.46759e-10
3.99603e-10
1.51599e-10
3.73843e-11
1.60042e-11
1.23011e-11
7.59846e-12
6.98903e-12
5.97165e-12
5.61915e-23
7.04166e-23
1.12693e-21
1.5213e-19
5.14883e-17
8.15989e-16
7.67405e-15
5.93202e-14
3.67343e-13
1.73962e-12
1.57407e-11
8.33356e-11
2.0696e-10
3.49384e-10
5.18519e-10
5.54935e-10
5.61609e-10
4.71476e-10
2.09499e-10
5.51237e-11
1.23548e-11
7.5554e-12
6.04075e-12
1.25626e-23
2.07277e-23
3.01487e-22
1.41716e-20
8.86136e-18
1.48143e-16
1.54252e-15
1.01018e-14
1.16033e-13
5.73983e-13
1.90185e-12
8.97609e-12
6.33941e-11
1.6817e-10
2.93133e-10
4.29175e-10
5.72873e-10
6.55172e-10
5.83548e-10
2.77519e-10
5.08386e-11
1.62068e-11
8.67145e-12
1.80202e-24
4.63429e-24
5.95685e-23
1.19216e-21
1.23474e-18
3.03735e-17
3.98324e-16
3.50522e-15
1.71717e-14
1.1269e-13
6.84832e-13
2.63485e-12
6.51131e-12
2.63903e-11
6.53887e-11
1.52987e-10
3.03142e-10
5.20892e-10
6.63217e-10
5.8138e-10
2.26472e-10
6.16936e-11
2.58243e-11
8.38634e-26
7.79875e-25
1.05012e-23
5.80344e-23
5.76126e-20
3.3042e-18
5.57904e-17
6.67419e-16
6.07298e-15
3.30222e-14
2.34382e-13
9.32779e-13
2.45531e-12
4.73341e-12
1.57072e-11
2.88673e-11
1.11587e-10
2.07236e-10
4.75775e-10
5.92509e-10
3.65284e-10
1.39241e-10
6.16645e-11
-6.29106e-26
7.67138e-26
1.93746e-24
6.08572e-24
1.32064e-21
2.11588e-19
4.36926e-18
7.05679e-17
1.1551e-15
1.07772e-14
5.1124e-14
2.48284e-13
7.60571e-13
2.06753e-12
6.30698e-12
8.05933e-12
2.12318e-11
6.82926e-11
1.75364e-10
3.50737e-10
3.03965e-10
1.69554e-10
7.12826e-11
-3.31325e-26
-8.58345e-27
3.45528e-25
1.07551e-24
1.81312e-23
1.02096e-20
2.59281e-19
5.19907e-18
1.18534e-16
1.49901e-15
1.39504e-14
8.91939e-14
3.1696e-13
7.66513e-13
1.93393e-12
2.61978e-12
4.29371e-12
1.39313e-11
3.77207e-11
7.8677e-11
1.11483e-10
8.66491e-11
4.60323e-11
-1.10101e-26
-7.44048e-27
5.33823e-26
1.96672e-25
5.48385e-25
4.3561e-22
2.36528e-20
5.05105e-19
9.02205e-18
1.3407e-16
1.64722e-15
1.6339e-14
7.4307e-14
2.36957e-13
3.13028e-13
5.06738e-13
9.10197e-13
6.60513e-12
7.36211e-12
1.29406e-11
1.92338e-11
1.68605e-11
1.27786e-11
-2.89931e-27
-2.59252e-27
6.6812e-27
3.08306e-26
3.2094e-26
1.97958e-23
2.63378e-21
6.10147e-20
1.02563e-18
1.54555e-17
1.46571e-16
2.13914e-15
1.3131e-14
5.17679e-14
9.58374e-14
1.46166e-13
2.91806e-13
2.63088e-12
2.83939e-12
2.9864e-12
2.93231e-12
2.64938e-12
2.90563e-12
-6.39679e-28
-6.6896e-28
6.00661e-28
3.99893e-27
3.08096e-27
9.69893e-25
2.30286e-22
6.38821e-21
1.36134e-19
2.2304e-18
2.0714e-17
3.34175e-16
2.33911e-15
1.21143e-14
2.93529e-14
7.59885e-14
1.73547e-13
9.41095e-13
1.14155e-12
1.28832e-12
1.03883e-12
1.13865e-12
1.30193e-12
-1.20856e-28
-1.41103e-28
1.89482e-29
4.30398e-28
2.88145e-28
3.38864e-26
1.62574e-23
5.69099e-22
1.42052e-20
2.66934e-19
3.43211e-18
5.30841e-17
4.21227e-16
3.0234e-15
1.00801e-14
3.33231e-14
8.30311e-14
3.18545e-13
4.354e-13
4.94455e-13
5.243e-13
5.93707e-13
6.81256e-13
-1.97733e-29
-2.52028e-29
-6.45077e-30
3.77326e-29
2.45117e-29
9.57394e-28
9.50953e-25
4.18822e-23
1.22361e-21
2.68171e-20
4.59192e-19
7.16635e-18
7.0707e-17
6.68627e-16
3.0311e-15
1.16122e-14
3.10514e-14
1.01738e-13
1.54853e-13
1.91938e-13
2.35233e-13
2.81157e-13
3.05618e-13
-2.82322e-30
-3.87913e-30
-1.85481e-30
2.50881e-30
1.72028e-30
2.61073e-29
4.57338e-26
2.55548e-24
8.92131e-23
2.34371e-21
5.00559e-20
8.64358e-19
1.0603e-17
1.22783e-16
7.23481e-16
3.17076e-15
9.36414e-15
2.93727e-14
4.92925e-14
6.96709e-14
9.18204e-14
1.10825e-13
1.13517e-13
-3.541e-31
-5.20035e-31
-3.16912e-31
8.98856e-32
8.5986e-32
6.33531e-31
1.78152e-27
1.32993e-25
5.57435e-24
1.79568e-22
4.60819e-21
9.40957e-20
1.37524e-18
1.85325e-17
1.35878e-16
6.8689e-16
2.31339e-15
7.38674e-15
1.36285e-14
2.16348e-14
2.95883e-14
3.59132e-14
3.50386e-14
-3.92596e-32
-6.11984e-32
-4.21439e-32
-5.37352e-33
1.19101e-33
1.26271e-32
5.68824e-29
6.13901e-27
3.07448e-25
1.20547e-23
3.65389e-22
8.8773e-21
1.51671e-19
2.29847e-18
2.03313e-17
1.19839e-16
4.72415e-16
1.58693e-15
3.21809e-15
5.56879e-15
7.89065e-15
8.8898e-15
8.50905e-15
-3.87164e-33
-6.36406e-33
-4.68852e-33
-1.45535e-33
-3.47454e-34
1.46301e-34
1.56311e-30
2.58573e-28
1.52982e-26
7.1076e-25
2.50742e-23
7.07901e-22
1.4155e-20
2.36656e-19
2.47405e-18
1.71112e-17
8.0099e-17
2.88203e-16
6.40852e-16
1.18411e-15
1.70099e-15
2.0013e-15
1.76927e-15
-3.41721e-34
-5.88433e-34
-4.50378e-34
-1.78048e-34
-5.38889e-35
-9.03741e-36
3.77567e-32
9.83634e-30
6.79843e-28
3.67011e-26
1.49015e-24
4.79448e-23
1.12213e-21
2.05694e-20
2.49997e-19
2.02624e-18
1.12753e-17
4.38643e-17
1.06121e-16
2.07572e-16
3.06758e-16
2.62969e-16
2.66718e-16
-2.71623e-35
-4.86698e-35
-3.80242e-35
-1.65122e-35
-5.30682e-36
-1.28331e-36
8.06244e-34
3.28122e-31
2.64642e-29
1.65305e-27
7.69688e-26
2.79896e-24
7.60857e-23
1.52955e-21
2.13215e-20
2.00593e-19
1.31362e-18
5.54649e-18
1.43883e-17
2.96943e-17
4.42929e-17
4.26332e-17
3.21603e-17
-1.95642e-36
-3.62288e-36
-2.85498e-36
-1.28614e-36
-4.20508e-37
-1.06733e-37
1.4565e-35
9.46412e-33
8.97673e-31
6.50583e-29
3.4725e-27
1.42363e-25
4.43389e-24
9.78106e-23
1.54895e-21
1.66535e-20
1.26221e-19
5.77973e-19
1.5764e-18
3.41647e-18
5.02839e-18
2.39827e-18
2.81255e-18
-1.28469e-37
-2.44191e-37
-1.92362e-37
-8.75049e-38
-2.85805e-38
-6.32564e-39
2.40784e-37
2.37891e-34
2.6681e-32
2.24562e-30
1.37124e-28
6.33023e-27
2.22276e-25
5.37036e-24
9.60545e-23
1.15987e-21
9.98274e-21
4.93066e-20
1.38483e-19
3.12317e-19
4.43818e-19
3.01731e-19
1.76091e-19
-7.7369e-39
-1.49949e-38
-1.17204e-38
-5.30433e-39
-1.68877e-39
3.29581e-40
1.88253e-38
5.52213e-36
7.01898e-34
6.81105e-32
4.73664e-30
2.45662e-28
9.57012e-27
2.52289e-25
5.07279e-24
6.77757e-23
6.49829e-22
3.42734e-21
9.73182e-21
2.25205e-20
3.01335e-20
1.65797e-20
9.61004e-21
-4.29795e-40
-8.43985e-40
-6.50322e-40
-2.8965e-40
-7.48321e-41
4.20911e-40
9.44242e-39
2.73103e-37
1.87847e-35
1.8495e-33
1.43493e-31
8.29687e-30
3.53342e-28
1.01326e-26
2.27508e-25
3.32744e-24
3.48661e-23
1.93605e-22
5.47846e-22
1.27698e-21
1.56276e-21
8.8136e-22
3.58545e-22
-2.21453e-41
-4.38037e-41
-3.30767e-41
-1.41965e-41
3.74113e-42
2.11142e-40
4.57605e-39
8.68561e-38
1.69769e-36
6.20407e-35
4.03244e-33
2.45614e-31
1.12212e-29
3.49616e-28
8.66638e-27
1.37697e-25
1.54582e-24
8.8877e-24
2.4797e-23
5.66954e-23
6.28003e-23
2.65178e-23
1.17513e-23
-1.0639e-42
-2.10869e-42
-1.55057e-42
-5.60247e-43
3.01252e-42
8.3583e-41
1.85693e-39
3.51992e-38
5.7635e-37
9.1432e-36
1.93428e-34
7.36199e-33
3.18096e-31
1.05465e-29
2.82351e-28
4.83095e-27
5.68735e-26
3.33026e-25
9.08935e-25
2.00619e-24
1.23861e-24
5.94672e-25
6.69972e-25
-4.78931e-44
-9.46847e-44
-6.69169e-44
5.09868e-45
1.06073e-42
2.79729e-41
6.23752e-40
1.19807e-38
1.98635e-37
2.93405e-36
3.93326e-35
5.63902e-34
1.16225e-32
3.12382e-31
8.18243e-30
1.46342e-28
1.75792e-27
1.03484e-26
2.76429e-26
5.90444e-26
3.15116e-26
4.10126e-26
2.2138e-25
-2.02973e-45
-3.9854e-45
-2.53857e-45
8.2317e-45
3.06402e-43
8.11394e-42
1.78521e-40
3.47149e-39
5.87476e-38
8.75639e-37
1.13407e-35
1.32918e-34
1.48118e-33
1.83844e-32
2.88773e-31
4.39863e-30
4.9716e-29
2.92954e-28
8.35835e-28
2.16351e-27
4.09371e-27
1.74336e-26
8.01656e-26
-8.13473e-47
-1.57573e-46
-5.1654e-47
2.26804e-45
7.67058e-44
2.05544e-42
4.47924e-41
8.80075e-40
1.50298e-38
2.26069e-37
2.92812e-36
3.42252e-35
3.5467e-34
3.36283e-33
3.05983e-32
2.75546e-31
2.32079e-30
1.39836e-29
6.18055e-29
2.8845e-28
1.21773e-27
6.07243e-27
3.12799e-26
-3.09593e-48
-5.77226e-48
8.16085e-48
5.06919e-46
1.69566e-44
4.58271e-43
9.97978e-42
1.97441e-40
3.37427e-39
5.09424e-38
6.61786e-37
7.84247e-36
8.15571e-35
7.63718e-34
6.42836e-33
4.88357e-32
3.51439e-31
2.2127e-30
1.28942e-29
7.38742e-29
3.80619e-28
2.1077e-27
1.17357e-26
-1.12229e-49
-1.75429e-49
2.06956e-48
1.00899e-46
3.35873e-45
9.10293e-44
1.99042e-42
3.93972e-41
6.73523e-40
1.01676e-38
1.32792e-37
1.59888e-36
1.67922e-35
1.59616e-34
1.35737e-33
1.03924e-32
7.53473e-32
4.9842e-31
3.20389e-30
2.01384e-29
1.21411e-28
7.60453e-28
4.76379e-27
-3.86413e-51
-3.41454e-52
4.08433e-49
1.82763e-47
6.03833e-46
1.63326e-44
3.58886e-43
7.04632e-42
1.21093e-40
1.82604e-39
2.40624e-38
2.94427e-37
3.13228e-36
3.0339e-35
2.64416e-34
2.10808e-33
1.60785e-32
1.1622e-31
8.40897e-31
6.24099e-30
4.61681e-29
3.33127e-28
2.20777e-27
-1.21734e-52
9.55095e-52
7.10568e-50
3.05441e-48
9.97938e-47
2.68354e-45
5.91834e-44
1.14603e-42
1.98854e-41
3.00004e-40
4.0074e-39
4.98571e-38
5.40722e-37
5.38378e-36
4.90776e-35
4.22373e-34
3.59215e-33
3.05143e-32
2.6685e-31
2.31545e-30
1.88078e-29
1.3371e-28
9.82933e-28
-2.47445e-54
1.96521e-52
1.15669e-50
4.80469e-49
1.54072e-47
4.09897e-46
9.04645e-45
1.72909e-43
3.02902e-42
4.58937e-41
6.24955e-40
7.93278e-39
8.88089e-38
9.28009e-37
9.21057e-36
9.04645e-35
9.08577e-34
9.19152e-33
9.31034e-32
8.53432e-31
6.68169e-30
4.73724e-29
3.22889e-28
0.137195
0.124805
0.0217783
4.0817e-20
8.2167e-10
-4.72477e-11
1.75748e-10
-1.06676e-10
1.28649e-08
1.26694e-08
8.9363e-09
8.67608e-09
3.8069e-10
3.76215e-10
3.92731e-10
4.09706e-10
4.00621e-10
4.54061e-10
4.95578e-10
5.37351e-10
3.06847e-10
3.52717e-10
3.77303e-10
4.00322e-10
1.76286e-10
1.83623e-10
2.11824e-10
2.5634e-10
7.46413e-11
7.09677e-11
6.65603e-11
6.00166e-11
2.07088e-11
1.94434e-11
1.79301e-11
1.73564e-11
6.91698e-12
6.41304e-12
6.09482e-12
5.6179e-12
4.9829e-12
4.35121e-12
3.92939e-12
3.68371e-12
5.10657e-12
4.17808e-12
3.80132e-12
3.44515e-12
6.44015e-12
5.21396e-12
4.23382e-12
3.82538e-12
1.59512e-11
1.13722e-11
7.10331e-12
4.72391e-12
4.50709e-11
3.27702e-11
2.1365e-11
1.40447e-11
5.46565e-11
4.81778e-11
4.08959e-11
2.83128e-11
3.43776e-11
3.32393e-11
3.12903e-11
2.81646e-11
1.1231e-11
1.06056e-11
1.00179e-11
9.90502e-12
2.84768e-12
2.87698e-12
3.05999e-12
3.08681e-12
1.30219e-12
1.23262e-12
1.13809e-12
1.07386e-12
6.82117e-13
6.20325e-13
5.59922e-13
4.91008e-13
2.87691e-13
2.63872e-13
2.24028e-13
1.86102e-13
1.06662e-13
9.4207e-14
7.8515e-14
6.23743e-14
3.15795e-14
2.80692e-14
2.09858e-14
1.5557e-14
7.8417e-15
5.94773e-15
4.59799e-15
3.40409e-15
1.34484e-15
1.15752e-15
8.04539e-16
5.4584e-16
2.18815e-16
1.37712e-16
1.0865e-16
7.78621e-17
2.51322e-17
1.93519e-17
1.19461e-17
8.59086e-18
2.25861e-18
1.19872e-18
9.76435e-19
6.57938e-19
1.00783e-19
8.6793e-20
6.11272e-20
3.73912e-20
6.24848e-21
4.90437e-21
3.21616e-21
2.18272e-21
2.57311e-22
2.08637e-22
1.40893e-22
7.42114e-23
9.58735e-24
7.25157e-24
6.99088e-24
8.63494e-24
8.8809e-25
1.42758e-24
2.51172e-24
7.36457e-24
3.69523e-25
6.03619e-25
2.04751e-24
5.04656e-24
1.7878e-25
4.65316e-25
1.27372e-24
4.02078e-24
7.84747e-26
1.89895e-25
8.95807e-25
2.46554e-24
4.42617e-26
1.56267e-25
4.83403e-25
1.45336e-24
2.14603e-26
7.55717e-26
2.85971e-25
8.32892e-25
1.25463e-26
4.41658e-26
1.36912e-25
4.42049e-25
5.6362e-27
1.95377e-26
6.3624e-26
1.8275e-25
1.94664e-27
5.95243e-27
1.69029e-26
4.24347e-26
0.00271352
2.62872e-08
6.23397e-07
7.7121e-07
2.00733e-07
3.64453e-07
5.00204e-07
3.09722e-07
2.20915e-07
9.5139e-08
1.91215e-06
0.000189684
0.00458064
0.0930747
0.117987
0.117327
0.23447
0.501256
0.642828
7.07683e-10
2.41915e-08
2.08307e-09
1.60568e-09
2.03363e-07
3.37494e-07
5.06652e-07
7.01774e-07
9.01657e-07
8.17342e-07
2.87033e-07
0.000162055
0.00343346
0.0334953
0.152144
0.257517
0.325443
0.318832
0.0803339
8.81184e-09
9.08112e-09
7.29928e-09
1.25104e-09
5.24713e-10
5.36526e-10
5.64745e-08
1.6938e-07
3.35558e-07
4.52253e-07
2.64014e-07
4.97928e-09
0.000721175
0.0209697
0.0811774
0.182107
0.128395
0.0355616
0.0224325
4.28233e-10
4.29651e-10
5.08612e-10
6.80154e-10
1.00834e-09
2.18427e-09
3.17574e-09
3.67121e-09
1.12666e-08
2.07732e-08
3.94061e-08
3.13575e-09
1.07579e-06
0.00188666
0.0207472
0.0515378
0.0118905
0.00826835
0.016652
6.30493e-10
7.27402e-10
1.17998e-09
1.96085e-09
3.60848e-09
1.48751e-08
3.95626e-08
4.21154e-08
1.98948e-08
1.13189e-08
1.14621e-08
4.38135e-06
1.0134e-05
6.80637e-06
8.97252e-06
8.45523e-06
9.9265e-06
0.00784517
0.00316436
4.75009e-10
6.3696e-10
1.40479e-09
3.11125e-09
7.16177e-09
1.48963e-08
2.89035e-08
4.21151e-08
3.63045e-08
2.39674e-08
1.23127e-08
1.65902e-08
0.000102579
0.000321161
0.000331735
0.000186914
1.34733e-05
0.00346253
0.00181636
2.70588e-10
2.6999e-10
2.64651e-10
3.02919e-10
3.48702e-10
3.29554e-10
9.37972e-10
9.56533e-09
1.44645e-08
1.0745e-08
6.86077e-08
2.70125e-07
3.25663e-05
0.000186211
0.000240796
0.000172753
1.12776e-05
0.00046522
0.00178251
5.44647e-11
5.16546e-11
5.69413e-11
6.89016e-11
7.01782e-11
5.62263e-11
5.12316e-11
4.93811e-11
1.84535e-10
1.13129e-08
2.22807e-08
1.9945e-08
-2.63122e-27
-4.63081e-09
1.97319e-12
2.74733e-05
1.14401e-05
5.03838e-06
0.000774437
1.71024e-11
1.78467e-11
2.98651e-11
4.95051e-11
6.50106e-11
7.20694e-11
7.11642e-11
5.57504e-11
5.2862e-11
5.46543e-10
5.06141e-09
1.3362e-08
7.69924e-09
9.93793e-09
3.46705e-06
5.53353e-06
1.23617e-05
5.26584e-06
1.78678e-05
5.37012e-12
5.21881e-12
6.6564e-12
1.11631e-11
1.93714e-11
2.92148e-11
3.63591e-11
3.94187e-11
3.15542e-11
4.77687e-12
6.97391e-13
8.50339e-13
6.97391e-13
1.90747e-12
1.48529e-13
1.3229e-13
8.29033e-07
4.24291e-06
7.80997e-06
3.3544e-12
2.78887e-12
2.44636e-12
2.33616e-12
2.8889e-12
3.66353e-12
4.58436e-12
6.03384e-12
8.56773e-12
1.20045e-11
1.19134e-11
9.15406e-12
4.98715e-12
2.66494e-12
6.1595e-13
1.17852e-13
6.92278e-16
4.42297e-17
2.71768e-15
2.9673e-12
2.40146e-12
1.92527e-12
1.53726e-12
1.29593e-12
1.11804e-12
9.84835e-13
9.14897e-13
8.63536e-13
8.28313e-13
8.41497e-13
6.16943e-13
4.64332e-13
2.62864e-13
1.82499e-13
1.26018e-13
2.14679e-14
7.76286e-15
3.00863e-15
3.01401e-12
2.42605e-12
1.92313e-12
1.52417e-12
1.26957e-12
1.0152e-12
8.15812e-13
6.62205e-13
4.93781e-13
3.38289e-13
2.53213e-13
2.1079e-13
1.82467e-13
1.52046e-13
1.0888e-13
5.85898e-14
2.38931e-14
6.49048e-15
2.09309e-15
3.00388e-12
1.95691e-12
1.70919e-12
1.46427e-12
1.23513e-12
1.07249e-12
9.11413e-13
7.77343e-13
6.07645e-13
4.91931e-13
4.1332e-13
3.5596e-13
3.15598e-13
2.63884e-13
1.88087e-13
1.18048e-13
5.03067e-14
1.62828e-14
2.52277e-15
7.14899e-12
1.48753e-12
8.51048e-13
8.69691e-13
9.43547e-13
8.56825e-13
8.5863e-13
7.4755e-13
6.62187e-13
5.93161e-13
4.97701e-13
3.95544e-13
3.44039e-13
2.87592e-13
2.10132e-13
1.49957e-13
8.57785e-14
3.3151e-14
3.96051e-15
1.4604e-11
3.40006e-12
5.43099e-13
3.09605e-13
3.32642e-13
4.23652e-13
4.99816e-13
5.49309e-13
5.26852e-13
5.0432e-13
4.61001e-13
3.52817e-13
3.06783e-13
2.73113e-13
2.33715e-13
1.6097e-13
1.01862e-13
4.43703e-14
5.72075e-15
1.94551e-11
5.70503e-12
8.27153e-13
2.16798e-13
1.41605e-13
1.35733e-13
1.51205e-13
2.01423e-13
2.45674e-13
2.61973e-13
1.98186e-13
1.6727e-13
1.61905e-13
1.67045e-13
1.69002e-13
1.45797e-13
1.08755e-13
5.50197e-14
7.41559e-15
8.29275e-12
4.6173e-12
1.31151e-12
2.44913e-13
9.54391e-14
7.14662e-14
7.14539e-14
6.81504e-14
7.38839e-14
8.24175e-14
8.86086e-14
7.38312e-14
6.99948e-14
7.54306e-14
9.21271e-14
1.15889e-13
1.04769e-13
5.964e-14
9.00576e-15
2.84888e-12
2.03411e-12
9.9388e-13
2.63679e-13
9.55965e-14
4.7224e-14
3.69899e-14
4.10351e-14
4.40027e-14
4.17385e-14
5.14543e-14
3.75876e-14
4.13109e-14
4.78123e-14
6.49327e-14
9.50388e-14
9.12899e-14
6.00159e-14
1.06091e-14
9.95428e-13
7.60537e-13
4.54492e-13
1.97067e-13
8.27099e-14
4.05357e-14
2.26089e-14
2.21904e-14
2.77458e-14
2.73894e-14
2.76645e-14
2.68074e-14
2.82173e-14
3.46356e-14
5.03353e-14
6.60879e-14
7.84074e-14
5.63692e-14
1.12597e-14
3.73052e-13
2.65139e-13
1.4484e-13
9.00475e-14
4.5477e-14
2.22988e-14
1.24113e-14
1.06533e-14
1.25399e-14
1.45998e-14
1.50475e-14
1.43007e-14
1.55639e-14
2.16288e-14
3.62144e-14
5.40596e-14
6.77546e-14
4.9295e-14
1.16679e-14
1.29003e-13
8.1148e-14
4.58685e-14
2.96468e-14
1.64006e-14
8.37185e-15
4.73772e-15
4.05823e-15
4.75286e-15
5.7501e-15
6.32563e-15
6.70398e-15
7.86624e-15
1.30556e-14
2.502e-14
4.20781e-14
5.59016e-14
4.48251e-14
1.02972e-14
4.05529e-14
2.29841e-14
1.20871e-14
8.12708e-15
4.76295e-15
2.5976e-15
1.60816e-15
1.5627e-15
2.02627e-15
2.55157e-15
2.95431e-15
3.36082e-15
4.60053e-15
8.83601e-15
1.99074e-14
3.3338e-14
4.75596e-14
3.82677e-14
7.53167e-15
1.00284e-14
5.62444e-15
2.93656e-15
1.9417e-15
1.14543e-15
6.56216e-16
5.09065e-16
6.03043e-16
8.30203e-16
1.05515e-15
1.26646e-15
1.58411e-15
2.6723e-15
6.47395e-15
1.6038e-14
2.87886e-14
3.98339e-14
3.00508e-14
5.46936e-15
2.01303e-15
1.07112e-15
6.62625e-16
3.71019e-16
1.82706e-16
1.42268e-16
1.62234e-16
2.29105e-16
3.23647e-16
4.24438e-16
5.43624e-16
7.94015e-16
1.79501e-15
5.18615e-15
1.34299e-14
2.50012e-14
3.22435e-14
2.19264e-14
4.59331e-15
3.35491e-16
1.70526e-16
1.02343e-16
5.59044e-17
3.9609e-17
4.22098e-17
5.57757e-17
8.15357e-17
1.21061e-16
1.68845e-16
2.36911e-16
4.25123e-16
1.14732e-15
3.67258e-15
9.21645e-15
1.68599e-14
2.45058e-14
1.56248e-14
2.73548e-15
4.4493e-17
2.17058e-17
1.27052e-17
8.91837e-18
9.4549e-18
1.23581e-17
1.84377e-17
2.7475e-17
3.31231e-17
3.86091e-17
5.54142e-17
1.62144e-16
7.40891e-16
2.75464e-15
6.84457e-15
1.07409e-14
1.82481e-14
9.6443e-15
1.5747e-15
4.43954e-18
2.22722e-18
1.58552e-18
1.64716e-18
1.75765e-18
2.1021e-18
2.53969e-18
2.96659e-18
3.49018e-18
5.09532e-18
1.36051e-17
9.36155e-17
5.63709e-16
2.10299e-15
4.86108e-15
7.12764e-15
7.81633e-15
5.43292e-15
6.98915e-16
3.51865e-19
2.07747e-19
1.88005e-19
1.8733e-19
1.81821e-19
1.67923e-19
1.50753e-19
1.55917e-19
2.333e-19
7.09137e-19
4.44769e-18
6.10576e-17
4.01058e-16
1.40478e-15
2.96539e-15
4.03305e-15
3.60804e-15
1.8736e-15
4.09428e-16
2.24435e-20
9.91984e-21
3.91349e-21
3.51772e-21
4.42019e-21
6.84018e-21
1.19092e-20
2.22495e-20
4.99976e-20
1.67335e-19
1.4711e-18
3.4411e-17
2.24947e-16
7.42089e-16
1.45349e-15
1.85722e-15
1.46324e-15
6.90607e-16
1.13514e-16
6.97609e-22
4.24673e-22
7.92054e-22
1.74112e-21
3.68345e-21
7.492e-21
1.45401e-20
2.70815e-20
4.97506e-20
9.98373e-20
4.55248e-19
1.42563e-17
9.14858e-17
2.82907e-16
5.64889e-16
6.77223e-16
4.83052e-16
1.77328e-16
3.09783e-17
9.95809e-23
3.36875e-22
8.78008e-22
1.98294e-21
4.3178e-21
9.15777e-21
1.8425e-20
3.49997e-20
6.26951e-20
1.08109e-19
2.31944e-19
3.94829e-18
2.30566e-17
8.21827e-17
1.67334e-16
1.86529e-16
1.14317e-16
4.25423e-17
5.68199e-18
8.03702e-23
3.08168e-22
8.22736e-22
1.99346e-21
4.53604e-21
9.99498e-21
2.0823e-20
4.0921e-20
7.59781e-20
1.32693e-19
2.22986e-19
8.29114e-19
7.05214e-18
1.94246e-17
3.76216e-17
3.86575e-17
2.67677e-17
7.64156e-18
1.7708e-18
6.35085e-23
2.33132e-22
6.47822e-22
1.70214e-21
4.19639e-21
9.77081e-21
2.13468e-20
4.34078e-20
8.30807e-20
1.48604e-19
2.47076e-19
4.12117e-19
1.71286e-18
4.55082e-18
6.72133e-18
7.66053e-18
5.44553e-18
2.13527e-18
4.28941e-19
4.19081e-23
1.4592e-22
4.41771e-22
1.25238e-21
3.30808e-21
8.23848e-21
1.90603e-20
4.10504e-20
8.25771e-20
1.52417e-19
2.56851e-19
3.92472e-19
6.27601e-19
1.17007e-18
2.05043e-18
2.6115e-18
2.03735e-18
6.42978e-19
1.71994e-19
2.24685e-23
8.17814e-23
2.69914e-22
8.25695e-22
2.34783e-21
6.17803e-21
1.51117e-20
3.42226e-20
7.2456e-20
1.38113e-19
2.36794e-19
3.81841e-19
5.13314e-19
7.7334e-19
1.24004e-18
1.2859e-18
7.61065e-19
2.83778e-19
6.91831e-20
1.16942e-23
4.35446e-23
1.55161e-22
5.05303e-22
1.51331e-21
4.14541e-21
1.05092e-20
2.46345e-20
5.4282e-20
1.06773e-19
1.86717e-19
2.86037e-19
4.20343e-19
5.5107e-19
5.91591e-19
4.96624e-19
2.7315e-19
9.29866e-20
3.21895e-20
5.91552e-24
2.33548e-23
8.709e-23
2.97182e-22
9.03214e-22
2.51199e-21
6.46996e-21
1.52328e-20
3.38363e-20
6.88098e-20
1.21226e-19
1.8612e-19
2.62359e-19
3.02907e-19
2.02147e-19
1.35218e-19
5.82866e-20
3.96186e-20
1.30269e-20
2.89551e-24
1.21317e-23
4.61271e-23
1.57529e-22
4.76704e-22
1.34947e-21
3.41809e-21
7.82724e-21
1.70109e-20
3.44928e-20
5.91961e-20
8.69421e-20
1.15744e-19
1.20768e-19
7.7315e-20
3.28854e-20
2.51502e-20
1.35186e-20
5.92724e-21
1.30607e-24
5.32696e-24
2.00136e-23
6.70087e-23
2.01298e-22
5.55463e-22
1.40027e-21
3.27498e-21
6.89082e-21
1.35761e-20
2.32034e-20
3.35456e-20
3.72198e-20
3.9422e-20
2.28864e-20
1.28026e-20
7.0724e-21
4.5034e-21
2.79881e-21
4.739e-25
1.84011e-24
6.65268e-24
2.14882e-23
6.28363e-23
1.71636e-22
4.39569e-22
1.01373e-21
2.16671e-21
4.0754e-21
6.77481e-21
9.481e-21
1.05611e-20
9.30168e-21
5.17708e-21
3.35949e-21
1.73754e-21
1.46921e-21
8.1495e-22
9.64214e-26
3.65066e-25
1.28224e-24
4.06475e-24
1.17678e-23
3.31559e-23
8.04942e-23
1.89003e-22
3.91746e-22
7.30102e-22
1.16292e-21
1.54955e-21
1.62298e-21
1.21868e-21
7.12837e-22
5.28896e-22
3.96457e-22
1.63676e-22
1.13414e-22
)
;

boundaryField
{
    leftWall
    {
        type            alphaContactAngle;
        contactAngleProperties 
        {
            air             
            {
                theta0          90;
            }
            water           
            {
                theta0          90;
            }
            oil             
            {
                theta0          90;
            }
        }
        value           nonuniform List<scalar> 
50
(
1
1
1
1
1
1
0.851187
0.101591
5.15927e-08
4.72009e-09
4.02185e-09
1.55991e-09
4.23652e-10
4.44248e-11
4.45601e-13
3.65816e-16
2.02322e-19
2.97547e-21
2.46652e-22
5.61915e-23
1.25626e-23
1.80202e-24
8.38634e-26
-6.29106e-26
-3.31325e-26
-1.10101e-26
-2.89931e-27
-6.39679e-28
-1.20856e-28
-1.97733e-29
-2.82322e-30
-3.541e-31
-3.92596e-32
-3.87164e-33
-3.41721e-34
-2.71623e-35
-1.95642e-36
-1.28469e-37
-7.7369e-39
-4.29795e-40
-2.21453e-41
-1.0639e-42
-4.78931e-44
-2.02973e-45
-8.13473e-47
-3.09593e-48
-1.12229e-49
-3.86413e-51
-1.21734e-52
-2.47445e-54
)
;
    }
    rightWall
    {
        type            alphaContactAngle;
        contactAngleProperties 
        {
            air             
            {
                theta0          90;
            }
            water           
            {
                theta0          90;
            }
            oil             
            {
                theta0          90;
            }
        }
        value           nonuniform List<scalar> 
50
(
0.670566
0.670056
0.671826
0.680382
0.685543
0.685543
0.685543
0.685543
0.642828
0.0803339
0.0224325
0.016652
0.00316436
0.00181636
0.00178251
0.000774437
1.78678e-05
7.80997e-06
2.71768e-15
3.00863e-15
2.09309e-15
2.52277e-15
3.96051e-15
5.72075e-15
7.41559e-15
9.00576e-15
1.06091e-14
1.12597e-14
1.16679e-14
1.02972e-14
7.53167e-15
5.46936e-15
4.59331e-15
2.73548e-15
1.5747e-15
6.98915e-16
4.09428e-16
1.13514e-16
3.09783e-17
5.68199e-18
1.7708e-18
4.28941e-19
1.71994e-19
6.91831e-20
3.21895e-20
1.30269e-20
5.92724e-21
2.79881e-21
8.1495e-22
1.13414e-22
)
;
    }
    lowerWall
    {
        type            alphaContactAngle;
        contactAngleProperties 
        {
            air             
            {
                theta0          90;
            }
            water           
            {
                theta0          90;
            }
            oil             
            {
                theta0          90;
            }
        }
        value           nonuniform List<scalar> 
62
(
1
1
1
1
1
1
1
1
1
1
1
1
1
1
1
1
1
1
1
1
0.999819
0.999431
0.999431
0.999431
0.999483
0.999992
0.999999
0.999978
0.808947
0.0859251
0.0370367
0.137195
0.124805
0.0217783
4.0817e-20
0.0389524
0.0369197
0.0288016
0.0518612
0.0777437
0.0202915
0.00184136
0.00417775
0.0389524
0.0354035
0.035396
0.0986874
0.179278
0.170687
0.11706
0.079114
0.0789722
0.120189
0.392019
0.532574
0.36571
0.290328
0.249123
0.238247
0.412915
0.669543
0.670566
)
;
    }
    atmosphere
    {
        type            inletOutlet;
        inletValue      uniform 0;
        value           nonuniform List<scalar> 
46
(
-2.47445e-54
1.96521e-52
1.15669e-50
4.80469e-49
1.54072e-47
4.09897e-46
9.04645e-45
1.72909e-43
3.02902e-42
4.58937e-41
6.24955e-40
7.93278e-39
8.88089e-38
9.28009e-37
9.21057e-36
9.04645e-35
9.08577e-34
9.19153e-33
9.31034e-32
8.53432e-31
6.68169e-30
4.73724e-29
3.22889e-28
0
0
0
0
0
0
0
0
0
0
0
0
0
0
0
0
0
0
0
0
0
0
0
)
;
    }
    defaultFaces
    {
        type            empty;
    }
}


// ************************************************************************* //
