/*--------------------------------*- C++ -*----------------------------------*\
  =========                 |
  \\      /  F ield         | OpenFOAM: The Open Source CFD Toolbox
   \\    /   O peration     | Website:  https://openfoam.org
    \\  /    A nd           | Version:  13
     \\/     M anipulation  |
\*---------------------------------------------------------------------------*/
FoamFile
{
    format      ascii;
    class       volScalarField;
    location    "0.9";
    object      alpha.oil;
}
// * * * * * * * * * * * * * * * * * * * * * * * * * * * * * * * * * * * * * //

dimensions      [];

internalField   nonuniform List<scalar> 
2268
(
8.13754e-23
6.32331e-21
2.58984e-19
9.18407e-18
3.03547e-15
6.53666e-14
2.27253e-13
7.1529e-13
1.99645e-12
5.01286e-12
1.18655e-11
2.72264e-11
6.1849e-11
1.40678e-10
3.18863e-10
7.0238e-10
1.44944e-09
2.63545e-09
2.29048e-09
2.27914e-09
0.00018149
0.000568656
0.000568658
3.32105e-21
1.16195e-19
1.85989e-18
1.69681e-17
9.43135e-17
2.25546e-15
9.35352e-14
5.38106e-13
1.53987e-12
4.36973e-12
1.24198e-11
3.43599e-11
9.25886e-11
2.38102e-10
5.82085e-10
1.32448e-09
3.2736e-09
1.13829e-08
2.88217e-08
2.33868e-09
9.3575e-06
0.000189149
0.000516865
1.16034e-21
2.85049e-20
4.685e-19
7.15795e-18
1.17419e-16
1.79694e-15
2.13857e-14
1.89691e-13
1.22403e-12
5.80414e-12
2.10374e-11
6.44057e-11
2.10416e-10
5.84585e-10
1.43216e-09
2.32778e-09
2.28512e-09
2.30576e-08
1.85215e-07
2.07217e-07
2.17616e-08
2.13816e-08
7.72861e-06
1.45504e-21
1.83329e-18
3.16327e-17
2.93748e-16
2.70977e-15
2.18461e-14
1.4852e-13
9.0468e-13
4.70809e-12
1.94841e-11
6.5365e-11
2.04511e-10
5.52636e-10
1.47449e-09
4.11631e-09
1.09176e-08
1.78362e-08
2.90337e-08
3.654e-08
4.76581e-08
4.4213e-08
4.99456e-07
1.03574e-06
1.51581e-21
1.18552e-19
1.98543e-17
1.58364e-15
1.01744e-14
9.5125e-14
7.76334e-13
3.02727e-12
9.80836e-12
2.88834e-11
7.97304e-11
2.05446e-10
5.11632e-10
1.27627e-09
3.78669e-09
1.30872e-08
2.92125e-08
1.79028e-07
6.541e-07
3.03815e-07
3.89439e-07
8.12263e-06
2.15735e-05
7.6002e-23
1.19755e-20
2.25157e-18
1.46834e-16
9.53462e-16
3.46713e-15
1.09697e-14
1.69599e-13
1.70802e-12
8.97069e-12
2.99866e-11
6.07955e-11
8.96401e-11
9.64542e-11
5.04708e-11
4.55638e-11
1.2094e-06
5.19311e-06
6.83347e-06
5.2025e-06
2.78884e-06
1.40328e-05
2.34851e-05
7.14124e-24
3.29805e-21
2.67424e-19
1.22541e-17
6.50897e-17
1.38754e-16
2.63262e-16
1.76931e-14
5.34426e-13
5.18191e-12
1.90123e-11
3.91148e-11
6.49423e-11
2.5979e-10
2.36306e-09
1.49001e-08
2.75142e-06
7.17639e-06
7.17638e-06
7.17639e-06
5.6223e-06
1.23418e-05
1.49423e-05
2.44984e-26
6.16308e-23
2.22256e-21
5.13274e-20
2.23802e-19
1.80033e-19
6.6902e-19
7.82088e-16
9.87453e-14
1.57704e-12
1.09294e-11
6.32878e-11
5.4987e-10
4.9273e-09
3.7925e-08
2.77113e-07
1.44799e-06
4.26221e-06
6.69023e-06
5.225e-06
4.50364e-06
5.56388e-06
5.84306e-06
0.951199
0.95063
0.945878
0.879711
0.802568
0.823762
0.882885
0.920884
0.921023
0.879809
0.590248
0.445669
0.615777
0.707785
0.707804
0.335577
0.0814892
0.107534
0.163091
0.951018
0.907889
0.793606
0.449798
0.153885
0.179362
0.276233
0.422631
0.43587
0.258656
0.0747186
0.101037
0.168141
0.217332
0.416223
0.440193
0.0825854
0.0829462
0.106404
0.94912
0.638728
0.187542
2.33386e-12
-1.34773e-10
-1.10962e-07
3.72549e-14
0.00122819
0.00563461
0.00109841
5.59918e-07
8.64758e-08
0.0268199
0.0358761
0.102443
0.46454
0.10387
0.0782599
0.0596085
0.708677
0.129586
8.07999e-10
3.54499e-09
1.34742e-10
3.02347e-05
4.69865e-05
3.52358e-05
2.9979e-05
2.63902e-05
6.39676e-06
1.02471e-07
8.64758e-08
1.0743e-07
0.0144396
0.449694
0.165898
0.240744
0.0592412
-1.1408e-21
-2.14965e-21
2.377e-07
1.3556e-07
1.17661e-06
3.60356e-05
0.000188845
0.000233586
0.000209426
0.000219664
0.000109971
0.000841681
0.00114745
0.000470597
0.010741
0.221292
0.310994
0.405479
0.0881496
-2.195e-20
-1.88812e-19
-9.52073e-10
-5.31802e-10
0.000872055
-1.15224e-07
-3.02966e-07
0.000114794
0.000272819
0.000278043
0.000254528
0.00112088
0.00139501
0.00062229
0.000756181
0.0683884
0.338159
0.405185
0.278824
0.0289202
0.057801
0.17244
0.344948
0.453332
0.374319
0.247708
0.10277
0.000234202
0.000248285
0.000258343
0.000293619
0.00115424
0.00730231
0.0362482
0.0332603
0.130764
0.233496
0.309099
0.461373
0.533975
0.73906
0.929187
0.958731
0.952309
0.891283
0.732092
0.440893
0.0852649
0.000242688
0.000271872
0.00519371
0.126728
0.202889
0.0294707
0.0354279
0.0598263
0.307064
5.38376e-29
3.84796e-25
2.4785e-23
3.3079e-22
1.70735e-21
1.25073e-21
3.96679e-18
1.45686e-14
1.09387e-12
8.42937e-12
6.05922e-11
4.07681e-10
2.43032e-09
9.91109e-09
3.53177e-08
1.24029e-07
1.98235e-07
2.02544e-07
6.13163e-07
1.69639e-06
1.70902e-06
0.000176974
0.0904661
2.56719e-28
4.55445e-27
1.15675e-25
1.24785e-24
2.32312e-23
9.55457e-22
1.85705e-20
7.95304e-18
1.28598e-14
1.42105e-12
1.54401e-11
4.10996e-11
7.42823e-11
2.77276e-10
1.99938e-09
7.65132e-09
1.1094e-08
3.76252e-08
3.92419e-08
3.72491e-08
0.015404
0.271303
0.521665
4.98135e-23
6.94535e-22
7.47803e-21
6.56218e-20
8.62515e-19
5.09185e-17
1.42215e-15
3.57759e-14
4.2243e-13
3.14627e-12
1.57171e-11
4.22515e-10
4.96125e-09
1.93044e-08
4.67865e-08
1.03337e-07
1.04043e-08
1.04084e-08
0.0035246
0.224381
0.561761
0.837978
1
2.40039e-20
5.77981e-19
7.80801e-18
7.68548e-17
6.02528e-16
4.18064e-15
3.4421e-14
2.63009e-13
1.43835e-11
1.16979e-10
1.18028e-11
3.40677e-08
1.37289e-07
2.3365e-07
2.28032e-07
1.11336e-07
0.0063519
0.233141
0.479586
0.945591
0.999899
1
1
7.31937e-20
1.80388e-18
2.59646e-17
2.17943e-16
1.38025e-15
7.12836e-15
4.19959e-14
3.15923e-13
6.928e-12
3.20497e-10
5.38956e-09
2.86186e-08
8.8112e-08
7.40245e-08
7.5302e-08
0.225575
0.618594
0.993054
0.990704
0.993095
0.999979
1
0.999998
6.8843e-20
1.81835e-18
2.67205e-17
2.07737e-16
1.24065e-15
5.75368e-15
2.73652e-14
1.11841e-13
8.15486e-13
1.30116e-10
9.06858e-10
5.71258e-10
7.44576e-10
0.189822
0.777612
0.978713
0.959398
0.996471
1
1
0.999996
0.999999
0.999912
3.12777e-20
8.76234e-19
1.27741e-17
9.74575e-17
5.24659e-16
2.18549e-15
5.95638e-15
2.64664e-15
2.80616e-15
-2.47159e-16
7.48453e-09
0.106615
0.784039
0.983357
0.988292
0.999997
0.999998
0.999997
0.999995
1
1
1
0.999993
3.0655e-21
9.13567e-20
1.28003e-18
9.56131e-18
4.802e-17
7.5369e-17
1.09178e-12
2.26743e-11
3.25445e-11
1.71065e-12
0.00329772
0.610599
0.996915
0.998206
0.999948
0.999991
0.999991
0.999997
0.999999
1
0.994205
0.993459
1
3.53771e-23
1.0447e-21
1.6682e-18
5.48898e-16
7.54221e-14
1.98469e-12
3.24322e-11
5.49197e-10
7.613e-10
-2.9618e-12
7.9746e-05
0.0551523
0.392644
0.895571
0.999864
0.9958
0.924609
0.843606
0.743645
0.544804
0.429029
0.509125
0.616601
3.85772e-24
5.59831e-21
3.77634e-16
2.14756e-13
3.03628e-12
1.7559e-11
1.55676e-10
1.10763e-09
2.24406e-09
8.1191e-09
7.45879e-08
1.08139e-06
1.94722e-06
0.059825
0.144961
0.144342
0.0956873
0.0434802
0.0161844
0.00212303
4.91049e-08
2.49998e-07
6.89845e-08
1.52961e-24
2.11551e-22
2.6359e-17
1.24217e-13
2.46383e-12
5.53154e-11
3.17305e-10
1.4941e-09
3.99173e-09
6.68632e-09
6.1964e-09
3.80739e-09
8.47786e-08
1.07992e-06
7.16865e-07
1.42184e-07
-5.87175e-20
-4.35998e-22
8.42886e-13
1.0861e-10
9.36332e-11
1.08739e-10
1.52384e-09
7.68179e-25
1.68685e-23
1.53573e-18
1.19663e-14
2.83011e-12
3.38116e-11
2.33536e-10
1.16385e-09
3.57765e-09
8.01336e-09
1.43609e-08
1.34411e-08
4.16928e-10
-3.43927e-09
5.92424e-14
3.83672e-25
-2.60447e-26
4.28913e-09
1.32543e-08
2.52124e-08
4.68126e-10
5.62491e-10
2.09487e-08
7.65988e-25
7.95974e-24
5.6155e-20
1.51986e-15
7.19895e-13
9.42962e-12
7.21198e-11
3.78342e-10
2.32831e-09
7.07333e-09
1.46565e-08
3.527e-08
4.74154e-08
5.79439e-08
5.14203e-08
1.26362e-07
2.73216e-06
5.89114e-06
3.20108e-06
8.85384e-07
1.53427e-08
5.13883e-09
1.55082e-08
1.04878e-24
1.00435e-23
7.62458e-22
1.20131e-16
1.32603e-13
2.58363e-12
2.35876e-11
1.55349e-10
6.41374e-10
2.89954e-09
1.19922e-08
2.89387e-08
7.40692e-08
1.22358e-07
2.95478e-07
6.6541e-07
1.84706e-06
1.3238e-06
0.000123775
0.000237897
7.08306e-05
4.08643e-09
1.9067e-08
1.80221e-24
1.8057e-23
1.79689e-22
2.26446e-18
7.97202e-15
4.08359e-13
4.55704e-12
3.73669e-11
2.65861e-10
1.13406e-09
5.52871e-09
1.86683e-08
5.42735e-08
8.69791e-08
2.61502e-07
5.67876e-07
1.33466e-06
3.49076e-08
7.2531e-05
0.000238089
0.000237939
9.77567e-05
1.12351e-08
2.14897e-24
2.94109e-23
2.93199e-22
1.89756e-20
2.61016e-16
4.11027e-14
6.2371e-13
6.39136e-12
6.54135e-11
4.43013e-10
1.61225e-09
6.50849e-09
1.79875e-08
5.18372e-08
1.49752e-07
2.40425e-07
2.85187e-07
4.42916e-08
1.19788e-08
0.000134078
0.000238135
0.000161085
5.35583e-06
2.07238e-24
3.09605e-23
3.45804e-22
3.07104e-21
5.98767e-18
3.03686e-15
9.47692e-14
1.15671e-12
1.15265e-11
9.05339e-11
5.53134e-10
2.8442e-09
9.86939e-09
2.06828e-08
2.35173e-08
1.59927e-09
1.50776e-09
1.09914e-08
1.11739e-08
1.6735e-06
6.68281e-05
4.57295e-05
6.68992e-06
1.82558e-24
2.86413e-23
3.21495e-22
2.6637e-21
2.02741e-19
1.9663e-16
1.61368e-14
2.38511e-13
2.3567e-12
1.92903e-11
1.14609e-10
6.9789e-10
2.47636e-09
6.61683e-09
1.49378e-09
1.51965e-09
1.64545e-09
1.02408e-08
1.27295e-08
1.23104e-08
1.2819e-08
1.30509e-08
3.65787e-07
1.46117e-24
2.40892e-23
2.7235e-22
2.25662e-21
2.12822e-20
1.30493e-17
2.31705e-15
4.40917e-14
5.43769e-13
5.0835e-12
3.09803e-11
1.83364e-10
6.23873e-10
1.63847e-09
1.65631e-09
1.98055e-09
2.61488e-09
9.26171e-09
1.27914e-08
1.20983e-08
1.25772e-08
1.40932e-08
2.33535e-08
1.05552e-24
1.82399e-23
2.08744e-22
1.73459e-21
1.18705e-20
8.48692e-19
2.62769e-16
6.72975e-15
1.0488e-13
1.19588e-12
9.40727e-12
6.01916e-11
2.30734e-10
6.83967e-10
1.19308e-09
1.8594e-09
2.61209e-09
7.13837e-09
1.00932e-08
1.20112e-08
1.479e-08
2.04786e-08
2.20298e-08
6.96174e-25
1.23772e-23
1.43583e-22
1.20169e-21
8.08716e-21
8.32035e-20
2.42316e-17
8.46348e-16
1.62721e-14
2.31336e-13
2.36732e-12
1.7716e-11
8.51848e-11
3.04971e-10
6.89164e-10
1.24364e-09
1.83315e-09
4.4431e-09
6.40661e-09
8.21487e-09
1.12757e-08
1.54448e-08
1.67732e-08
4.05583e-25
7.52977e-24
8.8293e-23
7.45834e-22
5.03696e-21
2.98245e-20
1.93551e-18
8.98585e-17
2.12024e-15
3.77869e-14
4.85341e-13
4.3729e-12
2.62815e-11
1.11503e-10
3.0607e-10
6.23657e-10
9.86911e-10
2.23e-09
3.29534e-09
4.54459e-09
6.61869e-09
8.89151e-09
9.21822e-09
2.22717e-25
4.1223e-24
4.85838e-23
4.14904e-22
2.81298e-21
1.6091e-20
1.94365e-19
8.60135e-18
2.40937e-16
5.32041e-15
8.35841e-14
9.08793e-13
6.65355e-12
3.30368e-11
1.07342e-10
2.47206e-10
4.29425e-10
9.20538e-10
1.39216e-09
2.07869e-09
3.1245e-09
4.04081e-09
3.98054e-09
1.02601e-25
2.03501e-24
2.405e-23
2.05744e-22
1.41028e-21
8.19913e-21
5.18979e-20
9.03155e-19
2.48368e-17
6.52441e-16
1.22685e-14
1.59082e-13
1.39173e-12
8.06212e-12
3.06209e-11
8.01158e-11
1.54847e-10
3.19281e-10
4.94782e-10
7.89014e-10
1.19433e-09
1.51199e-09
1.4159e-09
4.76146e-26
9.08845e-25
1.06789e-23
9.14299e-23
6.38918e-22
3.80899e-21
2.35067e-20
1.61425e-19
2.58286e-18
7.06125e-17
1.54562e-15
2.35745e-14
2.43144e-13
1.6387e-12
7.23351e-12
2.15684e-11
4.66402e-11
9.45168e-11
1.51132e-10
2.52453e-10
3.84537e-10
4.41942e-10
4.05959e-10
1.92673e-26
3.64432e-25
4.26631e-24
3.70879e-23
2.65424e-22
1.643e-21
1.04186e-20
5.32842e-20
3.88835e-19
7.25759e-18
1.69778e-16
2.98714e-15
3.58329e-14
2.78987e-13
1.42583e-12
4.84422e-12
1.17423e-11
2.40522e-11
4.00098e-11
6.92099e-11
1.03178e-10
1.22238e-10
1.05134e-10
7.04284e-27
1.31213e-25
1.55332e-24
1.39125e-23
1.03156e-22
6.78447e-22
4.33838e-21
2.24813e-20
1.19722e-19
9.95336e-19
1.75678e-17
3.30303e-16
4.49738e-15
3.99037e-14
2.35055e-13
9.07834e-13
2.46928e-12
5.25281e-12
9.12218e-12
1.62784e-11
2.40723e-11
2.18283e-11
2.10055e-11
2.22617e-27
4.2837e-26
5.22686e-25
4.89159e-24
3.85272e-23
2.7692e-22
1.81918e-21
1.03018e-20
5.52748e-20
3.02388e-19
2.466e-18
3.50743e-17
4.93233e-16
4.83877e-15
3.25257e-14
1.42191e-13
4.33786e-13
9.77087e-13
1.7681e-12
3.24512e-12
4.66945e-12
4.70149e-12
3.58902e-12
6.42255e-28
1.28699e-26
1.64841e-25
1.64681e-24
1.41317e-23
1.13438e-22
7.75184e-22
4.82997e-21
2.76299e-20
1.46025e-19
7.73598e-19
5.37075e-18
5.43131e-17
5.23067e-16
3.85364e-15
1.88137e-14
6.39754e-14
1.53976e-13
2.89412e-13
5.43003e-13
7.52793e-13
4.70708e-13
5.20337e-13
1.73108e-28
3.6132e-27
4.94654e-26
5.39054e-25
5.12188e-24
4.39483e-23
3.24693e-22
2.16971e-21
1.31061e-20
7.15832e-20
3.56483e-19
1.72172e-18
9.46919e-18
6.34976e-17
4.31518e-16
2.21303e-15
8.16214e-15
2.09389e-14
4.08388e-14
7.79078e-14
1.0509e-13
9.28645e-14
9.2736e-14
4.33371e-29
9.60702e-28
1.42899e-26
1.70573e-25
1.78165e-24
1.60258e-23
1.2641e-22
8.86238e-22
5.56785e-21
3.13383e-20
1.57625e-19
7.20002e-19
3.08704e-18
1.34359e-17
6.32429e-17
2.82135e-16
1.0263e-15
2.7365e-15
5.56635e-15
1.1013e-14
1.5932e-14
1.92441e-14
4.00438e-14
1.01367e-29
2.43453e-28
3.92251e-27
5.14494e-26
5.73467e-25
5.33805e-24
4.4191e-23
3.20308e-22
2.06999e-21
1.19161e-20
6.09691e-20
2.79379e-19
1.15478e-18
4.37486e-18
1.5794e-17
5.48897e-17
1.73064e-16
4.55124e-16
9.78128e-16
2.17727e-15
3.52791e-15
9.59518e-15
2.71733e-14
2.27264e-30
5.92124e-29
1.01218e-27
1.42263e-26
1.64934e-25
1.59891e-24
1.36719e-23
1.01566e-22
6.687e-22
3.91244e-21
2.02898e-20
9.40709e-20
3.89998e-19
1.44994e-18
4.90829e-18
1.53213e-17
4.36543e-17
1.11785e-16
2.59222e-16
6.30149e-16
1.62659e-15
4.03017e-15
1.83378e-14
4.47983e-31
1.31764e-29
2.45209e-28
3.55368e-27
4.2557e-26
4.22664e-25
3.73944e-24
2.83282e-23
1.87793e-22
1.1124e-21
5.823e-21
2.73615e-20
1.14305e-19
4.25868e-19
1.43186e-18
4.38761e-18
1.23007e-17
3.17144e-17
7.93985e-17
2.3401e-16
5.07595e-16
2.37333e-15
8.9852e-15
8.67037e-32
2.78674e-30
5.53121e-29
8.12878e-28
9.93964e-27
9.93771e-26
8.93941e-25
6.87519e-24
4.61522e-23
2.76659e-22
1.45948e-21
6.92642e-21
2.90772e-20
1.08753e-19
3.65608e-19
1.12216e-18
3.21959e-18
8.63457e-18
2.38008e-17
7.86669e-17
2.24486e-16
7.70254e-16
4.08001e-15
1.68118e-32
5.65857e-31
1.14102e-29
1.70145e-28
2.10758e-27
2.11958e-26
1.88622e-25
1.47002e-24
1.0043e-23
6.0986e-23
3.23254e-22
1.54308e-21
6.50445e-21
2.43487e-20
8.21343e-20
2.54146e-19
7.62131e-19
2.17076e-18
6.65047e-18
2.42671e-17
8.04377e-17
3.42249e-16
1.47948e-15
3.04026e-33
1.07117e-31
2.1529e-30
3.24511e-29
4.05398e-28
4.13197e-27
3.60014e-26
2.84077e-25
1.96178e-24
1.20525e-23
6.39568e-23
3.06229e-22
1.2965e-21
4.86437e-21
1.65931e-20
5.21735e-20
1.64927e-19
5.03843e-19
1.71418e-18
6.80647e-18
2.59509e-17
1.18067e-16
5.79343e-16
5.09257e-34
1.86753e-32
3.78057e-31
5.65506e-30
7.10001e-29
7.35302e-28
6.31198e-27
5.031e-26
3.48068e-25
2.15388e-24
1.14095e-23
5.48382e-23
2.33241e-22
8.83003e-22
3.06785e-21
9.89315e-21
3.29212e-20
1.08557e-19
4.07345e-19
1.78069e-18
7.93334e-18
4.07974e-17
2.19789e-16
8.24284e-35
3.00857e-33
5.4449e-32
9.08142e-31
1.14141e-29
1.19622e-28
1.02133e-27
8.17933e-27
5.65747e-26
3.507e-25
1.85288e-24
8.97473e-24
3.83935e-23
1.47669e-22
5.24601e-22
1.75089e-21
6.12801e-21
2.20454e-20
9.34463e-20
4.62263e-19
2.47803e-18
1.47531e-17
9.08136e-17
1.08016e-35
4.51377e-34
8.46637e-33
1.35703e-31
1.69981e-30
1.79086e-29
1.53042e-28
1.2212e-27
8.48147e-27
5.24475e-26
2.76969e-25
1.35763e-24
5.85741e-24
2.29838e-23
8.37454e-23
2.92344e-22
1.08949e-21
4.42181e-21
2.21058e-20
1.3592e-19
9.29245e-19
6.53152e-18
4.31836e-17
1.70212e-36
6.38368e-35
1.23642e-33
1.90196e-32
2.36422e-31
2.48897e-30
2.13544e-29
1.68356e-28
1.18049e-27
7.26733e-27
3.85351e-26
1.91665e-25
8.37249e-25
3.36112e-24
1.26452e-23
4.70184e-23
1.94536e-22
9.66489e-22
6.30875e-21
4.85243e-20
3.78323e-19
2.66624e-18
1.97825e-17
2.43938e-37
8.67405e-36
1.66018e-34
2.51856e-33
3.09389e-32
3.23911e-31
2.79134e-30
2.16587e-29
1.53567e-28
9.41179e-28
5.03838e-27
2.54615e-26
1.13148e-25
4.66746e-25
1.8397e-24
7.55124e-24
3.74828e-23
2.45207e-22
2.05441e-21
1.76364e-20
1.35491e-19
9.61883e-19
6.63575e-18
0.234443
0.26072
0.364819
0.451257
0.870958
1
1
1
1
1
1
1
0.999999
0.999983
0.999974
0.999975
0.999901
0.999882
0.999882
0.999882
0.999884
0.999882
0.999882
0.999984
0.999988
1
1
1
0.99349
0.986914
0.9934
1
0.393443
0.320123
0.489826
0.608152
3.07952e-17
-1.14865e-10
2.07081e-08
6.8117e-09
4.35064e-08
4.45854e-08
4.84675e-08
2.70194e-08
9.82391e-08
7.29992e-08
1.67562e-07
1.43186e-07
9.32743e-08
7.5733e-08
4.58665e-09
3.11655e-08
9.62691e-08
7.61598e-08
3.56942e-09
2.01426e-09
3.41302e-07
4.16943e-07
7.64101e-08
2.1139e-08
9.00723e-07
7.86151e-07
4.49843e-07
1.12419e-07
1.45292e-06
8.49807e-07
2.29568e-07
1.85651e-07
2.91616e-07
2.3454e-07
1.21628e-07
7.11073e-08
2.30862e-08
1.86261e-08
1.6227e-08
1.11695e-08
2.24918e-08
1.86754e-08
1.43999e-08
9.61257e-09
1.6667e-08
1.26999e-08
1.11738e-08
8.31096e-09
7.83456e-09
6.78526e-09
5.35042e-09
3.89183e-09
3.38579e-09
2.81253e-09
2.18304e-09
1.56285e-09
1.17684e-09
1.00517e-09
7.00724e-10
4.94112e-10
3.58516e-10
2.65303e-10
2.0145e-10
1.50549e-10
7.95746e-11
6.79498e-11
4.85889e-11
3.59299e-11
1.71998e-11
1.20426e-11
1.00763e-11
8.05482e-12
2.91512e-12
2.45903e-12
1.81809e-12
1.49362e-12
4.64572e-13
3.46026e-13
3.38908e-13
3.38178e-13
9.35672e-14
1.10739e-13
1.28823e-13
1.67721e-13
5.2312e-14
6.65147e-14
1.00193e-13
1.56725e-13
3.56435e-14
5.70822e-14
7.92555e-14
1.55889e-13
2.59038e-14
3.46229e-14
6.79392e-14
1.19769e-13
1.33774e-14
2.38924e-14
4.36449e-14
1.25261e-13
6.69463e-15
1.08179e-14
3.53875e-14
8.56015e-14
3.22654e-15
8.23431e-15
2.2198e-14
6.90832e-14
1.4284e-15
3.42428e-15
1.59769e-14
4.36647e-14
8.20175e-16
2.88446e-15
8.92659e-15
2.68202e-14
4.08593e-16
1.44406e-15
5.50614e-15
1.61876e-14
2.47493e-16
8.7986e-16
2.76745e-15
9.09528e-15
1.15094e-16
4.0597e-16
1.34888e-15
3.95401e-15
4.06801e-17
1.26311e-16
3.64465e-16
9.33133e-16
0.695108
0.896777
0.999232
0.999999
0.999471
0.996475
0.996499
0.9959
0.984226
0.840238
0.292692
0.000268029
0.00533587
0.221785
0.31967
0.268441
0.255478
0.173587
0.32925
1
1
1
1
1
1
0.999999
0.999999
0.99998
0.999863
0.950854
0.289178
0.00324597
0.0813807
0.301125
0.318186
0.262746
0.636443
0.482759
1
1
1
1
1
1
1
1
1
1
0.99999
0.925358
0.252066
0.079972
0.0779726
0.103083
0.149318
0.925362
0.391129
0.999988
1
1
1
1
1
1
1
1
1
0.999977
0.999952
0.935499
0.402463
0.126554
0.107859
0.283004
0.922895
0.40743
0.99997
1
1
1
1
1
0.999999
0.999999
1
1
1
0.998973
0.9971
0.978866
0.797927
0.582169
0.849879
0.972665
0.48986
1
1
1
1
1
1
0.999999
0.999999
0.999999
1
1
1
0.99626
0.971465
0.953396
0.962879
0.976359
0.976663
0.463744
1
1
1
1
1
1
1
0.999999
0.999999
0.999999
1
1
0.999966
0.997002
0.940656
0.891937
0.896701
0.785603
0.245069
1
1
1
1
1
1
1
0.999999
0.999999
1
1
1
1
0.999998
0.999997
0.950467
0.727005
0.43399
0.165292
0.642119
0.702176
0.786366
0.864136
0.923978
0.961587
0.982078
0.99252
0.997339
0.998926
0.999297
0.997667
0.99323
0.985962
0.966827
0.873727
0.536173
0.348183
0.166077
-6.76109e-11
0.0115186
0.0569415
0.120903
0.201828
0.28378
0.356765
0.42029
0.472575
0.504791
0.512739
0.467477
0.41283
0.355237
0.269316
0.215379
0.236215
0.300261
0.361358
4.50886e-09
-7.02775e-09
6.54777e-10
4.68883e-14
7.54285e-09
4.48032e-14
3.15357e-08
2.36025e-15
2.44687e-08
4.28499e-22
5.115e-08
3.26536e-19
3.17886e-07
2.95336e-07
3.25387e-07
2.95336e-07
4.40751e-07
3.00463e-07
3.40452e-05
1.68463e-07
2.6325e-07
4.65818e-07
1.06219e-06
1.1218e-06
4.91997e-07
3.28491e-07
2.56422e-07
1.87423e-07
2.06623e-07
2.03258e-07
2.31723e-07
2.55454e-07
0.000337712
0.00179566
0.00209242
0.00127875
0.000285091
0.000163254
5.50634e-08
1.51975e-07
7.5709e-07
2.26659e-06
2.22723e-06
2.15477e-06
1.46407e-06
8.21827e-07
4.99911e-07
8.22389e-07
1.51659e-06
8.29791e-07
3.44595e-07
0.001123
0.00433705
0.00454813
0.00248058
0.000294583
0.000432351
2.01112e-09
1.99959e-09
4.19953e-07
1.64426e-06
2.12474e-06
2.18036e-06
2.07054e-06
1.84084e-06
1.02359e-06
1.04629e-06
3.46702e-06
9.41091e-06
3.33306e-05
0.000213885
4.12144e-05
9.23848e-05
8.56246e-09
8.65423e-09
8.65244e-09
5.23343e-09
2.00391e-09
2.00684e-09
2.01147e-09
8.44189e-07
1.39722e-06
1.88745e-06
1.85894e-06
1.68892e-06
2.02427e-06
4.52319e-06
1.42953e-05
1.1487e-05
8.84125e-09
8.65474e-09
9.09426e-09
5.05802e-06
8.17389e-06
8.65423e-09
3.24872e-08
2.07241e-09
2.0109e-09
1.7362e-09
1.98236e-09
1.70129e-09
2.70252e-07
1.13589e-06
1.49e-06
5.2615e-07
6.03158e-09
9.75762e-09
8.61317e-09
7.994e-09
8.98632e-09
8.7842e-07
1.06843e-05
1.14343e-05
1.30561e-08
7.1961e-08
3.6384e-09
2.04978e-09
3.14366e-09
3.58622e-09
4.20412e-09
4.3283e-09
4.11765e-09
4.47318e-09
2.90041e-08
5.4472e-09
1.1377e-08
1.04703e-08
1.21383e-08
1.17418e-08
8.20044e-09
8.30362e-09
2.99421e-06
8.53845e-08
3.31433e-08
6.3046e-09
1.6786e-09
1.60974e-09
3.3572e-09
4.55315e-09
4.23355e-09
4.244e-09
3.97925e-09
4.2373e-09
6.02158e-09
2.46851e-08
2.03665e-08
1.96628e-08
1.59061e-08
8.32895e-09
8.20198e-09
8.30362e-09
9.09041e-07
7.96372e-09
5.20192e-09
2.22258e-09
1.43864e-09
1.23463e-09
2.81993e-09
5.15648e-09
5.56673e-09
4.59167e-09
4.45959e-09
5.40941e-09
1.82563e-08
1.73427e-08
1.70264e-08
1.44736e-08
1.09188e-08
8.65411e-09
8.78814e-09
1.87191e-06
3.07145e-09
2.12423e-09
1.63868e-09
1.30549e-09
1.21323e-09
1.36828e-09
2.60413e-09
4.31398e-09
4.58045e-09
4.3334e-09
4.85862e-09
6.46482e-09
8.58372e-09
1.03091e-08
1.07499e-08
1.09672e-08
7.76522e-09
8.57337e-09
1.8309e-06
2.07492e-09
1.16045e-09
9.70194e-10
9.20019e-10
8.81646e-10
9.20112e-10
1.32627e-09
2.36975e-09
3.09256e-09
3.3066e-09
3.71046e-09
3.94205e-09
5.24549e-09
6.54499e-09
8.02758e-09
9.17502e-09
6.90293e-09
7.01182e-09
1.81342e-06
1.63311e-09
6.58604e-10
5.78503e-10
5.56499e-10
5.42351e-10
5.69463e-10
7.50856e-10
1.21671e-09
1.60331e-09
1.81074e-09
2.09522e-09
2.69325e-09
3.43652e-09
4.59735e-09
5.89602e-09
7.48315e-09
5.62395e-09
6.82032e-09
1.69603e-06
8.30607e-10
3.79354e-10
3.12137e-10
3.03877e-10
3.02896e-10
3.32724e-10
4.48929e-10
6.95326e-10
9.36325e-10
1.1304e-09
1.40184e-09
1.86018e-09
2.62453e-09
3.67442e-09
5.32721e-09
6.07055e-09
5.23232e-09
5.32688e-09
1.83471e-06
3.06355e-10
1.73755e-10
1.46711e-10
1.43449e-10
1.47488e-10
1.77862e-10
2.64521e-10
3.94679e-10
5.3015e-10
6.90691e-10
9.37218e-10
1.3515e-09
2.04759e-09
3.14874e-09
4.82178e-09
5.15442e-09
5.21259e-09
4.12722e-07
1.83932e-06
9.41919e-11
6.17315e-11
5.83021e-11
5.95035e-11
6.93931e-11
9.76495e-11
1.46267e-10
2.18506e-10
3.18757e-10
4.66598e-10
7.14068e-10
1.14148e-09
1.85924e-09
3.01955e-09
4.80724e-09
4.86607e-09
4.91589e-09
1.30674e-06
1.86347e-06
2.52477e-11
1.91593e-11
2.04444e-11
2.49602e-11
3.4562e-11
5.40012e-11
8.82228e-11
1.44721e-10
2.37328e-10
3.95718e-10
6.70252e-10
1.14049e-09
1.92956e-09
3.21637e-09
5.17386e-09
5.0645e-09
5.08461e-09
9.80968e-07
1.69823e-06
5.83642e-12
5.58987e-12
7.53303e-12
1.23622e-11
2.20156e-11
4.09689e-11
7.62549e-11
1.39613e-10
2.51417e-10
4.47709e-10
7.85911e-10
1.35103e-09
2.27053e-09
3.74251e-09
5.91429e-09
6.64122e-09
6.8801e-09
4.08275e-09
2.41054e-07
1.43821e-12
2.2754e-12
5.01418e-12
1.13632e-11
2.43448e-11
4.9649e-11
9.72532e-11
1.84521e-10
3.39196e-10
6.05604e-10
1.05125e-09
1.7753e-09
2.90245e-09
4.6244e-09
7.06742e-09
9.30647e-09
1.0781e-08
6.01852e-09
3.37858e-09
7.31777e-13
2.34567e-12
6.7752e-12
1.65855e-11
3.60515e-11
7.35485e-11
1.43814e-10
2.71572e-10
4.93831e-10
8.66266e-10
1.47222e-09
2.42373e-09
3.82657e-09
5.82112e-09
8.62322e-09
1.13412e-08
2.92767e-08
1.14339e-08
4.53143e-09
9.20714e-13
3.64733e-12
1.04612e-11
2.4731e-11
5.28605e-11
1.06846e-10
2.08924e-10
3.92427e-10
7.07039e-10
1.22252e-09
2.04584e-09
3.2943e-09
4.99181e-09
7.13137e-09
9.8331e-09
1.56187e-08
3.20449e-08
3.40443e-08
7.05968e-09
1.27416e-12
4.73567e-12
1.42101e-11
3.23299e-11
6.91768e-11
1.41952e-10
2.7855e-10
5.25434e-10
9.5e-10
1.63704e-09
2.72443e-09
4.30321e-09
6.17957e-09
7.73535e-09
1.1301e-08
3.06401e-08
9.02193e-08
4.13462e-08
1.05396e-08
1.41302e-12
5.96477e-12
1.55798e-11
3.51333e-11
7.66842e-11
1.64132e-10
3.34586e-10
6.48305e-10
1.18696e-09
2.07815e-09
3.4962e-09
5.40768e-09
6.81253e-09
7.90808e-09
2.54697e-08
8.4884e-08
1.09607e-07
6.73062e-08
9.72734e-09
1.35284e-12
5.17355e-12
1.37886e-11
3.33758e-11
7.59329e-11
1.68385e-10
3.54535e-10
7.12281e-10
1.36602e-09
2.49697e-09
4.2899e-09
6.24944e-09
6.8257e-09
1.12807e-08
6.24385e-08
1.32961e-07
1.37652e-07
7.01492e-08
9.7009e-09
1.04525e-12
3.79955e-12
1.04928e-11
2.74533e-11
6.75909e-11
1.57631e-10
3.48565e-10
7.24432e-10
1.44228e-09
2.71791e-09
4.64667e-09
6.34303e-09
6.197e-09
2.7948e-08
9.16145e-08
1.35691e-07
1.35084e-07
6.79039e-08
6.06323e-09
6.90042e-13
2.37468e-12
7.1202e-12
2.00245e-11
5.25742e-11
1.30893e-10
3.05608e-10
6.76106e-10
1.43239e-09
2.79312e-09
4.66992e-09
6.05491e-09
6.81927e-09
3.28133e-08
8.65171e-08
1.26193e-07
1.24847e-07
3.53449e-08
4.87157e-09
3.7887e-13
1.36628e-12
4.47641e-12
1.36028e-11
3.8474e-11
1.01173e-10
2.5034e-10
5.84529e-10
1.31871e-09
2.64801e-09
4.37082e-09
6.54914e-09
1.10613e-08
2.04288e-08
3.98739e-08
8.14998e-08
3.314e-08
1.50083e-08
2.08739e-09
2.05426e-13
7.64527e-13
2.72441e-12
8.88027e-12
2.66458e-11
7.34567e-11
1.89265e-10
4.58395e-10
1.07766e-09
2.24096e-09
3.82707e-09
6.82015e-09
1.28045e-08
1.00537e-08
3.60795e-09
4.47961e-09
2.21018e-09
6.77133e-10
8.51695e-10
1.09592e-13
4.36941e-13
1.64783e-12
5.69445e-12
1.75523e-11
4.97919e-11
1.31542e-10
3.21321e-10
7.56798e-10
1.64912e-09
2.99249e-09
4.74407e-09
8.11367e-09
6.7095e-09
2.92852e-09
5.30825e-10
2.73245e-10
2.73949e-10
2.14568e-10
5.70286e-14
2.43658e-13
9.47682e-13
3.31759e-12
1.03311e-11
3.02231e-11
7.95524e-11
1.91092e-10
4.39394e-10
9.54505e-10
1.73237e-09
2.54961e-09
3.19555e-09
3.77448e-09
3.30842e-09
1.13885e-09
6.013e-10
2.51013e-10
9.59524e-11
2.74042e-14
1.15171e-13
4.46989e-13
1.54946e-12
4.84366e-12
1.39911e-11
3.7109e-11
9.17976e-11
2.05454e-10
4.3322e-10
7.95114e-10
1.21446e-09
1.33653e-09
1.75515e-09
1.44323e-09
6.94569e-10
2.54928e-10
9.4977e-11
5.01244e-11
1.05172e-14
4.22701e-14
1.58577e-13
5.33835e-13
1.63647e-12
4.71403e-12
1.28031e-11
3.1511e-11
7.21988e-11
1.46921e-10
2.67038e-10
4.1328e-10
5.19315e-10
5.36157e-10
3.89481e-10
1.51081e-10
5.11376e-11
3.17282e-11
1.45527e-11
2.17134e-15
8.51046e-15
3.11243e-14
1.03252e-13
3.15245e-13
9.43111e-13
2.44582e-12
6.16739e-12
1.38194e-11
2.81477e-11
4.93587e-11
7.38013e-11
8.91659e-11
7.81645e-11
5.35345e-11
1.87106e-11
1.20044e-11
3.40008e-12
1.95712e-12
)
;

boundaryField
{
    leftWall
    {
        type            alphaContactAngle;
        contactAngleProperties 
        {
            mercury         
            {
                theta0          90;
            }
            air             
            {
                theta0          90;
            }
            water           
            {
                theta0          90;
            }
        }
        value           nonuniform List<scalar> 
50
(
8.13754e-23
3.32105e-21
1.16034e-21
1.45504e-21
1.51581e-21
7.6002e-23
7.14124e-24
2.44984e-26
5.38376e-29
2.56719e-28
4.98135e-23
2.40039e-20
7.31937e-20
6.8843e-20
3.12777e-20
3.0655e-21
3.53771e-23
3.85772e-24
1.52961e-24
7.68179e-25
7.65988e-25
1.04878e-24
1.80221e-24
2.14897e-24
2.07238e-24
1.82558e-24
1.46117e-24
1.05552e-24
6.96174e-25
4.05583e-25
2.22717e-25
1.02601e-25
4.76146e-26
1.92673e-26
7.04284e-27
2.22617e-27
6.42255e-28
1.73108e-28
4.33371e-29
1.01367e-29
2.27264e-30
4.47983e-31
8.67037e-32
1.68118e-32
3.04026e-33
5.09257e-34
8.24284e-35
1.08016e-35
1.70212e-36
2.43938e-37
)
;
    }
    rightWall
    {
        type            alphaContactAngle;
        contactAngleProperties 
        {
            mercury         
            {
                theta0          90;
            }
            air             
            {
                theta0          90;
            }
            water           
            {
                theta0          90;
            }
        }
        value           nonuniform List<scalar> 
50
(
0.163091
0.106404
0.0596085
0.0592412
0.0881496
0.278824
0.309099
0.307064
0.32925
0.482759
0.391129
0.40743
0.48986
0.463744
0.245069
0.165292
0.166077
0.361358
3.40452e-05
0.000163254
0.000432351
8.65244e-09
8.65423e-09
1.30561e-08
8.53845e-08
9.09041e-07
1.87191e-06
1.8309e-06
1.81342e-06
1.69603e-06
1.83471e-06
1.83932e-06
1.86347e-06
1.69823e-06
2.41054e-07
3.37858e-09
4.53143e-09
7.05968e-09
1.05396e-08
9.72734e-09
9.7009e-09
6.06323e-09
4.87157e-09
2.08739e-09
8.51695e-10
2.14568e-10
9.59524e-11
5.01244e-11
1.45527e-11
1.95712e-12
)
;
    }
    lowerWall
    {
        type            alphaContactAngle;
        contactAngleProperties 
        {
            mercury         
            {
                theta0          90;
            }
            air             
            {
                theta0          90;
            }
            water           
            {
                theta0          90;
            }
        }
        value           nonuniform List<scalar> 
62
(
8.13754e-23
6.32331e-21
2.58984e-19
9.18407e-18
3.03547e-15
6.53666e-14
2.27253e-13
7.1529e-13
1.99645e-12
5.01286e-12
1.18655e-11
2.72264e-11
6.1849e-11
1.40678e-10
3.18863e-10
7.0238e-10
1.44944e-09
2.63545e-09
2.29048e-09
2.27914e-09
0.00018149
0.000568656
0.000568658
0.000568658
0.000516865
7.72861e-06
1.03574e-06
2.15735e-05
2.34851e-05
1.49423e-05
5.84306e-06
0.234443
0.26072
0.364819
0.451257
0.951199
0.951018
0.94912
0.708677
-1.1408e-21
-2.195e-20
0.0289202
0.461373
0.951199
0.95063
0.945878
0.879711
0.802568
0.823762
0.882885
0.920884
0.921023
0.879809
0.590248
0.445669
0.615777
0.707785
0.707804
0.335577
0.0814892
0.107534
0.163091
)
;
    }
    atmosphere
    {
        type            inletOutlet;
        inletValue      uniform 0;
        value           nonuniform List<scalar> 
46
(
2.43938e-37
8.67405e-36
1.66018e-34
2.51856e-33
3.09389e-32
3.23911e-31
2.79134e-30
2.16587e-29
1.53567e-28
9.41179e-28
5.03838e-27
2.54615e-26
1.13148e-25
4.66746e-25
1.8397e-24
7.55124e-24
3.74828e-23
2.45207e-22
2.05441e-21
1.76364e-20
1.35491e-19
9.61883e-19
6.63575e-18
0
0
0
0
0
0
0
0
0
0
0
0
0
0
0
0
0
0
0
0
0
0
0
)
;
    }
    defaultFaces
    {
        type            empty;
    }
}


// ************************************************************************* //
