/*--------------------------------*- C++ -*----------------------------------*\
  =========                 |
  \\      /  F ield         | OpenFOAM: The Open Source CFD Toolbox
   \\    /   O peration     | Website:  https://openfoam.org
    \\  /    A nd           | Version:  13
     \\/     M anipulation  |
\*---------------------------------------------------------------------------*/
FoamFile
{
    format      ascii;
    class       volScalarField;
    location    "0.9";
    object      epsilon;
}
// * * * * * * * * * * * * * * * * * * * * * * * * * * * * * * * * * * * * * //

dimensions      [0 2 -3 0 0 0 0];

internalField   nonuniform List<scalar> 
2268
(
0.0110338
0.0388368
0.0656546
0.0897
0.113838
0.141336
0.175228
0.218301
0.27335
0.338145
0.41158
0.493466
0.585117
0.689081
0.806366
0.932183
1.05167
1.13711
1.1497
1.04665
0.798456
0.417693
0.0443913
0.0170335
0.033273
0.0457691
0.0545019
0.0623327
0.0711324
0.082318
0.0971955
0.117232
0.142477
0.173227
0.210104
0.25412
0.306413
0.36721
0.43417
0.500666
0.554689
0.579203
0.554308
0.462719
0.30127
0.114698
0.0307181
0.0360547
0.0437099
0.0487964
0.0536175
0.0595308
0.0674814
0.0784174
0.0933872
0.113259
0.139146
0.172405
0.214553
0.26681
0.329075
0.398614
0.469085
0.530266
0.568581
0.568129
0.512735
0.391955
0.249843
0.045808
0.0394259
0.0441258
0.0476702
0.0515308
0.0566772
0.0638749
0.0740468
0.0883587
0.108288
0.135702
0.172764
0.221632
0.283689
0.358265
0.441523
0.526215
0.602267
0.657685
0.679059
0.651385
0.558981
0.451999
0.0609026
0.0422933
0.0451881
0.0481478
0.0517605
0.0567495
0.0639154
0.0743781
0.0896899
0.112033
0.144191
0.189314
0.250265
0.328321
0.421623
0.524519
0.628396
0.72322
0.798876
0.845706
0.853581
0.808158
0.767643
0.0741306
0.0448591
0.0468092
0.049663
0.0532901
0.0583179
0.0657514
0.0770847
0.0944903
0.121084
0.160863
0.218201
0.296534
0.396333
0.513519
0.639899
0.765452
0.880712
0.978462
1.05533
1.11411
1.16555
1.32518
0.0825085
0.0473984
0.0491276
0.0520981
0.0557775
0.0608675
0.0687269
0.081386
0.101903
0.134693
0.185398
0.259797
0.36136
0.488442
0.633436
0.78515
0.932642
1.06791
1.18773
1.29778
1.42566
1.66883
2.44442
0.0814946
0.0479046
0.0513872
0.0550695
0.0589064
0.0640838
0.0725145
0.0869493
0.111706
0.15305
0.218822
0.316149
0.447263
0.606432
0.781307
0.957874
1.12524
1.27779
1.41677
1.55755
1.75884
2.29388
4.83089
0.576631
1.73597
2.78659
3.34586
3.36468
3.18858
2.9742
2.73219
2.49089
2.2848
2.03165
1.70472
1.37567
1.09865
0.752659
0.354362
0.286665
0.337801
0.386511
0.458883
1.13393
1.48048
1.59335
1.61373
1.57344
1.49936
1.4127
1.3195
1.21223
1.09724
0.985959
0.858387
0.712383
0.531036
0.373258
0.303014
0.248057
0.286355
0.638579
1.09746
1.29572
1.35498
1.35303
1.31481
1.25339
1.18079
1.10502
1.02598
0.946928
0.866111
0.773039
0.657764
0.495719
0.374267
0.325819
0.307879
0.348741
1.10426
1.28365
1.3435
1.33521
1.29804
1.24411
1.17794
1.10548
1.03378
0.965073
0.898863
0.831462
0.756655
0.649523
0.488279
0.380239
0.356817
0.403468
0.404449
1.93812
1.6044
1.46676
1.37717
1.30027
1.22504
1.14749
1.06899
0.994563
0.926293
0.862969
0.804183
0.74827
0.644017
0.486538
0.397961
0.406289
0.505927
0.454747
2.96505
1.92078
1.5912
1.43044
1.31828
1.22148
1.12961
1.04141
0.960526
0.888862
0.824901
0.76794
0.714157
0.614974
0.485272
0.422232
0.457051
0.573613
0.497725
4.43147
2.1607
1.68291
1.47523
1.33694
1.22179
1.11629
1.01808
0.929972
0.853807
0.788121
0.730236
0.669921
0.58148
0.486014
0.447999
0.506383
0.609902
0.534793
6.97358
2.28452
1.72739
1.49915
1.34559
1.21766
1.10171
0.995255
0.900793
0.820674
0.753015
0.693616
0.632836
0.55807
0.488252
0.472098
0.5543
0.628835
0.568904
0.0675868
0.0433354
0.0489348
0.0557839
0.0619099
0.0685971
0.0788525
0.0970308
0.13028
0.188785
0.28448
0.425569
0.609271
0.820539
1.03911
1.24797
1.43783
1.6073
1.76328
1.92957
2.16671
2.61427
3.54489
0.0678481
0.0427864
0.0442007
0.0502725
0.0584044
0.0689736
0.0853796
0.114825
0.170132
0.271533
0.437514
0.669033
0.94175
1.2203
1.47681
1.69716
1.87983
2.03069
2.1585
2.28023
2.42181
2.60973
2.78655
0.0771146
0.0457223
0.0436195
0.0478072
0.0557381
0.0689325
0.0928316
0.141048
0.239743
0.422684
0.704593
1.05314
1.40575
1.71545
1.96381
2.15054
2.28554
2.38008
2.44047
2.47623
2.49175
2.47339
2.3922
0.0893652
0.0503006
0.0453266
0.0479342
0.0556014
0.071203
0.105664
0.186676
0.370449
0.712078
1.17574
1.63686
2.01087
2.28074
2.45853
2.56165
2.61219
2.61808
2.57656
2.49773
2.40164
2.28162
2.12735
0.0999096
0.0553629
0.0482825
0.0499684
0.0581647
0.0777756
0.128304
0.270199
0.619768
1.2293
1.90648
2.41093
2.70491
2.84674
2.89167
2.86408
2.78735
2.67779
2.55047
2.41135
2.26266
2.10099
1.92527
0.106981
0.060159
0.0520234
0.0538675
0.0644063
0.0924944
0.173457
0.438366
1.11303
2.14384
2.99291
3.332
3.35997
3.26737
3.12663
2.9678
2.80421
2.63883
2.47149
2.30173
2.12851
1.95164
1.77317
0.112663
0.0647823
0.0566435
0.0603631
0.0770786
0.124911
0.276884
0.800304
2.04095
3.64961
4.41033
4.07993
3.70926
3.42267
3.18807
2.97875
2.78277
2.59296
2.40491
2.21798
2.03308
1.85196
1.67643
0.12794
0.0714436
0.0632065
0.0714035
0.102486
0.200511
0.541006
1.56888
3.54354
5.58209
5.23372
4.30279
3.81423
3.49111
3.2357
3.00941
2.79716
2.59166
2.38979
2.19172
1.99961
1.81594
1.64247
0.144522
0.0737589
0.0692659
0.0867233
0.140473
0.299709
0.765175
1.85448
3.53369
4.87314
4.88962
4.33916
3.9431
3.62933
3.35706
3.11212
2.88273
2.66251
2.44851
2.24047
2.04018
1.85021
1.67397
0.170305
0.076488
0.075854
0.102011
0.169634
0.34161
0.769777
1.6483
2.90957
3.91919
4.22292
4.43052
4.34961
3.92291
3.59117
3.31233
3.0594
2.82197
2.59457
2.37467
2.15985
1.9546
1.76696
0.171475
0.0793846
0.081525
0.111155
0.184788
0.354823
0.725511
1.41294
2.36001
3.17406
3.62795
4.13481
4.41149
4.21967
3.91879
3.61739
3.33566
3.07316
2.82097
2.5764
2.33768
2.1108
1.9066
0.158407
0.0747241
0.0809178
0.112382
0.183707
0.33581
0.641051
1.17342
1.89722
2.57217
3.02972
3.46892
3.82821
4.01022
3.96751
3.7906
3.57538
3.3387
3.07651
2.80477
2.53997
2.29378
2.07307
0.141949
0.0688878
0.0762059
0.105595
0.168022
0.293699
0.533348
0.939624
1.50011
2.07056
2.49992
2.86028
3.19289
3.43211
3.56422
3.58973
3.52453
3.38143
3.17749
2.94031
2.69401
2.45312
2.22694
0.127972
0.0636035
0.0696934
0.094414
0.144992
0.242794
0.423518
0.727394
1.16222
1.64611
2.03772
2.35204
2.6387
2.88022
3.06758
3.19164
3.24047
3.20667
3.09666
2.93392
2.74109
2.53133
2.3185
0.118909
0.0599556
0.0635765
0.0828338
0.121769
0.194943
0.327378
0.551223
0.886854
1.27923
1.63293
1.92307
2.17771
2.40158
2.5944
2.75121
2.86045
2.90759
2.88361
2.79664
2.66675
2.50641
2.32594
0.114874
0.0583304
0.0590964
0.0732129
0.102268
0.155976
0.252249
0.416772
0.665377
0.974943
1.28433
1.55561
1.79219
2.00078
2.18557
2.34629
2.47611
2.56324
2.59646
2.57288
2.50096
2.39144
2.25327
0.115411
0.0585273
0.0564636
0.0662988
0.0877783
0.127353
0.197297
0.31543
0.496353
0.733949
0.993912
1.2415
1.46459
1.66297
1.83943
1.9954
2.12779
2.22912
2.29066
2.3072
2.27969
2.21393
2.11745
0.118372
0.0597759
0.0553375
0.0618585
0.0776563
0.106816
0.157532
0.242005
0.372364
0.550731
0.760989
0.978136
1.18482
1.37372
1.54328
1.69354
1.82283
1.92677
1.9996
2.03695
2.03757
2.00363
1.94045
0.121983
0.0613436
0.0550413
0.0590706
0.0706647
0.0922612
0.129264
0.189948
0.283676
0.41562
0.580411
0.763151
0.948063
1.12424
1.28593
1.4304
1.55545
1.658
1.73431
1.78126
1.79762
1.78445
1.74535
0.12542
0.0628449
0.0551205
0.057306
0.0658137
0.0819456
0.109239
0.153275
0.220948
0.317815
0.443959
0.592201
0.751202
0.910049
1.06066
1.19779
1.31781
1.41759
1.49426
1.5456
1.57077
1.57065
1.54797
0.128314
0.064102
0.0553053
0.05613
0.062371
0.0745418
0.0949328
0.127302
0.17657
0.247555
0.342561
0.459244
0.590868
0.728677
0.864372
0.991324
1.10458
1.20038
1.27587
1.32918
1.35969
1.36823
1.35701
0.130544
0.0650573
0.0554574
0.0552699
0.0598342
0.0691083
0.0845425
0.108662
0.144907
0.197056
0.267904
0.357634
0.463016
0.57811
0.69587
0.809597
0.91368
1.00375
1.07665
1.13041
1.16434
1.17908
1.17646
0.132125
0.0657184
0.0555204
0.05457
0.0578789
0.0650094
0.0768366
0.0950481
0.122019
0.160542
0.21314
0.281012
0.363112
0.455979
0.554437
0.652691
0.745276
0.827611
0.896249
0.948982
0.984871
1.0042
1.00836
0.133132
0.0661212
0.0554828
0.0539493
0.0563052
0.061829
0.0709956
0.0849199
0.105226
0.133904
0.17296
0.223789
0.286462
0.359274
0.438853
0.520766
0.600307
0.673165
0.735871
0.78603
0.822411
0.844904
0.854415
0.133668
0.0663112
0.0553549
0.0533713
0.0549941
0.0592989
0.0664779
0.0772512
0.0927189
0.114269
0.143387
0.181308
0.228535
0.28441
0.346957
0.41311
0.47921
0.54159
0.597058
0.643224
0.678652
0.702881
0.716337
0.133831
0.0663332
0.0551567
0.0528245
0.0538777
0.0572474
0.0629251
0.0713554
0.0832758
0.0996393
0.121505
0.149841
0.185225
0.227527
0.275699
0.327782
0.381167
0.432994
0.480571
0.52171
0.554928
0.579518
0.595503
0.133714
0.0662298
0.0549121
0.0523117
0.0529195
0.0555655
0.0600978
0.0667678
0.0760618
0.088628
0.105204
0.126502
0.153028
0.184872
0.221528
0.261822
0.304014
0.346031
0.38577
0.421386
0.451492
0.475268
0.492453
0.133397
0.0660415
0.0546481
0.0518448
0.0521033
0.0541849
0.0578355
0.0631704
0.0705011
0.0802648
0.0929695
0.109121
0.129116
0.15311
0.180883
0.211766
0.244654
0.27813
0.310651
0.340764
0.36728
0.389383
0.406655
0.132956
0.0658097
0.0543942
0.0514419
0.0514268
0.0530652
0.056031
0.0603433
0.0661921
0.0738688
0.083721
0.096103
0.11131
0.129494
0.15058
0.174197
0.19967
0.226069
0.252318
0.277335
0.300168
0.320086
0.336619
0.132466
0.0655777
0.0541835
0.0511263
0.0508972
0.0521849
0.0546137
0.0581348
0.0628532
0.0689598
0.0766915
0.0862952
0.0979854
0.111891
0.128002
0.14612
0.165842
0.186575
0.207596
0.228136
0.247469
0.26499
0.28025
0.132012
0.0653946
0.054054
0.0509267
0.0505296
0.0515366
0.0535388
0.0564401
0.0602863
0.0651981
0.0713362
0.078873
0.0879627
0.0987088
0.111128
0.125118
0.140443
0.156732
0.173512
0.190252
0.206425
0.221554
0.235252
0.131693
0.065317
0.0540497
0.0508768
0.050345
0.0511226
0.0527794
0.0551874
0.0583507
0.0623415
0.0672673
0.0732483
0.0803956
0.0887894
0.0984557
0.109346
0.121322
0.134158
0.147547
0.161132
0.17454
0.187415
0.199442
0.131631
0.0654129
0.0542222
0.0510163
0.05037
0.0509522
0.0523208
0.0543267
0.0569455
0.0602152
0.064206
0.0690007
0.0746793
0.0813028
0.0888984
0.0974452
0.106865
0.117018
0.12771
0.138704
0.149741
0.160564
0.170928
0.131977
0.0657632
0.0546315
0.0513897
0.050634
0.0510382
0.0521547
0.0538216
0.0559953
0.0586896
0.0619476
0.0658251
0.0703787
0.0756536
0.0816739
0.0884328
0.0958856
0.103947
0.112493
0.121368
0.130396
0.139393
0.148179
0.132911
0.0664634
0.0553452
0.0520446
0.0511669
0.0513927
0.052274
0.0536417
0.0554392
0.057663
0.060336
0.0634938
0.0671742
0.0714093
0.0762178
0.0815986
0.0875258
0.0939465
0.100781
0.107928
0.115268
0.122673
0.130012
0.134632
0.0676201
0.0564342
0.0530259
0.0519924
0.052021
0.0526662
0.0537549
0.0552216
0.0570493
0.0592455
0.0618292
0.0648232
0.0682477
0.072115
0.0764246
0.0811604
0.0862886
0.091758
0.0975023
0.103443
0.109491
0.115553
0.137344
0.0693409
0.0579619
0.0543649
0.053118
0.0529126
0.0533054
0.0541204
0.0552839
0.056768
0.0585668
0.0606854
0.0631336
0.0659207
0.069052
0.0725251
0.0763281
0.0804389
0.0848251
0.0894459
0.0942525
0.099187
0.10418
0.141195
0.071709
0.0599632
0.0560614
0.0545203
0.0540294
0.0541435
0.0546808
0.0555586
0.0567375
0.0581993
0.0599366
0.0619474
0.0642314
0.0667865
0.0696074
0.0726838
0.0760012
0.0795421
0.0832877
0.0872168
0.0912991
0.095482
0.146221
0.0747414
0.0624086
0.0580559
0.0561257
0.0552929
0.0551016
0.0553575
0.055965
0.0568718
0.058047
0.0594718
0.0611335
0.0630228
0.0651313
0.0674502
0.0699701
0.0726833
0.0755865
0.0786854
0.0819931
0.0855161
0.0892174
0.152271
0.0783232
0.0651504
0.0601927
0.0577875
0.0565723
0.0560644
0.056048
0.0564094
0.0570812
0.0580198
0.0591954
0.0605862
0.0621753
0.0639489
0.0658951
0.0680058
0.07028
0.0727305
0.0753939
0.0783356
0.0816322
0.0852968
0.159025
0.0821069
0.0678409
0.0621744
0.0592656
0.0576772
0.0568809
0.0566305
0.0567909
0.057279
0.0580397
0.0590336
0.0602317
0.0616114
0.0631547
0.0648482
0.0666846
0.0686696
0.0708325
0.0732463
0.0760515
0.0794685
0.0837242
0.165283
0.0851644
0.0697932
0.0635127
0.0602161
0.0583631
0.0573748
0.056976
0.057014
0.0573941
0.0580529
0.0589455
0.0600384
0.0613058
0.0627276
0.0642893
0.0659847
0.0678235
0.0698468
0.072156
0.0749661
0.0787066
0.0842464
6.4838
6.13477
6.50803
8.20786
2.9161
2.89357
2.84511
2.73116
2.27841
2.19491
2.10324
1.99871
1.97583
1.88044
1.78769
1.6973
1.77085
1.67751
1.59004
1.50825
1.62514
1.53736
1.45635
1.38167
1.53602
1.45384
1.37861
1.3096
1.50693
1.4282
1.35654
1.291
1.53889
1.46049
1.38928
1.32429
1.62698
1.54556
1.47151
1.4039
1.75759
1.67072
1.59026
1.5168
1.91214
1.81772
1.73118
1.65222
2.05982
1.96009
1.86779
1.78312
2.15735
2.05933
1.96731
1.88151
2.18365
2.09465
2.00923
1.92795
2.13777
2.06279
1.98868
1.9164
2.03122
1.97162
1.91075
1.84976
1.87866
1.83344
1.78548
1.73564
1.70192
1.66787
1.63095
1.59141
1.51791
1.49264
1.46411
1.43302
1.33681
1.31851
1.2969
1.2725
1.1639
1.15133
1.13558
1.11705
1.00203
0.99432
0.983669
0.970355
0.853216
0.849649
0.84346
0.834852
0.719244
0.719084
0.716668
0.712142
0.601477
0.603944
0.604537
0.603358
0.500482
0.504792
0.507601
0.508975
0.415826
0.42126
0.425535
0.428689
0.346183
0.352141
0.357234
0.361482
0.289646
0.295669
0.301069
0.305849
0.244096
0.249865
0.255199
0.260094
0.2075
0.212812
0.217831
0.222553
0.178077
0.182816
0.187365
0.191717
0.154377
0.158494
0.162492
0.166389
0.135279
0.138777
0.142216
0.145597
0.119961
0.122886
0.125783
0.128646
0.107848
0.110277
0.112688
0.115074
0.098583
0.100622
0.10264
0.104629
0.0919913
0.0937881
0.0955427
0.0972408
0.0881163
0.0898767
0.0915202
0.0930339
0.0873556
0.0893704
0.0910245
0.0923746
0.0912215
0.0936573
0.0950533
0.0959069
3.19003
2.11076
1.71135
1.49126
1.3306
1.1939
1.06954
0.955944
0.855983
0.772297
0.702738
0.642088
0.585101
0.529364
0.488707
0.501874
0.59092
0.620538
0.604321
2.26624
1.84009
1.57678
1.39289
1.24614
1.11831
1.00226
0.897332
0.804995
0.727144
0.662054
0.604105
0.550122
0.502863
0.474515
0.485301
0.53191
0.56987
0.683446
1.83133
1.60054
1.41449
1.26507
1.13964
1.02985
0.931997
0.845744
0.771555
0.708017
0.652388
0.598659
0.545206
0.497778
0.466567
0.46297
0.488825
0.542093
0.831152
1.57584
1.40941
1.26408
1.1411
1.03649
0.946563
0.869505
0.805002
0.752583
0.708958
0.669303
0.626614
0.576069
0.524282
0.48314
0.463714
0.469468
0.527865
0.982671
1.40309
1.26454
1.14242
1.03818
0.950338
0.877206
0.817935
0.772327
0.739685
0.7168
0.697042
0.672657
0.636547
0.587006
0.536279
0.498531
0.481974
0.525231
1.10144
1.28703
1.16451
1.0568
0.965059
0.888674
0.826816
0.779103
0.745501
0.725597
0.717313
0.715293
0.711091
0.696611
0.665578
0.617804
0.563242
0.520879
0.533023
1.14154
1.22243
1.10993
1.01098
0.926581
0.85644
0.800018
0.757016
0.727379
0.71085
0.70617
0.71012
0.716977
0.719176
0.709062
0.676819
0.619952
0.553252
0.5186
1.04774
1.20808
1.1009
1.00616
0.924736
0.856421
0.800635
0.756903
0.724902
0.704183
0.693664
0.691041
0.692514
0.693113
0.686149
0.662447
0.613975
0.53844
0.454851
0.751019
1.24155
1.13495
1.04053
0.958686
0.889017
0.830783
0.783256
0.745796
0.71766
0.697685
0.683935
0.673522
0.66263
0.646192
0.61686
0.566733
0.489029
0.383727
0.37649
1.31672
1.20643
1.10905
1.02417
0.951179
0.88914
0.837147
0.794447
0.760338
0.734025
0.714486
0.699806
0.685856
0.667512
0.63897
0.591473
0.520052
0.4253
0.393166
1.42298
1.30616
1.20322
1.1133
1.03571
0.969493
0.913657
0.867457
0.830522
0.803048
0.78574
0.778458
0.774216
0.763894
0.743509
0.707416
0.659721
0.590734
0.618722
1.54914
1.42223
1.31021
1.21134
1.125
1.04984
0.984929
0.929695
0.883843
0.847356
0.820398
0.802325
0.791537
0.789297
0.79332
0.792821
0.787997
0.755881
0.820338
1.67014
1.53247
1.41134
1.30466
1.21046
1.1274
1.05439
0.990571
0.935297
0.887977
0.848497
0.816837
0.792028
0.773671
0.764559
0.766617
0.779212
0.806428
0.949305
1.7615
1.61552
1.48771
1.37517
1.27579
1.18773
1.10951
1.03984
0.97762
0.922069
0.872942
0.830842
0.795287
0.765183
0.745678
0.744924
0.769281
0.834948
1.10644
1.8083
1.6604
1.52998
1.41493
1.31293
1.22192
1.14015
1.06612
0.998567
0.936721
0.880531
0.830383
0.786647
0.750276
0.726488
0.723745
0.75289
0.847085
1.27628
1.80361
1.66093
1.5331
1.419
1.31695
1.22513
1.14189
1.06574
0.995406
0.930142
0.869928
0.815429
0.767725
0.728955
0.703745
0.699676
0.730203
0.844662
1.42475
1.74916
1.61786
1.49753
1.38817
1.28912
1.19915
1.11696
1.04133
0.971047
0.905451
0.844645
0.789523
0.741718
0.703841
0.680153
0.677594
0.711574
0.841085
1.54897
1.65057
1.53711
1.42861
1.32751
1.23447
1.14902
1.07045
0.997997
0.930517
0.867506
0.809243
0.756832
0.712144
0.677901
0.65808
0.659385
0.69816
0.839196
1.65216
1.52164
1.42664
1.33248
1.2425
1.15833
1.08032
1.00816
0.941265
0.878971
0.821049
0.767943
0.720844
0.681653
0.65299
0.638575
0.645001
0.689348
0.841193
1.74148
1.37689
1.29894
1.21943
1.1418
1.06808
0.999148
0.935086
0.87563
0.820471
0.769616
0.723615
0.683637
0.65145
0.629446
0.621076
0.632804
0.682158
0.842366
1.80582
1.22785
1.16479
1.09906
1.0338
0.971076
0.911997
0.856959
0.805987
0.759043
0.716307
0.67837
0.646303
0.62166
0.606537
0.604066
0.620441
0.673135
0.83682
1.83238
1.08207
1.03201
0.978852
0.925333
0.873413
0.824268
0.778481
0.736292
0.697861
0.663483
0.633739
0.609568
0.592273
0.583625
0.586388
0.606352
0.660522
0.823208
1.82416
0.944037
0.9056
0.863828
0.821191
0.779481
0.739862
0.703016
0.669336
0.639114
0.612717
0.590692
0.573828
0.563176
0.560173
0.567186
0.589512
0.643381
0.80129
1.78489
0.81669
0.788467
0.756962
0.724266
0.691964
0.661166
0.632606
0.606775
0.584062
0.564873
0.54971
0.539215
0.534198
0.535771
0.545896
0.569326
0.621311
0.77136
1.7184
0.701244
0.68211
0.659793
0.636029
0.612198
0.589337
0.568201
0.549345
0.533223
0.520261
0.510913
0.505684
0.50516
0.51015
0.522225
0.545578
0.594346
0.734105
1.62892
0.598563
0.587285
0.572964
0.557007
0.540593
0.524672
0.509991
0.49714
0.486608
0.478825
0.474195
0.473098
0.475919
0.483194
0.49613
0.518374
0.56287
0.690556
1.52094
0.508973
0.504156
0.496504
0.487117
0.476981
0.466941
0.457707
0.44987
0.443928
0.440302
0.439337
0.4413
0.4464
0.454932
0.467779
0.488078
0.527545
0.641972
1.39924
0.432157
0.432344
0.429975
0.425879
0.420852
0.415622
0.410836
0.407057
0.404765
0.404349
0.406093
0.41016
0.416606
0.425518
0.437507
0.455241
0.489214
0.589766
1.2686
0.367217
0.371017
0.372596
0.372553
0.371505
0.370055
0.36877
0.368159
0.368661
0.370616
0.37424
0.379596
0.386609
0.395201
0.405755
0.420528
0.448824
0.535404
1.13369
0.312825
0.319039
0.323373
0.326254
0.328146
0.329532
0.330884
0.332642
0.335184
0.338787
0.343594
0.349573
0.356542
0.364291
0.373031
0.384662
0.407354
0.480339
0.998804
0.26755
0.275149
0.281223
0.286052
0.289975
0.293359
0.296585
0.300013
0.303948
0.308596
0.314017
0.320098
0.326567
0.333126
0.339858
0.348371
0.365768
0.425944
0.867826
0.229966
0.23812
0.245098
0.251063
0.256242
0.260908
0.265351
0.269851
0.274635
0.279829
0.285418
0.291211
0.296872
0.30205
0.306757
0.312364
0.324995
0.373519
0.744134
0.198726
0.206833
0.214067
0.22051
0.226307
0.231652
0.236757
0.241824
0.247002
0.252342
0.257753
0.262983
0.267657
0.27141
0.274234
0.277331
0.285947
0.324331
0.630823
0.172736
0.180366
0.18737
0.193778
0.19968
0.205207
0.210509
0.215719
0.220916
0.226079
0.231052
0.235542
0.239161
0.241577
0.242815
0.24398
0.249565
0.279724
0.530914
0.151149
0.158024
0.164455
0.170447
0.176055
0.181367
0.186484
0.191484
0.196387
0.201114
0.205463
0.209117
0.211716
0.212999
0.213092
0.21309
0.2169
0.241234
0.447734
0.133366
0.139338
0.144984
0.1503
0.155324
0.160119
0.164751
0.16926
0.17362
0.177712
0.181312
0.184113
0.185813
0.186275
0.185786
0.185544
0.189121
0.210647
0.385088
0.11901
0.124045
0.128809
0.133303
0.137561
0.141637
0.145575
0.149388
0.153027
0.156355
0.159152
0.161155
0.162154
0.162175
0.161729
0.162257
0.167375
0.189862
0.347322
0.107892
0.112042
0.11592
0.119543
0.122957
0.126212
0.129344
0.132352
0.13518
0.137698
0.139718
0.141044
0.141584
0.141537
0.141682
0.143875
0.152366
0.18054
0.339652
0.099975
0.103337
0.106375
0.109147
0.111717
0.114139
0.116446
0.118635
0.120657
0.122407
0.123748
0.124561
0.124862
0.125003
0.126019
0.130337
0.143705
0.183587
0.370967
0.0953557
0.0979878
0.100227
0.102191
0.103962
0.105599
0.107133
0.108564
0.109859
0.110948
0.111747
0.112205
0.112407
0.112775
0.114487
0.120534
0.139071
0.198048
0.465045
0.0942359
0.0960586
0.0974782
0.0986585
0.0996858
0.10061
0.101457
0.102231
0.102916
0.103476
0.103871
0.10409
0.104226
0.104638
0.106366
0.112439
0.13312
0.215903
0.706067
0.0968351
0.0975503
0.0980513
0.0984458
0.0987765
0.0990646
0.0993217
0.0995513
0.0997497
0.0999072
0.100014
0.10007
0.100116
0.100299
0.101086
0.104122
0.11695
0.197445
1.48442
)
;

boundaryField
{
    leftWall
    {
        type            epsilonWallFunction;
        value           nonuniform List<scalar> 
50
(
0.0110338
0.0170335
0.0307181
0.045808
0.0609026
0.0741306
0.0825085
0.0814946
0.0675868
0.0678481
0.0771146
0.0893652
0.0999096
0.106981
0.112663
0.12794
0.144522
0.170305
0.171475
0.158407
0.141949
0.127972
0.118909
0.114874
0.115411
0.118372
0.121983
0.12542
0.128314
0.130544
0.132125
0.133132
0.133668
0.133831
0.133714
0.133397
0.132956
0.132466
0.132012
0.131693
0.131631
0.131977
0.132911
0.134632
0.137344
0.141195
0.146221
0.152271
0.159025
0.165283
)
;
    }
    rightWall
    {
        type            epsilonWallFunction;
        value           nonuniform List<scalar> 
50
(
0.386511
0.286355
0.348741
0.404449
0.454747
0.497725
0.534793
0.568904
0.604321
0.683446
0.831152
0.982671
1.10144
1.14154
1.04774
0.751019
0.37649
0.393166
0.618722
0.820338
0.949305
1.10644
1.27628
1.42475
1.54897
1.65216
1.74148
1.80582
1.83238
1.82416
1.78489
1.7184
1.62892
1.52094
1.39924
1.2686
1.13369
0.998804
0.867826
0.744134
0.630823
0.530914
0.447734
0.385088
0.347322
0.339652
0.370967
0.465045
0.706067
1.48442
)
;
    }
    lowerWall
    {
        type            epsilonWallFunction;
        value           nonuniform List<scalar> 
62
(
0.0110338
0.0388368
0.0656546
0.0897
0.113838
0.141336
0.175228
0.218301
0.27335
0.338145
0.41158
0.493466
0.585117
0.689081
0.806366
0.932183
1.05167
1.13711
1.1497
1.04665
0.798456
0.417693
0.0443913
0.0443913
0.114698
0.249843
0.451999
0.767643
1.32518
2.44442
4.83089
6.4838
6.13477
6.50803
8.20786
0.576631
0.458883
0.638579
1.10426
1.93812
2.96505
4.43147
6.97358
0.576631
1.73597
2.78659
3.34586
3.36468
3.18858
2.9742
2.73219
2.49089
2.2848
2.03165
1.70472
1.37567
1.09865
0.752659
0.354362
0.286665
0.337801
0.386511
)
;
    }
    atmosphere
    {
        type            inletOutlet;
        inletValue      uniform 0.1;
        value           nonuniform List<scalar> 
46
(
0.165283
0.0851644
0.0697932
0.0635127
0.0602161
0.0583631
0.0573748
0.056976
0.057014
0.0573941
0.0580529
0.0589455
0.0600384
0.0613058
0.0627276
0.0642893
0.0659847
0.0678235
0.0698468
0.072156
0.0749661
0.0787066
0.0842464
0.1
0.1
0.1
0.1
0.1
0.1
0.1
0.1
0.1
0.1
0.1
0.1
0.1
0.1
0.1
0.1
0.1
0.1
0.1
0.1
0.1
0.1
0.1
)
;
    }
    defaultFaces
    {
        type            empty;
    }
}


// ************************************************************************* //
