/*--------------------------------*- C++ -*----------------------------------*\
  =========                 |
  \\      /  F ield         | OpenFOAM: The Open Source CFD Toolbox
   \\    /   O peration     | Website:  https://openfoam.org
    \\  /    A nd           | Version:  13
     \\/     M anipulation  |
\*---------------------------------------------------------------------------*/
FoamFile
{
    format      ascii;
    class       volScalarField;
    location    "0.9";
    object      k;
}
// * * * * * * * * * * * * * * * * * * * * * * * * * * * * * * * * * * * * * //

dimensions      [0 2 -2 0 0 0 0];

internalField   nonuniform List<scalar> 
2268
(
0.00191159
0.00442849
0.00626777
0.00771272
0.00905049
0.0104745
0.0121104
0.0140407
0.0163115
0.0187776
0.0213823
0.0241129
0.0270047
0.0301163
0.0334433
0.0368224
0.0398642
0.0419285
0.0421585
0.0395315
0.0329655
0.0214305
0.00484272
0.00423124
0.0107414
0.0142019
0.016805
0.019343
0.0221986
0.0255608
0.0295051
0.0339485
0.0388643
0.0442744
0.0502402
0.0568686
0.0642414
0.0722484
0.0804143
0.0877981
0.0929888
0.0941783
0.0892529
0.0760068
0.0526099
0.0149335
0.00627742
0.0154106
0.0195101
0.0225672
0.0256332
0.0291396
0.0332595
0.0380533
0.0434829
0.049621
0.0565853
0.0645301
0.0736192
0.0839089
0.0951353
0.106534
0.116786
0.124072
0.126167
0.120496
0.104244
0.0746569
0.025016
0.00819099
0.0190533
0.0235652
0.0269791
0.0304691
0.0344527
0.0390922
0.0444695
0.0506352
0.0577792
0.0661427
0.0759901
0.0875388
0.100782
0.115241
0.129822
0.142859
0.152244
0.15553
0.149873
0.131915
0.0975594
0.0370216
0.00989164
0.0218462
0.0268335
0.030684
0.0346129
0.0390161
0.0440831
0.0499623
0.056833
0.0650273
0.0749396
0.086964
0.101355
0.117969
0.136011
0.153989
0.169909
0.181482
0.18618
0.181049
0.162225
0.123805
0.0525282
0.0112661
0.0239993
0.0295949
0.0339776
0.0383651
0.043151
0.0485975
0.0549613
0.0625945
0.0720065
0.0837833
0.0984621
0.116278
0.136821
0.158832
0.180369
0.199173
0.212904
0.219111
0.214918
0.196167
0.15503
0.0754074
0.0121144
0.0256492
0.0320216
0.0370244
0.0418738
0.0470087
0.0528088
0.0596816
0.0681956
0.0790932
0.0931999
0.111185
0.133138
0.158171
0.184417
0.209486
0.230982
0.246673
0.254346
0.251432
0.23399
0.193383
0.113276
0.0120827
0.0261285
0.0339104
0.0397897
0.0451587
0.0506441
0.0568056
0.0642433
0.0738118
0.0865688
0.103632
0.125733
0.152579
0.182538
0.213039
0.241352
0.265124
0.282388
0.29129
0.289795
0.274909
0.240742
0.178074
0.0262076
0.0546243
0.0748406
0.0843854
0.0848585
0.0818702
0.0781485
0.073858
0.0693799
0.0654707
0.0605999
0.0538612
0.046575
0.0399717
0.0308989
0.0187286
0.0165104
0.0185127
0.0201321
0.0398224
0.1146
0.152745
0.168066
0.173601
0.172153
0.1669
0.158505
0.149326
0.141252
0.131308
0.117411
0.102836
0.0897155
0.0707162
0.0442497
0.0323471
0.0320419
0.0291503
0.0496298
0.137078
0.186744
0.209954
0.218117
0.217204
0.211025
0.201311
0.190208
0.179371
0.166974
0.151326
0.134828
0.117488
0.0918454
0.0603929
0.0431949
0.044322
0.0332732
0.0713183
0.162832
0.218541
0.243305
0.251001
0.249107
0.241587
0.230547
0.217964
0.205246
0.191184
0.174679
0.157349
0.136455
0.105852
0.0728755
0.0541146
0.0595751
0.0367576
0.103609
0.199796
0.252341
0.273627
0.278482
0.274309
0.264766
0.25195
0.237612
0.222939
0.207186
0.190031
0.172889
0.149258
0.115601
0.0834668
0.0667649
0.0754718
0.0397761
0.137453
0.242435
0.286358
0.301322
0.302063
0.294801
0.282647
0.267575
0.251203
0.234587
0.217214
0.198952
0.180469
0.155255
0.122636
0.0929568
0.0795727
0.0880249
0.0422945
0.179637
0.285657
0.317993
0.325956
0.322248
0.311655
0.296722
0.279278
0.260866
0.242437
0.223676
0.204309
0.183673
0.158314
0.128464
0.101959
0.0924367
0.0973068
0.044443
0.243187
0.325222
0.344923
0.3464
0.338612
0.324955
0.307472
0.287848
0.267593
0.24767
0.22782
0.207547
0.186007
0.161404
0.133937
0.110969
0.105427
0.104579
0.0464096
0.0106158
0.0241547
0.0339651
0.0419596
0.0489288
0.055514
0.0625713
0.0710887
0.0826052
0.0988515
0.121453
0.151003
0.186135
0.223732
0.260201
0.292569
0.318811
0.337541
0.347606
0.348148
0.338648
0.318102
0.277746
0.0105041
0.023101
0.0324067
0.0409382
0.0495461
0.05837
0.0680651
0.0799814
0.0964302
0.120742
0.155108
0.198434
0.246053
0.292436
0.333548
0.367238
0.392801
0.410216
0.419537
0.421514
0.418004
0.411705
0.399801
0.0113476
0.0239758
0.032814
0.041051
0.0499416
0.0602028
0.0726285
0.0894861
0.114809
0.153002
0.2047
0.263781
0.321243
0.37113
0.411206
0.441279
0.462254
0.475183
0.480707
0.480222
0.475379
0.466879
0.454274
0.0124928
0.0257141
0.0343183
0.0423006
0.0512438
0.0624093
0.0779299
0.101987
0.142144
0.203701
0.278881
0.351009
0.410463
0.455677
0.488059
0.509444
0.522253
0.527449
0.525091
0.516903
0.506231
0.493534
0.478109
0.0134658
0.0275113
0.0362729
0.0443301
0.0535726
0.0658294
0.0850174
0.120233
0.184865
0.279852
0.378448
0.45477
0.505744
0.537732
0.556476
0.564487
0.564328
0.558092
0.548015
0.535454
0.521178
0.505063
0.486674
0.014113
0.0290852
0.0384622
0.0471354
0.0573175
0.0716594
0.096688
0.150867
0.255637
0.393619
0.506693
0.567117
0.592873
0.601982
0.601823
0.595992
0.586545
0.574596
0.560676
0.545182
0.528124
0.509316
0.488665
0.0146273
0.0308248
0.0411806
0.0511422
0.0634455
0.0823499
0.119421
0.206841
0.368593
0.552916
0.653297
0.656402
0.646208
0.636292
0.626078
0.614528
0.601427
0.58675
0.57041
0.552554
0.533269
0.512505
0.490302
0.0159103
0.0340553
0.0452743
0.0572364
0.0737875
0.103602
0.1686
0.308083
0.525987
0.733062
0.741437
0.692711
0.671409
0.657527
0.644937
0.631519
0.616683
0.60023
0.582106
0.562437
0.54143
0.519222
0.495976
0.0173033
0.0373188
0.0503458
0.0651749
0.0867428
0.125549
0.204411
0.347738
0.536991
0.685433
0.722122
0.705737
0.693397
0.680472
0.666696
0.651961
0.635842
0.618149
0.598815
0.577897
0.555586
0.532159
0.508108
0.0195235
0.040975
0.0553247
0.0719485
0.0951771
0.134299
0.207225
0.328417
0.480138
0.601105
0.662031
0.715229
0.734244
0.712055
0.694438
0.677917
0.660672
0.642204
0.622247
0.600649
0.577083
0.552154
0.527072
0.0198324
0.0433592
0.0588442
0.0760557
0.100408
0.139499
0.204981
0.304866
0.425786
0.528674
0.601323
0.68142
0.734057
0.737119
0.725679
0.709448
0.691445
0.672196
0.651115
0.628153
0.603125
0.576821
0.550877
0.0189054
0.0420739
0.0590084
0.0773478
0.102003
0.139088
0.196537
0.27895
0.377048
0.465815
0.535424
0.605828
0.666065
0.706752
0.722002
0.720596
0.712183
0.698401
0.678787
0.655078
0.629165
0.602593
0.576466
0.0175844
0.0395975
0.0568909
0.0754431
0.0992471
0.133019
0.182423
0.25075
0.332293
0.410539
0.474449
0.533278
0.589233
0.635217
0.668798
0.689305
0.698046
0.696024
0.684844
0.667345
0.646011
0.622458
0.597842
0.0163595
0.0368301
0.0535334
0.0713315
0.0933588
0.123194
0.165063
0.221799
0.290842
0.360996
0.419474
0.470729
0.5198
0.564453
0.603151
0.634258
0.655941
0.666764
0.66726
0.659812
0.646658
0.628913
0.608012
0.0154911
0.0344611
0.0500415
0.0664975
0.0863073
0.112157
0.147291
0.194465
0.253357
0.31479
0.369233
0.416422
0.460286
0.50139
0.539449
0.573402
0.601433
0.62145
0.632257
0.63441
0.629778
0.619464
0.604249
0.0150458
0.0328636
0.0471829
0.0620721
0.0795892
0.101782
0.131264
0.170619
0.219518
0.272848
0.323333
0.36822
0.409098
0.447199
0.48306
0.516399
0.546038
0.570237
0.587429
0.597015
0.599651
0.596279
0.587534
0.015016
0.0320406
0.0452249
0.0586176
0.0740525
0.093139
0.117844
0.150149
0.190472
0.236137
0.282117
0.324907
0.364092
0.400313
0.434206
0.465933
0.494936
0.520063
0.540036
0.554008
0.561818
0.563844
0.560646
0.0152303
0.0318673
0.0441506
0.0562364
0.069836
0.0862421
0.106933
0.133452
0.166565
0.205148
0.246081
0.28617
0.32385
0.358838
0.391364
0.421607
0.44935
0.473934
0.4945
0.510334
0.521059
0.526666
0.527502
0.0155171
0.0320413
0.0436689
0.0546952
0.0667643
0.0809551
0.0983958
0.12029
0.14749
0.179771
0.215435
0.252065
0.287752
0.321495
0.352957
0.382053
0.40862
0.43227
0.452467
0.468708
0.480673
0.488275
0.49171
0.0157964
0.0323587
0.0435278
0.0537313
0.0645705
0.0769813
0.0918472
0.110107
0.132561
0.159434
0.189979
0.222617
0.255622
0.287666
0.317944
0.346021
0.371596
0.394351
0.413921
0.429975
0.442302
0.450852
0.455769
0.0160332
0.0326982
0.0435451
0.0531183
0.0629869
0.0739879
0.0868345
0.102261
0.12096
0.143335
0.169195
0.197659
0.227421
0.257169
0.285857
0.312758
0.337371
0.359312
0.378262
0.393979
0.406327
0.415306
0.421055
0.0162154
0.0329976
0.043607
0.0526915
0.061794
0.0716806
0.0829444
0.0961666
0.111917
0.130631
0.152404
0.176836
0.203072
0.230024
0.256631
0.282013
0.305499
0.326596
0.344947
0.36032
0.372607
0.381826
0.388115
0.0163439
0.0332312
0.0436515
0.0523457
0.0608345
0.069832
0.0798461
0.0913434
0.104783
0.120562
0.138892
0.159662
0.182385
0.206269
0.230393
0.253871
0.27595
0.296043
0.31373
0.32874
0.340947
0.350355
0.357084
0.016425
0.0333947
0.0436521
0.0520221
0.0600075
0.0682835
0.0772966
0.0874296
0.0990495
0.112492
0.127993
0.14559
0.165045
0.185842
0.20727
0.228544
0.248925
0.267787
0.284658
0.299216
0.311293
0.320853
0.327979
0.016467
0.0334948
0.0436033
0.0516945
0.0592561
0.0669335
0.0751295
0.0841662
0.0943392
0.105922
0.119131
0.134066
0.150637
0.168539
0.187267
0.206194
0.224665
0.242078
0.257943
0.271903
0.283742
0.293375
0.300834
0.0164783
0.0335429
0.0435114
0.0513568
0.0585532
0.0657232
0.0732381
0.0813767
0.0903814
0.100473
0.111835
0.124581
0.138699
0.154023
0.170219
0.186821
0.203296
0.219112
0.233801
0.246996
0.258447
0.268024
0.275703
0.0164665
0.0335517
0.0433885
0.0510146
0.0578918
0.064624
0.0715594
0.0789468
0.0869905
0.0958701
0.105737
0.116697
0.128774
0.141885
0.155818
0.170247
0.184764
0.19893
0.212329
0.224612
0.235517
0.244878
0.252626
0.0164385
0.033534
0.0432491
0.0506801
0.0572767
0.0636268
0.0700613
0.0768078
0.0840448
0.0919221
0.100565
0.110063
0.120455
0.131704
0.14368
0.156161
0.168848
0.181398
0.193466
0.204735
0.214953
0.223937
0.231582
0.0164005
0.0335022
0.0431086
0.0503682
0.0567191
0.0627347
0.0687318
0.0749232
0.0814699
0.0885018
0.0961239
0.104414
0.113411
0.123104
0.133414
0.144192
0.155227
0.16626
0.177012
0.187218
0.196644
0.20511
0.212486
0.0163586
0.0334693
0.0429831
0.0500959
0.0562339
0.0619574
0.0675711
0.073277
0.0792243
0.08553
0.0922863
0.0995606
0.107391
0.115778
0.124676
0.133985
0.143556
0.153199
0.162698
0.171834
0.180405
0.18824
0.195206
0.0163197
0.0334494
0.04289
0.0498808
0.0558374
0.0613076
0.0665859
0.0718654
0.0772873
0.0829607
0.0889697
0.0953758
0.102215
0.109496
0.117191
0.125234
0.133519
0.141908
0.150236
0.158329
0.166017
0.173146
0.179588
0.016292
0.0334588
0.0428484
0.0497422
0.0555466
0.0607989
0.0657847
0.0706896
0.0756492
0.0807674
0.0861241
0.0917773
0.0977632
0.104094
0.110755
0.117701
0.124858
0.132124
0.139373
0.14647
0.153274
0.159654
0.165489
0.0162854
0.0335168
0.0428796
0.0497001
0.0553784
0.0604437
0.0651746
0.069751
0.0743036
0.0789331
0.0837167
0.0887114
0.0939538
0.0994598
0.105223
0.111213
0.117377
0.123639
0.129903
0.136062
0.142004
0.147617
0.152796
0.0163119
0.0336463
0.0430071
0.0497751
0.0553485
0.0602521
0.0647597
0.0690471
0.0732416
0.0774411
0.0817212
0.0861383
0.0907302
0.0955159
0.100495
0.105648
0.110936
0.1163
0.121669
0.126958
0.132075
0.136929
0.14143
0.0163861
0.033872
0.0432547
0.0499863
0.0554697
0.0602295
0.0645382
0.0685694
0.0724481
0.0762699
0.0801089
0.084021
0.0880447
0.0922015
0.0964958
0.100915
0.10543
0.109998
0.11456
0.119051
0.123396
0.127521
0.131349
0.0165235
0.0342184
0.043643
0.0503474
0.0557479
0.0603741
0.0645006
0.0683013
0.0718999
0.0753903
0.0788448
0.0823183
0.0858493
0.0894609
0.0931606
0.0969411
0.100781
0.104646
0.108492
0.112264
0.115905
0.119352
0.122542
0.0167394
0.0347045
0.0441839
0.0508616
0.0561778
0.0606728
0.064627
0.0682165
0.0715649
0.0747646
0.0778861
0.0809824
0.0840913
0.0872363
0.0904267
0.0936588
0.0969168
0.100174
0.103395
0.106538
0.109555
0.112397
0.115013
0.0170438
0.035335
0.0448717
0.0515138
0.0567367
0.0610971
0.0648842
0.0682777
0.0714019
0.0743477
0.0771834
0.07996
0.0827136
0.085467
0.0882302
0.0910019
0.0937702
0.0965146
0.0992077
0.101818
0.104309
0.106642
0.108776
0.0174366
0.0360908
0.045674
0.0522631
0.057379
0.0615997
0.0652244
0.068437
0.0713623
0.0740898
0.0766853
0.0791973
0.0816598
0.0840941
0.0865104
0.0889085
0.0912796
0.0936081
0.0958744
0.0980565
0.100131
0.102072
0.103841
0.0179031
0.0369162
0.0465205
0.0530345
0.0580318
0.0621125
0.0655854
0.0686376
0.0713937
0.0739412
0.0763435
0.0786465
0.0808818
0.0830693
0.0852185
0.0873299
0.089397
0.0914085
0.0933515
0.0952151
0.0969908
0.0986684
0.100222
0.0184154
0.0377026
0.0472916
0.0537141
0.0585938
0.062549
0.0658948
0.0688192
0.0714454
0.073859
0.0761208
0.0782745
0.0803497
0.082365
0.0843292
0.0862431
0.0881017
0.0898968
0.0916215
0.0932746
0.0948658
0.0964148
0.0979321
0.0188854
0.0382697
0.0478049
0.0541467
0.0589404
0.0628122
0.0660787
0.0689267
0.0714779
0.0738161
0.0760004
0.078073
0.0800625
0.0819865
0.0838536
0.0856646
0.0874152
0.0890989
0.0907118
0.0922593
0.0937656
0.0952892
0.096951
0.216583
0.208747
0.217406
0.254481
0.390395
0.389308
0.392823
0.399022
0.443665
0.438309
0.434244
0.430689
0.464133
0.455548
0.4474
0.439505
0.470003
0.459473
0.449179
0.439101
0.470316
0.458725
0.447353
0.436212
0.471022
0.458935
0.447105
0.435511
0.476178
0.463851
0.45184
0.440087
0.488027
0.475548
0.463417
0.451577
0.506758
0.494129
0.481862
0.4699
0.530409
0.517692
0.50512
0.492874
0.555828
0.542961
0.530431
0.5183
0.577987
0.565436
0.553143
0.541229
0.590395
0.57906
0.567832
0.556802
0.590238
0.580919
0.571461
0.561973
0.577799
0.570939
0.563676
0.556136
0.555141
0.550736
0.545718
0.54022
0.525185
0.522871
0.519831
0.516154
0.491541
0.490667
0.489141
0.486958
0.456961
0.457069
0.45653
0.45542
0.423107
0.423887
0.424049
0.423653
0.39077
0.392046
0.392741
0.392903
0.360235
0.361924
0.363068
0.3637
0.33158
0.33364
0.335193
0.336264
0.304835
0.307223
0.309145
0.310616
0.280027
0.282682
0.284912
0.286729
0.257165
0.260003
0.262462
0.264548
0.23621
0.239139
0.241733
0.243997
0.217075
0.219999
0.222634
0.22498
0.199636
0.202468
0.205054
0.207389
0.183756
0.186425
0.188884
0.191129
0.169317
0.171764
0.174036
0.176128
0.156225
0.158411
0.160449
0.162336
0.144425
0.146326
0.148102
0.14976
0.133901
0.135509
0.137018
0.138428
0.124663
0.125991
0.127237
0.128399
0.116741
0.117816
0.11882
0.119749
0.110174
0.111034
0.11183
0.112561
0.104994
0.105691
0.10633
0.106905
0.10124
0.10184
0.102374
0.102838
0.098995
0.0995706
0.100036
0.100405
0.0985358
0.0991019
0.0994346
0.0996388
0.348487
0.372136
0.375554
0.369214
0.356516
0.339317
0.318973
0.296887
0.274602
0.25309
0.232145
0.211035
0.18924
0.166157
0.142343
0.125432
0.121748
0.110157
0.0484438
0.406339
0.403405
0.394238
0.380818
0.363979
0.344446
0.322988
0.30058
0.278298
0.256966
0.236415
0.215664
0.194284
0.172702
0.152437
0.137698
0.128824
0.112545
0.0528998
0.425068
0.412717
0.39741
0.380106
0.361267
0.34128
0.3207
0.300254
0.280502
0.261629
0.24311
0.223663
0.202963
0.182145
0.163033
0.147863
0.135602
0.117027
0.0604413
0.428304
0.410827
0.39212
0.372793
0.353233
0.333806
0.315017
0.297442
0.281377
0.266409
0.251533
0.235089
0.21589
0.195172
0.175223
0.157965
0.141598
0.120854
0.0671929
0.425042
0.404561
0.38382
0.363327
0.343479
0.324684
0.307445
0.292276
0.279422
0.2684
0.257759
0.245606
0.230152
0.21063
0.189529
0.16907
0.148369
0.12365
0.072115
0.420741
0.398574
0.376569
0.355237
0.334996
0.316272
0.299553
0.285316
0.273833
0.264852
0.257254
0.249037
0.238067
0.222458
0.201968
0.1785
0.153513
0.124079
0.0735017
0.4194
0.396325
0.373502
0.351438
0.330538
0.311188
0.293802
0.278786
0.266407
0.256584
0.248658
0.241263
0.232512
0.220392
0.202522
0.17887
0.150732
0.116629
0.069116
0.423713
0.400182
0.376821
0.354106
0.332392
0.311977
0.293156
0.276207
0.261315
0.248452
0.237233
0.226845
0.216101
0.203375
0.186619
0.164254
0.135224
0.0977964
0.0548608
0.434986
0.411191
0.387533
0.364366
0.341955
0.320502
0.300178
0.281126
0.263423
0.247013
0.231648
0.216842
0.201858
0.185635
0.166637
0.143193
0.113485
0.0742807
0.0349711
0.45294
0.429003
0.405281
0.381944
0.359187
0.337129
0.315858
0.295442
0.275914
0.257256
0.239386
0.22203
0.204461
0.185776
0.164881
0.139946
0.109396
0.0714561
0.0363456
0.475733
0.451924
0.428376
0.405162
0.382445
0.360335
0.338884
0.318133
0.298144
0.279043
0.26101
0.243986
0.226602
0.207308
0.185568
0.160007
0.129945
0.0912151
0.0489602
0.501044
0.477356
0.453896
0.430552
0.40751
0.384804
0.362517
0.340741
0.319571
0.299103
0.279401
0.260292
0.241365
0.222851
0.204215
0.182203
0.155314
0.117372
0.0588868
0.524041
0.500706
0.477619
0.454656
0.431754
0.408982
0.386427
0.364175
0.342278
0.320733
0.299573
0.278779
0.258071
0.237192
0.215841
0.192248
0.163296
0.124626
0.0648923
0.540226
0.517708
0.495486
0.473321
0.451165
0.42902
0.406934
0.384935
0.363012
0.34114
0.319328
0.297673
0.27591
0.253376
0.229859
0.20446
0.174109
0.13332
0.0719726
0.547042
0.526269
0.505502
0.484673
0.4637
0.442559
0.421255
0.399785
0.378125
0.356269
0.33427
0.312163
0.289797
0.26678
0.242862
0.217127
0.186702
0.145117
0.079104
0.54356
0.525357
0.506674
0.487584
0.468097
0.448217
0.427957
0.407323
0.386298
0.364893
0.34317
0.321205
0.298957
0.276247
0.252734
0.227383
0.19732
0.15588
0.0850688
0.530409
0.515298
0.49914
0.482154
0.464466
0.446142
0.427235
0.407787
0.387801
0.367307
0.34639
0.325164
0.303689
0.281884
0.259362
0.234965
0.205875
0.165011
0.0899014
0.509108
0.497398
0.484033
0.469428
0.453825
0.437348
0.420103
0.402203
0.383656
0.364519
0.344912
0.324988
0.304854
0.284454
0.263348
0.240304
0.212457
0.172332
0.0938195
0.482281
0.473613
0.462979
0.450836
0.43749
0.423131
0.407886
0.391852
0.3751
0.357725
0.339876
0.321721
0.303372
0.284741
0.265323
0.243804
0.217229
0.177778
0.0971539
0.452589
0.446407
0.438198
0.428381
0.417268
0.405072
0.391937
0.377973
0.363281
0.347983
0.332236
0.316193
0.299926
0.283286
0.265682
0.245715
0.22033
0.181446
0.0994912
0.422157
0.417892
0.411703
0.403946
0.394907
0.384793
0.373757
0.361919
0.349396
0.336318
0.322827
0.309039
0.294963
0.280364
0.264562
0.24607
0.221743
0.183337
0.100436
0.392369
0.389589
0.385049
0.379052
0.371855
0.363652
0.354596
0.344812
0.334419
0.323538
0.312283
0.300715
0.288767
0.276117
0.261991
0.244826
0.221415
0.183464
0.100119
0.363957
0.362409
0.359238
0.354736
0.349139
0.342633
0.335367
0.327467
0.319047
0.310209
0.301029
0.291508
0.281501
0.270598
0.257946
0.241921
0.219299
0.181848
0.0986674
0.337286
0.336778
0.334784
0.331569
0.327355
0.322325
0.316626
0.310384
0.303704
0.296669
0.289312
0.281576
0.273242
0.263823
0.252403
0.237323
0.215388
0.178539
0.0961983
0.312354
0.312791
0.311845
0.309758
0.306743
0.302981
0.298621
0.293791
0.288589
0.283074
0.277243
0.270987
0.264022
0.255801
0.245364
0.231047
0.20973
0.173629
0.0928297
0.289097
0.290392
0.29038
0.289284
0.287305
0.284621
0.281386
0.277726
0.273735
0.269453
0.264846
0.259759
0.253862
0.246562
0.236875
0.223166
0.202436
0.167255
0.0886837
0.267425
0.26946
0.270258
0.270015
0.268916
0.267136
0.264827
0.262116
0.259089
0.255772
0.252106
0.247903
0.242796
0.236168
0.227035
0.213815
0.193668
0.159592
0.0838922
0.247236
0.249861
0.251322
0.251784
0.251413
0.250373
0.248811
0.246849
0.244567
0.24198
0.239008
0.23544
0.230888
0.224725
0.21599
0.203179
0.183639
0.150849
0.0785904
0.228423
0.231467
0.233429
0.23444
0.234643
0.234186
0.233206
0.231819
0.230096
0.228039
0.225556
0.222421
0.218236
0.21238
0.203932
0.191485
0.172596
0.14126
0.0729192
0.210875
0.214171
0.216468
0.217868
0.218492
0.218469
0.217924
0.216959
0.215637
0.213949
0.211793
0.208935
0.204977
0.199318
0.191089
0.178994
0.160814
0.131077
0.0670184
0.194523
0.197899
0.200366
0.202
0.202898
0.203169
0.202922
0.20225
0.2012
0.199756
0.197805
0.195112
0.191287
0.185759
0.17772
0.165995
0.148589
0.120564
0.061028
0.179325
0.182618
0.185099
0.186818
0.18785
0.188287
0.188221
0.18773
0.18685
0.185555
0.183724
0.181124
0.17738
0.171957
0.164118
0.152804
0.13624
0.110004
0.0550885
0.165254
0.16833
0.170689
0.17236
0.173402
0.17389
0.173902
0.173502
0.172713
0.171499
0.169736
0.167193
0.163516
0.15821
0.150609
0.139771
0.12412
0.0997059
0.0493548
0.152332
0.155085
0.157208
0.15872
0.159666
0.16011
0.160116
0.159735
0.158981
0.157808
0.156089
0.1536
0.150009
0.144866
0.137574
0.127298
0.112631
0.0900302
0.0440133
0.140616
0.142972
0.144779
0.146049
0.146822
0.14715
0.147089
0.14668
0.145927
0.144777
0.143105
0.140695
0.137242
0.13234
0.125459
0.115854
0.102249
0.0814122
0.0393142
0.130194
0.132121
0.13357
0.134553
0.135106
0.135278
0.135118
0.134658
0.133896
0.132778
0.131179
0.128902
0.125668
0.121118
0.114781
0.105984
0.0935319
0.0743788
0.035592
0.121176
0.122682
0.123773
0.124464
0.124792
0.124804
0.124545
0.124042
0.123288
0.122232
0.120758
0.118689
0.11578
0.111717
0.106086
0.0982625
0.0870787
0.0695204
0.0332661
0.113669
0.114801
0.115571
0.116005
0.116141
0.116026
0.115701
0.115189
0.114485
0.11354
0.112256
0.110482
0.108012
0.104581
0.0998271
0.0931652
0.0834156
0.0674264
0.0328119
0.10776
0.108587
0.1091
0.109336
0.10934
0.109156
0.10882
0.108353
0.107749
0.106971
0.105941
0.104538
0.102603
0.0999246
0.0962003
0.0909027
0.0828506
0.0686279
0.0348259
0.1035
0.104085
0.104405
0.104512
0.104451
0.104261
0.103972
0.103601
0.103145
0.102577
0.101841
0.100855
0.0995058
0.0976449
0.0950514
0.0913097
0.0853622
0.0736351
0.0405087
0.100888
0.101258
0.101432
0.101466
0.101397
0.101254
0.101057
0.100819
0.100537
0.100196
0.0997654
0.0991974
0.0984293
0.0973793
0.0959291
0.0938519
0.0904901
0.0829407
0.0535452
0.0998542
0.0999842
0.100033
0.100032
0.0999962
0.0999362
0.09986
0.0997719
0.0996723
0.0995563
0.0994142
0.0992317
0.0989904
0.0986694
0.0982461
0.0976974
0.0969879
0.0958355
0.0880265
)
;

boundaryField
{
    leftWall
    {
        type            kqRWallFunction;
        value           nonuniform List<scalar> 
50
(
0.00191159
0.00423124
0.00627742
0.00819099
0.00989164
0.0112661
0.0121144
0.0120827
0.0106158
0.0105041
0.0113476
0.0124928
0.0134658
0.014113
0.0146273
0.0159103
0.0173033
0.0195235
0.0198324
0.0189054
0.0175844
0.0163595
0.0154911
0.0150458
0.015016
0.0152303
0.0155171
0.0157964
0.0160332
0.0162154
0.0163439
0.016425
0.016467
0.0164783
0.0164665
0.0164385
0.0164005
0.0163586
0.0163197
0.016292
0.0162854
0.0163119
0.0163861
0.0165235
0.0167394
0.0170438
0.0174366
0.0179031
0.0184154
0.0188854
)
;
    }
    rightWall
    {
        type            kqRWallFunction;
        value           nonuniform List<scalar> 
50
(
0.0201321
0.0291503
0.0332732
0.0367576
0.0397761
0.0422945
0.044443
0.0464096
0.0484438
0.0528998
0.0604413
0.0671929
0.072115
0.0735017
0.069116
0.0548608
0.0349711
0.0363456
0.0489602
0.0588868
0.0648923
0.0719726
0.079104
0.0850688
0.0899014
0.0938195
0.0971539
0.0994912
0.100436
0.100119
0.0986674
0.0961983
0.0928297
0.0886837
0.0838922
0.0785904
0.0729192
0.0670184
0.061028
0.0550885
0.0493548
0.0440133
0.0393142
0.035592
0.0332661
0.0328119
0.0348259
0.0405087
0.0535452
0.0880265
)
;
    }
    lowerWall
    {
        type            kqRWallFunction;
        value           nonuniform List<scalar> 
62
(
0.00191159
0.00442849
0.00626777
0.00771272
0.00905049
0.0104745
0.0121104
0.0140407
0.0163115
0.0187776
0.0213823
0.0241129
0.0270047
0.0301163
0.0334433
0.0368224
0.0398642
0.0419285
0.0421585
0.0395315
0.0329655
0.0214305
0.00484272
0.00484272
0.0149335
0.025016
0.0370216
0.0525282
0.0754074
0.113276
0.178074
0.216583
0.208747
0.217406
0.254481
0.0262076
0.0398224
0.0496298
0.0713183
0.103609
0.137453
0.179637
0.243187
0.0262076
0.0546243
0.0748406
0.0843854
0.0848585
0.0818702
0.0781485
0.073858
0.0693799
0.0654707
0.0605999
0.0538612
0.046575
0.0399717
0.0308989
0.0187286
0.0165104
0.0185127
0.0201321
)
;
    }
    atmosphere
    {
        type            inletOutlet;
        inletValue      uniform 0.1;
        value           nonuniform List<scalar> 
46
(
0.0188854
0.0382697
0.0478049
0.0541467
0.0589404
0.0628122
0.0660787
0.0689267
0.0714779
0.0738161
0.0760004
0.078073
0.0800625
0.0819865
0.0838536
0.0856646
0.0874152
0.0890989
0.0907118
0.0922593
0.0937656
0.0952892
0.096951
0.1
0.1
0.1
0.1
0.1
0.1
0.1
0.1
0.1
0.1
0.1
0.1
0.1
0.1
0.1
0.1
0.1
0.1
0.1
0.1
0.1
0.1
0.1
)
;
    }
    defaultFaces
    {
        type            empty;
    }
}


// ************************************************************************* //
