/*--------------------------------*- C++ -*----------------------------------*\
  =========                 |
  \\      /  F ield         | OpenFOAM: The Open Source CFD Toolbox
   \\    /   O peration     | Website:  https://openfoam.org
    \\  /    A nd           | Version:  13
     \\/     M anipulation  |
\*---------------------------------------------------------------------------*/
FoamFile
{
    format      ascii;
    class       volScalarField;
    location    "0.9";
    object      nut;
}
// * * * * * * * * * * * * * * * * * * * * * * * * * * * * * * * * * * * * * //

dimensions      [0 2 -1 0 0 0 0];

internalField   nonuniform List<scalar> 
2268
(
2.98062e-05
4.54476e-05
5.38521e-05
5.9685e-05
6.47588e-05
6.98637e-05
7.53273e-05
8.1276e-05
8.76018e-05
9.3847e-05
9.99764e-05
0.000106043
0.000112171
0.000118461
0.000124833
0.000130908
0.000135997
0.000139142
0.000139133
0.000134377
0.000122493
9.89582e-05
4.7547e-05
9.45961e-05
0.000312081
0.000396611
0.000466347
0.000540222
0.000623485
0.000714327
0.000806104
0.000884782
0.000954116
0.00101843
0.00108121
0.00114538
0.00121218
0.00127934
0.00134045
0.00138569
0.00140299
0.0013782
0.00129341
0.00112365
0.000826841
0.000174989
0.000115454
0.000592815
0.000783757
0.000939313
0.00110292
0.00128371
0.00147533
0.00166194
0.00182218
0.00195659
0.002071
0.00217378
0.00227348
0.00237496
0.00247532
0.00256253
0.00261683
0.00261274
0.00251967
0.00230006
0.00190746
0.00127981
0.00022543
0.000131818
0.000828706
0.00113264
0.0013742
0.00162141
0.00188487
0.00215324
0.00240359
0.00261155
0.00277463
0.00290147
0.00300817
0.00311179
0.0032223
0.00333621
0.00343548
0.00349053
0.00346367
0.00331017
0.00297702
0.00240432
0.00153244
0.000272907
0.000144592
0.0010156
0.00143408
0.00175991
0.00208315
0.00241417
0.00273641
0.00302053
0.00324116
0.00339694
0.00350532
0.00359533
0.00369429
0.00381489
0.0039488
0.00406873
0.00413467
0.00409863
0.00390506
0.00348832
0.00277482
0.00170696
0.000323496
0.000154096
0.00115555
0.00168401
0.00209216
0.00248582
0.00287357
0.0032327
0.00352687
0.00373188
0.00385389
0.00392736
0.00399874
0.0041036
0.00425095
0.00442142
0.00457569
0.00466431
0.00463207
0.00441598
0.00393913
0.00310861
0.00185585
0.000386184
0.000160085
0.00124919
0.00187847
0.00236808
0.00282923
0.00326748
0.00365197
0.00393888
0.0041074
0.00417999
0.00421665
0.00428254
0.00441476
0.00460982
0.00483216
0.00503038
0.00514854
0.00512805
0.004902
0.00438415
0.00345636
0.00201682
0.000472433
0.000161229
0.00128261
0.00201397
0.00258746
0.00311575
0.00360207
0.00400497
0.004272
0.00438952
0.0044069
0.00441708
0.00450037
0.00468456
0.00494498
0.00522803
0.00547315
0.00562206
0.00561663
0.00539006
0.00485269
0.00386718
0.00227393
0.000590765
0.000107201
0.000154694
0.000180903
0.000191545
0.000192615
0.00018919
0.000184805
0.000179692
0.000173922
0.000168845
0.000162681
0.000153159
0.000141917
0.000130884
0.000114164
8.90855e-05
8.55817e-05
9.1311e-05
9.43756e-05
0.000311025
0.00104237
0.00141833
0.00159547
0.00168081
0.0016952
0.00167205
0.00160057
0.00152092
0.00148132
0.00141424
0.00125834
0.0011088
0.00101687
0.000847532
0.000472122
0.000310777
0.000372502
0.000267069
0.000347146
0.00154097
0.00242227
0.00292791
0.00316457
0.00322936
0.00319759
0.0030889
0.00294668
0.00282232
0.00264986
0.00237956
0.00211642
0.00188869
0.00153152
0.000877067
0.000515384
0.000574251
0.000285712
0.000414548
0.00185898
0.00319942
0.0039902
0.00436823
0.00448905
0.00445931
0.00432725
0.00413604
0.00392854
0.00365977
0.0033028
0.0029449
0.00258003
0.00206525
0.00125704
0.000738628
0.000791704
0.000300657
0.000498487
0.00223925
0.00390715
0.00489298
0.00536789
0.00552805
0.00549816
0.00534438
0.00510914
0.00482912
0.0044768
0.00404144
0.00359517
0.00311331
0.00247199
0.00157554
0.000987424
0.00101327
0.000313125
0.000573477
0.00275393
0.00463806
0.0057126
0.00622913
0.00640345
0.00636508
0.00618743
0.00591266
0.00557204
0.00514774
0.00463886
0.00410446
0.00352757
0.00278927
0.00184185
0.00124683
0.00121572
0.000323461
0.000655366
0.0033989
0.00540777
0.00648187
0.00699054
0.00715471
0.00709847
0.006895
0.00658579
0.00619558
0.00571331
0.00514465
0.00453219
0.00387926
0.00305603
0.0020884
0.00151863
0.00139723
0.000332403
0.000763253
0.00416684
0.00619864
0.00720368
0.00766895
0.00780484
0.00772298
0.00749263
0.00715431
0.00672696
0.0062033
0.00558927
0.00492051
0.00420129
0.00330673
0.00234756
0.00180467
0.0015653
0.000340737
0.000150067
0.00121172
0.00212173
0.00284051
0.00348025
0.00404335
0.00446866
0.00468743
0.0047139
0.00465846
0.00466668
0.00482221
0.00511786
0.00549036
0.00586409
0.00617299
0.00636208
0.00637968
0.00616729
0.00565341
0.00476364
0.00348359
0.00195855
0.00014636
0.00112253
0.00213837
0.00300033
0.00378282
0.00444569
0.00488357
0.00501397
0.00491908
0.00483208
0.004949
0.00529696
0.0057858
0.0063072
0.0067801
0.00715181
0.00738705
0.00745802
0.00733893
0.00701275
0.00649325
0.00584548
0.00516253
0.000150283
0.00113152
0.00222168
0.00317247
0.00402732
0.00473208
0.005114
0.00510961
0.00494823
0.00498447
0.00535231
0.00594625
0.00660695
0.00722634
0.0077493
0.00814933
0.00841424
0.00853833
0.00852177
0.00838177
0.00816243
0.00793154
0.00776393
0.000157178
0.00118307
0.00233852
0.00335962
0.0042505
0.00492315
0.00517279
0.00501464
0.00490879
0.00524447
0.00595342
0.00677436
0.00754063
0.00819373
0.00871991
0.00911835
0.00939723
0.00956361
0.00963099
0.00962753
0.00960353
0.00960799
0.00967066
0.000163342
0.0012304
0.00245254
0.00353953
0.00444087
0.00501463
0.00507012
0.00481509
0.00496278
0.00573377
0.00676118
0.00772043
0.00851042
0.0091417
0.009638
0.0100131
0.0102829
0.0104683
0.0105976
0.010701
0.0108043
0.0109272
0.011072
0.000167561
0.00126557
0.00255925
0.00371202
0.0045908
0.00499659
0.0048506
0.00467298
0.00528426
0.00650432
0.00772039
0.00868725
0.00941521
0.00998188
0.0104256
0.0107718
0.0110417
0.0112605
0.0114474
0.0116217
0.0117934
0.0119624
0.0121204
0.00017092
0.00132004
0.00269449
0.00389969
0.00470013
0.00488616
0.0046356
0.00481127
0.00599109
0.00753901
0.00870949
0.00950453
0.0101321
0.0106461
0.0110655
0.0114102
0.0116985
0.0119496
0.0121764
0.012389
0.0125887
0.0127646
0.0129058
0.00017807
0.00146099
0.00291867
0.00412922
0.00478128
0.0048177
0.00472886
0.00544487
0.00702677
0.00866418
0.00945325
0.0100368
0.0106368
0.0111456
0.0115694
0.0119271
0.0122363
0.0125112
0.0127611
0.0129899
0.0131942
0.0133613
0.0134793
0.000186453
0.00169935
0.00329344
0.00440826
0.00482079
0.00473336
0.0049146
0.00586846
0.00734427
0.00867689
0.00959819
0.0103305
0.0109741
0.0114825
0.0119162
0.0122922
0.0126222
0.0129163
0.0131803
0.0134154
0.0136169
0.0137754
0.0138806
0.000201434
0.00197554
0.00363164
0.00456707
0.00480611
0.00475181
0.00502066
0.00588922
0.00713091
0.00829749
0.00934085
0.0103915
0.0111551
0.0116322
0.0120857
0.0124871
0.0128404
0.0131533
0.0134309
0.0136735
0.013877
0.014038
0.01415
0.000206439
0.00213142
0.0038226
0.00468355
0.00491023
0.00493594
0.00521227
0.00592023
0.00691373
0.00792507
0.0089701
0.0101069
0.010993
0.0115888
0.0120943
0.0125224
0.0128996
0.0132327
0.0135257
0.0137835
0.0140047
0.0141866
0.0143249
0.000203067
0.0021321
0.00387282
0.00479115
0.00509727
0.00518473
0.00542299
0.0059682
0.00674404
0.00759224
0.00851598
0.00952239
0.0104299
0.0112101
0.011825
0.0123287
0.0127674
0.0131485
0.0134788
0.0137699
0.0140263
0.0142476
0.014427
0.000196049
0.0020485
0.00382243
0.0048511
0.00527608
0.0054221
0.00561554
0.00602242
0.00662463
0.00732591
0.00810393
0.0089483
0.0097866
0.010581
0.0112945
0.0119125
0.0124425
0.0128941
0.0132844
0.0136317
0.0139419
0.0142149
0.0144446
0.000188221
0.00191941
0.00370084
0.0048503
0.00541015
0.00562582
0.00578987
0.00608684
0.00655042
0.00712504
0.00777156
0.00847893
0.00921566
0.0099557
0.0106733
0.0113438
0.0119499
0.0124776
0.0129401
0.0133548
0.0137299
0.0140629
0.0143502
0.000181631
0.00178267
0.00354492
0.00480447
0.00550555
0.00580753
0.00596411
0.00617445
0.00651414
0.00697166
0.00751412
0.00811549
0.00875584
0.009421
0.010095
0.0107557
0.011381
0.0119542
0.0124765
0.0129523
0.0133855
0.0137791
0.0141278
0.000177359
0.00166639
0.0033904
0.0047364
0.00557458
0.00597757
0.00614753
0.00628636
0.00651802
0.00687236
0.00732599
0.00784433
0.0084045
0.00899589
0.00960907
0.010229
0.0108372
0.0114173
0.0119611
0.0124679
0.01294
0.0133808
0.0137878
0.000175834
0.00157865
0.00326008
0.00466437
0.00562257
0.00613049
0.00633481
0.00643261
0.00657833
0.00683764
0.00720696
0.00765271
0.00814605
0.00867275
0.00922463
0.00979175
0.0103612
0.0109199
0.0114585
0.0119726
0.0124611
0.012924
0.01336
0.000176365
0.001529
0.00317027
0.00460128
0.00565229
0.00626681
0.00653274
0.00662322
0.00670566
0.00687762
0.00716178
0.00753516
0.00796669
0.00843611
0.0089322
0.00944632
0.00996931
0.0104918
0.0110061
0.0115072
0.0119923
0.0124593
0.0129059
0.000177649
0.00150624
0.00311816
0.00455795
0.00567713
0.0063931
0.00674088
0.00685596
0.00690158
0.00699817
0.00719679
0.00749305
0.00786034
0.00827433
0.00871906
0.00918403
0.00966107
0.010143
0.010624
0.0110999
0.0115676
0.0120245
0.0124675
0.000179059
0.00149952
0.00309359
0.00453415
0.00570158
0.0065086
0.00695021
0.00711864
0.00715781
0.00719834
0.0073166
0.00753166
0.00782858
0.00818378
0.00857762
0.00899636
0.00943049
0.00987315
0.0103193
0.0107655
0.011209
0.0116474
0.0120773
0.000180305
0.00150113
0.00308571
0.00452414
0.00572481
0.00660944
0.00714843
0.00739315
0.00745779
0.00746917
0.0075211
0.00765655
0.00787796
0.00816852
0.00850823
0.00888063
0.00927387
0.00967982
0.0100931
0.0105101
0.0109283
0.0113455
0.0117581
0.000181277
0.0015063
0.00308599
0.00452101
0.00574362
0.00669137
0.00732389
0.00765977
0.00777941
0.00779375
0.00780291
0.00786949
0.00801577
0.00823717
0.00851793
0.00884122
0.00919323
0.00956395
0.0099466
0.0103368
0.0107316
0.0111283
0.0115236
0.000181959
0.00151234
0.00308879
0.00451908
0.00575468
0.00675111
0.0074676
0.00790048
0.00809831
0.00814841
0.00814575
0.00816438
0.00824477
0.00839778
0.00861648
0.00888712
0.0091957
0.00953073
0.00988383
0.0102492
0.0106227
0.0110012
0.0113806
0.000182376
0.00151795
0.00309096
0.00451474
0.0057558
0.00678705
0.00757412
0.00810121
0.00839121
0.00850537
0.00852453
0.00852441
0.00855811
0.0086518
0.00881044
0.00902694
0.00928976
0.0095874
0.00991029
0.0102512
0.0106045
0.010966
0.011331
0.000182575
0.00152269
0.00309118
0.00450634
0.00574635
0.00679959
0.00764164
0.00825303
0.00863889
0.00883664
0.00890812
0.00892196
0.00893622
0.00898876
0.00909683
0.00926253
0.00947952
0.0097383
0.0100294
0.0103445
0.0106768
0.0110206
0.0113705
0.000182603
0.00152655
0.00308923
0.00449369
0.0057271
0.00679085
0.00767172
0.00835249
0.0088284
0.0091182
0.00926415
0.00932209
0.00934742
0.00938387
0.00945856
0.0095832
0.00975854
0.00997915
0.0102371
0.0105243
0.010833
0.0111563
0.011488
0.000182503
0.00152974
0.00308549
0.00447747
0.00569983
0.00676434
0.00766863
0.00840125
0.00895404
0.00933335
0.00956459
0.00968867
0.0097528
0.00980035
0.00986396
0.00996318
0.0101061
0.0102926
0.010518
0.0107753
0.011057
0.0113555
0.0116636
0.000182315
0.00153248
0.00308051
0.00445873
0.00566673
0.00672426
0.00763843
0.00840505
0.00901713
0.00947451
0.00979022
0.00999122
0.0101138
0.0101961
0.0102715
0.010364
0.0104877
0.0106478
0.0108437
0.0110707
0.0113222
0.0115909
0.0118693
0.000182074
0.00153497
0.00307481
0.00443852
0.00563004
0.00667496
0.00758803
0.00837232
0.00902466
0.00954301
0.00993279
0.0102099
0.0103998
0.0105326
0.0106384
0.010742
0.0108609
0.0110046
0.0111764
0.0113745
0.0115942
0.011829
0.0120716
0.000181815
0.00153738
0.00306882
0.00441775
0.00559171
0.00662038
0.00752425
0.00831269
0.00898735
0.00954737
0.00999469
0.0103379
0.010593
0.010782
0.0109293
0.0110572
0.0111839
0.0113214
0.0114759
0.0116484
0.0118363
0.0120348
0.0122372
0.000181575
0.00153985
0.00306286
0.00439708
0.00555325
0.0065638
0.00745313
0.00823557
0.00891744
0.00950063
0.00998658
0.0103798
0.01069
0.0109316
0.0111227
0.0112815
0.0114244
0.0115638
0.0117075
0.0118586
0.0120167
0.0121784
0.0123385
0.000181397
0.00154254
0.00305716
0.00437696
0.0055157
0.0065076
0.0073795
0.00814918
0.00882685
0.00941756
0.00992402
0.0103494
0.0106994
0.0109833
0.0112131
0.0114025
0.0115647
0.0117108
0.0118488
0.0119828
0.0121139
0.0122404
0.0123585
0.000181333
0.00154563
0.00305188
0.00435761
0.00547963
0.0064533
0.00730677
0.00805991
0.00872576
0.00931225
0.00982408
0.0102647
0.0106383
0.0109505
0.0112091
0.0114234
0.0116031
0.011757
0.0118919
0.0120123
0.0121199
0.0122143
0.0122928
0.000181448
0.00154929
0.00304705
0.00433901
0.00544518
0.00640165
0.007237
0.00797217
0.00862197
0.00919653
0.00970259
0.0101448
0.010527
0.0108533
0.0111288
0.0113593
0.0115513
0.0117109
0.0118434
0.0119524
0.0120398
0.0121058
0.0121489
0.000181816
0.00155361
0.00304249
0.00432083
0.00541209
0.00635272
0.00717118
0.00788862
0.00852078
0.00907928
0.00957254
0.0100066
0.0103859
0.0107143
0.0109952
0.0112324
0.0114298
0.0115912
0.0117201
0.0118188
0.0118888
0.0119304
0.011943
0.000182515
0.00155843
0.0030376
0.00430238
0.00537973
0.00630616
0.00710949
0.00781056
0.0084254
0.0089665
0.00944351
0.00986374
0.0102326
0.0105541
0.0108313
0.0110669
0.0112631
0.0114219
0.011545
0.0116335
0.0116882
0.011709
0.0116959
0.000183617
0.00156323
0.00303129
0.00428256
0.00534725
0.0062614
0.00705179
0.00773857
0.00833766
0.00886199
0.00932204
0.00972612
0.0100806
0.01039
0.0106576
0.0108856
0.0110753
0.0112276
0.0113427
0.0114206
0.0114608
0.011463
0.0114276
0.000185163
0.00156704
0.00302206
0.00426016
0.00531389
0.00621805
0.006998
0.00767301
0.00825868
0.00876813
0.00921241
0.00960056
0.00993971
0.0102351
0.0104903
0.0107075
0.0108877
0.0110308
0.0111362
0.0112023
0.0112275
0.0112108
0.0111529
0.000187136
0.00156846
0.0030084
0.00423434
0.00527943
0.00617632
0.00694862
0.00761462
0.00818962
0.00868685
0.00911774
0.00949189
0.00981703
0.010099
0.0103416
0.0105474
0.0107171
0.0108501
0.0109447
0.0109977
0.0110054
0.0109649
0.0108776
0.000189445
0.00156598
0.0029896
0.00420549
0.00524494
0.00613756
0.00690509
0.00756497
0.00813225
0.0086203
0.00904088
0.00940401
0.00971785
0.00998861
0.0102206
0.0104163
0.0105765
0.0107
0.0107837
0.0108223
0.010808
0.0107334
0.0105982
0.000191928
0.00155813
0.00296701
0.00417646
0.00521367
0.00610491
0.00687035
0.00752683
0.00808934
0.00857143
0.00898514
0.00934079
0.00964686
0.00990984
0.0101343
0.0103227
0.0104758
0.0105917
0.0106661
0.0106901
0.0106501
0.0105277
0.0103096
0.000194208
0.00154773
0.00294697
0.00415457
0.00519226
0.00608405
0.00684926
0.00750457
0.00806501
0.00854431
0.00895468
0.00930665
0.00960885
0.00986793
0.0100885
0.0102732
0.0104225
0.0105343
0.0106029
0.0106167
0.0105552
0.0103829
0.0100414
0.00065112
0.000639272
0.000653637
0.000710107
0.00470379
0.00471406
0.0048813
0.00524674
0.0077754
0.00787746
0.00806901
0.00835254
0.00981243
0.00993233
0.0100773
0.0102426
0.0112269
0.0113265
0.0114202
0.0115053
0.0122499
0.0123189
0.0123674
0.0123946
0.0129996
0.0130386
0.0130503
0.0130347
0.0135422
0.0135585
0.013545
0.0135019
0.0139291
0.0139358
0.0139122
0.0138587
0.0142057
0.014218
0.0142012
0.0141552
0.0144061
0.0144372
0.0144398
0.0144141
0.0145413
0.0145966
0.0146271
0.0146331
0.0145965
0.0146802
0.0147431
0.0147851
0.0145414
0.0146542
0.0147506
0.0148299
0.0143586
0.0144998
0.0146281
0.0147427
0.0140552
0.0142222
0.0143793
0.014525
0.013655
0.0138454
0.0140274
0.0141994
0.0132135
0.0134204
0.0136211
0.0138147
0.0127768
0.0129914
0.0132029
0.0134105
0.012381
0.0125965
0.0128117
0.0130261
0.0120524
0.0122647
0.0124787
0.0126942
0.0118078
0.0120147
0.0122246
0.0124377
0.0116556
0.0118564
0.0120606
0.0122687
0.0115974
0.0117913
0.0119886
0.0121897
0.0116277
0.0118133
0.0120018
0.0121934
0.0117334
0.0119081
0.0120848
0.0122634
0.0118926
0.0120528
0.0122138
0.0123752
0.0120761
0.0122177
0.0123589
0.0124988
0.0122506
0.0123699
0.0124874
0.0126021
0.0123837
0.0124781
0.0125693
0.0126563
0.0124499
0.0125183
0.0125821
0.0126406
0.0124344
0.0124771
0.0125142
0.0125449
0.0123348
0.0123537
0.012366
0.0123711
0.0121603
0.0121582
0.0121487
0.0121313
0.0119282
0.0119086
0.0118809
0.011845
0.0116595
0.0116257
0.0115837
0.0115337
0.0113732
0.0113283
0.0112756
0.0112153
0.0110816
0.0110271
0.0109659
0.0108985
0.010785
0.0107195
0.0106501
0.0105777
0.0104686
0.0103857
0.0103063
0.0102307
0.0100967
0.00998416
0.00989449
0.00982193
0.00957929
0.00943767
0.0093616
0.00931643
0.00342627
0.00590483
0.00741731
0.00822708
0.00859714
0.00867932
0.00856153
0.00829838
0.00792837
0.00746466
0.0069019
0.0062425
0.00550853
0.00469384
0.00373137
0.00282139
0.00225755
0.00175996
0.000349504
0.00655714
0.00795952
0.00887129
0.00937045
0.00956812
0.00954824
0.00936777
0.00906169
0.00865902
0.00817284
0.007598
0.00692923
0.00617531
0.0053381
0.00440728
0.0035163
0.00280803
0.00200042
0.000368508
0.00887958
0.00957814
0.0100489
0.0102786
0.010307
0.0101787
0.00993178
0.0095936
0.009178
0.00870105
0.00815349
0.00752058
0.00680011
0.00599849
0.00512718
0.00425018
0.00338549
0.00227374
0.000395575
0.0104769
0.0107776
0.0109472
0.0109611
0.0108342
0.0105945
0.0102716
0.00989123
0.00946815
0.00900992
0.00850767
0.00793791
0.00728172
0.00653904
0.00571944
0.004843
0.0038437
0.00249025
0.000413506
0.0115883
0.0116488
0.0116057
0.0114437
0.0111729
0.0108159
0.0104006
0.00995466
0.00949983
0.00904498
0.00857849
0.00807097
0.00748931
0.00680205
0.00602839
0.00516041
0.00411061
0.00261986
0.000424947
0.0123789
0.0122777
0.0120764
0.0117686
0.0113652
0.0108882
0.0103656
0.00982756
0.00930078
0.00880117
0.0083269
0.00784958
0.00732237
0.00669174
0.00594235
0.00509127
0.00407189
0.00259951
0.000425939
0.0129502
0.0127365
0.0124189
0.0119965
0.0114812
0.010894
0.0102624
0.00961664
0.00898575
0.00839059
0.00783639
0.00730664
0.00676546
0.00616521
0.00545401
0.00464474
0.00369601
0.00236059
0.000410341
0.0133749
0.0130921
0.0127013
0.0122037
0.0116107
0.0109409
0.0102188
0.00947177
0.00872741
0.00800901
0.00732977
0.0066876
0.0060639
0.00542526
0.00473156
0.0039548
0.00305642
0.00189242
0.000360675
0.0137161
0.0134077
0.0129899
0.0124635
0.0118378
0.011128
0.0103537
0.00953729
0.00870223
0.00787088
0.00706131
0.00628314
0.00553433
0.00479956
0.00405134
0.00325616
0.00237019
0.00129411
0.000292353
0.0140226
0.0137297
0.0133292
0.0128195
0.0122073
0.0115044
0.0107257
0.00988831
0.00901123
0.00811449
0.00721849
0.00633996
0.00548569
0.0046533
0.00382914
0.00298009
0.00207108
0.0010805
0.000302392
0.0143143
0.0140726
0.0137261
0.0132705
0.01271
0.0120534
0.0113125
0.0105006
0.00963262
0.00872656
0.00780327
0.00688238
0.00596911
0.00506338
0.00416832
0.00325719
0.00230358
0.00126761
0.000348686
0.0145848
0.0144197
0.0141518
0.013773
0.0132851
0.012694
0.0120086
0.0112396
0.0103993
0.00950205
0.00856394
0.00759998
0.006624
0.00566281
0.00473116
0.00376859
0.0027551
0.00164029
0.00038044
0.0147986
0.0147237
0.014547
0.0142598
0.01386
0.0133527
0.0127461
0.0120498
0.0112733
0.0104263
0.00951916
0.00856301
0.007568
0.00654465
0.00548405
0.00433896
0.00307991
0.00173337
0.00039923
0.0149111
0.0149314
0.014852
0.0146622
0.0143594
0.013947
0.0134326
0.0128248
0.0121315
0.0113591
0.0105131
0.00959847
0.00861495
0.00755109
0.00637698
0.00505064
0.00354651
0.0019159
0.000421354
0.0148941
0.0150122
0.0150315
0.0149419
0.0147393
0.0144259
0.0140078
0.0134924
0.0128865
0.0121952
0.0114207
0.0105615
0.00960836
0.00853742
0.0073069
0.00586254
0.00416687
0.00223745
0.000441259
0.0147433
0.0149555
0.0150705
0.0150785
0.0149743
0.0147583
0.0144351
0.014011
0.0134924
0.0128832
0.0121836
0.0113873
0.0104774
0.00942186
0.00816873
0.00665061
0.00479892
0.00258906
0.000457136
0.0144755
0.0147712
0.0149731
0.015072
0.0150611
0.0149388
0.0147075
0.0143722
0.0139386
0.0134102
0.0127849
0.0120526
0.0111909
0.0101604
0.0089012
0.00733294
0.00536082
0.00291357
0.000469605
0.0141328
0.0144859
0.0147597
0.0149397
0.0150155
0.014982
0.0148385
0.0145883
0.0142364
0.0137851
0.0132306
0.0125596
0.0117452
0.0107423
0.00948467
0.00788182
0.00581876
0.003185
0.000479486
0.0137572
0.0141506
0.0144779
0.0147226
0.0148713
0.0149156
0.0148522
0.0146817
0.0144066
0.0140272
0.013538
0.0129229
0.0121515
0.0111747
0.00992155
0.008294
0.00616081
0.00338145
0.000487805
0.0133891
0.0138074
0.0141718
0.0144648
0.0146713
0.0147801
0.0147851
0.014684
0.0144765
0.0141607
0.0137286
0.013162
0.0124277
0.0114746
0.0102287
0.00858694
0.00640478
0.0035175
0.000493329
0.0130631
0.0134934
0.01388
0.0142054
0.0144537
0.0146118
0.014671
0.0146264
0.0144748
0.0142117
0.0138266
0.0132995
0.0125958
0.0116636
0.0104283
0.00878336
0.00657418
0.00361501
0.000495459
0.0128049
0.0132365
0.0136319
0.0139747
0.0142485
0.0144393
0.0145366
0.0145331
0.014423
0.0141992
0.0138493
0.0133515
0.0126712
0.0117569
0.0105349
0.00889674
0.00667989
0.0036799
0.000494549
0.0126285
0.0130528
0.0134456
0.0137914
0.0140745
0.0142807
0.0143985
0.014419
0.0143342
0.0141349
0.013807
0.0133279
0.0126637
0.0117644
0.0105578
0.00893507
0.00672739
0.00371423
0.000490884
0.0125367
0.0129463
0.0133259
0.0136613
0.0139379
0.0141423
0.0142627
0.0142893
0.014213
0.0140229
0.0137039
0.0132334
0.0125787
0.011692
0.0105032
0.00890352
0.00672008
0.00371921
0.000484678
0.0125218
0.0129092
0.0132651
0.0135772
0.0138325
0.0140187
0.0141248
0.0141408
0.014057
0.0138618
0.01354
0.0130695
0.0124192
0.0115438
0.0103754
0.00880612
0.00666079
0.00369596
0.000476121
0.0125666
0.012923
0.0132449
0.0135217
0.0137423
0.0138959
0.0139728
0.0139636
0.0138587
0.0136468
0.0133129
0.0128361
0.0121872
0.0113233
0.0101786
0.00864681
0.00655252
0.00364588
0.000465392
0.012646
0.0129618
0.0132397
0.0134705
0.0136451
0.0137545
0.0137905
0.013745
0.0136091
0.0133721
0.01302
0.0125335
0.0118851
0.0110341
0.00991714
0.00843006
0.00639882
0.00357067
0.000452681
0.0127299
0.012996
0.0132209
0.0133972
0.0135173
0.0135743
0.0135616
0.0134726
0.0132995
0.013033
0.0126602
0.0121632
0.0115165
0.0106814
0.00959679
0.00816129
0.00620403
0.00347256
0.000438183
0.0127879
0.0129965
0.0131618
0.0132776
0.0133381
0.0133382
0.013273
0.0131373
0.0129251
0.0126281
0.0122349
0.0117293
0.0110872
0.010272
0.00922466
0.00784721
0.00597348
0.00335428
0.000422116
0.0127936
0.0129395
0.0130415
0.0130941
0.0130933
0.0130354
0.0129174
0.0127356
0.0124855
0.0121601
0.0117496
0.011239
0.0106058
0.00981493
0.00880986
0.00749615
0.00571368
0.00321918
0.000404715
0.0127286
0.0128103
0.0128482
0.0128381
0.0127772
0.0126636
0.0124955
0.0122709
0.0119867
0.0116373
0.0112141
0.0107035
0.0100841
0.00932248
0.00836409
0.00711852
0.00543261
0.00307131
0.00038625
0.0125852
0.0126047
0.0125809
0.0125112
0.0123941
0.0122292
0.012016
0.011754
0.0114413
0.0110737
0.0106437
0.0101388
0.00953857
0.00881058
0.0079024
0.00672746
0.00514017
0.00291572
0.000367041
0.0123679
0.0123296
0.0122491
0.0121252
0.0119578
0.0117478
0.0114961
0.0112034
0.010869
0.01049
0.0100597
0.00956649
0.00899055
0.00830016
0.0074443
0.00633987
0.00484892
0.00275865
0.000347531
0.0120905
0.0120012
0.0118711
0.0117004
0.0114904
0.0112431
0.0109608
0.0106453
0.0102969
0.00991384
0.00949024
0.00901484
0.00846815
0.00781845
0.00701521
0.00597764
0.00457482
0.00260788
0.000328388
0.0117735
0.0116418
0.0114711
0.0112629
0.0110199
0.0107449
0.0104415
0.0101123
0.00975883
0.00937994
0.00897051
0.00851944
0.0080069
0.00740025
0.00664781
0.00566893
0.00433809
0.00247276
0.000310685
0.0114388
0.011275
0.0110748
0.010841
0.0105768
0.0102862
0.00997328
0.00964165
0.0092935
0.00892843
0.00854175
0.00812229
0.00764924
0.00708768
0.00638222
0.0054485
0.00416314
0.00236366
0.000296065
0.0111043
0.0109202
0.010704
0.0104589
0.0101887
0.00989752
0.0095898
0.00926958
0.00893961
0.00859999
0.00824633
0.00786718
0.00744012
0.0069263
0.0062629
0.00535569
0.00407733
0.00229102
0.000286758
0.010778
0.0105866
0.0103702
0.0101314
0.00987322
0.00959962
0.00931478
0.00902269
0.00872624
0.0084258
0.00811723
0.00778875
0.00741604
0.00695473
0.00633029
0.00542955
0.00411006
0.00226636
0.000285279
0.0104537
0.0102694
0.0100705
0.00985729
0.00963123
0.00939513
0.00915242
0.00890653
0.00866004
0.00841336
0.00816261
0.00789607
0.0075881
0.00718895
0.00660936
0.00570597
0.00429894
0.00230889
0.000294246
0.0101105
0.00995045
0.0097881
0.00961969
0.00944474
0.00926459
0.00908149
0.00889792
0.00871579
0.00853534
0.00835319
0.00815877
0.0079277
0.00760904
0.00710238
0.00622541
0.00471561
0.00246401
0.000317574
0.00972078
0.00960654
0.0094992
0.00939176
0.00928234
0.00917117
0.00905937
0.00894833
0.00883912
0.0087318
0.00862397
0.00850809
0.00836592
0.00815618
0.00778645
0.00705034
0.00553605
0.0028676
0.000365459
0.00926707
0.00922309
0.00918501
0.00914798
0.00911078
0.00907338
0.0090361
0.00899938
0.00896355
0.00892859
0.00889367
0.00885607
0.00880902
0.008736
0.00859372
0.00825024
0.00723896
0.00418648
0.0004698
)
;

boundaryField
{
    leftWall
    {
        type            nutkWallFunction;
        Cmu             0.09;
        kappa           0.41;
        E               9.8;
        value           nonuniform List<scalar> 
50
(
3.25696e-06
9.26475e-06
1.10859e-05
1.25128e-05
1.36348e-05
1.44669e-05
1.50818e-05
1.69517e-05
1.69914e-05
1.69082e-05
1.75256e-05
1.83246e-05
1.89722e-05
1.93887e-05
1.97157e-05
2.06532e-05
1.80212e-05
1.9699e-05
1.99237e-05
1.92433e-05
1.82401e-05
1.7271e-05
1.65585e-05
1.61844e-05
1.61592e-05
1.63402e-05
1.65802e-05
1.68116e-05
1.70058e-05
1.71543e-05
1.72584e-05
1.73238e-05
1.73576e-05
1.73667e-05
1.73572e-05
1.73347e-05
1.7304e-05
1.72702e-05
1.72388e-05
1.72163e-05
1.7211e-05
1.72324e-05
1.72924e-05
1.74031e-05
1.75758e-05
1.78172e-05
1.81252e-05
1.84859e-05
1.88759e-05
1.92283e-05
)
;
    }
    rightWall
    {
        type            nutkWallFunction;
        Cmu             0.09;
        kappa           0.41;
        E               9.8;
        value           nonuniform List<scalar> 
50
(
9.59484e-06
2.48764e-05
2.64589e-05
2.76645e-05
2.8577e-05
2.93939e-05
3.00946e-05
3.06937e-05
3.13448e-05
3.49168e-05
3.89543e-05
4.14445e-05
4.46451e-05
4.52558e-05
4.39274e-05
3.98905e-05
3.27573e-05
3.31187e-05
4.05818e-05
4.53346e-05
4.82261e-05
5.02561e-05
5.29132e-05
5.50339e-05
5.66917e-05
5.80006e-05
5.9091e-05
5.98416e-05
6.01423e-05
6.00412e-05
5.95781e-05
5.87811e-05
5.7675e-05
5.62818e-05
5.46228e-05
5.27265e-05
5.0617e-05
4.83217e-05
4.5872e-05
4.33053e-05
4.06749e-05
3.80644e-05
3.56155e-05
3.35556e-05
3.2206e-05
3.19362e-05
3.31167e-05
3.6253e-05
4.26131e-05
5.60545e-05
)
;
    }
    lowerWall
    {
        type            nutkWallFunction;
        Cmu             0.09;
        kappa           0.41;
        E               9.8;
        value           nonuniform List<scalar> 
62
(
3.25696e-06
4.78087e-06
5.60072e-06
6.15551e-06
6.62033e-06
7.07548e-06
7.5584e-06
8.08444e-06
8.65499e-06
9.22744e-06
9.78912e-06
1.03392e-05
1.0886e-05
1.14398e-05
1.19985e-05
1.25358e-05
1.29969e-05
1.32991e-05
1.33322e-05
1.29474e-05
1.19202e-05
9.79931e-06
4.97984e-06
4.97984e-06
1.64483e-05
2.08085e-05
2.48837e-05
2.91947e-05
3.48179e-05
4.73111e-05
5.9835e-05
6.06068e-05
6.00385e-05
6.58485e-05
7.31437e-05
1.23063e-05
3.25979e-05
3.63438e-05
4.2145e-05
5.01465e-05
5.91677e-05
6.81523e-05
7.76228e-05
1.23063e-05
1.72923e-05
1.9966e-05
2.01566e-05
1.963e-05
1.93598e-05
1.93189e-05
1.91957e-05
1.86583e-05
1.78002e-05
1.62252e-05
1.51919e-05
1.44358e-05
1.36147e-05
1.21737e-05
9.50439e-06
8.75528e-06
9.20899e-06
9.59484e-06
)
;
    }
    atmosphere
    {
        type            calculated;
        value           nonuniform List<scalar> 
46
(
0.000194208
0.00154773
0.00294697
0.00415457
0.00519226
0.00608405
0.00684926
0.00750457
0.00806501
0.00854431
0.00895468
0.00930665
0.00960885
0.00986793
0.0100885
0.0102732
0.0104225
0.0105343
0.0106029
0.0106167
0.0105552
0.0103829
0.0100414
0.009
0.009
0.009
0.009
0.009
0.009
0.009
0.009
0.009
0.009
0.009
0.009
0.009
0.009
0.009
0.009
0.009
0.009
0.009
0.009
0.009
0.009
0.009
)
;
    }
    defaultFaces
    {
        type            empty;
    }
}


// ************************************************************************* //
