/*--------------------------------*- C++ -*----------------------------------*\
  =========                 |
  \\      /  F ield         | OpenFOAM: The Open Source CFD Toolbox
   \\    /   O peration     | Website:  https://openfoam.org
    \\  /    A nd           | Version:  13
     \\/     M anipulation  |
\*---------------------------------------------------------------------------*/
FoamFile
{
    format      ascii;
    class       volScalarField;
    location    "0.9";
    object      p;
}
// * * * * * * * * * * * * * * * * * * * * * * * * * * * * * * * * * * * * * //

dimensions      [1 -1 -2 0 0 0 0];

internalField   nonuniform List<scalar> 
2268
(
6703.36
6518.65
6357.43
6220.47
6121.2
6057.21
6018.29
5993.31
5972.84
5949.62
5918.59
5877.23
5826.18
5768.17
5705.95
5640.57
5571.34
5496.69
5415.48
5328.68
5239.98
5169.34
5127.48
5933.2
5746.21
5582.06
5441.96
5338.23
5268.74
5222.82
5189.53
5159.78
5126.86
5086.47
5036.8
4978.71
4914.72
4847.59
4778.4
4706.96
4632.82
4556.16
4479.24
4405.96
4356.42
4326.78
5146.54
4949.59
4785.13
4647.93
4545
4474.04
4423.67
4383.34
4344.88
4302.67
4253.32
4195.51
4130.29
4060.35
3988.88
3917.09
3845.32
3774.05
3704.67
3640.29
3583.56
3551.4
3522.85
4333.79
4115.57
3957.54
3832.14
3738
3672
3621.89
3578.05
3533.5
3484.38
3428.21
3363.72
3292.23
3216.92
3142.09
3068.94
2998.2
2930.89
2869.03
2815.63
2770.92
2749.6
2714.54
3481.35
3234.28
3097.28
2996.04
2920.74
2867.18
2821.92
2777.78
2729.04
2675.03
2614.15
2544.52
2467.72
2387.95
2310.6
2236.8
2167.64
2104.31
2048.99
2003.68
1965.98
1955.43
1905.43
2569.98
2287.32
2193.4
2135.62
2093.69
2063.23
2028.88
1988.52
1938.53
1883.86
1823.25
1753.05
1675.61
1597.19
1522.81
1453.73
1391.52
1336.91
1291.62
1256.58
1230.45
1242.8
1188.98
1647.2
1420.16
1375.46
1350.7
1335.08
1322.53
1304.08
1276.29
1248.93
1219.36
1182.59
1136.48
1086.65
1041.31
998.816
958.509
921.367
888.143
860.34
840.41
833.668
863.992
815.265
1101.87
1017.18
985.724
955.239
934.75
920.245
908.73
902.383
901.144
898.356
889.101
873.372
855.027
838.431
821.052
802.282
783.034
764.528
748.305
738.225
742.071
768.594
713.446
1142.3
1172.91
1248.08
1358.55
1489.27
1534.12
1567.64
1623.09
1715.79
1895.02
2225.95
2688.05
3154.11
3572.83
3942.62
4013.21
4152.96
4832.37
5929.95
1080.18
1098.48
1154.25
1167.15
1186.27
1230.75
1304.39
1400.09
1483.15
1583.99
1788.27
2198.96
2748.65
3211.1
3647.99
3805.6
3704.19
4081.61
5082.98
1022.03
1012.54
1020.49
969.505
935.479
950.35
990.977
1053.94
1113.49
1157.3
1264.59
1563.32
2087.07
2623.31
3122.18
3536.73
3346
3542.46
4344.5
950.267
918.327
880.375
849.354
836.221
836.019
842.462
863.093
907.97
959.351
1027.03
1154.97
1447.37
1964.04
2500.63
3163.21
3083.03
3180.69
3668.78
834.738
814.84
787.956
782.677
775.458
777.425
786.602
806.6
842.829
888.832
945.17
1023.15
1156.35
1479.74
1955.09
2680.31
2857.04
2879.5
3047.33
732.883
730.156
722.793
717.521
712.107
715.438
726.801
748.364
783.959
829.948
887.583
961.4
1056.43
1251.4
1521.16
2125.77
2542.17
2497.73
2475.15
679.53
669.433
666.116
661.906
656.872
658.438
667.92
687.88
722.11
768.834
827.616
901.4
976.576
1078.69
1191.7
1620.92
2072.87
2022.29
1942.52
649.764
632.282
627.367
621.429
617.019
616.426
621.329
634.881
661.2
702.126
759.763
830.179
889.701
934.9
987.048
1279.31
1622.04
1541.55
1449.56
872.715
854.136
841.801
825.363
810.682
800.064
795.904
797.451
800.961
803.306
802.561
797.578
787.388
771.819
752.775
731.49
709.545
688.448
669.59
656.067
650.122
644.391
621.499
734.442
727.011
717.306
703.99
691.756
683.399
680.584
682.715
686.745
688.993
686.797
679.032
665.737
648.35
628.396
606.257
584.635
565.005
547.115
537.046
541.267
539.42
515.846
598.529
595.508
589.261
579.969
571.292
565.78
565.212
569.514
575.748
579.282
576.517
567.25
550.949
530.788
508.893
483.765
459.593
449.712
453.793
466.369
478.365
482.28
462.521
460.542
459.675
456.234
450.416
445.005
442.722
446.088
455.592
467.901
476.301
475.102
462.5
440.511
413.857
390.313
375.728
372.563
381.882
391.227
401.71
405.353
398.811
386.616
324.921
324.849
322.438
317.716
313.345
312.534
318.284
332.192
351.801
367.193
369.634
358.242
336.656
320.07
312.629
313.308
318.35
322.48
320.833
318.814
320.579
317.313
310.058
191.719
192.012
188.813
181.815
173.489
166.347
164.689
171.002
186.299
203.892
232.475
259.854
263.422
257.178
253.296
249.306
247.919
244.185
242.625
240.02
238.942
236.453
231.841
70.9884
71.3265
68.0222
60.2924
50.8294
41.8283
35.0889
32.6717
34.6954
44.6312
92.4292
146.103
175.04
179.503
176.99
175.009
172.441
167.067
162.395
157.751
155.479
154.473
152.002
11.5426
11.5911
10.369
8.10871
6.1467
5.24232
5.51828
6.07972
7.11362
10.2233
15.7962
29.2281
74.9968
104.902
108.427
104.049
97.4076
89.3094
81.0589
73.0168
69.8764
72.056
71.7404
4.48941
4.34975
4.40814
4.563
4.686
4.71577
4.74316
4.81576
4.99107
5.40413
5.6107
6.9924
29.6757
45.4233
46.6501
40.1618
31.9836
25.346
20.0895
14.6049
13.6238
17.417
19.1928
4.37522
4.35504
4.35387
4.37983
4.42895
4.51055
4.59506
4.69931
4.78525
4.70997
4.29538
4.35342
5.56477
8.01088
9.42805
7.35626
4.929
3.57908
3.16561
3.15259
3.29539
3.461
3.42342
4.24033
4.22124
4.21854
4.23583
4.27559
4.33661
4.40847
4.48236
4.51893
4.40802
4.02425
3.72664
3.79228
3.74462
3.33092
2.93241
2.86973
2.98412
3.12583
3.25182
3.34064
3.40041
3.42989
4.10707
4.09341
4.08993
4.10177
4.1267
4.16207
4.19712
4.21878
4.19422
4.07625
3.81311
3.5445
3.35133
3.07996
2.99812
2.97731
3.01902
3.0813
3.13022
3.16672
3.21106
3.24994
3.28695
3.96911
3.96024
3.95571
3.9605
3.97301
3.98867
3.99851
3.98831
3.93425
3.81534
3.62631
3.4298
3.26917
3.07947
2.98683
2.95358
2.95905
2.98358
3.01559
3.05639
3.09727
3.13118
3.16144
3.82267
3.81673
3.81163
3.81135
3.81535
3.81952
3.81587
3.79257
3.73412
3.63092
3.4847
3.33209
3.20106
3.06644
2.97666
2.92462
2.90784
2.91394
2.93305
2.96282
2.99658
3.02688
3.05217
3.67231
3.66851
3.66372
3.66051
3.65874
3.65524
3.64378
3.61582
3.56304
3.47869
3.36311
3.23744
3.12312
3.01777
2.93855
2.88612
2.86066
2.85706
2.86251
2.87431
2.89708
2.92315
2.94485
3.52131
3.51898
3.51479
3.51001
3.50445
3.4959
3.48014
3.45189
3.40597
3.33726
3.24627
3.14468
3.04697
2.95818
2.88821
2.83855
2.80886
2.79625
2.79223
2.79208
2.80152
2.81869
2.83714
3.37111
3.36981
3.36623
3.36078
3.35311
3.34182
3.32431
3.2973
3.25715
3.20093
3.12918
3.04836
2.96764
2.89293
2.83074
2.78332
2.75059
2.7308
2.71995
2.7136
2.71303
2.72052
2.73418
3.22254
3.22192
3.21898
3.2135
3.20504
3.19268
3.17485
3.14949
3.1144
3.06805
3.01088
2.94658
2.88086
2.81853
2.76407
2.71981
2.68623
2.66248
2.64658
2.63626
2.63119
2.63277
2.64001
3.07601
3.07591
3.07358
3.06846
3.06004
3.04767
3.03039
3.00702
2.97639
2.93777
2.89157
2.83999
2.78659
2.73487
2.68796
2.6479
2.61548
2.59055
2.57216
2.55922
2.55139
2.5489
2.55087
2.93169
2.93197
2.93022
2.92566
2.91776
2.90605
2.88993
2.86877
2.84205
2.80955
2.77168
2.72986
2.68633
2.6435
2.60359
2.56822
2.53826
2.5139
2.49483
2.48056
2.47081
2.46543
2.46384
2.78956
2.79014
2.78892
2.78498
2.77786
2.76719
2.75258
2.73373
2.71049
2.68292
2.65151
2.61722
2.58152
2.54606
2.51238
2.48172
2.45485
2.43212
2.41355
2.39897
2.38821
2.38109
2.37732
2.64951
2.65032
2.64955
2.64626
2.64001
2.63056
2.61763
2.60108
2.58094
2.55747
2.53115
2.50274
2.47326
2.44384
2.41555
2.38929
2.36573
2.34521
2.3279
2.31379
2.30283
2.29493
2.28995
2.51139
2.51236
2.51198
2.5093
2.50393
2.49571
2.48447
2.47013
2.4528
2.4328
2.4106
2.38686
2.36233
2.33782
2.31409
2.29179
2.27144
2.25335
2.23773
2.22462
2.21407
2.20606
2.20059
2.37502
2.37609
2.37603
2.37389
2.36935
2.36232
2.35267
2.34039
2.32558
2.30857
2.2898
2.26983
2.24927
2.22875
2.20881
2.18995
2.17254
2.15685
2.14306
2.13125
2.12149
2.11382
2.10831
2.2402
2.24133
2.24152
2.23986
2.23607
2.23011
2.22192
2.21149
2.19894
2.18452
2.16864
2.15178
2.13446
2.11718
2.10038
2.08442
2.0696
2.05612
2.04413
2.03371
2.02493
2.01787
2.01263
2.10677
2.10792
2.10829
2.10703
2.10389
2.09889
2.09199
2.0832
2.07262
2.06046
2.04705
2.03281
2.01817
2.00356
1.98933
1.9758
1.96318
1.95165
1.94131
1.93224
1.92449
1.91816
1.91336
1.97455
1.97569
1.97619
1.97525
1.97268
1.9685
1.96272
1.95536
1.94649
1.93628
1.92501
1.91299
1.90061
1.88822
1.87613
1.86461
1.85385
1.84398
1.8351
1.82725
1.82049
1.81491
1.81063
1.8434
1.8445
1.84508
1.8444
1.8423
1.83882
1.834
1.82785
1.82045
1.81192
1.80248
1.79239
1.78194
1.77143
1.76115
1.75131
1.7421
1.73364
1.72601
1.71924
1.71338
1.70851
1.70474
1.71318
1.71421
1.71483
1.71435
1.71265
1.70977
1.70575
1.70063
1.69447
1.68737
1.6795
1.67106
1.66227
1.6534
1.64466
1.63627
1.62839
1.62112
1.61455
1.60872
1.60365
1.59943
1.59614
1.58375
1.58472
1.58534
1.58502
1.58364
1.58125
1.57791
1.57365
1.56853
1.56265
1.55611
1.54908
1.54174
1.53428
1.5269
1.51977
1.51303
1.50681
1.50116
1.49614
1.49177
1.48813
1.48529
1.45502
1.45591
1.45651
1.4563
1.45518
1.45321
1.45043
1.44689
1.44265
1.43777
1.43237
1.42654
1.42044
1.41422
1.40803
1.40201
1.3963
1.391
1.38617
1.38187
1.37812
1.375
1.37256
1.32687
1.32768
1.32825
1.32812
1.32721
1.32558
1.32327
1.32034
1.31682
1.31279
1.30833
1.30353
1.29849
1.29334
1.28819
1.28317
1.27838
1.27391
1.26983
1.26617
1.26298
1.26032
1.25823
1.19923
1.19995
1.20047
1.20039
1.19966
1.19831
1.1964
1.19397
1.19106
1.18773
1.18406
1.18012
1.17599
1.17176
1.16753
1.16338
1.15941
1.1557
1.15229
1.14924
1.14656
1.14432
1.14257
1.07201
1.07265
1.07311
1.07306
1.07246
1.07135
1.06977
1.06776
1.06536
1.06263
1.05962
1.05639
1.05303
1.04959
1.04614
1.04277
1.03954
1.0365
1.03372
1.03121
1.02901
1.02717
1.02572
0.945139
0.945702
0.94609
0.946054
0.94556
0.944646
0.943345
0.94169
0.939722
0.937487
0.935034
0.932418
0.929696
0.926924
0.924158
0.921456
0.918868
0.916443
0.914218
0.912217
0.91046
0.90898
0.907817
0.81856
0.819039
0.819351
0.819315
0.818906
0.818156
0.817091
0.81574
0.814138
0.812325
0.810345
0.808243
0.806066
0.803862
0.801675
0.799549
0.797525
0.795638
0.793916
0.792372
0.79102
0.789878
0.788969
0.692215
0.692607
0.692838
0.692791
0.69245
0.691837
0.690974
0.689884
0.688597
0.687148
0.685572
0.683909
0.682198
0.680478
0.678785
0.677155
0.675618
0.674203
0.672927
0.671797
0.670816
0.669993
0.669333
0.56606
0.566355
0.566501
0.566439
0.566153
0.565657
0.564968
0.564105
0.563093
0.56196
0.560737
0.559454
0.558145
0.556842
0.555573
0.554369
0.553254
0.55225
0.551369
0.550613
0.549978
0.54946
0.54904
0.440057
0.440242
0.440306
0.440227
0.439987
0.439592
0.439057
0.438395
0.437627
0.436775
0.435862
0.434914
0.433956
0.433014
0.432113
0.431276
0.430526
0.429881
0.429351
0.428936
0.428626
0.428419
0.428277
0.314177
0.314234
0.314219
0.314122
0.313919
0.313612
0.313211
0.312728
0.312176
0.311573
0.310936
0.310283
0.309633
0.309007
0.308425
0.307908
0.307477
0.307151
0.306945
0.306864
0.306912
0.307115
0.307369
0.188409
0.188308
0.188208
0.188078
0.187887
0.187639
0.187343
0.187007
0.18664
0.186253
0.185855
0.185459
0.185079
0.18473
0.184429
0.184196
0.184055
0.184035
0.184168
0.184483
0.18505
0.186053
0.18728
0.0627553
0.062572
0.0624308
0.062288
0.0621284
0.0619578
0.0617813
0.0616019
0.0614227
0.0612469
0.0610785
0.0609228
0.0607863
0.0606778
0.0606092
0.0605962
0.0606613
0.0608363
0.0611644
0.0617004
0.0625846
0.0643953
0.0681826
669.945
672.475
660.18
645.507
517.401
521.676
531.708
532.314
451.465
448.162
446.91
445.015
379.893
376.425
373.554
371.477
305.17
302.418
300.175
298.904
228.474
226.848
225.754
225.557
150.241
150.184
150.779
151.779
66.7839
67.4157
72.5911
77.3663
13.4381
13.4236
19.7581
24.1225
3.36738
3.39131
3.53333
3.70872
3.44573
3.44875
3.45628
3.48073
3.31624
3.33807
3.35944
3.37592
3.18795
3.2069
3.22457
3.23652
3.07298
3.0872
3.09983
3.1083
2.96004
2.97025
2.98
2.98739
2.84936
2.85725
2.86497
2.87182
2.74488
2.75154
2.7577
2.76365
2.64792
2.65366
2.65843
2.66297
2.5556
2.55985
2.56357
2.56697
2.46611
2.46878
2.47125
2.47375
2.37774
2.37906
2.3804
2.38194
2.28899
2.28921
2.28963
2.29032
2.19863
2.198
2.19778
2.19782
2.10572
2.10449
2.10384
2.10346
2.00969
2.00809
2.0072
2.00655
1.91033
1.90855
1.90752
1.90675
1.80766
1.80586
1.80481
1.804
1.70195
1.70022
1.69922
1.69845
1.59361
1.59203
1.59113
1.59042
1.48306
1.48167
1.48087
1.48025
1.37065
1.36946
1.36879
1.36824
1.25662
1.25563
1.25505
1.25458
1.14123
1.14043
1.13995
1.13952
1.02465
1.02399
1.02357
1.02319
0.906963
0.906434
0.90607
0.905751
0.78829
0.787857
0.787553
0.787311
0.668782
0.668428
0.668194
0.668003
0.548612
0.548321
0.548106
0.547935
0.427923
0.427651
0.427428
0.427227
0.306952
0.306567
0.306226
0.305944
0.186484
0.185311
0.184476
0.184023
0.0686652
0.0661159
0.0640095
0.0627319
607.639
583.05
572.367
566.988
564.846
564.564
567.422
576.374
593.694
619.365
656.113
709.426
750.424
774.244
855.92
1008.89
1076.26
934.824
779.217
519.869
505.181
498.036
495.729
495.172
495.991
499.083
505.976
517.021
530.16
542.998
560.37
577.761
577.676
613.551
660.296
560.26
419.527
279.592
439.701
432.336
428.549
427.33
427.449
428.79
431.801
437.01
444.461
452.387
456.465
451.054
440.2
423.219
403.164
359.935
260.337
210.331
219.05
367.793
362.976
360.734
360.392
361.222
363.044
365.959
370.016
375.021
379.295
379.333
369.796
346.022
313.44
275.32
230.023
181.756
172.849
186.668
296.869
294.022
293.267
294.094
295.911
298.442
301.585
305.175
308.745
311.002
309.258
299.701
278.565
244.923
206.554
169.387
144.53
136.375
151.447
225.243
224.487
225.456
227.744
230.804
234.275
237.928
241.516
244.563
246.089
244.165
236.293
219.775
195.518
164.959
134.633
111.444
98.8935
111.97
152.817
153.798
156.472
160.217
164.459
168.799
172.972
176.745
179.713
181.14
179.879
174.451
163.736
145.761
123.578
99.748
77.5969
63.9063
71.2845
80.917
82.8299
86.5953
91.1697
95.7487
100.055
104.002
107.517
110.315
111.789
111.083
107.396
100.711
90.8535
78.5988
63.7749
49.272
40.3625
45.9969
24.37
24.8376
27.7787
31.0809
34.1796
36.8319
39.1328
41.2627
43.1429
44.3576
44.2272
42.2565
39.6135
36.858
34.0784
31.4352
28.203
27.5847
30.9308
3.65291
3.85089
4.91846
6.15422
7.41851
8.45311
9.2079
9.8294
10.4035
10.878
11.0257
10.5186
10.3065
10.3918
10.1006
10.127
11.3083
13.5038
16.1372
3.50504
3.53445
3.54771
3.54258
3.51987
3.49292
3.46606
3.44151
3.42251
3.41985
3.42848
3.46337
3.55917
3.7826
4.17249
4.44612
4.43116
4.27731
3.88884
3.39151
3.42934
3.47558
3.52671
3.57406
3.61879
3.661
3.7014
3.74165
3.78451
3.8305
3.88014
3.9414
4.06327
4.22832
4.27502
4.19488
4.08809
4.00375
3.26112
3.28609
3.32296
3.35757
3.39332
3.42836
3.46227
3.49531
3.52846
3.56307
3.60029
3.63954
3.68383
3.74581
3.81804
3.87651
3.87522
3.8606
3.80849
3.12361
3.15157
3.178
3.20736
3.23862
3.27023
3.30158
3.33265
3.36397
3.39624
3.4297
3.46495
3.50057
3.52447
3.53954
3.58018
3.63578
3.66863
3.64344
3.00095
3.0244
3.04963
3.07756
3.10753
3.13839
3.16937
3.20017
3.23089
3.26164
3.29243
3.32302
3.35297
3.37815
3.40808
3.44405
3.47997
3.49518
3.48339
2.88486
2.90647
2.93002
2.9561
2.98432
3.01384
3.04381
3.07368
3.10326
3.13238
3.16061
3.18773
3.21354
3.23857
3.26397
3.29285
3.3176
3.32892
3.32648
2.77504
2.79333
2.8145
2.83837
2.86444
2.89205
2.92037
2.94873
2.97676
3.00411
3.03029
3.05493
3.0782
3.10036
3.12275
3.14529
3.16468
3.17498
3.17928
2.67155
2.68594
2.70433
2.72562
2.74915
2.77432
2.80041
2.82681
2.85304
2.87858
2.90292
2.92572
2.94702
2.96722
2.98688
3.00598
3.02249
3.03349
3.04301
2.57309
2.58424
2.59971
2.61811
2.63877
2.66118
2.68474
2.7089
2.73307
2.75669
2.77929
2.80052
2.82035
2.83901
2.85687
2.8739
2.88941
2.90219
2.91666
2.47798
2.4864
2.49913
2.51471
2.53254
2.55222
2.5732
2.59494
2.61689
2.63853
2.65941
2.67919
2.69777
2.7153
2.73201
2.74807
2.76375
2.77924
2.7981
2.38462
2.39091
2.40119
2.41416
2.42933
2.44636
2.4648
2.48414
2.50389
2.52356
2.54276
2.56116
2.57866
2.59533
2.61139
2.62719
2.64369
2.66207
2.68477
2.29175
2.29642
2.30456
2.31519
2.32793
2.34252
2.35855
2.37561
2.39323
2.41102
2.42861
2.44572
2.46223
2.47821
2.49388
2.50975
2.52729
2.54829
2.57407
2.19829
2.20168
2.208
2.21659
2.22719
2.23959
2.25344
2.26839
2.28406
2.30008
2.31615
2.33203
2.34763
2.363
2.37839
2.3944
2.41284
2.43588
2.46382
2.10326
2.10562
2.11044
2.11733
2.12611
2.1366
2.14854
2.16161
2.1755
2.18991
2.20458
2.21932
2.23404
2.2488
2.26387
2.27991
2.29892
2.32328
2.35237
2.00593
2.00755
2.01116
2.01665
2.02391
2.0328
2.04308
2.05452
2.06684
2.0798
2.09318
2.10683
2.12068
2.13481
2.14945
2.16531
2.18445
2.20932
2.2386
1.90594
1.90703
1.9097
1.91407
1.9201
1.92765
1.93654
1.94656
1.9575
1.96916
1.98137
1.99398
2.00696
2.02036
2.03443
2.04985
2.06866
2.09325
2.12183
1.80314
1.80389
1.80585
1.80935
1.81439
1.82085
1.82856
1.83737
1.8471
1.85759
1.8687
1.88031
1.89239
1.90499
1.91833
1.93306
1.95111
1.97474
2.00186
1.69765
1.69818
1.69963
1.70248
1.70673
1.71228
1.719
1.72675
1.73541
1.74483
1.7549
1.76552
1.77667
1.78838
1.80085
1.81466
1.8316
1.8537
1.87876
1.58971
1.59009
1.59119
1.59355
1.59717
1.60196
1.60782
1.61464
1.62232
1.63074
1.63981
1.64945
1.65963
1.67037
1.68185
1.69456
1.71011
1.73025
1.75282
1.47962
1.47988
1.48075
1.48273
1.48584
1.48998
1.49508
1.50106
1.50783
1.51531
1.52341
1.53206
1.54123
1.55094
1.56133
1.57283
1.5868
1.6047
1.62451
1.36765
1.36782
1.36854
1.37023
1.3729
1.37647
1.38089
1.38609
1.39201
1.39857
1.40571
1.41337
1.42152
1.43017
1.43942
1.44964
1.46194
1.47748
1.49441
1.25406
1.25418
1.2548
1.25624
1.25852
1.26157
1.26536
1.26983
1.27494
1.28062
1.28683
1.29351
1.30063
1.3082
1.31631
1.32524
1.33587
1.34905
1.36314
1.13903
1.13914
1.13969
1.14092
1.14285
1.14543
1.14863
1.15241
1.15675
1.16159
1.16689
1.17261
1.17871
1.18522
1.1922
1.19988
1.20892
1.21988
1.23128
1.02278
1.02289
1.02337
1.02441
1.02601
1.02815
1.0308
1.03394
1.03755
1.04159
1.04602
1.05082
1.05595
1.06144
1.06733
1.07382
1.0814
1.09034
1.09931
0.90542
0.905528
0.905945
0.906804
0.908106
0.909834
0.911974
0.914515
0.917439
0.920726
0.92435
0.928283
0.932505
0.937024
0.941899
0.947291
0.953553
0.960717
0.9676
0.787063
0.78716
0.787509
0.788191
0.789208
0.790552
0.792218
0.794202
0.796498
0.799094
0.801974
0.805114
0.808496
0.812126
0.816061
0.820443
0.825525
0.831143
0.836378
0.667795
0.66787
0.668132
0.668633
0.669375
0.670357
0.671582
0.673054
0.674776
0.676746
0.678953
0.681378
0.684005
0.686834
0.689914
0.693367
0.697365
0.70162
0.70573
0.547732
0.54774
0.547886
0.548191
0.54866
0.549297
0.55011
0.551112
0.552313
0.553718
0.555322
0.557112
0.559069
0.561187
0.563497
0.566088
0.569064
0.572075
0.575631
0.426954
0.426848
0.426841
0.426932
0.427126
0.42743
0.427859
0.428429
0.429157
0.430053
0.431118
0.432342
0.433709
0.435202
0.436828
0.438633
0.440637
0.442437
0.445841
0.305551
0.305272
0.305079
0.304944
0.304864
0.304851
0.304922
0.305097
0.305395
0.30583
0.306408
0.307126
0.307971
0.308922
0.309966
0.311063
0.312025
0.312399
0.315838
0.18356
0.183086
0.182694
0.182335
0.181997
0.181688
0.181428
0.181238
0.18114
0.18115
0.181278
0.181525
0.181887
0.182348
0.182881
0.183283
0.182614
0.180151
0.185885
0.0614576
0.0606015
0.0599788
0.0593867
0.0587867
0.0581839
0.0575967
0.0570458
0.0565491
0.0561198
0.0557656
0.0554897
0.0552878
0.0551403
0.0549934
0.0545397
0.0518418
0.0427313
0.0619241
)
;

boundaryField
{
    leftWall
    {
        type            calculated;
        value           nonuniform List<scalar> 
50
(
6703.36
5933.2
5146.54
4333.79
3481.35
2569.98
1647.2
1101.87
872.715
734.442
598.529
460.542
324.921
191.719
70.9884
11.5426
4.48941
4.37522
4.24033
4.10707
3.96911
3.82267
3.67231
3.52131
3.37111
3.22254
3.07601
2.93169
2.78956
2.64951
2.51139
2.37502
2.2402
2.10677
1.97455
1.8434
1.71318
1.58375
1.45502
1.32687
1.19923
1.07201
0.945139
0.81856
0.692215
0.56606
0.440057
0.314177
0.188409
0.0627553
)
;
    }
    rightWall
    {
        type            calculated;
        value           nonuniform List<scalar> 
50
(
5929.95
5082.98
4344.5
3668.78
3047.33
2475.15
1942.52
1449.56
779.217
279.592
219.05
186.668
151.447
111.97
71.2845
45.9969
30.9308
16.1372
3.88884
4.00375
3.80849
3.64344
3.48339
3.32648
3.17928
3.04301
2.91666
2.7981
2.68477
2.57407
2.46382
2.35237
2.2386
2.12183
2.00186
1.87876
1.75282
1.62451
1.49441
1.36314
1.23128
1.09931
0.9676
0.836378
0.70573
0.575631
0.445841
0.315838
0.185885
0.0619241
)
;
    }
    lowerWall
    {
        type            calculated;
        value           nonuniform List<scalar> 
62
(
7101.51
6916.8
6755.58
6618.62
6519.35
6455.36
6416.44
6391.46
6370.99
6347.77
6316.74
6275.38
6224.33
6166.32
6104.1
6038.72
5969.48
5894.84
5813.63
5726.83
5638.06
5567.27
5525.42
5127.48
4326.78
3522.85
2714.54
1905.43
1188.98
815.265
713.446
812.593
806.844
713.394
675.03
1142.3
1080.18
1022.03
950.267
834.738
732.883
679.53
649.764
1171.8
1201
1276.09
1410.79
1572.74
1614.29
1627.24
1668.14
1760.79
1955.82
2390.71
2906.65
3308.78
3698.84
4052.22
4113.02
4318.58
5100.57
6199.78
)
;
    }
    atmosphere
    {
        type            calculated;
        value           nonuniform List<scalar> 
46
(
0
0
0
0
0
0
0
0
0
0
0
0
0
0
0
0
0
0
0
0
0
0
0
-2.31342e-05
-6.31266e-05
-0.000133757
-0.000235968
-0.000473362
-0.000930737
-0.0015066
-0.00217176
-0.00289624
-0.0036504
-0.00440755
-0.00514671
-0.00585439
-0.00652443
-0.00715578
-0.00774895
-0.00830327
-0.00881794
-0.00929921
-0.00977542
-0.0103207
-0.011111
-0.00423321
)
;
    }
    defaultFaces
    {
        type            empty;
    }
}


// ************************************************************************* //
