/*--------------------------------*- C++ -*----------------------------------*\
  =========                 |
  \\      /  F ield         | OpenFOAM: The Open Source CFD Toolbox
   \\    /   O peration     | Website:  https://openfoam.org
    \\  /    A nd           | Version:  13
     \\/     M anipulation  |
\*---------------------------------------------------------------------------*/
FoamFile
{
    format      ascii;
    class       volScalarField;
    location    "0.9";
    object      p_rgh;
}
// * * * * * * * * * * * * * * * * * * * * * * * * * * * * * * * * * * * * * //

dimensions      [1 -1 -2 0 0 0 0];

internalField   nonuniform List<scalar> 
2268
(
7101.51
6916.8
6755.58
6618.62
6519.35
6455.36
6416.44
6391.46
6370.99
6347.77
6316.74
6275.38
6224.33
6166.32
6104.1
6038.72
5969.48
5894.84
5813.63
5726.83
5638.06
5567.27
5525.42
7127.65
6940.66
6776.51
6636.41
6532.68
6463.19
6417.27
6383.98
6354.23
6321.31
6280.92
6231.25
6173.16
6109.17
6042.04
5972.85
5901.41
5827.27
5750.61
5673.69
5600.4
5550.66
5520.64
7137.29
6940.34
6775.88
6638.68
6535.75
6464.79
6414.42
6374.09
6335.62
6293.42
6244.07
6186.26
6121.04
6051.1
5979.63
5907.84
5836.07
5764.8
5695.42
5631.04
5574.31
5542.15
5513.58
7120.84
6902.62
6744.59
6619.19
6525.05
6459.05
6408.93
6365.1
6320.55
6271.43
6215.26
6150.77
6079.28
6003.97
5929.14
5855.98
5785.25
5717.94
5656.08
5602.68
5557.97
5536.65
5501.59
7064.7
6817.63
6680.63
6579.39
6504.09
6450.53
6405.27
6361.13
6312.38
6258.37
6197.5
6127.87
6051.07
5971.3
5893.95
5820.15
5750.99
5687.66
5632.33
5587.03
5549.32
5538.75
5488.71
6949.63
6666.97
6573.05
6515.26
6473.34
6442.88
6408.52
6368.17
6318.17
6263.51
6202.9
6132.69
6055.26
5971.99
5876.74
5767.37
5644.9
5512.36
5377.73
5242.77
5103.28
4978.93
4793.72
6109.83
4896.88
4928.66
5191.9
5417.67
5630.54
5725.42
5635.34
5403.84
5159.55
4927.22
4651.4
4313
3898.83
3494.16
3115.22
2777.06
2483.12
2240.42
2035.91
1859.45
1743.83
1609.71
2105.19
1543.96
1543.81
1625.63
1735.03
1794.08
1741.21
1687.41
1698.95
1687.26
1600.76
1451.35
1310.47
1279.87
1262.49
1243.72
1224.47
1205.97
1189.74
1179.66
1183.51
1211.52
1355.79
1171.8
1201
1276.09
1410.79
1572.74
1614.29
1627.24
1668.14
1760.79
1955.82
2390.71
2906.65
3308.78
3698.84
4052.22
4113.02
4318.58
5100.57
6199.78
1166.26
1182.58
1281.94
1463.2
1698.72
1758.12
1828.04
1907.34
2042.49
2373.78
2828.73
3240.84
3744.72
4154.31
4360.31
4110.6
4106.56
4887.82
5899.37
1149.2
1305.74
1432.86
1388.94
1280.65
1365.41
1580.16
1851.54
1911.13
1862.24
2041.96
2783.04
3807.27
4367.53
4861.1
4179.91
3855.78
4395.91
5711.86
1205.43
1394.26
1345.27
1082.62
1042.91
1042.63
1049.06
1070.51
1126.68
1166.86
1233.39
1495.85
2609.8
3946.89
4903.83
4587.09
3620.81
3842.51
5604.48
1349.69
1234.63
1052.63
1047.43
1040.35
1042.23
1051.41
1071.49
1107.9
1153.87
1210.47
1287.91
1421.58
2165.91
4284.66
5260.89
3567
3738
5539.75
1092.68
1040.63
1032.27
1029.95
1030.21
1037.46
1050.23
1072.01
1107.63
1153.66
1211.4
1284.95
1379.93
1818.27
4388.67
5325.78
4088.52
4548.18
5522.73
910.378
908.333
909.936
925.423
930.629
955.863
997.245
1048.99
1104.26
1151.35
1210.14
1283.94
1358.95
2064.8
4034.52
4338.12
4102.77
5423.7
5549.98
834.336
777.974
794.334
826.559
828.652
832.497
857.58
910.491
1003.23
1124.21
1201.12
1271.68
1347.55
2017.05
2260.34
2922.24
3121.5
5364.96
5611.58
1406.18
1387.6
1375.27
1358.83
1344.15
1333.53
1329.37
1330.92
1334.43
1336.77
1336.03
1331.05
1320.85
1305.29
1286.24
1264.96
1243.01
1221.91
1203.06
1189.53
1183.6
1192.75
1707.11
1393.1
1385.67
1375.97
1362.65
1350.42
1342.06
1339.25
1341.38
1345.41
1347.65
1345.46
1337.69
1324.4
1307.01
1287.06
1264.92
1243.3
1223.67
1205.75
1189.55
1088.65
789.4
687.961
1382.39
1379.36
1373.12
1363.83
1355.15
1349.64
1349.07
1353.37
1359.6
1363.14
1360.37
1351.11
1334.81
1314.64
1292.75
1267.62
1242.16
1218.8
1071.31
818.974
698.878
810.834
854.449
1369.59
1368.73
1365.28
1359.47
1354.06
1351.77
1355.14
1364.64
1376.95
1385.35
1384.15
1371.55
1349.56
1322.91
1299.36
1260.43
910.024
675.679
609.685
831.697
859.925
853.337
841.141
1359.17
1359.09
1356.68
1351.96
1347.59
1346.78
1352.53
1366.44
1386.05
1401.44
1403.88
1392.49
1358.85
1154.83
837.64
731.243
639.329
836.018
833.158
832.373
837.691
834.435
827.18
1351.16
1351.45
1348.25
1341.26
1332.93
1325.79
1287.03
1221.6
1180.16
1153.7
1123.44
973.639
790.735
675.008
741.956
816.774
804.148
821.864
822.345
819.74
818.66
816.172
811.509
1171.27
1191.91
1147.03
1030.86
852.89
625.738
423.468
299.643
227.773
191.804
208.82
304.216
772.253
825.608
811.802
817.325
814.756
809.382
804.709
800.068
797.796
796.791
794.315
170.096
187.347
152.943
85.4851
30.1388
7.17252
6.92811
7.48955
8.52345
11.6455
19.5262
460.931
781.216
811.081
813.378
808.969
802.328
794.226
785.974
777.931
770.714
772.369
776.655
6.02444
5.88478
5.94367
6.09866
6.22148
6.25082
6.2782
6.35079
6.52609
6.93915
7.20718
50.7767
332.12
733.382
814.12
804.456
741.748
673.064
591.24
433.447
343.785
408.93
493.029
6.03548
6.01529
6.0141
6.04005
6.08917
6.17079
6.2553
6.35953
6.44547
6.3702
5.95572
6.01469
7.22764
59.233
131.182
128.597
85.8612
41.2604
18.2339
6.57182
4.95579
5.1215
5.08371
6.02579
6.00668
6.00397
6.02125
6.061
6.12203
6.19389
6.26778
6.30435
6.19345
5.80968
5.51207
5.57778
5.53101
5.11699
4.71796
4.65516
4.76962
4.91155
5.03758
5.12639
5.18617
5.21541
6.01771
6.00404
6.00055
6.01237
6.03731
6.07268
6.10773
6.12939
6.10484
5.98688
5.72374
5.45513
5.26195
4.99057
4.90874
4.88793
4.92964
4.99193
5.0409
5.07769
5.12296
5.16214
5.19799
6.00493
5.99604
5.99151
5.9963
6.00881
6.02447
6.03431
6.02411
5.97006
5.85116
5.66213
5.46564
5.30503
5.11534
5.02269
4.98952
4.99766
5.02543
5.05471
5.09328
5.13486
5.17073
5.20074
5.98367
5.97773
5.97263
5.97234
5.97634
5.98052
5.97687
5.95357
5.89512
5.79192
5.64572
5.49312
5.36214
5.22757
5.13798
5.08634
5.07084
5.07643
5.22764
5.38047
5.23435
5.19162
5.22238
5.95851
5.9547
5.94991
5.9467
5.94493
5.94143
5.92998
5.90201
5.84923
5.76488
5.64931
5.52366
5.40937
5.30406
5.22504
5.17296
5.14838
5.14332
5.23157
5.43225
5.4548
5.3223
5.23775
5.9327
5.93037
5.92617
5.92139
5.91583
5.90729
5.89152
5.86328
5.81735
5.74865
5.65766
5.55607
5.45838
5.36963
5.29978
5.25022
5.22059
5.2077
5.20368
5.36491
5.49954
5.42392
5.25663
5.90769
5.90639
5.90281
5.89736
5.88969
5.87839
5.86089
5.83388
5.79373
5.73751
5.66576
5.58495
5.50424
5.42954
5.36735
5.3199
5.28717
5.2674
5.25655
5.25231
5.33422
5.31499
5.27923
5.88432
5.8837
5.88075
5.87527
5.86682
5.85446
5.83662
5.81126
5.77618
5.72982
5.67265
5.60835
5.54264
5.48031
5.42585
5.38159
5.34801
5.32427
5.30837
5.29806
5.29298
5.29456
5.30233
5.86298
5.86287
5.86055
5.85543
5.84701
5.83464
5.81736
5.79399
5.76336
5.72474
5.67854
5.62696
5.57356
5.52184
5.47493
5.43487
5.40246
5.37753
5.35914
5.34621
5.33838
5.33589
5.33788
5.84385
5.84413
5.84239
5.83782
5.82993
5.81821
5.80209
5.78093
5.75421
5.72171
5.68385
5.64203
5.5985
5.55567
5.51576
5.48039
5.45043
5.42607
5.40701
5.39274
5.383
5.37763
5.37603
5.82692
5.8275
5.82627
5.82234
5.81522
5.80455
5.78994
5.77109
5.74784
5.72028
5.68886
5.65458
5.61888
5.58342
5.54974
5.51908
5.49221
5.46949
5.45092
5.43634
5.42558
5.41847
5.4147
5.81206
5.81287
5.8121
5.80881
5.80257
5.79311
5.78018
5.76363
5.74349
5.72002
5.6937
5.6653
5.63582
5.60639
5.5781
5.55185
5.52828
5.50777
5.49046
5.47635
5.4654
5.4575
5.45252
5.79914
5.8001
5.79973
5.79704
5.79168
5.78346
5.77221
5.75787
5.74055
5.72054
5.69835
5.67461
5.65008
5.62557
5.60183
5.57954
5.55919
5.5411
5.52547
5.51237
5.50182
5.49381
5.48834
5.78796
5.78903
5.78897
5.78683
5.78229
5.77526
5.76561
5.75333
5.73852
5.72151
5.70274
5.68277
5.66221
5.64169
5.62175
5.60289
5.58548
5.5698
5.556
5.54419
5.53443
5.52677
5.52126
5.77834
5.77946
5.77966
5.77799
5.7742
5.76825
5.76006
5.74963
5.73707
5.72265
5.70677
5.68992
5.6726
5.65532
5.63851
5.62256
5.60773
5.59426
5.58227
5.57185
5.56306
5.556
5.55077
5.7701
5.77125
5.77162
5.77036
5.76722
5.76222
5.75532
5.74653
5.73595
5.72379
5.71038
5.69614
5.6815
5.66689
5.65266
5.63913
5.62651
5.61498
5.60464
5.59557
5.58782
5.58149
5.5767
5.76308
5.76421
5.76472
5.76378
5.7612
5.75702
5.75125
5.74388
5.73501
5.72481
5.71353
5.70152
5.68914
5.67675
5.66466
5.65314
5.64237
5.6325
5.62362
5.61578
5.60901
5.60344
5.59915
5.75712
5.75822
5.7588
5.75812
5.75602
5.75254
5.74772
5.74157
5.73417
5.72564
5.7162
5.70611
5.69565
5.68515
5.67487
5.66503
5.65582
5.64736
5.63973
5.63296
5.6271
5.62223
5.61846
5.75209
5.75313
5.75374
5.75327
5.75156
5.74868
5.74466
5.73954
5.73338
5.72629
5.71842
5.70997
5.70119
5.69231
5.68358
5.67518
5.6673
5.66004
5.65347
5.64763
5.64256
5.63835
5.63506
5.74786
5.74883
5.74945
5.74913
5.74774
5.74536
5.74201
5.73776
5.73264
5.72675
5.72022
5.71319
5.70585
5.69839
5.691
5.68387
5.67714
5.67092
5.66527
5.66025
5.65588
5.65224
5.6494
5.74432
5.74521
5.74581
5.7456
5.74448
5.74251
5.73973
5.73619
5.73195
5.72708
5.72167
5.71584
5.70974
5.70352
5.69733
5.69131
5.6856
5.6803
5.67548
5.67117
5.66742
5.6643
5.66186
5.74137
5.74218
5.74275
5.74261
5.74171
5.74008
5.73777
5.73483
5.73132
5.72729
5.72283
5.71802
5.71299
5.70784
5.70269
5.69767
5.69288
5.6884
5.68432
5.68067
5.67748
5.67482
5.67273
5.73892
5.73965
5.74016
5.74009
5.73935
5.738
5.73609
5.73366
5.73075
5.72743
5.72375
5.71981
5.71568
5.71145
5.70722
5.70307
5.69911
5.69539
5.69199
5.68893
5.68625
5.68401
5.68226
5.7369
5.73754
5.738
5.73795
5.73734
5.73624
5.73466
5.73264
5.73025
5.72751
5.7245
5.72128
5.71791
5.71447
5.71103
5.70766
5.70442
5.70139
5.6986
5.6961
5.6939
5.69205
5.6906
5.73522
5.73578
5.73617
5.73613
5.73564
5.73473
5.73343
5.73177
5.7298
5.72757
5.72512
5.7225
5.71978
5.717
5.71424
5.71154
5.70895
5.70652
5.7043
5.7023
5.70054
5.69906
5.6979
5.73384
5.73431
5.73463
5.73459
5.73418
5.73343
5.73237
5.73102
5.72941
5.7276
5.72562
5.72352
5.72134
5.71914
5.71695
5.71482
5.7128
5.71091
5.70919
5.70765
5.7063
5.70515
5.70424
5.73269
5.73308
5.73331
5.73326
5.73292
5.73231
5.73144
5.73035
5.72907
5.72762
5.72604
5.72438
5.72267
5.72095
5.71926
5.71762
5.71609
5.71467
5.7134
5.71227
5.71129
5.71046
5.7098
5.73172
5.73202
5.73217
5.7321
5.73182
5.73132
5.73063
5.72977
5.72876
5.72763
5.7264
5.72512
5.72381
5.72251
5.72124
5.72003
5.71892
5.71791
5.71703
5.71628
5.71564
5.71512
5.7147
5.73092
5.7311
5.73117
5.73109
5.73085
5.73045
5.72992
5.72925
5.72849
5.72763
5.72672
5.72577
5.72481
5.72387
5.72297
5.72214
5.72139
5.72074
5.72021
5.71979
5.71949
5.71928
5.71914
5.73023
5.73029
5.73027
5.73018
5.72997
5.72967
5.72926
5.72878
5.72823
5.72763
5.72699
5.72634
5.72569
5.72506
5.72448
5.72396
5.72353
5.7232
5.723
5.72292
5.72297
5.72317
5.72342
5.72966
5.72956
5.72946
5.72933
5.72914
5.72889
5.72859
5.72825
5.72789
5.7275
5.7271
5.72671
5.72633
5.72598
5.72568
5.72544
5.7253
5.72528
5.72542
5.72573
5.7263
5.7273
5.72853
5.7292
5.72901
5.72887
5.72873
5.72857
5.7284
5.72822
5.72804
5.72787
5.72769
5.72752
5.72737
5.72723
5.72712
5.72705
5.72704
5.7271
5.72728
5.72761
5.72814
5.72903
5.73084
5.73463
1885.62
1817.6
1113.69
897.104
804.32
851.007
861.039
861.644
843.393
840.09
838.838
836.944
834.418
830.943
828.068
825.991
822.241
819.48
817.237
815.966
808.126
806.499
805.406
805.267
792.55
792.501
793.097
794.096
767.119
763.124
772.862
782.281
316.341
260.166
396.488
491.488
5.0276
5.05153
5.19356
5.36894
5.23118
5.2342
5.24174
5.26617
5.227
5.24875
5.2702
5.28667
5.22441
5.24294
5.26038
5.27241
5.24305
5.24997
5.26168
5.27054
5.25833
5.26869
5.27746
5.28434
5.27415
5.28175
5.28919
5.29556
5.28453
5.29249
5.30512
5.31256
5.31017
5.31588
5.32047
5.32508
5.34261
5.34685
5.35059
5.35401
5.37831
5.38098
5.38344
5.38594
5.41512
5.41644
5.41778
5.41931
5.45156
5.45177
5.45219
5.45288
5.48639
5.48575
5.48553
5.48557
5.51867
5.51744
5.51678
5.5164
5.54783
5.54623
5.54533
5.54469
5.57366
5.57188
5.57085
5.57008
5.59619
5.59438
5.59334
5.59252
5.61567
5.61394
5.61294
5.61217
5.63253
5.63095
5.63004
5.62933
5.64717
5.64578
5.64498
5.64436
5.65995
5.65877
5.65809
5.65754
5.67112
5.67012
5.66954
5.66907
5.68093
5.68012
5.67964
5.67921
5.68953
5.68888
5.68846
5.68807
5.69704
5.69651
5.69615
5.69583
5.70357
5.70313
5.70283
5.70259
5.70925
5.7089
5.70866
5.70847
5.71428
5.71399
5.71377
5.7136
5.71878
5.71851
5.71829
5.71809
5.72301
5.72262
5.72228
5.722
5.72773
5.72656
5.72572
5.72527
5.73511
5.73256
5.73045
5.72917
812.793
822.306
838.9
833.727
831.44
830.362
833.227
842.019
863.149
928.133
1111.24
1244.05
1313.08
1784.3
1802.23
1936.51
2879.53
4769.41
5506.52
849.199
834.512
827.366
825.06
824.504
825.325
828.418
835.313
846.353
859.453
888.29
1124.83
1262.76
1457.46
2279.12
3147.31
3781.7
3494.75
1154.74
831.629
824.264
820.477
819.258
819.377
820.718
823.729
828.94
836.392
844.319
848.392
872.081
1131.64
1379.41
1953.41
2891.28
2246.63
980.76
612.321
822.313
817.501
815.26
814.918
815.747
817.569
820.484
824.541
829.547
833.821
833.848
824.3
829.826
1061
1362.82
1677.01
1097.6
756.593
582.041
813.976
811.145
810.39
811.216
813.034
815.565
818.707
822.297
825.868
828.125
826.38
816.356
794.333
772.256
828.26
902.206
739.412
769.291
452.147
804.963
804.207
805.176
807.464
810.524
813.995
817.648
821.236
824.283
825.81
823.885
816.013
798.94
764.249
733.032
697.829
682.895
726.155
410.374
795.134
796.115
798.789
802.534
806.776
811.116
815.289
819.061
822.03
823.456
822.197
816.773
806.599
789.438
732.038
678.026
653.892
576.873
260.644
785.831
787.744
791.51
796.084
800.663
804.97
808.916
812.431
815.229
816.704
815.997
812.311
805.625
795.766
783.511
734.367
562.353
347.183
178.46
517.754
564.223
631.652
694.524
743.46
774.92
792.917
803.045
808.617
811.046
811.201
807.982
801.94
793.617
776.252
702.339
440.691
295.929
160.048
5.31313
15.0536
53.7518
107.977
176.283
245.211
306.43
359.678
403.568
430.732
437.463
399.46
353.975
306.348
234.875
190.217
208.679
264.01
317.339
5.29046
5.31986
5.33312
5.32799
5.30529
5.27833
5.2515
5.22693
5.20795
5.20526
5.21394
5.24878
5.34486
5.56827
5.95819
6.2318
6.21696
6.06299
5.70458
5.30228
5.3402
5.38663
5.43833
5.48574
5.52986
5.57192
5.61225
5.65244
5.69532
5.7413
5.79097
5.85225
6.29584
7.8509
8.18052
7.32464
6.2705
6.07
5.29701
5.32205
5.35954
5.39568
5.43139
5.46635
5.49956
5.53195
5.56477
5.59971
5.63763
5.67618
5.71998
6.92242
10.2597
10.5326
8.43096
6.19566
6.2835
5.28476
5.31257
5.33946
5.37014
5.40191
5.43358
5.46481
5.49563
5.52607
5.55837
5.59443
5.63609
5.69751
5.9161
5.74498
5.84079
5.79678
5.82964
5.80444
5.29284
5.3106
5.33584
5.36378
5.39469
5.42617
5.45772
5.48848
5.519
5.55014
5.58378
5.62551
5.65226
5.66435
5.69428
5.73025
5.77193
5.79069
5.76959
5.30827
5.32279
5.34142
5.36751
5.39572
5.42523
5.45552
5.48643
5.51644
5.54439
5.572
5.59913
5.62493
5.64996
5.67537
5.70529
5.74184
5.75407
5.73788
5.32363
5.33975
5.35167
5.37499
5.40105
5.42864
5.45696
5.48532
5.51335
5.54073
5.56688
5.59152
5.61479
5.63695
5.65934
5.68188
5.70127
5.71535
5.71597
5.33571
5.34926
5.36726
5.38752
5.41097
5.43612
5.46219
5.4886
5.51482
5.54036
5.56471
5.58753
5.60882
5.62902
5.64868
5.66776
5.68427
5.69527
5.706
5.36023
5.37136
5.3869
5.40524
5.4258
5.44818
5.47173
5.49588
5.52004
5.54367
5.56627
5.58752
5.60735
5.626
5.64386
5.66089
5.67639
5.68917
5.70624
5.39022
5.39868
5.41139
5.42695
5.44475
5.46441
5.48538
5.50712
5.52906
5.5507
5.57158
5.59136
5.60995
5.62748
5.64419
5.66025
5.67592
5.69142
5.71292
5.42201
5.42831
5.43859
5.45156
5.46671
5.48374
5.50217
5.52151
5.54125
5.56093
5.58012
5.59853
5.61603
5.6327
5.64876
5.66456
5.68106
5.69944
5.72488
5.45432
5.45899
5.46714
5.47776
5.4905
5.50508
5.52111
5.53816
5.55579
5.57358
5.59116
5.60827
5.62479
5.64077
5.65645
5.67231
5.68986
5.71086
5.7393
5.48604
5.48943
5.49575
5.50434
5.51494
5.52734
5.54119
5.55614
5.5718
5.58783
5.6039
5.61978
5.63538
5.65076
5.66614
5.68216
5.7006
5.72364
5.75458
5.51621
5.51857
5.52339
5.53027
5.53905
5.54954
5.56148
5.57455
5.58844
5.60285
5.61752
5.63226
5.64698
5.66175
5.67682
5.69286
5.71187
5.73693
5.76845
5.54407
5.54569
5.5493
5.55479
5.56205
5.57093
5.58122
5.59265
5.60498
5.61794
5.63132
5.64497
5.65882
5.67295
5.68759
5.70345
5.72259
5.74976
5.78002
5.56927
5.57036
5.57303
5.5774
5.58343
5.59098
5.59987
5.60989
5.62083
5.63249
5.6447
5.65731
5.67029
5.6837
5.69777
5.71319
5.732
5.75837
5.78827
5.59166
5.59241
5.59437
5.59788
5.60292
5.60937
5.61708
5.62589
5.63563
5.64612
5.65722
5.66884
5.68092
5.69352
5.70687
5.7216
5.73965
5.76327
5.79084
5.61137
5.6119
5.61335
5.6162
5.62045
5.626
5.63271
5.64047
5.64913
5.65855
5.66862
5.67925
5.69039
5.70211
5.71458
5.7284
5.74534
5.76743
5.79248
5.62863
5.629
5.6301
5.63246
5.63608
5.64087
5.64673
5.65356
5.66124
5.66966
5.67873
5.68837
5.69855
5.7093
5.72078
5.7335
5.74908
5.76919
5.79174
5.64373
5.64399
5.64486
5.64684
5.64995
5.65409
5.65919
5.66517
5.67194
5.67942
5.68752
5.69617
5.70535
5.71506
5.72546
5.73697
5.75098
5.76888
5.78863
5.65695
5.65712
5.65784
5.65954
5.6622
5.66577
5.67019
5.67539
5.68131
5.68788
5.69502
5.70268
5.71083
5.71949
5.72875
5.73901
5.75144
5.76687
5.78374
5.66855
5.66867
5.66929
5.67074
5.67302
5.67607
5.67986
5.68433
5.68944
5.69513
5.70134
5.70802
5.71514
5.72271
5.73086
5.73992
5.75061
5.7637
5.77766
5.67872
5.67884
5.67938
5.68062
5.68254
5.68512
5.68832
5.69211
5.69644
5.70129
5.70659
5.71231
5.71842
5.72494
5.73204
5.73987
5.74892
5.75973
5.77099
5.68767
5.68778
5.68826
5.6893
5.6909
5.69304
5.69569
5.69883
5.70244
5.70648
5.71092
5.71572
5.72085
5.72639
5.73243
5.73902
5.7466
5.75538
5.76421
5.6955
5.69561
5.69603
5.69689
5.69819
5.69992
5.70206
5.7046
5.70752
5.71081
5.71444
5.71838
5.7226
5.72718
5.73219
5.73767
5.74393
5.75088
5.75769
5.70234
5.70244
5.70278
5.70347
5.70448
5.70583
5.70749
5.70948
5.71178
5.71438
5.71726
5.72041
5.7238
5.72745
5.73143
5.73592
5.74088
5.74646
5.75166
5.70827
5.70834
5.7086
5.7091
5.70985
5.71083
5.71205
5.71353
5.71525
5.71722
5.71943
5.72187
5.72451
5.72733
5.73039
5.73385
5.73784
5.74209
5.7462
5.7134
5.7134
5.71355
5.71386
5.71432
5.71496
5.71577
5.71678
5.71798
5.71939
5.72099
5.72279
5.72475
5.72687
5.72917
5.73175
5.73473
5.73774
5.7413
5.71781
5.71771
5.7177
5.71779
5.71798
5.71829
5.71872
5.71929
5.72002
5.72091
5.72198
5.72321
5.72458
5.72607
5.7277
5.72949
5.7315
5.7333
5.7367
5.7216
5.72133
5.72113
5.721
5.72092
5.72091
5.72098
5.72115
5.72145
5.72188
5.72246
5.72318
5.72403
5.72498
5.72602
5.72712
5.72808
5.72845
5.73189
5.72481
5.72433
5.72394
5.72358
5.72325
5.72294
5.72268
5.72249
5.72239
5.7224
5.72253
5.72277
5.72314
5.7236
5.72413
5.72453
5.72386
5.7214
5.72713
5.7279
5.72704
5.72642
5.72583
5.72523
5.72463
5.72404
5.72349
5.72299
5.72256
5.72221
5.72193
5.72173
5.72158
5.72144
5.72098
5.71828
5.70917
5.72837
)
;

boundaryField
{
    leftWall
    {
        type            fixedFluxPressure;
        gradient        uniform 0;
        value           nonuniform List<scalar> 
50
(
7101.51
7127.65
7137.29
7120.84
7064.7
6949.63
6109.83
2105.19
1406.18
1393.1
1382.39
1369.59
1359.17
1351.16
1171.27
170.096
6.02444
6.03548
6.02579
6.01771
6.00493
5.98367
5.95851
5.9327
5.90769
5.88432
5.86298
5.84385
5.82692
5.81206
5.79914
5.78796
5.77834
5.7701
5.76308
5.75712
5.75209
5.74786
5.74432
5.74137
5.73892
5.7369
5.73522
5.73384
5.73269
5.73172
5.73092
5.73023
5.72966
5.7292
)
;
    }
    rightWall
    {
        type            fixedFluxPressure;
        gradient        uniform 0;
        value           nonuniform List<scalar> 
50
(
6199.78
5899.37
5711.86
5604.48
5539.75
5522.73
5549.98
5611.58
5506.52
1154.74
612.321
582.041
452.147
410.374
260.644
178.46
160.048
317.339
5.70458
6.07
6.2835
5.80444
5.76959
5.73788
5.71597
5.706
5.70624
5.71292
5.72488
5.7393
5.75458
5.76845
5.78002
5.78827
5.79084
5.79248
5.79174
5.78863
5.78374
5.77766
5.77099
5.76421
5.75769
5.75166
5.7462
5.7413
5.7367
5.73189
5.72713
5.72837
)
;
    }
    lowerWall
    {
        type            fixedFluxPressure;
        gradient        uniform 0;
        value           nonuniform List<scalar> 
62
(
7101.51
6916.8
6755.58
6618.62
6519.35
6455.36
6416.44
6391.46
6370.99
6347.77
6316.74
6275.38
6224.33
6166.32
6104.1
6038.72
5969.48
5894.84
5813.63
5726.83
5638.06
5567.27
5525.42
5525.42
5520.64
5513.58
5501.59
5488.71
4793.72
1609.71
1355.79
1885.62
1817.6
1113.69
897.104
1171.8
1166.26
1149.2
1205.43
1349.69
1092.68
910.378
834.336
1171.8
1201
1276.09
1410.79
1572.74
1614.29
1627.24
1668.14
1760.79
1955.82
2390.71
2906.65
3308.78
3698.84
4052.22
4113.02
4318.58
5100.57
6199.78
)
;
    }
    atmosphere
    {
        type            prghTotalPressure;
        rho             rho;
        psi             none;
        gamma           1;
        p0              uniform 0;
        value           nonuniform List<scalar> 
46
(
5.72904
5.72904
5.72904
5.72904
5.72904
5.72904
5.72904
5.72904
5.72904
5.72904
5.72904
5.72904
5.72904
5.72904
5.72904
5.72904
5.72904
5.72904
5.72904
5.72904
5.72904
5.72904
5.72904
5.72902
5.72898
5.72891
5.7288
5.72857
5.72811
5.72753
5.72687
5.72614
5.72539
5.72463
5.72389
5.72319
5.72252
5.72188
5.72129
5.72074
5.72022
5.71974
5.71926
5.71872
5.71793
5.72481
)
;
        rho             rho;
    }
    defaultFaces
    {
        type            empty;
    }
}


// ************************************************************************* //
