/*--------------------------------*- C++ -*----------------------------------*\
  =========                 |
  \\      /  F ield         | OpenFOAM: The Open Source CFD Toolbox
   \\    /   O peration     | Website:  https://openfoam.org
    \\  /    A nd           | Version:  13
     \\/     M anipulation  |
\*---------------------------------------------------------------------------*/
FoamFile
{
    format      ascii;
    class       surfaceScalarField;
    location    "0.9";
    object      phi;
}
// * * * * * * * * * * * * * * * * * * * * * * * * * * * * * * * * * * * * * //

dimensions      [0 3 -1 0 0 0 0];

internalField   nonuniform List<scalar> 
4432
(
-4.83684e-06
4.83682e-06
-1.04918e-05
5.65497e-06
-1.54305e-05
4.93868e-06
-1.90768e-05
3.64634e-06
-2.15348e-05
2.45792e-06
-2.29678e-05
1.43307e-06
-2.35349e-05
5.67035e-07
-2.33864e-05
-1.48432e-07
-2.26487e-05
-7.37687e-07
-2.1428e-05
-1.22078e-06
-1.98354e-05
-1.59256e-06
-1.79977e-05
-1.83772e-06
-1.60244e-05
-1.9733e-06
-1.39733e-05
-2.05101e-06
-1.18612e-05
-2.11215e-06
-9.69035e-06
-2.17084e-06
-7.46993e-06
-2.22042e-06
-5.23429e-06
-2.23564e-06
-3.05421e-06
-2.18007e-06
-1.06438e-06
-1.98984e-06
5.53473e-07
-1.61785e-06
1.39466e-06
-8.4119e-07
1.39467e-06
-5.98748e-06
1.08242e-05
-1.20477e-05
1.17151e-05
-1.68393e-05
9.73033e-06
-2.01735e-05
6.98045e-06
-2.22224e-05
4.50687e-06
-2.3206e-05
2.41663e-06
-2.33458e-05
7.06897e-07
-2.28522e-05
-6.42059e-07
-2.18917e-05
-1.69823e-06
-2.05769e-05
-2.53553e-06
-1.90005e-05
-3.16894e-06
-1.7254e-05
-3.58416e-06
-1.54111e-05
-3.8162e-06
-1.35131e-05
-3.94904e-06
-1.15802e-05
-4.04497e-06
-9.62908e-06
-4.12196e-06
-7.68223e-06
-4.16726e-06
-5.7754e-06
-4.14245e-06
-3.96448e-06
-3.99099e-06
-2.33092e-06
-3.62339e-06
-9.9384e-07
-2.95493e-06
-9.56856e-08
-1.73935e-06
1.29897e-06
-7.16341e-06
1.79876e-05
-1.32582e-05
1.78099e-05
-1.76727e-05
1.41449e-05
-2.05715e-05
9.87916e-06
-2.22104e-05
6.14579e-06
-2.28502e-05
3.05646e-06
-2.27419e-05
5.98558e-07
-2.21101e-05
-1.27384e-06
-2.11094e-05
-2.69892e-06
-1.9829e-05
-3.81588e-06
-1.83363e-05
-4.66163e-06
-1.67007e-05
-5.21977e-06
-1.49806e-05
-5.5363e-06
-1.32136e-05
-5.71608e-06
-1.14272e-05
-5.83134e-06
-9.64933e-06
-5.89981e-06
-7.90921e-06
-5.90737e-06
-6.23986e-06
-5.8118e-06
-4.6819e-06
-5.54894e-06
-3.28759e-06
-5.01769e-06
-2.10819e-06
-4.13432e-06
-1.05475e-06
-2.79279e-06
2.4423e-07
-8.16852e-06
2.61561e-05
-1.41737e-05
2.38151e-05
-1.81549e-05
1.8126e-05
-2.06151e-05
1.23394e-05
-2.19001e-05
7.43075e-06
-2.22915e-05
3.44786e-06
-2.20457e-05
3.52785e-07
-2.13754e-05
-1.94408e-06
-2.04086e-05
-3.66578e-06
-1.92048e-05
-5.01962e-06
-1.78105e-05
-6.05594e-06
-1.62831e-05
-6.74719e-06
-1.46756e-05
-7.14383e-06
-1.30282e-05
-7.36344e-06
-1.13745e-05
-7.48507e-06
-9.75014e-06
-7.52414e-06
-8.18804e-06
-7.46947e-06
-6.71746e-06
-7.28238e-06
-5.36539e-06
-6.90101e-06
-4.15731e-06
-6.22578e-06
-3.08317e-06
-5.20847e-06
-1.84735e-06
-4.02861e-06
-1.60313e-06
-8.87502e-06
3.50312e-05
-1.46835e-05
2.96236e-05
-1.82346e-05
2.16771e-05
-2.03113e-05
1.44162e-05
-2.13328e-05
8.45221e-06
-2.15785e-05
3.69359e-06
-2.12943e-05
6.85917e-08
-2.06633e-05
-2.57512e-06
-1.97807e-05
-4.54844e-06
-1.86789e-05
-6.12135e-06
-1.73907e-05
-7.34415e-06
-1.59705e-05
-8.16738e-06
-1.44719e-05
-8.64243e-06
-1.29377e-05
-8.89772e-06
-1.14071e-05
-9.01558e-06
-9.92287e-06
-9.00842e-06
-8.51881e-06
-8.87354e-06
-7.22079e-06
-8.5804e-06
-6.04538e-06
-8.07642e-06
-4.99621e-06
-7.27495e-06
-4.02091e-06
-6.18376e-06
-2.69824e-06
-5.35128e-06
-4.30136e-06
-9.073e-06
4.41042e-05
-1.45524e-05
3.5103e-05
-1.77398e-05
2.48644e-05
-1.95664e-05
1.62429e-05
-2.04725e-05
9.35828e-06
-2.07063e-05
3.92738e-06
-2.04966e-05
-1.41082e-07
-1.99844e-05
-3.08736e-06
-1.92307e-05
-5.30207e-06
-1.82502e-05
-7.10187e-06
-1.70744e-05
-8.51995e-06
-1.57611e-05
-9.48063e-06
-1.43685e-05
-1.0035e-05
-1.29435e-05
-1.03228e-05
-1.15279e-05
-1.04311e-05
-1.01684e-05
-1.0368e-05
-8.90221e-06
-1.01397e-05
-7.75546e-06
-9.72714e-06
-6.74207e-06
-9.0898e-06
-5.85481e-06
-8.16222e-06
-5.01975e-06
-7.01882e-06
-3.87518e-06
-6.49585e-06
-8.17655e-06
-8.4362e-06
5.25404e-05
-1.34559e-05
4.01228e-05
-1.64328e-05
2.78414e-05
-1.82394e-05
1.80495e-05
-1.92314e-05
1.03504e-05
-1.96325e-05
4.32847e-06
-1.96361e-05
-1.37468e-07
-1.93432e-05
-3.38029e-06
-1.87562e-05
-5.88896e-06
-1.79099e-05
-7.94821e-06
-1.68573e-05
-9.5725e-06
-1.56661e-05
-1.06719e-05
-1.43931e-05
-1.1308e-05
-1.30766e-05
-1.16393e-05
-1.17745e-05
-1.17332e-05
-1.05505e-05
-1.15919e-05
-9.44555e-06
-1.12447e-05
-8.48729e-06
-1.06854e-05
-7.70088e-06
-9.87621e-06
-7.1015e-06
-8.7616e-06
-6.65558e-06
-7.46474e-06
-6.14202e-06
-7.00941e-06
-1.43186e-05
-6.31777e-06
5.88582e-05
-1.01691e-05
4.39741e-05
-1.34609e-05
3.11332e-05
-1.57951e-05
2.03837e-05
-1.72372e-05
1.17926e-05
-1.80834e-05
5.17469e-06
-1.85291e-05
3.0818e-07
-1.85854e-05
-3.32391e-06
-1.82413e-05
-6.23301e-06
-1.75835e-05
-8.60601e-06
-1.67038e-05
-1.04522e-05
-1.5674e-05
-1.17016e-05
-1.45857e-05
-1.23963e-05
-1.35055e-05
-1.27195e-05
-1.25057e-05
-1.2733e-05
-1.16622e-05
-1.24354e-05
-1.10284e-05
-1.18784e-05
-1.06278e-05
-1.1086e-05
-1.0519e-05
-9.98503e-06
-1.08028e-05
-8.47784e-06
-1.17105e-05
-6.55701e-06
-1.25603e-05
-6.15965e-06
-2.68788e-05
-1.37025e-05
1.37025e-05
-7.80187e-06
-5.90069e-06
2.38687e-06
-1.01887e-05
1.27937e-05
-1.04069e-05
1.94162e-05
-6.62246e-06
2.17898e-05
-2.37363e-06
2.20752e-05
-2.85394e-07
2.07109e-05
1.36426e-06
1.79109e-05
2.80006e-06
1.61907e-05
1.72014e-06
1.52391e-05
9.51602e-07
1.07877e-05
4.45145e-06
3.58333e-06
7.20435e-06
-2.17797e-06
5.76131e-06
-8.17823e-06
6.00027e-06
-2.60677e-05
1.78895e-05
-4.22488e-05
1.61811e-05
-3.23693e-05
-9.87952e-06
-3.23693e-05
-2.75196e-06
1.64544e-05
7.41454e-06
-1.60672e-05
1.41782e-05
-1.69524e-05
1.73418e-05
-1.35704e-05
1.96708e-05
-8.95153e-06
2.12984e-05
-4.00123e-06
2.22104e-05
-1.19739e-06
2.25593e-05
1.01544e-06
2.20215e-05
3.33783e-06
2.03368e-05
3.40486e-06
1.69192e-05
4.36917e-06
1.17797e-05
9.591e-06
6.56646e-06
1.24176e-05
1.68477e-06
1.0643e-05
-2.46848e-06
1.01535e-05
-1.42092e-05
2.96302e-05
-2.8776e-05
3.0748e-05
-2.22675e-05
-1.6388e-05
-5.46367e-05
7.63802e-06
8.81641e-06
1.33305e-05
-2.17597e-05
1.62793e-05
-1.99013e-05
1.76141e-05
-1.49051e-05
1.87319e-05
-1.00694e-05
2.01065e-05
-5.37586e-06
2.11101e-05
-2.20099e-06
2.15684e-05
5.57207e-07
2.10986e-05
3.80755e-06
1.86559e-05
5.84759e-06
1.41598e-05
8.8653e-06
9.03153e-06
1.47192e-05
4.18347e-06
1.72656e-05
-1.39107e-07
1.49656e-05
-2.92086e-06
1.29353e-05
-8.22055e-06
3.49299e-05
-1.96172e-05
4.21446e-05
-1.63718e-05
-1.96333e-05
-7.10086e-05
1.49538e-05
-6.13742e-06
1.50879e-05
-2.18938e-05
1.54146e-05
-2.0228e-05
1.5726e-05
-1.52166e-05
1.64402e-05
-1.07836e-05
1.75632e-05
-6.49883e-06
1.84235e-05
-3.06125e-06
1.84529e-05
5.27765e-07
1.73632e-05
4.89726e-06
1.43226e-05
8.88822e-06
9.45042e-06
1.37374e-05
4.22844e-06
1.99412e-05
-2.57884e-07
2.17519e-05
-4.24699e-06
1.89547e-05
-6.56067e-06
1.52489e-05
-7.85776e-06
3.62271e-05
-1.45663e-05
4.88532e-05
-1.25031e-05
-2.16965e-05
-8.35117e-05
1.36779e-05
-1.98153e-05
1.33426e-05
-2.15586e-05
1.24506e-05
-1.93359e-05
1.24466e-05
-1.52126e-05
1.27868e-05
-1.11237e-05
1.33124e-05
-7.02448e-06
1.34534e-05
-3.2022e-06
1.28047e-05
1.17641e-06
1.1085e-05
6.61694e-06
7.70271e-06
1.22705e-05
2.88961e-06
1.85505e-05
-1.88135e-06
2.47122e-05
-7.03201e-06
2.69026e-05
-1.02884e-05
2.22111e-05
-1.13043e-05
1.62648e-05
-1.28427e-05
3.77654e-05
-1.41652e-05
5.01757e-05
-9.74944e-06
-2.61123e-05
-9.32611e-05
8.95439e-06
-2.87698e-05
8.97045e-06
-2.15747e-05
8.55055e-06
-1.89161e-05
8.70674e-06
-1.53688e-05
9.04466e-06
-1.14616e-05
9.3123e-06
-7.29213e-06
9.07539e-06
-2.9653e-06
8.01573e-06
2.23606e-06
5.92477e-06
8.7079e-06
2.35345e-06
1.58418e-05
-2.6704e-06
2.35744e-05
-8.48133e-06
3.05231e-05
-1.4388e-05
3.28092e-05
-1.57466e-05
2.35698e-05
-1.57862e-05
1.63043e-05
-1.73359e-05
3.93152e-05
-1.43794e-05
4.72192e-05
-7.88347e-06
-3.26083e-05
-0.000101145
2.92972e-06
-3.16995e-05
3.60484e-06
-2.22498e-05
3.84937e-06
-1.91606e-05
4.37364e-06
-1.58931e-05
4.94019e-06
-1.20282e-05
5.26865e-06
-7.6206e-06
4.97085e-06
-2.66751e-06
3.76945e-06
3.43747e-06
1.49949e-06
1.09779e-05
-2.08931e-06
1.94306e-05
-6.89704e-06
2.83821e-05
-1.23612e-05
3.59872e-05
-1.70218e-05
3.74699e-05
-1.82108e-05
2.47587e-05
-1.95614e-05
1.7655e-05
-2.00063e-05
3.97601e-05
-1.29771e-05
4.019e-05
-6.39713e-06
-3.91883e-05
-0.000107542
-4.07738e-06
-2.76222e-05
-3.50365e-06
-2.28236e-05
-2.57401e-06
-2.00903e-05
-1.47504e-06
-1.69921e-05
-3.87239e-07
-1.3116e-05
3.97372e-07
-8.40521e-06
4.58167e-07
-2.7283e-06
-4.86172e-07
4.38181e-06
-2.55395e-06
1.30456e-05
-5.83696e-06
2.27136e-05
-1.00166e-05
3.25617e-05
-1.44989e-05
4.04695e-05
-1.79749e-05
4.0946e-05
-1.99665e-05
2.67502e-05
-2.3063e-05
2.07515e-05
-2.14545e-05
3.81516e-05
-1.03523e-05
2.90877e-05
-4.67308e-06
-4.48676e-05
-0.000112215
-4.37891e-07
5.92961e-05
-4.15484e-06
4.76911e-05
-1.01031e-05
3.70815e-05
-1.67142e-05
2.69948e-05
-2.28986e-05
1.79771e-05
-2.81441e-05
1.04202e-05
-3.21784e-05
4.3425e-06
-3.48107e-05
-6.91592e-07
-3.62168e-05
-4.82691e-06
-3.6685e-05
-8.13776e-06
-3.66035e-05
-1.05337e-05
-3.6256e-05
-1.20491e-05
-3.5832e-05
-1.28203e-05
-3.55295e-05
-1.3022e-05
-3.5498e-05
-1.27645e-05
-3.58768e-05
-1.20565e-05
-3.67193e-05
-1.10359e-05
-3.79487e-05
-9.8566e-06
-3.95751e-05
-8.35864e-06
-4.15063e-05
-6.5467e-06
-4.31378e-05
-4.92547e-06
-4.37377e-05
-5.55976e-06
-2.24157e-05
-4.82008e-05
5.41561e-06
5.38806e-05
5.29707e-06
4.78097e-05
2.25205e-06
4.01266e-05
-2.72619e-06
3.19731e-05
-8.78844e-06
2.40393e-05
-1.51959e-05
1.68277e-05
-2.1314e-05
1.04606e-05
-2.67945e-05
4.78898e-06
-3.14279e-05
-1.93551e-07
-3.53392e-05
-4.22644e-06
-3.87624e-05
-7.1105e-06
-4.18396e-05
-8.97188e-06
-4.46764e-05
-9.98349e-06
-4.73695e-05
-1.03288e-05
-4.99789e-05
-1.01551e-05
-5.27478e-05
-9.28766e-06
-5.5703e-05
-8.08072e-06
-5.85106e-05
-7.04903e-06
-6.10084e-05
-5.86088e-06
-6.36593e-05
-3.8957e-06
-6.56446e-05
-2.94021e-06
-6.65017e-05
-4.70263e-06
-1.33302e-05
-7.55871e-05
5.71534e-06
4.81652e-05
7.69052e-06
4.58345e-05
6.91446e-06
4.09027e-05
3.84564e-06
3.50419e-05
-1.04558e-06
2.89306e-05
-7.12486e-06
2.2907e-05
-1.38969e-05
1.72326e-05
-2.10596e-05
1.19517e-05
-2.84805e-05
7.22735e-06
-3.59923e-05
3.28537e-06
-4.33331e-05
2.30323e-07
-4.99908e-05
-2.31421e-06
-5.59e-05
-4.07427e-06
-6.11765e-05
-5.05243e-06
-6.58018e-05
-5.52975e-06
-7.00104e-05
-5.07905e-06
-7.45901e-05
-3.50102e-06
-7.9597e-05
-2.04215e-06
-8.49084e-05
-5.49383e-07
-9.02995e-05
1.49538e-06
-9.45675e-05
1.32779e-06
-9.54506e-05
-3.8195e-06
-1.17847e-05
-9.69962e-05
5.05793e-06
4.31073e-05
7.99253e-06
4.28999e-05
8.65401e-06
4.02412e-05
7.11467e-06
3.65812e-05
3.56122e-06
3.2484e-05
-1.87402e-06
2.83422e-05
-9.06956e-06
2.44281e-05
-1.8123e-05
2.10051e-05
-2.89535e-05
1.80578e-05
-4.06796e-05
1.50115e-05
-5.18741e-05
1.14249e-05
-6.15988e-05
7.41046e-06
-6.96528e-05
3.97963e-06
-7.66143e-05
1.90904e-06
-8.30663e-05
9.22226e-07
-8.91225e-05
9.77195e-07
-9.63971e-05
3.77363e-06
-0.000104829
6.38961e-06
-0.000112797
7.41912e-06
-0.000116498
5.19655e-06
-0.000116795
1.62406e-06
-0.000115729
-4.88476e-06
-1.27569e-05
-0.000114757
5.04889e-06
3.80584e-05
8.53475e-06
3.9414e-05
1.01304e-05
3.86455e-05
9.71091e-06
3.70007e-05
7.24642e-06
3.49485e-05
2.5051e-06
3.30835e-05
-5.26049e-06
3.21937e-05
-1.69794e-05
3.2724e-05
-3.23952e-05
3.34737e-05
-4.91563e-05
3.17727e-05
-6.44774e-05
2.67459e-05
-7.67365e-05
1.96697e-05
-8.67771e-05
1.40202e-05
-9.57904e-05
1.09224e-05
-0.000105228
1.03594e-05
-0.000115245
1.09948e-05
-0.000124252
1.27807e-05
-0.000129713
1.18506e-05
-0.000132425
1.01314e-05
-0.000133396
6.16734e-06
-0.000132513
7.4087e-07
-0.000130901
-6.49672e-06
-1.44733e-05
-0.000129185
5.57509e-06
3.24833e-05
9.75861e-06
3.52305e-05
1.21494e-05
3.62547e-05
1.26417e-05
3.65084e-05
1.10973e-05
3.6493e-05
6.89691e-06
3.72838e-05
-1.58656e-06
4.06771e-05
-1.6655e-05
4.77923e-05
-3.81532e-05
5.49717e-05
-6.25998e-05
5.62191e-05
-8.45972e-05
4.87433e-05
-0.000100648
3.57202e-05
-0.000113621
2.69934e-05
-0.00012464
2.1942e-05
-0.000133013
1.87317e-05
-0.000138875
1.68571e-05
-0.00014212
1.60255e-05
-0.000144085
1.38164e-05
-0.000144714
1.07601e-05
-0.000144571
6.02469e-06
-0.000143468
-3.62904e-07
-0.000141797
-8.16755e-06
-1.63128e-05
-0.000139957
5.74801e-06
2.67353e-05
1.06104e-05
3.0368e-05
1.36977e-05
3.31673e-05
1.49255e-05
3.52804e-05
1.39072e-05
3.75111e-05
9.44527e-06
4.17458e-05
-7.61003e-07
5.08834e-05
-1.96172e-05
6.66485e-05
-4.68809e-05
8.22353e-05
-8.9745e-05
9.90832e-05
-0.000127304
8.63019e-05
-0.000142898
5.13146e-05
-0.000148176
3.22708e-05
-0.000150499
2.42652e-05
-0.000151738
1.99707e-05
-0.000152531
1.765e-05
-0.000152557
1.60514e-05
-0.000152332
1.35923e-05
-0.000151697
1.01246e-05
-0.000150907
5.23481e-06
-0.000149767
-1.50255e-06
-0.000148174
-9.76148e-06
-1.80018e-05
-0.000146485
4.07177e-06
2.2664e-05
1.0496e-05
2.39436e-05
1.42332e-05
2.94298e-05
1.59558e-05
3.35573e-05
1.38079e-05
3.96584e-05
3.9985e-06
5.15548e-05
-1.26902e-05
6.75722e-05
-3.82029e-05
9.21612e-05
-7.87192e-05
0.000122751
-0.000140773
0.000161138
-0.000174795
0.000120322
-0.000167983
4.45027e-05
-0.000164594
2.88814e-05
-0.000162222
2.18927e-05
-0.000160439
1.8188e-05
-0.000158836
1.60472e-05
-0.000157135
1.43499e-05
-0.000155434
1.18918e-05
-0.000153697
8.38771e-06
-0.000152305
3.84232e-06
-0.000151131
-2.67623e-06
-0.000149511
-1.13813e-05
-1.98054e-05
-0.000147708
1.40636e-06
2.12583e-05
4.69247e-06
2.06577e-05
5.77719e-06
2.8345e-05
1.99024e-06
3.73441e-05
-6.96812e-06
4.86166e-05
-2.18694e-05
6.64563e-05
-4.27005e-05
8.84032e-05
-7.09023e-05
0.000120363
-0.000108798
0.000160649
-0.000136522
0.000188864
-0.000153518
0.000137318
-0.0001593
5.02827e-05
-0.000163238
3.28196e-05
-0.00016317
2.18236e-05
-0.000162018
1.70366e-05
-0.000160148
1.41773e-05
-0.000157904
1.21059e-05
-0.000155383
9.37016e-06
-0.000152574
5.57865e-06
-0.00015006
1.32836e-06
-0.000148081
-4.65486e-06
-0.00014633
-1.31324e-05
-2.18742e-05
-0.000144261
-8.50426e-06
2.97636e-05
-1.46201e-05
2.67744e-05
-1.98948e-05
3.36204e-05
-2.55553e-05
4.30051e-05
-3.30038e-05
5.60656e-05
-4.15467e-05
7.49994e-05
-5.33615e-05
0.000100218
-6.63758e-05
0.000133378
-7.5397e-05
0.000169671
-7.66384e-05
0.000190109
-9.01173e-05
0.0001508
-0.000123405
8.35697e-05
-0.000154903
6.4315e-05
-0.000159844
2.67635e-05
-0.000159361
1.65539e-05
-0.000158003
1.28185e-05
-0.000155707
9.81043e-06
-0.000152574
6.23758e-06
-0.000148645
1.64957e-06
-0.000144254
-3.06233e-06
-0.00014033
-8.57867e-06
-0.000138016
-1.54474e-05
-2.26067e-05
-0.000137283
-1.03836e-05
4.0148e-05
-2.03376e-05
3.67291e-05
-2.82421e-05
4.15255e-05
-3.5328e-05
5.00915e-05
-4.18927e-05
6.26307e-05
-4.75361e-05
8.06426e-05
-5.18594e-05
0.000104541
-5.32048e-05
0.000134723
-4.92405e-05
0.000165707
-4.21251e-05
0.000182994
-5.17738e-05
0.00016045
-8.51632e-05
0.000116961
-0.000114705
9.38568e-05
-0.000137954
5.00116e-05
-0.000150894
2.94935e-05
-0.000153798
1.57235e-05
-0.000151384
7.39628e-06
-0.000147193
2.04639e-06
-0.000142411
-3.13161e-06
-0.000136819
-8.65437e-06
-0.000132387
-1.3011e-05
-0.000129974
-1.78605e-05
-2.31978e-05
-0.000129383
-9.41188e-06
4.95603e-05
-1.92659e-05
4.65834e-05
-2.75297e-05
4.97896e-05
-3.4334e-05
5.68959e-05
-3.95468e-05
6.78435e-05
-4.23219e-05
8.34176e-05
-4.19878e-05
0.000104207
-3.71078e-05
0.000129843
-2.72228e-05
0.000155822
-1.56739e-05
0.000171446
-1.66958e-05
0.000161472
-3.24871e-05
0.000132753
-4.60793e-05
0.00010745
-6.88484e-05
7.27817e-05
-8.6602e-05
4.72473e-05
-9.8949e-05
2.80708e-05
-0.00010595
1.43976e-05
-0.000109225
5.32135e-06
-0.000110796
-1.56088e-06
-0.000112164
-7.28636e-06
-0.000112686
-1.24889e-05
-0.000113387
-1.71593e-05
-2.16879e-05
-0.000114897
-7.31892e-06
5.68795e-05
-1.53823e-05
5.46471e-05
-2.2398e-05
5.68055e-05
-2.7932e-05
6.24301e-05
-3.15349e-05
7.14464e-05
-3.23957e-05
8.42786e-05
-2.95155e-05
0.000101327
-2.18117e-05
0.000122139
-9.43314e-06
0.000143444
4.31231e-06
0.0001577
1.09091e-05
0.000154875
6.5896e-06
0.000137072
-1.63616e-06
0.000115676
-1.70059e-05
8.81522e-05
-3.31837e-05
6.34256e-05
-4.76013e-05
4.24887e-05
-5.93143e-05
2.61108e-05
-6.8359e-05
1.43663e-05
-7.55563e-05
5.63647e-06
-8.11049e-05
-1.73762e-06
-8.5462e-05
-8.1316e-06
-8.91166e-05
-1.35045e-05
-1.84185e-05
-9.23859e-05
-4.83482e-06
6.17148e-05
-1.06759e-05
6.04886e-05
-1.59309e-05
6.20608e-05
-1.99456e-05
6.6445e-05
-2.2115e-05
7.3616e-05
-2.16288e-05
8.37927e-05
-1.75294e-05
9.72275e-05
-8.96247e-06
0.000113573
3.84435e-06
0.000130637
1.83281e-05
0.000143216
2.86246e-05
0.000144578
3.1387e-05
0.00013431
2.89695e-05
0.000118094
2.00537e-05
9.70681e-05
7.83052e-06
7.56489e-05
-5.60782e-06
5.59272e-05
-1.86056e-05
3.91087e-05
-3.00712e-05
2.58321e-05
-3.96686e-05
1.5234e-05
-4.7685e-05
6.279e-06
-5.4619e-05
-1.19745e-06
-6.04497e-05
-7.67355e-06
-1.35669e-05
-6.53013e-05
-2.58087e-06
6.4296e-05
-6.24055e-06
6.41486e-05
-9.65185e-06
6.54724e-05
-1.21124e-05
6.89058e-05
-1.29944e-05
7.44983e-05
-1.15671e-05
8.23656e-05
-6.99975e-06
9.26604e-05
1.41834e-06
0.000105155
1.35728e-05
0.000118483
2.76699e-05
0.000129119
3.96543e-05
0.000132594
4.64577e-05
0.000127506
4.82008e-05
0.000116351
4.45362e-05
0.000100733
3.6783e-05
8.34023e-05
2.64146e-05
6.62957e-05
1.48316e-05
5.06919e-05
3.39913e-06
3.72647e-05
-7.02568e-06
2.5659e-05
-1.6141e-05
1.53945e-05
-2.40867e-05
6.7484e-06
-3.10776e-05
-6.82467e-07
-7.50827e-06
-3.71362e-05
-7.9364e-07
6.50901e-05
-2.54907e-06
6.59044e-05
-4.24759e-06
6.71712e-05
-5.26139e-06
6.99199e-05
-5.01968e-06
7.42568e-05
-2.9015e-06
8.02477e-05
1.77571e-06
8.79835e-05
9.56569e-06
9.7365e-05
2.05712e-05
0.000107478
3.35615e-05
0.000116129
4.57975e-05
0.000120358
5.47148e-05
0.000118589
5.94739e-05
0.000111591
5.96665e-05
0.00010054
5.58756e-05
8.71933e-05
4.90531e-05
7.31182e-05
4.0292e-05
5.94531e-05
3.07111e-05
4.68457e-05
2.1098e-05
3.52723e-05
1.20146e-05
2.4478e-05
3.86673e-06
1.48964e-05
-3.50491e-06
6.68935e-06
-8.95063e-07
-1.01181e-05
4.94927e-07
6.45954e-05
2.83706e-07
6.61159e-05
4.05774e-08
6.74145e-05
2.74067e-07
6.96866e-05
1.46089e-06
7.30702e-05
4.09774e-06
7.7611e-05
8.71552e-06
8.33659e-05
1.5808e-05
9.02727e-05
2.54981e-05
9.77878e-05
3.70419e-05
0.000104586
4.86497e-05
0.00010875
5.83432e-05
0.000108896
6.49798e-05
0.000104955
6.79901e-05
9.75303e-05
6.74935e-05
8.769e-05
6.40444e-05
7.65674e-05
5.84209e-05
6.50768e-05
5.14615e-05
5.38052e-05
4.38081e-05
4.29258e-05
3.58644e-05
3.24218e-05
2.81793e-05
2.25816e-05
2.10861e-05
1.37827e-05
5.57473e-06
1.46163e-05
1.38135e-06
6.32143e-05
2.31976e-06
6.51777e-05
3.22089e-06
6.65136e-05
4.45747e-06
6.84502e-05
6.39896e-06
7.11289e-05
9.43052e-06
7.45796e-05
1.39622e-05
7.88344e-05
2.03774e-05
8.38576e-05
2.88203e-05
8.9345e-05
3.88831e-05
9.45229e-05
4.9442e-05
9.81917e-05
5.90633e-05
9.92748e-05
6.66487e-05
9.73696e-05
7.15387e-05
9.26404e-05
7.35732e-05
8.56557e-05
7.29911e-05
7.71496e-05
7.02755e-05
6.77925e-05
6.60075e-05
5.80733e-05
6.06866e-05
4.82468e-05
5.46581e-05
3.84505e-05
4.83017e-05
2.89381e-05
4.20893e-05
1.99953e-05
1.14358e-05
3.62282e-05
1.96252e-06
6.12519e-05
3.69986e-06
6.34405e-05
5.4353e-06
6.47783e-05
7.42528e-06
6.64603e-05
9.93742e-06
6.86169e-05
1.32569e-05
7.12603e-05
1.76877e-05
7.44036e-05
2.35165e-05
7.80289e-05
3.08869e-05
8.19748e-05
3.96021e-05
8.58078e-05
4.89901e-05
8.88038e-05
5.80702e-05
9.01948e-05
6.59309e-05
8.95091e-05
7.19214e-05
8.665e-05
7.57351e-05
8.18421e-05
7.73862e-05
7.54986e-05
7.71156e-05
6.80633e-05
7.52794e-05
5.99095e-05
7.22285e-05
5.12977e-05
6.82535e-05
4.24256e-05
6.36646e-05
3.35272e-05
5.88401e-05
2.48199e-05
1.62854e-05
5.39905e-05
2.31303e-06
5.8939e-05
4.56779e-06
6.11859e-05
6.86836e-06
6.24778e-05
9.3822e-06
6.39466e-05
1.2293e-05
6.57062e-05
1.58007e-05
6.77526e-05
2.01219e-05
7.00826e-05
2.54652e-05
7.26856e-05
3.19586e-05
7.54815e-05
3.95277e-05
7.82388e-05
4.77933e-05
8.05382e-05
5.61206e-05
8.18676e-05
6.38209e-05
8.18089e-05
7.03217e-05
8.01494e-05
7.52644e-05
7.68995e-05
7.85241e-05
7.2239e-05
8.01642e-05
6.64233e-05
8.03644e-05
5.97094e-05
7.93432e-05
5.2319e-05
7.73179e-05
4.44511e-05
7.45298e-05
3.63154e-05
7.12497e-05
2.81001e-05
1.98829e-05
6.76523e-05
2.49696e-06
5.64421e-05
5.05388e-06
5.8629e-05
7.70077e-06
5.9831e-05
1.05429e-05
6.11045e-05
1.37003e-05
6.25489e-05
1.73059e-05
6.41471e-05
2.15069e-05
6.58817e-05
2.64505e-05
6.7742e-05
3.2242e-05
6.96901e-05
3.88714e-05
7.16095e-05
4.61409e-05
7.32688e-05
5.36626e-05
7.43461e-05
6.09527e-05
7.45189e-05
6.75501e-05
7.3552e-05
7.31065e-05
7.13432e-05
7.74264e-05
6.79191e-05
8.04575e-05
6.33923e-05
8.22514e-05
5.79156e-05
8.29173e-05
5.16533e-05
8.25928e-05
4.47757e-05
8.14442e-05
3.74642e-05
7.96541e-05
2.98904e-05
2.2182e-05
7.7355e-05
2.55852e-06
5.38837e-05
5.25901e-06
5.59286e-05
8.08505e-06
5.70051e-05
1.10992e-05
5.80905e-05
1.43768e-05
5.92713e-05
1.80015e-05
6.05225e-05
2.20678e-05
6.18154e-05
2.66754e-05
6.31345e-05
3.1905e-05
6.44605e-05
3.77761e-05
6.57386e-05
4.41971e-05
6.68478e-05
5.09461e-05
6.75971e-05
5.7705e-05
6.77601e-05
6.41287e-05
6.71285e-05
6.99143e-05
6.55577e-05
7.48461e-05
6.29874e-05
7.88059e-05
5.94326e-05
8.17592e-05
5.49624e-05
8.37309e-05
4.96817e-05
8.47861e-05
4.37206e-05
8.50209e-05
3.72296e-05
8.45483e-05
3.03631e-05
2.32655e-05
8.34649e-05
2.53402e-06
5.13497e-05
5.26285e-06
5.31998e-05
8.14278e-06
5.41252e-05
1.12086e-05
5.50247e-05
1.45058e-05
5.59742e-05
1.80833e-05
5.6945e-05
2.19977e-05
5.79011e-05
2.63121e-05
5.88202e-05
3.10844e-05
5.96882e-05
3.6343e-05
6.048e-05
4.20547e-05
6.11363e-05
4.81022e-05
6.15497e-05
5.429e-05
6.15724e-05
6.03765e-05
6.1042e-05
6.61195e-05
5.98148e-05
7.13147e-05
5.77924e-05
7.58159e-05
5.49315e-05
7.9537e-05
5.12414e-05
8.24433e-05
4.67755e-05
8.45404e-05
4.16236e-05
8.58669e-05
3.59032e-05
8.64821e-05
2.97481e-05
2.33e-05
8.64477e-05
2.4481e-06
4.89017e-05
5.12349e-06
5.05245e-05
7.96677e-06
5.1282e-05
1.09946e-05
5.19969e-05
1.42332e-05
5.27356e-05
1.77093e-05
5.3469e-05
2.1453e-05
5.41575e-05
2.55004e-05
5.47728e-05
2.98895e-05
5.52992e-05
3.46466e-05
5.5723e-05
3.97667e-05
5.60162e-05
4.51948e-05
5.61216e-05
5.0819e-05
5.59484e-05
5.64807e-05
5.53804e-05
6.19992e-05
5.42964e-05
6.71995e-05
5.25921e-05
7.19335e-05
5.01976e-05
7.60902e-05
4.70847e-05
7.95973e-05
4.32685e-05
8.24181e-05
3.8803e-05
8.45467e-05
3.37748e-05
8.60013e-05
2.82936e-05
2.24849e-05
8.68164e-05
2.32152e-06
4.65802e-05
4.88619e-06
4.79599e-05
7.62751e-06
4.85407e-05
1.05513e-05
4.90733e-05
1.36722e-05
4.96147e-05
1.7003e-05
5.01382e-05
2.05568e-05
5.06038e-05
2.43508e-05
5.09789e-05
2.84061e-05
5.12439e-05
3.27421e-05
5.13871e-05
3.73646e-05
5.13938e-05
4.22518e-05
5.12345e-05
4.73447e-05
5.08556e-05
5.25454e-05
5.01797e-05
5.77274e-05
4.91145e-05
6.27519e-05
4.75678e-05
6.74848e-05
4.54647e-05
7.181e-05
4.27595e-05
7.56366e-05
3.94421e-05
7.89007e-05
3.55389e-05
8.15663e-05
3.11092e-05
8.36221e-05
2.6238e-05
2.10294e-05
8.50776e-05
2.16789e-06
4.44125e-05
4.58344e-06
4.55444e-05
7.17793e-06
4.59463e-05
9.9505e-06
4.63007e-05
1.29095e-05
4.66558e-05
1.60601e-05
4.69876e-05
1.94054e-05
4.72586e-05
2.29499e-05
4.74346e-05
2.67019e-05
4.7492e-05
3.06722e-05
4.74168e-05
3.48677e-05
4.71984e-05
3.92821e-05
4.68201e-05
4.38865e-05
4.62513e-05
4.86239e-05
4.54424e-05
5.34102e-05
4.43283e-05
5.81417e-05
4.28363e-05
6.27069e-05
4.08996e-05
6.69977e-05
3.84688e-05
7.09187e-05
3.55212e-05
7.43935e-05
3.20642e-05
7.73675e-05
2.81353e-05
7.98088e-05
2.37968e-05
1.91287e-05
8.17095e-05
1.99938e-06
4.24131e-05
4.24123e-06
4.33026e-05
6.65851e-06
4.35291e-05
9.24722e-06
4.37121e-05
1.20123e-05
4.38908e-05
1.49555e-05
4.40445e-05
1.80748e-05
4.41393e-05
2.13671e-05
4.41422e-05
2.4832e-05
4.40271e-05
2.84722e-05
4.37767e-05
3.22911e-05
4.33795e-05
3.62872e-05
4.28241e-05
4.04469e-05
4.20917e-05
4.47379e-05
4.11515e-05
4.91064e-05
3.99598e-05
5.34787e-05
3.84641e-05
5.77673e-05
3.66111e-05
6.18795e-05
3.43568e-05
6.57258e-05
3.16749e-05
6.92277e-05
2.85625e-05
7.23222e-05
2.50408e-05
7.49659e-05
2.11533e-05
1.69589e-05
7.71357e-05
1.82367e-06
4.05896e-05
3.87806e-06
4.12484e-05
6.09993e-06
4.13073e-05
8.48373e-06
4.13284e-05
1.10329e-05
4.13417e-05
1.37484e-05
4.13291e-05
1.66263e-05
4.12615e-05
1.96603e-05
4.11083e-05
2.28442e-05
4.08432e-05
2.61746e-05
4.04464e-05
2.96499e-05
3.99043e-05
3.32682e-05
3.92058e-05
3.70219e-05
3.8338e-05
4.08921e-05
3.72814e-05
4.48445e-05
3.60075e-05
4.8828e-05
3.44806e-05
5.27771e-05
3.2662e-05
5.66168e-05
3.05172e-05
6.02694e-05
2.80224e-05
6.36615e-05
2.51704e-05
6.67298e-05
2.19727e-05
6.94251e-05
1.8458e-05
1.46675e-05
7.17166e-05
1.64777e-06
3.89419e-05
3.50882e-06
3.93874e-05
5.52565e-06
3.92905e-05
7.6926e-06
3.91615e-05
1.00126e-05
3.90218e-05
1.24866e-05
3.88551e-05
1.51112e-05
3.86369e-05
1.78793e-05
3.83404e-05
2.07821e-05
3.79405e-05
2.3812e-05
3.74165e-05
2.69635e-05
3.67529e-05
3.02316e-05
3.59377e-05
3.36098e-05
3.49599e-05
3.70853e-05
3.38059e-05
4.06353e-05
3.24576e-05
4.42243e-05
3.08916e-05
4.78043e-05
2.9082e-05
5.13171e-05
2.70044e-05
5.46988e-05
2.46407e-05
5.78854e-05
2.19839e-05
6.08181e-05
1.90399e-05
6.3448e-05
1.58283e-05
1.23771e-05
6.57383e-05
1.47557e-06
3.74665e-05
3.14357e-06
3.77195e-05
4.95305e-06
3.74811e-05
6.89874e-06
3.72159e-05
8.9834e-06
3.69372e-05
1.12087e-05
3.66299e-05
1.35723e-05
3.62733e-05
1.6068e-05
3.58447e-05
1.86869e-05
3.53217e-05
2.14194e-05
3.4684e-05
2.4257e-05
3.39154e-05
2.7192e-05
3.30027e-05
3.02166e-05
3.19354e-05
3.33198e-05
3.07027e-05
3.64849e-05
2.92925e-05
3.96864e-05
2.76902e-05
4.2889e-05
2.58795e-05
4.60484e-05
2.3845e-05
4.9114e-05
2.15751e-05
5.20329e-05
1.90651e-05
5.47533e-05
1.63196e-05
5.72295e-05
1.33521e-05
1.0182e-05
5.94247e-05
1.31093e-06
3.61555e-05
2.79033e-06
3.62401e-05
4.39493e-06
3.58766e-05
6.12055e-06
3.54903e-05
7.96987e-06
3.50879e-05
9.94502e-06
3.46548e-05
1.20451e-05
3.41733e-05
1.42653e-05
3.36245e-05
1.65979e-05
3.29891e-05
1.90332e-05
3.22487e-05
2.15614e-05
3.13872e-05
2.4173e-05
3.03913e-05
2.68583e-05
2.92501e-05
2.96066e-05
2.79544e-05
3.24036e-05
2.64955e-05
3.52297e-05
2.48641e-05
3.80584e-05
2.30509e-05
4.0856e-05
2.10475e-05
4.35832e-05
1.8848e-05
4.61972e-05
1.64511e-05
4.8655e-05
1.38618e-05
5.09162e-05
1.10911e-05
8.15344e-06
5.29448e-05
1.15533e-06
3.50004e-05
2.45358e-06
3.4942e-05
3.85974e-06
3.44705e-05
5.37089e-06
3.39792e-05
6.98974e-06
3.34691e-05
8.71864e-06
3.29259e-05
1.05577e-05
3.23343e-05
1.25037e-05
3.16785e-05
1.45506e-05
3.09423e-05
1.66898e-05
3.01095e-05
1.89116e-05
2.91654e-05
2.12056e-05
2.80972e-05
2.35614e-05
2.68944e-05
2.59675e-05
2.55483e-05
2.84109e-05
2.40521e-05
3.08751e-05
2.23999e-05
3.33392e-05
2.05869e-05
3.57771e-05
1.86096e-05
3.81584e-05
1.64666e-05
4.04496e-05
1.416e-05
4.26153e-05
1.16961e-05
4.46213e-05
9.08506e-06
6.33838e-06
4.64364e-05
1.01015e-06
3.39902e-05
2.13618e-06
3.3816e-05
3.35234e-06
3.32544e-05
4.65761e-06
3.26739e-05
6.05463e-06
3.20721e-05
7.54564e-06
3.14349e-05
9.13117e-06
3.07488e-05
1.08093e-05
3.00004e-05
1.25756e-05
2.9176e-05
1.44231e-05
2.8262e-05
1.6343e-05
2.72455e-05
1.83255e-05
2.61148e-05
2.03598e-05
2.48601e-05
2.24345e-05
2.34736e-05
2.45371e-05
2.19495e-05
2.66529e-05
2.02841e-05
2.87646e-05
1.84752e-05
3.08515e-05
1.65226e-05
3.289e-05
1.44282e-05
3.48533e-05
1.21967e-05
3.67138e-05
9.83563e-06
3.84434e-05
7.35551e-06
4.76708e-06
4.00147e-05
8.74595e-07
3.31158e-05
1.83797e-06
3.28526e-05
2.87426e-06
3.22181e-05
3.98438e-06
3.15638e-05
5.17099e-06
3.08855e-05
6.43597e-06
3.01699e-05
7.77985e-06
2.94049e-05
9.2014e-06
2.85788e-05
1.06974e-05
2.768e-05
1.22623e-05
2.66971e-05
1.3889e-05
2.56188e-05
1.55687e-05
2.44352e-05
1.72913e-05
2.31374e-05
1.90461e-05
2.17188e-05
2.0821e-05
2.01746e-05
2.2603e-05
1.85021e-05
2.43771e-05
1.67011e-05
2.61266e-05
1.47732e-05
2.78324e-05
1.27223e-05
2.94741e-05
1.0555e-05
3.10297e-05
8.28014e-06
3.24765e-05
5.90852e-06
3.45062e-06
3.3793e-05
7.47807e-07
3.23679e-05
1.55762e-06
3.20428e-05
2.42443e-06
3.13513e-05
3.35141e-06
3.06368e-05
4.34103e-06
2.98959e-05
5.39455e-06
2.91164e-05
6.51208e-06
2.82874e-05
7.69256e-06
2.73983e-05
8.93345e-06
2.64391e-05
1.02306e-05
2.53999e-05
1.15782e-05
2.42712e-05
1.29688e-05
2.30445e-05
1.43939e-05
2.17123e-05
1.58436e-05
2.02691e-05
1.7307e-05
1.87111e-05
1.87726e-05
1.70365e-05
2.02275e-05
1.52462e-05
2.16578e-05
1.33429e-05
2.30484e-05
1.13317e-05
2.43833e-05
9.22011e-06
2.56457e-05
7.01769e-06
2.68185e-05
4.73584e-06
2.38598e-06
2.78831e-05
6.26832e-07
3.17411e-05
1.29132e-06
3.13783e-05
1.99962e-06
3.0643e-05
2.75657e-06
2.98799e-05
3.56421e-06
2.90882e-05
4.42293e-06
2.82577e-05
5.33219e-06
2.73781e-05
6.2907e-06
2.64398e-05
7.29624e-06
2.54336e-05
8.34547e-06
2.43506e-05
9.4338e-06
2.31828e-05
1.05553e-05
2.1923e-05
1.17026e-05
2.05649e-05
1.28676e-05
1.91041e-05
1.40409e-05
1.75378e-05
1.52124e-05
1.5865e-05
1.63713e-05
1.40872e-05
1.75063e-05
1.22078e-05
1.86056e-05
1.02324e-05
1.96572e-05
8.16849e-06
2.06488e-05
6.02612e-06
2.15675e-05
3.81693e-06
1.55353e-06
2.24e-05
5.08411e-07
3.12326e-05
1.03472e-06
3.0852e-05
1.59568e-06
3.0082e-05
2.19681e-06
2.92787e-05
2.83902e-06
2.8446e-05
3.52153e-06
2.75751e-05
4.24296e-06
2.66566e-05
5.00162e-06
2.56811e-05
5.79532e-06
2.46398e-05
6.62123e-06
2.35247e-05
7.4756e-06
2.23284e-05
8.35371e-06
2.10448e-05
9.24975e-06
1.96688e-05
1.0157e-05
1.81969e-05
1.10677e-05
1.6627e-05
1.19736e-05
1.49591e-05
1.28659e-05
1.31948e-05
1.37357e-05
1.1338e-05
1.45742e-05
9.39387e-06
1.53728e-05
7.36983e-06
1.61239e-05
5.27491e-06
1.68198e-05
3.12109e-06
9.24532e-07
1.74487e-05
3.87543e-07
3.08452e-05
7.82676e-07
3.04569e-05
1.20908e-06
2.96556e-05
1.67052e-06
2.88172e-05
2.16585e-06
2.79506e-05
2.69284e-06
2.70481e-05
3.24926e-06
2.61002e-05
3.83295e-06
2.50974e-05
4.44169e-06
2.4031e-05
5.07292e-06
2.28934e-05
5.72352e-06
2.16778e-05
6.38973e-06
2.03786e-05
7.06697e-06
1.89916e-05
7.74986e-06
1.75139e-05
8.43232e-06
1.59445e-05
9.10767e-06
1.42837e-05
9.76892e-06
1.25335e-05
1.04092e-05
1.06977e-05
1.1022e-05
8.78095e-06
1.16027e-05