/*--------------------------------*- C++ -*----------------------------------*\
  =========                 |
  \\      /  F ield         | OpenFOAM: The Open Source CFD Toolbox
   \\    /   O peration     | Website:  https://openfoam.org
    \\  /    A nd           | Version:  13
     \\/     M anipulation  |
\*---------------------------------------------------------------------------*/
FoamFile
{
    format      ascii;
    class       volScalarField;
    location    "0.9";
    object      rho;
}
// * * * * * * * * * * * * * * * * * * * * * * * * * * * * * * * * * * * * * //

dimensions      [1 -3 0 0 0 0 0];

internalField   nonuniform List<scalar> 
2268
(
13529
13529
13529
13529
13529
13529
13529
13529
13529
13529
13529
13529
13529
13529
13529
13529
13529
13529
13529
13529
13526.6
13521.6
13521.6
13529
13529
13529
13529
13529
13529
13529
13529
13529
13529
13529
13529
13529
13529
13529
13529
13529
13529
13529
13529
13528.9
13526.5
13522.3
13529
13529
13529
13529
13529
13529
13529
13529
13529
13529
13529
13529
13529
13529
13529
13529
13529
13529
13529
13529
13529
13529
13528.9
13529
13529
13529
13529
13529
13529
13529
13529
13529
13529
13529
13529
13529
13529
13529
13529
13529
13529
13529
13529
13529
13529
13529
13529
13529
13529
13529
13529
13529
13529
13529
13529
13529
13529
13529
13529
13529
13529
13529
13529
13529
13529
13529
13529
13528.9
13528.7
13529
13529
13529
13529
13529
13529
13529
13529
13529
13529
13529
13529
13529
13514
13449.6
13325.1
13138.9
12898.2
12622.2
12313.6
11963.4
11541.1
11135.3
11664.5
9087.51
9287.42
10040.2
10671.2
11260.4
11556.6
11393.8
10860.2
10298.9
9787.8
9187.37
8433.09
7469.06
6522.37
5637.27
4850.45
4168.97
3607.29
3124.83
2681.2
2299.75
2076.54
2272.83
1193.31
1264.23
1518.65
1812.88
1979.51
1885.82
1778.33
1807.29
1787.12
1612.13
1309.3
1031.71
1000
1000
1000
999.999
999.998
999.997
999.997
999.992
1003.36
1455.11
1002.6
954.303
951.83
1775.02
2836.17
2724.17
2025.2
1530.78
1528.93
2065.94
5598.77
7428.05
5255.6
4281.75
3724.39
3391.47
5627.61
9113.36
9168.52
975.008
952.514
1446.25
3353.24
5804.35
5973.3
5931.2
5745.49
6335.41
8945.57
11784.8
11801
11282
10683.4
8068.08
3454.6
4557.55
9131.51
9246.93
864.239
1992.55
2802.41
2850.42
2345.76
2820.75
4004.02
5420.42
5420.7
4790.67
5282.94
8289.1
11690.4
11853.6
11817.6
4371.05
3464.38
5800.02
9292.5
1238.64
2310.28
2256.7
1132.32
1003.33
1002.94
1002.85
1006.87
1061.68
1007.3
1001.71
1654.74
5642.72
9625.24
11665.7
6911.85
2610.54
3212.63
9396.37
1944.22
1584.94
999.299
999.569
1000.11
999.772
999.803
1000.11
1000.8
1000.65
1001.63
999.605
1001.37
2590.63
8795.36
9743.03
2680.45
3241.28
9410.18
1111.44
959.078
955.994
965.113
982.635
994.743
999.108
999.77
999.849
999.953
1000.28
999.47
999.33
1751.09
8857.9
9885.03
4776.77
6333.96
9414.16
603.396
624.44
637.304
688.786
715.552
777.415
860.796
943.887
998.883
999.826
999.841
999.887
999.459
2577.51
7430.61
7102.28
5305.79
8890.69
9429.27
418.113
330.037
378.233
464.684
479.414
489.467
535.184
624.341
774.803
956.149
999.812
1000.13
1037.17
2451.4
2884.4
3721.75
3396.76
8661.21
9428.25
1000
1000
1000
1000
1000
1000
1000
1000
1000
1000
1000
1000
1000
1000
1000
1000
1000
1000
1000
999.999
1000.02
1027.92
2035
1000
1000
1000
1000
1000
1000
1000
1000
1000
1000
1000
1000
1000
1000
1000
1000
1000
1000
999.958
990.649
831.056
379.528
261.311
1000
1000
1000
1000
1000
1000
1000
1000
1000
1000
1000
1000
1000
1000
1000
1000
998.353
981.157
787.8
449.834
281.319
419.151
500
1000
1000
1000
1000
1000
1000
1000
1000
1000
1000
1000
1000
1000
1000
1000
973.219
591.234
323.191
240.314
473.007
500.051
500
500
1000
1000
1000
1000
1000
1000
1000
1000
1000
1000
1000
1000
988.345
807.122
507.627
404.096
310.351
496.534
495.361
496.554
499.99
500
499.999
1000
1000
1000
1000
1000
1000
968.007
906.123
857.193
819.195
768.448
615.629
454.8
360.372
421.462
489.433
479.74
498.239
500
500
499.998
500
499.956
856.493
872.296
839.931
755.522
624.35
454.534
302.326
207.819
150.298
114.564
90.6023
123.081
464.89
502.948
494.158
499.999
499.999
499.999
499.998
500
500
500
499.996
112.463
124.665
101.128
54.8835
17.0177
1.3691
1
1
1
1.00879
2.64571
306.209
500.925
500.897
500.026
500.004
500.005
500.002
500
500
497.108
496.736
500
1
1
1.00033
1.00041
1.0003
1.00002
1.00001
1
1
1
1.04004
28.5235
197.029
448.175
499.973
497.904
462.381
421.96
372.079
272.857
215.086
255.053
308.684
1.00002
1.00002
1
1
1
1.00001
1.00001
1
1
1.00001
1.00007
1.00063
1.0016
30.8527
73.336
73.0269
48.748
22.6966
9.07608
2.05951
1.00011
1.00017
1.00004
1.00003
1.00002
1.00001
1
1
1.00001
1.00001
1
1.00001
1.00001
1.00001
1.00001
1.00005
1.00055
1.00037
1.00008
1.00001
1.00005
1.00017
1.00019
1.00019
1.0002
1.00006
1.00002
1.00001
1
1
1
1
1
1
1.00001
1.00001
1.00001
1.00001
1.00001
1
1.00001
1.00001
1.00001
1.00001
1.00004
1.00019
1.00067
1.00083
1.00023
1.00001
1
1
1
1
1
1
1
1
1.00001
1.00001
1.00002
1.00003
1.00003
1.00003
1.00007
1.00138
1.00297
1.00163
1.00054
1.00088
1.00184
1.00172
1
1
1
1
1
1
1
1
1
1
1.00001
1.00002
1.00004
1.00006
1.00015
1.00033
1.00093
1.00069
1.06182
1.11877
1.03553
1.00174
1.00426
1
1
1
1
1
1
1
1
1
1
1
1.00001
1.00003
1.00004
1.00013
1.00028
1.00067
1.00003
1.03625
1.11886
1.11877
1.04941
1.00294
1
1
1
1
1
1
1
1
1
1
1
1
1.00001
1.00003
1.00008
1.00012
1.00014
1.00002
1.00003
1.06695
1.11887
1.08038
1.00336
1
1
1
1
1
1
1
1
1
1
1
1
1
1.00001
1.00001
1
1
1.00001
1.00001
1.00084
1.03335
1.02282
1.00334
1
1
1
1
1
1
1
1
1
1
1
1
1
1
1
1
1
1.00001
1.00001
1.00001
1.00001
1.00001
1.0002
1
1
1
1
1
1
1
1
1
1
1
1
1
1
1
1
1
1.00001
1.00001
1.00001
1.00001
1.00001
1.00002
1
1
1
1
1
1
1
1
1
1
1
1
1
1
1
1
1
1
1.00001
1.00001
1.00001
1.00001
1.00001
1
1
1
1
1
1
1
1
1
1
1
1
1
1
1
1
1
1
1
1
1.00001
1.00001
1.00001
1
1
1
1
1
1
1
1
1
1
1
1
1
1
1
1
1
1
1
1
1
1
1
1
1
1
1
1
1
1
1
1
1
1
1
1
1
1
1
1
1
1
1
1
1
1
1
1
1
1
1
1
1
1
1
1
1
1
1
1
1
1
1
1
1
1
1
1
1
1
1
1
1
1
1
1
1
1
1
1
1
1
1
1
1
1
1
1
1
1
1
1
1
1
1
1
1
1
1
1
1
1
1
1
1
1
1
1
1
1
1
1
1
1
1
1
1
1
1
1
1
1
1
1
1
1
1
1
1
1
1
1
1
1
1
1
1
1
1
1
1
1
1
1
1
1
1
1
1
1
1
1
1
1
1
1
1
1
1
1
1
1
1
1
1
1
1
1
1
1
1
1
1
1
1
1
1
1
1
1
1
1
1
1
1
1
1
1
1
1
1
1
1
1
1
1
1
1
1
1
1
1
1
1
1
1
1
1
1
1
1
1
1
1
1
1
1
1
1
1
1
1
1
1
1
1
1
1
1
1
1
1
1
1
1
1
1
1
1
1
1
1
1
1
1
1
1
1
1
1
1
1
1
1
1
1
1
1
1
1
1
1
1
1
1
1
1
1
1
1
1
1
1
1
1
1
1
1
1
1
1
1
1
1
1
1
1
1
1
1
1
1
1
1
1
1
1
1
1
1
1
1
1
1
1
1
1
1
1
1
1
1
1
1
1
1
1
1
1
1
1
1
1
1
1
1
1
1
1
1
1
1
1
1
1
1
1
1
1
1
1
1
1
1
1
1
1
1
1
1
1
1
1
1
1
1
1
1
1
1
1
1
1
1
1
1
1
1
1
1
1
1
1
1
1
1
1
1
1
1
1
1
1
1
1
1
1
1
1
1
1
1
1
1
1
1
1
1
1
1
1
1
1
1
1
1
1
1
1
1
1
1
1
1
1
1
1
1
1
1
1
1
1
1
1
1
1
1
1
1
1
1
1
1
1
1
1
1
1
1
1
1
1
1
1
1
1
1
1
1
1
1
1
1
1
1
1
1
1
1
1
1
1
1
1
1
1
1
1
1
1
1
1
1
1
1
1
1
1
1
1
1
1
2278.82
2146.56
850.112
471.625
435.608
500
500
500
500
500
500
500
499.999
499.992
499.987
499.987
499.951
499.941
499.941
499.941
499.942
499.941
499.941
499.992
499.994
500
500
500
496.752
493.47
496.706
500
197.328
160.742
245.423
304.468
1
1
1.00001
1
1.00002
1.00002
1.00002
1.00001
1.00008
1.00004
1.00008
1.00007
1.00033
1.00011
1
1.00005
1.0042
1.00082
1.0004
1.00058
1.00529
1.00536
1.00493
1.00471
1.00556
1.00544
1.00532
1.00512
1.00121
1.00172
1.00427
1.00486
1.00018
1.00017
1.0001
1.00013
1.00001
1.00001
1.00002
1.00002
1.00001
1.00001
1.00001
1.00001
1.00001
1.00001
1.00001
1.00001
1
1
1
1
1
1
1
1
1
1
1
1
1
1
1
1
1
1
1
1
1
1
1
1
1
1
1
1
1
1
1
1
1
1
1
1
1
1
1
1
1
1
1
1
1
1
1
1
1
1
1
1
1
1
1
1
1
1
1
1
1
1
1
1
1
1
1
1
1
1
1
1
1
1
1
1
1
1
1
1
1
1
1
1
384.567
448.492
499.625
500.01
499.739
498.246
498.26
497.959
505.101
578.796
853.157
1002.17
1054.72
1893.38
1773.9
1738.85
3380.29
7188.04
8861.47
500
500
500
500
500.003
500.004
500.007
500.009
500.002
499.942
524.233
856.98
1039.98
1335.71
2528.72
3775.86
4890.88
4668.89
1328.68
500
500
500
500
500
500
500.001
500.002
500.004
500.006
499.999
537.122
882.098
1219.85
1977.72
3229.34
2534
982.871
501.714
499.994
500
500
500
500
500
500
500
500
500
499.989
499.976
532.208
822.355
1196.3
1591.76
1007.47
642.147
434.93
499.985
500
500
500
500
500
500
500
500
500
500
499.547
498.69
509.872
601.121
708.555
575.185
611.96
290.744
500
500
500
500
500
500
500
500
500
500
500
500
499.521
490.522
489.954
485.748
492.868
541.004
257.37
500
500
500
500
500
500
500
499.999
500
500
500.001
500.003
500.425
501.058
473.645
450.15
448.606
399.309
147.403
500
500
500
500
500
500
500
500
500
500
500
500
500
499.999
499.999
475.655
363.932
217.629
93.9571
321.418
351.386
393.397
432.204
462.065
480.832
491.057
496.268
498.672
499.464
499.65
498.836
496.622
492.995
483.494
437.065
268.718
174.814
84.1143
1
6.74776
29.4138
61.3308
101.712
142.606
179.026
210.725
236.815
252.891
256.857
234.271
207.002
178.263
135.389
108.474
118.882
150.888
181.423
1
0.999997
1
1
1
1
1.00002
1
1.00001
1
1.00003
1
1.00016
1.00015
1.00016
1.00015
1.00022
1.00015
1.01699
1.00008
1.00013
1.00023
1.00053
1.00056
1.00025
1.00016
1.00013
1.00009
1.0001
1.0001
1.00012
1.00013
1.16852
1.89604
2.04412
1.6381
1.14226
1.08146
1.00004
1.00008
1.00038
1.00113
1.00111
1.00108
1.00073
1.00041
1.00025
1.00041
1.00076
1.00041
1.00017
1.56038
3.16419
3.26952
2.23781
1.147
1.21574
1.00007
1
1.00021
1.00083
1.00106
1.00109
1.00103
1.00092
1.00051
1.00052
1.00173
1.0047
1.01663
1.10673
1.02057
1.0461
1
1
1
1.00249
1
1.00001
1.00001
1.00042
1.0007
1.00094
1.00093
1.00084
1.00101
1.00226
1.00713
1.00573
1
1
1
1.00252
1.00408
1
1.00499
1.00204
1.00001
1.00001
1.00001
1
1.00014
1.00057
1.00074
1.00026
1
1
1
1
1
1.00044
1.00533
1.00571
1.00001
1.00474
1.00388
1.00023
1.00002
1.00001
1.00001
1
1
1
1.00001
1
1.00001
1.00001
1.00001
1.00001
1
1
1.00149
1.00004
1.0009
1.00058
1.00043
1.00004
1.00002
1.00001
1
1
1
1
1
1.00001
1.00001
1.00001
1.00001
1
1
1
1.00045
1.00006
1.00005
1.00008
1.00006
1.00002
1.00001
1.00001
1
1
1
1
1.00001
1.00001
1.00001
1.00001
1.00001
1
1
1.00093
1.00003
1.00004
1.00003
1.00003
1.00002
1.00001
1.00001
1
1
1
1
1
1
1.00001
1.00001
1.00001
1
1
1.00091
1.00001
1.00001
1.00001
1.00001
1.00001
1.00001
1
1
1
1
1
1
1
1
1
1
1
1
1.0009
1
1.00001
1.00001
1.00001
1
1
1
1
1
1
1
1
1
1
1
1
1
1
1.00085
1
1
1
1
1
1
1
1
1
1
1
1
1
1
1
1
1
1
1.00092
1
1
1
1
1
1
1
1
1
1
1
1
1
1
1
1
1
1.00021
1.00092
1
1
1
1
1
1
1
1
1
1
1
1
1
1
1
1
1
1.00065
1.00093
1
1
1
1
1
1
1
1
1
1
1
1
1
1
1
1
1
1.00049
1.00085
1
1
1
1
1
1
1
1
1
1
1
1
1
1
1
1
1
1
1.00012
1
1
1
1
1
1
1
1
1
1
1
1
1
1
1
1
1.00001
1
1
1
1
1
1
1
1
1
1
1
1
1
1
1
1
1
1.00001
1.00001
1.00001
1
1
1
1
1
1
1
1
1
1
1
1
1
1
1
1
1.00001
1.00002
1.00002
1
1
1
1
1
1
1
1
1
1
1
1
1
1
1
1.00001
1.00002
1.00005
1.00002
1.00001
1
1
1
1
1
1
1
1
1
1
1
1
1
1
1.00001
1.00004
1.00005
1.00003
1
1
1
1
1
1
1
1
1
1
1
1
1
1
1.00001
1.00003
1.00007
1.00007
1.00004
1
1
1
1
1
1
1
1
1
1
1
1
1
1
1.00001
1.00005
1.00007
1.00007
1.00003
1
1
1
1
1
1
1
1
1
1
1
1
1
1
1.00002
1.00004
1.00006
1.00006
1.00002
1
1
1
1
1
1
1
1
1
1
1
1
1
1.00001
1.00001
1.00002
1.00004
1.00002
1.00001
1
1
1
1
1
1
1
1
1
1
1
1
1
1.00001
1.00001
1
1
1
1
1
1
1
1
1
1
1
1
1
1
1
1
1
1
1
1
1
1
1
1
1
1
1
1
1
1
1
1
1
1
1
1
1
1
1
1
1
1
1
1
1
1
1
1
1
1
1
1
1
1
1
1
1
1
1
1
1
1
1
1
1
1
1
1
1
1
1
1
1
1
1
1
1
1
1
1
1
1
1
1
1
1
1
1
1
1
1
1
1
1
1
1
1
1
1
1
)
;

boundaryField
{
    leftWall
    {
        type            calculated;
        value           nonuniform List<scalar> 
50
(
13529
13529
13529
13529
13529
13529
11664.5
2272.83
1000
1000
1000
1000
1000
1000
856.493
112.463
1
1.00002
1.00003
1.00002
1.00001
1
1
1
1
1
1
1
1
1
1
1
1
1
1
1
1
1
1
1
1
1
1
1
1
1
1
1
1
1
)
;
    }
    rightWall
    {
        type            calculated;
        value           nonuniform List<scalar> 
50
(
9168.52
9246.93
9292.5
9396.37
9410.18
9414.16
9429.27
9428.25
8861.47
1328.68
501.714
434.93
290.744
257.37
147.403
93.9571
84.1143
181.423
1.01699
1.08146
1.21574
1
1
1.00001
1.00004
1.00045
1.00093
1.00091
1.0009
1.00085
1.00092
1.00092
1.00093
1.00085
1.00012
1
1
1
1.00001
1
1
1
1
1
1
1
1
1
1
1
)
;
    }
    lowerWall
    {
        type            calculated;
        value           nonuniform List<scalar> 
62
(
13529
13529
13529
13529
13529
13529
13529
13529
13529
13529
13529
13529
13529
13529
13529
13529
13529
13529
13529
13529
13526.6
13521.6
13521.6
13521.6
13522.3
13528.9
13529
13528.7
11135.3
2076.54
1455.11
2278.82
2146.56
850.112
471.625
1002.6
975.008
864.239
1238.64
1944.22
1111.44
603.396
418.113
1002.6
954.303
951.83
1775.02
2836.17
2724.17
2025.2
1530.78
1528.93
2065.94
5598.77
7428.05
5255.6
4281.75
3724.39
3391.47
5627.61
9113.36
9168.52
)
;
    }
    atmosphere
    {
        type            calculated;
        value           nonuniform List<scalar> 
46
(
1
1
1
1
1
1
1
1
1
1
1
1
1
1
1
1
1
1
1
1
1
1
1
1
1
1
1
1
1
1
1
1
1
1
1
1
1
1
1
1
1
1
1
1
1
1
)
;
    }
    defaultFaces
    {
        type            empty;
    }
}


// ************************************************************************* //
