/*--------------------------------*- C++ -*----------------------------------*\
  =========                 |
  \\      /  F ield         | OpenFOAM: The Open Source CFD Toolbox
   \\    /   O peration     | Website:  https://openfoam.org
    \\  /    A nd           | Version:  13
     \\/     M anipulation  |
\*---------------------------------------------------------------------------*/
FoamFile
{
    format      ascii;
    class       volScalarField;
    location    "313";
    object      nuTilda;
}
// * * * * * * * * * * * * * * * * * * * * * * * * * * * * * * * * * * * * * //

dimensions      [0 2 -1 0 0 0 0];

internalField   nonuniform List<scalar> 
10720
(
0.0918144
0.0963416
0.101429
0.106946
0.113212
0.120234
0.128152
0.136825
0.146207
0.155965
0.165623
0.174755
0.182544
0.188545
0.192682
0.195129
0.196093
0.195855
0.194535
0.192324
0.189207
0.185262
0.180532
0.175238
0.169783
0.164447
0.159223
0.153976
0.14861
0.143121
0.137506
0.131735
0.125774
0.119579
0.112977
0.10586
0.0971599
0.0874782
0.0650887
0.087478
0.0827898
0.0776741
0.0713509
0.0637901
0.0543509
0.0430585
0.0369932
0.0346884
0.0392987
0.0460752
0.0517511
0.056545
0.0609471
0.0652298
0.0694788
0.0736736
0.077758
0.0816775
0.085417
0.0889898
0.0924238
0.0957481
0.0989611
0.101875
0.104267
0.106114
0.107464
0.108376
0.108876
0.109022
0.108947
0.108647
0.108066
0.107114
0.105772
0.103591
0.101027
0.0912321
0.100289
0.0998796
0.0991842
0.098223
0.0971924
0.0960204
0.0947889
0.0936085
0.0925996
0.0926808
0.0938122
0.0957247
0.0985036
0.102245
0.106942
0.112435
0.118642
0.12531
0.132289
0.139223
0.145979
0.15213
0.157369
0.161094
0.162836
0.162695
0.161097
0.158372
0.154849
0.150788
0.146385
0.141776
0.137064
0.132345
0.127725
0.123336
0.119347
0.116299
0.110542
0.100707
0.100804
0.10105
0.100812
0.100335
0.0995373
0.0981739
0.095892
0.0929707
0.0893235
0.0852494
0.0811057
0.0770318
0.0730673
0.0693482
0.065939
0.0628922
0.0602292
0.0579664
0.0560899
0.0545892
0.0534429
0.0526269
0.0521036
0.051847
0.0518177
0.0519499
0.0521764
0.0524423
0.052917
0.0546201
0.057561
0.0610196
0.0643701
0.0672945
0.06985
0.0719921
0.0759155
0.0792718
0.121576
0.121409
0.121034
0.120452
0.119778
0.118902
0.117826
0.116605
0.115192
0.113615
0.111937
0.110315
0.108888
0.107756
0.106914
0.106201
0.105644
0.105289
0.10507
0.104445
0.10435
0.10496
0.106467
0.10808
0.113631
0.120498
0.127219
0.13311
0.137906
0.141515
0.14397
0.145398
0.145981
0.145907
0.14536
0.144425
0.143398
0.141502
0.140557
0.121736
0.121678
0.121666
0.121399
0.120937
0.120252
0.11927
0.117953
0.116301
0.114291
0.111918
0.109249
0.10633
0.103173
0.0998748
0.0964775
0.0930446
0.0896216
0.0862615
0.0829784
0.0798005
0.0767249
0.0737619
0.0708195
0.0678488
0.0649125
0.0620508
0.0593053
0.0567049
0.0542918
0.0520674
0.0506769
0.0507959
0.0520631
0.0539956
0.0564026
0.0591467
0.0622635
0.0672882
0.128697
0.128593
0.128388
0.128079
0.127705
0.127225
0.126631
0.125944
0.125133
0.124205
0.123159
0.121982
0.120676
0.119248
0.117738
0.1161
0.11424
0.112196
0.109967
0.107532
0.104954
0.10242
0.100134
0.0981023
0.0968912
0.0967641
0.097591
0.101306
0.107231
0.11409
0.121189
0.128093
0.134502
0.140258
0.145362
0.149851
0.154025
0.15703
0.15964
0.128774
0.128765
0.128748
0.128607
0.128369
0.128004
0.127473
0.126751
0.125832
0.124697
0.12334
0.121774
0.120005
0.118024
0.115862
0.113532
0.111061
0.108478
0.105816
0.103092
0.100334
0.0975502
0.0947375
0.0918125
0.0887105
0.0854779
0.0821445
0.0787471
0.0753183
0.0718921
0.0684911
0.0651529
0.0620047
0.0592221
0.0567413
0.0558816
0.0564771
0.0575418
0.0606803
0.132288
0.132219
0.132083
0.131886
0.13165
0.131343
0.130967
0.130531
0.130015
0.129424
0.128752
0.127991
0.127132
0.126169
0.125088
0.123879
0.122512
0.120954
0.11916
0.117111
0.114768
0.112143
0.109273
0.106268
0.103283
0.10082
0.0987242
0.0967604
0.0957949
0.0959649
0.0992312
0.105033
0.112365
0.120752
0.129805
0.13926
0.149073
0.159198
0.168386
0.132337
0.132328
0.132316
0.132223
0.132073
0.131836
0.131494
0.131036
0.130462
0.129762
0.128928
0.127965
0.126871
0.125632
0.124261
0.122752
0.121116
0.119357
0.11749
0.11552
0.113459
0.111309
0.109062
0.106651
0.104017
0.101184
0.098166
0.094985
0.0916617
0.0882191
0.0846818
0.0810712
0.0774113
0.0737465
0.0700839
0.0665553
0.0634331
0.0604347
0.0596095
0.134342
0.134293
0.134203
0.134071
0.133908
0.133699
0.133443
0.133144
0.132793
0.132389
0.13193
0.131408
0.130819
0.130155
0.129404
0.128558
0.127598
0.126508
0.125252
0.123808
0.12213
0.120188
0.117945
0.115412
0.112675
0.109843
0.106979
0.104024
0.101179
0.0986144
0.0965527
0.0957783
0.0966289
0.101634
0.10945
0.119847
0.132657
0.148946
0.166839
0.134372
0.134365
0.134354
0.134288
0.134187
0.134023
0.133785
0.13347
0.133081
0.132612
0.132057
0.131421
0.130699
0.129883
0.128978
0.127977
0.126881
0.125689
0.124405
0.123027
0.121559
0.119993
0.118321
0.116487
0.114441
0.112186
0.109722
0.107055
0.104189
0.101135
0.0979037
0.0945127
0.090975
0.0873067
0.0835186
0.079568
0.0754821
0.0708617
0.0646045
0.135653
0.135618
0.135553
0.135457
0.135339
0.135188
0.135003
0.134789
0.134537
0.134248
0.133919
0.133546
0.133124
0.132648
0.132108
0.131499
0.130805
0.130016
0.12911
0.128067
0.126858
0.12546
0.123838
0.121976
0.119896
0.117607
0.115102
0.112391
0.109491
0.10646
0.103299
0.100336
0.0976008
0.096193
0.0968973
0.102676
0.113079
0.130694
0.156087
0.135674
0.135666
0.135656
0.135606
0.135533
0.135413
0.135237
0.135007
0.134727
0.134392
0.134
0.133553
0.13305
0.132485
0.131858
0.131165
0.130404
0.129573
0.128672
0.127697
0.126648
0.125516
0.124291
0.12293
0.121391
0.119668
0.117752
0.115636
0.113315
0.110784
0.108042
0.105094
0.101941
0.098588
0.0950342
0.0912362
0.0870995
0.0825053
0.0737897
0.136553
0.136527
0.136479
0.136407
0.136317
0.136203
0.136064
0.135902
0.135713
0.135497
0.135251
0.134972
0.134656
0.1343
0.133896
0.133438
0.132917
0.132324
0.131643
0.130862
0.129959
0.128919
0.127722
0.126351
0.124811
0.123093
0.121165
0.119007
0.116593
0.113923
0.110987
0.107834
0.104474
0.101134
0.0981094
0.0966903
0.100117
0.112042
0.139416
0.136567
0.13656
0.136549
0.136509
0.136454
0.136362
0.136227
0.136051
0.135839
0.135589
0.135299
0.134972
0.134606
0.134198
0.133746
0.133248
0.1327
0.1321
0.131449
0.130741
0.129975
0.129143
0.128235
0.127221
0.126065
0.124761
0.123296
0.121658
0.119833
0.117811
0.115581
0.113136
0.110467
0.107566
0.10442
0.100989
0.0971142
0.092925
0.0839281
0.137205
0.137185
0.137147
0.13709
0.13702
0.136931
0.136822
0.136697
0.136551
0.136384
0.136195
0.135981
0.13574
0.135468
0.13516
0.134811
0.134414
0.133963
0.133444
0.132847
0.132157
0.131361
0.130444
0.129397
0.128224
0.126915
0.125439
0.12377
0.12188
0.119739
0.117317
0.114585
0.111533
0.108157
0.104473
0.100646
0.0978456
0.100359
0.122249
0.137215
0.137207
0.137196
0.137162
0.137119
0.137047
0.136939
0.1368
0.136635
0.136441
0.136219
0.135971
0.135694
0.135388
0.135052
0.134682
0.134276
0.133832
0.133348
0.132821
0.132248
0.131623
0.130938
0.130168
0.12929
0.128295
0.127171
0.125905
0.124484
0.122893
0.121116
0.119139
0.116948
0.114525
0.111847
0.108874
0.105415
0.101708
0.0933346
0.137696
0.137679
0.137649
0.137603
0.137547
0.137475
0.137388
0.137288
0.137171
0.137039
0.13689
0.136721
0.13653
0.136316
0.136073
0.135799
0.135487
0.135132
0.134725
0.134259
0.133723
0.133105
0.132393
0.131581
0.13067
0.129652
0.128504
0.127203
0.125724
0.124035
0.122101
0.119887
0.117347
0.114424
0.111074
0.107123
0.102833
0.0979525
0.109723
0.137703
0.137695
0.137684
0.137654
0.137619
0.137561
0.137473
0.13736
0.137227
0.137073
0.136898
0.136704
0.13649
0.136254
0.135996
0.135714
0.135406
0.135068
0.134701
0.1343
0.133862
0.133383
0.132856
0.132262
0.131583
0.130813
0.12994
0.128954
0.127843
0.12659
0.125182
0.123601
0.121829
0.119846
0.11762
0.115115
0.112131
0.108932
0.101505
0.138077
0.138063
0.138038
0.138
0.137953
0.137894
0.137823
0.137741
0.137646
0.137539
0.137419
0.137283
0.13713
0.136959
0.136765
0.136546
0.136298
0.136016
0.135693
0.135322
0.134895
0.134404
0.133841
0.133198
0.132477
0.131672
0.130763
0.129733
0.128561
0.127221
0.125681
0.123903
0.121842
0.119436
0.116614
0.113156
0.109112
0.102602
0.104408
0.138083
0.138075
0.138063
0.138037
0.138008
0.137959
0.137886
0.137792
0.137684
0.137558
0.137417
0.137261
0.137091
0.136905
0.136703
0.136483
0.136244
0.135982
0.135697
0.135386
0.135046
0.134673
0.13426
0.133795
0.133262
0.132656
0.131969
0.131192
0.130313
0.129321
0.1282
0.126936
0.125509
0.123899
0.122073
0.119997
0.117478
0.114775
0.108384
0.138381
0.138369
0.138347
0.138315
0.138275
0.138226
0.138166
0.138098
0.13802
0.137931
0.137832
0.137721
0.137596
0.137456
0.137298
0.13712
0.136918
0.136689
0.136427
0.136128
0.135784
0.135389
0.134936
0.134422
0.133844
0.133199
0.132469
0.131642
0.130701
0.129624
0.128386
0.126955
0.12529
0.123329
0.121006
0.118116
0.114658
0.108916
0.104401
0.138386
0.138378
0.138366
0.138341
0.138317
0.138276
0.138214
0.138135
0.138044
0.13794
0.137824
0.137697
0.137559
0.137409
0.137248
0.137073
0.136884
0.136677
0.136452
0.136207
0.135938
0.135643
0.135315
0.134945
0.134521
0.134039
0.133491
0.132871
0.132168
0.131374
0.130475
0.129457
0.128305
0.126999
0.125507
0.123799
0.121701
0.119451
0.11407
0.138627
0.138616
0.138597
0.13857
0.138536
0.138493
0.138443
0.138385
0.138319
0.138245
0.138163
0.13807
0.137966
0.13785
0.13772
0.137573
0.137407
0.137218
0.137003
0.136758
0.136477
0.136154
0.135786
0.135367
0.134899
0.134376
0.133784
0.133112
0.132347
0.131472
0.130466
0.129303
0.127949
0.126351
0.12445
0.122069
0.119163
0.114582
0.107674
0.138632
0.138624
0.138612
0.138589
0.138568
0.138533
0.13848
0.138412
0.138335
0.138247
0.13815
0.138045
0.137931
0.137809
0.137678
0.137537
0.137384
0.137219
0.137039
0.136842
0.136627
0.136391
0.136127
0.135829
0.135487
0.135098
0.134657
0.134156
0.133588
0.132946
0.132217
0.131392
0.130456
0.129391
0.12817
0.126767
0.125029
0.123168
0.118709
0.138831
0.138821
0.138804
0.13878
0.13875
0.138713
0.13867
0.138621
0.138564
0.138502
0.138432
0.138354
0.138267
0.138169
0.13806
0.137937
0.137799
0.137642
0.137463
0.137259
0.137026
0.13676
0.136456
0.136113
0.135729
0.135299
0.134814
0.134263
0.133636
0.132918
0.132092
0.131138
0.130026
0.128716
0.127153
0.125204
0.122748
0.119249
0.112118
0.138835
0.138828
0.138816
0.138794
0.138776
0.138745
0.138699
0.13864
0.138574
0.138499
0.138417
0.138328
0.138234
0.138132
0.138024
0.137909
0.137784
0.13765
0.137504
0.137345
0.13717
0.136978
0.136764
0.136521
0.136243
0.135926
0.135566
0.135158
0.134695
0.13417
0.133574
0.132899
0.132133
0.131259
0.130255
0.129099
0.12766
0.126121
0.122462
0.139001
0.138992
0.138976
0.138955
0.138929
0.138897
0.138859
0.138816
0.138768
0.138714
0.138655
0.138588
0.138514
0.138432
0.138339
0.138236
0.138119
0.137986
0.137836
0.137665
0.13747
0.137248
0.136995
0.13671
0.136392
0.136036
0.135634
0.135179
0.13466
0.134066
0.133383
0.132592
0.131672
0.130588
0.129294
0.127695
0.12562
0.122935
0.116533
0.139005
0.138999
0.138987
0.138967
0.13895
0.138923
0.138882
0.138831
0.138773
0.138709
0.138638
0.138563
0.138483
0.138398
0.138308
0.138212
0.138109
0.137999
0.137879
0.137749
0.137606
0.137448
0.137272
0.137072
0.136844
0.136583
0.136287
0.135951
0.13557
0.135138
0.134647
0.13409
0.133458
0.132736
0.131905
0.130948
0.129753
0.128475
0.125489
0.139145
0.139137
0.139123
0.139103
0.13908
0.139052
0.139018
0.138982
0.13894
0.138893
0.138842
0.138785
0.138721
0.13865
0.138571
0.138483
0.138384
0.138271
0.138144
0.137999
0.137834
0.137647
0.137435
0.137196
0.136929
0.136632
0.136297
0.135917
0.135484
0.134989
0.134419
0.133761
0.132994
0.13209
0.131011
0.129688
0.127937
0.125825
0.120425
0.139149
0.139144
0.139132
0.139113
0.139097
0.139073
0.139037
0.138992
0.138941
0.138885
0.138824
0.13876
0.138691
0.138619
0.138543
0.138463
0.138377
0.138286
0.138186
0.138079
0.137961
0.13783
0.137684
0.137518
0.137329
0.137112
0.136867
0.136589
0.136273
0.135914
0.135506
0.135044
0.134518
0.133918
0.133226
0.132429
0.131433
0.130367
0.127932
0.139269
0.139261
0.139248
0.13923
0.139209
0.139184
0.139155
0.139122
0.139086
0.139045
0.139001
0.138951
0.138896
0.138835
0.138767
0.138691
0.138606
0.138509
0.1384
0.138277
0.138137
0.137977
0.137798
0.137596
0.137371
0.137121
0.136839
0.136519
0.136156
0.13574
0.135262
0.13471
0.134066
0.133309
0.132403
0.131299
0.129824
0.128112
0.123681
0.139273
0.139268
0.139257
0.139238
0.139224
0.139202
0.13917
0.13913
0.139085
0.139036
0.138982
0.138926
0.138867
0.138806
0.138741
0.138673
0.138601
0.138524
0.138442
0.138352
0.138253
0.138144
0.138023
0.137884
0.137725
0.137544
0.137339
0.137107
0.136843
0.136543
0.136203
0.135816
0.135376
0.134874
0.134295
0.133627
0.132794
0.131898
0.129911
0.139376
0.139368
0.139355
0.139339
0.139321
0.139298
0.139272
0.139244
0.139211
0.139176
0.139137
0.139093
0.139046
0.138993
0.138933
0.138868
0.138794
0.138711
0.138617
0.138511
0.13839
0.138254
0.138101
0.137929
0.137738
0.137526
0.137288
0.137017
0.136709
0.136358
0.135954
0.135488
0.134945
0.134307
0.133542
0.132615
0.131372
0.129952
0.126348
0.13938
0.139376
0.139365
0.139347
0.139333
0.139313
0.139285
0.139249
0.139209
0.139165
0.139118
0.139069
0.139018
0.138965
0.138909
0.138852
0.138791
0.138726
0.138656
0.13858
0.138497
0.138406
0.138304
0.138187
0.138053
0.137901
0.137729
0.137533
0.137311
0.13706
0.136774
0.136449
0.136078
0.135655
0.135168
0.134605
0.133905
0.133149
0.131523
0.139469
0.139461
0.139449
0.139434
0.139417
0.139397
0.139374
0.139349
0.13932
0.139289
0.139255
0.139216
0.139174
0.139128
0.139076
0.139019
0.138955
0.138882
0.138801
0.138709
0.138605
0.138488
0.138356
0.138209
0.138046
0.137866
0.137662
0.137432
0.13717
0.136871
0.136528
0.136133
0.135672
0.135131
0.134484
0.1337
0.132651
0.131456
0.128523
0.139473
0.13947
0.139459
0.139442
0.139429
0.139411
0.139384
0.139352
0.139317
0.139277
0.139236
0.139193
0.139148
0.139102
0.139054
0.139005
0.138952
0.138897
0.138838
0.138774
0.138704
0.138626
0.138539
0.138441
0.138327
0.138199
0.138053
0.137887
0.1377
0.137487
0.137245
0.136971
0.136658
0.1363
0.135887
0.135411
0.13482
0.134179
0.132845
0.13955
0.139543
0.139531
0.139518
0.139502
0.139484
0.139464
0.139441
0.139416
0.139388
0.139357
0.139324
0.139286
0.139246
0.1392
0.13915
0.139094
0.139031
0.13896
0.13888
0.13879
0.138688
0.138574
0.138447
0.138308
0.138152
0.137978
0.137781
0.137557
0.137301
0.137009
0.136671
0.136279
0.135818
0.135267
0.134601
0.133714
0.1327
0.130302
0.139554
0.139552
0.139542
0.139525
0.139512
0.139496
0.139472
0.139443
0.139411
0.139376
0.139339
0.1393
0.139261
0.139221
0.139179
0.139136
0.139092
0.139044
0.138993
0.138939
0.138879
0.138813
0.138739
0.138655
0.138558
0.138449
0.138325
0.138184
0.138025
0.137844
0.137639
0.137406
0.13714
0.136836
0.136485
0.13608
0.135579
0.135034
0.133936
0.139622
0.139614
0.139603
0.139591
0.139577
0.139561
0.139543
0.139522
0.139499
0.139475
0.139447
0.139417
0.139385
0.139349
0.139309
0.139265
0.139215
0.13916
0.139098
0.139028
0.138949
0.13886
0.138762
0.138652
0.138531
0.138397
0.138247
0.138077
0.137884
0.137665
0.137414
0.137124
0.136788
0.136394
0.135924
0.135356
0.134604
0.133737
0.131781
0.139626
0.139624
0.139615
0.139599
0.139586
0.139571
0.139549
0.139523
0.139494
0.139462
0.139429
0.139395
0.13936
0.139325
0.139288
0.139251
0.139212
0.139171
0.139128
0.139081
0.13903
0.138973
0.13891
0.138838
0.138755
0.138661
0.138555
0.138435
0.138299
0.138145
0.13797
0.137771
0.137544
0.137285
0.136985
0.13664
0.136213
0.135747
0.134841
0.139686
0.139678
0.139668
0.139656
0.139644
0.139629
0.139612
0.139594
0.139574
0.139551
0.139527
0.139501
0.139472
0.13944
0.139405
0.139366
0.139322
0.139273
0.139219
0.139157
0.139088
0.139011
0.138924
0.138829
0.138724
0.138608
0.138478
0.138331
0.138164
0.137975
0.137758
0.137509
0.13722
0.136882
0.136478
0.135991
0.135352
0.134606
0.133034
0.13969
0.139689
0.13968
0.139664
0.139652
0.139637
0.139618
0.139594
0.139567
0.139539
0.139509
0.139478
0.139448
0.139416
0.139384
0.139352
0.139318
0.139282
0.139244
0.139204
0.13916
0.139111
0.139056
0.138994
0.138923
0.138842
0.138751
0.138648
0.138532
0.138399
0.13825
0.138079
0.137885
0.137663
0.137407
0.137111
0.136747
0.136347
0.135595
0.139742
0.139735
0.139725
0.139715
0.139703
0.13969
0.139674
0.139658
0.13964
0.13962
0.139598
0.139575
0.139549
0.139521
0.13949
0.139456
0.139417
0.139374
0.139326
0.139272
0.139211
0.139143
0.139067
0.138984
0.138892
0.138791
0.138678
0.13855
0.138405
0.138241
0.138053
0.137838
0.137588
0.137296
0.136949
0.13653
0.135986
0.135337
0.134085
0.139747
0.139746
0.139738
0.139722
0.139711
0.139697
0.139679
0.139657
0.139633
0.139607
0.13958
0.139553
0.139525
0.139497
0.139469
0.13944
0.13941
0.139379
0.139346
0.139311
0.139273
0.139231
0.139183
0.13913
0.139068
0.138998
0.13892
0.138831
0.138731
0.138617
0.138488
0.138342
0.138175
0.137985
0.137765
0.13751
0.137198
0.136854
0.136228
0.139793
0.139786
0.139776
0.139767
0.139756
0.139744
0.13973
0.139715
0.139699
0.139682
0.139663
0.139642
0.139619
0.139594
0.139567
0.139537
0.139502
0.139464
0.139422
0.139374
0.13932
0.13926
0.139193
0.13912
0.13904
0.138951
0.138852
0.138741
0.138615
0.138472
0.138308
0.138121
0.137905
0.137652
0.137352
0.13699
0.136526
0.135959
0.134958
0.139798
0.139797
0.139789
0.139774
0.139763
0.13975
0.139733
0.139713
0.139691
0.139668
0.139643
0.139618
0.139594
0.139568
0.139543
0.139518
0.139492
0.139464
0.139436
0.139405
0.139372
0.139335
0.139294
0.139247
0.139194
0.139133
0.139065
0.138988
0.138902
0.138804
0.138693
0.138566
0.138423
0.138259
0.138069
0.13785
0.137582
0.137285
0.136762
0.139839
0.139832
0.139822
0.139814
0.139804
0.139792
0.13978
0.139767
0.139753
0.139737
0.139721
0.139703
0.139683
0.139661
0.139637
0.13961
0.139579
0.139546
0.139508
0.139465
0.139418
0.139364
0.139305
0.139241
0.13917
0.139093
0.139006
0.138908
0.138798
0.138672
0.13853
0.138367
0.138178
0.137958
0.137698
0.137385
0.136987
0.136491
0.135683
0.139843
0.139843
0.139836
0.139821
0.13981
0.139798
0.139782
0.139764
0.139744
0.139722
0.1397
0.139677
0.139655
0.139632
0.13961
0.139587
0.139564
0.13954
0.139515
0.139488
0.139459
0.139427
0.139391
0.13935
0.139303
0.139251
0.139192
0.139125
0.13905
0.138965
0.138869
0.13876
0.138636
0.138494
0.13833
0.138141
0.13791
0.137654
0.137214
0.13988
0.139873
0.139864
0.139856
0.139847
0.139837
0.139826
0.139814
0.139802
0.139789
0.139774
0.139759
0.139741
0.139722
0.1397
0.139676
0.139649
0.139619
0.139585
0.139547
0.139505
0.139458
0.139405
0.139348
0.139286
0.139218
0.139141
0.139055
0.138958
0.138849
0.138724
0.138581
0.138416
0.138225
0.137998
0.137726
0.137384
0.136951
0.13629
0.139884
0.139885
0.139878
0.139863
0.139852
0.139841
0.139826
0.139809
0.139791
0.139771
0.139751
0.13973
0.13971
0.139689
0.139669
0.139649
0.139628
0.139607
0.139585
0.139561
0.139535
0.139507
0.139476
0.13944
0.139399
0.139354
0.139302
0.139244
0.139179
0.139105
0.139022
0.138927
0.13882
0.138697
0.138555
0.138392
0.138192
0.13797
0.137598
0.139917
0.13991
0.139902
0.139894
0.139886
0.139877
0.139867
0.139858
0.139847
0.139836
0.139824
0.13981
0.139794
0.139777
0.139758
0.139736
0.139712
0.139685
0.139655
0.139621
0.139583
0.139541
0.139495
0.139444
0.139389
0.139329
0.139261
0.139186
0.139101
0.139004
0.138895
0.138769
0.138625
0.138457
0.13826
0.138022
0.137729
0.13735
0.136804
0.139922
0.139923
0.139916
0.139901
0.139891
0.13988
0.139866
0.139851
0.139834
0.139815
0.139796
0.139778
0.139759
0.13974
0.139722
0.139704
0.139685
0.139667
0.139647
0.139626
0.139604
0.139579
0.139551
0.13952
0.139484
0.139444
0.139399
0.139348
0.139291
0.139227
0.139155
0.139073
0.138979
0.138873
0.13875
0.138608
0.138436
0.138243
0.137928
0.13995
0.139944
0.139936
0.139929
0.139921
0.139913
0.139906
0.139898
0.139889
0.13988
0.139869
0.139857
0.139843
0.139828
0.13981
0.139791
0.139769
0.139745
0.139718
0.139688
0.139654
0.139616
0.139575
0.13953
0.139481
0.139428
0.139368
0.139302
0.139226
0.139142
0.139045
0.138935
0.138808
0.138661
0.138489
0.13828
0.138033
0.1377
0.137244
0.139955
0.139957
0.13995
0.139936
0.139925
0.139915
0.139903
0.139888
0.139872
0.139855
0.139838
0.13982
0.139803
0.139786
0.13977
0.139753
0.139737
0.13972
0.139703
0.139684
0.139664
0.139643
0.139618
0.139591
0.139559
0.139524
0.139485
0.13944
0.139391
0.139335
0.139272
0.1392
0.139119
0.139026
0.138919
0.138796
0.138647
0.138479
0.138212
0.139981
0.139974
0.139967
0.13996
0.139954
0.139947
0.139941
0.139935
0.139928
0.13992
0.139911
0.1399
0.139888
0.139874
0.139858
0.139841
0.139822
0.1398
0.139775
0.139748
0.139718
0.139684
0.139647
0.139607
0.139564
0.139517
0.139464
0.139405
0.139338
0.139263
0.139178
0.139081
0.13897
0.138841
0.13869
0.138505
0.138303
0.138011
0.137627
0.139986
0.139988
0.139982
0.139967
0.139957
0.139947
0.139936
0.139922
0.139907
0.139891
0.139875
0.139859
0.139843
0.139828
0.139813
0.139798
0.139783
0.139768
0.139753
0.139736
0.139719
0.1397
0.139678
0.139654
0.139626
0.139595
0.139561
0.139522
0.139478
0.139429
0.139374
0.139312
0.139241
0.13916
0.139067
0.13896
0.138831
0.138684
0.138457
0.140008
0.140002
0.139995
0.139989
0.139984
0.139979
0.139975
0.13997
0.139964
0.139957
0.139949
0.139939
0.139928
0.139916
0.139902
0.139887
0.139869
0.13985
0.139828
0.139804
0.139777
0.139746
0.139713
0.139678
0.139639
0.139597
0.13955
0.139498
0.139439
0.139372
0.139297
0.139211
0.139113
0.138999
0.138868
0.138704
0.13854
0.138287
0.137962
0.140014
0.140016
0.14001
0.139996
0.139986
0.139976
0.139966
0.139953
0.139939
0.139924
0.139908
0.139893
0.139879
0.139865
0.139851
0.139838
0.139825
0.139812
0.139798
0.139783
0.139768
0.139751
0.139732
0.139711
0.139686
0.139659
0.139628
0.139594
0.139556
0.139513
0.139465
0.13941
0.139349
0.139278
0.139197
0.139104
0.138991
0.138863
0.138669
0.140033
0.140028
0.140021
0.140016
0.140011
0.140008
0.140006
0.140002
0.139998
0.139992
0.139984
0.139976
0.139966
0.139955
0.139943
0.139929
0.139914
0.139896
0.139877
0.139855
0.13983
0.139803
0.139774
0.139742
0.139707
0.13967
0.139628
0.139581
0.139529
0.13947
0.139403
0.139327
0.139241
0.13914
0.139025
0.138882
0.138747
0.138529
0.138255
0.140039
0.140042
0.140036
0.140022
0.140012
0.140003
0.139993
0.139981
0.139967
0.139953
0.139939
0.139925
0.139912
0.139899
0.139887
0.139875
0.139863
0.139851
0.139839
0.139826
0.139812
0.139797
0.139781
0.139762
0.13974
0.139716
0.139689
0.139659
0.139625
0.139588
0.139545
0.139498
0.139443
0.139382
0.139311
0.13923
0.139132
0.13902
0.138854
0.140057
0.140051
0.140045
0.14004
0.140038
0.140037
0.140035
0.140033
0.140029
0.140023
0.140017
0.14001
0.140001
0.139992
0.139981
0.139969
0.139955
0.13994
0.139922
0.139902
0.13988
0.139856
0.139829
0.139801
0.13977
0.139736
0.139699
0.139657
0.139611
0.139558
0.139499
0.139431
0.139355
0.139266
0.139167
0.139046
0.138933
0.138742
0.138511
0.140062
0.140066
0.14006
0.140046
0.140036
0.140028
0.140018
0.140006
0.139993
0.13998
0.139967
0.139954
0.139941
0.13993
0.139919
0.139908
0.139897
0.139887
0.139876
0.139865
0.139852
0.139839
0.139824
0.139808
0.139788
0.139767
0.139743
0.139717
0.139687
0.139654
0.139617
0.139575
0.139527
0.139474
0.139412
0.13934
0.139256
0.139158
0.139016
0.140078
0.140072
0.140066
0.140063
0.140063
0.140063
0.140062
0.14006
0.140057
0.140053
0.140048
0.140042
0.140035
0.140026
0.140017
0.140006
0.139994
0.13998
0.139964
0.139947
0.139927
0.139905
0.139881
0.139855
0.139827
0.139797
0.139764
0.139727
0.139685
0.139638
0.139585
0.139525
0.139457
0.139379
0.139296
0.139196
0.1391
0.138932
0.138736
0.140083
0.140087
0.140082
0.140067
0.140058
0.14005
0.140041
0.140029
0.140017
0.140004
0.139992
0.13998
0.139969
0.139958
0.139948
0.139939
0.139929
0.13992
0.13991
0.1399
0.139889
0.139877
0.139864
0.139849
0.139832
0.139813
0.139792
0.139768
0.139742
0.139713
0.13968
0.139644
0.139602
0.139555
0.139501
0.139438
0.139364
0.139279
0.139157
0.140097
0.140092
0.140086
0.140085
0.140086
0.140088
0.140088
0.140086
0.140084
0.140081
0.140077
0.140072
0.140066
0.140059
0.140051
0.140041
0.14003
0.140018
0.140004
0.139988
0.13997
0.13995
0.139928
0.139905
0.13988
0.139854
0.139824
0.13979
0.139753
0.139711
0.139664
0.139611
0.13955
0.139483
0.139415
0.139331
0.139251
0.139103
0.138935
0.140102
0.140107
0.140102
0.140087
0.140078
0.14007
0.140061
0.14005
0.140038
0.140026
0.140015
0.140004
0.139994
0.139984
0.139975
0.139967
0.139958
0.13995
0.139941
0.139932
0.139922
0.139912
0.1399
0.139887
0.139872
0.139855
0.139836
0.139815
0.139792
0.139766
0.139737
0.139705
0.139668
0.139627
0.13958
0.139525
0.139461
0.139386
0.139282
0.140115
0.14011
0.140105
0.140106
0.140109
0.140111
0.140111
0.14011
0.140109
0.140107
0.140104
0.1401
0.140095
0.140089
0.140082
0.140074
0.140064
0.140053
0.14004
0.140026
0.14001
0.139992
0.139973
0.139952
0.13993
0.139905
0.139879
0.139849
0.139815
0.139778
0.139736
0.139688
0.139636
0.139581
0.139523
0.139453
0.139386
0.139256
0.139113
0.140119
0.140125
0.14012
0.140105
0.140096
0.140089
0.14008
0.140069
0.140058
0.140046
0.140036
0.140026
0.140017
0.140008
0.14
0.139992
0.139985
0.139977
0.139969
0.139961
0.139953
0.139943
0.139933
0.139921
0.139907
0.139892
0.139876
0.139857
0.139837
0.139814
0.139789
0.13976
0.139728
0.139692
0.13965
0.139603
0.139546
0.139481
0.139391
0.140131
0.140126
0.140122
0.140126
0.14013
0.140131
0.140132
0.140133
0.140133
0.140132
0.14013
0.140127
0.140123
0.140118
0.140112
0.140105
0.140096
0.140086
0.140075
0.140062
0.140048
0.140032
0.140014
0.139995
0.139975
0.139954
0.139929
0.139903
0.139873
0.139839
0.139802
0.139761
0.139717
0.139671
0.139622
0.139563
0.139506
0.139395
0.139272
0.140135
0.140142
0.140137
0.140121
0.140113
0.140107
0.140097
0.140086
0.140075
0.140065
0.140055
0.140047
0.140038
0.140031
0.140023
0.140016
0.140009
0.140002
0.139995
0.139988
0.13998
0.139972
0.139963
0.139952
0.13994
0.139927
0.139912
0.139896
0.139879
0.139859
0.139837
0.139812
0.139784
0.139752
0.139715
0.139673
0.139624
0.139567
0.139489
0.140147
0.140141
0.140138
0.140145
0.140149
0.14015
0.140153
0.140155
0.140155
0.140156
0.140154
0.140152
0.140149
0.140145
0.14014
0.140134
0.140127
0.140118
0.140109
0.140097
0.140085
0.14007
0.140055
0.140038
0.140019
0.14
0.139978
0.139953
0.139926
0.139896
0.139864
0.13983
0.139794
0.139756
0.139714
0.139663
0.139613
0.13952
0.139416
0.14015
0.140157
0.140152
0.140136
0.140128
0.140122
0.140113
0.140102
0.140092
0.140082
0.140073
0.140066
0.140058
0.140051
0.140044
0.140038
0.140032
0.140026
0.140019
0.140013
0.140006
0.139999
0.139991
0.139982
0.139971
0.13996
0.139948
0.139934
0.139919
0.139902
0.139883
0.139862
0.139837
0.139809
0.139777
0.13974
0.139697
0.139646
0.13958
0.14016
0.140155
0.140154
0.140163
0.140166
0.140168
0.140172
0.140174
0.140175
0.140176
0.140176
0.140175
0.140173
0.14017
0.140166
0.140162
0.140156
0.14015
0.140142
0.140133
0.140123
0.140111
0.140098
0.140084
0.140068
0.14005
0.140029
0.140007
0.139983
0.139957
0.139929
0.1399
0.139869
0.139835
0.139798
0.139754
0.13971
0.139633
0.139544
0.140163
0.140169
0.140165
0.140149
0.140142
0.140136
0.140127
0.140116
0.140107
0.140098
0.14009
0.140083
0.140076
0.14007
0.140064
0.140058
0.140053
0.140047
0.140042
0.140036
0.14003
0.140024
0.140018
0.140011
0.140003
0.139994
0.139984
0.139973
0.139961
0.139946
0.13993
0.139912
0.13989
0.139866
0.139838
0.139805
0.139767
0.13972
0.139671
0.140173
0.140167
0.140168
0.140178
0.14018
0.140182
0.140186
0.140188
0.14019
0.140191
0.140191
0.140191
0.140191
0.140189
0.140188
0.140185
0.140182
0.140178
0.140174
0.140168
0.140162
0.140155
0.140146
0.140137
0.140125
0.140111
0.140095
0.140076
0.140055
0.140031
0.140005
0.139977
0.139947
0.139915
0.13988
0.139839
0.139799
0.139733
0.139659
0.140174
0.140177
0.140174
0.140161
0.140155
0.140149
0.140139
0.140129
0.14012
0.140113
0.140106
0.140099
0.140093
0.140087
0.140082
0.140077
0.140072
0.140068
0.140063
0.140059
0.140054
0.14005
0.140046
0.140042
0.140036
0.14003
0.140022
0.140013
0.140003
0.139991
0.139978
0.139962
0.139944
0.139923
0.139899
0.13987
0.139836
0.139792
0.139755
0.140182
0.140178
0.14018
0.140187
0.140189
0.140192
0.140195
0.140197
0.140199
0.1402
0.140201
0.140202
0.140202
0.140202
0.140201
0.1402
0.140199
0.140197
0.140195
0.140192
0.140188
0.140184
0.140179
0.140174
0.140167
0.140159
0.140149
0.140137
0.140122
0.140104
0.140083
0.140059
0.140031
0.14
0.139965
0.139926
0.139885
0.139827
0.139762
0.140181
0.140183
0.140179
0.14017
0.140164
0.140158
0.14015
0.140141
0.140133
0.140127
0.14012
0.140114
0.140108
0.140103
0.140099
0.140095
0.140091
0.140088
0.140084
0.140081
0.140079
0.140076
0.140074
0.140072
0.140068
0.140063
0.140057
0.14005
0.140042
0.140033
0.140023
0.140011
0.139997
0.13998
0.139959
0.139934
0.139905
0.139865
0.139835
0.140187
0.140186
0.140188
0.140193
0.140195
0.140198
0.140201
0.140203
0.140205
0.140206
0.140208
0.140209
0.140209
0.14021
0.14021
0.14021
0.14021
0.140209
0.140208
0.140206
0.140204
0.140202
0.1402
0.140196
0.140193
0.140188
0.140183
0.140176
0.140167
0.140157
0.140143
0.140127
0.140106
0.140081
0.14005
0.140014
0.139974
0.139919
0.139859
0.140186
0.140186
0.140183
0.140175
0.140169
0.140164
0.140158
0.14015
0.140144
0.140138
0.140132
0.140127
0.140122
0.140118
0.140115
0.140112
0.140109
0.140106
0.140104
0.140102
0.1401
0.140098
0.140097
0.140095
0.140092
0.140088
0.140083
0.140078
0.140072
0.140065
0.140058
0.14005
0.14004
0.140027
0.140013
0.139993
0.13997
0.139935
0.139911
0.14019
0.14019
0.140193
0.140197
0.140199
0.140202
0.140205
0.140207
0.140209
0.140211
0.140213
0.140214
0.140215
0.140216
0.140216
0.140217
0.140217
0.140217
0.140217
0.140216
0.140215
0.140214
0.140213
0.140211
0.140209
0.140206
0.140203
0.140199
0.140194
0.140189
0.140181
0.140172
0.14016
0.140143
0.140122
0.140093
0.14006
0.14001
0.139954
0.140189
0.140188
0.140185
0.140177
0.140172
0.140167
0.140162
0.140156
0.140151
0.140146
0.140141
0.140137
0.140133
0.14013
0.140127
0.140124
0.140122
0.140119
0.140117
0.140116
0.140114
0.140112
0.140111
0.140109
0.140106
0.140103
0.140099
0.140095
0.140091
0.140086
0.140081
0.140075
0.140068
0.14006
0.14005
0.140036
0.140023
0.139994
0.139976
0.140192
0.140193
0.140195
0.140199
0.140202
0.140205