/*--------------------------------*- C++ -*----------------------------------*\
  =========                 |
  \\      /  F ield         | OpenFOAM: The Open Source CFD Toolbox
   \\    /   O peration     | Website:  https://openfoam.org
    \\  /    A nd           | Version:  13
     \\/     M anipulation  |
\*---------------------------------------------------------------------------*/
FoamFile
{
    format      ascii;
    class       volScalarField;
    location    "313";
    object      p;
}
// * * * * * * * * * * * * * * * * * * * * * * * * * * * * * * * * * * * * * //

dimensions      [0 2 -2 0 0 0 0];

internalField   nonuniform List<scalar> 
10720
(
-90.3193
-164.379
-251.788
-337.253
-415.675
-495.623
-566.033
-624.759
-675.678
-715.184
-745.262
-767.216
-781.845
-790.354
-793.192
-789.903
-781.411
-766.376
-745.944
-718.734
-685.781
-646.277
-602.455
-555.219
-508.073
-466.099
-428.284
-391.04
-354.088
-317.65
-281.547
-245.637
-209.816
-173.857
-137.504
-99.6521
-59.9391
-12.3716
35.3611
-15.353
52.7555
126.258
195.382
254.93
300.926
329.705
340.794
340.173
329.292
309.548
286.476
263.026
240.22
218.747
198.48
179.515
161.445
144.017
126.739
109.564
92.1757
74.666
57.433
42.3697
30.5444
20.908
13.0734
7.04387
2.8765
0.474485
-0.268127
0.569257
2.99014
7.00616
13.0351
21.631
36.5217
61.5934
23.2441
-33.1292
-96.0824
-162.742
-231.034
-300.781
-368.31
-431.517
-489.779
-541.315
-585.805
-623.243
-653.694
-677.224
-693.757
-703.01
-705.588
-701.064
-689.985
-671.737
-646.878
-615.137
-578.195
-537.197
-495.231
-456.612
-420.881
-385.243
-349.528
-314.055
-278.732
-243.454
-208.144
-172.593
-136.555
-98.9456
-59.4173
-11.9503
35.0915
74.0715
122.708
171.454
218.84
260.976
295.26
318.699
330.022
330.577
321.629
305.751
286.325
265.482
244.334
223.645
203.681
184.611
166.285
148.528
131.023
113.677
96.2842
78.9273
62.0139
47.0179
34.8548
24.8052
16.544
10.0939
5.50973
2.72145
1.63164
2.15836
4.304
8.08986
13.9375
22.3918
37.19
61.2734
39.7624
-10.7044
-67.3018
-129.596
-193.994
-259.812
-325.461
-388.237
-446.565
-499.458
-545.681
-584.931
-617.022
-641.898
-659.756
-670.798
-675.255
-672.942
-664.051
-648.349
-626.135
-597.464
-563.594
-525.807
-486.655
-449.676
-414.981
-380.408
-345.639
-310.953
-276.289
-241.551
-206.676
-171.469
-135.701
-98.3031
-58.9484
-11.6739
34.8524
85.4102
129.988
174.522
216.991
254.013
283.977
304.837
315.9
317.876
311.613
299.003
282.333
263.453
243.64
223.772
204.312
185.497
167.323
149.673
132.318
115.138
97.9924
80.9473
64.3746
49.4433
37.0478
26.7818
18.3341
11.7066
6.94504
3.98901
2.74124
3.12177
5.13456
8.80952
14.5695
22.9565
37.6319
60.7286
64.7843
22.3288
-26.0055
-79.0651
-134.647
-192.674
-251.475
-309.223
-364.582
-416.415
-463.583
-505.416
-541.433
-571.344
-594.928
-612.183
-622.867
-626.71
-623.659
-613.596
-596.691
-573.157
-544.009
-510.576
-475.065
-440.498
-407.458
-374.359
-340.823
-307.134
-273.297
-239.238
-204.912
-170.145
-134.721
-97.6029
-58.4863
-11.5295
34.448
102.877
139.619
176.595
212.492
244.187
270.441
289.423
300.364
303.554
299.523
289.725
275.866
259.439
241.614
223.237
204.83
186.697
168.953
151.569
134.413
117.397
100.45
83.6425
67.3263
52.4614
39.8907
29.413
20.7426
13.8747
8.86022
5.65095
4.16114
4.32028
6.13779
9.65099
15.2815
23.5589
38.0365
60.1502
73.0118
35.2798
-7.88981
-55.5961
-105.712
-158.64
-212.979
-267.078
-319.91
-370.316
-417.147
-459.608
-497.03
-528.883
-554.782
-574.493
-587.651
-594.144
-593.838
-586.721
-572.901
-552.662
-526.836
-496.68
-464.094
-431.597
-399.999
-368.184
-335.768
-303.024
-270.001
-236.639
-202.899
-168.62
-133.595
-96.8158
-58.0053
-11.4739
33.8103
106.959
139.526
172.387
204.283
232.465
256.1
273.702
284.534
288.662
286.489
279.116
267.824
253.767
237.948
221.162
203.944
186.656
169.499
152.529
135.703
118.975
102.32
85.826
69.8188
55.0968
42.4312
31.7829
22.9242
15.8523
10.6218
7.19776
5.50475
5.47813
7.12894
10.4997
16.01
24.1723
38.4213
59.5383
78.3124
44.868
6.39331
-36.1122
-80.793
-128.356
-177.501
-226.91
-275.829
-323.199
-368.035
-409.569
-447.06
-479.871
-507.507
-529.563
-545.67
-555.577
-559.011
-555.826
-546.021
-529.833
-507.938
-481.486
-452.13
-421.998
-392.063
-361.652
-330.441
-298.694
-266.516
-233.871
-200.738
-166.969
-132.373
-95.9741
-57.528
-11.5343
32.9456
108.4
137.146
166.346
194.886
220.231
241.769
258.27
268.957
273.767
273.074
267.705
258.648
246.801
232.989
217.913
202.078
185.857
169.5
153.129
136.772
120.435
104.139
87.9878
72.2947
57.7387
45.0215
34.2287
25.2005
17.936
12.4927
8.84977
6.94272
6.71466
8.18169
11.3931
16.7661
24.7925
38.768
58.8731
79.5304
49.3591
14.5519
-23.9316
-64.308
-107.524
-152.414
-197.829
-243.26
-287.757
-330.467
-370.695
-407.677
-440.735
-469.293
-492.837
-510.888
-523.054
-529
-528.54
-521.662
-508.588
-489.888
-466.583
-440.095
-412.197
-383.907
-354.895
-324.904
-294.18
-262.867
-230.961
-198.453
-165.216
-131.075
-95.0914
-57.066
-11.7201
31.8636
106.702
132.577
158.992
184.911
208.013
227.863
243.442
253.939
259.235
259.698
255.963
248.809
238.942
227.022
213.647
199.258
184.214
168.789
153.146
137.372
121.52
105.653
89.8958
74.5485
60.2022
47.4964
36.6061
27.4397
20.0049
14.3638
10.5115
8.39646
7.97045
9.25497
12.3055
17.5339
25.4096
39.0681
58.1603
78.8858
51.4931
19.8198
-15.1716
-51.7898
-91.1142
-132.071
-173.659
-215.545
-256.919
-297.039
-335.322
-371.063
-403.591
-432.301
-456.623
-476.004
-490.018
-498.285
-500.522
-496.62
-486.715
-471.253
-451.105
-427.493
-401.907
-375.364
-347.817
-319.101
-289.449
-259.042
-227.907
-196.053
-163.373
-129.71
-94.1743
-56.6202
-12.0235
30.5781
103.592
127.063
151.153
174.9
196.147
214.59
229.358
239.627
245.257
246.605
244.183
238.621
230.483
220.296
208.551
195.619
181.824
167.434
152.636
137.553
122.281
106.916
91.6032
76.6333
62.5361
49.896
38.9503
29.6741
22.0894
16.2645
12.2107
9.8909
9.266
10.3637
13.2459
18.3178
26.0236
39.3211
57.4054
76.8694
51.7894
22.7525
-9.30149
-42.7425
-78.717
-116.252
-154.443
-193.103
-231.521
-269.078
-305.296
-339.536
-371.169
-399.6
-424.233
-444.478
-459.846
-469.898
-474.276
-472.804
-465.572
-452.932
-435.619
-414.669
-391.318
-366.531
-340.465
-313.048
-284.502
-255.036
-224.706
-193.539
-161.444
-128.288
-93.2297
-56.188
-12.4293
29.1131
99.5224
121.008
143.164
165.091
184.765
202.021
216.063
226.073
231.922
233.944
232.57
228.325
221.673
213.033
202.805
191.287
178.758
165.464
151.591
137.287
122.675
107.88
93.0622
78.5083
64.7018
52.1821
41.2279
31.8757
24.1662
18.1758
13.932
11.4135
10.5916
11.5008
14.2094
19.1136
26.6308
39.5256
56.6092
74.0632
50.9666
24.204
-5.30364
-35.991
-69.0313
-103.519
-138.638
-174.305
-209.895
-244.898
-278.931
-311.424
-341.827
-369.571
-394.06
-414.705
-430.978
-442.417
-448.624
-449.333
-444.563
-434.562
-419.93
-401.534
-380.386
-357.384
-332.828
-306.738
-279.334
-250.843
-221.352
-190.904
-159.428
-126.81
-92.2642
-55.7701
-12.9268
27.5007
94.961
114.754
135.26
155.626
173.952
190.175
203.558
213.287
219.264
221.794
221.251
218.088
212.696
205.416
196.569
186.391
175.109
162.933
150.041
136.583
122.701
108.537
94.2652
80.1669
66.6929
54.3462
43.4315
34.0384
26.2308
20.0946
15.6736
12.9634
11.9471
12.6657
15.1952
19.92
27.229
39.6815
55.7737
70.7694
49.3865
24.5969
-2.69863
-30.9869
-61.4562
-93.254
-125.637
-158.583
-191.548
-224.116
-255.991
-286.67
-315.671
-342.481
-366.532
-387.241
-404.074
-416.529
-424.199
-426.73
-424.083
-416.425
-404.228
-388.205
-369.181
-347.956
-324.923
-300.18
-273.946
-246.462
-217.842
-188.146
-157.322
-125.276
-91.2805
-55.371
-13.5099
25.7648
90.1498
108.487
127.565
146.578
163.729
179.039
191.813
201.253
207.285
210.192
210.305
208.027
203.697
197.596
189.988
181.052
170.966
159.903
148.016
135.45
122.353
108.875
95.1966
81.5929
68.4934
56.3705
45.5438
36.1475
28.2708
22.0109
17.4279
14.5351
13.3283
13.8558
16.2008
20.7345
27.8159
39.7891
54.9024
67.2097
47.3292
24.274
-1.07535
-27.2569
-55.4531
-84.8563
-114.781
-145.256
-175.798
-206.065
-235.835
-264.673
-292.172
-317.868
-341.234
-361.723
-378.801
-391.95
-400.766
-404.83
-404.039
-398.481
-388.514
-374.709
-357.726
-338.264
-316.76
-293.379
-268.34
-241.892
-214.175
-185.263
-155.123
-123.685
-90.2803
-54.9946
-14.1773
23.9212
85.264
102.33
120.157
137.978
154.094
168.584
180.79
189.938
195.968
199.149
199.78
198.222
194.78
189.695
183.184
175.381
166.421
156.438
145.558
133.911
121.638
108.891
95.8478
82.7777
70.0929
58.2422
47.5514
38.1912
30.2764
23.9167
19.1889
16.1239
14.732
15.0682
17.2239
21.5548
28.3889
39.8495
53.998
63.5301
44.9757
23.4585
-0.165682
-24.4822
-50.6579
-77.9247
-105.641
-133.876
-162.202
-190.325
-218.089
-245.12
-271.076
-295.554
-318.077
-338.132
-355.207
-368.78
-378.45
-383.766
-384.554
-380.838
-372.878
-361.116
-346.073
-328.337
-308.356
-286.343
-262.519
-237.134
-210.349
-182.253
-152.832
-122.037
-89.2642
-54.6443
-14.9255
21.9785
80.408
96.3572
113.073
129.831
145.024
158.773
170.446
179.301
185.287
188.661
189.697
188.724
186.024
181.808
176.257
169.474
161.557
152.606
142.716
131.994
120.569
108.585
96.2123
83.7124
71.4812
59.948
49.4403
40.1565
32.2358
25.8023
20.9487
17.7242
16.1537
16.2998
18.2617
22.3783
28.9459
39.8635
53.0644
59.8286
42.4557
22.3142
0.231945
-22.4203
-46.7893
-72.1417
-97.8691
-124.077
-150.372
-176.509
-202.378
-227.664
-252.081
-275.287
-296.857
-316.313
-333.179
-346.945
-357.21
-363.525
-365.641
-363.529
-357.363
-347.476
-334.261
-318.202
-299.729
-279.084
-256.488
-232.19
-206.364
-179.116
-150.447
-120.331
-88.2325
-54.3229
-15.7504
19.945
75.6556
90.6082
106.332
122.132
136.497
149.564
160.735
169.302
175.212
178.716
180.066
179.568
177.485
174.007
169.293
163.419
156.457
148.475
139.54
129.733
119.164
107.963
96.2903
84.3923
72.6501
61.4771
51.1978
42.0307
34.1379
27.6581
22.6997
19.3296
17.5887
17.5466
19.3111
23.2021
29.4846
39.8334
52.105
56.17
39.8604
20.9569
0.263046
-20.8963
-43.6416
-67.2673
-91.2014
-115.566
-140.003
-164.305
-188.402
-212.026
-234.944
-256.861
-277.407
-296.15
-312.649
-326.42
-337.061
-344.141
-347.351
-346.615
-342.035
-333.849
-322.34
-307.893
-290.901
-271.614
-250.254
-227.062
-202.221
-175.85
-147.968
-118.569
-87.1855
-54.0304
-16.6481
17.8299
71.0525
85.1089
99.9356
114.87
128.481
140.919
151.618
159.9
165.71
169.293
170.884
170.77
169.199
166.349
162.359
157.291
151.193
144.109
136.08
127.164
117.446
107.039
96.0857
84.8153
73.5936
62.8196
52.8115
43.8015
35.9711
29.4739
24.433
20.9332
19.0315
18.8045
20.3683
24.0232
30.0026
39.7608
51.1241
52.599
37.2535
19.4715
0.0355171
-19.7767
-41.0524
-63.115
-85.4243
-108.113
-130.85
-153.463
-175.911
-197.964
-219.434
-240.075
-259.563
-277.515
-293.526
-307.145
-317.973
-325.613
-329.706
-330.134
-326.94
-320.284
-310.356
-297.445
-281.895
-263.952
-243.828
-221.755
-197.922
-172.457
-145.393
-116.748
-86.1232
-53.7675
-17.612
15.6422
66.6262
79.8717
93.8825
108.026
120.948
132.802
143.054
151.055
156.748
160.372
162.147
162.341
161.195
158.875
155.51
151.15
145.828
139.567
132.389
124.327
115.443
105.828
95.6048
84.9824
74.309
63.9684
54.2712
45.4573
37.7242
31.2391
26.1399
22.5278
20.4759
20.0685
21.4295
24.8385
30.498
39.6487
50.126
49.1462
34.6781
17.918
-0.370888
-18.961
-38.9002
-59.5439
-80.3744
-101.534
-122.719
-143.778
-164.691
-185.269
-205.356
-224.753
-243.176
-260.288
-275.724
-289.067
-299.929
-307.944
-312.728
-314.125
-312.129
-306.834
-298.356
-286.897
-272.74
-256.115
-237.222
-216.278
-193.471
-168.937
-142.726
-114.871
-85.0456
-53.5324
-18.635
13.3914
62.3926
74.9006
88.164
101.58
113.867
125.177
135.007
142.733
148.295
151.929
153.839
154.28
153.486
151.616
148.788
145.048
140.417
134.906
128.518
121.264
113.186
104.352
94.8603
84.8984
74.7947
64.9178
55.5676
46.9872
39.3858
32.9432
27.8107
24.1051
21.9156
21.3336
22.4902
25.6446
30.9689
39.4996
49.1149
45.8303
32.1651
16.3441
-0.897377
-18.3695
-37.0915
-56.4386
-75.9211
-95.6837
-115.445
-135.071
-154.566
-173.763
-192.544
-210.739
-228.108
-244.355
-259.153
-272.122
-282.892
-291.123
-296.43
-298.617
-297.642
-293.548
-286.389
-276.287
-263.466
-248.126
-230.45
-210.639
-188.874
-165.295
-139.965
-112.938
-83.9518
-53.3237
-19.709
11.0897
58.3599
70.1922
82.7681
95.5137
107.211
118.012
127.44
134.896
140.32
143.939
145.948
146.587
146.084
144.593
142.226
139.026
135.009
130.174
124.511
118.015
110.708
102.633
93.8672
84.5714
75.0532
65.6647
56.6935
48.3813
40.9452
34.5758
29.4359
25.6569
23.3431
22.5937
23.5456
26.4381
31.4135
39.3169
48.0961
42.6622
29.7368
14.7793
-1.49654
-17.9461
-35.5503
-53.7105
-71.9571
-90.4413
-108.895
-127.204
-145.385
-163.296
-180.843
-197.889
-214.227
-229.603
-243.724
-256.247
-266.825
-275.137
-280.817
-283.635
-283.516
-280.47
-274.497
-265.654
-254.103
-240.008
-223.529
-204.848
-184.136
-161.533
-137.113
-110.948
-82.8417
-53.139
-20.825
8.74862
54.5312
65.7409
77.6807
89.8045
100.952
111.275
120.321
127.515
132.794
136.379
138.455
139.252
138.99
137.819
135.848
133.118
129.642
125.414
120.413
114.621
108.041
100.697
92.6421
84.0115
75.0894
66.2085
57.6434
49.6312
42.3926
36.1263
31.0055
27.1743
24.751
23.8428
24.5908
27.2152
31.8304
39.1037
47.0746
39.6486
27.4073
13.248
-2.13648
-17.6435
-34.2202
-51.288
-68.4012
-85.7102
-102.962
-120.055
-137.02
-153.732
-170.12
-186.074
-201.418
-215.93
-229.353
-241.378
-251.684
-259.967
-265.89
-269.194
-269.784
-267.639
-262.724
-255.039
-244.684
-231.786
-216.479
-198.92
-179.266
-157.657
-134.173
-108.904
-81.7141
-52.975
-21.9734
6.38058
50.9051
61.539
72.8879
84.4333
95.0661
104.937
113.621
120.559
125.69
129.227
131.347
132.267
132.204
131.304
129.672
127.351
124.351
120.663
116.261
111.118
105.219
98.5722
91.2064
83.233
74.91
66.5504
58.4139
50.7297
43.7188
37.5849
32.5096
28.6481
26.1312
25.074
25.6203
27.9724
32.2182
38.8637
46.0551
36.7913
25.1852
11.7677
-2.7905
-17.4272
-33.0544
-49.1154
-65.1843
-81.4106
-97.5553
-113.528
-129.367
-144.966
-160.268
-175.188
-189.577
-203.243
-215.96
-227.45
-237.423
-245.587
-251.641
-255.306
-256.469
-255.092
-251.111
-244.479
-235.244
-223.489
-209.319
-192.868
-174.275
-153.672
-131.149
-106.805
-80.5675
-52.8271
-23.1438
3.99912
47.4794
57.5773
68.3752
79.3798
89.5296
98.9741
107.312
114.003
118.983
122.461
124.605
125.622
125.723
125.052
123.711
121.743
119.161
115.954
112.092
107.541
102.275
96.2855
89.5824
82.2512
74.5244
66.6941
59.0036
51.6716
44.9158
38.9422
33.9385
30.0691
27.4754
26.2803
26.6284
28.7057
32.5757
38.6002
45.0428
34.0905
23.0762
10.3489
-3.44
-17.2693
-32.0172
-47.1463
-62.2509
-77.4759
-92.5986
-107.536
-122.334
-136.897
-151.186
-165.133
-178.609
-191.453
-203.467
-214.402
-223.996
-231.971
-238.061
-241.976
-243.592
-242.86
-239.695
-234.014
-225.816
-215.145
-202.074
-186.71
-169.173
-149.586
-128.043
-104.655
-79.4007
-52.6907
-24.3249
1.61845
44.2479
53.846
64.1279
74.6255
84.3205
93.3621
101.37
107.82
112.649
116.061
118.214
119.305
119.541
119.062
117.97
116.31
114.094
111.312
107.935
103.921
99.2386
93.8648
87.7921
81.0831
73.9445
66.646
59.4134
52.4532
45.9768
40.1896
35.2829
31.4279
28.7751
27.4542
27.6093
29.4114
32.902
38.3166
44.0428
31.5441
21.0821
9.00043
-4.07046
-17.1505
-31.0798
-45.3447
-59.5554
-73.8552
-88.031
-102.011
-115.842
-129.444
-142.786
-155.818
-168.43
-180.483
-191.805
-202.175
-211.356
-219.088
-225.133
-229.205
-231.17
-230.968
-228.508
-223.677
-216.434
-206.783
-194.767
-180.465
-163.975
-145.409
-124.861
-102.453
-78.2114
-52.56
-25.5066
-0.748123
41.2041
50.3357
60.1333
70.1531
79.4196
88.0791
95.7712
101.988
106.667
110.006
112.155
113.302
113.65
113.335
112.457
111.062
109.166
106.761
103.814
100.287
96.1387
91.3369
85.8595
79.748
73.1839
66.4139
59.6462
53.0726
46.8964
41.3194
36.5338
32.7154
30.0217
28.588
28.557
30.0857
33.1962
38.0163
43.0596
29.1485
19.2038
7.72693
-4.6719
-17.0526
-30.2198
-43.6805
-57.0615
-70.5022
-83.8022
-96.8941
-109.83
-122.537
-134.996
-147.169
-158.962
-170.258
-180.905
-190.709
-199.456
-206.904
-212.84
-216.989
-219.21
-219.438
-217.579
-213.502
-207.131
-198.434
-187.423
-174.151
-158.694
-141.149
-121.61
-100.203
-76.9979
-52.4281
-26.6767
-3.08593
38.3415
47.0349
56.3775
65.9473
74.8085
83.1042
90.4943
96.4854
101.016
104.278
106.414
107.602
108.041
107.865
107.17
106.006
104.39
102.316
99.7539
96.6633
93.0014
88.7276
83.808
78.2655
72.2574
66.0077
59.7061
53.53
47.671
42.3249
37.683
33.9228
31.2063
29.674
29.4653
30.7247
33.4578
37.7024
42.0979
26.8985
17.4404
6.53156
-5.23714
-16.9633
-29.4188
-42.1292
-54.7377
-67.3806
-79.8668
-92.1347
-104.239
-116.114
-127.751
-139.118
-150.139
-160.714
-170.708
-179.952
-188.251
-195.387
-201.162
-205.322
-207.718
-208.287
-206.936
-203.521
-197.938
-190.127
-180.069
-167.79
-153.347
-136.818
-118.294
-97.9056
-75.757
-52.2884
-27.8235
-5.38096
35.6526
43.9342
52.8473
61.9913
70.4684
78.4181
85.5197
91.2934
95.6785
98.8598
100.974
102.192
102.706
102.647
102.11
101.146
99.775
97.9918
95.7706
93.0714
89.85
86.0603
81.6596
76.6551
71.1807
65.4388
59.6003
53.8269
48.298
43.2012
38.7231
35.0416
32.3209
30.7044
30.328
31.3247
33.686
37.3775
41.1614
24.7894
15.7897
5.41534
-5.76124
-16.8738
-28.6631
-40.6722
-52.5602
-64.4598
-76.1887
-87.6912
-99.0215
-110.123
-120.992
-131.606
-141.9
-151.789
-161.156
-169.851
-177.7
-184.503
-190.077
-194.192
-196.697
-197.529
-196.598
-193.759
-188.885
-181.89
-172.73
-161.406
-147.95
-132.428
-114.922
-95.5633
-74.4874
-52.1325
-28.9352
-7.61914
33.13
41.0231
49.5302
58.2705
66.3834
74.004
80.8285
86.3929
90.6351
93.7346
95.8217
97.0595
97.6346
97.6746
97.2735
96.4833
95.3254
93.7984
91.8791
89.5294
86.7051
83.3568
79.4357
74.9356
69.9702
64.7194
59.3364
53.967
48.7771
43.9438
39.6478
36.0642
33.3572
31.6718
31.1391
31.8818
33.8803
37.0443
40.2539
22.8161
14.2482
4.37859
-6.24061
-16.7767
-27.9409
-39.2934
-50.508
-61.7138
-72.7367
-83.5269
-94.1376
-104.519
-114.672
-124.582
-134.192
-143.431
-152.199
-160.359
-167.76
-174.216
-179.561
-183.587
-186.143
-187.169
-186.585
-184.242
-180
-173.752
-165.432
-155.019
-142.523
-127.991
-111.501
-93.1803
-73.1856
-51.953
-30.0016
-9.78718
30.7655
38.2918
46.4145
54.7723
62.5387
69.8458
76.4048
81.7666
85.8694
88.8866
90.9419
92.1914
92.8159
92.9401
92.6564
92.0169
91.0457
89.7437
88.091
86.0523
83.5843
80.6369
77.1566
73.1272
68.6427
63.8629
58.9236
53.9553
49.109
44.5504
40.4517
36.9835
34.3077
32.5688
31.8927
32.3924
34.0402
36.7045
39.378
20.9724
12.8131
3.41959
-6.67291
-16.6671
-27.2435
-37.9798
-48.5648
-59.1217
-69.4861
-79.612
-89.553
-99.2631
-108.748
-117.999
-126.967
-135.593
-143.788
-151.433
-158.391
-164.496
-169.59
-173.493
-176.052
-177.215
-176.909
-174.99
-171.307
-165.739
-158.202
-148.653
-137.083
-123.523
-108.04
-90.758
-71.8498
-51.7428
-31.0107
-11.8722
28.5516
35.731
43.4895
51.4835
58.9201
65.9284
72.2325
77.3991
81.3658
84.3007
86.3212
87.5759
88.2406
88.4362
88.2534
87.7451
86.9368
85.8324
84.4149
82.6522
80.503
77.9182
74.8411
71.2474
67.2145
62.8831
58.3725
53.7981
49.2963
45.0198
41.1311
37.7936
35.1654
33.3887
32.5831
32.8531
34.1652
36.3598
38.5359
19.2524
11.4798
2.53709
-7.05765
-16.5412
-26.5646
-36.7214
-46.7156
-56.6653
-66.4144
-75.9197
-85.2358
-94.3207
-103.182
-111.816
-120.183
-128.231
-135.882
-143.032
-149.557
-155.31
-160.14
-163.892
-166.418
-167.667
-167.582
-166.021
-162.829
-157.877
-151.064
-142.33
-131.649
-119.036
-104.548
-88.3006
-70.4773
-51.4921
-31.9529
-13.8612
26.4809
33.3312
40.7439
48.3914
55.514
62.2369
68.297
73.275
77.1097
79.9627
81.9459
83.2008
83.8977
84.1543
84.0583
83.664
82.9982
82.067
80.8568
79.3388
77.4745
75.2156
72.5053
69.313
65.7014
61.7937
57.694
53.5032
49.3428
45.3523
41.6829
38.4897
35.9241
34.1251
33.205
33.2605
34.2546
36.0113
37.729
17.6504
10.2441
1.7289
-7.395
-16.3963
-25.8979
-35.5097
-44.9486
-54.3289
-63.5019
-72.4278
-81.1602
-89.6612
-97.9412
-105.999
-113.802
-121.305
-128.441
-135.118
-141.224
-146.627
-151.187
-154.768
-157.229
-158.526
-158.609
-157.348
-154.586
-150.187
-144.04
-136.072
-126.241
-114.547
-101.034
-85.8122
-69.0662
-51.195
-32.8171
-15.743
24.5459
31.0836
38.1677
45.4856
52.3084
58.7583
64.5845
69.3807
73.0872
75.8593
77.8035
79.0545
79.7766
80.0852
80.0646
79.7696
79.2285
78.4489
77.4211
76.1195
74.5085
72.5421
70.164
67.3396
64.1187
60.6087
56.8997
53.0788
49.2536
45.5497
42.1061
39.0679
36.5789
34.7724
33.7537
33.6115
34.3078
35.6595
36.9579
16.1604
9.10201
0.992117
-7.6854
-16.231
-25.24
-34.338
-43.2549
-52.1007
-60.734
-69.1175
-77.3044
-85.2602
-92.9965
-100.516
-107.79
-114.782
-121.432
-127.657
-133.359
-138.418
-142.706
-146.103
-148.475
-149.786
-149.996
-148.983
-146.594
-142.689
-137.154
-129.901
-120.877
-110.068
-97.5082
-83.2963
-67.6151
-50.8438
-33.5951
-17.5081
22.7394
28.9802
35.7514
42.755
49.2914
55.4804
61.0817
65.7035
69.2856
71.9781
73.8819
75.1255
75.8677
76.22
76.2647
76.0562
75.6241
74.9777
74.1102
72.9997
71.6137
69.9087
67.8304
65.3414
62.4809
59.3418
56.0014
52.5345
49.035
45.615
42.4006
39.5259
37.1257
35.3259
34.2248
33.9034
34.324
35.3045
36.2222
14.7767
8.04872
0.323968
-7.93017
-16.0446
-24.5879
-33.2011
-41.6269
-49.9704
-58.097
-65.9728
-73.6491
-81.0952
-88.3234
-95.3394
-102.119
-108.63
-114.821
-120.618
-125.933
-130.658
-134.674
-137.877
-140.144
-141.442
-141.742
-140.932
-138.865
-135.402
-130.423
-123.836
-115.575
-105.616
-93.9808
-80.7578
-66.1233
-50.4323
-34.2789
-19.1482
21.0545
27.013
33.486
40.1892
46.4522
52.3914
57.7769
62.2307
65.6923
68.3068
70.1697
71.4034
72.1609
72.5501
72.6511
72.5183
72.1812
71.6518
70.9253
69.9831
68.7963
67.3244
65.5156
63.3312
60.8012
58.0057
55.0108
51.8799
48.6942
45.5524
42.5678
39.8627
37.5614
35.7819
34.6149
34.1335
34.3023
34.9459
35.521
13.4935
7.07978
-0.278682
-8.13083
-15.8367
-23.9393
-32.0945
-40.0569
-47.9278
-55.5785
-62.9786
-70.1772
-77.1465
-83.9003
-90.4452
-96.7616
-102.822
-108.58
-113.972
-118.917
-123.319
-127.069
-130.074
-132.222
-133.487
-133.847
-133.202
-131.411
-128.34
-123.867
-117.895
-110.353
-101.205
-90.4618
-78.2017
-64.5894
-49.9553
-34.8614
-20.6551
19.4844
25.1741
31.3626
37.7791
43.7806
49.4805
54.6591
58.9506
62.2959
64.8342
66.6558
67.8771
68.6458
69.0666
69.2163
69.1493
68.8956
68.4682
67.8656
67.0717
66.061
64.7964
63.229
61.3199
59.0916
56.6127
53.9396
51.1252
48.2391
45.3673
42.6103
40.0782
37.8844
36.1375
34.9209
34.2998
34.2418
34.5827
34.8524
12.3052
6.19077
-0.819111
-8.28916
-15.6075
-23.293
-31.0149
-38.5404
-45.9656
-53.1692
-60.1227
-66.8735
-73.3965
-79.7065
-85.8114
-91.6944
-97.3318
-102.684
-107.693
-112.287
-116.378
-119.868
-122.674
-124.696
-125.912
-126.308
-125.794
-124.24
-121.515
-117.5
-112.096
-105.226
-96.8473
-86.9615
-75.6333
-63.015
-49.4079
-35.3367
-22.0233
18.0229
23.4563
29.3733
35.5156
41.2668
46.7376
51.7171
55.8526
59.0853
61.5489
63.3291
64.5365
65.3131
65.7602
65.9523
65.9426
65.7617
65.424
64.9298
64.2663
63.4109
62.3301
60.9781
59.317
57.3629
55.1743
52.7988
50.2805
47.6781
45.066
42.532
40.1742
38.0944
36.3912
35.1408
34.4004
34.1415
34.2136
34.2139
11.2067
5.3772
-1.30063
-8.4073
-15.3579
-22.6478
-29.9601
-37.0726
-44.0782
-50.8609
-57.3949
-63.7261
-69.8315
-75.726
-81.419
-86.8965
-92.1379
-97.1087
-101.756
-106.018
-109.812
-113.052
-115.661
-117.552
-118.707
-119.119
-118.71
-117.357
-114.937
-111.335
-106.453
-100.21
-92.5577
-83.4897
-73.0582
-61.4003
-48.7877
-35.701
-23.2481
16.6635
21.8524
27.5102
33.3902
38.9018
44.1528
48.9411
52.9264
56.0502
58.4408
60.18
61.3717
62.1535
62.6228
62.8514
62.8914
62.7742
62.515
62.1157
61.5666
60.8479
59.9297
58.7697
57.3309
55.6249
53.701
51.5991
49.3558
47.0201
44.6554
42.3378
40.1532
38.192
36.5425
35.2734
34.4342
34.0005
33.8372
33.6025
10.1925
4.63484
-1.72663
-8.4874
-15.0887
-22.0034
-28.9274
-35.6498
-42.2598
-48.6461
-54.7859
-60.7234
-66.4372
-71.9433
-77.2513
-82.3494
-87.22
-91.8329
-96.1412
-100.088
-103.601
-106.599
-109.016
-110.775
-111.861
-112.274
-111.946
-110.764
-108.613
-105.383
-100.978
-95.3173
-88.3478
-80.056
-70.4825
-59.7473
-48.0928
-35.9511
-24.3264
15.4006
20.3561
25.7658
31.3949
36.677
41.7171
46.3216
50.162
53.1806
55.5003
57.1987
58.3737
59.158
59.6455
59.9054
59.9889
59.9273
59.7365
59.4203
58.9714
58.3728
57.598
56.6083
55.3686
53.8859
52.2021
50.3506
48.361
46.2742
44.1433
42.0335
40.0191
38.1794
36.592
35.3182
34.4003
33.8177
33.4513
33.0146
9.25779
3.95942
-2.10045
-8.53188
-14.8011
-21.3597
-27.916
-34.2696
-40.5056
-46.5187
-52.2877
-57.8556
-63.2026
-68.3448
-73.2926
-78.0361
-82.5599
-86.8377
-90.8273
-94.478
-97.7239
-100.492
-102.723
-104.351
-105.363
-105.766
-105.499
-104.463
-102.547
-99.6511
-95.6817
-90.5594
-84.2285
-76.6697
-67.9121
-58.0589
-47.3222
-36.0854
-25.2567
14.2283
18.9608
24.1334
29.5221
34.5843
39.4218
43.8496
47.5504
50.4673
52.7178
54.3755
55.5331
56.3179
56.8204
57.107
57.2282
57.2149
57.0838
56.8403
56.4789
55.9856
55.337
54.498
53.4356
52.1533
50.6863
49.0625
47.3057
45.4494
43.5377
41.6258
39.777
38.0597
36.5414
35.2758
34.2986
33.5924
33.0539
32.4464
8.39768
3.34689
-2.42534
-8.54285
-14.4965
-20.7168
-26.9245
-32.929
-38.8117
-44.4732
-49.8935
-55.1144
-60.1175
-64.919
-69.5299
-73.9416
-78.1413
-82.1056
-85.7966
-89.1687
-92.1632
-94.7135
-96.7658
-98.2641
-99.2001
-99.584
-99.3647
-98.4508
-96.7427
-94.1459
-90.5727
-85.9463
-80.2099
-73.339
-65.3533
-56.3386
-46.477
-36.1038
-26.0385
13.1411
17.6607
22.606
27.7646
32.6158
37.259
41.5166
45.083
47.9013
50.0846
51.7019
52.8412
53.6245
54.1389
54.4484
54.6022
54.6309
54.5518
54.3714
54.0865
53.6855
53.1475
52.4414
51.5364
50.4332
49.1613
47.7435
46.199
44.5548
42.8471
41.1219
39.4327
37.8373
36.3935
35.1477
34.1293
33.324
32.6428
31.8936
7.6076
2.79306
-2.70446
-8.52278
-14.1764
-20.075
-25.9522
-31.6262
-37.1754
-42.5051
-47.5973
-52.492
-57.1726
-61.6554
-65.9511
-70.0527
-73.9496
-77.6207
-81.0325
-84.1436
-86.9012
-89.2455
-91.1279
-92.5013
-93.3605
-93.7197
-93.5353
-92.7255
-91.1995
-88.8708
-85.6571
-81.4859
-76.3003
-70.0722
-62.8124
-54.5902
-45.5593
-36.0077
-26.6734
12.1339
16.4497
21.1777
26.1155
30.7645
35.2208
39.3147
42.7513
45.4744
47.5921
49.1696
50.2898
51.0698
51.5936
51.9224
52.1041
52.1693
52.1352
52.0098
51.7914
51.4706
51.0296
50.4406
49.6749
48.7311
47.6337
46.4014
45.0493
43.599
42.0799
40.5296
38.9926
37.5172
36.152
34.9361
33.8935
33.0119
32.2157
31.352
6.88307
2.29429
-2.9411
-8.47408
-13.8419
-19.435
-24.9983
-30.3595
-35.5933
-40.6101
-45.3933
-49.9817
-54.3599
-58.544
-62.545
-66.3571
-69.9712
-73.3687
-76.5195
-79.3866
-81.9221
-84.0727
-85.7945
-87.0482
-87.8318
-88.1622
-88.0034
-87.2819
-85.9163
-83.8273
-80.9394
-77.1842
-72.5068
-66.8764
-60.2956
-52.8187
-44.5722
-35.7998
-27.1638
11.2017
15.3228
19.8425
24.5687
29.0234
33.3003
37.2364
40.5477
43.1787
45.2323
46.7703
47.8709
48.6462
49.1769
49.5216
49.7273
49.8238
49.8288
49.7509
49.5902
49.3393
48.9829
48.4965
47.8536
47.0512
46.1093
45.0433
43.8648
42.5907
41.2447
39.857
38.464
37.1055
35.8214
34.6442
33.5926
32.6561
31.7707
30.8175
6.21988
1.8468
-3.1382
-8.39907
-13.4951
-18.7976
-24.0629
-29.1279
-34.0634
-38.7849
-43.2774
-47.5778
-51.6722
-55.5767
-59.302
-62.8436
-66.1938
-69.3361
-72.2437
-74.8829
-77.2111
-79.18
-80.7509
-81.8909
-82.6011
-82.9009
-82.7603
-82.1141
-80.8896
-79.0149
-76.4215
-73.0458
-68.8353
-63.7577
-57.809
-51.0293
-43.5202
-35.484
-27.5133
10.34
14.2745
18.5949
23.1178
27.3862
31.4903
35.2745
38.4649
41.0065
42.9978
44.4967
45.577
46.3461
46.8816
47.2395
47.4653
47.5887
47.6272
47.5905
47.4797
47.2893
47.0065
46.6096
46.0748
45.3973
44.5934
43.6757
42.6528
41.5381
40.3498
39.1124
37.8546
36.6088
35.407
34.2757
33.2288
32.2567
31.3056
30.2859
5.61391
1.4471
-3.29874
-8.30002
-13.137
-18.1634
-23.1458
-27.93
-32.5836
-37.0264
-41.245
-45.2747
-49.103
-52.7454
-56.2133
-59.5023
-62.6063
-65.5108
-68.1918
-70.6189
-72.7537
-74.553
-75.983
-77.016
-77.6561
-77.9245
-77.7966
-77.2148
-76.1146
-74.4316
-72.104
-69.0734
-65.2904
-60.7218
-55.3584
-49.2278
-42.4085
-35.0655
-27.7274
9.54405
13.3001
17.4291
21.7573
25.8465
29.7845
33.4223
36.4958
38.9508
40.8811
42.3414
43.401
44.1627
44.7008
45.0692
45.3119
45.4581
45.5255
45.5239
45.456
45.3178
45.0988
44.78
44.3396
43.7722
43.0903
42.3042
41.4203
40.4488
39.4037
38.3039
37.1723
36.0341
34.9149
33.835
32.8047
31.8145
30.819
29.7534
5.06143
1.09169
-3.42549
-8.17919
-12.7694
-17.5331
-22.2471
-26.7652
-31.152
-35.3317
-39.2922
-43.0676
-46.6462
-50.0435
-53.2704
-56.3239
-59.1987
-61.8819
-64.3519
-66.5818
-68.5368
-70.1786
-71.4771
-72.4102
-72.9841
-73.2212
-73.1021
-72.5759
-71.5855
-70.074
-67.9859
-65.2685
-61.8751
-57.7734
-52.9494
-47.4198
-41.2431
-34.5505
-27.8118
8.80967
12.3948
16.3404
20.4815
24.3987
28.1769
31.6735
34.6338
37.0048
38.8756
40.2976
41.3358
42.0889
42.6279
43.0044
43.2611
43.4265
43.5182
43.5468
43.5157
43.4225
43.2583
43.0072
42.6493
42.1783
41.6039
40.934
40.1737
39.3302
38.4141
37.4399
36.4251
35.3891
34.3513
33.3273
32.3234
31.3303
30.3094
29.2166
4.55867
0.77746
-3.52129
-8.03865
-12.3939
-16.9076
-21.3665
-25.6325
-29.767
-33.6985
-37.416
-40.9521
-44.2967
-47.4644
-50.4663
-53.2999
-55.9612
-58.4385
-60.7128
-62.7596
-64.5479
-66.0437
-67.2204
-68.0609
-68.5728
-68.7797
-68.6664
-68.1885
-67.2955
-65.9373
-64.0649
-61.6306
-58.5916
-54.9161
-50.587
-45.6116
-40.0309
-33.9461
-27.7737
8.13284
11.5542
15.324
19.2854
23.0371
26.6614
30.0217
32.8729
35.1622
36.9747
38.3588
39.3753
40.1186
40.6567
41.0391
41.3071
41.4885
41.6007
41.6547
41.6549
41.6001
41.4832
41.2906
41.0044
40.6175
40.1371
39.5697
38.9186
38.189
37.3887
36.5283
35.621
34.6811
33.723
32.7578
31.7886
30.8058
29.776
28.6723
4.10219
0.501292
-3.58873
-7.88048
-12.012
-16.2877
-20.5045
-24.5315
-28.4273
-32.1244
-35.6129
-38.9243
-42.0492
-45.0021
-47.794
-50.4226
-52.8852
-55.1713
-57.2639
-59.1411
-60.7753
-62.1361
-63.2004
-63.9552
-64.4096
-64.5881
-64.4788
-64.0431
-63.2367
-62.0157
-60.3372
-58.1585
-55.4406
-52.1528
-48.2758
-43.8092
-38.7789
-33.2599
-27.6206
7.50968
10.7741
14.3752
18.1641
21.7568
25.2328
28.4616
31.207
33.4169
35.1724
36.5188
37.5131
38.2455
38.7813
39.1675
39.4444
39.6389
39.7681
39.8435
39.8702
39.8481
39.7716
39.6291
39.4049
39.0911
38.693
38.2153
37.6604
37.0318
36.3347
35.577
34.768
33.918
33.0371
32.1323
31.2042
30.2426
29.2183
28.1181
3.68865