/*--------------------------------*- C++ -*----------------------------------*\
  =========                 |
  \\      /  F ield         | OpenFOAM: The Open Source CFD Toolbox
   \\    /   O peration     | Website:  https://openfoam.org
    \\  /    A nd           | Version:  13
     \\/     M anipulation  |
\*---------------------------------------------------------------------------*/
FoamFile
{
    format      ascii;
    class       surfaceScalarField;
    location    "313";
    object      phi;
}
// * * * * * * * * * * * * * * * * * * * * * * * * * * * * * * * * * * * * * //

dimensions      [0 3 -1 0 0 0 0];

internalField   nonuniform List<scalar> 
21254
(
-0.241973
0.261483
-0.0195091
0.283444
-0.0219611
0.302238
-0.0187945
0.318979
-0.0167411
0.334811
-0.0158318
0.347407
-0.0125958
0.357317
-0.00991013
0.365351
-0.0080336
0.370587
-0.00523631
0.374101
-0.00351422
0.376147
-0.00204563
0.376554
-0.000406786
0.375683
0.000870178
0.373499
0.00218463
0.369939
0.00355996
0.365294
0.00464518
0.359384
0.00591008
0.352314
0.00706947
0.343948
0.00836573
0.334527
0.0094209
0.323736
0.0107919
0.312156
0.01158
0.300062
0.0120932
0.288769
0.0112933
0.279478
0.00929062
0.271506
0.00797208
0.263724
0.00778186
0.255816
0.00790826
0.247447
0.0083695
0.238528
0.00891892
0.229033
0.00949463
0.218954
0.0100791
0.208225
0.0107289
0.196608
0.0116172
0.183576
0.0130324
0.168068
0.0155072
0.147734
0.0203347
0.117144
0.0305902
0.0951575
0.021987
-0.218876
-0.0230974
-0.194986
-0.0238901
-0.165536
-0.0294495
-0.133156
-0.0323806
-0.0989583
-0.0341976
-0.0635386
-0.0354197
-0.0284732
-0.0350653
0.00410437
-0.0325776
0.0336211
-0.0295168
0.0597953
-0.0261741
0.0821813
-0.022386
0.101202
-0.019021
0.117209
-0.0160069
0.130567
-0.0133579
0.141995
-0.011428
0.151828
-0.00983297
0.160548
-0.00871961
0.168392
-0.00784438
0.175675
-0.00728253
0.182521
-0.00684663
0.189104
-0.00658305
0.195416
-0.00631183
0.201389
-0.00597325
0.206399
-0.00500981
0.210259
-0.00385995
0.213247
-0.00298816
0.215361
-0.0021135
0.216716
-0.00135527
0.217327
-0.000611179
0.217137
0.000190239
0.216048
0.00108883
0.214196
0.00185243
0.211705
0.00249092
0.208638
0.00306638
0.204856
0.00378222
0.199932
0.0049239
0.192686
0.00724588
0.177779
0.0149069
0.155014
0.0227659
-0.220809
0.242385
-0.041085
0.264443
-0.044019
0.28746
-0.0418118
0.308921
-0.0382022
0.329849
-0.0367598
0.349225
-0.0319723
0.366651
-0.0273361
0.382388
-0.0237706
0.396029
-0.0188768
0.407633
-0.0151186
0.417222
-0.0116342
0.424934
-0.0081189
0.431081
-0.00527662
0.435816
-0.00255004
0.439022
0.000353689
0.440384
0.00328302
0.439828
0.0064662
0.437481
0.0094161
0.432845
0.0130023
0.426214
0.0160513
0.417193
0.0198135
0.406077
0.0226952
0.392866
0.0253051
0.378199
0.0259597
0.363347
0.0241424
0.348756
0.0225633
0.334522
0.0220159
0.320867
0.0215633
0.307612
0.0216246
0.294612
0.0219184
0.281662
0.022445
0.268602
0.0231391
0.255184
0.0241471
0.241196
0.0256053
0.226243
0.0279848
0.209331
0.0324195
0.189192
0.0404739
0.156936
0.0628458
0.113448
0.065476
-0.198749
-0.0451574
-0.175111
-0.0475275
-0.147432
-0.0571289
-0.118141
-0.0616718
-0.0870214
-0.0653169
-0.0545095
-0.0679316
-0.022134
-0.0674408
0.00887288
-0.0635845
0.0373656
-0.0580095
0.0627294
-0.0515379
0.0848789
-0.0445355
0.104114
-0.0382558
0.120875
-0.0327685
0.135389
-0.0278718
0.148093
-0.0241318
0.159287
-0.021027
0.169263
-0.0186952
0.178328
-0.0169097
0.186738
-0.0156922
0.194605
-0.0147141
0.202091
-0.0140687
0.209266
-0.0134867
0.216057
-0.0127646
0.222006
-0.0109592
0.226839
-0.00869226
0.230758
-0.00690714
0.23376
-0.00511561
0.235897
-0.00349222
0.237215
-0.00192953
0.237863
-0.000457732
0.237943
0.0010092
0.237395
0.00240028
0.23609
0.00379586
0.233983
0.00517312
0.231017
0.0067481
0.226947
0.00899391
0.221753
0.0124403
0.210826
0.0258333
0.189715
0.0438774
-0.214292
0.236036
-0.062829
0.257932
-0.065915
0.281556
-0.0654359
0.303153
-0.0597985
0.32368
-0.057287
0.343324
-0.0516167
0.360793
-0.0448047
0.376498
-0.0394761
0.389997
-0.0323752
0.401576
-0.0266982
0.411267
-0.0213251
0.419234
-0.0160854
0.425306
-0.0113488
0.429963
-0.00720739
0.432955
-0.00263792
0.435022
0.00121622
0.435851
0.00563725
0.435789
0.00947721
0.434507
0.0142848
0.431943
0.0186157
0.42798
0.023776
0.422449
0.0282266
0.415322
0.0324323
0.406695
0.0345865
0.397089
0.0337481
0.386567
0.0330855
0.375019
0.033564
0.362591
0.0339907
0.349458
0.034758
0.335716
0.0356599
0.321515
0.0366466
0.306885
0.0377686
0.291771
0.0392611
0.276
0.0413765
0.259184
0.0448009
0.240329
0.051275
0.218257
0.0625452
0.185287
0.0958156
0.13771
0.113054
-0.192405
-0.0670444
-0.168406
-0.0715267
-0.139684
-0.0858511
-0.109782
-0.091574
-0.0785215
-0.0965773
-0.0460537
-0.100399
-0.0139967
-0.0994978
0.0159795
-0.0935607
0.0435466
-0.0855766
0.0685308
-0.0765222
0.0906332
-0.0666379
0.11001
-0.0576324
0.127017
-0.0497761
0.14193
-0.0427848
0.15506
-0.0372612
0.166742
-0.0327091
0.177243
-0.029196
0.186829
-0.0264959
0.195709
-0.0245724
0.204048
-0.0230532
0.212031
-0.0220517
0.219672
-0.021128
0.226881
-0.0199728
0.233355
-0.0174336
0.238809
-0.0141465
0.243345
-0.0114431
0.247021
-0.00879106
0.249867
-0.00633884
0.251949
-0.00401158
0.25326
-0.00176872
0.253872
0.000398025
0.253777
0.00249491
0.252999
0.00457373
0.251465
0.00670692
0.249071
0.00914248
0.245431
0.0126338
0.240115
0.0177561
0.229425
0.0365231
0.209396
0.0639066
-0.206663
0.229417
-0.0855832
0.252227
-0.0887247
0.2773
-0.0905092
0.300179
-0.0826768
0.322342
-0.0794504
0.343574
-0.0728485
0.363056
-0.064287
0.380602
-0.0570217
0.396426
-0.0481999
0.410306
-0.0405779
0.422358
-0.0333765
0.432578
-0.026306
0.441
-0.019771
0.447661
-0.0138682
0.452881
-0.00785801
0.456289
-0.00219126
0.45803
0.00389578
0.457862
0.00964508
0.456113
0.0160346
0.452658
0.02207
0.447647
0.028787
0.441329
0.0345446
0.433833
0.0399286
0.425664
0.0427553
0.417254
0.0421587
0.408657
0.0416823
0.399502
0.0427192
0.389638
0.0438539
0.378887
0.0455095
0.36707
0.0474774
0.354181
0.0495347
0.340212
0.0517379
0.325164
0.0543092
0.308915
0.0576257
0.291212
0.0625036
0.271111
0.071376
0.247359
0.0862974
0.213082
0.130093
0.164879
0.161258
-0.184191
-0.0895163
-0.160083
-0.095635
-0.13083
-0.115104
-0.10079
-0.121614
-0.0694613
-0.127906
-0.0368882
-0.132972
-0.00491159
-0.131474
0.0246892
-0.123162
0.0517439
-0.112631
0.0763232
-0.101101
0.0980873
-0.088402
0.117274
-0.0768194
0.134293
-0.0667952
0.149384
-0.0578754
0.162863
-0.0507398
0.174954
-0.0448
0.185946
-0.0401884
0.196019
-0.0365686
0.205402
-0.0339557
0.214235
-0.0318862
0.22263
-0.0304466
0.230653
-0.0291507
0.238244
-0.027564
0.245085
-0.0242751
0.250936
-0.0199969
0.255855
-0.0163627
0.259888
-0.0128243
0.263084
-0.00953427
0.265474
-0.00640157
0.267115
-0.00341012
0.268036
-0.000522875
0.268262
0.00226936
0.26779
0.00504514
0.266607
0.00789068
0.26459
0.0111589
0.261361
0.0158625
0.256326
0.0227917
0.246134
0.0467145
0.226464
0.0835771
-0.202548
0.226119
-0.109154
0.249813
-0.112419
0.276306
-0.117001
0.299955
-0.106326
0.323147
-0.102643
0.345487
-0.0951888
0.365876
-0.0846754
0.384414
-0.0755599
0.401404
-0.0651895
0.416186
-0.0553607
0.429156
-0.0463461
0.44025
-0.0373996
0.449745
-0.0292668
0.45731
-0.0214328
0.463123
-0.0136709
0.467186
-0.00625458
0.469658
0.00142435
0.470577
0.00872621
0.469697
0.0169143
0.467282
0.0244844
0.463187
0.0328823
0.45755
0.0401818
0.450608
0.046871
0.442757
0.0506059
0.434573
0.0503422
0.426264
0.0499917
0.417683
0.0513006
0.408765
0.0527715
0.399369
0.0549057
0.389325
0.0575209
0.378386
0.060474
0.366322
0.0638014
0.35292
0.0677119
0.337889
0.0726558
0.320823
0.0795702
0.300842
0.091357
0.276515
0.110624
0.241526
0.165082
0.193239
0.209545
-0.179033
-0.113031
-0.154219
-0.120449
-0.123725
-0.145599
-0.0928569
-0.152482
-0.0608216
-0.159941
-0.027635
-0.166159
0.0047624
-0.163872
0.0344147
-0.152814
0.0612871
-0.139504
0.0856104
-0.125425
0.107085
-0.109876
0.126046
-0.0957811
0.142989
-0.0837381
0.158123
-0.0730096
0.171761
-0.0643778
0.184165
-0.0572033
0.195509
-0.0515325
0.205976
-0.0470364
0.215761
-0.0437402
0.225
-0.0411254
0.233787
-0.0392338
0.242163
-0.0375262
0.250092
-0.035493
0.2573
-0.0314834
0.263528
-0.0262244
0.268806
-0.0216409
0.273168
-0.0171859
0.276665
-0.0130313
0.279325
-0.00906201
0.281181
-0.0052666
0.282274
-0.00161563
0.282657
0.00188689
0.282322
0.00537941
0.281233
0.00897994
0.279336
0.013056
0.27624
0.018959
0.271337
0.0276942
0.26169
0.0563615
0.242688
0.102579
-0.199221
0.223809
-0.133743
0.248834
-0.137444
0.276707
-0.144874
0.301568
-0.131187
0.325782
-0.126857
0.3495
-0.118907
0.37086
-0.106036
0.390686
-0.0953853
0.408664
-0.0831681
0.424681
-0.071377
0.438964
-0.0606293
0.451324
-0.0497596
0.461984
-0.0399266
0.47092
-0.0303688
0.477991
-0.020742
0.483513
-0.011777
0.487106
-0.00216846
0.488864
0.00696844
0.488896
0.0168818
0.487028
0.0263533
0.483309
0.0366004
0.477966
0.0455249
0.471152
0.0536857
0.463287
0.0584703
0.454889
0.0587401
0.446222
0.0586591
0.43724
0.0602827
0.427958
0.0620538
0.418379
0.0644842
0.408433
0.0674674
0.398046
0.0708606
0.386988
0.0748602
0.374986
0.0797135
0.361612
0.0860301
0.346249
0.0949325
0.327713
0.109893
0.304385
0.133953
0.27003
0.199437
0.222259
0.257316
-0.174739
-0.137513
-0.149109
-0.146079
-0.117307
-0.1774
-0.085301
-0.184488
-0.0522691
-0.192973
-0.0181559
-0.200272
0.0149468
-0.196975
0.0449382
-0.182805
0.0719054
-0.166471
0.096154
-0.149673
0.117447
-0.131169
0.136188
-0.114523
0.152976
-0.100526
0.168065
-0.0880987
0.181761
-0.0780736
0.19432
-0.0697622
0.205902
-0.0631145
0.216698
-0.0578323
0.226833
-0.0538758
0.236436
-0.0507277
0.245595
-0.0483936
0.254334
-0.0462646
0.262597
-0.0437563
0.2702
-0.0390865
0.276815
-0.0328396
0.282434
-0.0272593
0.287139
-0.0218915
0.290928
-0.0168195
0.293846
-0.0119801
0.295923
-0.00734409
0.297198
-0.00289072
0.297697
0.00138845
0.297425
0.0056515
0.296397
0.0100073
0.294465
0.0149884
0.291334
0.02209
0.286313
0.0327153
0.276951
0.0657229
0.258657
0.120873
-0.197203
0.223122
-0.159662
0.249184
-0.163506
0.278628
-0.174318
0.304769
-0.157328
0.330244
-0.152332
0.355041
-0.143703
0.377579
-0.128573
0.398259
-0.116065
0.417293
-0.102202
0.434254
-0.0883384
0.449374
-0.075749
0.462792
-0.0631782
0.474374
-0.0515084
0.484182
-0.0401771
0.49228
-0.0288394
0.498486
-0.0179829
0.502955
-0.00663742
0.50559
0.00433321
0.506415
0.0160566
0.505366
0.0274019
0.502484
0.0394824
0.497832
0.0501773
0.491734
0.0597831
0.484376
0.0658287
0.476267
0.0668495
0.467644
0.0672813
0.458516
0.069411
0.448916
0.0716541
0.438929
0.0744708
0.428524
0.0778725
0.417709
0.081676
0.40644
0.0861283
0.394589
0.0915645
0.381823
0.098797
0.367633
0.109122
0.350815
0.126712
0.329534
0.155233
0.297503
0.231468
0.251276
0.303543
-0.171512
-0.163203
-0.144777
-0.172814
-0.111528
-0.210649
-0.0782142
-0.217802
-0.0439836
-0.227204
-0.00863051
-0.235625
0.0254402
-0.231045
0.0560858
-0.213451
0.0833984
-0.193784
0.107799
-0.174074
0.129017
-0.152387
0.147605
-0.133111
0.164241
-0.117161
0.17922
-0.103078
0.192879
-0.0917329
0.205503
-0.0823858
0.217258
-0.0748694
0.228284
-0.0688589
0.238714
-0.0643058
0.248639
-0.0606523
0.258128
-0.0578824
0.267194
-0.0553312
0.275815
-0.0523766
0.283743
-0.0470152
0.290751
-0.0398476
0.296761
-0.0332687
0.301792
-0.0269226
0.305894
-0.0209217
0.309069
-0.015155
0.311378
-0.00965321
0.312821
-0.00433378
0.313455
0.000754308
0.313287
0.0058195
0.312264
0.0110304
0.310331
0.0169215
0.307106
0.0253154
0.301898
0.0379229
0.292616
0.0750046
0.274947
0.138543
-0.195913
0.223168
-0.186917
0.250666
-0.191004
0.281795
-0.205448
0.309138
-0.184671
0.335907
-0.179101
0.361958
-0.169755
0.385517
-0.152132
0.407415
-0.137962
0.427266
-0.122054
0.445166
-0.106239
0.461341
-0.0919238
0.475625
-0.0774622
0.488093
-0.063976
0.498862
-0.050946
0.507864
-0.0378412
0.515053
-0.0251726
0.520459
-0.0120427
0.524008
0.000783614
0.525614
0.0144503
0.525282
0.0277346
0.523096
0.0416684
0.519058
0.0542147
0.513411
0.06543
0.506509
0.0727309
0.498677
0.0746819
0.490174
0.0757844
0.481057
0.0785279
0.47133
0.0813813
0.461038
0.0847623
0.450246
0.0886646
0.438904
0.0930178
0.427062
0.0979708
0.414627
0.103999
0.401503
0.111921
0.3873
0.123326
0.371171
0.142841
0.351608
0.174796
0.322805
0.260271
0.27933
0.347018
-0.168992
-0.190124
-0.1411
-0.200707
-0.106136
-0.245613
-0.0713033
-0.252635
-0.0356488
-0.262858
0.00107402
-0.272348
0.0363658
-0.266337
0.0678774
-0.244962
0.0957254
-0.221632
0.120417
-0.198765
0.141712
-0.173683
0.160218
-0.151617
0.176724
-0.133666
0.191573
-0.117927
0.205148
-0.105308
0.21779
-0.0950285
0.229617
-0.0866955
0.240805
-0.0800473
0.251452
-0.0749525
0.261647
-0.0708479
0.271421
-0.0676556
0.280814
-0.0647243
0.289762
-0.061325
0.298059
-0.055312
0.305437
-0.0472255
0.311813
-0.0396449
0.317199
-0.0323083
0.321622
-0.0253451
0.325076
-0.0186091
0.327604
-0.0121808
0.32925
-0.00598039
0.330018
-1.34822e-05
0.329938
0.00589965
0.328964
0.0120047
0.326982
0.0189031
0.323664
0.0286332
0.318285
0.0433024
0.309001
0.0842883
0.291943
0.155601
-0.195474
0.224096
-0.215539
0.253042
-0.21995
0.285872
-0.238278
0.314608
-0.213407
0.34285
-0.207342
0.370262
-0.197167
0.395046
-0.176916
0.417831
-0.160747
0.438801
-0.143024
0.45754
-0.124977
0.474427
-0.10881
0.489532
-0.0925678
0.502869
-0.0773129
0.514445
-0.0625224
0.524263
-0.0476587
0.532343
-0.0332529
0.538552
-0.0182509
0.542843
-0.00350787
0.545207
0.0120868
0.545596
0.0273453
0.544091
0.0431728
0.540734
0.0575724
0.535691
0.0704724
0.529278
0.0791441
0.521826
0.0821345
0.513541
0.0840694
0.504477
0.0875918
0.494707
0.0911506
0.484294
0.0951754
0.473229
0.0997299
0.461522
0.104724
0.449178
0.110316
0.436141
0.117036
0.422296
0.125765
0.407425
0.138197
0.390889
0.159377
0.371804
0.19388
0.345814
0.286262
0.305537
0.387295
-0.167062
-0.218536
-0.137815
-0.229953
-0.101077
-0.282352
-0.0646847
-0.289027
-0.0273762
-0.300167
0.0109214
-0.310646
0.0476758
-0.303091
0.0802372
-0.277524
0.108807
-0.250201
0.133966
-0.223924
0.155459
-0.195175
0.17399
-0.170149
0.19042
-0.150096
0.205151
-0.132659
0.218623
-0.118779
0.231194
-0.1076
0.243051
-0.0985523
0.254327
-0.0913236
0.265128
-0.0857528
0.27554
-0.08126
0.285596
-0.0777118
0.29526
-0.0743883
0.304515
-0.0705803
0.313164
-0.0639613
0.320932
-0.0549933
0.327662
-0.0463746
0.333405
-0.0380512
0.338131
-0.0300711
0.341886
-0.0223645
0.344668
-0.0149623
0.346504
-0.00781675
0.347431
-0.00094043
0.347437
0.0058937
0.346507
0.012935
0.344524
0.020886
0.34113
0.0320265
0.335563
0.0488701
0.326297
0.0935542
0.309842
0.172056
-0.195479
0.225716
-0.245776
0.256213
-0.250446
0.290939
-0.273004
0.321133
-0.243601
0.350664
-0.236873
0.379554
-0.226057
0.405512
-0.202875
0.429441
-0.184676
0.451401
-0.164984
0.471022
-0.144598
0.488769
-0.126557
0.504756
-0.108555
0.518803
-0.0913598
0.531101
-0.0748209
0.541786
-0.0583438
0.550576
-0.0420422
0.557565
-0.0252404
0.562614
-0.00855634
0.565778
0.00892243
0.566957
0.0261666
0.566068
0.0440619
0.563362
0.0602785
0.5589
0.0749339
0.552992
0.0850521
0.545894
0.089233
0.537779
0.0921845
0.528822
0.0965481
0.51907
0.100903
0.508518
0.105728
0.497272
0.110975
0.485286
0.11671
0.472535
0.123067
0.458981
0.13059
0.444503
0.140243
0.428876
0.153824
0.411482
0.176771
0.391787
0.213575
0.367292
0.310757
0.329785
0.424802
-0.165697
-0.248318
-0.134985
-0.260666
-0.0962849
-0.321051
-0.0580328
-0.327279
-0.0190433
-0.339156
0.0210901
-0.350779
0.0593736
-0.341375
0.0931754
-0.311326
0.122638
-0.279664
0.148436
-0.249722
0.17025
-0.21699
0.188879
-0.188778
0.2053
-0.166517
0.219941
-0.1473
0.233301
-0.132139
0.245793
-0.120092
0.257613
-0.110372
0.268915
-0.102625
0.279838
-0.096676
0.290414
-0.0918365
0.300653
-0.0879507
0.310594
-0.0843286
0.320154
-0.0801407
0.329134
-0.0729411
0.33725
-0.0631095
0.344364
-0.0534881
0.350439
-0.0441267
0.355509
-0.0351413
0.359549
-0.0264043
0.362584
-0.0179969
0.364647
-0.00987973
0.365718
-0.00201171
0.365844
0.00576735
0.364971
0.0138084
0.362969
0.0228882
0.359487
0.0355085
0.353798
0.054559
0.344573
0.10278
0.328696
0.187932
-0.19611
0.227918
-0.277584
0.259993
-0.282522
0.296649
-0.309661
0.328528
-0.27548
0.359678
-0.268023
0.390043
-0.256422
0.417149
-0.229981
0.442311
-0.209838
0.46531
-0.187984
0.485877
-0.165165
0.504418
-0.145098
0.521042
-0.125179
0.535892
-0.10621
0.549039
-0.0879676
0.560316
-0.0696205
0.569883
-0.0516101
0.577595
-0.032952
0.583434
-0.0143954
0.58726
0.00509644
0.58911
0.0243165
0.588941
0.0442308
0.586815
0.062405
0.582934
0.0788147
0.577537
0.0904488
0.57084
0.0959304
0.56303
0.0999942
0.554194
0.105384
0.544413
0.110684
0.533813
0.116328
0.522352
0.122436
0.510094
0.128968
0.497013
0.136148
0.483026
0.144577
0.467997
0.155272
0.451668
0.170153
0.433467
0.194972
0.412712
0.23433
0.388529
0.334939
0.352849
0.460482
-0.164652
-0.279776
-0.132432
-0.292885
-0.091657
-0.361826
-0.0514738
-0.367463
-0.0105196
-0.38011
0.0314795
-0.392778
0.0715265
-0.381422
0.106719
-0.346518
0.137247
-0.310192
0.163758
-0.276232
0.186037
-0.23927
0.204877
-0.207618
0.221366
-0.183006
0.235949
-0.161883
0.249211
-0.145401
0.261602
-0.132483
0.273355
-0.122125
0.284658
-0.113929
0.295608
-0.107626
0.306295
-0.102524
0.316737
-0.0983924
0.3269
-0.0944912
0.336717
-0.0899577
0.346026
-0.08225
0.354493
-0.0715769
0.361959
-0.0609538
0.368402
-0.0505698
0.373795
-0.0405344
0.37815
-0.0307602
0.381447
-0.0212938
0.383711
-0.0121432
0.384977
-0.00327793
0.385211
0.00553298
0.384403
0.0146167
0.382391
0.0248999
0.378859
0.0390408
0.373034
0.0603842
0.363867
0.111947
0.348628
0.20317
-0.197061
0.23067
-0.311193
0.264506
-0.316358
0.303203
-0.348357
0.336684
-0.308962
0.369449
-0.300787
0.401401
-0.288374
0.430018
-0.258598
0.456318
-0.236137
0.480393
-0.21206
0.501867
-0.186639
0.52131
-0.164541
0.538802
-0.142671
0.55427
-0.121678
0.568041
-0.101739
0.580094
-0.081673
0.59035
-0.0618667
0.598723
-0.0413247
0.605197
-0.020869
0.609705
0.000588435
0.612246
0.0217753
0.612754
0.0437229
0.611291
0.0638675
0.607994
0.0821121
0.603096
0.0953471
0.596787
0.102239
0.589253
0.107529
0.580569
0.114067
0.570861
0.120392
0.560168
0.127022
0.54856
0.134043
0.536042
0.141486
0.522605
0.149586
0.508216
0.158966
0.492675
0.170813
0.47573
0.187098
0.456823
0.213879
0.435041
0.256113
0.410424
0.359557
0.375833
0.495073
-0.163966
-0.312872
-0.130016
-0.326834
-0.0871084
-0.404734
-0.044834
-0.409737
-0.00183625
-0.423108
0.0422127
-0.436827
0.0842011
-0.42341
0.12089
-0.383207
0.15259
-0.341893
0.180003
-0.303644
0.202857
-0.262124
0.222008
-0.226769
0.238597
-0.199595
0.253188
-0.176473
0.266374
-0.158587
0.27867
-0.144779
0.290326
-0.133781
0.301576
-0.125179
0.312551
-0.118601
0.323299
-0.113272
0.33386
-0.108953
0.344203
-0.104834
0.354294
-0.100048
0.363903
-0.0918589
0.372708
-0.0803827
0.380527
-0.068772
0.387308
-0.0573514
0.393048
-0.0462746
0.397688
-0.0353999
0.401268
-0.0248741
0.403768
-0.014643
0.405203
-0.00471291
0.405583
0.00515362
0.404826
0.0153731
0.402831
0.0268955
0.399237
0.0426343
0.393305
0.0663164
0.384262
0.12099
0.36968
0.217752
-0.198516
0.233833
-0.34651
0.269531
-0.352056
0.310388
-0.389214
0.345726
-0.3443
0.380245
-0.335307
0.41384
-0.321969
0.443879
-0.288637
0.471517
-0.263775
0.496657
-0.2372
0.51912
-0.209101
0.539401
-0.184822
0.557634
-0.160903
0.573925
-0.13797
0.588404
-0.116217
0.601075
-0.0943435
0.611929
-0.0727205
0.620974
-0.0503703
0.628138
-0.0280325
0.633307
-0.0045806
0.63642
0.0186625
0.637558
0.0425847
0.636678
0.0647469
0.633946
0.0848444
0.629596
0.099697
0.623781
0.108054
0.616544
0.114765
0.608066
0.122545
0.598412
0.130046
0.587674
0.13776
0.575929
0.145788
0.563184
0.154231
0.549416
0.163354
0.534582
0.1738
0.518528
0.186867
0.500989
0.204637
0.481429
0.233439
0.458834
0.278708
0.433547
0.384843
0.399604
0.529016
-0.163499
-0.347889
-0.127891
-0.362443
-0.0826157
-0.45001
-0.0381517
-0.454201
0.0070917
-0.468351
0.0534062
-0.483142
0.0973573
-0.467362
0.135749
-0.421598
0.168747
-0.374891
0.197164
-0.332062
0.220688
-0.285648
0.240237
-0.246319
0.257052
-0.21641
0.271698
-0.191119
0.28484
-0.171729
0.297048
-0.156986
0.308607
-0.14534
0.319778
-0.13635
0.330711
-0.129534
0.341494
-0.124055
0.352138
-0.119597
0.362648
-0.115344
0.372946
-0.110347
0.382847
-0.10176
0.391968
-0.0895037
0.400124
-0.0769283
0.407248
-0.0644758
0.413297
-0.0523236
0.418261
-0.040364
0.42212
-0.0287322
0.424865
-0.0173885
0.426506
-0.00635377
0.427016
0.00464374
0.42635
0.016039
0.424359
0.0288865
0.420745
0.0462483
0.414735
0.0723266
0.405781
0.129943
0.391907
0.231626
-0.200214
0.237478
-0.383773
0.275142
-0.389719
0.318299
-0.432371
0.355529
-0.38153
0.391832
-0.37161
0.427188
-0.357325
0.458778
-0.320227
0.487732
-0.292729
0.514109
-0.263576
0.537571
-0.232563
0.558822
-0.206073
0.577843
-0.179924
0.594848
-0.154975
0.610004
-0.131374
0.62322
-0.10756
0.634758
-0.0842585
0.644427
-0.060039
0.652184
-0.0357898
0.658006
-0.0104022
0.661784
0.0148844
0.663504
0.0408646
0.663237
0.0650143
0.661081
0.0870004
0.657238
0.10354
0.651842
0.113449
0.644934
0.121674
0.636692
0.130787
0.627161
0.139577
0.616413
0.148509
0.604543
0.157658
0.591561
0.167213
0.577481
0.177434
0.56221
0.189071
0.545665
0.203412
0.527529
0.222772
0.507323
0.253646
0.483974
0.302057
0.458092
0.410725
0.424642
0.562466
-0.163419
-0.384684
-0.125764
-0.400097
-0.0781099
-0.497664
-0.0312687
-0.501042
0.0162855
-0.515906
0.0649301
-0.531786
0.111146
-0.513577
0.151321
-0.461773
0.185791
-0.409361
0.215313
-0.361584
0.239619
-0.309954
0.259642
-0.266342
0.276734
-0.233501
0.291484
-0.20587
0.30461
-0.184854
0.316758
-0.169134
0.328229
-0.156811
0.339292
-0.147414
0.350166
-0.140408
0.360945
-0.134834
0.371644
-0.130295
0.382263
-0.125963
0.392764
-0.120848
0.402917
-0.111913
0.412333
-0.0989199
0.420809
-0.0854049
0.428265
-0.0719316
0.434655
-0.058713
0.439931
-0.0456401
0.444072
-0.0328737
0.44706
-0.0203767
0.448893
-0.00818619
0.44956
0.0039764
0.448985
0.0166143
0.447024
0.0308469
0.443384
0.0498884
0.43733
0.0783809
0.428552
0.138721
0.415372
0.244806
-0.202228
0.2416
-0.423145
0.281287
-0.429407
0.326859
-0.477943
0.366045
-0.420716
0.404283
-0.409848
0.441596
-0.394639
0.474715
-0.353346
0.505117
-0.323132
0.532856
-0.291315
0.557423
-0.257131
0.579564
-0.228214
0.599438
-0.199798
0.617077
-0.172615
0.632913
-0.14721
0.646886
-0.121532
0.658993
-0.0963653
0.669266
-0.0703119
0.677596
-0.0441198
0.683907
-0.0167136
0.688257
0.0105348
0.690592
0.0385296
0.690847
0.0647585
0.689248
0.0885996
0.68593
0.106859
0.681004
0.118375
0.674503
0.128175
0.666472
0.138817
0.65708
0.14897
0.646389
0.1592
0.634427
0.16962
0.621255
0.180385
0.606852
0.191836
0.59121
0.204714
0.57415
0.220471
0.555395
0.241528
0.534534
0.274506
0.510539
0.326052
0.484083
0.437182
0.451158
0.595391
-0.163429
-0.423483
-0.123898
-0.439628
-0.0735819
-0.54798
-0.0242571
-0.550367
0.0257876
-0.56595
0.0769995
-0.582998
0.125505
-0.562082
0.167661
-0.50393
0.203651
-0.445351
0.234437
-0.392369
0.259598
-0.335115
0.280223
-0.286966
0.297669
-0.250947
0.31259
-0.220791
0.325765
-0.198029
0.337853
-0.181222
0.349227
-0.168185
0.360211
-0.158397
0.371002
-0.151198
0.381731
-0.145563
0.392446
-0.14101
0.403166
-0.136683
0.413828
-0.13151
0.424205
-0.12229
0.433914
-0.108629
0.442691
-0.0941816
0.450464
-0.0797049
0.457161
-0.0654102
0.462748
-0.0512267
0.467164
-0.0372895
0.470413
-0.0236262
0.472473
-0.0102463
0.473284
0.00316573
0.472826
0.017072
0.470914
0.0327587
0.467267
0.0535361
0.461198
0.0844493
0.452568
0.147351
0.440136
0.257238
-0.204612
0.246143
-0.464676
0.28796
-0.471224
0.336047
-0.526029
0.377301
-0.46197
0.41766
-0.450207
0.456931
-0.433909
0.491758
-0.388173
0.52372
-0.355095
0.552756
-0.320351
0.578424
-0.282798
0.601562
-0.251352
0.622315
-0.220551
0.640831
-0.191131
0.6573
-0.163679
0.671863
-0.136095
0.684555
-0.109057
0.69538
-0.081137
0.704269
-0.0530084
0.711229
-0.0236742
0.7161
0.00566428
0.718931
0.0356983
0.719774
0.0639152
0.718675
0.0896993
0.715855
0.109679
0.711369
0.12286
0.70524
0.134304
0.697517
0.14654
0.688294
0.158193
0.677644
0.16985
0.665622
0.181642
0.65229
0.193717
0.637626
0.2065
0.621571
0.220769
0.604017
0.238025
0.584687
0.260858
0.563196
0.295997
0.538534
0.350714
0.511576
0.46414
0.479197
0.62777
-0.163647
-0.464448
-0.121969
-0.481306
-0.0689513
-0.600998
-0.0169971
-0.602321
0.0356919
-0.618639
0.0895904
-0.636897
0.140593
-0.613085
0.184822
-0.548158
0.222513
-0.483042
0.254621
-0.424478
0.280775
-0.361269
0.302043
-0.308235
0.319902
-0.268806
0.33506
-0.23595
0.348312
-0.211281
0.360397
-0.193308
0.371691
-0.179479
0.382572
-0.169278
0.393271
-0.161897
0.403944
-0.156237
0.414644
-0.151709
0.425407
-0.147446
0.436206
-0.142309
0.446812
-0.132896
0.456764
-0.11858
0.465817
-0.103235
0.473891
-0.0877783
0.480897
-0.0724169
0.486789
-0.0571184
0.491504
-0.0420044
0.49501
-0.0271321
0.497268
-0.0125047
0.498273
0.00216118
0.497921
0.0174236
0.496074
0.0346062
0.492443
0.057167
0.486379
0.0905138
0.47796
0.155769
0.466305
0.268893
-0.207209
0.25096
-0.508427
0.295108
-0.515372
0.345877
-0.576799
0.389368
-0.505461
0.43189
-0.492729
0.473196
-0.475215
0.509882
-0.424859
0.543458
-0.388671
0.573877
-0.35077
0.600779
-0.3097
0.625055
-0.275628
0.646666
-0.242162
0.66595
-0.210415
0.683151
-0.18088
0.698315
-0.151258
0.711609
-0.122351
0.722975
-0.0925031
0.732429
-0.0624627
0.739858
-0.0311034
0.745287
0.000235196
0.748625
0.0323603
0.749938
0.0626021
0.749372
0.0902658
0.747029
0.112022
0.743025
0.126865
0.737266
0.140062
0.729834
0.153972
0.720808
0.167219
0.710231
0.180427
0.698201
0.193672
0.684725
0.207193
0.669813
0.221412
0.653403
0.237179
0.635376
0.256052
0.615495
0.280739
0.593334
0.318158
0.568071
0.375977
0.540654
0.491556
0.508792
0.659632
-0.164021
-0.507636
-0.120133
-0.525194
-0.0642471
-0.656884
-0.00945893
-0.657109
0.0460033
-0.674101
0.102709
-0.693602
0.156418
-0.666794
0.20283
-0.594571
0.242354
-0.522566
0.275901
-0.458025
0.303102
-0.38847
0.325106
-0.330239
0.34348
-0.287179
0.358921
-0.251391
0.372305
-0.224664
0.384422
-0.205425
0.39567
-0.190728
0.406462
-0.18007
0.417062
-0.172497
0.427647
-0.166821
0.43832
-0.162382
0.449107
-0.158234
0.460013
-0.153215
0.470785
-0.143668
0.480961
-0.128756
0.490289
-0.112563
0.498642
-0.0961315
0.505956
-0.0797312
0.512133
-0.063295
0.517134
-0.0470052
0.520898
-0.0308966
0.523401
-0.015008
0.524573
0.00099008
0.524342
0.017654
0.522581
0.0363674
0.518979
0.0607695
0.512982
0.0965104
0.504766
0.163985
0.493869
0.27979
-0.210133
0.256286
-0.55458
0.302875
-0.561961
0.356331
-0.630255
0.402289
-0.551418
0.44698
-0.53742
0.490559
-0.518794
0.529095
-0.463395
0.564389
-0.423965
0.596352
-0.382733
0.624565
-0.337913
0.649826
-0.300889
0.672476
-0.264811
0.692525
-0.230464
0.710445
-0.1988
0.726344
-0.167156
0.740178
-0.136186
0.752123
-0.104448
0.762081
-0.0724208
0.770064
-0.0390858
0.775947
-0.00564829
0.779759
0.0285489
0.781596
0.0607649
0.781448
0.0904141
0.77957
0.113899
0.77598
0.130455
0.770605
0.145437
0.763498
0.16108
0.754694
0.176023
0.744272
0.190849
0.732233
0.205711
0.718646
0.22078
0.703502
0.236557
0.686752
0.253929
0.668295
0.274509
0.647831
0.301203
0.625088
0.340901
0.599223
0.401842
0.57133
0.519449
0.540008
0.690954
-0.164604
-0.553166
-0.118334
-0.571464
-0.059366
-0.715852
-0.00167085
-0.714805
0.0567849
-0.732557
0.1165
-0.753317
0.172947
-0.723241
0.221786
-0.64341
0.263215
-0.563995
0.298353
-0.493162
0.326713
-0.416831
0.349543
-0.353069
0.368474
-0.30611
0.384261
-0.267178
0.397831
-0.238235
0.409992
-0.217586
0.421234
-0.201969
0.431935
-0.190771
0.442435
-0.182997
0.452931
-0.177317
0.463546
-0.172998
0.474337
-0.169025
0.485328
-0.164206
0.496257
-0.154598
0.506641
-0.13914
0.516194
-0.122117
0.524804
-0.104742
0.532384
-0.0873112
0.53886
-0.0697706
0.54413
-0.0522748
0.548167
-0.0349338
0.550883
-0.0177244
0.552259
-0.000385231
0.55219
0.0177226
0.550494
0.0380632
0.546985
0.0642783
0.54105
0.102445
0.533114
0.171922
0.522989
0.289914
-0.21329
0.261972
-0.603262
0.311032
-0.611021
0.367557
-0.68678
0.415826
-0.599687
0.463041
-0.584635
0.508887
-0.56464
0.549533
-0.504041
0.586559
-0.460991
0.620106
-0.41628
0.649653
-0.36746
0.676194
-0.327431
0.699775
-0.288392
0.720767
-0.251457
0.739443
-0.217476
0.755972
-0.183685
0.770428
-0.150642
0.782891
-0.116912
0.793333
-0.0828628
0.801749
-0.0475015
0.808119
-0.0120177
0.812426
0.0242418
0.814637
0.0585538
0.814939
0.0901121
0.813516
0.115322
0.810344
0.133627
0.805391
0.150389
0.798602
0.167869
0.790023
0.184603
0.779716
0.201156
0.767735
0.217691
0.754074
0.234442
0.738732
0.251899
0.721676
0.270985
0.702792
0.293393
0.681833
0.322162
0.658499
0.364235
0.632074
0.428266
0.603752
0.547771
0.57293
0.721776
-0.165293
-0.601163
-0.11652
-0.620236
-0.0543357
-0.778036
0.00642552
-0.775566
0.0680201
-0.794152
0.130922
-0.816219
0.190373
-0.782693
0.241686
-0.694722
0.285186
-0.607495
0.321977
-0.529953
0.351603
-0.446457
0.375343
-0.376809
0.394902
-0.325668
0.411109
-0.283385
0.424912
-0.252037
0.437181
-0.229855
0.448415
-0.213203
0.459064
-0.20142
0.469469
-0.193402
0.479892
-0.18774
0.490423
-0.183529
0.50121
-0.179811
0.512248
-0.175244
0.523307
-0.165657
0.533873
-0.149706
0.543623
-0.131866
0.552489
-0.113608
0.560328
-0.0951502
0.567052
-0.0764948
0.57262
-0.0578424
0.576904
-0.0392176
0.579864
-0.0206841
0.581414
-0.00193585
0.581498
0.0176389
0.579941
0.0396199
0.576502
0.0677177
0.570708
0.108239
0.563027
0.179604
0.553691
0.29925
-0.21674
0.268039
-0.65456
0.319772
-0.662754
0.37935
-0.746357
0.430342
-0.65068
0.48
-0.634293
0.528378
-0.613018
0.571041
-0.546704
0.610022
-0.499971
0.645267
-0.451526
0.6763
-0.398492
0.704018
-0.355149
0.728752
-0.313126
0.750626
-0.273331
0.770098
-0.236948
0.787271
-0.200858
0.802368
-0.165739
0.815343
-0.129886
0.826272
-0.0937923
0.835195
-0.0564243
0.841976
-0.0187982
0.84667
0.019547
0.849312
0.0559128
0.850016
0.0894074
0.848993
0.116345
0.846239
0.136381
0.841639
0.154989
0.83517
0.174338
0.826883
0.19289
0.81675
0.211289
0.804809
0.229631
0.791091
0.248159
0.775604
0.267386
0.758279
0.28831
0.739001
0.312671
0.717559
0.343603
0.693674
0.38812
0.666726
0.455214
0.637996
0.576502
0.607625
0.752147
-0.166097