/*--------------------------------*- C++ -*----------------------------------*\
  =========                 |
  \\      /  F ield         | OpenFOAM: The Open Source CFD Toolbox
   \\    /   O peration     | Website:  https://openfoam.org
    \\  /    A nd           | Version:  13
     \\/     M anipulation  |
\*---------------------------------------------------------------------------*/
FoamFile
{
    format      ascii;
    class       volVectorField;
    location    "313";
    object      U;
}
// * * * * * * * * * * * * * * * * * * * * * * * * * * * * * * * * * * * * * //

dimensions      [0 1 -1 0 0 0 0];

internalField   nonuniform List<vector> 
10720
(
(0.351297 28.5691 1.70048e-17)
(2.17556 30.8436 -1.57728e-17)
(4.44477 33.0285 0)
(7.0394 34.7033 -4.12634e-16)
(9.89596 35.9633 4.62264e-16)
(12.9474 36.766 3.33421e-16)
(16.0363 37.0077 4.56351e-16)
(19.0692 36.7308 0)
(21.968 35.9987 0)
(24.6552 34.8509 0)
(27.1021 33.3694 1.17474e-16)
(29.2972 31.6451 0)
(31.2109 29.6988 2.37396e-15)
(32.8386 27.5678 0)
(34.1691 25.2828 0)
(35.2147 22.8907 0)
(35.9631 20.4113 -4.0012e-15)
(36.418 17.8966 -5.98074e-15)
(36.5606 15.3707 5.32083e-15)
(36.4016 12.8937 0)
(35.9235 10.5018 4.37488e-15)
(35.1631 8.26787 -8.57181e-15)
(34.1679 6.2435 4.26898e-15)
(33.0477 4.49176 -1.28036e-16)
(32.0019 3.06013 0)
(31.1157 1.89576 1.69345e-15)
(30.2932 0.910311 2.62052e-17)
(29.4354 0.0623714 -7.4204e-16)
(28.5051 -0.670741 -2.70903e-15)
(27.4987 -1.30368 -9.83511e-15)
(26.4193 -1.84302 4.38369e-15)
(25.2703 -2.29208 7.99299e-15)
(24.0498 -2.65192 6.89549e-15)
(22.749 -2.92308 2.35702e-14)
(21.3213 -3.10127 -9.53717e-15)
(19.7295 -3.18483 -6.74694e-17)
(17.672 -3.12083 2.20839e-17)
(15.2514 -2.90195 3.96546e-15)
(9.83266 -2.30464 1.36451e-14)
(-1.10421 26.1299 1.11903e-18)
(-2.29391 23.3708 -8.49618e-18)
(-3.14903 20.2564 4.56455e-17)
(-3.53388 16.6332 -1.36616e-16)
(-3.29296 12.8815 -4.69801e-16)
(-2.37993 9.13308 8.40263e-16)
(-0.855506 5.66461 4.18709e-15)
(1.03912 2.7694 2.56768e-15)
(3.02146 0.398969 0)
(5.22227 -1.6775 0)
(7.50174 -3.24833 2.086e-15)
(9.6235 -4.27303 7.61599e-16)
(11.509 -4.8716 -1.26798e-15)
(13.1626 -5.17136 1.04424e-15)
(14.6083 -5.27423 1.72299e-15)
(15.8785 -5.24618 1.11055e-15)
(17.0033 -5.13656 1.41759e-15)
(18.0148 -4.97548 9.41124e-16)
(18.9439 -4.78366 0)
(19.8131 -4.56473 0)
(20.6404 -4.32057 -1.29996e-15)
(21.4371 -4.04112 -5.9911e-17)
(22.2054 -3.71116 8.82132e-16)
(22.9151 -3.29984 -6.14904e-16)
(23.5004 -2.80184 2.35813e-17)
(23.9428 -2.25466 0)
(24.2679 -1.6847 1.04684e-16)
(24.4917 -1.10799 0)
(24.6205 -0.535829 0)
(24.6535 0.0203197 1.99346e-17)
(24.5677 0.552191 0)
(24.3767 1.05277 4.97029e-18)
(24.0996 1.51605 -4.95196e-17)
(23.7512 1.93666 -5.91183e-16)
(23.3263 2.3109 5.4598e-16)
(22.8151 2.63964 -2.76461e-18)
(22.0919 2.91505 0)
(21.0884 3.10123 5.17651e-15)
(18.2563 3.22251 9.23945e-15)
(7.07852 24.8183 -5.48004e-18)
(9.01075 26.5569 -2.76222e-18)
(11.3598 28.1275 0)
(14.0564 29.4261 0)
(16.9514 30.3927 -1.35706e-16)
(20.0488 30.9671 -3.1959e-16)
(23.2303 31.1052 0)
(26.3604 30.8301 0)
(29.3834 30.1536 6.74362e-16)
(32.2101 29.1271 0)
(34.7867 27.8117 2.47364e-15)
(37.0832 26.2554 0)
(39.0939 24.54 8.83202e-16)
(40.8261 22.7188 -8.70163e-16)
(42.2853 20.8115 1.74993e-15)
(43.4404 18.8466 -3.49893e-15)
(44.2911 16.8365 3.74432e-15)
(44.8272 14.8064 3.42626e-15)
(45.0494 12.7646 3.35533e-15)
(44.9403 10.7424 2.03904e-16)
(44.5006 8.7657 -3.50321e-15)
(43.7219 6.88947 3.32641e-15)
(42.6298 5.1554 -1.87666e-16)
(41.2601 3.62144 0)
(39.7219 2.33948 0)
(38.1632 1.25606 0)
(36.6416 0.29375 1.4132e-16)
(35.1485 -0.557479 -3.15709e-17)
(33.6853 -1.30029 1.98575e-15)
(32.2467 -1.94135 3.76492e-17)
(30.8171 -2.48344 -2.98224e-17)
(29.3789 -2.9291 -8.71747e-17)
(27.9133 -3.28068 4.74725e-15)
(26.4052 -3.54056 -7.96783e-15)
(24.8145 -3.70875 -4.33036e-17)
(23.1224 -3.78628 -9.2279e-15)
(21.0704 -3.73299 0)
(18.8797 -3.54757 -1.14762e-15)
(13.5892 -2.7893 7.24377e-15)
(5.44031 22.9633 6.95665e-18)
(4.0135 20.8973 -3.91489e-17)
(2.75184 18.4755 -4.93502e-16)
(1.78333 15.7208 6.0737e-16)
(1.28422 12.7283 0)
(1.34082 9.63056 -1.3123e-15)
(1.98295 6.6224 -9.40379e-16)
(3.13877 3.93033 -7.34408e-15)
(4.62921 1.58516 2.37018e-15)
(6.36687 -0.36882 -1.79179e-15)
(8.24193 -1.80507 2.2518e-15)
(10.0918 -2.76471 -6.40733e-16)
(11.827 -3.36596 0)
(13.415 -3.70872 -4.27894e-16)
(14.8473 -3.87578 5.24587e-17)
(16.1343 -3.92052 -9.54458e-16)
(17.2918 -3.88809 0)
(18.3424 -3.80418 0)
(19.31 -3.6871 -9.87679e-17)
(20.2171 -3.53473 9.48698e-17)
(21.079 -3.34547 -1.12273e-15)
(21.908 -3.10297 -1.21294e-16)
(22.7059 -2.78749 5.32837e-17)
(23.4496 -2.36254 5.93893e-16)
(24.0851 -1.84098 -4.21126e-16)
(24.5878 -1.2895 -3.10391e-16)
(24.9735 -0.736812 0)
(25.255 -0.193989 0)
(25.4359 0.332602 0)
(25.5211 0.834126 8.55969e-18)
(25.5402 1.30301 0)
(25.4894 1.73635 0)
(25.3581 2.13309 1.23083e-16)
(25.14 2.49221 2.19101e-16)
(24.8266 2.81532 -4.42639e-16)
(24.4266 3.10763 8.13858e-16)
(23.8389 3.36704 -2.5012e-15)
(23.2489 3.58642 -3.96498e-15)
(21.1548 3.6264 -6.22544e-15)
(8.36047 22.8508 -9.7336e-19)
(9.76543 24.3744 1.99306e-17)
(11.468 25.8508 -1.6286e-17)
(13.4208 27.2053 -4.3782e-17)
(15.5683 28.3193 -1.78257e-16)
(17.9111 29.1683 6.15748e-16)
(20.3741 29.7122 -4.30508e-16)
(22.8809 29.9145 -5.02418e-16)
(25.3765 29.7738 4.32375e-18)
(27.8029 29.3021 -6.51915e-16)
(30.1081 28.5211 6.04016e-16)
(32.2605 27.4603 -1.56835e-15)
(34.2328 26.1513 -7.48405e-16)
(36.0112 24.623 0)
(37.5789 22.9107 -1.79048e-15)
(38.9504 21.0399 3.59673e-15)
(40.1305 19.031 0)
(41.0995 16.9281 -6.80904e-15)
(41.8477 14.7608 -3.40412e-15)
(42.3474 12.5816 3.96847e-16)
(42.5863 10.4283 -3.93266e-16)
(42.5431 8.3689 -1.7827e-16)
(42.2193 6.45247 -2.53347e-15)
(41.6228 4.74142 1.27288e-15)
(40.805 3.28066 0)
(39.8432 2.01399 1.11192e-15)
(38.7588 0.87244 -1.31334e-16)
(37.5459 -0.144062 0)
(36.2223 -1.03229 1.74604e-15)
(34.8156 -1.79656 3.24107e-15)
(33.3464 -2.43972 -5.71411e-15)
(31.8284 -2.96583 -4.91856e-15)
(30.2643 -3.38003 -1.0567e-16)
(28.6501 -3.68711 -6.99041e-15)
(26.9511 -3.88938 -5.60676e-15)
(25.1494 -3.98644 8.04781e-15)
(23.0029 -3.94534 0)
(20.7355 -3.72193 -8.99061e-16)
(15.8602 -3.03562 -1.10343e-14)
(7.20567 21.242 -1.24559e-17)
(6.18805 19.4787 -5.00956e-17)
(5.32732 17.3986 1.9448e-16)
(4.62753 15.0636 0)
(4.23787 12.553 3.80257e-16)
(4.20808 9.93237 0)
(4.56821 7.32841 2.69952e-15)
(5.30446 4.90677 1.63482e-15)
(6.36796 2.74955 1.54221e-15)
(7.70054 0.911155 0)
(9.1867 -0.553811 -2.26315e-15)
(10.7093 -1.65813 -4.85068e-16)
(12.1927 -2.45796 2.19453e-15)
(13.5959 -3.01155 0)
(14.8994 -3.37152 -1.02183e-15)
(16.1005 -3.58265 -3.08529e-16)
(17.2046 -3.68414 1.27325e-15)
(18.2246 -3.70328 6.59925e-16)
(19.1769 -3.65952 1.8157e-16)
(20.0782 -3.55905 -9.84313e-17)
(20.9409 -3.405 1.02324e-15)
(21.7737 -3.1894 0)
(22.5767 -2.89913 0)
(23.3305 -2.5125 2.33392e-17)
(23.9916 -2.04275 0)
(24.5365 -1.53818 6.42415e-16)
(24.9753 -1.01827 -8.45407e-18)
(25.3195 -0.490888 -4.05647e-17)
(25.5727 0.0361269 0)
(25.7365 0.552661 -2.53826e-17)
(25.8159 1.05124 3.87764e-17)
(25.8166 1.52538 0)
(25.7407 1.96906 -8.16251e-17)
(25.5882 2.37703 0)
(25.3473 2.74747 0)
(25.0169 3.08114 3.88239e-17)
(24.4853 3.37715 -5.2312e-17)
(23.873 3.59403 3.96252e-15)
(21.9985 3.63079 1.20431e-14)
(10.9048 20.9359 -9.97864e-18)
(12.2021 22.2358 -6.27875e-18)
(13.7528 23.4984 -7.13835e-18)
(15.5317 24.6495 -1.19041e-17)
(17.4892 25.5983 0)
(19.6316 26.3265 0)
(21.9013 26.791 -7.18453e-16)
(24.2358 26.9576 8.58674e-16)
(26.5879 26.8199 0)
(28.9018 26.3812 -1.03542e-15)
(31.1257 25.6564 -1.30964e-15)
(33.2213 24.6692 -1.23662e-15)
(35.1545 23.4501 1.4723e-15)
(36.8983 22.0326 1.38778e-15)
(38.4339 20.45 0)
(39.7459 18.7366 2.20008e-15)
(40.8065 16.9346 7.61607e-16)
(41.6062 15.0762 6.13854e-15)
(42.1429 13.1876 3.7182e-16)
(42.4218 11.2973 -3.68707e-16)
(42.4508 9.43656 3.11592e-15)
(42.245 7.64994 -5.10249e-16)
(41.8324 5.97815 2.77767e-15)
(41.249 4.4658 1.1594e-15)
(40.5506 3.14471 -6.86272e-17)
(39.7943 1.9776 -1.00595e-15)
(38.9829 0.90988 7.42586e-18)
(38.0836 -0.06288 -7.44984e-18)
(37.0773 -0.937092 -1.67282e-15)
(35.9577 -1.71321 -4.42851e-17)
(34.7223 -2.38739 2.79312e-15)
(33.3743 -2.95528 -4.75274e-15)
(31.9183 -3.41418 -3.83818e-15)
(30.3594 -3.76272 -1.88846e-18)
(28.676 -3.99925 5.10023e-15)
(26.859 -4.11817 0)
(24.6889 -4.09013 4.19295e-15)
(22.3521 -3.82496 7.78736e-16)
(17.7278 -3.17713 4.60254e-15)
(9.80977 19.5733 -2.52357e-17)
(8.82338 18.0922 6.48789e-17)
(7.95202 16.3432 2.92468e-16)
(7.21567 14.3639 0)
(6.74192 12.2264 -3.39515e-16)
(6.56947 9.97398 0)
(6.72447 7.70452 -2.17145e-15)
(7.19525 5.55084 -1.01393e-16)
(7.95193 3.58322 1.1258e-15)
(8.95663 1.85371 1.00295e-15)
(10.1255 0.415426 3.61354e-17)
(11.3757 -0.72134 1.69217e-15)
(12.6451 -1.58519 -1.10038e-15)
(13.8892 -2.21614 3.48728e-16)
(15.0802 -2.65411 1.1901e-15)
(16.2049 -2.93868 1.31021e-15)
(17.2596 -3.10438 -1.1744e-15)
(18.2477 -3.17864 5.33105e-18)
(19.1786 -3.18148 0)
(20.0636 -3.12259 1.22149e-15)
(20.9119 -3.00553 5.9837e-17)
(21.7297 -2.82506 -9.18631e-16)
(22.5163 -2.57044 0)
(23.2553 -2.225 2.20504e-17)
(23.9105 -1.796 0)
(24.4587 -1.32189 -3.01858e-16)
(24.9058 -0.825508 0)
(25.2618 -0.318673 3.80643e-17)
(25.5306 0.1885 -1.20742e-18)
(25.7146 0.685526 6.82248e-19)
(25.8181 1.1634 -3.51387e-17)
(25.8464 1.61459 -1.15038e-18)
(25.8025 2.03501 0)
(25.6885 2.42214 1.8747e-16)
(25.4947 2.77604 3.46453e-18)
(25.2201 3.09667 -8.20966e-16)
(24.7587 3.38458 5.08012e-15)
(24.2004 3.57119 1.21181e-17)
(22.5045 3.59673 0)
(12.4705 19.4736 -1.43101e-17)
(13.5719 20.6247 -3.27875e-19)
(14.8952 21.7646 -1.19385e-17)
(16.4056 22.8299 1.67521e-16)
(18.0604 23.7374 -5.65268e-17)
(19.8816 24.4814 -1.96783e-16)
(21.8215 25.0218 3.10015e-16)
(23.8321 25.323 0)
(25.8828 25.3742 1.20141e-15)
(27.9273 25.1685 5.57844e-16)
(29.9242 24.7067 0)
(31.84 23.999 1.18853e-15)
(33.6411 23.0625 -6.25553e-16)
(35.2993 21.9164 1.73936e-15)
(36.7928 20.5833 0)
(38.1006 19.0868 -2.88605e-15)
(39.2106 17.4441 2.74077e-15)
(40.1131 15.6768 -1.68167e-16)
(40.793 13.8171 0)
(41.2346 11.9095 2.96376e-15)
(41.4285 9.9998 -2.99111e-15)
(41.3738 8.14599 -1.52579e-16)
(41.0883 6.40117 -2.32354e-15)
(40.6075 4.81714 -2.1328e-15)
(39.9916 3.42966 0)
(39.3076 2.21149 0)
(38.5808 1.11083 -2.30427e-16)
(37.7998 0.114345 -2.58002e-17)
(36.9554 -0.779676 1.59095e-15)
(36.0413 -1.57587 -4.22304e-17)
(35.0442 -2.27467 4.21648e-17)
(33.9474 -2.8737 4.44985e-15)
(32.7325 -3.36979 0)
(31.3842 -3.75859 1.23996e-14)
(29.87 -4.03436 -4.27005e-17)
(28.1769 -4.18487 0)
(26.103 -4.18107 -3.21994e-17)
(23.8089 -3.89511 0)
(19.405 -3.26585 -3.91138e-15)
(11.535 18.2734 2.38223e-17)
(10.69 16.9814 -1.55644e-16)
(9.92277 15.4549 1.72091e-16)
(9.24631 13.7293 2.76882e-16)
(8.7735 11.8716 -1.0921e-15)
(8.53363 9.90443 -1.41608e-15)
(8.5579 7.90277 1.74163e-15)
(8.84532 5.97568 -1.93013e-15)
(9.38139 4.18799 -8.70545e-16)
(10.1412 2.58598 -7.74741e-16)
(11.0629 1.21271 1.4942e-15)
(12.0851 0.084168 -1.43663e-15)
(13.1589 -0.814675 -6.30146e-16)
(14.2441 -1.50932 6.13027e-16)
(15.3114 -2.02541 -1.33362e-15)
(16.3436 -2.39282 2.44045e-16)
(17.3314 -2.63819 0)
(18.2722 -2.78423 -9.29791e-16)
(19.1693 -2.84836 3.29037e-16)
(20.0291 -2.84105 -1.27792e-15)
(20.8574 -2.76656 0)
(21.6577 -2.6223 7.96084e-16)
(22.428 -2.40075 6.26466e-16)
(23.1535 -2.09102 -4.76786e-16)
(23.8034 -1.69903 0)
(24.3549 -1.25677 -3.18792e-16)
(24.8095 -0.787953 0)
(25.175 -0.304586 0)
(25.4547 0.183635 0)
(25.6509 0.666397 4.07712e-17)
(25.7674 1.13461 0)
(25.8091 1.58148 0)
(25.7793 2.00182 -1.66053e-16)
(25.6807 2.39131 -1.77952e-16)
(25.505 2.74821 0)
(25.2532 3.07014 -8.51935e-16)
(24.8278 3.35704 6.27354e-17)
(24.3167 3.526 0)
(22.8116 3.53879 -5.22937e-15)
(13.956 18.1929 1.70445e-17)
(14.9534 19.2126 -1.21325e-17)
(16.1473 20.2289 0)
(17.5048 21.1827 8.05714e-18)
(18.9849 22.0006 -1.35775e-16)
(20.6179 22.6827 1.85562e-16)
(22.3625 23.1909 4.55027e-17)
(24.1797 23.4933 -7.7262e-16)
(26.0484 23.5769 -9.34429e-17)
(27.9298 23.431 1.14588e-15)
(29.7883 23.0518 -4.08428e-16)
(31.594 22.4427 9.18544e-16)
(33.3134 21.6139 4.59334e-16)
(34.9173 20.5793 3.32876e-16)
(36.3802 19.3577 0)
(37.6785 17.9706 -6.26212e-16)
(38.7909 16.4439 -1.38078e-15)
(39.693 14.8152 -5.10554e-15)
(40.3679 13.1181 1.50522e-15)
(40.8063 11.3838 -1.91047e-15)
(41.0039 9.64688 -2.99261e-16)
(40.9646 7.94875 0)
(40.7048 6.33265 2.08048e-15)
(40.2558 4.84127 1.32525e-16)
(39.6686 3.50726 -5.91608e-17)
(39.0008 2.3177 -8.24227e-16)
(38.281 1.23485 1.90051e-16)
(37.509 0.248102 3.9765e-16)
(36.6855 -0.641436 -1.48806e-15)
(35.8155 -1.4367 -7.94847e-17)
(34.8981 -2.13928 2.53384e-15)
(33.9252 -2.74844 4.11577e-15)
(32.8797 -3.26248 0)
(31.7377 -3.67749 -1.86587e-17)
(30.4497 -3.98638 -4.64336e-15)
(28.9832 -4.17146 0)
(27.1278 -4.20124 -7.424e-15)
(25.0233 -3.91637 0)
(20.9149 -3.31836 3.54716e-15)
(13.1004 17.1336 -2.4044e-17)
(12.3237 16.0007 6.35818e-17)
(11.6045 14.6589 0)
(10.9564 13.1388 0)
(10.4794 11.5032 4.69554e-16)
(10.1933 9.76522 2.34876e-15)
(10.1276 7.98242 0)
(10.287 6.24815 -1.4123e-15)
(10.6636 4.62377 -1.3568e-15)
(11.238 3.1465 1.36509e-15)
(11.9651 1.85077 -5.51244e-17)
(12.7986 0.755364 5.96033e-16)
(13.7018 -0.146734 2.93169e-17)
(14.641 -0.871066 1.57752e-15)
(15.5889 -1.43317 1.41649e-15)
(16.5274 -1.85445 -1.33006e-15)
(17.4443 -2.15504 1.87465e-16)
(18.3326 -2.35345 -3.48609e-16)
(19.1909 -2.46474 1.6138e-16)
(20.0211 -2.49912 9.38893e-16)
(20.8256 -2.46151 1.21557e-16)
(21.6053 -2.3513 -8.83472e-17)
(22.3568 -2.16313 -5.3405e-16)
(23.0666 -1.88971 0)
(23.7079 -1.53593 2.23508e-17)
(24.259 -1.12772 5.93135e-16)
(24.7177 -0.687789 -3.16843e-18)
(25.0896 -0.228593 3.14232e-18)
(25.3772 0.239674 0)
(25.5823 0.706075 -3.82911e-17)
(25.7082 1.16091 0)
(25.7594 1.59632 0)
(25.739 2.00641 1.52839e-16)
(25.6495 2.38665 2.21769e-16)
(25.4832 2.73511 0)
(25.2411 3.0478 7.93015e-16)
(24.832 3.32422 -4.71211e-15)
(24.3407 3.46966 2.18013e-17)
(22.9901 3.45968 4.78325e-15)
(15.1634 17.1044 -3.09376e-19)
(16.0613 18.0194 -1.18967e-17)
(17.1358 18.9387 -3.28109e-18)
(18.3523 19.8072 3.19841e-18)
(19.6703 20.5593 9.14081e-17)
(21.1258 21.2006 0)
(22.6813 21.6977 -3.50076e-16)
(24.3038 22.0211 9.38402e-18)
(25.981 22.1592 -3.45395e-16)
(27.6798 22.1 -6.97196e-16)
(29.3718 21.8359 0)
(31.0327 21.3657 -1.67136e-15)
(32.632 20.6931 -1.43056e-15)
(34.1426 19.8258 -3.47175e-15)
(35.5391 18.7761 0)
(36.7966 17.5604 -2.13075e-15)
(37.8918 16.1992 -2.23053e-15)
(38.8064 14.7118 2.40948e-15)
(39.5235 13.1227 -2.3685e-15)
(40.0277 11.466 2.19256e-15)
(40.3085 9.78128 2.69027e-16)
(40.3624 8.11642 -2.31599e-15)
(40.1988 6.51959 0)
(39.8421 5.03564 -1.98434e-15)
(39.3341 3.69691 1.16358e-16)
(38.7248 2.49692 8.63245e-16)
(38.044 1.40515 0)
(37.2969 0.41054 -2.95592e-17)
(36.4877 -0.48611 6.33499e-17)
(35.6256 -1.28734 2.43494e-15)
(34.7175 -1.99509 -2.25708e-15)
(33.7662 -2.60956 -3.92057e-15)
(32.7684 -3.13042 3.32412e-15)
(31.7147 -3.55607 -6.13981e-17)
(30.5673 -3.88159 4.45202e-15)
(29.2983 -4.08947 6.22389e-15)
(27.6968 -4.14892 3.60709e-15)
(25.8938 -3.87707 -1.14739e-17)
(22.2082 -3.32816 -3.55852e-18)
(14.3875 16.1561 9.76717e-18)
(13.68 15.1481 1.25172e-16)
(13.0127 13.9523 1.72539e-16)
(12.3983 12.5961 -3.22671e-16)
(11.9275 11.1395 -1.29048e-15)
(11.6151 9.58788 4.25022e-16)
(11.488 7.98594 1.11004e-15)
(11.5562 6.41646 2.90081e-15)
(11.8152 4.93784 1.17289e-15)
(12.2486 3.57813 -1.10029e-15)
(12.8229 2.36556 -3.81428e-17)
(13.5026 1.31866 -5.34231e-16)
(14.2598 0.433688 0)
(15.0676 -0.298871 -2.5978e-17)
(15.9024 -0.887897 -8.72943e-16)
(16.7474 -1.34822 3.81801e-16)
(17.5895 -1.69416 -3.74338e-16)
(18.4194 -1.93937 0)
(19.2325 -2.09563 5.6889e-16)
(20.0272 -2.17172 -9.93898e-16)
(20.8031 -2.17207 0)
(21.5586 -2.09698 7.30131e-16)
(22.2891 -1.94292 0)
(22.9818 -1.70531 -2.78801e-17)
(23.613 -1.38857 2.75899e-17)
(24.1619 -1.01397 -2.89884e-16)
(24.6235 -0.602741 -5.23793e-18)
(25.0009 -0.167922 -3.20065e-18)
(25.296 0.279837 8.54492e-19)
(25.5097 0.729355 -4.89067e-17)
(25.6449 1.17049 -7.1029e-17)
(25.7054 1.59513 1.10239e-16)
(25.694 1.99693 3.10697e-18)
(25.6129 2.3706 2.58854e-17)
(25.4545 2.71326 0)
(25.2195 3.01883 1.50938e-17)
(24.8223 3.28566 2.17862e-15)
(24.3418 3.40923 -1.04591e-17)
(23.1083 3.37285 4.37561e-15)
(16.2203 16.1469 3.66288e-18)
(17.0433 16.9722 1.77593e-17)
(18.0265 17.8053 0)
(19.1356 18.5941 -2.5415e-17)
(20.3301 19.2796 3.88807e-17)
(21.6488 19.8713 0)
(23.0577 20.3383 -1.3023e-16)
(24.528 20.6545 1.00632e-15)
(26.0528 20.8094 -1.38348e-15)
(27.6049 20.7907 4.41444e-16)
(29.1606 20.5893 5.93991e-16)
(30.7005 20.2009 2.13028e-15)
(32.1979 19.6251 1.51977e-15)
(33.6278 18.8649 1.80528e-15)
(34.9655 17.928 4.75273e-16)
(36.1856 16.8266 1.56703e-15)
(37.2644 15.5767 2.14289e-15)
(38.1794 14.2001 2.06559e-15)
(38.9086 12.7269 -1.51704e-15)
(39.4358 11.188 -4.63708e-15)
(39.7506 9.61771 0)
(39.8505 8.05534 8.4986e-17)
(39.7436 6.54287 1.80303e-15)
(39.4508 5.12015 1.8888e-15)
(39.007 3.81739 -1.07243e-16)
(38.4536 2.63537 -7.79293e-16)
(37.8184 1.55325 5.58439e-18)
(37.1087 0.562595 -3.95635e-16)
(36.3288 -0.334441 4.16298e-17)
(35.487 -1.13839 -4.569e-15)
(34.5904 -1.85006 -7.73327e-18)
(33.6444 -2.46877 -6.1656e-17)
(32.6508 -2.99369 -3.19713e-15)
(31.6106 -3.42322 -6.1089e-17)
(30.5022 -3.75356 -4.15806e-15)
(29.322 -3.96856 -1.19003e-14)
(27.8905 -4.04288 3.41676e-15)
(26.3826 -3.78086 6.59968e-16)
(23.2178 -3.28835 2.84767e-15)
(15.5042 15.2931 -4.51722e-17)
(14.8495 14.3893 -1.70802e-16)
(14.223 13.3152 -1.25297e-16)
(13.6374 12.095 -3.20114e-16)
(13.1749 10.7862 7.21613e-16)
(12.8471 9.38917 -5.22999e-17)
(12.678 7.93911 -2.8503e-15)
(12.6802 6.51159 -1.00044e-15)
(12.8513 5.16175 1.37101e-17)
(13.1769 3.90998 0)
(13.6308 2.78008 -9.42764e-16)
(14.1852 1.78915 8.8211e-16)
(14.8189 0.934449 -8.51957e-16)
(15.5109 0.209742 -4.37197e-16)
(16.2415 -0.389559 3.66565e-16)
(16.9965 -0.873571 3.64159e-16)
(17.7634 -1.25163 1.3113e-15)
(18.5322 -1.53307 -3.10673e-16)
(19.2962 -1.72652 -5.31453e-16)
(20.0515 -1.83891 0)
(20.795 -1.87392 -8.11127e-16)
(21.5235 -1.83218 -6.06043e-16)
(22.231 -1.71124 -1.1955e-17)
(22.905 -1.50849 -6.56297e-17)
(23.5242 -1.22803 -2.17571e-17)
(24.0685 -0.887078 3.33337e-16)
(24.531 -0.505228 -6.5489e-18)
(24.9124 -0.0957878 5.28901e-17)
(25.2137 0.330334 9.5757e-18)
(25.4352 0.761842 4.48252e-17)
(25.579 1.18826 -1.02006e-17)
(25.6484 1.60096 -2.38397e-16)
(25.6458 1.99299 -2.22381e-16)
(25.573 2.3584 -2.2041e-16)
(25.4224 2.69355 -9.43253e-18)
(25.1947 2.99049 5.24719e-18)
(24.8092 3.24621 -2.18548e-15)
(24.3405 3.34898 -3.03264e-15)
(23.2047 3.28674 -4.0226e-15)
(17.134 15.2999 -1.11859e-17)
(17.8927 16.0489 -6.22214e-18)
(18.7979 16.8078 -7.50947e-18)
(19.8151 17.5281 -4.49072e-17)
(20.9042 18.1553 7.19659e-17)
(22.1052 18.7022 -1.58409e-16)
(23.3865 19.1408 4.95678e-16)
(24.7225 19.4477 0)
(26.1104 19.6148 4.2228e-16)
(27.5268 19.6298 1.06718e-17)
(28.9525 19.4835 -5.10272e-16)
(30.3726 19.1703 -1.96444e-15)
(31.7642 18.6871 -7.94021e-16)
(33.1048 18.0335 0)
(34.3721 17.2134 0)
(35.5415 16.2349 0)
(36.5889 15.1107 0)
(37.4917 13.8584 -2.00162e-15)
(38.2297 12.4985 1.98505e-15)
(38.7845 11.0585 1.94154e-15)
(39.1429 9.57188 -1.56152e-15)
(39.2991 8.07808 1.36847e-15)
(39.257 6.6191 -1.40993e-15)
(39.0331 5.23475 -1.03149e-16)
(38.6561 3.95462 -4.69301e-17)
(38.1613 2.78346 7.89031e-16)
(37.5754 1.70699 1.69774e-16)
(36.9085 0.71853 0)
(36.1659 -0.179452 0)
(35.3553 -0.986251 3.8323e-17)
(34.4833 -1.70201 0)
(33.5544 -2.32537 3.40477e-15)
(32.5702 -2.85476 -3.02613e-15)
(31.5334 -3.28764 -4.88477e-15)
(30.4279 -3.61991 7.76336e-15)
(29.2643 -3.83412 5.67047e-15)
(27.8961 -3.91015 -3.26429e-15)
(26.5659 -3.64417 -1.28299e-15)
(23.9168 -3.19721 -2.73076e-15)
(16.4701 14.5259 0)
(15.8613 13.7094 4.77388e-17)
(15.2715 12.7371 2.38897e-16)
(14.7129 11.6311 -1.03463e-15)
(14.2616 10.4467 9.11941e-16)
(13.9255 9.17979 -7.46924e-16)
(13.7279 7.85887 6.75965e-18)
(13.682 6.55454 7.58873e-16)
(13.7865 5.31835 8.08051e-16)
(14.0288 4.16495 0)
(14.3876 3.11443 3.91272e-16)
(14.8403 2.18238 -1.19656e-15)
(15.3703 1.36594 1.9013e-15)
(15.9614 0.660375 3.47204e-16)
(16.598 0.0632465 -7.07385e-16)
(17.2684 -0.432122 -6.59793e-16)
(17.9616 -0.831484 -6.07427e-16)
(18.6679 -1.14063 0)
(19.3802 -1.36512 0)
(20.0927 -1.50974 0)
(20.8008 -1.57702 7.62421e-16)
(21.4993 -1.56736 0)
(22.1816 -1.47891 -4.9355e-16)
(22.8353 -1.31027 -6.32299e-17)
(23.4407 -1.06511 -3.82996e-16)
(23.9785 -0.757554 -2.95676e-16)
(24.44 -0.405303 0)
(24.8241 -0.0216812 -4.41395e-17)
(25.1306 0.382262 -1.01689e-17)
(25.3592 0.795145 1.90078e-18)
(25.5111 1.20621 1.58615e-16)
(25.5892 1.60639 -1.74953e-17)
(25.5952 1.98828 2.15995e-16)
(25.5307 2.34519 -2.5673e-16)
(25.3882 2.67263 0)
(25.1681 2.96085 -1.44567e-17)
(24.7949 3.20522 -3.34541e-17)
(24.34 3.28908 2.88343e-15)
(23.294 3.20293 -2.41775e-17)
(17.9374 14.541 1.36974e-17)
(18.6421 15.2236 0)
(19.4818 15.917 3.64962e-17)
(20.4219 16.5758 -1.87316e-18)
(21.4232 17.1496 -4.09532e-17)
(22.5257 17.653 1.48741e-16)
(23.6997 18.0606 -2.19182e-16)
(24.9219 18.352 -2.60083e-16)
(26.1923 18.5202 0)
(27.4908 18.5541 -4.41741e-16)
(28.8018 18.4447 -4.70799e-16)
(30.114 18.1857 4.67296e-16)
(31.4077 17.7725 1.73563e-15)
(32.664 17.2022 6.92071e-16)
(33.8625 16.4756 -2.09245e-15)
(34.9799 15.5976 -1.50304e-15)
(35.9931 14.5773 1.18094e-15)
(36.8796 13.4286 8.69557e-16)
(37.6179 12.1715 -4.34568e-16)
(38.1879 10.832 4.32751e-16)
(38.5754 9.44021 1.098e-15)
(38.773 8.03126 2.04315e-16)
(38.7825 6.64316 -1.91828e-16)
(38.6167 5.3128 -1.27595e-15)
(38.299 4.06831 0)
(37.8585 2.91767 -6.68717e-16)
(37.3199 1.85321 -3.19233e-16)
(36.6949 0.87128 -2.94479e-16)
(35.9901 -0.0246499 -1.08931e-15)
(35.2132 -0.832391 4.07858e-15)
(34.3708 -1.55104 1.67974e-15)
(33.4671 -2.17856 3.89611e-18)
(32.5028 -2.71249 3.89721e-17)
(31.4794 -3.14925 0)
(30.3809 -3.48377 -3.66851e-15)
(29.2197 -3.69618 0)
(27.8658 -3.76961 0)
(26.5882 -3.49016 6.19433e-16)
(24.3483 -3.06538 4.35708e-18)
(17.3175 13.8357 -4.64001e-17)
(16.7478 13.0939 1.60521e-16)
(16.1899 12.2089 1.0636e-17)
(15.6562 11.2006 2.30149e-16)
(15.2174 10.1222 -8.37259e-16)
(14.878 8.96641 6.29459e-16)
(14.6609 7.7567 3.62667e-17)
(14.5799 6.5603 -6.33495e-16)
(14.6336 5.42443 -6.24356e-16)
(14.8112 4.35989 -6.67553e-16)
(15.0943 3.38409 -1.33116e-15)
(15.4642 2.51096 0)
(15.9077 1.73693 -6.87167e-16)
(16.4119 1.05775 -2.45603e-17)
(16.9646 0.472231 0)
(17.5568 -0.0244619 -5.82548e-16)
(18.1794 -0.435416 -2.77887e-16)
(18.8239 -0.763814 -2.62318e-16)
(19.4831 -1.01269 9.08804e-16)
(20.1506 -1.18464 8.13752e-16)
(20.8206 -1.28075 -8.49035e-17)
(21.487 -1.30094 6.33611e-16)
(22.1422 -1.24356 1.27035e-16)
(22.7739 -1.1077 -6.07847e-17)
(23.3637 -0.896685 3.41853e-16)
(23.893 -0.622093 2.09062e-17)
(24.3517 -0.299595 0)
(24.737 0.0577629 0)
(25.0475 0.438857 -1.98867e-18)
(25.2823 0.832334 5.05397e-18)
(25.4418 1.22724 -1.73885e-16)
(25.5282 1.6141 -1.70395e-17)
(25.5427 1.98505 2.73101e-16)
(25.4865 2.33269 2.45889e-16)
(25.3523 2.65172 1.09676e-17)
(25.1402 2.93067 3.62255e-18)
(24.7802 3.16327 4.05801e-15)
(24.3405 3.22967 -2.75347e-15)
(23.3804 3.12219 2.25634e-17)
(18.6469 13.8554 5.22823e-18)
(19.3047 14.48 0)
(20.0877 15.1156 -2.47625e-17)
(20.9614 15.7195 0)
(21.8868 16.2454 -8.91893e-17)
(22.9042 16.7087 8.64353e-17)
(23.9853 17.0864 1.67212e-16)
(25.1084 17.3605 2.45413e-16)
(26.2753 17.5254 0)
(27.4684 17.5712 -2.95639e-16)
(28.6753 17.4897 4.8281e-16)
(29.8876 17.2745 -9.88048e-16)
(31.0886 16.9201 -5.51539e-16)
(32.2621 16.4224 -5.58843e-16)
(33.3902 15.78 1.33387e-15)
(34.4518 14.9948 1.43777e-15)
(35.425 14.0733 -1.53515e-15)
(36.2878 13.0265 -1.5217e-15)
(37.019 11.87 0)
(37.5988 10.6259 3.97562e-16)
(38.0111 9.32125 -7.69725e-16)
(38.2466 7.98903 1.89668e-16)
(38.3044 6.66526 4.24948e-18)
(38.1936 5.38524 3.01861e-15)
(37.9325 4.17593 -1.65035e-16)
(37.5451 3.04725 1.00032e-16)
(37.0534 1.99652 2.96448e-16)
(36.4703 1.02285 3.1386e-16)
(35.8032 0.130583 9.41575e-16)
(35.0601 -0.676739 -1.88597e-15)
(34.248 -1.39717 -1.54697e-15)
(33.3714 -2.02802 -6.07026e-15)
(32.4313 -2.56606 5.23154e-15)
(31.4285 -3.00669 -7.41378e-17)
(30.3467 -3.34395 3.43118e-15)
(29.196 -3.55535 -1.07481e-16)
(27.8563 -3.62644 5.9935e-17)
(26.5705 -3.33361 3.83945e-18)
(24.6027 -2.90779 -2.1049e-15)
(18.0655 13.2103 2.25085e-17)
(17.5303 12.5328 -8.34511e-17)
(17.0011 11.7235 1.65739e-16)
(16.4904 10.7997 0)
(16.0646 9.81297 4.89893e-16)
(15.7256 8.75309 0)
(15.4957 7.6405 0)
(15.3888 6.53908 0)
(15.4036 5.49218 1.16294e-15)
(15.5303 4.50787 -5.77043e-16)
(15.7531 3.60153 6.51779e-16)
(16.0556 2.78567 0)
(16.4268 2.05582 0)
(16.8566 1.40758 -5.94257e-16)
(17.3354 0.840278 0)
(17.8564 0.350174 5.42769e-16)
(18.4127 -0.0645019 1.27269e-17)
(18.9971 -0.40483 0)
(19.6031 -0.671759 -6.49679e-16)
(20.2243 -0.866098 -9.64716e-16)
(20.8544 -0.987599 -6.73177e-16)
(21.4866 -1.03534 -5.88145e-16)
(22.1129 -1.00737 1.01076e-15)
(22.7212 -0.902912 0)
(23.2937 -0.724834 3.42234e-16)
(23.8124 -0.482476 3.19752e-16)
(24.2666 -0.189618 1.21359e-16)
(24.6515 0.14122 0)
(24.965 0.498983 -9.53134e-18)
(25.2051 0.872402 -5.98545e-17)
(25.3716 1.25045 1.8196e-16)
(25.4659 1.6233 -1.65549e-17)
(25.4887 1.98268 -2.50277e-16)
(25.4409 2.32049 2.69775e-16)
(25.3152 2.63059 -2.0437e-18)
(25.1115 2.89993 1.06961e-17)
(24.7654 3.12043 -3.9519e-15)
(24.342 3.1711 2.57911e-15)
(23.4642 3.04515 6.2773e-15)
(19.2781 13.2315 2.12308e-18)
(19.8949 13.8049 -1.51912e-17)
(20.6282 14.389 0)
(21.444 14.9435 1.21192e-18)
(22.3039 15.4257 0)
(23.2475 15.8515 0)
(24.2477 16.2003 1.84419e-17)
(25.2842 16.4557 2.11793e-16)
(26.3603 16.6135 4.87249e-16)
(27.4602 16.665 1.2336e-15)
(28.5738 16.603 6.93577e-16)
(29.6951 16.4212 7.96689e-16)
(30.8099 16.114 0)
(31.905 15.6761 1.53835e-15)
(32.9648 15.1048 -5.44106e-16)
(33.9701 14.4001 0)
(34.901 13.5657 1.282e-15)
(35.7362 12.6097 1.45814e-15)
(36.4553 11.5453 0)
(37.0381 10.3916 1.414e-15)
(37.4677 9.17312 -1.38128e-15)
(37.7334 7.91951 0)
(37.8322 6.66363 -1.63465e-16)
(37.7699 5.43832 3.16596e-17)
(37.5608 4.26916 7.78622e-17)
(37.2239 3.16734 1.16624e-15)
(36.7781 2.13417 -3.98827e-18)
(36.2366 1.17167 -3.10572e-17)
(35.6073 0.285419 -2.61437e-17)
(34.8982 -0.51978 5.72099e-17)
(34.1165 -1.24071 1.55906e-15)
(33.2674 -1.87387 5.49477e-15)
(32.3522 -2.41527 4.31469e-17)
(31.3721 -2.85935 -3.99483e-15)
(30.3117 -3.19933 -3.11916e-15)
(29.1793 -3.41041 -4.62403e-15)
(27.866 -3.47972 -2.70564e-15)
(26.5692 -3.17977 2.17815e-17)
(24.769 -2.73939 1.96296e-15)
(18.7306 12.6393 -5.28526e-17)
(18.2257 12.0183 -2.00815e-16)
(17.7227 11.2751 4.01037e-16)
(17.2334 10.4254 0)
(16.8207 9.51866 8.01726e-16)
(16.4849 8.54268 0)
(16.2468 7.51563 -4.54521e-16)
(16.121 6.49836 1.82844e-15)
(16.1059 5.53068 -1.41846e-15)
(16.1926 4.61902 0)
(16.3668 3.77681 1.0584e-15)
(16.6142 3.01541 1.0263e-15)
(16.9252 2.32967 0)
(17.2915 1.71496 -1.0173e-15)
(17.7056 1.1705 2.47142e-16)
(18.1626 0.692773 -2.4726e-16)
(18.6575 0.280906 2.41503e-16)
(19.1845 -0.0649224 4.25663e-16)
(19.7382 -0.344163 -1.50863e-17)
(20.3127 -0.556076 5.18606e-16)
(20.9017 -0.699132 1.54858e-16)
(21.4982 -0.771518 -1.47564e-16)
(22.094 -0.770901 -4.79762e-16)
(22.6774 -0.696192 4.14044e-16)
(23.2311 -0.549569 -3.03899e-16)
(23.7375 -0.338582 -3.24147e-16)
(24.1852 -0.0751132 -1.15444e-16)
(24.5684 0.229048 -1.33557e-18)
(24.8835 0.56304 1.04371e-17)
(25.128 0.915812 5.72417e-17)
(25.3009 1.27632 8.81559e-18)
(25.4026 1.63446 -1.60327e-17)
(25.4336 1.98157 3.05013e-16)
(25.3941 2.3089 -2.7671e-16)
(25.2771 2.60948 1.11826e-17)
(25.0823 2.86879 -7.96015e-16)
(24.7509 3.07705 1.91922e-15)
(24.3448 3.11353 0)
(23.5456 2.97155 -6.01846e-15)
(19.8423 12.6604 8.67305e-18)
(20.4228 13.188 0)
(21.1121 13.7259 0)
(21.8767 14.2359 -2.26566e-17)
(22.679 14.6785 -1.95215e-17)
(23.5577 15.0699 0)
(24.4867 15.391 0)
(25.4469 15.6275 -7.00539e-16)
(26.4425 15.7761 -3.49874e-17)
(27.4593 15.8295 -4.21605e-17)
(28.4888 15.7812 -1.60503e-15)
(29.527 15.6254 -4.17264e-16)
(30.5619 15.3567 7.93166e-16)
(31.5827 14.9694 -6.77588e-17)
(32.5761 14.4598 0)
(33.5251 13.8264 0)
(34.4117 13.0708 -3.51865e-15)
(35.2157 12.1989 -6.44437e-16)
(35.9176 11.2211 6.58466e-16)
(36.4981 10.1531 -1.37196e-15)
(36.9395 9.01662 2.60387e-15)
(37.2298 7.8385 1.2324e-15)
(37.3641 6.64886 -1.19193e-15)
(37.3454 5.47844 -1.34408e-15)
(37.1842 4.35135 2.12875e-16)
(36.8953 3.27926 -1.14925e-15)
(36.4945 2.26641 -1.29627e-16)
(35.9944 1.31753 2.88931e-17)
(35.4031 0.439362 -2.88587e-17)
(34.7286 -0.361963 9.69712e-17)
(33.978 -1.08203 -4.01104e-17)
(33.1567 -1.71645 -2.71489e-15)
(32.2668 -2.26039 -1.02943e-16)
(31.3097 -2.70734 1.22281e-16)
(30.272 -3.04967 0)
(29.1609 -3.26079 4.30073e-15)
(27.8813 -3.32809 2.53439e-15)
(26.5917 -3.02755 0)
(24.905 -2.56914 0)
(19.3252 12.1151 0)
(18.8475 11.5441 1.80193e-16)
(18.3684 10.8592 -6.02243e-16)
(17.8992 10.075 -2.94096e-16)
(17.4996 9.23882 -7.31329e-16)
(17.1687 8.33684 0)
(16.9261 7.38581 0)
(16.7865 6.44359 -8.18247e-16)
(16.7484 5.54692 8.58291e-16)
(16.8034 4.70092 0)
(16.9385 3.91762 -4.49018e-16)
(17.1406 3.2075 -4.85297e-16)
(17.4014 2.56497 4.60265e-16)
(17.7137 1.98478 4.78409e-16)
(18.0715 1.46584 -8.89252e-16)
(18.4715 1.00475 0)
(18.9101 0.600846 -2.02265e-16)
(19.3831 0.255006 1.19876e-17)
(19.8862 -0.0313128 9.00332e-16)
(20.4144 -0.256207 -1.68066e-16)
(20.9618 -0.416998 1.61215e-16)
(21.5216 -0.511043 -1.23868e-16)
(22.0858 -0.535451 1.75556e-16)
(22.643 -0.488651 -8.40969e-16)
(23.1763 -0.371944 -3.00277e-16)
(23.6686 -0.191227 2.63249e-16)
(24.1082 0.0433289 -1.62028e-17)
(24.488 0.320845 0)
(24.8035 0.630815 -9.84589e-18)
(25.0514 0.962453 6.02085e-17)
(25.2299 1.3048 -9.26158e-17)
(25.3387 1.64757 1.63077e-16)
(25.3775 1.98174 -6.15132e-16)
(25.3464 2.29798 6.33462e-16)
(25.2383 2.58846 -9.60841e-18)
(25.0527 2.83741 7.5394e-16)
(24.7369 3.03323 3.49097e-17)
(24.349 3.05717 -7.48888e-17)
(23.6246 2.90185 -5.39954e-15)
(20.3492 12.1348 -8.41431e-18)
(20.8972 12.6215 0)
(21.547 13.1176 0)
(22.2661 13.5872 1.81739e-17)