/*--------------------------------*- C++ -*----------------------------------*\
  =========                 |
  \\      /  F ield         | OpenFOAM: The Open Source CFD Toolbox
   \\    /   O peration     | Website:  https://openfoam.org
    \\  /    A nd           | Version:  13
     \\/     M anipulation  |
\*---------------------------------------------------------------------------*/
FoamFile
{
    format      ascii;
    class       volScalarField;
    location    "0.15";
    object      alpha.air;
}
// * * * * * * * * * * * * * * * * * * * * * * * * * * * * * * * * * * * * * //

dimensions      [];

internalField   nonuniform List<scalar> 
2268
(
1.41858e-40
6.18534e-38
2.46988e-37
1.1745e-36
7.4746e-36
2.21667e-35
2.19775e-34
1.05915e-33
1.34144e-33
7.35629e-32
2.31131e-31
1.04544e-29
8.80663e-27
6.24623e-28
4.77296e-28
2.16548e-28
5.15063e-29
1.36314e-29
2.50749e-31
1.62246e-32
1.18745e-33
1.05934e-36
2.31525e-40
1.08923e-35
5.88691e-35
1.64919e-34
1.21723e-34
6.98078e-34
1.81401e-33
1.04502e-32
4.4917e-32
5.56799e-32
2.1944e-30
1.52843e-29
1.16255e-28
5.20741e-25
6.39204e-26
4.5619e-27
7.71734e-27
1.39782e-26
2.75275e-27
2.94032e-29
8.74251e-31
9.73775e-33
1.06275e-35
1.22302e-40
5.76741e-33
1.40098e-32
2.89451e-32
7.64636e-32
3.27144e-31
5.49507e-31
5.77183e-31
1.56036e-30
2.03386e-30
5.24513e-29
1.92979e-27
2.3721e-27
9.93779e-23
4.57999e-24
7.23365e-25
8.76421e-25
1.13889e-24
4.64588e-25
8.33824e-27
2.25142e-30
1.75106e-34
1.80451e-37
2.47496e-41
4.7922e-31
6.47416e-31
1.0551e-30
2.3999e-30
8.41895e-30
1.1377e-29
6.82832e-30
1.50602e-29
1.64009e-29
2.5077e-28
3.75393e-26
4.95066e-26
1.95908e-21
2.70006e-22
1.58538e-22
1.99284e-22
1.26058e-22
2.10786e-23
2.56996e-25
5.25088e-29
2.61747e-34
2.32545e-38
9.79097e-40
1.24593e-28
1.58069e-28
2.24066e-28
4.29542e-28
6.6803e-28
1.17376e-27
3.71158e-28
2.08526e-28
1.73168e-28
1.4504e-27
2.30594e-24
1.23416e-24
2.92929e-20
3.73959e-19
2.08352e-19
8.2641e-20
2.73158e-21
2.2192e-23
5.80625e-26
8.44775e-30
1.28694e-34
8.52974e-36
2.25415e-37
4.09769e-27
4.35193e-27
5.30324e-27
8.64735e-27
1.02644e-26
1.44361e-26
3.83122e-27
6.79702e-28
3.92142e-28
2.54225e-27
1.26023e-23
1.82318e-23
9.42912e-20
6.53175e-17
2.50473e-17
2.56224e-18
2.13835e-20
9.5474e-24
3.04607e-27
1.13801e-29
1.91866e-30
1.96508e-31
7.50792e-33
7.34236e-26
6.26551e-26
7.00827e-26
7.02355e-26
7.37845e-26
7.43141e-26
1.84112e-26
1.23029e-27
4.39219e-28
2.17204e-27
7.81544e-23
1.92322e-22
1.36338e-19
3.10295e-16
1.3027e-16
5.45593e-18
3.22133e-20
2.44258e-21
2.37836e-23
1.92069e-25
6.51318e-28
2.53441e-29
2.21205e-32
6.68036e-23
4.03237e-23
4.06396e-23
1.56978e-23
1.79343e-23
3.55066e-23
1.46426e-28
1.10443e-28
1.90031e-28
1.74987e-28
1.29458e-22
1.77013e-21
2.59225e-23
-2.75134e-23
3.07001e-16
2.01224e-17
9.85241e-20
4.64118e-20
4.58087e-21
2.88807e-22
4.80206e-25
5.97545e-26
2.3262e-28
1
1
1
1
1
0.999999
1
1
1
1
1
1
1
1
1
1
1
1
1
1
1
1
1
1
0.848743
0.633594
0.890123
1
1
1
1
1
1
1
1
1
1
1
1
1
1
1
0.901841
0.201336
1.76276e-08
0.0311644
0.869599
1
0.999999
1
1
1
1
1
1
1
1
1
1
1
1
0.436577
8.17047e-09
1.06028e-09
3.97552e-08
0.271238
0.976541
1
1
1
1
1
1
1
1
1
1
1
1
0.788238
0.107933
1.23453e-08
2.51841e-09
6.69305e-09
0.0894667
0.911224
0.999999
1
1
1
1
1
1
1
1
1
1
0.862037
0.214888
4.66913e-10
1.12797e-09
7.60307e-10
1.9939e-09
0.164861
0.915552
1
1
1
1
1
1
1
1
1
1
0.845204
0.230246
2.35458e-10
3.67353e-10
8.43704e-10
7.73039e-10
2.78962e-09
0.560854
0.992733
1
1
1
1
1
1
1
1
1
0.509113
0.162655
2.68567e-09
1.20016e-09
6.0346e-10
4.67953e-10
4.08807e-10
0.014787
0.788255
1
1
1
1
1
1
1
1
1
1
1.45222e-21
8.45505e-22
8.01164e-22
4.98726e-22
7.37488e-22
1.91998e-21
5.68701e-21
1.91739e-20
2.05259e-20
6.72561e-20
1.3531e-22
3.76708e-13
1.56398e-12
2.82216e-12
5.21819e-13
7.50634e-15
4.2373e-18
1.14416e-20
3.22642e-21
2.72032e-22
9.61151e-24
5.30889e-25
6.60468e-26
5.80033e-18
3.98501e-18
3.62557e-18
4.90562e-18
8.61322e-18
1.68015e-17
3.28946e-17
6.7084e-17
8.96688e-17
1.3886e-16
1.50798e-22
1.09925e-11
4.18381e-11
2.42524e-11
2.23518e-12
2.30941e-14
1.44302e-17
8.10066e-22
3.47609e-22
1.04222e-22
1.36684e-23
2.81773e-24
9.38518e-25
1.52739e-15
1.2278e-15
1.04967e-15
1.30253e-15
2.06844e-15
3.31429e-15
4.91509e-15
7.76293e-15
1.11004e-14
1.4577e-14
6.36209e-15
4.72251e-11
1.77539e-10
1.21377e-10
1.34178e-11
1.43991e-13
1.8477e-16
6.97756e-20
1.47721e-23
8.58909e-24
3.47471e-24
1.71022e-24
6.76443e-25
1.76731e-14
1.74527e-14
1.43403e-14
1.67047e-14
2.40539e-14
3.48489e-14
4.48184e-14
6.40846e-14
8.44751e-14
1.0638e-13
4.0921e-14
1.30679e-10
6.19401e-10
5.26534e-10
8.5545e-11
1.24359e-12
4.56643e-15
1.65027e-16
1.63775e-18
2.27701e-21
7.17363e-23
9.73578e-24
1.9868e-24
1.48706e-13
1.95982e-13
1.53842e-13
1.65814e-13
2.09733e-13
2.75085e-13
3.1605e-13
4.08712e-13
4.93949e-13
6.04904e-13
6.20203e-14
3.48957e-10
1.17787e-09
2.26096e-09
3.83038e-10
4.80864e-12
2.45843e-14
5.11001e-15
2.00841e-16
5.36835e-18
1.12128e-18
3.20689e-18
7.03623e-18
1.10322e-12
1.50253e-12
1.13002e-12
1.13251e-12
1.26164e-12
1.57677e-12
1.70235e-12
2.11053e-12
2.84472e-12
3.35838e-12
2.70529e-13
6.51166e-10
1.82466e-08
9.3587e-09
6.73134e-10
1.32919e-14
1.69384e-14
4.32797e-15
4.60146e-16
1.07874e-16
2.36285e-16
9.25551e-15
5.00148e-14
7.04554e-12
7.26445e-12
5.19997e-12
5.84931e-12
5.56398e-12
7.70253e-12
8.59251e-12
1.20119e-11
1.62155e-11
1.76917e-11
1.31299e-12
4.23839e-13
2.26617e-07
7.63339e-08
8.24934e-10
1.29528e-14
1.95198e-13
5.42222e-14
1.32662e-14
4.33447e-14
4.81553e-13
3.44871e-12
8.53097e-12
4.19384e-11
5.84007e-11
3.91335e-11
3.29426e-11
3.40642e-11
4.18436e-11
4.56175e-11
5.60136e-11
7.01098e-11
7.68614e-11
7.88667e-12
1.2668e-11
8.03667e-07
2.65617e-07
1.50881e-26
1.84113e-12
2.16694e-12
4.87517e-12
5.74138e-12
9.53698e-12
2.20221e-11
4.9613e-11
7.43327e-11
1.87064e-10
2.48465e-10
1.48475e-10
1.38434e-10
1.60529e-10
1.81361e-10
1.71669e-10
2.27743e-10
2.72726e-10
3.04378e-10
4.37962e-11
1.09135e-11
2.79774e-06
4.93556e-07
-5.79976e-25
1.22088e-11
2.59999e-11
7.66127e-11
1.26071e-10
1.33274e-10
1.41971e-10
2.84403e-10
3.34765e-10
6.27604e-10
7.73062e-10
4.83835e-10
4.14554e-10
4.80347e-10
5.23562e-10
5.41457e-10
7.71491e-10
8.07728e-10
9.84444e-10
6.96136e-11
1.80939e-05
7.20682e-06
1.31946e-07
-4.30618e-20
8.27024e-11
2.05744e-10
4.07572e-10
6.16728e-10
6.14797e-10
5.61564e-10
6.83433e-10
9.9785e-10
1.6525e-09
1.7704e-09
1.23106e-09
1.17291e-09
1.37553e-09
1.37911e-09
1.34768e-09
1.94998e-09
2.08149e-09
2.29984e-09
2.36861e-10
0.000187813
9.60622e-05
8.30093e-07
-1.5764e-13
3.3061e-10
7.09691e-10
1.33752e-09
1.74435e-09
1.45388e-09
3.35832e-09
5.42122e-09
5.13516e-09
5.30065e-09
5.36243e-09
4.49622e-09
4.48981e-09
4.66843e-09
4.10209e-09
3.78409e-09
4.99444e-09
4.81907e-09
4.40021e-09
7.80095e-10
0.00042191
0.000201548
7.86917e-07
-2.61756e-13
8.75756e-10
2.38498e-09
3.93912e-09
4.95985e-09
2.15751e-09
1.61644e-08
2.62325e-08
1.63063e-08
1.22959e-08
1.31596e-08
1.21098e-08
1.16325e-08
1.0726e-08
9.7772e-09
8.54092e-09
7.8466e-09
6.49241e-09
5.03593e-09
1.2585e-09
0.00100596
0.000138351
-1.27213e-21
8.99768e-22
4.51896e-09
6.2024e-09
8.60307e-09
9.94611e-09
2.23444e-08
2.69791e-08
1.03894e-08
0.00200339
1.32238e-08
1.34548e-08
1.27803e-08
1.1958e-08
1.00998e-08
7.77436e-09
-6.38947e-10
1.225e-09
-3.05284e-10
0.000777272
0.00327764
0.00494902
8.28198e-08
3.36815e-13
1.99844e-05
2.0539e-07
1.29556e-08
1.02587e-08
8.81402e-09
0.0211741
0.0971116
0.263168
0.518552
0.21159
0.180302
0.161088
0.165258
0.183003
0.215878
0.263105
0.323841
0.411741
0.495604
0.546444
0.529461
0.370503
0.167774
0.119635
0.129564
0.176345
0.270525
0.44226
0.649204
0.833809
0.976339
1
0.947262
0.923707
0.909359
0.912479
0.925737
0.947381
0.972511
0.997111
1
1
1
1
0.979831
0.90612
0.86972
0.879712
0.919953
0.977333
1
1
1
1
1
1
1
1
1
1
1
1
1
1
1
1
1
1
1
0.999935
0.99999
0.999999
1
1
1
1
1
1
1
1
1
1
1
1
1
1
1
1
1
1
1
1
0.999999
0.999999
1
1
1
1
1
1
1
1
1
1
1
1
1
1
1
1
1
1
1
1
1
1
1
1
1
1
1
1
1
1
1
1
1
1
1
1
1
1
1
1
1
1
1
1
1
1
1
1
1
1
1
1
1
1
1
1
1
1
1
1
1
1
1
1
1
1
1
1
1
1
1
1
1
1
1
1
1
1
1
1
1
1
1
1
1
1
1
1
1
1
1
1
1
1
1
1
1
1
1
1
1
1
1
1
1
1
1
1
1
1
1
1
1
1
1
1
1
1
1
1
1
1
1
1
1
1
1
1
1
1
1
1
1
1
1
1
1
1
1
1
1
1
1
1
1
1
1
1
1
1
1
1
1
1
1
1
1
1
1
1
1
1
1
1
1
1
1
1
1
1
1
1
1
1
1
1
1
1
1
1
1
1
1
1
1
1
1
1
1
1
1
1
1
1
1
1
1
1
1
1
1
1
1
1
1
1
1
1
1
1
1
1
1
1
1
1
1
1
1
1
1
1
1
1
1
1
1
1
1
1
1
1
1
1
1
1
1
1
1
1
1
1
1
1
1
1
1
1
1
1
1
1
1
1
1
1
1
1
1
1
1
1
1
1
1
1
1
1
1
1
1
1
1
1
1
1
1
1
1
1
1
1
1
1
1
1
1
1
1
1
1
1
1
1
1
1
1
1
1
1
1
1
1
1
1
1
1
1
1
1
1
1
1
1
1
1
1
1
1
1
1
1
1
1
1
1
1
1
1
1
1
1
1
1
1
1
1
1
1
1
1
1
1
1
1
1
1
1
1
1
1
1
1
1
1
1
1
1
1
1
1
1
1
1
1
1
1
1
1
1
1
1
1
1
1
1
1
1
1
1
1
1
1
1
1
1
1
1
1
1
1
1
1
1
1
1
1
1
1
1
1
1
1
1
1
1
1
1
1
1
1
1
1
1
1
1
1
1
1
1
1
1
1
1
1
1
1
1
1
1
1
1
1
1
1
1
1
1
1
1
1
1
1
1
1
1
1
1
1
1
1
1
1
1
1
1
1
1
1
1
1
1
1
1
1
1
1
1
1
1
1
1
1
1
1
1
1
1
1
1
1
1
1
1
1
1
1
1
1
1
1
1
1
1
1
1
1
1
1
1
1
1
1
1
1
1
1
1
1
1
1
1
1
1
1
1
1
1
1
1
1
1
1
1
1
1
1
1
1
1
1
1
1
1
1
1
1
1
1
1
1
1
1
1
1
1
1
1
1
1
1
1
1
1
1
1
1
1
1
3.63148e-26
3.7651e-27
1.45612e-27
1.15039e-21
5.24315e-25
3.06384e-25
1.16635e-22
2.42873e-20
3.99389e-25
2.41632e-25
2.49255e-19
1.56599e-17
1.51555e-21
2.63638e-19
1.61767e-17
2.2424e-16
1.35391e-16
7.92309e-16
6.44598e-15
2.92829e-15
3.02597e-13
7.55188e-13
1.72834e-12
2.00751e-12
1.28547e-11
1.82702e-11
2.36672e-11
1.82631e-11
8.86114e-11
1.19278e-10
1.56521e-10
1.2556e-10
3.22384e-10
5.27594e-10
5.83876e-10
3.49539e-10
1.2995e-09
1.50239e-09
1.2556e-09
3.19491e-10
6.76683e-09
4.80013e-09
1.64674e-09
2.1153e-09
1.30783e-08
8.29194e-09
1.19031e-09
3.13113e-08
0.00241977
7.26124e-09
1.75108e-08
0.258388
0.537212
0.458499
0.505958
0.88193
1
1
1
1
0.999999
0.999999
1
0.999695
0.999995
0.999982
0.999973
0.999918
0.999986
0.999983
1
1
1
1
1
1
1
1
1
1
1
1
1
1
1
1
1
1
1
1
1
1
1
1
1
1
1
1
1
1
1
1
1
1
1
1
1
1
1
1
1
1
1
1
1
1
1
1
1
1
1
1
1
1
1
1
1
1
1
1
1
1
1
1
1
1
1
1
1
1
1
1
1
1
1
1
1
1
1
1
1
1
1
1
1
1
1
1
1
1
1
1
1
1
1
1
1
1
-8.82107e-19
1.04245e-12
7.67204e-11
5.12525e-10
5.69755e-10
1.4184e-10
8.48287e-10
0.179949
0.904923
1
1
1
1
1
1
1
1
1
1
-7.45045e-18
1.11711e-11
2.70552e-10
9.37235e-10
7.5159e-10
1.96967e-10
2.32491e-08
0.523603
0.99914
1
1
1
1
1
1
1
1
1
1
-2.44279e-17
8.9539e-11
6.1233e-10
9.97644e-10
6.81704e-10
5.371e-09
0.147447
0.880769
1
1
1
1
1
1
1
1
1
1
1
1.95829e-29
2.83282e-10
7.40744e-10
4.15312e-10
2.72096e-10
3.23216e-08
0.605691
1
1
1
1
1
1
1
1
1
1
1
1
3.74395e-12
3.64139e-10
3.90341e-10
2.72096e-10
1.71657e-08
0.335295
0.965252
1
1
1
1
1
1
1
1
1
1
1
1
9.73591e-12
1.62921e-10
1.74426e-10
9.37708e-09
0.155984
0.86482
1
1
1
1
1
1
1
1
1
1
1
1
1
5.83561e-12
4.4404e-12
5.05865e-09
0.0613646
0.735899
1
1
1
1
1
1
1
1
1
1
1
1
1
1
3.32676e-12
3.70034e-11
0.00744487
0.606943
1
1
1
1
1
1
1
1
1
1
1
1
1
1
1
3.73954e-12
2.01098e-08
0.473926
0.994105
1
1
1
1
1
1
1
1
1
1
1
1
1
1
1
9.2586e-09
0.346915
0.963774
1
1
1
1
1
1
1
1
1
1
1
1
1
1
1
1
0.124421
0.881464
1
1
1
1
1
1
1
1
1
1
1
1
1
1
1
1
1
0.653993
1
1
1
1
1
1
1
1
1
1
1
1
1
1
1
1
1
1
0.964287
1
1
1
1
1
1
1
1
1
1
1
1
1
1
1
1
1
1
1
1
1
1
1
1
1
1
1
1
1
1
1
1
1
1
1
1
1
0.999748
1
1
1
1
1
1
1
1
1
1
1
1
1
1
1
1
1
1
0.999799
1
1
1
1
1
1
1
1
1
1
1
1
1
1
1
1
1
1
1
1
1
1
1
1
1
1
1
1
1
1
1
1
1
1
1
1
1
1
1
1
1
1
1
1
1
1
1
1
1
1
1
1
1
1
1
1
1
1
1
1
1
1
1
1
1
1
1
1
1
1
1
1
1
1
1
1
1
1
1
1
1
1
1
1
1
1
1
1
1
1
1
1
1
1
1
1
1
1
1
1
1
1
1
1
1
1
1
1
1
1
1
1
1
1
1
1
1
1
1
1
1
1
1
1
1
1
1
1
1
1
1
1
1
1
1
1
1
1
1
1
1
1
1
1
1
1
1
1
1
1
1
1
1
1
1
1
1
1
1
1
1
1
1
1
1
1
1
1
1
1
1
1
1
1
1
1
1
1
1
1
1
1
1
1
1
1
1
1
1
1
1
1
1
1
1
1
1
1
1
1
1
1
1
1
1
1
1
1
1
1
1
1
1
1
1
1
1
1
1
1
1
1
1
1
1
1
1
1
1
1
1
1
1
1
1
1
1
1
1
1
1
1
1
1
1
1
1
1
1
1
1
1
1
1
1
1
1
1
1
1
1
1
1
1
1
1
1
1
1
1
1
1
1
1
1
1
1
1
1
1
1
1
1
1
1
1
1
1
1
1
1
1
1
1
1
1
1
1
1
1
1
1
1
1
1
1
1
1
1
1
1
1
1
1
1
1
1
1
1
1
1
1
1
1
1
1
1
1
1
1
1
1
1
1
1
1
1
1
1
1
1
1
1
1
1
1
1
1
1
1
1
1
1
1
1
1
1
1
1
1
1
1
1
1
1
1
1
1
1
1
1
1
1
1
1
1
1
1
1
1
1
1
1
1
1
1
1
1
1
1
1
1
1
1
1
1
1
1
1
1
1
1
1
1
1
1
1
1
1
1
1
1
1
1
1
1
1
1
1
1
1
1
1
1
1
1
1
1
1
1
1
1
1
1
1
1
1
1
1
1
1
1
1
1
1
1
1
1
1
1
1
1
1
1
1
1
1
1
1
1
1
1
1
1
1
1
1
1
1
1
1
1
1
1
1
1
1
1
1
1
1
1
1
1
1
1
1
1
1
1
1
1
1
1
1
1
1
1
1
1
1
1
1
1
1
1
1
1
1
1
1
1
)
;

boundaryField
{
    leftWall
    {
        type            alphaContactAngle;
        contactAngleProperties 
        {
            mercury         
            {
                theta0          90;
            }
            water           
            {
                theta0          90;
            }
            oil             
            {
                theta0          90;
            }
        }
        value           nonuniform List<scalar> 
50
(
1.41858e-40
1.08923e-35
5.76741e-33
4.7922e-31
1.24593e-28
4.09769e-27
7.34236e-26
6.68036e-23
1.45222e-21
5.80033e-18
1.52739e-15
1.76731e-14
1.48706e-13
1.10322e-12
7.04554e-12
4.19384e-11
1.87064e-10
6.27604e-10
1.6525e-09
5.30065e-09
1.22959e-08
1.32238e-08
0.21159
0.947262
1
1
1
1
1
1
1
1
1
1
1
1
1
1
1
1
1
1
1
1
1
1
1
1
1
1
)
;
    }
    rightWall
    {
        type            alphaContactAngle;
        contactAngleProperties 
        {
            mercury         
            {
                theta0          90;
            }
            water           
            {
                theta0          90;
            }
            oil             
            {
                theta0          90;
            }
        }
        value           nonuniform List<scalar> 
50
(
1
1
1
1
1
1
1
1
1
1
1
1
1
1
1
1
1
1
1
1
1
1
1
1
1
1
1
1
1
1
1
1
1
1
1
1
1
1
1
1
1
1
1
1
1
1
1
1
1
1
)
;
    }
    lowerWall
    {
        type            alphaContactAngle;
        contactAngleProperties 
        {
            mercury         
            {
                theta0          90;
            }
            water           
            {
                theta0          90;
            }
            oil             
            {
                theta0          90;
            }
        }
        value           nonuniform List<scalar> 
62
(
1.41858e-40
6.18534e-38
2.46988e-37
1.1745e-36
7.4746e-36
2.21667e-35
2.19775e-34
1.05915e-33
1.34144e-33
7.35629e-32
2.31131e-31
1.04544e-29
8.80663e-27
6.24623e-28
4.77296e-28
2.16548e-28
5.15063e-29
1.36314e-29
2.50749e-31
1.62246e-32
1.18745e-33
1.05934e-36
2.31525e-40
2.31525e-40
1.22302e-40
2.47496e-41
9.79097e-40
2.25415e-37
7.50792e-33
2.21205e-32
2.3262e-28
3.63148e-26
3.7651e-27
1.45612e-27
1.15039e-21
1
1
1
1
1
1
1
0.509113
1
1
1
1
1
0.999999
1
1
1
1
1
1
1
1
1
1
1
1
1
)
;
    }
    atmosphere
    {
        type            inletOutlet;
        inletValue      uniform 1;
        value           nonuniform List<scalar> 
46
(
1
1
1
1
1
1
1
1
1
1
1
1
1
1
1
1
1
1
1
1
1
1
1
1
1
1
1
1
1
1
1
1
1
1
1
1
1
1
1
1
1
1
1
1
1
1
)
;
    }
    defaultFaces
    {
        type            empty;
    }
}


// ************************************************************************* //
