/*--------------------------------*- C++ -*----------------------------------*\
  =========                 |
  \\      /  F ield         | OpenFOAM: The Open Source CFD Toolbox
   \\    /   O peration     | Website:  https://openfoam.org
    \\  /    A nd           | Version:  13
     \\/     M anipulation  |
\*---------------------------------------------------------------------------*/
FoamFile
{
    format      ascii;
    class       volScalarField;
    location    "0.15";
    object      alpha.mercury;
}
// * * * * * * * * * * * * * * * * * * * * * * * * * * * * * * * * * * * * * //

dimensions      [];

internalField   nonuniform List<scalar> 
2268
(
1
1
1
1
1
1
1
1
1
1
1
1
1
1
1
1
1
1
1
1
1
0.863031
0.0957758
1
1
1
1
1
1
1
1
1
1
1
1
1
1
1
1
1
1
1
1
0.866732
0.308242
0.00819046
1
1
1
1
1
1
1
1
1
1
1
1
1
1
1
1
1
1
0.98796
0.664213
0.103539
1.06158e-08
2.00463e-09
1
1
1
1
1
1
1
1
1
1
1
1
1
0.999997
0.999981
0.999976
0.999988
0.951258
0.509935
0.0386841
1.62683e-08
1.80842e-09
1.54359e-09
1
1
1
1
1
1
1
1
1
1
1
1
1
1
0.999924
0.999886
0.91982
0.412628
0.0172005
1.2025e-08
2.21963e-09
2.35334e-09
1.82451e-09
1
1
1
1
1
1
1
1
1
1
1
1
1
1
0.999902
0.940191
0.398401
0.00834304
8.04447e-09
2.99377e-09
2.99609e-09
2.74594e-09
1.34573e-09
1
1
1
1
1
1
1
1
1
1
1
1
1
0.999977
0.999109
0.547483
0.0226285
1.29338e-09
1.80119e-09
3.00574e-09
3.66503e-09
2.91505e-09
1.15074e-09
1
1
1
1
1
1
1
1
1
1
1
1
0.99539
0.984769
0.866902
0.189954
4.22137e-08
1.38616e-09
1.89504e-09
3.824e-09
3.94581e-09
3.14447e-09
1.11663e-09
1.46248e-23
5.92386e-23
1.47271e-22
2.29072e-22
2.63494e-22
3.36529e-22
1.85337e-21
2.55055e-22
1.33735e-22
7.83485e-23
2.92587e-23
4.05992e-24
7.47905e-25
5.56534e-26
2.98164e-27
2.96114e-29
1.09842e-30
8.56203e-33
3.94318e-35
9.81667e-23
3.47687e-20
7.31504e-19
1.58319e-17
4.50815e-19
2.59724e-18
5.94513e-18
1.88429e-18
7.7627e-22
1.15598e-22
7.78678e-23
3.13601e-23
6.78867e-24
6.99397e-25
3.39984e-26
8.85961e-28
1.41187e-29
7.74888e-32
4.52951e-35
1.67522e-19
2.30033e-17
3.29205e-16
3.88026e-16
4.04365e-16
1.43001e-15
1.87817e-15
2.96497e-16
7.89371e-18
1.91799e-22
9.38501e-23
4.68206e-23
9.98755e-24
1.88718e-24
1.37254e-25
6.14799e-27
1.17004e-28
1.53773e-30
1.17992e-32
1.33962e-19
2.67464e-18
3.25349e-15
7.05312e-15
2.98761e-14
4.41648e-14
2.65832e-14
3.70241e-15
1.22535e-16
3.25953e-19
6.05793e-23
3.06665e-23
1.42103e-23
2.23357e-24
3.53921e-25
1.99398e-26
4.96366e-28
5.06429e-30
2.04249e-32
3.33622e-19
1.00009e-14
7.46577e-14
2.79199e-13
4.56262e-13
2.45435e-13
8.06663e-14
1.30601e-14
3.61182e-16
1.6253e-18
5.88053e-22
3.92535e-23
7.72542e-24
1.48012e-24
2.1035e-25
1.37077e-26
6.13854e-28
9.14755e-30
2.91306e-31
1.58092e-18
5.11267e-13
2.37981e-12
3.36329e-12
1.86826e-12
4.68553e-13
6.12799e-14
2.24499e-14
1.24198e-15
2.83718e-18
2.52003e-20
4.1392e-22
1.69075e-23
3.16793e-24
1.01276e-25
9.14155e-27
5.50728e-28
2.00106e-29
3.07581e-31
3.06241e-18
1.46932e-11
1.96483e-11
1.3371e-11
3.88605e-12
4.87887e-13
4.11052e-14
9.53094e-15
1.03599e-15
1.09145e-17
2.3163e-20
2.90223e-22
5.11038e-23
3.01425e-24
5.5287e-26
5.32135e-27
3.29601e-28
1.13257e-29
1.47377e-31
1.03333e-10
9.60961e-11
5.91858e-11
2.36119e-11
5.12024e-12
1.02313e-12
3.02259e-14
7.25591e-15
2.92823e-16
1.51049e-18
2.92326e-21
7.33872e-23
1.18677e-23
2.07768e-25
3.06995e-26
2.84922e-27
1.52911e-28
4.0777e-30
3.69538e-32
1
1
1
1
1
1
1
1
1
0.990996
0.939729
0.787498
0.520546
0.462661
0.376642
0.0502428
7.85806e-09
1.29346e-09
1.98405e-09
3.09124e-09
3.66199e-09
2.97271e-09
1.7053e-09
0.990573
0.99327
0.992956
0.988644
0.976251
0.949078
0.897172
0.809168
0.664891
0.446841
0.235274
0.0466209
1.67768e-06
1.36818e-11
1.60364e-27
0.0030615
0.00118939
5.75699e-09
5.88367e-09
5.00265e-09
2.71271e-09
2.21581e-09
1.54661e-09
0.410105
0.436753
0.435302
0.403169
0.33962
0.254906
0.16084
0.0695375
1.86168e-09
7.28846e-10
3.92e-11
-5.53119e-14
-7.25626e-14
-7.73715e-14
-3.94918e-14
2.90454e-09
0.000372399
0.000162059
9.77587e-10
1.01088e-09
1.08568e-09
9.57618e-10
7.49226e-10
0
-5.38122e-19
-4.82479e-20
-3.18277e-21
-1.8798e-22
-1.10294e-23
-6.77942e-25
-4.13517e-26
-2.22929e-27
-1.09282e-18
1.46101e-14
-1.79946e-13
-2.48271e-13
-1.7489e-13
-8.21914e-14
-5.58752e-15
2.33798e-05
3.48314e-05
6.09225e-06
1.74363e-11
5.14343e-10
5.65628e-10
3.48773e-10
0
0
0
0
0
0
0
0
0
0
0
0
0
0
0
0
0
0
0
1.91382e-11
4.60372e-11
3.50179e-11
1.54603e-11
0
0
0
0
0
0
0
0
0
0
0
0
0
0
0
0
7.77301e-128
6.12686e-115
5.38012e-106
1.60512e-94
2.91154e-101
2.54799e-90
2.74256e-80
0
0
0
0
0
0
0
0
0
0
0
0
0
0
0
2.37798e-121
1.17456e-115
2.06527e-107
1.37329e-100
1.33909e-92
1.64655e-89
3.26385e-84
1.45199e-78
0
0
0
0
0
0
0
0
0
0
0
0
0
0
1.70607e-132
1.79972e-104
5.90311e-103
1.25278e-96
2.77992e-93
8.93888e-88
2.44322e-82
2.27629e-75
2.248e-76
0
0
0
0
0
0
0
0
0
0
0
0
0
3.05335e-130
2.58869e-120
3.10092e-101
8.80579e-99
6.83877e-94
2.83453e-88
3.99623e-80
1.44954e-79
1.01107e-73
8.09932e-70
0
0
0
0
0
0
0
0
0
0
0
0
4.95432e-125
3.47123e-117
1.06575e-111
3.9107e-99
7.24745e-96
1.36883e-92
3.41468e-84
1.0223e-77
2.26739e-77
1.12728e-72
1.17251e-68
0
0
0
0
0
0
0
0
0
0
0
6.32987e-113
3.1122e-114
5.79327e-112
7.30017e-107
1.17681e-96
2.05391e-93
3.59464e-89
2.67554e-82
8.93994e-75
1.88517e-75
7.5215e-70
1.93624e-67
0
0
0
0
0
0
0
0
0
0
1.25724e-115
5.8229e-104
8.52473e-109
2.28081e-106
4.28448e-103
5.20202e-95
1.52634e-90
3.11893e-81
6.76476e-76
2.02386e-72
1.56143e-73
1.21338e-67
2.37878e-64
0
0
0
0
0
0
0
0
0
3.66824e-113
1.4061e-107
2.5176e-102
2.66516e-102
2.22809e-101
1.26169e-98
1.25629e-92
1.51234e-83
4.29012e-76
5.0616e-73
1.5438e-71
3.17796e-69
1.14672e-65
1.97928e-60
0
0
0
0
0
0
0
0
2.23581e-114
7.61811e-107
2.74061e-103
2.13872e-100
1.51877e-97
1.54945e-96
2.99422e-94
2.53219e-91
4.06247e-80
7.3456e-75
1.01402e-71
4.46936e-66
8.63639e-61
2.95385e-60
1.88755e-57
0
0
0
0
0
0
0
1.91925e-115
4.50634e-105
2.22583e-98
1.62144e-96
5.67027e-94
2.87998e-91
4.89464e-93
3.2809e-87
1.31819e-84
2.18914e-76
2.51961e-70
1.76196e-66
5.70643e-61
1.67864e-57
1.60466e-56
7.36482e-54
0
0
0
0
0
0
3.54942e-113
1.95652e-108
2.02972e-99
1.60601e-95
1.06559e-94
9.73638e-93
1.7929e-89
2.66534e-87
9.52914e-82
1.11026e-80
9.64508e-74
8.23667e-66
1.10359e-62
6.49841e-60
4.09558e-56
6.62732e-55
3.35968e-51
0
0
0
0
0
3.71491e-111
1.94016e-109
7.62464e-104
1.91314e-96
2.05175e-94
1.40454e-90
1.0001e-87
8.14273e-82
6.3201e-82
1.27948e-79
2.27333e-78
9.42121e-71
7.62853e-64
6.08187e-61
2.65794e-57
6.2446e-55
1.89741e-52
4.22121e-50
0
0
0
0
1.39963e-112
2.21821e-107
1.00539e-101
1.10643e-97
2.07483e-94
2.19112e-91
1.57094e-88
5.40639e-80
3.6036e-77
1.8094e-76
7.28472e-74
2.9955e-72
3.76851e-66
1.22669e-60
4.59835e-58
8.09939e-56
4.82738e-54
3.50931e-51
4.32741e-49
0
0
0
3.69813e-114
8.27248e-109
1.39784e-103
1.29889e-98
1.24404e-95
2.73943e-92
2.20928e-89
1.27138e-80
9.61352e-78
3.25701e-75
4.7154e-73
3.9456e-71
2.63426e-68
2.73095e-64
3.58786e-59
7.64719e-57
6.61179e-55
2.00156e-53
1.58688e-50
1.06717e-48
0
0
5.41431e-116
2.41167e-110
-2.70735e-107
6.62465e-100
1.12771e-96
1.69452e-93
1.59679e-90
3.38224e-81
2.78693e-78
6.76944e-76
9.34685e-74
1.1295e-71
4.97596e-69
1.37054e-66
1.80741e-64
1.20849e-62
4.46761e-61
8.64717e-60
6.1754e-59
5.08712e-53
1.05927e-48
0
0
0
-2.6725e-108
-1.18398e-104
-1.87186e-101
-1.45341e-98
7.65861e-93
3.00502e-82
3.63043e-79
1.29359e-76
2.41966e-74
2.70899e-72
1.02534e-70
9.25493e-69
3.31691e-67
1.26737e-65
6.46517e-64
5.45865e-62
2.14302e-60
1.20871e-58
1.68276e-53
2.02733e-50
0
0
0
0
-1.44923e-105
-3.03282e-102
2.8712e-94
2.16754e-86
1.76275e-80
7.59556e-78
1.6073e-75
2.02313e-73
1.62069e-71
3.93546e-70
3.60838e-68
2.11757e-66
1.03475e-64
5.69115e-63
2.16144e-61
5.03131e-60
8.29396e-59
1.36326e-53
3.2455e-49
0
0
0
0
0
-2.86926e-105
4.76955e-96
2.98697e-92
3.32098e-85
1.62163e-81
9.58967e-79
1.40519e-75
9.31983e-73
3.368e-71
2.89653e-68
2.89201e-66
1.95728e-64
2.30665e-62
1.05502e-60
3.5098e-59
4.31535e-57
3.61511e-54
1.33466e-50
0
0
0
0
0
1.099e-97
5.96081e-93
3.45688e-89
3.82085e-86
1.16608e-80
2.17915e-77
8.30387e-75
1.62956e-71
1.24898e-69
1.13247e-66
9.58517e-65
8.14162e-63
4.59244e-61
1.90226e-59
5.99586e-57
3.18846e-55
2.67847e-53
8.82753e-51
0
0
0
0
0
0
5.87072e-92
4.57258e-89
1.41789e-83
8.65327e-81
1.93819e-78
4.18416e-73
2.0337e-70
3.94737e-68
4.34791e-66
3.27616e-64
1.86848e-62
8.03778e-61
1.72779e-59
1.49672e-57
8.43901e-56
4.02345e-54
1.10968e-52
0
0
0
0
0
2.07103e-98
2.90067e-95
1.60981e-92
1.34911e-85
9.64327e-82
3.12806e-79
1.56118e-75
9.20629e-73
1.53222e-70
2.09619e-68
2.40228e-66
7.45812e-65
7.56681e-63
4.40508e-61
1.15504e-58
1.67628e-56
8.8325e-55
2.23128e-53
0
0
0
0
0
0
1.15661e-99
4.21669e-90
1.18048e-86
9.76904e-84
3.96274e-81
9.41207e-79
7.89784e-76
3.8051e-73
8.98723e-71
1.19656e-68
9.60704e-67
5.70285e-65
2.4652e-63
1.10609e-61
7.05835e-59
6.95371e-57
2.95915e-55
0
0
0
0
0
0
0
8.76591e-95
2.44659e-90
1.83046e-87
2.04195e-84
1.02591e-81
2.6147e-79
2.06913e-76
9.43093e-74
2.12954e-71
2.7446e-69
2.34468e-67
1.60448e-65
9.79926e-64
4.98778e-62
1.33029e-59
1.27291e-57
0
0
0
0
0
0
0
0
5.48719e-94
1.19478e-90
1.81918e-87
1.1328e-84
3.68703e-82
7.22445e-80
3.9491e-77
1.68025e-74
3.71077e-72
4.75268e-70
4.23352e-68
3.01394e-66
1.94636e-64
1.07442e-62
2.12384e-60
0
0
0
0
0
0
0
0
0
2.14423e-94
7.45663e-92
3.21006e-88
2.08671e-85
6.46724e-83
1.20221e-80
5.72927e-78
2.02267e-75
3.78513e-73
4.89644e-71
5.25026e-69
3.68725e-67
2.88704e-65
2.06407e-63
0
0
0
0
0
0
0
0
0
6.92325e-98
9.8343e-95
7.5333e-92
6.37729e-89
3.1893e-86
7.40632e-84
1.20008e-81
6.62935e-79
2.59096e-76
5.32771e-74
6.70257e-72
7.59211e-70
7.96723e-68
7.36244e-66
0
0
0
0
0
0
0
0
0
5.0759e-101
5.94351e-98
3.0935e-95
1.30328e-92
6.67859e-90
3.23069e-87
9.87499e-85
1.85379e-82
8.05975e-80
3.28437e-77
7.54369e-75
5.47085e-73
9.90975e-71
1.5541e-68
0
0
0
0
0
0
0
0
0
0
1.15601e-101
1.18602e-98
5.51931e-96
1.94678e-93
7.23211e-91
3.25248e-88
1.04319e-85
2.09399e-83
9.16755e-81
1.57077e-77
1.62692e-73
8.17453e-71
2.91921e-68
0
0
0
0
0
0
0
0
0
0
0
1.57607e-102
1.54493e-99
7.05933e-97
2.40493e-94
7.83869e-92
2.06029e-89
2.09355e-87
1.58186e-84
1.05791e-81
6.52704e-78
9.16411e-74
5.1143e-71
0
0
0
0
0
0
0
0
0
0
0
0
1.54513e-103
1.12309e-100
5.76194e-98
2.42147e-95
8.47116e-93
3.58065e-90
1.26377e-87
2.9669e-85
5.21086e-81
1.68479e-77
4.09668e-74
0
0
0
0
0
0
0
0
0
0
0
0
0
1.2299e-104
1.59304e-101
8.68071e-99
2.45511e-96
8.27368e-94
3.94743e-91
1.53721e-88
7.45562e-85
7.4049e-81
1.22896e-77
0
0
0
0
0
0
0
0
0
0
0
0
0
0
2.94862e-108
1.29056e-105
3.33728e-100
2.72597e-97
1.20546e-94
5.29665e-92
4.73286e-88
2.222e-86
4.85403e-81
0
0
0
0
0
0
0
0
0
0
0
0
0
0
0
5.28538e-107
1.8825e-104
5.07596e-101
3.71393e-98
1.6865e-95
1.45334e-91
6.77917e-88
1.43659e-84
0
0
0
0
0
0
0
0
0
0
0
0
0
0
0
0
3.01396e-108
9.06067e-105
8.18916e-102
8.88521e-98
3.93708e-95
1.23066e-91
4.57788e-88
0
0
0
0
0
0
0
0
0
0
0
0
0
0
0
0
0
5.62737e-110
6.75273e-106
7.74222e-103
3.42192e-98
6.42328e-95
9.47429e-92
0
0
0
0
0
0
0
0
0
0
0
0
0
0
0
0
0
0
3.52535e-114
5.58289e-107
1.79991e-104
6.82925e-102
3.89442e-95
0
0
0
0
0
0
0
0
0
0
0
0
0
0
0
0
0
0
0
1.90422e-112
4.64791e-108
9.50874e-104
5.52949e-99
1.63304e-09
1.26293e-09
1.13384e-09
7.47113e-10
1.32385e-09
1.15289e-09
7.8425e-10
6.50821e-10
6.67241e-10
4.68731e-10
3.53252e-10
2.62487e-10
2.50892e-10
1.80499e-10
1.30641e-10
9.25526e-11
9.06708e-12
3.88512e-12
2.51918e-12
1.43194e-12
7.69278e-76
4.74878e-75
2.64621e-71
-7.52664e-64
1.49555e-71
1.30118e-73
2.36452e-65
3.67149e-63
5.32654e-70
5.07786e-70
1.12683e-63
6.77982e-61
4.27369e-68
1.14897e-68
1.36161e-62
8.21499e-58
8.03395e-64
3.34992e-65
2.31611e-61
9.33484e-57
6.82361e-62
2.22679e-63
2.26134e-60
9.73126e-52
6.30382e-61
3.86688e-61
6.77221e-58
8.07339e-50
1.77814e-56
2.51676e-53
1.5138e-55
1.59036e-46
7.99934e-53
5.4095e-51
1.2226e-49
9.30491e-45
7.10439e-51
3.26004e-50
3.05855e-48
5.16744e-44
7.28966e-50
3.01164e-47
3.4871e-45
5.17887e-41
3.23051e-48
3.7409e-45
7.30998e-43
-2.87078e-42
2.71635e-47
6.40617e-44
1.46204e-41
8.16356e-41
2.40226e-46
1.96651e-43
1.68253e-42
2.11214e-41
4.94553e-47
6.46517e-45
9.83933e-43
1.13606e-41
1.28377e-47
1.33439e-44
1.02958e-43
3.61306e-42
4.75999e-47
2.65362e-46
1.91643e-44
2.98154e-43
1.87778e-49
4.40055e-47
2.65149e-46
1.76865e-44
4.39182e-49
5.02843e-48
4.96288e-47
6.6467e-46
4.41051e-51
8.61405e-50
1.25094e-48
1.88743e-47
3.13496e-52
1.47713e-51
1.48058e-50
3.06259e-49
6.8963e-54
5.06299e-53
2.95671e-52
3.41543e-51
5.6316e-56
7.00891e-55
5.88841e-54
4.15952e-53
2.05864e-58
4.75863e-57
6.63569e-56
5.5002e-55
3.40988e-61
1.62103e-59
4.12407e-58
3.93397e-55
5.07711e-64
2.94687e-62
3.92642e-59
2.32123e-57
1.65296e-66
5.23688e-63
3.37486e-61
1.7684e-59
6.7298e-66
5.12432e-64
3.1578e-62
1.72523e-60
2.05411e-68
2.54975e-66
2.16918e-64
1.37495e-62
2.40279e-71
5.18437e-69
7.08676e-67
6.07304e-65
1.77343e-74
5.27938e-72
1.22593e-69
1.65026e-67
6.83447e-78
3.93521e-75
1.18493e-72
2.65805e-70
2.83601e-81
1.81588e-78
9.24859e-76
2.56934e-73
8.94748e-85
8.12187e-82
5.03189e-79
2.18667e-76
2.88921e-88
2.94565e-85
2.54389e-82
1.4399e-79
6.82074e-92
1.12122e-88
1.14071e-85
8.8252e-83
3.52406e-95
3.88209e-92
5.88238e-89
5.34379e-86
4.19718e-10
2.02904e-10
1.00697e-10
2.52002e-11
5.12164e-12
5.08398e-13
2.13942e-14
1.4192e-15
1.69802e-17
1.34808e-20
5.35885e-22
8.14639e-23
3.34674e-23
7.28086e-24
8.60773e-25
5.60383e-26
1.91038e-27
2.43286e-29
2.44188e-32
3.31808e-10
1.68381e-10
7.06623e-11
8.00866e-12
1.96946e-12
1.86952e-13
3.16855e-14
8.74026e-16
5.90456e-18
1.00042e-19
5.44952e-22
2.02753e-22
4.50319e-23
5.15026e-24
4.48102e-25
1.95249e-26
4.10166e-28
1.52289e-30
1.75349e-32
1.26645e-10
6.5614e-11
1.83893e-11
2.2358e-12
7.71468e-14
1.66754e-14
1.19517e-15
2.04996e-17
8.99634e-21
3.21037e-22
2.94316e-22
1.06306e-22
1.93151e-23
1.85151e-24
1.01675e-25
2.66396e-27
2.09218e-29
4.39048e-31
2.02393e-34
4.68582e-11
2.00639e-11
8.78504e-12
1.29082e-12
2.25257e-13
9.46648e-15
1.43851e-16
4.60721e-19
2.21302e-22
1.3532e-22
1.07951e-22
3.37403e-23
4.86326e-24
3.86607e-25
1.26863e-26
3.56113e-28
3.65112e-30
8.90855e-33
8.94665e-35
4.1697e-13
1.28724e-13
1.86937e-14
3.59375e-15
1.04231e-16
8.32424e-19
1.00215e-21
2.73706e-24
3.48939e-23
4.54626e-23
2.89833e-23
6.62709e-24
7.20477e-25
4.21669e-26
1.10511e-27
1.53305e-29
5.48029e-32
1.75255e-33
1.3865e-35
2.6139e-62
1.43501e-44
2.21372e-39
1.28045e-35
8.17337e-44
1.26012e-34
5.41573e-27
4.47509e-25
7.46284e-24
1.17975e-23
5.67012e-24
8.53713e-25
6.57833e-26
2.73449e-27
4.83418e-29
1.10422e-30
1.48699e-32
3.10777e-34
4.54792e-36
8.43121e-64
6.91726e-44
2.33376e-38
3.81084e-34
3.77287e-30
5.11825e-28
6.58621e-27
1.97311e-25
2.09335e-24
2.31838e-24
8.13981e-25
9.04878e-26
4.9355e-27
1.45636e-28
3.98385e-30
1.03135e-31
2.79389e-33
7.71015e-35
9.30931e-37
5.1975e-62
3.25907e-46
1.74419e-38
2.4131e-34
4.98155e-30
5.48495e-28
7.18489e-27
8.50307e-26
4.58819e-25
3.43146e-25
8.57805e-26
8.17621e-27
3.58795e-28
1.03869e-29
4.13454e-31
2.01696e-32
6.98013e-34
1.53376e-35
1.56592e-37
3.49408e-60
1.03499e-46
1.80091e-38
5.20726e-34
6.24246e-30
6.54048e-28
6.42414e-27
3.06116e-26
7.59842e-26
3.92593e-26
6.9665e-27
5.21908e-28
2.48476e-29
1.34862e-30
8.21611e-32
3.87621e-33
1.25005e-34
2.5229e-36
2.06577e-38
4.27798e-57
5.27501e-47
3.05175e-38
1.18183e-33
8.79367e-30
6.7219e-28
4.64022e-27
1.02364e-26
1.15247e-26
4.14151e-27
5.69131e-28
4.99369e-29
3.96251e-30
2.88596e-31
1.65029e-32
7.03953e-34
2.04778e-35
3.42791e-37
2.29783e-39
1.39383e-54
6.94499e-47
5.11218e-38
1.91849e-33
1.11116e-29
5.86722e-28
2.71956e-27
3.51911e-27
2.19304e-27
6.16585e-28
8.82949e-29
9.92838e-30
8.66058e-31
6.11946e-32
2.89315e-33
1.12295e-34
2.78917e-36
3.98937e-38
2.25244e-40
1.33681e-51
3.49801e-44
5.97984e-38
2.60878e-33
1.41892e-29
4.41565e-28
1.30604e-27
1.24912e-27
5.74847e-28
1.4346e-28
2.12649e-29
2.40527e-30
1.88126e-31
6.68995e-33
4.42778e-34
1.53569e-35
3.27618e-37
4.00762e-39
1.97131e-41
7.37224e-48
2.78552e-42
7.58902e-38
4.43623e-32
2.07264e-29
2.43644e-28
5.07393e-28
4.04021e-28
1.58194e-28
3.51563e-29
4.83e-30
3.16351e-31
2.11819e-32
1.59484e-33
6.05563e-35
1.8054e-36
3.3107e-38
3.46639e-40
1.49512e-42
2.1497e-44
2.67915e-40
5.51064e-35
2.35054e-31
1.52141e-29
1.02226e-28
1.71113e-28
1.14783e-28
3.87374e-29
7.50313e-30
9.70829e-31
7.60509e-32
4.70384e-33
2.17586e-34
7.24845e-36
1.81295e-37
2.96789e-39
2.55251e-41
9.50612e-44
1.62962e-40
1.42541e-38
5.41241e-34
2.72071e-31
7.85229e-30
3.3615e-29
4.7453e-29
2.71158e-29
8.31512e-30
1.39306e-30
8.58539e-32
1.04503e-32
5.70877e-34
2.50336e-35
7.30638e-37
1.54158e-38
8.51873e-41
1.58911e-42
5.03761e-45
3.29271e-38
2.46947e-37
9.1306e-34
1.78358e-31
3.2981e-30
1.03797e-29
1.23068e-29
5.95401e-30
9.31991e-31
1.27036e-31
1.82411e-32
1.18685e-33
6.01634e-35
2.41239e-36
6.12722e-38
1.10666e-39
1.25686e-41
8.31395e-44
2.22792e-46
3.07424e-37
2.59688e-35
7.77829e-34
7.7447e-32
9.04578e-31
2.14786e-30
2.06562e-30
7.96749e-31
2.34674e-31
2.90042e-32
2.2911e-33
1.28958e-34
5.84852e-36
1.95988e-37
4.3108e-39
6.70581e-41
6.36894e-43
3.62954e-45
8.13847e-48
5.00621e-38
1.31482e-36
4.40057e-34
2.5322e-32
2.51677e-31
5.64659e-31
5.1121e-31
1.82939e-31
3.49905e-32
3.95409e-33
2.78071e-34
1.35976e-35
5.05245e-37
1.34505e-38
2.55448e-40
3.42247e-42
2.67226e-44
1.31163e-46
2.41586e-49
2.24828e-40
5.99218e-37
1.68814e-34
7.00541e-33
5.10946e-32
1.02161e-31
8.09736e-32
2.46846e-32
4.25484e-33
3.33068e-34
2.11443e-35
9.12985e-37
2.8341e-38
7.8306e-40
1.2667e-41
1.44615e-43
9.28075e-46
3.8836e-48
5.71285e-51
9.23784e-41
2.1404e-37
3.85316e-35
1.24186e-33
8.7014e-33
1.5881e-32
1.09741e-32
2.78223e-33
3.24876e-34
2.44472e-35
1.28766e-36
4.50636e-38
1.11298e-39
3.12382e-41
5.21082e-43
5.05543e-45
2.67015e-47
9.28723e-50
1.08216e-52
2.77966e-41
5.3654e-38
9.54535e-36
1.94838e-34
9.40013e-34
1.60581e-33
9.72005e-34
2.04793e-34
2.26529e-35
2.48291e-36
1.20045e-37
3.9097e-39
9.00494e-41
7.1387e-43
1.76254e-44
1.43772e-46
6.28711e-49
1.76498e-51
2.21346e-55
2.58794e-41
9.6779e-39
1.41642e-36
2.70834e-35
1.09663e-34
1.69991e-34
8.70632e-35
1.38901e-35
2.16348e-36
1.46471e-37
6.21887e-39
1.7548e-40
3.46778e-42
4.88327e-44
4.85938e-46
3.31224e-48
1.17719e-50
2.65067e-53
2.04585e-56
2.42243e-43
1.03432e-39
1.67622e-37
2.8423e-36
1.12228e-35
1.74179e-35
8.62515e-36
1.23449e-36
1.18955e-37
7.11361e-39
2.65247e-40
6.4622e-42
1.09084e-43
1.2987e-45
1.08294e-47
6.14581e-50
1.72892e-52
3.19455e-55
2.17292e-58
1.09575e-44
6.78928e-41
1.41075e-38
2.40823e-37
8.25733e-37
1.18008e-36
5.50397e-37
6.52564e-38
5.36886e-39
2.82026e-40
9.21711e-42
1.92943e-43
2.77109e-45
2.77854e-47
1.93659e-49
9.15394e-52
2.04602e-54
3.12783e-57
1.6975e-60
3.11727e-46
2.88603e-42
8.23429e-40
1.59133e-38
5.03871e-38
6.40829e-38
2.85886e-38
2.86662e-39
1.98853e-40
9.05907e-42
2.57986e-43
4.60638e-45
5.61506e-47
4.7395e-49
2.76618e-51
1.09131e-53
1.92522e-56
2.30418e-59
9.289e-63
5.94296e-48
8.56181e-44
3.37827e-41
7.96644e-40
2.549e-39
2.87483e-39
1.18526e-39
1.04828e-40
6.07152e-42
2.34654e-43
5.74935e-45
8.65597e-47
8.96824e-49
6.40875e-51
3.1448e-53
1.02234e-55
1.30599e-58
1.16308e-61
3.32264e-65
7.38317e-50
1.79639e-45
1.01952e-42
3.00634e-41
1.05167e-40
1.09528e-40
3.83879e-41
3.18605e-42
1.54152e-43
4.90629e-45
1.01013e-46
1.25935e-48
1.11974e-50
6.84882e-53
2.79401e-55
7.01421e-58
6.01064e-61
3.94146e-64
1.04015e-67
6.3408e-52
2.66135e-47
2.29984e-44
8.77379e-43
3.45824e-42
3.47448e-42
9.69872e-43
7.9822e-44
3.28026e-45
8.3621e-47
1.39414e-48
1.40065e-50
1.09105e-52
5.70233e-55
1.80834e-57
3.01073e-60
1.74587e-63
1.33887e-66
4.156e-70
3.19117e-51
2.76507e-49
3.88438e-46
1.99428e-44
9.02813e-44
8.70327e-44
2.01277e-44
1.62209e-45
5.83622e-47
1.18189e-48
1.52704e-50
1.1922e-52
8.2779e-55
3.47842e-57
7.24375e-60
6.55276e-63
5.89109e-66
5.88855e-69
2.20893e-72
2.20828e-53
2.0961e-51
4.91964e-48
3.53542e-46
1.87891e-45
1.66939e-45
3.71366e-46
2.61407e-47
8.50425e-49
1.39926e-50
1.36341e-52
7.96956e-55
4.71654e-57
1.33621e-59
1.39983e-62
1.64745e-65
3.02246e-68
3.39548e-71
1.35573e-74
1.40374e-55
1.17848e-53
4.69567e-50
4.88604e-48
3.12196e-47
2.47726e-47
5.91406e-48
3.25454e-49
9.76504e-51
1.35645e-52
1.00819e-54
4.29405e-57
1.78806e-59
2.57173e-62
3.16743e-65
8.64013e-68
1.95134e-70
2.08441e-73
7.27869e-77
6.80521e-58
2.59426e-54
3.38118e-52
5.25764e-50
4.1287e-49
2.90628e-49
7.06814e-50
3.04622e-51
8.4063e-53
1.00501e-54
5.83447e-57
1.7391e-59
3.69074e-62
5.58225e-65
1.8047e-67
5.7839e-70
1.18277e-72
1.09351e-75
3.09157e-79
1.84117e-59
1.35577e-56
1.89803e-54
4.39378e-52
4.32325e-51
2.70834e-51
5.93315e-52
2.08915e-53
5.12906e-55
5.1118e-57
2.25134e-59
4.19909e-62
7.05087e-65
3.09228e-67
1.22268e-69
3.41579e-72
5.63234e-75
4.51915e-78
7.86846e-82
7.42366e-61
8.70736e-59
8.51097e-57
2.84039e-54
3.55508e-53
2.00682e-53
3.75883e-54
1.03002e-55
2.08446e-57
1.54586e-59
4.55803e-62
5.54419e-65
3.82286e-67
1.95648e-69
7.08189e-72
1.58271e-74
2.04227e-77
1.15672e-80
1.02501e-84
1.80714e-63
4.13365e-61
3.28902e-59
1.41404e-56
2.26936e-55
1.17128e-55
1.7407e-56
3.63205e-58
5.26033e-60
2.34508e-62
6.14386e-65
2.84785e-67
2.3309e-69
1.11923e-71
3.23138e-74
5.57794e-77
5.12146e-80
1.53346e-83
0
7.26681e-66
1.68287e-63
1.19671e-61
5.41263e-59
1.10106e-57
5.2572e-58
5.58791e-59
9.10118e-61
7.60198e-63
2.99114e-65
3.28711e-67
2.56496e-69
1.27831e-71
5.09913e-74
1.11789e-76
1.364e-79
6.78285e-83
0
0
3.45631e-68
5.64416e-66
4.23765e-64
1.60884e-61
3.96313e-60
1.68755e-60
1.07461e-61
1.47197e-63
8.38539e-66
1.62339e-67
1.86753e-69
1.32536e-71
5.67058e-74
1.75217e-76
2.64613e-79
1.7804e-82
0
0
0
3.22305e-71
1.42361e-68
1.36315e-66
3.85316e-64
1.01699e-62
3.41521e-63
9.76175e-66
1.55687e-66
4.40266e-68
8.94306e-70
9.03749e-72
5.42483e-74
1.91914e-76
3.99281e-79
3.27531e-82
0
0
0
0
5.68111e-74
2.39812e-71
3.53176e-69
8.01933e-67
1.78049e-65
3.61533e-66
1.27799e-67
6.12083e-69
2.34727e-70
4.12171e-72
3.50455e-74
1.67756e-76
4.30524e-79
4.49664e-82
0
0
0
0
0
5.55173e-77
2.69317e-74
6.38266e-72
1.59823e-69
2.32451e-68
4.85552e-69
5.67707e-70
3.14144e-71
1.06701e-72
1.5357e-74
1.03438e-76
3.50039e-79
4.69205e-82
0
0
0
0
0
0
4.61508e-80
3.11412e-77
7.9054e-75
3.40215e-72
5.13014e-71
2.77759e-71
3.12852e-72
1.72949e-73
3.99638e-75
4.3619e-77
2.07077e-79
3.68083e-82
0
0
0
0
0
0
0
3.65028e-83
3.77529e-80
1.83652e-77
8.45356e-75
2.35389e-73
8.97763e-74
1.06535e-74
5.41865e-76
1.1236e-77
8.36445e-80
2.09417e-82
0
0
0
0
0
0
0
0
)
;

boundaryField
{
    leftWall
    {
        type            alphaContactAngle;
        contactAngleProperties 
        {
            air             
            {
                theta0          90;
            }
            water           
            {
                theta0          90;
            }
            oil             
            {
                theta0          90;
            }
        }
        value           nonuniform List<scalar> 
50
(
1
1
1
1
1
1
1
1
1
0.990573
0.410105
0
0
0
0
0
0
0
0
0
0
0
0
0
0
0
0
0
0
0
0
0
0
0
0
0
0
0
0
0
0
0
0
0
0
0
0
0
0
0
)
;
    }
    rightWall
    {
        type            alphaContactAngle;
        contactAngleProperties 
        {
            air             
            {
                theta0          90;
            }
            water           
            {
                theta0          90;
            }
            oil             
            {
                theta0          90;
            }
        }
        value           nonuniform List<scalar> 
50
(
3.94318e-35
4.52951e-35
1.17992e-32
2.04249e-32
2.91306e-31
3.07581e-31
1.47377e-31
3.69538e-32
2.44188e-32
1.75349e-32
2.02393e-34
8.94665e-35
1.3865e-35
4.54792e-36
9.30931e-37
1.56592e-37
2.06577e-38
2.29783e-39
2.25244e-40
1.97131e-41
1.49512e-42
9.50612e-44
5.03761e-45
2.22792e-46
8.13847e-48
2.41586e-49
5.71285e-51
1.08216e-52
2.21346e-55
2.04585e-56
2.17292e-58
1.6975e-60
9.289e-63
3.32264e-65
1.04015e-67
4.156e-70
2.20893e-72
1.35573e-74
7.27869e-77
3.09157e-79
7.86846e-82
1.02501e-84
0
0
0
0
0
0
0
0
)
;
    }
    lowerWall
    {
        type            alphaContactAngle;
        contactAngleProperties 
        {
            air             
            {
                theta0          90;
            }
            water           
            {
                theta0          90;
            }
            oil             
            {
                theta0          90;
            }
        }
        value           nonuniform List<scalar> 
62
(
1
1
1
1
1
1
1
1
1
1
1
1
1
1
1
1
1
1
1
1
1
0.863031
0.0957758
0.0957758
0.00819046
2.00463e-09
1.54359e-09
1.82451e-09
1.34573e-09
1.15074e-09
1.11663e-09
1.63304e-09
1.26293e-09
1.13384e-09
7.47113e-10
1.46248e-23
9.81667e-23
1.67522e-19
1.33962e-19
3.33622e-19
1.58092e-18
3.06241e-18
1.03333e-10
1.46248e-23
5.92386e-23
1.47271e-22
2.29072e-22
2.63494e-22
3.36529e-22
1.85337e-21
2.55055e-22
1.33735e-22
7.83485e-23
2.92587e-23
4.05992e-24
7.47905e-25
5.56534e-26
2.98164e-27
2.96114e-29
1.09842e-30
8.56203e-33
3.94318e-35
)
;
    }
    atmosphere
    {
        type            inletOutlet;
        inletValue      uniform 0;
        value           nonuniform List<scalar> 
46
(
0
0
0
0
0
0
0
0
0
0
0
0
0
0
0
0
0
0
0
0
0
0
0
3.52406e-95
3.88209e-92
5.88238e-89
5.34379e-86
3.65028e-83
3.77529e-80
1.83652e-77
8.45356e-75
2.35389e-73
8.97763e-74
1.06535e-74
5.41865e-76
1.1236e-77
8.36445e-80
2.09417e-82
0
0
0
0
0
0
0
0
)
;
    }
    defaultFaces
    {
        type            empty;
    }
}


// ************************************************************************* //
