/*--------------------------------*- C++ -*----------------------------------*\
  =========                 |
  \\      /  F ield         | OpenFOAM: The Open Source CFD Toolbox
   \\    /   O peration     | Website:  https://openfoam.org
    \\  /    A nd           | Version:  13
     \\/     M anipulation  |
\*---------------------------------------------------------------------------*/
FoamFile
{
    format      ascii;
    class       volScalarField;
    location    "0.15";
    object      epsilon;
}
// * * * * * * * * * * * * * * * * * * * * * * * * * * * * * * * * * * * * * //

dimensions      [0 2 -3 0 0 0 0];

internalField   nonuniform List<scalar> 
2268
(
0.103952
0.243525
0.361118
0.450997
0.526014
0.598169
0.678769
0.778347
0.905547
1.06489
1.25358
1.45806
1.6501
1.78285
1.81137
1.73356
1.58548
1.40688
1.22651
1.05842
0.905903
0.741509
0.440551
0.144188
0.176256
0.206072
0.228106
0.246698
0.265657
0.288425
0.318182
0.357478
0.407427
0.466668
0.530449
0.589649
0.630298
0.640498
0.622116
0.587121
0.546193
0.509209
0.493489
0.544367
0.775021
0.383974
0.18881
0.176867
0.183042
0.188755
0.195055
0.203509
0.215656
0.232961
0.256566
0.28678
0.322479
0.360658
0.395866
0.419366
0.423665
0.41157
0.393309
0.378173
0.380025
0.433008
0.627113
0.864225
0.434378
0.217281
0.181864
0.175521
0.173147
0.173762
0.177672
0.185411
0.19756
0.214503
0.236066
0.261112
0.2874
0.311258
0.32651
0.327894
0.318504
0.307525
0.305626
0.335057
0.460007
0.693471
0.732951
0.45157
0.236767
0.186379
0.172102
0.164646
0.161734
0.162845
0.167855
0.176757
0.189434
0.205373
0.223417
0.241821
0.258155
0.268152
0.268341
0.261626
0.255925
0.263758
0.316863
0.456198
0.604497
0.63925
0.49679
0.250725
0.189942
0.170271
0.159294
0.153873
0.152925
0.155859
0.162251
0.171632
0.183269
0.19602
0.208522
0.219264
0.225616
0.225784
0.222425
0.221249
0.236705
0.295365
0.402543
0.548812
0.638424
0.599632
0.261073
0.192759
0.169252
0.155707
0.148372
0.145769
0.146971
0.151253
0.157901
0.166055
0.174646
0.182621
0.18912
0.193003
0.194132
0.194727
0.19774
0.218173
0.272135
0.379305
0.556356
0.757508
0.81901
0.269074
0.194908
0.168654
0.15321
0.14437
0.140383
0.140084
0.142538
0.146868
0.152172
0.157522
0.16216
0.165686
0.16817
0.170915
0.175621
0.183783
0.208472
0.266001
0.384954
0.615134
1.02973
1.39846
8.36342
22.9259
44.4816
69.9605
78.9613
51.9097
28.7794
19.6515
16.6571
11.9456
7.98319
4.7786
2.55331
1.3222
0.763368
0.523613
0.394655
0.280092
0.150001
5.15445
18.735
42.112
95.428
109.364
36.2964
14.7495
7.47796
7.91524
6.55547
4.42104
3.12708
2.00044
1.14826
0.659835
0.430415
0.321212
0.242989
0.15918
5.10929
12.3874
27.3627
47.5017
28.7368
13.4416
6.48493
3.66528
3.32609
4.30992
3.05826
2.35045
1.71421
1.09166
0.662877
0.433413
0.319327
0.24888
0.232519
4.62208
9.34658
18.144
16.0721
9.46531
5.18432
2.99915
2.04864
1.91322
2.53683
2.19087
1.81988
1.48149
1.02911
0.660197
0.438479
0.321988
0.25733
0.29276
3.82975
10.9148
8.33645
5.63604
3.53278
2.26049
1.61218
1.36737
1.43822
1.91214
1.69079
1.4629
1.28129
0.95243
0.641106
0.434987
0.321526
0.263886
0.343697
3.09492
4.81976
3.25788
2.24958
1.60594
1.24155
1.08572
1.10418
1.29981
1.73575
1.48081
1.25213
1.11554
0.868125
0.608103
0.422624
0.316923
0.267813
0.387115
2.3719
1.96153
1.57548
1.26564
1.04054
0.915404
0.906318
1.03275
1.31792
1.80982
1.46345
1.1344
0.981709
0.783366
0.566191
0.403452
0.308677
0.269224
0.42401
2.3453
1.75488
1.36969
1.09075
0.905154
0.822791
0.86365
1.05457
1.42461
1.9594
1.53607
1.06953
0.874604
0.701976
0.519348
0.379535
0.297628
0.268818
0.455289
0.276193
0.196897
0.168145
0.15074
0.140181
0.134502
0.132333
0.132554
0.134183
0.136393
0.138511
0.140143
0.141301
0.143179
0.148508
0.158657
0.175066
0.207524
0.274372
0.414345
0.717969
1.35778
2.01594
0.282475
0.198357
0.168025
0.149352
0.137512
0.13039
0.126527
0.124778
0.124214
0.124231
0.124392
0.124562
0.124463
0.126345
0.135272
0.152274
0.177189
0.219334
0.294866
0.438047
0.717377
1.24304
2.01058
0.288382
0.200774
0.170037
0.150909
0.138459
0.130511
0.125644
0.122821
0.121021
0.119077
0.116723
0.114584
0.113442
0.116005
0.126685
0.146485
0.175784
0.222427
0.300878
0.435923
0.668256
1.0425
1.4701
0.299445
0.203075
0.173488
0.154358
0.141361
0.132367
0.126076
0.121543
0.117914
0.114152
0.11006
0.106475
0.104893
0.107759
0.118207
0.137471
0.166911
0.213627
0.289082
0.408049
0.586477
0.826064
1.05708
0.3083
0.201473
0.171902
0.153162
0.1401
0.130688
0.12368
0.118165
0.113507
0.109205
0.104971
0.101241
0.0993804
0.101778
0.111049
0.128219
0.15541
0.198827
0.266005
0.363911
0.494677
0.645737
0.775068
0.31141
0.200179
0.168389
0.149146
0.136016
0.126757
0.120012
0.114752
0.110186
0.105769
0.101348
0.097396
0.0952523
0.0970951
0.104967
0.119771
0.144162
0.182949
0.240357
0.318478
0.414344
0.516112
0.600594
0.314269
0.199655
0.165562
0.145437
0.131959
0.122617
0.11594
0.110835
0.106447
0.102192
0.0979065
0.0940526
0.0919047
0.0933832
0.100011
0.112825
0.134637
0.168729
0.217202
0.28006
0.353544
0.428729
0.491391
0.318343
0.198159
0.161921
0.140932
0.127158
0.117816
0.111307
0.106477
0.10243
0.0985481
0.0946335
0.091117
0.0892026
0.0905595
0.0963047
0.10772
0.127362
0.157249
0.198361
0.250167
0.309669
0.370722
0.424064
0.32289
0.196191
0.158077
0.136352
0.122337
0.113022
0.106703
0.102176
0.0985179
0.0950868
0.0916567
0.0886254
0.0871324
0.0886067
0.0938823
0.104443
0.122314
0.148683
0.184125
0.228391
0.279804
0.33469
0.386969
0.327293
0.194234
0.154531
0.132191
0.117965
0.10866
0.102493
0.0982301
0.0949398
0.0919719
0.0890841
0.0866485
0.0857421
0.0875453
0.0927334
0.10284
0.119307
0.142926
0.17434
0.213997
0.261727
0.316109
0.37359
0.331253
0.192661
0.151641
0.12875
0.114303
0.10496
0.0988806
0.094816
0.0918445
0.089329
0.0870274
0.0852947
0.0851414
0.0874788
0.0929208
0.102892
0.118398
0.14017
0.169211
0.206837
0.254381
0.312571
0.380247
0.33471
0.191908
0.149722
0.126247
0.111522
0.102074
0.0960082
0.0920699
0.089363
0.087287
0.0856212
0.0847109
0.0854982
0.0886372
0.0947185
0.104965
0.120185
0.141295
0.16981
0.20792
0.258334
0.323729
0.40545
0.33797
0.192616
0.149072
0.124813
0.109701
0.100079
0.0939698
0.0901035
0.0876209
0.0859862
0.0850225
0.0850669
0.0870036
0.0913409
0.0986044
0.109795
0.125766
0.147784
0.177933
0.219247
0.275619
0.351441
0.450675
0.342156
0.196062
0.150052
0.124516
0.108855
0.0990214
0.0928659
0.089077
0.0868328
0.0856796
0.0855057
0.0866221
0.0898756
0.0958909
0.105079
0.118216
0.136394
0.161365
0.195934
0.243967
0.310186
0.400333
0.520345
0.350605
0.20538
0.153517
0.125648
0.109179
0.0991131
0.0929561
0.0892886
0.0873121
0.0866746
0.0873516
0.0896321
0.0944788
0.1029
0.115121
0.131709
0.154095
0.184711
0.227425
0.286669
0.36695
0.475701
0.620132
0.37162
0.225729
0.160076
0.128143
0.110592
0.100343
0.0942912
0.0908344
0.0891872
0.0891015
0.090717
0.0942232
0.101103
0.113132
0.130022
0.151988
0.180862
0.220337
0.276702
0.351207
0.445739
0.570261
0.728202
0.41746
0.260267
0.168529
0.131013
0.112491
0.102261
0.0964258
0.0932982
0.0920286
0.0924147
0.0949905
0.100108
0.109295
0.125783
0.149411
0.178337
0.214237
0.261619
0.325424
0.405853
0.508993
0.6421
0.806006
0.454954
0.233728
0.16944
0.129787
0.111293
0.101783
0.0967567
0.0942846
0.0936053
0.0947452
0.0984312
0.105608
0.116967
0.133965
0.157657
0.188427
0.228078
0.279299
0.347006
0.436055
0.544186
0.66926
0.795229
0.481201
0.222662
0.157173
0.125829
0.109527
0.100871
0.0962702
0.0941215
0.0937936
0.095371
0.0994883
0.10683
0.118145
0.134701
0.157842
0.18903
0.230054
0.283228
0.350685
0.432935
0.527937
0.627331
0.712879
0.478891
0.207727
0.147403
0.120663
0.10644
0.0986636
0.0945706
0.092803
0.0928484
0.0947858
0.0990981
0.106405
0.117379
0.133128
0.15507
0.184861
0.224149
0.27411
0.335306
0.40644
0.48271
0.554364
0.605815
0.467044
0.197908
0.141618
0.117121
0.104004
0.0967418
0.0929373
0.0914061
0.0916521
0.0936857
0.0978852
0.104822
0.115195
0.129964
0.150421
0.177998
0.213854
0.258421
0.310982
0.368876
0.426596
0.475343
0.504402
0.458557
0.193462
0.13887
0.115095
0.102367
0.0953104
0.0916372
0.0902102
0.0905224
0.0925128
0.0964578
0.102862
0.1124
0.125959
0.144624
0.169478
0.201205
0.239628
0.283328
0.329189
0.372097
0.405298
0.422062
0.453169
0.191634
0.137762
0.11413
0.101441
0.0943958
0.0907371
0.0893286
0.089628
0.0915026
0.0951367
0.100955
0.109572
0.121766
0.138419
0.160307
0.187755
0.220244
0.256109
0.292384
0.32488
0.348766
0.359886
0.447882
0.190614
0.13734
0.113745
0.100991
0.0938746
0.0901634
0.088713
0.0889448
0.0906609
0.0939602
0.0991792
0.106841
0.117605
0.13217
0.151081
0.174443
0.201617
0.231023
0.26013
0.285683
0.304246
0.313091
0.441677
0.189713
0.13713
0.113611
0.100793
0.0935896
0.0897988
0.0882721
0.0884001
0.0899287
0.0928789
0.0974957
0.1042
0.113527
0.126022
0.142072
0.161675
0.184218
0.208352
0.232043
0.2528
0.268107
0.276008
0.434714
0.18877
0.136943
0.113545
0.10069
0.093408
0.0895304
0.0879087
0.087909
0.08923
0.0918227
0.0958437
0.101609
0.109535
0.120039
0.1334
0.149582
0.168068
0.18778
0.207133
0.22423
0.237168
0.244439
0.427427
0.187785
0.136722
0.113463
0.100592
0.0932421
0.0892781
0.0875519
0.0874105
0.0885125
0.0907483
0.0941934
0.0990654
0.105669
0.114314
0.125204
0.138299
0.153199
0.169081
0.184742
0.198744
0.209628
0.216197
0.420126
0.186795
0.136463
0.113338
0.100457
0.0930476
0.0889995
0.087166
0.0868778
0.0877603
0.0896527
0.09256
0.0966124
0.102017
0.108991
0.117679
0.128048
0.139802
0.152338
0.164768
0.176015
0.18497
0.190688
0.413006
0.185832
0.136183
0.113173
0.100279
0.0928127
0.0886837
0.0867447
0.0863127
0.0869862
0.088562
0.0909874
0.0943196
0.0986841
0.104222
0.111026
0.11907
0.128142
0.137813
0.147443
0.156249
0.163406
0.168184
0.40617
0.184922
0.135902
0.112984
0.100069
0.0925464
0.0883401
0.0863016
0.0857356
0.0862188
0.0875149
0.0895256
0.0922513
0.095753
0.100111
0.105376
0.111523
0.1184
0.12571
0.133004
0.139729
0.145287
0.149135
0.399706
0.184092
0.135645
0.112793
0.0998489
0.092269
0.0879907
0.0858616
0.085176
0.0854928
0.0865505
0.0882168
0.0904498
0.093263
0.0966905
0.100752
0.105419
0.110581
0.116033
0.121468
0.126505
0.130727
0.133738
0.393731
0.183385
0.135438
0.112625
0.0996414
0.0920068
0.0876646
0.0854573
0.0846691
0.0848452
0.0857052
0.0870927
0.0889361
0.0912155
0.0939332
0.097086
0.100641
0.104517
0.108569
0.112592
0.116329
0.119495
0.121809
0.388503
0.182884
0.135321
0.112504
0.0994731
0.0917901
0.087397
0.0851277
0.0842563
0.084317
0.0850162
0.0861811
0.0877205
0.0895929
0.0917792
0.0942612
0.0970035
0.0999415
0.102974
0.105961
0.108735
0.111103
0.112872
0.384621
0.182776
0.135361
0.112463
0.099372
0.0916533
0.0872303
0.0849209
0.0839882
0.0839578
0.0845277
0.0855153
0.0868176
0.0883797
0.0901698
0.0921601
0.0943136
0.0965767
0.0988753
0.101116
0.103188
0.104968
0.106321
0.383468
0.183454
0.135675
0.112541
0.0993667
0.0916353
0.0872155
0.0848966
0.0839285
0.0838307
0.0842977
0.0851427
0.0862573
0.0875797
0.0890706
0.0906968
0.0924201
0.0941933
0.0959593
0.0976541
0.0992087
0.100547
0.101579
0.388079
0.185701
0.136459
0.11278
0.099482
0.0917778
0.0874134
0.0851286
0.0841571
0.0840162
0.0844024
0.0851308
0.0860928
0.0872243
0.0884831
0.0898329
0.0912342
0.0926423
0.0940084
0.0952862
0.0964351
0.0974167
0.0981772
0.404708
0.190886
0.137964
0.113198
0.0997261
0.0921214
0.0878939
0.0857047
0.0847703
0.0846122
0.0849367
0.0855672
0.0864001
0.0873734
0.088445
0.0895775
0.0907301
0.0918568
0.0929097
0.093848
0.0946476
0.0953014
0.0957923
0.445213
0.200944
0.140338
0.113708
0.100062
0.092697
0.088732
0.086723
0.0858756
0.0857284
0.0860077
0.086553
0.087271
0.088106
0.0890188
0.0899734
0.0909283
0.0918343
0.0926367
0.0932872
0.0937614
0.0940727
0.0942455
0.530102
0.217501
0.143112
0.113959
0.100368
0.0935199
0.0900059
0.088286
0.087583
0.0874741
0.0877208
0.088187
0.0887957
0.0895007
0.0902693
0.0910698
0.091863
0.0925973
0.0932082
0.0936261
0.0938006
0.0937383
0.0935003
0.694171
0.238873
0.144217
0.113137
0.100437
0.0946052
0.0918011
0.0904946
0.0899908
0.0899411
0.0901594
0.0905437
0.0910374
0.0916076
0.0922307
0.0928829
0.0935327
0.0941334
0.0946162
0.0948878
0.0948438
0.094423
0.0936643
1.00842
0.252367
0.138823
0.110034
0.100098
0.0960329
0.0942291
0.0934424
0.0931705
0.0931825
0.0933617
0.0936467
0.0940044
0.0944162
0.0948694
0.0953509
0.0958428
0.0963151
0.0967161
0.0969567
0.0968895
0.0963073
0.0950081
1.67837
0.213601
0.119901
0.10398
0.0996114
0.0980667
0.0974458
0.0972035
0.0971459
0.0971903
0.0972968
0.0974446
0.097623
0.0978262
0.0980507
0.0982936
0.0985513
0.0988182
0.0990838
0.0993228
0.0994611
0.0992554
0.0980419
5.09655
4.62224
4.19538
3.94727
2.57657
2.62058
2.44246
2.20473
1.60263
1.62049
1.56952
1.49198
1.13395
1.15692
1.14283
1.10112
0.823887
0.844219
0.844057
0.826291
0.636225
0.653184
0.657938
0.652099
0.520628
0.536477
0.545069
0.547893
0.452635
0.470395
0.48406
0.495259
0.41966
0.442292
0.46308
0.483828
0.414861
0.445419
0.475986
0.508499
0.43444
0.476121
0.51972
0.567205
0.47656
0.532626
0.593086
0.659719
0.54217
0.615745
0.696957
0.786282
0.63541
0.729928
0.83536
0.948624
0.760159
0.879965
1.0137
1.13951
0.884122
1.01063
1.13492
1.2199
0.936873
1.0143
1.07043
1.09205
0.870321
0.904431
0.917603
0.90348
0.748426
0.755888
0.745388
0.715226
0.616814
0.611219
0.592667
0.561865
0.50349
0.493725
0.475462
0.449951
0.41738
0.407997
0.393121
0.373845
0.355378
0.347931
0.336734
0.322606
0.310042
0.30464
0.296451
0.286108
0.274496
0.270804
0.264911
0.257283
0.24412
0.241724
0.237546
0.231919
0.216652
0.215188
0.212282
0.208176
0.191558
0.190733
0.188764
0.185819
0.1692
0.168788
0.16749
0.165421
0.150124
0.149958
0.149121
0.147689
0.134609
0.134572
0.134036
0.133049
0.122532
0.122552
0.122204
0.121513
0.113449
0.113488
0.113249
0.112748
0.106772
0.106808
0.10663
0.106248
0.101918
0.101939
0.101789
0.101478
0.0984063
0.0983966
0.0982487
0.0979686
0.0958866
0.0958199
0.0956394
0.0953498
0.0941422
0.0939704
0.0937045
0.0933506
0.0930797
0.0927181
0.092281
0.0917827
0.0927059
0.0920111
0.0912726
0.0905227
0.093042
0.0917916
0.0905994
0.0895022
0.0938473
0.0917143
0.0899803
0.0885738
2.59594
1.8211
1.34243
1.03407
0.852043
0.793444
0.879478
1.14673
1.63919
2.18398
1.73843
1.01867
0.731656
0.573591
0.436348
0.333421
0.274322
0.263652
0.499686
1.74473
1.36354
1.07728
0.87974
0.778842
0.799381
0.986662
1.40747
2.16337
2.69886
1.79117
0.943798
0.608899
0.460162
0.357294
0.285675
0.247756
0.253864
0.525373
1.29412
1.0641
0.879061
0.763004
0.740683
0.852616
1.16815
1.78645
2.73817
2.88172
1.65295
0.823905
0.50518
0.375037
0.29719
0.247376
0.224881
0.243757
0.536987
0.984794
0.841425
0.733698
0.690872
0.747993
0.963643
1.43438
2.31063
3.15764
2.49043
1.34345
0.672489
0.41425
0.309445
0.250961
0.216476
0.205066
0.233386
0.538021
0.767081
0.688645
0.644103
0.66783
0.80726
1.14309
1.80133
2.79708
2.93482
1.95699
1.02099
0.528049
0.338087
0.258609
0.215312
0.191907
0.188586
0.223817
0.531951
0.626145
0.595824
0.604755
0.692585
0.92164
1.38994
2.23674
2.87882
2.32972
1.43022
0.744399
0.408947
0.277496
0.219396
0.187858
0.17264
0.175329
0.215571
0.521612
0.545629
0.554303
0.611729
0.766047
1.09724
1.73071
2.46696
2.34226
1.68962
0.996573
0.53409
0.319
0.23104
0.189361
0.166781
0.1577
0.164922
0.208759
0.509033
0.513607
0.557547
0.663077
0.891611
1.3487
1.98611
2.10681
1.72636
1.16671
0.678724
0.387835
0.255033
0.196407
0.166543
0.150664
0.146234
0.156922
0.203302
0.495564
0.523316
0.602279
0.757488
1.06691
1.55837
1.78485
1.60618
1.20971
0.782063
0.467264
0.292343
0.210216
0.170693
0.149305
0.13844
0.137536
0.150897
0.199045
0.482044
0.572022
0.686393
0.883551
1.23933
1.51507
1.43285
1.16209
0.819258
0.527082
0.334057
0.22998
0.178559
0.151525
0.136243
0.129202
0.131061
0.146539
0.195989
0.469303
0.658897
0.807039
1.04813
1.30471
1.28283
1.08134
0.808038
0.554003
0.366281
0.250942
0.188824
0.155965
0.137185
0.126353
0.122266
0.12633
0.143533
0.194036
0.458032
0.78544
0.969457
1.19651
1.21238
1.02679
0.784172
0.558593
0.383466
0.267096
0.198867
0.161238
0.139679
0.126436
0.118891
0.117119
0.122964
0.141585
0.192875
0.447962
0.950901
1.16416
1.26089
1.06048
0.793906
0.565764
0.393484
0.277279
0.206397
0.165847
0.142446
0.127849
0.118389
0.113309
0.113373
0.120674
0.140461
0.192288
0.43888
1.15817
1.32888
1.1728
0.869309
0.605054
0.413377
0.28796
0.212342
0.169205
0.144608
0.129472
0.119224
0.112399
0.109197
0.110732
0.119232
0.139974
0.19211
0.43061
1.33313
1.29473
0.992554
0.690758
0.461078
0.310844
0.222127
0.173053
0.146329
0.130782
0.120441
0.112949
0.107995
0.106244
0.108968
0.118457
0.139975
0.192219
0.423005
1.26284
1.08427
0.793552
0.538166
0.355676
0.243705
0.18187
0.149541
0.132263
0.121734
0.114149
0.108426
0.104825
0.104206
0.107899
0.118205
0.140347
0.192521
0.415952
1.0585
0.853175
0.615869
0.418177
0.281899
0.201084
0.157889
0.135761
0.123705
0.115835
0.109801
0.105224
0.102617
0.102891
0.107375
0.118358
0.14099
0.192944
0.409353
0.837244
0.658754
0.477601
0.331826
0.23319
0.175235
0.144244
0.128019
0.118632
0.112044
0.106843
0.103017
0.101151
0.102138
0.107272
0.118814
0.141824
0.193428
0.403131
0.645744
0.51142
0.379494
0.274327
0.20309
0.160596
0.137092
0.123993
0.115753
0.109655
0.104871
0.101545
0.100245
0.101806
0.107479
0.119483
0.142774
0.19392
0.397218
0.505318
0.408513
0.31433
0.238408
0.185786
0.153115
0.133863
0.122156
0.114194
0.108164
0.103569
0.100593
0.0997394
0.101774
0.107897
0.120282
0.143773
0.194372
0.391555
0.408286
0.340067
0.272858
0.216983
0.176516
0.149809
0.13275
0.121445
0.113332
0.107187
0.102685
0.0999784
0.0994939
0.101927
0.10843
0.121131
0.144753
0.194737
0.38609
0.34391
0.295599
0.246717
0.204218
0.17159
0.148448
0.132437
0.121089
0.112703
0.106428
0.102009
0.0995454
0.0993851
0.102164
0.108994
0.121956
0.145653
0.19497
0.380795
0.300908
0.265908
0.229247
0.195697
0.168266
0.147399
0.131973
0.120532
0.111967
0.105659
0.101377
0.0991641
0.0993064
0.102394
0.109508
0.122687
0.146411
0.195034
0.37566
0.270124
0.244039
0.215664
0.188348
0.164673
0.145569
0.130736
0.119413
0.110898
0.104722
0.100666
0.0987334
0.0991716
0.102542
0.109905
0.123262
0.146979
0.1949
0.370696
0.245315
0.225412
0.202948
0.180329
0.159754
0.142382
0.128418
0.117562
0.109383
0.103529
0.099798
0.0981835
0.0989168
0.10255
0.110131
0.123635
0.147319
0.194555
0.365933
0.222901
0.207543
0.189615
0.170881
0.153185
0.137736
0.125008
0.114981
0.107416
0.102057
0.0987406
0.0974761
0.0985032
0.102379
0.110152
0.123775
0.147408
0.193997
0.361404
0.20142
0.189608
0.175399
0.160099
0.145224
0.131905
0.120722
0.111814
0.105076
0.100339
0.0974992
0.0966027
0.0979157
0.102014
0.109952
0.123668
0.147241
0.193237
0.357142
0.180833
0.171885
0.16083
0.148626
0.136483
0.125387
0.115918
0.108291
0.102495
0.0984462
0.0961086
0.0955788
0.0971608
0.101456
0.109533
0.123321
0.146829
0.192295
0.353177
0.161811
0.155176
0.146777
0.137303
0.127689
0.118742
0.110986
0.104662
0.0998255
0.096468
0.0946207
0.0944365
0.0962611
0.100725
0.108913
0.122751
0.146193
0.191201
0.349531
0.145116
0.140297
0.134061
0.126887
0.119472
0.11245
0.106263
0.101149
0.0972077
0.0944913
0.0930926
0.0932167
0.0952497
0.0998509
0.108122
0.121989
0.145365
0.189985
0.346223
0.131226
0.12777
0.12321
0.117869
0.11225
0.106835
0.101983
0.0979116
0.0947472
0.0925882
0.0915767
0.0919617
0.0941642
0.0988694
0.107195
0.121073
0.144384
0.188682
0.343262
0.120207
0.117724
0.114397
0.110437
0.106201
0.102048
0.0982618
0.0950367
0.0925096
0.0908098
0.0901157
0.0907099
0.0930419
0.0978183
0.106172
0.120041
0.143287
0.187324
0.340654
0.111787
0.109966
0.107501
0.104531
0.101308
0.0980975
0.0951222
0.0925513
0.0905233
0.0891854
0.0887398
0.0894932
0.0919164
0.0967336
0.105091
0.118934
0.142113
0.185945
0.3384
0.105507
0.104116
0.10223
0.0999407
0.0974311
0.0948992
0.0925197
0.0904379
0.088788
0.0877257
0.0874672
0.0883352
0.0908158
0.0956465
0.103985
0.117786
0.140897
0.184571
0.336497
0.10087
0.0997444
0.0982306
0.0963963
0.0943776
0.0923243
0.0903743
0.0886519
0.0872837
0.086427
0.0863054
0.0872513
0.0897611
0.0945832
0.102885
0.11663
0.139671
0.183226
0.334935
0.0974259
0.0964456
0.095161
0.0936261
0.0919443
0.0902297
0.0885913
0.0871346
0.0859774
0.0852746
0.0852525
0.0862488
0.088767
0.0935634
0.101814
0.115493
0.138461
0.181932
0.333704
0.0948061
0.0938763
0.0927213
0.0913843
0.0899408
0.0884754
0.0870724
0.0858207
0.084828
0.0842454
0.0842986
0.0853278
0.0878413
0.0926013
0.100792
0.114396
0.137292
0.180707
0.332787
0.092724
0.0917568
0.090661
0.0894601
0.0881992
0.0869331
0.0857234
0.084643
0.0837901
0.0833103
0.0834275
0.0844826
0.0869866
0.0917065
0.099833
0.11336
0.136183
0.179567
0.33216
0.0909626
0.0898711
0.0887856
0.0876893
0.0865861
0.0854983
0.0844643
0.0835424
0.0828211
0.0824408
0.0826221
0.0837057
0.0862041
0.0908879
0.0989538
0.112406
0.135161
0.178535
0.331787
0.0893774
0.0880855
0.0869834
0.0859821
0.0850308
0.0841156
0.0832528
0.082487
0.0818986
0.0816222
0.0818757
0.082998
0.0855023
0.0901616
0.0981775
0.111564
0.134262
0.177651
0.331607
0.0879354
0.0864093
0.0852934
0.0843897
0.0835847
0.0828316
0.0821287
0.0815105
0.0810506
0.0808793
0.0812108
0.0823823
0.0849065
0.0895575
0.0975404
0.110879
0.133538
0.176982
0.331494
0.0867274
0.085122
0.0840463
0.0832319
0.0825352
0.0818952
0.0813029
0.0807878
0.0804201
0.0803269
0.0807198
0.0819338
0.0844801
0.0891321
0.0970957
0.110398
0.133023
0.176499
0.331166
)
;

boundaryField
{
    leftWall
    {
        type            epsilonWallFunction;
        value           nonuniform List<scalar> 
50
(
0.103952
0.144188
0.18881
0.217281
0.236767
0.250725
0.261073
0.269074
0.276193
0.282475
0.288382
0.299445
0.3083
0.31141
0.314269
0.318343
0.32289
0.327293
0.331253
0.33471
0.33797
0.342156
0.350605
0.37162
0.41746
0.454954
0.481201
0.478891
0.467044
0.458557
0.453169
0.447882
0.441677
0.434714
0.427427
0.420126
0.413006
0.40617
0.399706
0.393731
0.388503
0.384621
0.383468
0.388079
0.404708
0.445213
0.530102
0.694171
1.00842
1.67837
)
;
    }
    rightWall
    {
        type            epsilonWallFunction;
        value           nonuniform List<scalar> 
50
(
0.150001
0.15918
0.232519
0.29276
0.343697
0.387115
0.42401
0.455289
0.499686
0.525373
0.536987
0.538021
0.531951
0.521612
0.509033
0.495564
0.482044
0.469303
0.458032
0.447962
0.43888
0.43061
0.423005
0.415952
0.409353
0.403131
0.397218
0.391555
0.38609
0.380795
0.37566
0.370696
0.365933
0.361404
0.357142
0.353177
0.349531
0.346223
0.343262
0.340654
0.3384
0.336497
0.334935
0.333704
0.332787
0.33216
0.331787
0.331607
0.331494
0.331166
)
;
    }
    lowerWall
    {
        type            epsilonWallFunction;
        value           nonuniform List<scalar> 
62
(
0.103952
0.243525
0.361118
0.450997
0.526014
0.598169
0.678769
0.778347
0.905547
1.06489
1.25358
1.45806
1.6501
1.78285
1.81137
1.73356
1.58548
1.40688
1.22651
1.05842
0.905903
0.741509
0.440551
0.440551
0.383974
0.434378
0.45157
0.49679
0.599632
0.81901
1.39846
5.09655
4.62224
4.19538
3.94727
8.36342
5.15445
5.10929
4.62208
3.82975
3.09492
2.3719
2.3453
8.36342
22.9259
44.4816
69.9605
78.9613
51.9097
28.7794
19.6515
16.6571
11.9456
7.98319
4.7786
2.55331
1.3222
0.763368
0.523613
0.394655
0.280092
0.150001
)
;
    }
    atmosphere
    {
        type            inletOutlet;
        inletValue      uniform 0.1;
        value           nonuniform List<scalar> 
46
(
0.1
0.1
0.1
0.1
0.1
0.1
0.1
0.1
0.1
0.1
0.1
0.1
0.1
0.1
0.1
0.1
0.1
0.1
0.1
0.1
0.1
0.1
0.1
0.0938473
0.0917143
0.0899803
0.0885738
0.0867274
0.085122
0.0840463
0.0832319
0.0825352
0.0818952
0.0813029
0.0807878
0.0804201
0.0803269
0.0807198
0.0819338
0.0844801
0.0891321
0.0970957
0.110398
0.133023
0.176499
0.331166
)
;
    }
    defaultFaces
    {
        type            empty;
    }
}


// ************************************************************************* //
