/*--------------------------------*- C++ -*----------------------------------*\
  =========                 |
  \\      /  F ield         | OpenFOAM: The Open Source CFD Toolbox
   \\    /   O peration     | Website:  https://openfoam.org
    \\  /    A nd           | Version:  13
     \\/     M anipulation  |
\*---------------------------------------------------------------------------*/
FoamFile
{
    format      ascii;
    class       volScalarField;
    location    "0.15";
    object      k;
}
// * * * * * * * * * * * * * * * * * * * * * * * * * * * * * * * * * * * * * //

dimensions      [0 2 -2 0 0 0 0];

internalField   nonuniform List<scalar> 
2268
(
0.00834283
0.014792
0.0192774
0.0223906
0.0248407
0.0270911
0.0294938
0.0323211
0.035746
0.0398027
0.0443468
0.049031
0.0532741
0.0561895
0.0569309
0.0554332
0.0523557
0.0484483
0.0442876
0.0401952
0.0362876
0.0319237
0.0230571
0.0171409
0.0317347
0.040437
0.0463997
0.0510498
0.0552613
0.0596486
0.0646402
0.0704676
0.0771278
0.0843437
0.0915438
0.0977802
0.10153
0.101336
0.0973875
0.0913143
0.0845565
0.0780712
0.0726817
0.0693253
0.0691563
0.0346642
0.0205402
0.0394444
0.0500101
0.0572086
0.0628523
0.0679555
0.0731879
0.078987
0.085568
0.0928985
0.100667
0.108283
0.114794
0.118565
0.11798
0.1134
0.106901
0.100292
0.0952157
0.0939002
0.0987455
0.0904833
0.0377326
0.0225749
0.044242
0.0560015
0.0639423
0.0701676
0.0757636
0.0813996
0.0874803
0.0941788
0.101426
0.108896
0.116048
0.122065
0.125437
0.124633
0.120106
0.114038
0.10864
0.106793
0.113836
0.119032
0.0900304
0.0381035
0.0239193
0.0475025
0.060152
0.0686216
0.0752306
0.0811088
0.0869054
0.0929798
0.0994566
0.106234
0.112987
0.119255
0.124425
0.12726
0.126477
0.122531
0.117434
0.113893
0.116606
0.125881
0.120422
0.0909446
0.0398238
0.0248613
0.0498015
0.0631427
0.0720139
0.0788824
0.0849036
0.0907002
0.0965848
0.102638
0.108734
0.114566
0.119766
0.123935
0.12621
0.125713
0.122891
0.119156
0.117885
0.123034
0.128323
0.125803
0.102868
0.0445737
0.0255495
0.0514502
0.0653353
0.0745206
0.0815646
0.087634
0.0933246
0.0989071
0.104425
0.109747
0.114601
0.118708
0.121859
0.123644
0.12374
0.12252
0.120455
0.121453
0.127117
0.135568
0.141641
0.13137
0.0546815
0.0260758
0.0526125
0.066933
0.0763728
0.0835355
0.08959
0.0951077
0.100325
0.105262
0.109796
0.113721
0.116855
0.11914
0.120616
0.121565
0.12223
0.122506
0.125898
0.13437
0.148413
0.166483
0.17964
0.078547
0.170085
0.329363
0.50871
0.685808
0.740592
0.537341
0.360407
0.285657
0.271578
0.225391
0.175694
0.126784
0.0838103
0.0527734
0.0348085
0.025849
0.020882
0.0164323
0.0107811
0.213406
0.491585
0.963113
1.78619
1.95809
0.907923
0.517547
0.368281
0.437125
0.390561
0.266096
0.195041
0.13979
0.09576
0.0672096
0.0517776
0.0429589
0.0345598
0.0197507
0.209669
0.464784
0.908244
1.29504
0.878258
0.543336
0.372231
0.307195
0.33667
0.421789
0.300243
0.230347
0.18015
0.133119
0.0975156
0.0751465
0.060913
0.0478135
0.0255663
0.194575
0.441692
0.73707
0.663059
0.462532
0.333852
0.27497
0.265114
0.294534
0.367633
0.302083
0.24188
0.202983
0.159191
0.120997
0.0938916
0.0751409
0.0580269
0.0299114
0.171412
0.489655
0.427158
0.33533
0.26332
0.22879
0.226999
0.248512
0.288214
0.352814
0.297962
0.243797
0.213717
0.175461
0.137811
0.108259
0.0863431
0.0660846
0.0333697
0.148486
0.260173
0.216525
0.190224
0.180907
0.189133
0.213275
0.25105
0.300493
0.363363
0.304598
0.246368
0.217508
0.184318
0.148908
0.118733
0.0949627
0.0724141
0.036187
0.123951
0.131959
0.139812
0.149885
0.163849
0.185923
0.219564
0.266163
0.32489
0.395674
0.324787
0.251013
0.217657
0.188043
0.155468
0.125919
0.101373
0.0772978
0.0384954
0.121323
0.132865
0.147431
0.160434
0.175589
0.199219
0.236326
0.289422
0.357969
0.433609
0.351894
0.2571
0.216193
0.188327
0.158552
0.130416
0.105945
0.0810356
0.0403939
0.0265389
0.0536498
0.0685235
0.0783066
0.0856111
0.0916003
0.0968209
0.101482
0.105599
0.109109
0.111925
0.114011
0.115465
0.116839
0.119218
0.122789
0.127374
0.135322
0.149338
0.172504
0.208454
0.25263
0.202042
0.0269481
0.0541139
0.0695596
0.0797213
0.0871868
0.0930986
0.0979913
0.102087
0.105444
0.108126
0.110165
0.111659
0.112558
0.114025
0.118518
0.126047
0.135532
0.149145
0.16897
0.198088
0.238897
0.287825
0.314835
0.0273406
0.0545665
0.0706261
0.0811633
0.0888315
0.094762
0.099503
0.10333
0.106248
0.108024
0.108797
0.109097
0.109469
0.111445
0.117305
0.127062
0.139853
0.157387
0.181808
0.215269
0.258873
0.309435
0.345955
0.0280578
0.0557053
0.0722157
0.0829279
0.0906105
0.0963157
0.100585
0.10371
0.105773
0.106595
0.106374
0.105816
0.105961
0.10832
0.114599
0.125022
0.139345
0.15928
0.186671
0.222289
0.265327
0.311261
0.346928
0.0286051
0.0567417
0.0727227
0.0832309
0.090716
0.0961448
0.100005
0.10256
0.103996
0.104429
0.104019
0.103291
0.10328
0.105564
0.111672
0.121844
0.136444
0.157199
0.185237
0.220261
0.260008
0.299408
0.32951
0.0287964
0.0566446
0.0721391
0.082341
0.0896102
0.0949176
0.0987234
0.101234
0.102549
0.102762
0.102108
0.101152
0.100956
0.103049
0.108729
0.118289
0.132599
0.15306
0.180018
0.21245
0.247655
0.281106
0.306654
0.0289751
0.0563295
0.0715764
0.0815024
0.0884979
0.0935727
0.0971999
0.0995795
0.100785
0.100898
0.100157
0.0991363
0.0988859
0.100828
0.106017
0.114928
0.128691
0.14818
0.173189
0.202408
0.233308
0.262219
0.284687
0.0292273
0.0561517
0.0709842
0.0805119
0.0871617
0.0919648
0.0953999
0.0976654
0.0988256
0.098946
0.0982521
0.0973052
0.0971265
0.099007
0.103791
0.112167
0.125239
0.143382
0.166108
0.192157
0.219434
0.245109
0.265872
0.0295072
0.0561183
0.0704857
0.0795651
0.0858335
0.0903423
0.0935765
0.0957356
0.0968807
0.0970676
0.0965069
0.0957413
0.0957545
0.0976937
0.102234
0.110221
0.122521
0.139165
0.15961
0.182839
0.207305
0.230962
0.251362
0.0297767
0.0561519
0.0700864
0.0787373
0.0846335
0.0888482
0.0918778
0.093931
0.0950756
0.0953679
0.0950099
0.0945267
0.0948581
0.0969866
0.101472
0.109196
0.120712
0.135891
0.154292
0.175236
0.197756
0.220534
0.241874
0.030018
0.0562047
0.0697796
0.0780604
0.0836236
0.0875642
0.0903961
0.0923463
0.0935022
0.0939351
0.0938495
0.0937573
0.0945457
0.0970076
0.101632
0.109215
0.12005
0.133992
0.150789
0.170134
0.191601
0.21456
0.238016
0.0302286
0.0562469
0.0695712
0.0775668
0.0828576
0.0865619
0.0892156
0.0910729
0.0922549
0.092866
0.0931287
0.0935456
0.0949444
0.0979248
0.102916
0.11055
0.120972
0.13412
0.149971
0.168554
0.189908
0.213984
0.24047
0.0304301
0.0562467
0.0694669
0.0772806
0.0823771
0.0859013
0.0884141
0.0902021
0.0914337
0.092268
0.0929616
0.0940073
0.096173
0.0999211
0.105582
0.11359
0.124061
0.137072
0.152822
0.171634
0.193898
0.220014
0.250293
0.0306977
0.0562104
0.0694989
0.0772355
0.0822268
0.085651
0.0880903
0.0898651
0.0911992
0.0923208
0.093533
0.0953038
0.0983422
0.103121
0.109829
0.11868
0.129845
0.143582
0.160341
0.180662
0.205073
0.23423
0.268745
0.0312453
0.0563652
0.0698884
0.0776126
0.0825782
0.0859941
0.0884479
0.0902812
0.0917725
0.0932322
0.0950197
0.097576
0.101634
0.107814
0.116098
0.126471
0.139179
0.154723
0.173882
0.197161
0.224782
0.257764
0.296695
0.0325659
0.057191
0.0709046
0.0785487
0.0835316
0.0870259
0.0895873
0.0915558
0.0932617
0.0950931
0.0975074
0.100865
0.10616
0.114346
0.124964
0.137668
0.152789
0.171326
0.194821
0.221957
0.252055
0.287088
0.326388
0.0352453
0.0595179
0.0727495
0.0800478
0.0850452
0.0886693
0.0913621
0.0935122
0.0954394
0.0975618
0.100579
0.104927
0.111555
0.122124
0.136042
0.151636
0.169103
0.189821
0.214623
0.24206
0.273056
0.308461
0.347097
0.0372846
0.0615606
0.0752872
0.0810099
0.0857321
0.0894615
0.0923841
0.0947445
0.0969131
0.0994415
0.103103
0.10865
0.116481
0.12718
0.140864
0.157018
0.175767
0.197514
0.223191
0.252994
0.284658
0.31681
0.345203
0.038639
0.0636493
0.0749717
0.0815954
0.0863909
0.0900754
0.0929132
0.0952433
0.0974794
0.100186
0.104066
0.109683
0.117454
0.127875
0.141212
0.157518
0.176821
0.199278
0.224729
0.252308
0.280476
0.306453
0.325879
0.038453
0.0630129
0.0744965
0.081449
0.0862417
0.0898045
0.0925796
0.0949138
0.0972362
0.100083
0.104049
0.109641
0.117218
0.127184
0.139887
0.15556
0.174242
0.195664
0.219283
0.243925
0.267571
0.287334
0.299465
0.037826
0.0626177
0.0743321
0.081305
0.0859987
0.0894219
0.0920903
0.0943881
0.0967164
0.0995509
0.103415
0.108784
0.116034
0.1255
0.137506
0.152264
0.169716
0.189434
0.210581
0.231769
0.250974
0.265609
0.273
0.0373837
0.0626883
0.0744426
0.0812646
0.0857884
0.0890587
0.0916151
0.0938433
0.0961187
0.0988624
0.102532
0.10757
0.114352
0.123208
0.134407
0.148079
0.16407
0.181837
0.200428
0.218436
0.234027
0.245143
0.249996
0.0370959
0.0628787
0.0746303
0.0813009
0.0856573
0.0887813
0.0912269
0.0933737
0.0955681
0.0981811
0.101615
0.106272
0.11252
0.120669
0.130945
0.143408
0.157842
0.173665
0.189918
0.205303
0.218276
0.227277
0.231108
0.0368057
0.0629793
0.074761
0.0813436
0.0855773
0.0885815
0.0909257
0.0929845
0.0950793
0.0975385
0.100714
0.104967
0.110638
0.118015
0.127289
0.138477
0.151342
0.16532
0.179531
0.192841
0.20399
0.211781
0.215353
0.0364617
0.0629432
0.0747847
0.0813401
0.0855024
0.0884209
0.0906797
0.0926508
0.0946354
0.0969257
0.0998281
0.10366
0.108727
0.11529
0.123511
0.133394
0.144709
0.156952
0.169357
0.180968
0.190756
0.197773
0.201339
0.0360737
0.0627924
0.0747018
0.0812666
0.0853959
0.0882579
0.0904474
0.0923344
0.0942033
0.0963155
0.0989365
0.102339
0.106789
0.112515
0.11966
0.128225
0.138014
0.1486
0.159342
0.169449
0.178077
0.184451
0.187996
0.0356652
0.062562
0.0745311
0.0811202
0.0852388
0.0880642
0.090197
0.0920045
0.0937566
0.0956883
0.098028
0.101006
0.104845
0.10974
0.115816
0.12308
0.131377
0.140363
0.149519
0.158202
0.165722
0.171434
0.174841
0.0352534
0.0622826
0.0742964
0.0809106
0.0850281
0.0878282
0.0899135
0.0916468
0.0932854
0.0950415
0.0971108
0.0996839
0.102944
0.107049
0.112104
0.118125
0.124995
0.132451
0.140086
0.147388
0.1538
0.15879
0.16193
0.0348493
0.0619773
0.074021
0.0806549
0.0847732
0.0875537
0.0895977
0.091263
0.0927955
0.0943879
0.0962084
0.098413
0.101147
0.104535
0.108663
0.113546
0.119104
0.125142
0.131351
0.137335
0.142656
0.146884
0.149659
0.034459
0.0616643
0.0737273
0.0803746
0.0844923
0.0872556
0.089263
0.0908671
0.0923038
0.0937499
0.0953507
0.0972339
0.0995127
0.102282
0.105607
0.1095
0.113908
0.118688
0.123615
0.128394
0.132687
0.13616
0.13852
0.0340881
0.0613613
0.0734394
0.0800955
0.0842104
0.0869571
0.0889315
0.0904813
0.0918339
0.0931533
0.094567
0.0961802
0.0980808
0.100339
0.103001
0.106075
0.109523
0.113245
0.117078
0.120808
0.124187
0.126962
0.128903
0.0337441
0.0610916
0.0731879
0.0798507
0.0839601
0.0866895
0.0886329
0.0901341
0.0914138
0.0926256
0.0938837
0.0952765
0.0968727
0.0987236
0.10086
0.103286
0.10597
0.108842
0.111788
0.114655
0.117266
0.119437
0.120993
0.0334434
0.0608938
0.0730179
0.0796856
0.0837851
0.0864933
0.0884049
0.0898607
0.0910758
0.0921962
0.093326
0.0945412
0.0958972
0.0974314
0.0991632
0.101092
0.103191
0.10541
0.107666
0.109854
0.111852
0.113527
0.114753
0.0332232
0.0608374
0.0730014
0.0796667
0.0837445
0.0864215
0.0882948
0.0897032
0.0908577
0.0918979
0.0929202
0.0939921
0.0951592
0.0964495
0.0978747
0.0994296
0.101092
0.10282
0.104556
0.106227
0.107749
0.109034
0.109989
0.0331678
0.0610478
0.073254
0.0798908
0.0839189
0.0865418
0.0883605
0.0897123
0.0908035
0.0917683
0.0926969
0.0936499
0.0946664
0.0957678
0.0969603
0.0982359
0.0995729
0.100937
0.102285
0.103565
0.104723
0.105701
0.106434
0.0334578
0.0617401
0.0739517
0.0804923
0.0844118
0.0869365
0.08867
0.0899454
0.0909628
0.0918499
0.0926908
0.0935405
0.0944326
0.095384
0.0963972
0.0974617
0.0985557
0.0996484
0.100703
0.101683
0.102554
0.103281
0.103825
0.0344503
0.0632516
0.0753378
0.0816394
0.0853435
0.0876965
0.0892958
0.090463
0.0913874
0.0921875
0.0929398
0.0936933
0.0944769
0.0953038
0.0961738
0.0970747
0.0979839
0.0988706
0.0997005
0.100442
0.101072
0.101579
0.101943
0.0367718
0.0660481
0.0776967
0.083506
0.0868282
0.0889046
0.0903033
0.0913202
0.0921254
0.0928232
0.0934799
0.0941372
0.0948189
0.095535
0.0962838
0.097052
0.0978164
0.0985448
0.0992003
0.0997485
0.100169
0.100462
0.100633
0.0413644
0.0706648
0.0812708
0.0862089
0.0889339
0.0906099
0.0917344
0.0925557
0.0932129
0.0937898
0.0943392
0.0948934
0.0954708
0.0960788
0.0967147
0.097366
0.0980105
0.0986152
0.0991385
0.0995363
0.0997757
0.0998571
0.0998083
0.0495293
0.0775541
0.0861116
0.0897184
0.0916323
0.0928007
0.0935918
0.0941814
0.0946662
0.0951039
0.0955305
0.0959682
0.0964294
0.096919
0.0974349
0.0979674
0.0984983
0.0989982
0.0994249
0.0997235
0.099836
0.0997329
0.0994403
0.0634922
0.0867931
0.0918828
0.0937768
0.0947687
0.095392
0.0958324
0.0961775
0.0964766
0.0967596
0.0970452
0.0973453
0.0976668
0.0980124
0.0983814
0.0987686
0.0991634
0.0995471
0.0998891
0.10014
0.100224
0.100048
0.0995465
0.0890816
0.0970629
0.0976313
0.0978861
0.0980847
0.0982437
0.098376
0.0984941
0.0986076
0.0987235
0.0988462
0.0989787
0.0991231
0.0992801
0.0994499
0.0996315
0.0998226
0.10002
0.100216
0.100399
0.100535
0.100524
0.100138
0.189815
0.177556
0.166207
0.159414
0.318426
0.310814
0.299021
0.288844
0.352034
0.351518
0.347343
0.340676
0.358835
0.362637
0.360314
0.35343
0.340545
0.344778
0.344432
0.340307
0.317026
0.321655
0.322814
0.321096
0.294697
0.299764
0.302317
0.30293
0.276214
0.282108
0.286272
0.289329
0.262899
0.270172
0.276376
0.282198
0.255583
0.264898
0.273732
0.282821
0.254894
0.26695
0.279097
0.292075
0.261347
0.276768
0.292897
0.310384
0.275686
0.294871
0.315391
0.33749
0.298836
0.322022
0.346951
0.372988
0.330844
0.358244
0.387562
0.414016
0.361257
0.38792
0.413111
0.429758
0.374176
0.389201
0.39946
0.402727
0.359742
0.365565
0.366675
0.361894
0.3318
0.331806
0.327538
0.318614
0.300126
0.297183
0.290829
0.281196
0.271186
0.267311
0.260905
0.252267
0.247592
0.243934
0.238413
0.231329
0.229088
0.226106
0.221689
0.216087
0.214035
0.211791
0.20837
0.203984
0.200706
0.199109
0.196508
0.193075
0.187902
0.186821
0.184875
0.182195
0.175119
0.174429
0.172998
0.170927
0.162428
0.162024
0.160996
0.159422
0.150256
0.150049
0.149331
0.148159
0.139127
0.139047
0.13856
0.137704
0.129464
0.129458
0.129134
0.128516
0.121478
0.121507
0.121292
0.120846
0.115153
0.115194
0.115045
0.114716
0.110307
0.110343
0.11023
0.109977
0.106674
0.106695
0.106598
0.106388
0.103986
0.103982
0.103883
0.103691
0.102013
0.101971
0.101848
0.101648
0.100587
0.100482
0.100309
0.10007
0.0995978
0.0993935
0.0991281
0.0988103
0.0989862
0.0986264
0.0982144
0.0977697
0.0986979
0.0981127
0.0975051
0.0969017
0.0985916
0.0976998
0.0968885
0.0961645
0.166021
0.175755
0.182583
0.188672
0.200018
0.223427
0.264484
0.326662
0.410353
0.484443
0.40163
0.268427
0.211921
0.183975
0.15835
0.133465
0.110291
0.0851016
0.0430045
0.271388
0.25573
0.243196
0.237309
0.243767
0.268973
0.319177
0.399306
0.514356
0.577719
0.426068
0.270355
0.203647
0.174832
0.152733
0.131522
0.110584
0.0862432
0.0444485
0.322422
0.297674
0.278372
0.270679
0.280727
0.315257
0.381915
0.486819
0.619956
0.623699
0.417337
0.259729
0.193407
0.165784
0.146342
0.127856
0.108842
0.0856655
0.0450675
0.3346
0.310604
0.29454
0.293335
0.313797
0.364121
0.45376
0.592351
0.699118
0.582206
0.375634
0.238962
0.181567
0.1569
0.139597
0.123108
0.10571
0.0838605
0.0450852
0.327368
0.310403
0.302885
0.312718
0.348138
0.419541
0.53773
0.686395
0.688541
0.510296
0.324818
0.215302
0.169498
0.148361
0.132862
0.117942
0.101947
0.0814527
0.0447024
0.314077
0.306218
0.309811
0.333554
0.387573
0.48297
0.628971
0.717189
0.607191
0.426377
0.275076
0.193049
0.158198
0.140345
0.126397
0.112794
0.0980479
0.0788476
0.0440773
0.301683
0.303681
0.319697
0.35966
0.43575
0.560816
0.681276
0.643074
0.503015
0.346497
0.232292
0.174139
0.148106
0.13297
0.120365
0.107917
0.0942924
0.0762759
0.0433222
0.293882
0.306115
0.335569
0.394137
0.496889
0.61759
0.62887
0.537682
0.403657
0.279376
0.198905
0.159056
0.139357
0.126313
0.114865
0.10345
0.0908303
0.0738629
0.0425125
0.292914
0.315719
0.359154
0.437412
0.545089
0.585961
0.536618
0.434119
0.319177
0.228669
0.174611
0.147129
0.131775
0.120382
0.109967
0.099473
0.0877372
0.0716712
0.0416963
0.300348
0.333553
0.388324
0.477026
0.538653
0.515083
0.441158
0.343622
0.255104
0.192767
0.156928
0.137534
0.125182
0.115122
0.105643
0.0959917
0.0850355
0.0697313
0.0409372
0.316979
0.359319
0.424845
0.489862
0.486718
0.433393
0.353736
0.273187
0.20935
0.167745
0.143861
0.129691
0.11946
0.11051
0.101881
0.0929883
0.0827055
0.0680287
0.0402569
0.343139
0.393703
0.454701
0.465675
0.422986
0.355532
0.283586
0.221828
0.17769
0.150277
0.134001
0.123213
0.114526
0.10652
0.0986584
0.0904369
0.0807241
0.0665533
0.0396428
0.37769
0.433007
0.463528
0.425065
0.359461
0.291211
0.231194
0.185936
0.156118
0.137939
0.12642
0.117847
0.11032
0.103124
0.0959438
0.0883035
0.0790605
0.065285
0.0390842
0.420008
0.462575
0.437898
0.372638
0.30265
0.24111
0.193779
0.161548
0.141486
0.129102
0.120525
0.113424
0.106789
0.100286
0.0936986
0.0865481
0.07768
0.0642013
0.0385718
0.453295
0.450296
0.391142
0.320422
0.255311
0.203879
0.167998
0.145312
0.131575
0.122713
0.115931
0.109823
0.103883
0.0979643
0.091878
0.0851277
0.076547
0.0632786
0.0380979
0.437636
0.402316
0.338447
0.273346
0.218016
0.177383
0.150833
0.134728
0.124902
0.118092
0.112381
0.106943
0.101544
0.096107
0.0904324
0.0839981
0.0756268
0.0624952
0.0376559
0.394147
0.347791
0.289573
0.234632
0.190455
0.159484
0.139892
0.128046
0.120484
0.114787
0.10968
0.10469
0.0997067
0.0946566
0.0893098
0.0831155
0.0748863
0.0618306
0.0372406
0.344522
0.299229
0.249924
0.205845
0.171689
0.148232
0.133363
0.124045
0.117648
0.112466
0.107667
0.102969
0.0982979
0.0935509
0.0884574
0.0824376
0.0742951
0.0612666
0.0368473
0.298892
0.260626
0.221019
0.186503
0.160107
0.141844
0.129858
0.121842
0.115903
0.11087
0.106193
0.101679
0.0972399
0.0927258
0.0878231
0.0819247
0.0738254
0.0607868
0.0364723
0.263416
0.232786
0.201753
0.174715
0.153749
0.138734
0.128288
0.120769
0.114864
0.109774
0.105116
0.100719
0.096453
0.0921178
0.0873574
0.0815399
0.0734522
0.0603773
0.0361119
0.237736
0.21393
0.189707
0.168096
0.150695
0.137548
0.127778
0.120293
0.114212
0.108982
0.104302
0.0999881
0.0958603
0.0916666
0.0870145
0.0812502
0.0731537
0.0600261
0.0357633
0.219876
0.201427
0.182228
0.164403
0.149295
0.137181
0.127631
0.11999
0.113686
0.108322
0.10363
0.0993964
0.0953909
0.0913174
0.0867529
0.0810261
0.0729114
0.0597243
0.0354246
0.2071
0.192591
0.17699
0.161819
0.148258
0.136783
0.127316
0.119532
0.113079
0.107653
0.102998
0.0988649
0.0949833
0.0910227
0.0865373
0.080843
0.07271
0.0594651
0.0350954
0.196888
0.185243
0.172257
0.159058
0.146696
0.135777
0.126475
0.118699
0.112246
0.106874
0.102327
0.0983318
0.0945884
0.0907439
0.0863386
0.0806804
0.0725374
0.0592436
0.0347763
0.187423
0.177919
0.166947
0.155367
0.144115
0.133858
0.124924
0.117377
0.11111
0.105925
0.101569
0.097755
0.0941707
0.0904526
0.086135
0.080523
0.0723844
0.0590565
0.0344691
0.177679
0.169871
0.160576
0.150472
0.14038
0.130971
0.122648
0.11556
0.109664
0.104792
0.100702
0.0971126
0.0937094
0.0901305
0.0859119
0.0803602
0.0722444
0.0589012
0.0341762
0.167341
0.160958
0.153159
0.144485
0.135646
0.127267
0.119767
0.113331
0.107954
0.103495
0.0997328
0.0964007
0.0931968
0.0897693
0.0856618
0.0801862
0.0721134
0.0587757
0.0338997
0.156615
0.151474
0.145054
0.137782
0.130255
0.123028
0.116489
0.110831
0.106067
0.102084
0.0986855
0.0956302
0.0926365
0.089369
0.0853834
0.0799988
0.0719894
0.0586783
0.0336417
0.146003
0.141952
0.136792
0.130856
0.124633
0.118587
0.113059
0.108224
0.104108
0.10062
0.0975957
0.0948211
0.09204
0.0889364
0.0850802
0.0797998
0.071872
0.0586075
0.0334038
0.136081
0.13296
0.128912
0.124192
0.119181
0.114257
0.1097
0.105663
0.102175
0.0991661
0.0965021
0.0939979
0.0914231
0.088482
0.0847595
0.0795932
0.0717625
0.0585621
0.0331874
0.127311
0.124951
0.121839
0.118161
0.114209
0.110277
0.106588
0.103268
0.100347
0.0977743
0.0954394
0.0931845
0.0908031
0.0880187
0.0844302
0.0793846
0.071663
0.0585411
0.0329933
0.119953
0.118181
0.115812
0.112978
0.109895
0.106786
0.103825
0.101114
0.0986782
0.0964818
0.0944348
0.0924018
0.0901965
0.0875593
0.0841022
0.0791803
0.0715759
0.0585437
0.032822
0.114043
0.112703
0.110892
0.108703
0.106294
0.103833
0.101453
0.0992317
0.0971936
0.0953099
0.0935066
0.0916655
0.089617
0.0871156
0.0837845
0.0789863
0.0715039
0.0585691
0.0326737
0.109451
0.108408
0.106995
0.105275
0.103367
0.101395
0.0994583
0.0976194
0.0958963
0.0942656
0.0926638
0.0909858
0.0890749
0.0866971
0.0834852
0.0788083
0.0714493
0.0586162
0.0325483
0.105954
0.105102
0.103956
0.102565
0.101016
0.0994016
0.0977977
0.0962505
0.0947731
0.0933444
0.0919078
0.0903677
0.0885768
0.0863109
0.0832106
0.0786507
0.0714138
0.0586839
0.0324453
0.1033
0.102557
0.101581
0.100413
0.0991174
0.0977641
0.0964085
0.0950845
0.0937997
0.0925334
0.0912336
0.0898108
0.0881256
0.085961
0.0829646
0.0785163
0.0713983
0.0587707
0.0323641
0.101257
0.100555
0.0996781
0.0986587
0.0975453
0.0963869
0.0952222
0.0940742
0.0929451
0.0918137
0.0906304
0.0893105
0.0877201
0.0856485
0.0827491
0.0784064
0.0714025
0.0588745
0.0323035
0.0996283
0.0989075
0.0980771
0.0971595
0.0961843
0.0951807
0.0941723
0.0931717
0.0921761
0.091163
0.0900843
0.0888585
0.0873562
0.0853716
0.0825634
0.0783203
0.0714247
0.0589921
0.032262
0.098259
0.0974657
0.0966464
0.095804
0.094944
0.0940749
0.0932049
0.0923371
0.0914639
0.0905611
0.0895816
0.088446
0.0870284
0.085127
0.082405
0.0782553
0.0714609
0.0591179
0.0322374
0.0970466
0.0961404
0.0953138
0.094536
0.0937817
0.0930371
0.0922961
0.0915531
0.0907963
0.0899999
0.089117
0.0880699
0.0867349
0.0849133
0.082272
0.0782078
0.0715046
0.0592423
0.0322255
0.0959738
0.0949435
0.094112
0.0933974
0.0927405
0.0921077
0.0914815
0.0908501
0.0901984
0.0894993
0.0887059
0.087741
0.0864822
0.0847332
0.0821633
0.0781723
0.0715452
0.0593478
0.0322179
0.095124
0.0940641
0.0932606
0.0926023
0.0920152
0.0914577
0.0909076
0.0903507
0.08977
0.0891379
0.0884068
0.0874999
0.0862951
0.084597
0.0820765
0.0781358
0.0715612
0.0594095
0.032196
)
;

boundaryField
{
    leftWall
    {
        type            kqRWallFunction;
        value           nonuniform List<scalar> 
50
(
0.00834283
0.0171409
0.0205402
0.0225749
0.0239193
0.0248613
0.0255495
0.0260758
0.0265389
0.0269481
0.0273406
0.0280578
0.0286051
0.0287964
0.0289751
0.0292273
0.0295072
0.0297767
0.030018
0.0302286
0.0304301
0.0306977
0.0312453
0.0325659
0.0352453
0.0372846
0.038639
0.038453
0.037826
0.0373837
0.0370959
0.0368057
0.0364617
0.0360737
0.0356652
0.0352534
0.0348493
0.034459
0.0340881
0.0337441
0.0334434
0.0332232
0.0331678
0.0334578
0.0344503
0.0367718
0.0413644
0.0495293
0.0634922
0.0890816
)
;
    }
    rightWall
    {
        type            kqRWallFunction;
        value           nonuniform List<scalar> 
50
(
0.0107811
0.0197507
0.0255663
0.0299114
0.0333697
0.036187
0.0384954
0.0403939
0.0430045
0.0444485
0.0450675
0.0450852
0.0447024
0.0440773
0.0433222
0.0425125
0.0416963
0.0409372
0.0402569
0.0396428
0.0390842
0.0385718
0.0380979
0.0376559
0.0372406
0.0368473
0.0364723
0.0361119
0.0357633
0.0354246
0.0350954
0.0347763
0.0344691
0.0341762
0.0338997
0.0336417
0.0334038
0.0331874
0.0329933
0.032822
0.0326737
0.0325483
0.0324453
0.0323641
0.0323035
0.032262
0.0322374
0.0322255
0.0322179
0.032196
)
;
    }
    lowerWall
    {
        type            kqRWallFunction;
        value           nonuniform List<scalar> 
62
(
0.00834283
0.014792
0.0192774
0.0223906
0.0248407
0.0270911
0.0294938
0.0323211
0.035746
0.0398027
0.0443468
0.049031
0.0532741
0.0561895
0.0569309
0.0554332
0.0523557
0.0484483
0.0442876
0.0401952
0.0362876
0.0319237
0.0230571
0.0230571
0.0346642
0.0377326
0.0381035
0.0398238
0.0445737
0.0546815
0.078547
0.189815
0.177556
0.166207
0.159414
0.170085
0.213406
0.209669
0.194575
0.171412
0.148486
0.123951
0.121323
0.170085
0.329363
0.50871
0.685808
0.740592
0.537341
0.360407
0.285657
0.271578
0.225391
0.175694
0.126784
0.0838103
0.0527734
0.0348085
0.025849
0.020882
0.0164323
0.0107811
)
;
    }
    atmosphere
    {
        type            inletOutlet;
        inletValue      uniform 0.1;
        value           nonuniform List<scalar> 
46
(
0.1
0.1
0.1
0.1
0.1
0.1
0.1
0.1
0.1
0.1
0.1
0.1
0.1
0.1
0.1
0.1
0.1
0.1
0.1
0.1
0.1
0.1
0.1
0.0985916
0.0976998
0.0968885
0.0961645
0.095124
0.0940641
0.0932606
0.0926023
0.0920152
0.0914577
0.0909076
0.0903507
0.08977
0.0891379
0.0884068
0.0874999
0.0862951
0.084597
0.0820765
0.0781358
0.0715612
0.0594095
0.032196
)
;
    }
    defaultFaces
    {
        type            empty;
    }
}


// ************************************************************************* //
