/*--------------------------------*- C++ -*----------------------------------*\
  =========                 |
  \\      /  F ield         | OpenFOAM: The Open Source CFD Toolbox
   \\    /   O peration     | Website:  https://openfoam.org
    \\  /    A nd           | Version:  13
     \\/     M anipulation  |
\*---------------------------------------------------------------------------*/
FoamFile
{
    format      ascii;
    class       volScalarField;
    location    "0.15";
    object      nut;
}
// * * * * * * * * * * * * * * * * * * * * * * * * * * * * * * * * * * * * * //

dimensions      [0 2 -1 0 0 0 0];

internalField   nonuniform List<scalar> 
2268
(
6.02611e-05
8.08641e-05
9.26171e-05
0.000100046
0.000105578
0.000110426
0.000115341
0.000120793
0.000126995
0.000133895
0.000141194
0.000148391
0.000154798
0.000159382
0.000161039
0.00015953
0.000155599
0.000150156
0.000143924
0.000137383
0.000130821
0.000123695
0.000108606
0.000183391
0.000514242
0.000714134
0.000849446
0.000950747
0.00103458
0.00111022
0.00118188
0.00125018
0.00131406
0.00137195
0.00142186
0.00145932
0.00147192
0.00144294
0.00137207
0.00127818
0.00117812
0.00107728
0.000963417
0.000794575
0.000555383
0.000281646
0.000201108
0.000791711
0.00122972
0.00156051
0.00182275
0.00204224
0.00223543
0.00241029
0.00256842
0.00270839
0.00282821
0.00292596
0.00299596
0.00301692
0.00295691
0.00281207
0.00261503
0.00239381
0.00214708
0.00183265
0.00139937
0.000852614
0.00029499
0.000211092
0.000968645
0.0016081
0.00212522
0.00255012
0.00290768
0.00321627
0.0034863
0.00372148
0.00392202
0.00408736
0.0042173
0.00430828
0.0043371
0.00426355
0.00407624
0.00380591
0.00347563
0.00306345
0.00253533
0.00183883
0.000995282
0.000289366
0.000217478
0.00108963
0.00189215
0.00257402
0.00314941
0.00363583
0.0040495
0.00440192
0.00469951
0.00494565
0.00514258
0.00529297
0.00539731
0.00543559
0.0053651
0.00516482
0.00484973
0.00442616
0.00386198
0.00312614
0.00215904
0.00116446
0.000287313
0.000221866
0.00117519
0.00210741
0.00293006
0.0036395
0.00424246
0.00475038
0.00517454
0.00552405
0.00580606
0.00602638
0.00619091
0.00630465
0.00635417
0.00629959
0.00611086
0.00577558
0.00528384
0.0046125
0.00368162
0.00259539
0.00149174
0.000298205
0.000225032
0.00123595
0.00226988
0.00320986
0.00403545
0.00474158
0.0053334
0.00582093
0.00621543
0.00652788
0.00676796
0.00694468
0.00706681
0.00712898
0.0070985
0.006938
0.00660389
0.00608499
0.00534398
0.00436079
0.00324538
0.00205043
0.000328575
0.000227429
0.00127818
0.00239071
0.00342636
0.00435018
0.00514575
0.00581145
0.00635522
0.00678986
0.00712992
0.00738889
0.00757862
0.0077103
0.0077858
0.00778181
0.00765635
0.00734943
0.00684276
0.00610896
0.00514961
0.0040552
0.0028205
0.000397056
0.000311309
0.000425858
0.000523603
0.000605055
0.000625152
0.000500603
0.000406206
0.000373712
0.000398503
0.000382743
0.000347999
0.000302742
0.000247591
0.000189573
0.000142849
0.000114847
9.9442e-05
8.67638e-05
6.97392e-05
0.000795198
0.00116087
0.0019824
0.00300899
0.00315525
0.00204399
0.00163443
0.00163237
0.00217265
0.00209419
0.00144143
0.00109485
0.00087916
0.000718739
0.000616127
0.000560582
0.00051708
0.000442383
0.000220554
0.000774373
0.00156952
0.00271325
0.00317759
0.00241573
0.00197664
0.00192293
0.0023172
0.00306702
0.00371503
0.00265286
0.00203169
0.00170391
0.00146095
0.00129109
0.00117262
0.00104575
0.00082671
0.000252999
0.000737187
0.00187858
0.0026948
0.00246193
0.00203419
0.0019349
0.0022689
0.00308776
0.00408081
0.00479491
0.00374869
0.00289334
0.00250302
0.00221623
0.00199581
0.00180945
0.00157817
0.00117763
0.000275045
0.000690484
0.001977
0.00196987
0.00179561
0.00176642
0.00208409
0.00287658
0.00406489
0.00519815
0.00585887
0.00472578
0.00365665
0.00320828
0.00290917
0.00266614
0.00242491
0.0020868
0.00148945
0.000291589
0.000641156
0.00126399
0.00129516
0.00144768
0.0018341
0.00259307
0.00377054
0.00513715
0.00625221
0.006846
0.00563895
0.00436274
0.00381686
0.00352203
0.00328173
0.00300215
0.00256091
0.00176221
0.000304444
0.000582974
0.000798967
0.00111666
0.00159752
0.00232207
0.00339857
0.00478721
0.00617364
0.00720816
0.00778542
0.0064873
0.00499883
0.00434315
0.00406248
0.00384202
0.00353699
0.00299631
0.00199739
0.000314546
0.000564849
0.00090535
0.00142823
0.00212378
0.0030656
0.00434123
0.00582009
0.00714876
0.00809535
0.00863604
0.00725529
0.00556231
0.00480964
0.00454722
0.00435641
0.00403321
0.00339417
0.00219855
0.000322543
0.000229508
0.00131565
0.00251326
0.00366109
0.00470559
0.00561446
0.0063755
0.00699247
0.00747932
0.00785547
0.00813969
0.00834767
0.00849175
0.00858105
0.00861349
0.00855269
0.00834069
0.00794166
0.0073155
0.00646368
0.00544701
0.00423043
0.00182242
0.000231376
0.00132865
0.00259168
0.00382984
0.00497512
0.00598254
0.00683022
0.00751699
0.00805603
0.00846981
0.00878078
0.00900831
0.00916128
0.00926161
0.00934553
0.00939037
0.00933018
0.00912759
0.00871435
0.00806195
0.00716005
0.00599813
0.00443697
0.000233288
0.00133471
0.00264015
0.00392868
0.00512928
0.00619244
0.00709208
0.0078238
0.00839499
0.00881973
0.00912682
0.00934863
0.00950726
0.00963583
0.00977572
0.00991928
0.010014
0.0100228
0.00988732
0.00956747
0.00902554
0.00826621
0.00732715
0.00023661
0.00137525
0.00270542
0.00400973
0.00522722
0.00630751
0.00722234
0.0079644
0.00853932
0.00895847
0.009253
0.00946449
0.00963368
0.0097996
0.00999904
0.010233
0.0104698
0.0106883
0.0108486
0.0108985
0.0108033
0.0105555
0.0102474
0.000238868
0.00143824
0.00276887
0.00407063
0.00528654
0.00636587
0.0072775
0.00801143
0.00857529
0.00898755
0.00927674
0.00948446
0.00966003
0.00985411
0.0101069
0.0104206
0.0107814
0.0111857
0.0116093
0.0119983
0.0122996
0.0124943
0.0126079
0.000239654
0.00144258
0.00278144
0.00409132
0.00531334
0.0063968
0.00730901
0.00803783
0.00858973
0.00898556
0.00925862
0.00945477
0.00963016
0.00984317
0.0101363
0.0105143
0.0109767
0.0115249
0.0121344
0.0127548
0.0133222
0.0137797
0.0140916
0.000240431
0.00143032
0.00278498
0.00411064
0.00534157
0.00642673
0.00733401
0.00805201
0.0085882
0.00896578
0.00922137
0.00940453
0.00957578
0.00979787
0.0101145
0.0105363
0.0110707
0.0117121
0.0124285
0.0131658
0.0138567
0.0144341
0.014844
0.000241504
0.00143204
0.00280068
0.00413955
0.00537712
0.00646072
0.00735896
0.00806251
0.00858133
0.00894109
0.00918081
0.00935222
0.00951788
0.00974183
0.0100673
0.0105117
0.0110836
0.0117664
0.012519
0.0132838
0.0139944
0.0145851
0.0150023
0.000242685
0.00144468
0.00282864
0.00417856
0.00541999
0.00649921
0.00738582
0.00807313
0.00857436
0.00891807
0.00914524
0.00930857
0.00947069
0.00969413
0.0100195
0.0104686
0.0110456
0.0117231
0.0124524
0.0131735
0.0138232
0.0143443
0.0146949
0.000243814
0.00146099
0.00286084
0.00422088
0.00546481
0.00653839
0.00741259
0.00808381
0.00856904
0.00890004
0.00911969
0.00928092
0.0094449
0.00967015
0.00999304
0.010435
0.0109919
0.0116283
0.0122894
0.0129147
0.0134478
0.0138471
0.0140938
0.000244819
0.00147569
0.00288989
0.0042595
0.00550608
0.00657462
0.00743757
0.00809469
0.00856708
0.00889009
0.00910858
0.00927537
0.00944898
0.00968169
0.0100044
0.0104334
0.0109552
0.0115277
0.0120935
0.0125949
0.0129883
0.0132554
0.0134088
0.000245702
0.0014837
0.00290948
0.00428918
0.00554047
0.00660663
0.00746133
0.0081078
0.00857163
0.00889215
0.0091165
0.00929715
0.00948908
0.0097367
0.0100641
0.0104788
0.0109587
0.0114579
0.0119204
0.0122977
0.0125646
0.0127299
0.0128359
0.000246588
0.00147824
0.00291342
0.00430648
0.00556728
0.00663586
0.00748682
0.00812708
0.00858711
0.00891079
0.00914777
0.00934986
0.00956779
0.00983766
0.0101748
0.0105764
0.0110141
0.0114423
0.0118129
0.0120925
0.0122767
0.0123963
0.0125105
0.000247873
0.00145038
0.00289706
0.00431174
0.00559009
0.00666773
0.00752043
0.00815942
0.00862066
0.0089529
0.00920825
0.00943699
0.00968457
0.00998072
0.0103313
0.0107231
0.011125
0.0114983
0.0118093
0.0120405
0.0122022
0.012334
0.012492
0.000250606
0.00139222
0.0028635
0.0043147
0.00562129
0.00671503
0.00757425
0.00821563
0.00868147
0.00902573
0.00930248
0.00956015
0.00983973
0.0101666
0.0105375
0.0109298
0.0113136
0.0116643
0.011965
0.0122041
0.0123925
0.0125706
0.0127755
0.000256844
0.0013041
0.0028266
0.00433338
0.00567833
0.00679283
0.00766062
0.00830546
0.00877701
0.00913389
0.00943254
0.00971784
0.0100323
0.0104015
0.0108093
0.0112228
0.0116166
0.0119896
0.0123453
0.0126246
0.0128278
0.0130077
0.0131662
0.000267812
0.00122495
0.00282635
0.00440178
0.00578662
0.00691956
0.0077908
0.0084354
0.0089079
0.00926961
0.00958462
0.00989797
0.0102476
0.0106715
0.0111483
0.0116039
0.012013
0.0123955
0.0127393
0.0129933
0.0131836
0.0133365
0.0134526
0.000275
0.00145928
0.00301071
0.0045508
0.00594377
0.00707681
0.00793882
0.00856861
0.00903041
0.00939336
0.00971972
0.0100601
0.0104398
0.0108664
0.0113274
0.011776
0.0121909
0.0125711
0.0129198
0.0132106
0.0134011
0.0134973
0.0134865
0.000279234
0.00163751
0.00321855
0.00476204
0.00613275
0.00723919
0.00807059
0.00867406
0.0091179
0.00947197
0.00979693
0.0101351
0.0105091
0.0109254
0.01137
0.0118133
0.0122315
0.0126189
0.0129612
0.0132337
0.0134107
0.0134733
0.0134072
0.000277886
0.00172032
0.0033885
0.00494813
0.00628884
0.00735669
0.00815675
0.00873653
0.00916482
0.00951091
0.00983222
0.0101679
0.0105351
0.0109354
0.0113572
0.0117814
0.0121902
0.0125701
0.0129066
0.0131752
0.0133485
0.0134036
0.0133228
0.000275718
0.00178309
0.00351138
0.00507976
0.00639996
0.00743903
0.00821259
0.00877207
0.00918545
0.0095205
0.00983316
0.0101607
0.0105192
0.0109071
0.011313
0.0117226
0.012122
0.0124977
0.0128335
0.0131061
0.0132887
0.0133574
0.0132981
0.000274293
0.00182818
0.00359152
0.00516404
0.00647054
0.00748953
0.00824338
0.00878603
0.00918549
0.0095083
0.00980906
0.0101243
0.0104704
0.0108465
0.0112421
0.0116444
0.0120409
0.0124184
0.0127605
0.013045
0.013247
0.0133447
0.013327
0.000273296
0.00185685
0.00363868
0.00521237
0.00650968
0.00751507
0.00825474
0.00878418
0.00917117
0.00948123
0.00976805
0.0100682
0.0103992
0.0107623
0.0111487
0.0115461
0.0119424
0.0123243
0.0126751
0.0129741
0.0131987
0.0133296
0.0133569
0.000272213
0.00187277
0.00366264
0.00523547
0.00652648
0.00752282
0.00825249
0.00877155
0.00914732
0.00944441
0.00971579
0.00999828
0.0103112
0.0106584
0.0110328
0.0114233
0.011817
0.0122002
0.0125565
0.0128663
0.0131092
0.0132676
0.0133314
0.000270902
0.0018795
0.00367059
0.00524121
0.00652783
0.00751839
0.00824122
0.00875221
0.00911795
0.00940203
0.00965676
0.00991925
0.0102106
0.0105372
0.0108945
0.0112722
0.0116571
0.012035
0.0123894
0.0127022
0.0129545
0.0131301
0.0132184
0.000269414
0.00187985
0.00366746
0.00523478
0.00651823
0.00750525
0.00822363
0.00872846
0.00908533
0.00935674
0.00959414
0.00983473
0.010101
0.0104019
0.0107354
0.0110926
0.0114607
0.0118249
0.012169
0.0124759
0.0127282
0.0129107
0.0130127
0.000267837
0.00187587
0.00365662
0.0052197
0.00650064
0.00748563
0.00820128
0.00870151
0.0090507
0.00931013
0.00953025
0.00974795
0.00998659
0.0102572
0.0105605
0.0108894
0.0112321
0.0115742
0.0118999
0.0121927
0.0124368
0.0126179
0.0127256
0.000266235
0.001869
0.00364051
0.00519848
0.00647721
0.00746115
0.00817531
0.00867221
0.00901491
0.00926341
0.00946704
0.00966205
0.00987206
0.0101096
0.0103776
0.0106715
0.0109814
0.0112938
0.0115937
0.0118657
0.012095
0.0122684
0.0123759
0.000264651
0.00186032
0.00362101
0.00517321
0.00644986
0.00743335
0.0081469
0.0086415
0.00897887
0.00921776
0.00940635
0.00958002
0.00976216
0.00996603
0.0101964
0.0104511
0.0107225
0.010999
0.0112672
0.0115128
0.0117221
0.0118829
0.0119858
0.000263111
0.00185064
0.00359974
0.0051459
0.00642059
0.00740405
0.00811759
0.00861068
0.00894377
0.00917449
0.00934993
0.00950452
0.0096611
0.0098331
0.0100264
0.0102408
0.0104709
0.0107079
0.01094
0.0111549
0.0113401
0.0114845
0.0115794
0.000261641
0.00184076
0.00357847
0.00511888
0.00639191
0.00737558
0.00808941
0.00858146
0.00891111
0.00913502
0.00929934
0.00943762
0.009572
0.00971568
0.00987505
0.0100512
0.0102409
0.0104375
0.0106319
0.0108137
0.0109721
0.0110975
0.0111819
0.000260278
0.00183165
0.00355943
0.00509526
0.00636721
0.00735115
0.00806507
0.00855603
0.00888262
0.00910075
0.00925584
0.00938063
0.00949659
0.00961648
0.00974677
0.0098893
0.0100423
0.0102012
0.0103592
0.010508
0.010639
0.0107441
0.0108164
0.000259101
0.00182479
0.00354597
0.00507965
0.00635141
0.0073352
0.0080482
0.00853712
0.00886025
0.00907305
0.00922032
0.00933411
0.00943525
0.00953602
0.00964272
0.00975754
0.00987965
0.0100059
0.0101314
0.0102501
0.0103552
0.0104403
0.0104999
0.00025828
0.00182249
0.00354333
0.00507908
0.00635172
0.00733396
0.0080435
0.00852794
0.00884601
0.009053
0.00919314
0.00929783
0.00938721
0.00947306
0.00956142
0.00965453
0.00975209
0.00985195
0.0099506
0.0100436
0.0101261
0.0101932
0.0102405
0.000258194
0.00182833
0.00355962
0.00510416
0.00637854
0.00735582
0.00805684
0.0085321
0.00884175
0.00904117
0.00917396
0.00927064
0.00935057
0.00942493
0.0094994
0.00957616
0.00965512
0.00973474
0.00981245
0.00988504
0.00994897
0.0100007
0.010037
0.000259608
0.00184741
0.00360693
0.00517035
0.0064462
0.00741155
0.00809501
0.00855311
0.00884869
0.00903726
0.00916138
0.00925028
0.00932223
0.00938763
0.00945172
0.00951646
0.00958183
0.00964659
0.00970874
0.00976587
0.00981542
0.00985487
0.00988182
0.000263929
0.00188631
0.00370256
0.00529913
0.00657316
0.00751357
0.0081648
0.00859369
0.00886689
0.00903969
0.00915273
0.0092332
0.00929779
0.00935586
0.00941202
0.00946795
0.00952358
0.00957779
0.00962888
0.00967493
0.00971399
0.00974426
0.00976392
0.00027334
0.00195383
0.00387145
0.00551931
0.00678105
0.00767406
0.00827121
0.0086545
0.0088947
0.00904546
0.00914412
0.00921473
0.00927175
0.00932314
0.00937274
0.00942188
0.00947036
0.00951711
0.0095606
0.00959915
0.00963126
0.00965562
0.00967083
0.000290493
0.00206627
0.0041537
0.00586948
0.0070922
0.00790115
0.00841465
0.00873287
0.00892842
0.00905054
0.00913113
0.00918988
0.0092383
0.00928264
0.00932582
0.00936879
0.00941125
0.00945217
0.00949015
0.00952375
0.00955184
0.00957378
0.00958877
0.000318054
0.00226613
0.00462752
0.00640325
0.00752397
0.00819277
0.00858757
0.00882165
0.0089626
0.00905068
0.00910995
0.0091546
0.00919267
0.00922846
0.00926395
0.00929973
0.00933547
0.00937029
0.00940302
0.0094325
0.00945817
0.00948072
0.00950153
0.000359783
0.00268645
0.00547331
0.00719293
0.00807512
0.00852799
0.00877167
0.00890934
0.00899099
0.00904266
0.00907867
0.00910711
0.00913246
0.0091571
0.00918211
0.00920779
0.0092339
0.00925988
0.00928495
0.00930845
0.00933059
0.00935415
0.00938716
0.00042553
0.0039696
0.0071548
0.00829347
0.00869232
0.0088579
0.00893837
0.00898217
0.00900823
0.00902527
0.00903782
0.00904833
0.00905816
0.00906801
0.00907822
0.00908888
0.00909992
0.00911119
0.00912248
0.00913377
0.00914584
0.00916286
0.00920511
0.000636248
0.000613847
0.000592612
0.000579427
0.00354176
0.00331777
0.00329471
0.00340576
0.00695952
0.00686267
0.00691822
0.00700102
0.0102197
0.0102301
0.010224
0.0102098
0.0126685
0.0126726
0.0126496
0.0126139
0.0142174
0.0142556
0.0142549
0.0142298
0.015013
0.0150748
0.0150909
0.015074
0.01517
0.0152268
0.0152371
0.0152123
0.0148226
0.014853
0.0148453
0.0148136
0.0141711
0.0141786
0.0141678
0.0141571
0.0134596
0.0134705
0.0134891
0.013536
0.0128991
0.0129435
0.0130183
0.0131426
0.0126164
0.0127088
0.012845
0.0130373
0.0126489
0.012786
0.012969
0.0131989
0.0129594
0.0131261
0.0133357
0.0135382
0.0132851
0.0134009
0.0135335
0.0136259
0.0134497
0.0134407
0.0134162
0.0133666
0.0133827
0.0132983
0.0131871
0.0130463
0.0132387
0.0131085
0.0129534
0.012774
0.013143
0.0130045
0.0128442
0.0126657
0.0131458
0.0130253
0.0128852
0.0127292
0.0132185
0.0131259
0.0130129
0.0128828
0.013291
0.0132244
0.0131354
0.0130265
0.0132982
0.0132517
0.0131814
0.013089
0.0132077
0.0131755
0.0131191
0.0130402
0.0130168
0.012995
0.0129494
0.0128819
0.0127393
0.0127251
0.0126885
0.0126309
0.0123955
0.0123872
0.0123581
0.0123097
0.0120089
0.0120051
0.0119827
0.0119428
0.0116041
0.0116037
0.0115872
0.0115554
0.0112064
0.0112085
0.0111969
0.0111724
0.010839
0.0108424
0.0108348
0.0108165
0.0105195
0.0105233
0.0105182
0.0105046
0.0102563
0.0102595
0.0102557
0.0102452
0.0100486
0.0100506
0.0100471
0.0100383
0.00988932
0.00988969
0.00988564
0.00987725
0.00976785
0.00976654
0.00976145
0.00975269
0.00967257
0.00967008
0.00966402
0.00965455
0.00959152
0.00958946
0.00958348
0.00957383
0.00951229
0.00951455
0.00951158
0.00950371
0.0094228
0.00943822
0.00944435
0.00944217
0.00932182
0.00936683
0.00938944
0.00939652
0.000955595
0.0015266
0.00223498
0.0030982
0.0042259
0.00566237
0.00715838
0.00837485
0.00924549
0.00967117
0.00835098
0.00636594
0.00552437
0.00531078
0.00517186
0.00480819
0.00399083
0.00247222
0.000333099
0.00379923
0.00431657
0.00494112
0.00576123
0.00686662
0.0081453
0.00929259
0.0101957
0.0110063
0.01113
0.00912144
0.00696999
0.00612993
0.00597824
0.00587598
0.00544965
0.00444227
0.00263688
0.000338446
0.00722965
0.00749445
0.00793366
0.0086422
0.0095759
0.0104911
0.0112377
0.0119395
0.0126329
0.012149
0.00948323
0.00736895
0.0066641
0.0065956
0.00648558
0.00594741
0.00474111
0.00270955
0.000340414
0.0102317
0.0103191
0.0106418
0.0112092
0.0118479
0.0123828
0.012919
0.0136669
0.013931
0.0122496
0.00945263
0.00764215
0.00716233
0.00715983
0.00698854
0.00630096
0.0049043
0.00271196
0.000340026
0.012574
0.0125921
0.0128187
0.013179
0.0135124
0.0138583
0.014447
0.0151595
0.0145386
0.0119757
0.00930038
0.0079007
0.00764795
0.00766013
0.00737867
0.00652364
0.00496
0.00266785
0.00033809
0.0141788
0.014164
0.0142842
0.0144578
0.0146686
0.0151038
0.015918
0.0160804
0.0142426
0.01144
0.00914831
0.00820183
0.00811689
0.00807997
0.00765392
0.00663239
0.00493476
0.00259555
0.000335216
0.0150123
0.0149738
0.015037
0.0151975
0.0155745
0.0163553
0.0169327
0.0158902
0.0134777
0.0108426
0.00909279
0.00855546
0.00854471
0.00840353
0.00781799
0.00664639
0.00485196
0.00250825
0.000331832
0.0151342
0.0151263
0.0152841
0.0156805
0.0164758
0.0172838
0.0168943
0.0150717
0.0125691
0.0103497
0.00918089
0.00892787
0.00889905
0.00862213
0.00788144
0.00658647
0.00473172
0.0024152
0.000328229
0.0147557
0.0148952
0.015326
0.0161398
0.0171596
0.0173133
0.0161354
0.014021
0.0117237
0.0100715
0.00938628
0.00926775
0.00915565
0.0087355
0.00786152
0.00647494
0.00459122
0.00232263
0.000324601
0.0141931
0.0145881
0.0153603
0.0165249
0.0172356
0.0166647
0.0150726
0.0129713
0.0111122
0.0100113
0.00963726
0.0095342
0.00930773
0.00875476
0.00777416
0.00632754
0.00444111
0.00223289
0.000321385
0.0137242
0.0143982
0.0154984
0.016553
0.0166199
0.015633
0.013937
0.0121242
0.010769
0.0100918
0.0098644
0.00970592
0.00936232
0.00869885
0.0076405
0.00616018
0.00428904
0.00214657
0.00031844
0.0134918
0.0143897
0.0155517
0.0160979
0.0156824
0.0145073
0.0129574
0.0115491
0.0106389
0.0102202
0.0100228
0.00978194
0.00933646
0.0085893
0.00747968
0.00598624
0.00414221
0.00206684
0.00031574
0.0135013
0.0144951
0.0153362
0.0153339
0.014648
0.0134904
0.0122255
0.0112216
0.0106278
0.0103254
0.0100977
0.00977647
0.00925209
0.00844688
0.00730747
0.00581545
0.00400504
0.00199489
0.000313255
0.0137084
0.0144917
0.0147151
0.0143762
0.0136248
0.0126569
0.011736
0.0110614
0.0106478
0.0103733
0.0100976
0.00971156
0.0091314
0.00828923
0.00713567
0.00565414
0.00387985
0.00193099
0.000310956
0.0138717
0.0140948
0.0138726
0.0133771
0.0127235
0.012035
0.0114353
0.0109816
0.0106479
0.0103627
0.0100431
0.00961046
0.00899351
0.00812972
0.00697213
0.00550586
0.00376746
0.00187482
0.000308815
0.0136495
0.0134351
0.0129912
0.0124954
0.0120272
0.0116198
0.0112583
0.0109244
0.0106156
0.0103104
0.00995756
0.00949317
0.00885291
0.00797735
0.00682142
0.00537212
0.00366769
0.00182582
0.000306808
0.0132089
0.0127597
0.0122538
0.0118483
0.0115806
0.0113842
0.0111551
0.0108692
0.0105612
0.0102373
0.00986033
0.00937433
0.0087191
0.00783728
0.00668555
0.00525301
0.00357979
0.00178327
0.000304914
0.0127592
0.0122328
0.0117705
0.0114925
0.0113768
0.0112851
0.0110973
0.0108174
0.0105005
0.0101601
0.00976474
0.00926295
0.00859724
0.00771174
0.00656483
0.00514784
0.00350278
0.00174651
0.000303116
0.0124512
0.0119536
0.011585
0.0114116
0.0113599
0.0112753
0.0110706
0.0107756
0.0104449
0.0100889
0.00967783
0.00916326
0.00848922
0.00760096
0.00645855
0.00505551
0.00343561
0.0017149
0.000301397
0.0123584
0.0119385
0.0116545
0.0115234
0.0114513
0.0113132
0.011065
0.0107457
0.0103984
0.0100268
0.00960167
0.009076
0.00839475
0.00750403
0.00636553
0.00497488
0.00337734
0.00168793
0.000299744
0.0124585
0.0121121
0.0118706
0.0117202
0.0115787
0.0113662
0.0110693
0.0107236
0.0103589
0.00997262
0.00953501
0.00899979
0.00831235
0.00741954
0.00628456
0.00490495
0.00332726
0.00166523
0.000298146
0.0126518
0.012353
0.0121136
0.0119115
0.0116907
0.0114093
0.0110699
0.0107011
0.010321
0.00992243
0.0094749
0.00893228
0.00824016
0.00734603
0.00621454
0.00484495
0.00328485
0.00164656
0.000296594
0.0128283
0.0125541
0.012298
0.0120424
0.0117566
0.0114239
0.0110541
0.0106687
0.0102782
0.00987164
0.00941798
0.00887099
0.00817636
0.00728226
0.00615466
0.00479435
0.0032498
0.00163176
0.000295085
0.0129157
0.0126552
0.0123828
0.0120891
0.0117614
0.011398
0.0110117
0.010619
0.0102249
0.0098163
0.00936139
0.00881386
0.00811953
0.00722727
0.00610431
0.0047528
0.00322189
0.00162074
0.000293623
0.0128873
0.0126389
0.0123598
0.0120475
0.0117007
0.011326
0.0109372
0.0105472
0.0101578
0.00975395
0.00930334
0.00875956
0.0080687
0.0071804
0.00606305
0.00472
0.00320091
0.00161337
0.000292214
0.0127469
0.0125133
0.0122386
0.0119251
0.0115782
0.0112085
0.01083
0.0104528
0.0100762
0.00968398
0.00924322
0.00870753
0.00802339
0.00714124
0.00603053
0.00469563
0.00318662
0.00160952
0.000290868
0.0125126
0.0122973
0.0120365
0.0117355
0.011403
0.0110513
0.0106937
0.0103382
0.00998197
0.00960751
0.00918159
0.00865792
0.00798348
0.00710949
0.00600639
0.00467932
0.00317867
0.00160897
0.000289596
0.0122076
0.0120139
0.0117743
0.0114956
0.011188
0.0108641
0.0105357
0.0102088
0.00987881
0.00952698
0.00911984
0.00861134
0.00794906
0.00708497
0.00599024
0.00467061
0.00317664
0.00161149
0.000288407
0.0118566
0.011687
0.0114737
0.0112241
0.0109485
0.0106589
0.0103653
0.0100717
0.00977164
0.00944557
0.00905979
0.00856866
0.00792035
0.00706745
0.00598163
0.00466898
0.00318006
0.00161681
0.000287309
0.0114847
0.0113406
0.0111565
0.0109398
0.0107003
0.0104484
0.0101924
0.00993407
0.00966556
0.0093665
0.00900328
0.0085307
0.00789751
0.00705668
0.00598007
0.00467383
0.00318843
0.00162464
0.000286308
0.0111162
0.0109974
0.0108434
0.0106607
0.0104582
0.0102446
0.010026
0.00980258
0.00956502
0.00929257
0.00895184
0.00849813
0.00788058
0.00705229
0.00598499
0.00468456
0.00320121
0.00163469
0.00028541
0.0107729
0.0106776
0.010552
0.0104019
0.0102345
0.0100569
0.00987332
0.00968212
0.00947324
0.00922572
0.00890649
0.00847128
0.00786943
0.00705386
0.00599578
0.00470052
0.00321789
0.00164668
0.000284616
0.010471
0.0103957
0.010295
0.0101737
0.0100374
0.00989142
0.00973839
0.00957548
0.00939198
0.00916695
0.00886765
0.00845015
0.00786375
0.00706085
0.0060118
0.00472109
0.00323795
0.00166033
0.000283929
0.0102189
0.010159
0.0100783
0.00998049
0.00986983
0.00975013
0.00962256
0.00948342
0.00932163
0.00911637
0.00883522
0.00843444
0.00786306
0.00707266
0.00603239
0.00474563
0.0032609
0.00167539
0.000283347
0.0100164
0.00996729
0.00990144
0.00982157
0.00973089
0.00963193
0.00952478
0.00940504
0.00926147
0.00907338
0.00880866
0.00842359
0.00786673
0.00708859
0.00605685
0.0047735
0.00328625
0.00169158
0.000282869
0.00985749
0.00981497
0.00975916
0.00969223
0.0096165
0.00953348
0.0094424
0.00933837
0.00921003
0.0090369
0.00878708
0.0084168
0.00787399
0.00710787
0.00608443
0.00480406
0.00331352
0.00170866
0.000282492
0.00973321
0.00969379
0.00964412
0.0095861
0.00952135
0.00945052
0.00937213
0.00928093
0.0091655
0.00900556
0.0087694
0.00841312
0.00788392
0.0071296
0.00611427
0.00483654
0.00334214
0.00172633
0.000282211
0.0096342
0.00959539
0.00954899
0.00949694
0.0094403
0.00937896
0.00931086
0.00923038
0.00912614
0.00897803
0.0087545
0.0084115
0.00789546
0.00715269
0.0061453
0.00487003
0.00337144
0.00174423
0.00028202
0.00955265
0.00951319
0.00946828
0.00942026
0.00936978
0.00931606
0.00925649
0.0091852
0.00909077
0.00895332
0.00874145
0.00841093
0.00790745
0.00717582
0.00617614
0.00490322
0.00340038
0.0017618
0.000281905
0.00948366
0.00944387
0.00939978
0.00935467
0.00930899
0.00926145
0.00920895
0.00914541
0.00905946
0.00893137
0.00872989
0.00841066
0.00791867
0.00719735
0.0062049
0.0049342
0.00342735
0.00177803
0.00028185
0.00942723
0.00938884
0.00934582
0.00930299
0.00926094
0.00921804
0.00917094
0.00911339
0.00903408
0.00891343
0.00872034
0.00841033
0.00792785
0.00721518
0.00622893
0.0049602
0.00344983
0.00179111
0.000281813
0.00939001
0.00935509
0.00931366
0.00927248
0.00923257
0.00919231
0.00914824
0.0090941
0.00901863
0.00890238
0.00871433
0.00840997
0.00793343
0.00722633
0.00624425
0.00497714
0.00346474
0.00179975
0.000281709
)
;

boundaryField
{
    leftWall
    {
        type            nutkWallFunction;
        Cmu             0.09;
        kappa           0.41;
        E               9.8;
        value           nonuniform List<scalar> 
50
(
6.37952e-06
1.75144e-05
1.90198e-05
1.98567e-05
2.03874e-05
2.07497e-05
2.10097e-05
2.1206e-05
2.1377e-05
2.15372e-05
2.27821e-05
2.66061e-05
2.68429e-05
2.69251e-05
2.70016e-05
2.71092e-05
2.72279e-05
2.73417e-05
2.74431e-05
2.75312e-05
2.76152e-05
2.77262e-05
2.79605e-05
2.89992e-05
2.92969e-05
3.03455e-05
3.10241e-05
3.09317e-05
3.06184e-05
3.03957e-05
3.02499e-05
3.01022e-05
2.99264e-05
2.97269e-05
2.95156e-05
2.93012e-05
2.90894e-05
2.88835e-05
2.86866e-05
2.85029e-05
2.83414e-05
2.82227e-05
2.81927e-05
2.83492e-05
2.88789e-05
3.00849e-05
3.23499e-05
3.6049e-05
4.16486e-05
5.03301e-05
)
;
    }
    rightWall
    {
        type            nutkWallFunction;
        Cmu             0.09;
        kappa           0.41;
        E               9.8;
        value           nonuniform List<scalar> 
50
(
0
2.3024e-05
2.73104e-05
3.01617e-05
3.22672e-05
3.38928e-05
3.51721e-05
3.61922e-05
3.75516e-05
3.82835e-05
3.85932e-05
3.8602e-05
3.84108e-05
3.80967e-05
3.77138e-05
3.7299e-05
3.68764e-05
3.64791e-05
3.61195e-05
3.57919e-05
3.54915e-05
3.52137e-05
3.4955e-05
3.47121e-05
3.44823e-05
3.42634e-05
3.40533e-05
3.38504e-05
3.3653e-05
3.34602e-05
3.32717e-05
3.30881e-05
3.29105e-05
3.27402e-05
3.25788e-05
3.24274e-05
3.22874e-05
3.21594e-05
3.20442e-05
3.19423e-05
3.18538e-05
3.17787e-05
3.1717e-05
3.16682e-05
3.16318e-05
3.16069e-05
3.1592e-05
3.15849e-05
3.15803e-05
3.15671e-05
)
;
    }
    lowerWall
    {
        type            nutkWallFunction;
        Cmu             0.09;
        kappa           0.41;
        E               9.8;
        value           nonuniform List<scalar> 
62
(
6.37952e-06
8.27845e-06
9.33836e-06
9.99647e-06
1.04801e-05
1.09018e-05
1.13316e-05
1.18136e-05
1.23676e-05
1.29878e-05
1.36429e-05
1.42811e-05
1.48311e-05
1.51954e-05
1.52864e-05
1.51019e-05
1.47141e-05
1.42035e-05
1.36346e-05
1.30459e-05
1.24526e-05
1.17949e-05
1.11848e-05
1.11848e-05
2.88758e-05
3.04747e-05
3.06114e-05
3.12363e-05
3.28882e-05
3.61075e-05
4.25951e-05
6.39598e-05
6.20461e-05
6.0209e-05
5.90765e-05
3.06994e-05
8.86178e-05
8.78364e-05
8.45984e-05
7.93435e-05
7.37345e-05
6.71638e-05
5.72938e-05
3.06994e-05
4.52652e-05
5.741e-05
6.72018e-05
6.99355e-05
5.9111e-05
4.75961e-05
4.17645e-05
4.05722e-05
3.63972e-05
3.13211e-05
2.54514e-05
1.91037e-05
1.32303e-05
8.85621e-06
6.17299e-06
4.44825e-06
2.68907e-06
0
)
;
    }
    atmosphere
    {
        type            calculated;
        value           nonuniform List<scalar> 
46
(
0.009
0.009
0.009
0.009
0.009
0.009
0.009
0.009
0.009
0.009
0.009
0.009
0.009
0.009
0.009
0.009
0.009
0.009
0.009
0.009
0.009
0.009
0.009
0.00932182
0.00936683
0.00938944
0.00939652
0.00939001
0.00935509
0.00931366
0.00927248
0.00923257
0.00919231
0.00914824
0.0090941
0.00901863
0.00890238
0.00871433
0.00840997
0.00793343
0.00722633
0.00624425
0.00497714
0.00346474
0.00179975
0.000281709
)
;
    }
    defaultFaces
    {
        type            empty;
    }
}


// ************************************************************************* //
