/*--------------------------------*- C++ -*----------------------------------*\
  =========                 |
  \\      /  F ield         | OpenFOAM: The Open Source CFD Toolbox
   \\    /   O peration     | Website:  https://openfoam.org
    \\  /    A nd           | Version:  13
     \\/     M anipulation  |
\*---------------------------------------------------------------------------*/
FoamFile
{
    format      ascii;
    class       volScalarField;
    location    "0.15";
    object      p;
}
// * * * * * * * * * * * * * * * * * * * * * * * * * * * * * * * * * * * * * //

dimensions      [1 -1 -2 0 0 0 0];

internalField   nonuniform List<scalar> 
2268
(
11277.7
11316.3
11347.3
11364.8
11356.5
11319.4
11252.7
11156
11026.6
10856.9
10630.5
10317.6
9868.62
9208.26
8255.97
7036.61
5759.03
4647.31
3790.07
3173.22
2767.67
2610.66
3199.19
10473.5
10501
10515.1
10516
10492.4
10439.1
10352.9
10230.6
10066.7
9852.21
9571.4
9198.33
8694
8003.48
7063.96
5897.73
4698.3
3665.32
2866.73
2281.56
1976.34
2009.93
2606.5
9670.25
9693.94
9692
9672.67
9627.89
9551.76
9439.17
9284.66
9081.24
8819.13
8484.12
8055.17
7505.93
6803.63
5891.19
4769.34
3632.28
2684.25
2001.69
1640.62
1605.29
1787.69
2225.5
8867.12
8892.99
8879.57
8841.46
8774.89
8674.63
8534.85
8349.09
8109.55
7806.24
7426.69
6954.46
6376.74
5682.61
4799.11
3683.06
2580.79
1785.91
1419.44
1386.63
1512.55
1691.35
1990.81
8065.02
8095.28
8074.52
8020.93
7934.64
7811.97
7647.34
7434.26
7164.55
6828.18
6413.9
5909.05
5317.79
4655.15
3806.63
2675.76
1695.63
1284.97
1253.69
1338.19
1457.82
1615.1
1809.42
7265.41
7300.12
7274.25
7207.88
7104.16
6961.14
6774.1
6536.87
6241.08
5876.5
5432.07
4897.99
4303.93
3704.11
2921.01
1860.83
1250.72
1180.06
1228.17
1300.11
1408.34
1535.97
1648.7
6467.83
6506.3
6476.12
6398.51
6278.74
6116.39
5907.66
5646.96
5325.89
4935.18
4462.96
3901.15
3319.14
2829.7
2189.06
1411.43
1164.28
1166.47
1198.59
1261.16
1350.06
1446.14
1485.24
5665.55
5705.86
5671.23
5582.62
5446.44
5263.49
5031.17
4744.98
4398.86
3990.03
3508.2
2946.91
2418.33
2091.11
1676.72
1244.84
1145.58
1138.25
1164.25
1214.27
1278.01
1331.63
1276.99
-76.8462
-77.7176
-78.2574
-78.7102
-74.9869
-50.7141
30.2318
37.4872
25.7401
17.4858
13.3478
11.7069
11.1408
10.8215
10.5503
10.3354
10.1829
10.0893
10.057
-77.0611
-77.9034
-78.4817
-79.3618
-75.9311
-60.5663
13.609
30.5961
23.6927
16.5905
12.8172
11.411
10.9883
10.7197
10.4679
10.2619
10.1128
10.0203
9.98724
-77.463
-78.1326
-78.6268
-78.3237
-73.9279
-63.1616
-6.47954
14.8481
17.4341
16.1055
12.1016
10.865
10.699
10.5367
10.3322
10.1507
10.0134
9.92702
9.89796
-77.8585
-78.2537
-78.5736
-76.3855
-73.0532
-59.3547
-18.2775
0.831636
12.5376
15.5782
11.6752
10.2064
10.3083
10.2823
10.1462
10.0021
9.8847
9.81014
9.79021
-78.098
-78.2726
-78.6248
-78.7479
-74.9764
-55.7415
-23.8247
-3.2154
14.3855
11.7325
10.6737
9.4983
9.8622
9.97618
9.91969
9.8213
9.73012
9.67202
9.66377
-77.8732
-78.4159
-80.3551
-84.5841
-73.0775
-52.4886
-26.8274
-4.25229
17.009
10.4428
8.65285
8.89308
9.42947
9.64431
9.66599
9.61576
9.55429
9.51546
9.51962
-80.2537
-81.1626
-89.1769
-84.0713
-67.2159
-49.0217
-27.8743
-4.71395
13.9607
8.41668
7.59188
8.44132
9.02751
9.31138
9.39825
9.39308
9.36187
9.34332
9.35943
-107.596
-92.7639
-88.1109
-75.2549
-59.8808
-44.5664
-26.861
-5.62952
6.21353
7.20879
7.44587
8.14548
8.67582
8.99347
9.12712
9.16052
9.15798
9.15921
9.18548
4412.99
4453.91
4411.69
4307.28
4148.2
3937.63
3676.14
3363.58
3004.1
2620.41
2233.74
1874.85
1649.71
1539.83
1354.39
1149.35
1093.25
1087.86
1103.28
1128.03
1144.55
1091.41
686.773
2791.77
2840.41
2791.97
2691.14
2546.38
2369.35
2173.38
1971.69
1784
1626.27
1474.67
1350.28
1282.66
1213.58
1112.22
1044.73
1017.47
1012.72
1015.68
1019.16
1006.79
947.47
795.154
1724.56
1756.9
1730.33
1687.2
1628.24
1560.34
1489.72
1420.52
1367.84
1343.67
1319.85
1283.45
1220.71
1136.98
1042.81
974.096
943.86
931.683
924.878
916.543
895.604
846.097
744.986
1317.75
1334.55
1335.76
1339.38
1342.83
1344.19
1341.83
1333.02
1313.43
1273.99
1222.83
1160.15
1090.61
1013.45
934.775
883.685
859.203
844.601
832.636
817.844
791.498
742.085
655.051
1205.66
1219.71
1230.1
1238.37
1241.83
1238.28
1226.07
1204.25
1172.86
1133.29
1085.44
1029.69
967.784
899.026
830.363
789.325
770.094
755.626
741.004
722.527
693.254
644.763
568.707
1087.79
1096.53
1103.69
1108.46
1108.79
1103.06
1090
1068.76
1039.5
1002.95
959.347
909.031
852.526
789.15
728.665
696.879
681.366
667.399
651.396
630.731
600.33
554.395
488.81
968.581
975.25
980.269
982.678
980.973
973.981
960.741
940.634
913.497
879.545
839.095
792.635
740.206
681.188
630.883
607.843
594.751
581.23
564.897
543.611
513.787
471.896
415.72
848.289
853.798
857.473
858.433
855.486
847.74
834.482
815.263
789.929
758.557
721.442
678.968
630.541
576.709
537.899
521.599
510.331
497.468
481.575
460.989
433.195
395.866
347.331
727.697
732.253
734.803
734.635
730.788
722.597
709.552
691.36
667.953
639.435
606.067
568.02
524.095
477.094
449.473
438.003
428.181
416.083
401.002
381.789
356.72
324.144
282.413
607.566
611.346
612.902
611.797
607.236
598.755
586.019
568.905
547.475
521.988
492.735
459.595
420.971
382.825
365.435
357.123
348.282
336.857
322.635
305.024
283.015
255.344
220.307
488.539
491.766
492.433
490.543
485.367
476.62
464.147
447.995
428.503
406.198
381.53
353.993
321.778
294.638
284.971
278.807
270.587
259.542
245.91
229.691
210.461
187.41
159.317
370.659
373.692
373.562
371.061
365.352
356.372
344.13
328.996
311.651
293.051
273.705
252.781
228.815
212.875
207.799
202.986
194.952
183.748
170.019
154.279
136.52
116.663
95.4643
253.555
257.114
255.974
252.94
246.832
237.804
226.148
212.714
198.543
184.771
171.873
158.483
143.669
136.159
133.455
129.023
120.644
108.732
94.3058
78.6677
62.2368
45.9392
32.8665
140.667
146.174
143.322
139.751
133.743
125.777
116.347
107.128
98.9686
91.2057
85.1792
79.6273
70.5623
66.0347
63.8803
59.486
51.5381
40.8766
29.335
18.5061
10.8465
6.76518
5.74457
49.4421
55.5657
52.7519
50.5193
47.1056
43.1669
39.2738
35.7824
33.2322
30.1949
28.6328
28.5664
25.0303
20.0281
16.6077
13.6221
10.5467
7.71162
5.69896
3.26854
1.85953
1.21224
0.996928
5.71405
7.52107
7.31764
6.86701
5.89378
4.71552
3.53607
2.43049
2.43563
2.5093
2.59561
2.60834
2.81267
3.22382
2.93787
2.47297
2.0576
1.7298
1.61531
1.60548
1.8382
2.06558
2.01354
2.40954
2.5867
2.35451
2.34743
2.3569
2.39957
2.47622
2.54772
2.56906
2.57727
2.56395
2.53313
2.45371
2.25493
2.09862
2.08667
2.21786
2.4216
2.45437
2.36983
2.27282
2.14712
2.01063
2.35616
2.39228
2.3735
2.40226
2.42587
2.44986
2.47221
2.4934
2.4984
2.5032
2.48733
2.46975
2.45677
2.46427
2.46235
2.46285
2.45551
2.42207
2.34398
2.25956
2.17083
2.07192
1.98433
2.27541
2.29948
2.28914
2.30323
2.31781
2.3381
2.36452
2.38165
2.40432
2.4017
2.39586
2.38013
2.35735
2.33908
2.32101
2.30634
2.29381
2.26507
2.22256
2.16081
2.10009
2.03629
1.9789
2.20548
2.21283
2.20904
2.21563
2.22485
2.23957
2.26019
2.28283
2.29383
2.3016
2.29863
2.28434
2.26298
2.23765
2.21303
2.19435
2.18055
2.16455
2.13403
2.09612
2.05208
2.00684
1.97355
2.13159
2.13156
2.13114
2.13587
2.14368
2.15534
2.17052
2.18645
2.19862
2.20451
2.20265
2.19256
2.17587
2.15529
2.1349
2.11748
2.10259
2.08678
2.06503
2.03717
2.0056
1.97481
1.95601
2.05411
2.05148
2.05155
2.05556
2.0624
2.07191
2.08342
2.09488
2.10337
2.10754
2.10638
2.09965
2.08827
2.07373
2.05831
2.04375
2.03009
2.0156
1.99801
1.97762
1.9561
1.93701
1.92888
1.97352
1.96964
1.96897
1.9718
1.97717
1.98444
1.99289
2.00112
2.00735
2.01057
2.01012
2.00591
1.9984
1.98849
1.97744
1.96635
1.95547
1.94407
1.93133
1.9177
1.90452
1.89447
1.89382
1.88968
1.88521
1.88369
1.88528
1.88914
1.89448
1.90061
1.90658
1.91134
1.91409
1.9144
1.91218
1.90771
1.90152
1.89436
1.88691
1.87945
1.87184
1.8639
1.85616
1.84963
1.84624
1.85045
1.80249
1.79782
1.79565
1.79621
1.7988
1.80265
1.80713
1.81161
1.81541
1.81799
1.81903
1.81847
1.81645
1.81333
1.80955
1.80553
1.80153
1.79764
1.79399
1.79106
1.7896
1.79096
1.79826
1.71199
1.70737
1.70479
1.70457
1.70619
1.70895
1.71233
1.71586
1.7191
1.7217
1.72343
1.72424
1.72423
1.72361
1.72265
1.72163
1.72074
1.72016
1.72008
1.72091
1.72321
1.72785
1.737
1.61839
1.61394
1.61113
1.61039
1.61131
1.61332
1.61598
1.61894
1.6219
1.62464
1.62701
1.62897
1.63057
1.63196
1.63328
1.63473
1.63644
1.63857
1.6413
1.64496
1.64992
1.65675
1.66696
1.52192
1.51772
1.51484
1.51377
1.51423
1.51574
1.51795
1.5206
1.52348
1.52643
1.52936
1.53224
1.53512
1.53807
1.54118
1.54457
1.54832
1.55254
1.55738
1.56306
1.56982
1.57803
1.58869
1.42286
1.41894
1.4161
1.41487
1.41505
1.41625
1.41821
1.42072
1.42362
1.42681
1.43021
1.43383
1.43768
1.44181
1.44627
1.45111
1.45637
1.46212
1.46844
1.47548
1.4834
1.49237
1.50313
1.32148
1.31787
1.31516
1.31387
1.3139
1.31494
1.31679
1.31926
1.32225
1.32566
1.32947
1.33365
1.33822
1.3432
1.34861
1.35448
1.36079
1.36758
1.37487
1.38277
1.39133
1.40066
1.41122
1.21805
1.21475
1.21222
1.21096
1.21095
1.21193
1.21375
1.21625
1.21935
1.22297
1.22709
1.23168
1.23676
1.24232
1.24838
1.25491
1.2619
1.26933
1.2772
1.28554
1.29438
1.30373
1.31393
1.11281
1.10983
1.1075
1.10634
1.10635
1.10735
1.10919
1.11177
1.11499
1.11878
1.12313
1.128
1.13341
1.13935
1.14579
1.15272
1.16008
1.16783
1.17595
1.18444
1.19327
1.20244
1.21211
1.00598
1.00331
1.00121
1.00017
1.00026
1.00133
1.00325
1.00592
1.00924
1.01317
1.01767
1.02273
1.02833
1.03447
1.0411
1.0482
1.0557
1.06354
1.07167
1.08008
1.08871
1.09751
1.1066
0.897788
0.895382
0.893521
0.892633
0.892841
0.894016
0.896038
0.8988
0.902221
0.906245
0.910841
0.915989
0.921674
0.927871
0.934546
0.941646
0.949107
0.956855
0.96483
0.972986
0.981274
0.989611
0.998032
0.788431
0.786216
0.784608
0.783879
0.78424
0.785553
0.787691
0.790546
0.794037
0.798113
0.802745
0.807909
0.813587
0.819747
0.826347
0.833328
0.84062
0.848143
0.855827
0.863621
0.871459
0.879251
0.886983
0.678143
0.675932
0.674607
0.674047
0.674592
0.67607
0.678332
0.681266
0.684799
0.688885
0.693499
0.698618
0.704217
0.71026
0.716699
0.72347
0.730497
0.737699
0.745002
0.752346
0.759669
0.766872
0.773888
0.567261
0.564568
0.563612
0.56325
0.564022
0.565687
0.568069
0.57106
0.5746
0.578655
0.583204
0.588225
0.593688
0.599553
0.605766
0.612258
0.618951
0.625762
0.632618
0.639461
0.646231
0.652839
0.659178
0.456031
0.452047
0.45171
0.451592
0.452637
0.454503
0.456987
0.460003
0.463512
0.467496
0.471939
0.47682
0.482102
0.487741
0.493676
0.499836
0.506142
0.512513
0.518878
0.525185
0.531394
0.53744
0.543186
0.344025
0.338215
0.339044
0.339193
0.340514
0.342561
0.345111
0.348109
0.35155
0.355431
0.359739
0.364446
0.369514
0.374889
0.380507
0.386293
0.392169
0.398058
0.403897
0.409644
0.415282
0.420837
0.426212
0.230638
0.221921
0.225368
0.226065
0.227635
0.229794
0.232353
0.235298
0.238649
0.24241
0.246564
0.25108
0.25591
0.260995
0.266263
0.271641
0.277049
0.282416
0.287687
0.292827
0.297893
0.303197
0.308849
0.120431
0.0971217
0.10884
0.111857
0.113923
0.116184
0.118739
0.121623
0.124877
0.128509
0.132498
0.136802
0.141366
0.146124
0.151003
0.155924
0.16081
0.165594
0.170231
0.174714
0.179286
0.185159
0.193595
0.0317629
-0.0428682
-0.0105318
-0.00299141
0.00028355
0.00291216
0.00554541
0.00838858
0.0115368
0.0150084
0.0187792
0.022802
0.027015
0.0313472
0.035722
0.0400603
0.0442868
0.0483448
0.0522259
0.0560277
0.0602471
0.0672665
0.0832927
-272.528
-343.639
-205.485
-123.262
524.765
380.568
296.42
219.057
543.162
399.308
298.258
235.249
525.643
434.859
361.754
298.859
473.051
405.029
347.183
294.224
414.251
361.49
314.775
269.907
354.525
311.078
271.52
232.538
295.437
258.405
223.791
188.586
238.076
206.125
175.039
141.549
183.299
156.088
128.029
95.6026
130.825
109.107
85.0327
55.7715
77.5403
63.9973
48.1261
27.3033
25.4918
23.3878
20.3129
11.095
8.77629
15.0224
15.8842
5.46792
0.914903
1.55595
2.60941
2.48987
1.9325
1.90543
1.89899
1.90563
1.93844
1.92338
1.93065
1.95695
1.94112
1.9363
1.94673
1.96246
1.96281
1.96077
1.9658
1.97414
1.96743
1.96718
1.97111
1.97738
1.95604
1.95794
1.96288
1.96969
1.93372
1.93773
1.94382
1.95176
1.90177
1.90719
1.91412
1.9229
1.86014
1.86639
1.87373
1.8829
1.80872
1.81535
1.82287
1.83202
1.7477
1.75445
1.76185
1.77071
1.67753
1.68419
1.69137
1.69973
1.59892
1.60538
1.61223
1.62003
1.51286
1.51903
1.52552
1.53272
1.4204
1.42625
1.43231
1.43891
1.32251
1.32799
1.33364
1.33965
1.22005
1.22516
1.23037
1.23582
1.11387
1.11857
1.12335
1.12827
1.00466
1.00893
1.01325
1.01765
0.892939
0.896774
0.90064
0.904523
0.779165
0.782553
0.785942
0.789318
0.663768
0.666689
0.669593
0.672426
0.547114
0.54955
0.551906
0.55415
0.42951
0.431408
0.433148
0.434707
0.311387
0.312545
0.313465
0.314247
0.194193
0.193654
0.193195
0.193241
0.0881939
0.0836581
0.0790414
0.0755319
-94.9002
-74.7619
-63.5816
-56.1207
-47.9322
-38.0008
-24.1611
-3.73609
4.73391
6.25393
7.3584
7.79769
8.20938
8.53363
8.71386
8.79634
8.83399
8.86347
8.90124
92.4561
28.6865
-0.117594
-18.22
-27.6415
-30.2736
-21.9658
-2.22036
5.69678
6.32059
6.91778
7.30693
7.68904
7.99789
8.19879
8.31745
8.38966
8.44345
8.49151
149.538
76.8648
31.9497
1.55166
-18.7442
-28.0876
-17.0021
-0.106036
5.13654
6.35301
6.60737
6.89886
7.23279
7.51006
7.70937
7.8444
7.9368
8.00519
8.05839
202.993
118.082
56.9896
12.4979
-17.9467
-25.9549
-5.66273
4.29574
5.45815
5.93679
6.20315
6.51353
6.81437
7.06397
7.25546
7.39561
7.49709
7.57125
7.6241
212.721
128.736
60.1026
7.10033
-23.3667
-15.5281
1.22075
4.50207
5.48465
5.632
5.86761
6.1601
6.42882
6.65604
6.83767
6.97633
7.07941
7.15344
7.20286
199.168
117.994
45.3892
-8.12593
-21.1616
-3.09514
3.46426
4.66218
5.04873
5.27183
5.55069
5.826
6.07102
6.28071
6.45177
6.58522
6.68549
6.75614
6.8009
169.821
90.3924
18.0341
-18.747
-5.96561
3.05509
3.98186
4.35697
4.65886
4.9605
5.25106
5.51138
5.73912
5.93406
6.09428
6.22054
6.31559
6.38122
6.42102
129.652
51.1095
-7.10851
-7.50133
2.8252
3.65511
3.82077
4.09006
4.39954
4.70176
4.97769
5.221
5.43288
5.61371
5.76283
5.88084
5.9694
6.02932
6.06437
82.6265
13.0192
-7.77365
2.26289
3.41699
3.63145
3.70439
3.92941
4.20651
4.47958
4.7314
4.95529
5.15087
5.31767
5.45545
5.56461
5.64615
5.70016
5.73085
38.3063
-1.97761
0.865155
2.95682
3.46681
3.47172
3.57909
3.79563
4.03855
4.28088
4.5075
4.71146
4.89059
5.04365
5.17016
5.27029
5.34467
5.39329
5.41905
10.2947
0.834944
2.66256
3.10831
3.2183
3.29353
3.45913
3.66204
3.88036
4.09736
4.30135
4.48637
4.64956
4.78928
4.90479
4.99604
5.06337
5.10672
5.12853
3.91735
2.89328
2.89936
2.95268
3.03768
3.16791
3.33905
3.53036
3.7296
3.92549
4.10964
4.27721
4.42536
4.55234
4.65731
4.74
4.80056
4.83894
4.85747
2.84436
2.69683
2.81951
2.83455
2.92294
3.06081
3.22513
3.40368
3.58606
3.76355
3.93006
4.08167
4.21581
4.33082
4.4258
4.50038
4.55456
4.58836
4.60405
2.50707
2.51878
2.61244
2.69368
2.81306
2.95584
3.11485
3.28195
3.44914
3.61024
3.76086
3.89787
4.01903
4.12287
4.2085
4.27548
4.32373
4.35333
4.36648
2.24682
2.33443
2.45243
2.57252
2.70794
2.85464
3.00877
3.16502
3.31826
3.4645
3.60063
3.72421
3.83339
3.92685
4.00378
4.06369
4.10645
4.13223
4.14308
2.04196
2.19435
2.33563
2.47156
2.61452
2.76083
2.90804
3.05305
3.19298
3.3254
3.44815
3.55932
3.65742
3.74128
3.81014
3.86351
3.90122
3.9235
3.9323
2.01087
2.13461
2.26108
2.39621
2.53604
2.67579
2.81306
2.94592
3.07276
3.19207
3.30231
3.40198
3.48982
3.56481
3.62619
3.67352
3.7066
3.72572
3.73268
2.00159
2.10022
2.21423
2.33983
2.46946
2.59798
2.72293
2.84286
2.95676
3.06358
3.16208
3.25107
3.32941
3.39619
3.45068
3.49244
3.52128
3.53753
3.54287
1.99994
2.08039
2.18141
2.29367
2.40961
2.52448
2.63591
2.74268
2.84398
2.93892
3.02646
3.10552
3.17509
3.2343
3.28246
3.3191
3.34407
3.35774
3.36162
1.99843
2.06577
2.15299
2.25054
2.3517
2.45227
2.55009
2.64403
2.73332
2.81712
2.89447
2.96437
3.02587
3.07812
3.12045
3.15242
3.17388
3.18521
3.18783
1.98959
2.04751
2.12191
2.20529
2.29213
2.37893
2.4638
2.54568
2.62378
2.69727
2.76523
2.82671
2.88081
2.9267
2.96371
2.99143
3.0097
3.01895
3.02046
1.97125
2.0212
2.08426
2.15482
2.2286
2.3028
2.3758
2.44662
2.51447
2.57854
2.63794
2.69176
2.73911
2.7792
2.81139
2.83526
2.85067
2.85806
2.85861
1.94191
1.98496
2.03818
2.09755
2.15983
2.22282
2.28521
2.34609
2.4047
2.46026
2.51192
2.5588
2.60005
2.6349
2.66272
2.68312
2.69598
2.70173
2.70147
1.90116
1.93819
1.98304
2.03282
2.08517
2.13841
2.19146
2.24353
2.29392
2.34188
2.3866
2.42725
2.46302
2.49315
2.51705
2.53435
2.54494
2.54926
2.54832
1.84916
1.88104
1.91884
1.96054
2.00444
2.04929
2.09424
2.13861
2.18176
2.22298
2.26153
2.29662
2.32748
2.3534
2.37381
2.38836
2.39696
2.40005
2.39853
1.78658
1.81405
1.84597
1.88092
1.91771
1.95544
1.99344
2.03113
2.06795
2.10326
2.13636
2.16652
2.19302
2.2152
2.23252
2.24466
2.25152
2.25355
2.25159
1.71425
1.73802
1.76506
1.79443
1.8253
1.85702
1.8891
1.92105
1.95239
1.98252
2.01083
2.03665
2.05931
2.07819
2.09279
2.10281
2.10818
2.10931
2.10701
1.63325
1.65389
1.67691
1.70168
1.72763
1.75433
1.78139
1.80844
1.83503
1.86067
1.8848
1.9068
1.92608
1.94206
1.95429
1.96248
1.96657
1.96696
1.96441
1.54468
1.5627
1.58239
1.60336
1.62524
1.64773
1.67056
1.69341
1.71593
1.73767
1.75815
1.77683
1.79315
1.8066
1.81676
1.82337
1.82638
1.82618
1.82346
1.4497
1.46546
1.48239
1.5002
1.51869
1.53765
1.55689
1.57617
1.59517
1.61354
1.63085
1.64662
1.66037
1.67162
1.67999
1.68526
1.68738
1.6867
1.68389
1.34933
1.36316
1.37773
1.3929
1.40854
1.42452
1.44071
1.45691
1.47289
1.48834
1.50289
1.51614
1.52764
1.53699
1.54383
1.54796
1.54934
1.54831
1.54546
1.24452
1.25662
1.26917
1.28209
1.2953
1.30873
1.3223
1.33586
1.34923
1.36214
1.3743
1.38535
1.39491
1.40261
1.40814
1.41132
1.41211
1.41081
1.408
1.13602
1.14658
1.15736
1.16831
1.17941
1.19064
1.20195
1.21322
1.22432
1.23503
1.24511
1.25425
1.26212
1.26841
1.27283
1.27522
1.27554
1.27407
1.27134
1.02451
1.03365
1.04281
1.05202
1.06127
1.07057
1.0799
1.08918
1.0983
1.10709
1.11536
1.12284
1.12926
1.13434
1.13782
1.13956
1.13952
1.13796
1.13536
0.910499
0.918293
0.925976
0.933597
0.941191
0.948782
0.956365
0.963894
0.971283
0.978405
0.985092
0.991137
0.996303
1.00034
1.00304
1.00427
1.00397
1.00239
0.999943
0.794428
0.800914
0.807197
0.813354
0.819442
0.8255
0.831535
0.83752
0.84339
0.849047
0.854359
0.859155
0.863238
0.866398
0.868451
0.86927
0.868816
0.867266
0.86502
0.676622
0.681813
0.686746
0.69153
0.696236
0.700909
0.705562
0.710179
0.714713
0.719087
0.723196
0.726908
0.730059
0.732478
0.734003
0.734523
0.733989
0.732541
0.73052
0.557351
0.561215
0.564831
0.568316
0.571747
0.575165
0.578583
0.581988
0.585344
0.588592
0.591653
0.594423
0.596775
0.598569
0.599674
0.599988
0.599455
0.598165
0.5964
0.436779
0.439279
0.441604
0.443865
0.446123
0.448408
0.450723
0.453055
0.455374
0.457636
0.459781
0.461734
0.463401
0.464677
0.465456
0.465652
0.465196
0.464121
0.462638
0.315225
0.316281
0.317273
0.318326
0.31947
0.320702
0.322011
0.323375
0.324767
0.326154
0.327496
0.328742
0.329831
0.330692
0.331253
0.33144
0.331168
0.330398
0.329249
0.193567
0.192828
0.192204
0.191891
0.191836
0.191981
0.19228
0.192697
0.193203
0.193772
0.194382
0.195007
0.195621
0.196191
0.196681
0.197036
0.19716
0.196915
0.196278
0.0708013
0.0676605
0.0657922
0.0644936
0.0635614
0.0628886
0.0624071
0.0620746
0.0618651
0.061763
0.0617604
0.0618545
0.0620461
0.0623356
0.0627184
0.0631747
0.0636383
0.0639591
0.0639528
)
;

boundaryField
{
    leftWall
    {
        type            calculated;
        value           nonuniform List<scalar> 
50
(
11277.7
10473.5
9670.25
8867.12
8065.02
7265.41
6467.83
5665.55
4412.99
2791.77
1724.56
1317.75
1205.66
1087.79
968.581
848.289
727.697
607.566
488.539
370.659
253.555
140.667
49.4421
5.71405
2.40954
2.35616
2.27541
2.20548
2.13159
2.05411
1.97352
1.88968
1.80249
1.71199
1.61839
1.52192
1.42286
1.32148
1.21805
1.11281
1.00598
0.897788
0.788431
0.678143
0.567261
0.456031
0.344025
0.230638
0.120431
0.0317629
)
;
    }
    rightWall
    {
        type            calculated;
        value           nonuniform List<scalar> 
50
(
10.057
9.98724
9.89796
9.79021
9.66377
9.51962
9.35943
9.18548
8.90124
8.49151
8.05839
7.6241
7.20286
6.8009
6.42102
6.06437
5.73085
5.41905
5.12853
4.85747
4.60405
4.36648
4.14308
3.9323
3.73268
3.54287
3.36162
3.18783
3.02046
2.85861
2.70147
2.54832
2.39853
2.25159
2.10701
1.96441
1.82346
1.68389
1.54546
1.408
1.27134
1.13536
0.999943
0.86502
0.73052
0.5964
0.462638
0.329249
0.196278
0.0639528
)
;
    }
    lowerWall
    {
        type            calculated;
        value           nonuniform List<scalar> 
62
(
11675.8
11714.4
11745.5
11762.9
11754.7
11717.5
11650.8
11554.2
11424.7
11255
11028.7
10715.8
10266.8
9606.41
8654.12
7434.76
6157.18
5045.46
4188.22
3571.37
3165.82
2956.29
3250.63
3199.19
2606.5
2225.5
1990.81
1809.42
1648.7
1485.24
1276.99
-241.23
-312.341
-174.186
-91.9632
-76.8462
-77.0611
-77.463
-77.8585
-78.098
-77.8732
-80.2537
-107.596
-76.8167
-77.6882
-78.228
-78.6808
-74.9575
-50.6846
30.2613
37.5166
25.7695
17.5152
13.3772
11.7364
11.1702
10.8509
10.5797
10.3648
10.2124
10.1187
10.0864
)
;
    }
    atmosphere
    {
        type            calculated;
        value           nonuniform List<scalar> 
46
(
-0.034761
-0.0666455
-0.0600912
-0.0573487
-0.0550289
-0.0527523
-0.0502966
-0.047557
-0.0444978
-0.041129
-0.037489
-0.0336341
-0.0296314
-0.025555
-0.0214847
-0.0175039
-0.0137
-0.0101629
-0.00698732
-0.00427559
-0.00214446
-0.00072377
-8.83413e-05
0
0
0
0
0
0
0
0
0
0
0
0
0
0
0
0
0
0
0
0
0
0
0
)
;
    }
    defaultFaces
    {
        type            empty;
    }
}


// ************************************************************************* //
