/*--------------------------------*- C++ -*----------------------------------*\
  =========                 |
  \\      /  F ield         | OpenFOAM: The Open Source CFD Toolbox
   \\    /   O peration     | Website:  https://openfoam.org
    \\  /    A nd           | Version:  13
     \\/     M anipulation  |
\*---------------------------------------------------------------------------*/
FoamFile
{
    format      ascii;
    class       volScalarField;
    location    "0.15";
    object      p_rgh;
}
// * * * * * * * * * * * * * * * * * * * * * * * * * * * * * * * * * * * * * //

dimensions      [1 -1 -2 0 0 0 0];

internalField   nonuniform List<scalar> 
2268
(
11675.8
11714.4
11745.5
11762.9
11754.7
11717.5
11650.8
11554.2
11424.7
11255
11028.7
10715.8
10266.8
9606.41
8654.12
7434.76
6157.18
5045.46
4188.22
3571.37
3165.82
2956.29
3250.63
11668
11695.5
11709.5
11710.4
11686.9
11633.6
11547.4
11425
11261.2
11046.7
10765.8
10392.8
9888.45
9197.93
8258.41
7092.18
5892.75
4859.76
4061.18
3476.01
3017.49
2408.64
2660.07
11661
11684.7
11682.7
11663.4
11618.6
11542.5
11429.9
11275.4
11072
10809.9
10474.9
10045.9
9496.68
8794.38
7881.94
6760.09
5623.03
4675
3969.36
2987.6
1877.36
1861.26
2299.07
11654.2
11680
11666.6
11628.5
11561.9
11461.7
11321.9
11136.1
10896.6
10593.3
10213.7
9741.5
9163.79
8469.65
7586.11
6470.05
5367.8
4442.14
2891.13
1593.46
1615.55
1794.35
2093.81
11648.4
11678.6
11657.9
11604.3
11518
11395.3
11230.7
11017.6
10747.9
10411.5
9997.25
9492.4
8901.13
8238.5
7389.72
6258.73
5002.29
2841.35
1445.48
1470.62
1590.25
1747.53
1941.86
11645.1
11679.8
11653.9
11587.5
11483.8
11340.8
11153.7
10916.5
10620.7
10256.1
9811.72
9277.64
8683.57
8083.76
7300.26
5988.24
3092.97
1377.11
1390.03
1461.97
1570.21
1697.83
1810.56
11643.8
11682.2
11652.1
11574.5
11454.7
11292.3
11083.6
10822.9
10501.8
10111.1
9638.91
9077.1
8495.09
8005.54
7360.59
4331.74
1468.37
1357.76
1389.89
1452.45
1541.35
1637.43
1676.53
11637.8
11678.1
11643.5
11554.9
11418.7
11235.7
11003.4
10717.2
10371.1
9962.28
9480.45
8919.16
8365.09
7979.11
6884.47
2558.12
1366.3
1358.97
1384.97
1434.99
1498.73
1552.35
1497.71
-76.8167
-77.6882
-78.228
-78.6808
-74.9575
-50.6846
30.2613
37.5166
25.7695
17.5152
13.3772
11.7364
11.1702
10.8509
10.5797
10.3648
10.2124
10.1187
10.0864
-76.9728
-77.8151
-78.3934
-79.2735
-75.8428
-53.8143
29.8396
35.5251
23.781
16.6788
12.9055
11.4993
11.0766
10.808
10.5562
10.3502
10.2011
10.1086
10.0755
-77.3158
-77.9855
-78.4796
-78.1765
-66.5733
-4.37156
67.0939
86.1332
27.1561
16.2526
12.2488
11.0121
10.8462
10.6838
10.4793
10.2978
10.1605
10.0742
10.0451
-77.6525
-78.0477
-78.3676
-76.1795
-14.9292
43.6481
84.7252
103.834
87.658
18.1957
11.8812
10.4124
10.5143
10.4883
10.3522
10.2081
10.0907
10.0161
9.99622
-77.8332
-78.0077
-78.3599
-50.495
43.1906
76.6906
108.607
129.217
134.993
23.7307
10.9386
9.76318
10.1271
10.241
10.1846
10.0862
9.99498
9.93688
9.92864
-77.5495
-78.0921
-57.7452
42.5648
88.784
109.373
135.034
157.609
152.239
24.4081
8.97664
9.21681
9.7532
9.96803
9.98972
9.93949
9.87801
9.83918
9.84335
-79.8711
-51.2281
58.1581
107.22
124.075
142.269
163.417
186.577
98.1799
10.1865
7.97449
8.82391
9.41009
9.69396
9.78084
9.77566
9.74445
9.7259
9.74201
0.976958
92.1268
132.609
145.465
160.839
176.154
193.859
211.833
53.2979
7.65027
7.88732
8.58693
9.11727
9.43491
9.56856
9.60196
9.59942
9.60065
9.62693
11630.3
11671.2
11629
11524.6
11365.5
11154.9
10893.4
10580.9
10221.4
9777.51
9048.17
7671.8
5662.4
5165.63
4325.39
1767.73
1359.98
1354.6
1370.02
1394.77
1411.28
1358.14
953.506
11625
11695.9
11644.9
11508.5
11261.4
10860.2
10235.8
9307.91
7929.59
5972.43
4074.9
2393.67
1941.34
1872.22
1658.44
1407.54
1357
1342.05
1345.01
1348.49
1336.12
1276.8
1124.48
6536.03
6830.08
6789.25
6430.55
5747.48
4847.61
3853.17
2887.3
2151.7
2127.53
2103.71
2067.3
2004.56
1920.84
1736.69
1387.24
1339.59
1325.27
1316.81
1308.47
1287.53
1238.03
1136.91
2226.8
2243.6
2244.81
2248.43
2251.88
2253.24
2250.88
2242.07
2222.48
2183.04
2131.88
2069.2
1999.66
1922.5
1750.74
1368.89
1314.01
1299.54
1287.23
1272.37
1246.02
1196.61
1109.58
2239.9
2253.95
2264.34
2272.62
2276.07
2272.52
2260.32
2238.5
2207.1
2167.53
2119.69
2063.93
2002.03
1933.27
1721.27
1327.81
1287.22
1272.75
1258.13
1239.65
1210.38
1161.89
1085.83
2247.23
2255.97
2263.13
2267.9
2268.22
2262.5
2249.44
2228.2
2198.94
2162.39
2118.79
2068.47
2011.97
1948.59
1621.7
1280.05
1261.09
1247.12
1231.12
1210.45
1180.05
1134.11
1068.53
2253.21
2259.88
2264.9
2267.31
2265.61
2258.62
2245.38
2225.27
2198.13
2164.18
2123.73
2077.27
2024.84
1960.13
1478.45
1250.16
1237.07
1223.55
1207.21
1185.93
1156.1
1114.21
1058.04
2258.12
2263.63
2267.3
2268.26
2265.32
2257.57
2244.31
2225.09
2199.76
2168.39
2131.27
2088.8
2040.37
1909.28
1355.69
1226.51
1215.25
1202.38
1186.49
1165.9
1138.11
1100.78
1052.25
2262.72
2267.28
2269.83
2269.66
2265.81
2257.62
2244.57
2226.38
2202.98
2174.46
2141.09
2103.04
2059.11
1800.61
1256.9
1205.51
1195.69
1183.6
1168.51
1149.3
1124.23
1091.66
1049.93
2267.78
2271.56
2273.12
2272.01
2267.45
2258.97
2246.24
2229.12
2207.69
2182.21
2152.95
2119.78
2081.17
1623.58
1199.33
1187.23
1178.39
1166.97
1152.74
1135.13
1113.12
1085.45
1050.42
2273.95
2277.18
2277.85
2275.96
2270.78
2262.03
2249.56
2233.41
2213.92
2191.61
2166.94
2139.07
2084.38
1421.55
1177.68
1171.51
1163.29
1152.25
1138.62
1122.4
1103.17
1080.12
1052.02
2281.27
2284.3
2284.17
2281.67
2275.96
2266.98
2254.74
2239.6
2222.26
2203.66
2184.31
2162.58
1970.54
1273.72
1163.1
1158.29
1150.26
1139.05
1125.32
1109.58
1091.82
1071.97
1050.77
2289.36
2292.92
2291.78
2288.74
2282.63
2273.61
2261.95
2248.52
2234.34
2220.57
2207.67
2192.24
1831.79
1189.61
1151.36
1146.92
1138.54
1126.63
1112.21
1096.57
1080.14
1063.84
1048.73
2301.66
2307.17
2304.32
2300.75
2294.74
2286.77
2277.34
2268.12
2259.96
2250.52
2239.1
2229.94
1778.78
1163.65
1144.36
1139.98
1132.04
1121.37
1109.83
1076.17
986.625
803.479
527.069
1852.38
1929.96
1971.03
1959.28
1915.34
1836.31
1724.56
1582.35
1379.05
1184.47
1066.8
1105.52
1091.04
982.549
1023.22
1008.91
952.466
842.189
644.26
405.745
193.738
30.4913
3.28312
135.169
193.721
228.08
220.114
187.204
133.885
72.1687
11.8017
4.84702
4.92069
5.007
5.01973
29.493
122.084
162.17
149.629
100.789
31.4154
4.0267
4.01686
4.24958
4.47696
4.42496
4.94612
5.12328
4.89109
4.88401
4.89348
4.93615
5.0128
5.0843
5.10564
5.11385
5.10053
5.06971
4.99029
4.79141
4.79873
4.64881
4.75737
4.9585
4.99097
4.90641
4.8094
4.6837
4.54744
5.01794
5.05405
5.03528
5.06403
5.08765
5.11164
5.13398
5.15517
5.16017
5.16497
5.1491
5.13153
5.11858
5.12615
5.12621
5.1276
5.11764
5.08389
5.00576
4.92134
4.8326
4.7337
4.64662
5.06238
5.08645
5.07611
5.0902
5.10478
5.12507
5.15149
5.16861
5.19128
5.18867
5.18283
5.16711
5.14437
5.12605
5.10798
5.09333
5.08079
5.05204
5.00953
4.94778
4.88706
4.82326
4.76587
5.11765
5.12499
5.1212
5.12779
5.13702
5.15173
5.17235
5.19499
5.20599
5.21377
5.21079
5.1965
5.17515
5.14981
5.1252
5.10652
5.09272
5.07671
5.04619
5.00828
4.96424
4.91901
4.88571
5.16895
5.16892
5.16849
5.17323
5.18104
5.1927
5.20787
5.22381
5.23597
5.24187
5.24001
5.22992
5.21323
5.19265
5.17226
5.15484
5.13994
5.12414
5.10238
5.07453
5.04296
5.01217
4.99337
5.21666
5.21403
5.21411
5.21811
5.22495
5.23446
5.24597
5.25744
5.26592
5.27009
5.26893
5.2622
5.25082
5.23629
5.22086
5.2063
5.19264
5.17816
5.16056
5.14017
5.11865
5.09956
5.09143
5.26127
5.25738
5.25672
5.25955
5.26492
5.27219
5.28063
5.28887
5.2951
5.29832
5.29787
5.29365
5.28615
5.27624
5.26518
5.2541
5.24321
5.23182
5.21908
5.20545
5.19227
5.18222
5.18157
5.30262
5.29815
5.29663
5.29822
5.30208
5.30743
5.31355
5.31953
5.32428
5.32703
5.32734
5.32512
5.32065
5.31446
5.3073
5.29985
5.29239
5.28478
5.27685
5.2691
5.26257
5.25919
5.26339
5.34063
5.33596
5.33379
5.33434
5.33694
5.34078
5.34527
5.34975
5.35355
5.35613
5.35717
5.3566
5.35459
5.35147
5.34768
5.34366
5.33966
5.33577
5.33212
5.32919
5.32774
5.3291
5.3364
5.37532
5.37071
5.36812
5.3679
5.36952
5.37228
5.37566
5.37919
5.38243
5.38503
5.38676
5.38757
5.38756
5.38694
5.38598
5.38496
5.38408
5.38349
5.38341
5.38424
5.38654
5.39118
5.40033
5.40691
5.40247
5.39966
5.39891
5.39984
5.40184
5.4045
5.40746
5.41043
5.41317
5.41553
5.41749
5.4191
5.42048
5.42181
5.42325
5.42497
5.42709
5.42982
5.43349
5.43844
5.44527
5.45548
5.43564
5.43144
5.42856
5.42749
5.42795
5.42946
5.43167
5.43432
5.4372
5.44015
5.44308
5.44596
5.44884
5.45179
5.4549
5.45829
5.46204
5.46626
5.4711
5.47678
5.48354
5.49174
5.50241
5.46177
5.45785
5.45502
5.45378
5.45396
5.45517
5.45713
5.45964
5.46254
5.46572
5.46913
5.47275
5.4766
5.48073
5.48518
5.49002
5.49529
5.50103
5.50735
5.5144
5.52231
5.53129
5.54204
5.48559
5.48198
5.47927
5.47798
5.47801
5.47905
5.4809
5.48337
5.48636
5.48977
5.49357
5.49775
5.50232
5.50731
5.51272
5.51858
5.5249
5.53169
5.53898
5.54687
5.55544
5.56477
5.57533
5.50735
5.50406
5.50152
5.50027
5.50025
5.50124
5.50305
5.50556
5.50866
5.51228
5.51639
5.52098
5.52606
5.53162
5.53768
5.54422
5.55121
5.55863
5.5665
5.57484
5.58368
5.59304
5.60323
5.5273
5.52433
5.522
5.52084
5.52084
5.52184
5.52369
5.52627
5.52949
5.53328
5.53762
5.5425
5.54791
5.55385
5.56029
5.56721
5.57458
5.58233
5.59045
5.59893
5.60777
5.61693
5.62661
5.54567
5.543
5.5409
5.53986
5.53995
5.54102
5.54294
5.54561
5.54893
5.55286
5.55737
5.56242
5.56803
5.57416
5.58079
5.58789
5.59539
5.60323
5.61136
5.61977
5.6284
5.63721
5.64629
5.56267
5.56027
5.55841
5.55752
5.55773
5.5589
5.56092
5.56369
5.56711
5.57113
5.57573
5.58088
5.58656
5.59276
5.59943
5.60653
5.61399
5.62174
5.62972
5.63787
5.64616
5.6545
5.66292
5.57851
5.5763
5.57469
5.57396
5.57432
5.57563
5.57777
5.58063
5.58412
5.58819
5.59283
5.59799
5.60367
5.60983
5.61643
5.62341
5.6307
5.63822
5.64591
5.6537
5.66154
5.66933
5.67706
5.59342
5.59121
5.58988
5.58932
5.58987
5.59135
5.59361
5.59654
5.60007
5.60416
5.60877
5.61389
5.61949
5.62554
5.63197
5.63875
5.64577
5.65297
5.66028
5.66762
5.67494
5.68215
5.68916
5.60773
5.60504
5.60408
5.60372
5.60449
5.60616
5.60854
5.61153
5.61507
5.61913
5.62367
5.62869
5.63416
5.64002
5.64624
5.65273
5.65942
5.66623
5.67309
5.67993
5.6867
5.69331
5.69965
5.6217
5.61771
5.61737
5.61726
5.6183
5.62017
5.62265
5.62567
5.62918
5.63316
5.6376
5.64248
5.64777
5.65341
5.65934
5.6655
5.67181
5.67818
5.68454
5.69085
5.69706
5.7031
5.70885
5.63488
5.62907
5.6299
5.63005
5.63137
5.63342
5.63597
5.63897
5.64241
5.64629
5.6506
5.65531
5.66037
5.66575
5.67137
5.67715
5.68303
5.68892
5.69476
5.7005
5.70614
5.7117
5.71707
5.64669
5.63797
5.64142
5.64212
5.64369
5.64585
5.64841
5.65135
5.6547
5.65846
5.66262
5.66713
5.67196
5.67705
5.68232
5.68769
5.6931
5.69847
5.70374
5.70888
5.71395
5.71925
5.7249
5.66168
5.63837
5.65009
5.65311
5.65517
5.65743
5.65999
5.66287
5.66613
5.66976
5.67375
5.67805
5.68261
5.68737
5.69225
5.69717
5.70206
5.70684
5.71148
5.71596
5.72053
5.72641
5.73484
5.69821
5.62357
5.65591
5.66345
5.66673
5.66935
5.67199
5.67483
5.67798
5.68145
5.68522
5.68924
5.69346
5.69779
5.70216
5.7065
5.71073
5.71479
5.71867
5.72247
5.72669
5.73371
5.74974
-5.79489
-76.9057
61.2484
143.472
854.096
709.899
625.751
548.388
935.09
791.236
690.186
627.177
980.168
889.384
816.28
753.385
990.173
922.151
864.306
811.347
993.971
941.21
894.495
849.627
996.843
953.395
913.837
874.856
1000.35
963.319
928.705
893.5
1005.59
973.637
942.551
909.061
1013.41
986.196
958.138
925.712
1023.53
1001.81
977.739
948.478
1032.84
1019.3
1003.43
982.607
1040.93
1041.29
1038.21
766.508
509.979
601.104
550.789
134.948
3.20105
3.84214
4.8956
4.77658
4.34458
4.31837
4.31084
4.68373
4.48188
4.48249
4.5014
4.59752
4.62108
4.62108
4.60851
4.62423
4.74978
4.74774
4.75277
4.76111
4.87959
4.87934
4.88327
4.88954
4.9934
4.9953
5.00024
5.00705
5.09627
5.10028
5.10637
5.11431
5.18952
5.19493
5.20187
5.21065
5.27308
5.27933
5.28668
5.29584
5.34686
5.35348
5.361
5.37016
5.41103
5.41778
5.42518
5.43404
5.46606
5.47271
5.4799
5.48826
5.51263
5.5191
5.52595
5.53375
5.55177
5.55795
5.56443
5.57164
5.58451
5.59036
5.59642
5.60302
5.61181
5.6173
5.62295
5.62895
5.63455
5.63966
5.64487
5.65032
5.65357
5.65826
5.66304
5.66796
5.66954
5.67382
5.67814
5.68254
5.68302
5.68686
5.69072
5.6946
5.69444
5.69783
5.70122
5.70459
5.70424
5.70716
5.71006
5.7129
5.71278
5.71521
5.71757
5.71981
5.72037
5.72227
5.72401
5.72557
5.72744
5.7286
5.72952
5.7303
5.73544
5.7349
5.73444
5.73449
5.75464
5.7501
5.74548
5.74197
171.833
191.972
203.152
210.613
218.801
228.733
242.572
215.095
30.5769
6.78742
7.89187
8.33116
8.74285
9.0671
9.24733
9.32981
9.36746
9.39694
9.4347
421.787
358.017
329.213
311.111
301.689
299.057
307.365
155.017
6.63797
6.97925
7.57645
7.96559
8.3477
8.65655
8.85745
8.97611
9.04832
9.10211
9.15017
541.466
468.793
423.878
393.48
373.184
363.84
317.253
47.3143
5.92045
7.13687
7.39123
7.68271
8.01665
8.29391
8.49323
8.62826
8.72066
8.78904
8.84225
657.518
572.607
511.515
467.023
436.579
428.57
174.111
5.20489
6.3672
6.84584
7.11221
7.42258
7.72342
7.97302
8.16451
8.30466
8.40614
8.4803
8.53315
729.843
645.858
577.225
524.223
493.756
328.553
20.1883
5.5364
6.5189
6.66624
6.90185
7.19435
7.46307
7.69028
7.87191
8.01057
8.11366
8.18768
8.23711
778.888
697.714
625.109
571.594
468.312
76.274
4.62385
5.82162
6.20817
6.43127
6.71013
6.98544
7.23046
7.44015
7.61121
7.74466
7.84493
7.91558
7.96034
812.138
732.709
660.351
584.233
164.616
4.33988
5.2665
5.64161
5.9435
6.24513
6.53569
6.79601
7.02376
7.2187
7.37892
7.50517
7.60022
7.66585
7.70565
834.566
756.024
692.568
270.426
4.23517
5.06494
5.2306
5.49989
5.80937
6.11159
6.38751
6.63083
6.84271
7.02354
7.17266
7.29067
7.37923
7.43915
7.4742
850.138
780.531
396.722
8.31331
4.9521
5.16648
5.23941
5.46443
5.74153
6.0146
6.26643
6.49031
6.6859
6.85269
6.99047
7.09963
7.18117
7.23519
7.26587
868.415
540.73
32.5363
4.61718
5.12703
5.13195
5.23931
5.45585
5.69877
5.9411
6.16772
6.37168
6.55081
6.70387
6.83038
6.93051
7.00489
7.05351
7.07927
792.152
108.227
4.44814
4.89373
5.00371
5.07895
5.24455
5.44745
5.66577
5.88277
6.08676
6.27178
6.43497
6.57469
6.69021
6.78145
6.84879
6.89213
6.91394
335.708
4.80399
4.80997
4.86329
4.94829
5.07852
5.24966
5.44097
5.64021
5.8361
6.02024
6.18782
6.33596
6.46295
6.56791
6.65061
6.71116
6.74955
6.76808
41.1601
4.73272
4.85532
4.87035
4.95874
5.09661
5.26093
5.43948
5.62187
5.79935
5.96586
6.11748
6.25161
6.36662
6.4616
6.53618
6.59036
6.62416
6.63985
4.66837
4.67981
4.77344
4.85468
4.97406
5.11684
5.27585
5.44294
5.61014
5.77124
5.92186
6.05887
6.18003
6.28387
6.36949
6.43648
6.48472
6.51432
6.52747
4.82027
4.62062
4.73862
4.85871
4.99413
5.14084
5.29496
5.45121
5.60445
5.75069
5.88682
6.0104
6.11958
6.21305
6.28997
6.34988
6.39264
6.41842
6.42927
4.69481
4.60573
4.74701
4.88294
5.0259
5.17221
5.31942
5.46444
5.60437
5.73679
5.85953
5.97071
6.0688
6.15267
6.22152
6.27489
6.3126
6.33488
6.34369
4.54745
4.67119
4.79766
4.93279
5.07262
5.21237
5.34964
5.4825
5.60934
5.72865
5.83889
5.93856
6.0264
6.10139
6.16277
6.2101
6.24318
6.2623
6.26926
4.66337
4.76199
4.87601
5.0016
5.13124
5.25976
5.3847
5.50464
5.61854
5.72535
5.82386
5.91284
5.99119
6.05796
6.11246
6.15422
6.18306
6.19931
6.20464
4.78691
4.86735
4.96837
5.08064
5.19658
5.31145
5.42288
5.52965
5.63095
5.72589
5.81343
5.89249
5.96206
6.02127
6.06942
6.10607
6.13104
6.14471
6.14859
4.91059
4.97794
5.06515
5.16271
5.26386
5.36443
5.46225
5.5562
5.64549
5.72929
5.80663
5.87653
5.93803
5.99028
6.03261
6.06459
6.08604
6.09737
6.09999
5.02695
5.08487
5.15927
5.24264
5.32948
5.41629
5.50116
5.58304
5.66114
5.73462
5.80259
5.86407
5.91817
5.96405
6.00107
6.02879
6.04706
6.05631
6.05782
5.1338
5.18375
5.24681
5.31737
5.39115
5.46535
5.53835
5.60917
5.67702
5.74109
5.80049
5.85431
5.90167
5.94176
5.97394
5.99781
6.01322
6.02061
6.02116
5.22966
5.2727
5.32593
5.38529
5.44757
5.51057
5.57295
5.63383
5.69245
5.74801
5.79967
5.84655
5.8878
5.92265
5.95047
5.97087
5.98372
5.98948
5.98921
5.3141
5.35113
5.39598
5.44576
5.49811
5.55135
5.6044
5.65647
5.70687
5.75483
5.79955
5.84019
5.87596
5.90609
5.92999
5.94729
5.95788
5.96221
5.96126
5.3873
5.41917
5.45697
5.49867
5.54257
5.58742
5.63237
5.67674
5.71989
5.76112
5.79967
5.83476
5.86562
5.89153
5.91195
5.9265
5.9351
5.93818
5.93667
5.44991
5.47738
5.5093
5.54425
5.58104
5.61877
5.65677
5.69446
5.73128
5.76659
5.79969
5.82985
5.85635
5.87853
5.89585
5.90799
5.91485
5.91688
5.91492
5.50277
5.52654
5.55359
5.58296
5.61382
5.64555
5.67762
5.70958
5.74091
5.77105
5.79936
5.82518
5.84783
5.86671
5.88131
5.89134
5.8967
5.89784
5.89553
5.54697
5.56761
5.59063
5.6154
5.64135
5.66804
5.69511
5.72215
5.74875
5.77439
5.79852
5.82052
5.8398
5.85578
5.86801
5.8762
5.88029
5.88068
5.87813
5.58359
5.60161
5.62131
5.64227
5.66415
5.68664
5.70947
5.73232
5.75484
5.77659
5.79706
5.81574
5.83206
5.84551
5.85567
5.86228
5.8653
5.8651
5.86237
5.61381
5.62957
5.64649
5.66431
5.6828
5.70176
5.721
5.74028
5.75928
5.77765
5.79496
5.81073
5.82447
5.83572
5.8441
5.84937
5.85149
5.85081
5.848
5.63864
5.65246
5.66703
5.68221
5.69784
5.71382
5.73001
5.74622
5.7622
5.77765
5.7922
5.80544
5.81694
5.82629
5.83313
5.83726
5.83864
5.83761
5.83477
5.65901
5.67112
5.68367
5.69659
5.70979
5.72323
5.7368
5.75036
5.76373
5.77664
5.7888
5.79985
5.80941
5.81711
5.82264
5.82582
5.8266
5.82531
5.8225
5.67571
5.68628
5.69705
5.708
5.7191
5.73033
5.74164
5.75291
5.76401
5.77472
5.7848
5.79394
5.80182
5.8081
5.81252
5.81491
5.81523
5.81376
5.81103
5.6894
5.69853
5.7077
5.7169
5.72616
5.73546
5.74478
5.75406
5.76318
5.77198
5.78024
5.78773
5.79415
5.79922
5.80271
5.80445
5.80441
5.80285
5.80024
5.70058
5.70837
5.71606
5.72368
5.73127
5.73886
5.74645
5.75398
5.76136
5.76849
5.77517
5.78122
5.78638
5.79042
5.79312
5.79435
5.79406
5.79247
5.79002
5.7097
5.71619
5.72247
5.72863
5.73472
5.74078
5.74681
5.7528
5.75867
5.76432
5.76963
5.77443
5.77851
5.78167
5.78373
5.78455
5.78409
5.78254
5.7803
5.71709
5.72228
5.72722
5.732
5.73671
5.74138
5.74603
5.75065
5.75518
5.75956
5.76367
5.76738
5.77053
5.77295
5.77447
5.77499
5.77446
5.77301
5.77099
5.72302
5.72688
5.7305
5.73398
5.73741
5.74083
5.74425
5.74765
5.75101
5.75426
5.75732
5.76009
5.76244
5.76423
5.76534
5.76565
5.76512
5.76383
5.76206
5.72764
5.73014
5.73246
5.73472
5.73698
5.73927
5.74158
5.74391
5.74623
5.74849
5.75064
5.75259
5.75426
5.75554
5.75632
5.75651
5.75605
5.75498
5.7535
5.73128
5.73234
5.73333
5.73438
5.73552
5.73676
5.73806
5.73943
5.74082
5.74221
5.74355
5.7448
5.74588
5.74675
5.74731
5.74749
5.74722
5.74645
5.7453
5.73482
5.73408
5.73345
5.73314
5.73308
5.73323
5.73353
5.73394
5.73445
5.73502
5.73563
5.73626
5.73687
5.73744
5.73793
5.73828
5.73841
5.73816
5.73753
5.73724
5.7341
5.73223
5.73094
5.73
5.72933
5.72885
5.72852
5.72831
5.72821
5.7282
5.7283
5.72849
5.72878
5.72916
5.72962
5.73008
5.7304
5.7304
)
;

boundaryField
{
    leftWall
    {
        type            fixedFluxPressure;
        gradient        uniform 0;
        value           nonuniform List<scalar> 
50
(
11675.8
11668
11661
11654.2
11648.4
11645.1
11643.8
11637.8
11630.3
11625
6536.03
2226.8
2239.9
2247.23
2253.21
2258.12
2262.72
2267.78
2273.95
2281.27
2289.36
2301.66
1852.38
135.169
4.94612
5.01794
5.06238
5.11765
5.16895
5.21666
5.26127
5.30262
5.34063
5.37532
5.40691
5.43564
5.46177
5.48559
5.50735
5.5273
5.54567
5.56267
5.57851
5.59342
5.60773
5.6217
5.63488
5.64669
5.66168
5.69821
)
;
    }
    rightWall
    {
        type            fixedFluxPressure;
        gradient        uniform 0;
        value           nonuniform List<scalar> 
50
(
10.0864
10.0755
10.0451
9.99622
9.92864
9.84335
9.74201
9.62693
9.4347
9.15017
8.84225
8.53315
8.23711
7.96034
7.70565
7.4742
7.26587
7.07927
6.91394
6.76808
6.63985
6.52747
6.42927
6.34369
6.26926
6.20464
6.14859
6.09999
6.05782
6.02116
5.98921
5.96126
5.93667
5.91492
5.89553
5.87813
5.86237
5.848
5.83477
5.8225
5.81103
5.80024
5.79002
5.7803
5.77099
5.76206
5.7535
5.7453
5.73753
5.7304
)
;
    }
    lowerWall
    {
        type            fixedFluxPressure;
        gradient        uniform 0;
        value           nonuniform List<scalar> 
62
(
11675.8
11714.4
11745.5
11762.9
11754.7
11717.5
11650.8
11554.2
11424.7
11255
11028.7
10715.8
10266.8
9606.41
8654.12
7434.76
6157.18
5045.46
4188.22
3571.37
3165.82
2956.29
3250.63
3250.63
2660.07
2299.07
2093.81
1941.86
1810.56
1676.53
1497.71
-5.79489
-76.9057
61.2484
143.472
-76.8167
-76.9728
-77.3158
-77.6525
-77.8332
-77.5495
-79.8711
0.976958
-76.8167
-77.6882
-78.228
-78.6808
-74.9575
-50.6846
30.2613
37.5166
25.7695
17.5152
13.3772
11.7364
11.1702
10.8509
10.5797
10.3648
10.2124
10.1187
10.0864
)
;
    }
    atmosphere
    {
        type            prghTotalPressure;
        rho             rho;
        psi             none;
        gamma           1;
        p0              uniform 0;
        value           nonuniform List<scalar> 
46
(
5.69428
5.66239
5.66895
5.67169
5.67401
5.67629
5.67874
5.68148
5.68454
5.68791
5.69155
5.69541
5.69941
5.70348
5.70756
5.71154
5.71534
5.71888
5.72205
5.72476
5.7269
5.72832
5.72895
5.72904
5.72904
5.72904
5.72904
5.72904
5.72904
5.72904
5.72904
5.72904
5.72904
5.72904
5.72904
5.72904
5.72904
5.72904
5.72904
5.72904
5.72904
5.72904
5.72904
5.72904
5.72904
5.72904
)
;
        rho             rho;
    }
    defaultFaces
    {
        type            empty;
    }
}


// ************************************************************************* //
