/*--------------------------------*- C++ -*----------------------------------*\
  =========                 |
  \\      /  F ield         | OpenFOAM: The Open Source CFD Toolbox
   \\    /   O peration     | Website:  https://openfoam.org
    \\  /    A nd           | Version:  13
     \\/     M anipulation  |
\*---------------------------------------------------------------------------*/
FoamFile
{
    format      ascii;
    class       volVectorField;
    location    "0.15";
    object      U;
}
// * * * * * * * * * * * * * * * * * * * * * * * * * * * * * * * * * * * * * //

dimensions      [0 1 -1 0 0 0 0];

internalField   nonuniform List<vector> 
2268
(
(-0.00472421 0.00116905 0)
(0.00484722 -0.00515329 0)
(0.0302448 -0.00904016 0)
(0.0604745 -0.0106763 0)
(0.0947081 -0.0116379 0)
(0.132296 -0.0125855 0)
(0.173902 -0.0139819 0)
(0.2212 -0.0162055 0)
(0.276627 -0.0195381 0)
(0.343001 -0.0240863 0)
(0.423022 -0.0296739 0)
(0.51851 -0.0357976 0)
(0.62999 -0.0416254 0)
(0.754885 -0.0451677 0)
(0.883469 -0.0434259 0)
(0.999332 -0.035827 0)
(1.08822 -0.0254196 0)
(1.1454 -0.0155539 0)
(1.1748 -0.00859908 0)
(1.18395 -0.00623604 0)
(1.17721 -0.010701 0)
(1.1506 -0.00360774 0)
(0.987952 0.112614 0)
(0.00397705 -0.00121095 0)
(0.0203322 -0.012989 0)
(0.0468064 -0.0198566 0)
(0.077307 -0.0235112 0)
(0.111639 -0.0261449 0)
(0.149691 -0.0288637 0)
(0.192113 -0.0324256 0)
(0.24012 -0.037387 0)
(0.295307 -0.0441011 0)
(0.359435 -0.0526481 0)
(0.434159 -0.0627269 0)
(0.520549 -0.0736159 0)
(0.619016 -0.0841017 0)
(0.728267 -0.0906964 0)
(0.84082 -0.0869964 0)
(0.942045 -0.0709136 0)
(1.01969 -0.0493787 0)
(1.0715 -0.0296725 0)
(1.10205 -0.0142801 0)
(1.11443 0.000160419 0)
(1.10113 0.0234671 0)
(1.02987 0.113791 0)
(0.573045 0.670518 0)
(0.0115754 -0.0092869 0)
(0.0320846 -0.0241379 0)
(0.0597261 -0.0330239 0)
(0.0904535 -0.0384586 0)
(0.12465 -0.0427782 0)
(0.162533 -0.0473579 0)
(0.204711 -0.0531524 0)
(0.252077 -0.0608618 0)
(0.3057 -0.0709255 0)
(0.366702 -0.0834327 0)
(0.436067 -0.0979634 0)
(0.514256 -0.113577 0)
(0.601516 -0.128783 0)
(0.697661 -0.138817 0)
(0.796969 -0.133882 0)
(0.885759 -0.110199 0)
(0.953284 -0.0788266 0)
(0.999786 -0.0505749 0)
(1.02972 -0.0265742 0)
(1.03836 -0.0027928 0)
(0.995486 0.0504935 0)
(0.608879 0.359231 0)
(0.232338 0.941231 0)
(0.017222 -0.0212156 0)
(0.0414422 -0.0368642 0)
(0.0706719 -0.0469072 0)
(0.101905 -0.0537503 0)
(0.136052 -0.0596213 0)
(0.173604 -0.0659832 0)
(0.215157 -0.073879 0)
(0.261377 -0.0840669 0)
(0.312961 -0.0970095 0)
(0.370569 -0.112764 0)
(0.434661 -0.13077 0)
(0.505126 -0.149927 0)
(0.582036 -0.168788 0)
(0.666387 -0.181725 0)
(0.753961 -0.175603 0)
(0.831577 -0.144817 0)
(0.890249 -0.10446 0)
(0.932753 -0.0665916 0)
(0.958912 -0.0326283 0)
(0.946425 0.0141819 0)
(0.687562 0.205379 0)
(0.329753 0.563697 0)
(0.0936336 1.04113 0)
(0.0209567 -0.0359609 0)
(0.0488055 -0.0509781 0)
(0.0799529 -0.0614435 0)
(0.111978 -0.0693131 0)
(0.146226 -0.076544 0)
(0.183426 -0.0845489 0)
(0.224183 -0.0943655 0)
(0.26901 -0.106737 0)
(0.318317 -0.122109 0)
(0.372407 -0.140461 0)
(0.431313 -0.161053 0)
(0.494337 -0.182668 0)
(0.561292 -0.204226 0)
(0.634293 -0.219812 0)
(0.710308 -0.212891 0)
(0.776961 -0.175332 0)
(0.828509 -0.125109 0)
(0.866966 -0.0785386 0)
(0.878067 -0.0280259 0)
(0.721166 0.117416 0)
(0.491337 0.350882 0)
(0.226748 0.683497 0)
(0.0593978 1.09693 0)
(0.0234409 -0.0525596 0)
(0.0546673 -0.0663022 0)
(0.0878346 -0.0765712 0)
(0.120819 -0.0850479 0)
(0.155292 -0.0933631 0)
(0.192168 -0.102783 0)
(0.232077 -0.114257 0)
(0.275409 -0.128464 0)
(0.322361 -0.145781 0)
(0.372966 -0.166101 0)
(0.426911 -0.188458 0)
(0.482933 -0.211459 0)
(0.54041 -0.234729 0)
(0.602164 -0.252617 0)
(0.665545 -0.245207 0)
(0.721481 -0.199876 0)
(0.76862 -0.141633 0)
(0.797797 -0.0835488 0)
(0.719848 0.0250629 0)
(0.590502 0.203623 0)
(0.420784 0.449306 0)
(0.23108 0.77684 0)
(0.082448 1.15243 0)
(0.0253732 -0.0705776 0)
(0.0595398 -0.0827503 0)
(0.094595 -0.0923207 0)
(0.128569 -0.10101 0)
(0.16333 -0.11012 0)
(0.199919 -0.120705 0)
(0.23898 -0.133575 0)
(0.280816 -0.149289 0)
(0.325441 -0.168148 0)
(0.372687 -0.189929 0)
(0.422042 -0.213403 0)
(0.471799 -0.236901 0)
(0.520877 -0.260703 0)
(0.571718 -0.279948 0)
(0.621654 -0.271253 0)
(0.667986 -0.2208 0)
(0.710525 -0.154229 0)
(0.696773 -0.0677661 0)
(0.632585 0.0702308 0)
(0.541174 0.263285 0)
(0.427594 0.521349 0)
(0.312436 0.851429 0)
(0.149294 1.24735 0)
(0.0272211 -0.0927701 0)
(0.063642 -0.101543 0)
(0.100362 -0.109497 0)
(0.135257 -0.117889 0)
(0.17031 -0.127472 0)
(0.206628 -0.13899 0)
(0.244868 -0.153042 0)
(0.285248 -0.170022 0)
(0.327633 -0.190071 0)
(0.37173 -0.212813 0)
(0.41694 -0.236661 0)
(0.461634 -0.259342 0)
(0.504785 -0.281574 0)
(0.546165 -0.300535 0)
(0.583595 -0.291535 0)
(0.619665 -0.241116 0)
(0.653559 -0.159868 0)
(0.637664 -0.050071 0)
(0.593299 0.100753 0)
(0.539661 0.299834 0)
(0.486584 0.560492 0)
(0.459238 0.896485 0)
(0.292255 1.41853 0)
(-0.944208 0.362923 0)
(-1.62675 0.23599 0)
(-2.32377 0.170061 0)
(-3.05632 0.0743675 0)
(-3.49068 -0.232295 0)
(-0.627454 -0.885176 0)
(0.432481 -0.894191 0)
(1.33793 -0.794886 0)
(3.17158 -0.141184 0)
(3.67621 0.038411 0)
(3.32691 0.127014 0)
(2.65979 0.15758 0)
(1.96775 0.141947 0)
(1.41708 0.11393 0)
(1.00707 0.0891335 0)
(0.689851 0.0718853 0)
(0.431299 0.0607709 0)
(0.211368 0.0501435 0)
(0.0538554 0.0311857 0)
(-0.664532 0.650721 0)
(-0.922588 0.408225 0)
(-1.05461 0.197774 0)
(-1.08256 -0.112247 0)
(0.712557 -0.374695 0)
(0.997836 -0.751768 0)
(1.10902 -0.788075 0)
(1.20523 -0.840948 0)
(1.5736 -0.777363 0)
(2.87455 -0.104393 0)
(3.00096 0.282261 0)
(2.5227 0.40455 0)
(1.9269 0.370831 0)
(1.42091 0.29984 0)
(1.02275 0.233949 0)
(0.705956 0.185601 0)
(0.44777 0.153184 0)
(0.231967 0.124731 0)
(0.0694563 0.0834355 0)
(-0.484286 0.886743 0)
(-0.464833 0.458074 0)
(-0.321739 0.04426 0)
(0.772665 -0.0623472 0)
(1.15611 -0.708863 0)
(1.18008 -0.767601 0)
(1.19118 -0.78937 0)
(1.21579 -0.817809 0)
(1.28307 -0.827752 0)
(1.58298 -0.329942 0)
(2.4747 0.276231 0)
(2.24967 0.569345 0)
(1.78033 0.566386 0)
(1.35326 0.477049 0)
(0.993745 0.380686 0)
(0.695677 0.304684 0)
(0.449161 0.250822 0)
(0.242892 0.205177 0)
(0.0816258 0.148769 0)
(-0.372962 1.02366 0)
(-0.098742 0.395152 0)
(0.310522 -0.235806 0)
(1.27345 -0.658996 0)
(1.24281 -0.722626 0)
(1.22903 -0.768213 0)
(1.22248 -0.795034 0)
(1.22788 -0.82199 0)
(1.24985 -0.827144 0)
(1.25165 -0.669826 0)
(1.97095 0.256234 0)
(1.96647 0.681185 0)
(1.59556 0.721205 0)
(1.25096 0.629523 0)
(0.940928 0.513394 0)
(0.671064 0.416128 0)
(0.441843 0.344122 0)
(0.24686 0.284069 0)
(0.0889286 0.217766 0)
(-0.304201 1.00928 0)
(0.443465 0.194634 0)
(1.25911 -0.496274 0)
(1.28657 -0.64734 0)
(1.27448 -0.715304 0)
(1.2597 -0.764688 0)
(1.24756 -0.795852 0)
(1.24159 -0.823351 0)
(1.23815 -0.829047 0)
(1.21741 -0.769673 0)
(1.4029 0.0468821 0)
(1.65835 0.716846 0)
(1.39612 0.830908 0)
(1.13154 0.754212 0)
(0.873437 0.628942 0)
(0.636239 0.517245 0)
(0.427478 0.431153 0)
(0.245046 0.359891 0)
(0.0921154 0.287771 0)
(-0.0782528 1.71069 0)
(1.2034 -0.355934 0)
(1.31277 -0.547851 0)
(1.31089 -0.641143 0)
(1.30207 -0.709955 0)
(1.28843 -0.759107 0)
(1.27237 -0.791328 0)
(1.25951 -0.818312 0)
(1.24417 -0.825855 0)
(1.21221 -0.787002 0)
(1.30198 -0.0380934 0)
(1.36326 0.729058 0)
(1.19948 0.90901 0)
(1.00653 0.852402 0)
(0.797669 0.726386 0)
(0.594244 0.606676 0)
(0.40744 0.510856 0)
(0.238571 0.431741 0)
(0.0922213 0.357058 0)
(1.18694 0.258336 0)
(1.2995 -0.416138 0)
(1.32715 -0.541698 0)
(1.3342 -0.637799 0)
(1.33109 -0.707799 0)
(1.31715 -0.752512 0)
(1.29705 -0.784112 0)
(1.28056 -0.810431 0)
(1.25954 -0.82071 0)
(1.20168 -0.805914 0)
(1.17522 0.118983 0)
(1.11345 0.757534 0)
(1.02298 0.966085 0)
(0.883688 0.927237 0)
(0.718556 0.806316 0)
(0.547583 0.684069 0)
(0.383009 0.582662 0)
(0.228473 0.49884 0)
(0.0901361 0.424156 0)
(1.26812 -0.255337 0)
(1.31313 -0.411847 0)
(1.3508 -0.545962 0)
(1.36669 -0.644091 0)
(1.36287 -0.704709 0)
(1.344 -0.743772 0)
(1.31995 -0.774632 0)
(1.30173 -0.801518 0)
(1.28109 -0.812988 0)
(1.29219 -0.762096 0)
(0.997978 0.147393 0)
(0.934376 0.777723 0)
(0.87071 1.00539 0)
(0.767448 0.982743 0)
(0.638881 0.870289 0)
(0.497828 0.749656 0)
(0.355135 0.646285 0)
(0.215682 0.560428 0)
(0.086779 0.486484 0)
(0.029682 -0.125227 0)
(0.0682132 -0.131169 0)
(0.107009 -0.136735 0)
(0.143106 -0.14447 0)
(0.178557 -0.154498 0)
(0.214495 -0.167099 0)
(0.251579 -0.182488 0)
(0.289981 -0.20066 0)
(0.32939 -0.221358 0)
(0.369332 -0.24372 0)
(0.409119 -0.265974 0)
(0.447875 -0.285268 0)
(0.486757 -0.303958 0)
(0.521067 -0.322589 0)
(0.545797 -0.315539 0)
(0.571293 -0.269776 0)
(0.598075 -0.163599 0)
(0.587297 -0.0331637 0)
(0.575067 0.122896 0)
(0.58193 0.313163 0)
(0.636969 0.545524 0)
(0.815527 0.826604 0)
(1.16273 1.20569 0)
(0.0345789 -0.17527 0)
(0.0715213 -0.17398 0)
(0.111589 -0.174985 0)
(0.148099 -0.180466 0)
(0.183537 -0.189356 0)
(0.218832 -0.201397 0)
(0.254543 -0.216342 0)
(0.290697 -0.233707 0)
(0.327203 -0.252896 0)
(0.365232 -0.274754 0)
(0.405703 -0.297775 0)
(0.449912 -0.3168 0)
(0.497072 -0.336943 0)
(0.530741 -0.35342 0)
(0.542988 -0.341559 0)
(0.561588 -0.269644 0)
(0.567682 -0.162855 0)
(0.56969 -0.0369946 0)
(0.588245 0.102492 0)
(0.636812 0.254179 0)
(0.736434 0.41375 0)
(0.919343 0.556893 0)
(1.22515 0.582684 0)
(0.0417291 -0.208295 0)
(0.0717294 -0.203184 0)
(0.111622 -0.202629 0)
(0.148025 -0.207718 0)
(0.184275 -0.216815 0)
(0.221128 -0.229612 0)
(0.259179 -0.245633 0)
(0.298443 -0.264268 0)
(0.34105 -0.2852 0)
(0.38451 -0.316238 0)
(0.425137 -0.350381 0)
(0.46694 -0.380857 0)
(0.508683 -0.39616 0)
(0.539902 -0.39252 0)
(0.557393 -0.359714 0)
(0.565922 -0.275876 0)
(0.562578 -0.167544 0)
(0.572444 -0.0552886 0)
(0.607014 0.0582034 0)
(0.674485 0.168134 0)
(0.786013 0.264621 0)
(0.955524 0.324303 0)
(1.20444 0.301108 0)
(0.0409765 -0.288824 0)
(0.0560608 -0.253548 0)
(0.102615 -0.246578 0)
(0.142536 -0.250023 0)
(0.182129 -0.259918 0)
(0.221685 -0.275976 0)
(0.261449 -0.297902 0)
(0.301813 -0.324929 0)
(0.344586 -0.353633 0)
(0.389299 -0.378657 0)
(0.431397 -0.399777 0)
(0.4696 -0.415016 0)
(0.502387 -0.419871 0)
(0.525691 -0.406935 0)
(0.538612 -0.362847 0)
(0.546249 -0.274559 0)
(0.550141 -0.175667 0)
(0.570878 -0.0837001 0)
(0.616823 0.00108317 0)
(0.692958 0.0747028 0)
(0.804244 0.12766 0)
(0.953487 0.144859 0)
(1.1395 0.10625 0)
(0.0115258 -0.318441 0)
(0.0397045 -0.30158 0)
(0.0833854 -0.302543 0)
(0.125745 -0.307063 0)
(0.168663 -0.315128 0)
(0.21176 -0.327107 0)
(0.254671 -0.343011 0)
(0.297013 -0.362683 0)
(0.338417 -0.385079 0)
(0.378519 -0.408791 0)
(0.416215 -0.429983 0)
(0.449965 -0.444131 0)
(0.4781 -0.444791 0)
(0.497311 -0.424089 0)
(0.507932 -0.370591 0)
(0.516696 -0.280469 0)
(0.529045 -0.19389 0)
(0.559458 -0.122265 0)
(0.612606 -0.0636782 0)
(0.691096 -0.0200175 0)
(0.79587 0.00295646 0)
(0.924182 -0.00351326 0)
(1.06869 -0.046463 0)
(0.011456 -0.330842 0)
(0.0416966 -0.330435 0)
(0.0806287 -0.332952 0)
(0.120223 -0.338566 0)
(0.160687 -0.34803 0)
(0.201408 -0.361597 0)
(0.24189 -0.379094 0)
(0.281575 -0.399922 0)
(0.319843 -0.422747 0)
(0.356183 -0.445149 0)
(0.38992 -0.463673 0)
(0.420011 -0.473507 0)
(0.44495 -0.468056 0)
(0.461451 -0.439809 0)
(0.471608 -0.378657 0)
(0.481958 -0.291652 0)
(0.500985 -0.220276 0)
(0.537851 -0.167512 0)
(0.594259 -0.130536 0)
(0.670685 -0.109593 0)
(0.766094 -0.107182 0)
(0.876314 -0.126509 0)
(0.994818 -0.168761 0)
(0.015904 -0.358657 0)
(0.0447776 -0.365741 0)
(0.0797125 -0.370263 0)
(0.115539 -0.376855 0)
(0.152057 -0.386768 0)
(0.188703 -0.400366 0)
(0.225038 -0.417487 0)
(0.260611 -0.437446 0)
(0.294914 -0.458769 0)
(0.327432 -0.478947 0)
(0.357563 -0.49433 0)
(0.384506 -0.499812 0)
(0.406736 -0.488683 0)
(0.420876 -0.453632 0)
(0.431324 -0.386277 0)
(0.443234 -0.308034 0)
(0.467008 -0.251994 0)
(0.5072 -0.215913 0)
(0.563571 -0.196506 0)
(0.635441 -0.192422 0)
(0.720962 -0.203849 0)
(0.816344 -0.231093 0)
(0.916933 -0.272611 0)
(0.0166963 -0.388189 0)
(0.0442475 -0.398721 0)
(0.0759873 -0.404517 0)
(0.108158 -0.411782 0)
(0.140647 -0.4219 0)
(0.173041 -0.435277 0)
(0.205017 -0.451774 0)
(0.236256 -0.470682 0)
(0.266406 -0.490506 0)
(0.295063 -0.508688 0)
(0.321741 -0.521375 0)
(0.34575 -0.523156 0)
(0.365289 -0.507068 0)
(0.377493 -0.465661 0)
(0.388024 -0.394826 0)
(0.401677 -0.328175 0)
(0.428442 -0.28626 0)
(0.469415 -0.264502 0)
(0.523361 -0.259109 0)
(0.589114 -0.267738 0)
(0.664819 -0.289111 0)
(0.747557 -0.321811 0)
(0.834377 -0.362812 0)
(0.0159496 -0.41654 0)
(0.0416251 -0.428743 0)
(0.0702774 -0.43503 0)
(0.098852 -0.442486 0)
(0.127378 -0.452521 0)
(0.155577 -0.465541 0)
(0.183244 -0.481413 0)
(0.210177 -0.499423 0)
(0.236163 -0.518046 0)
(0.260949 -0.534647 0)
(0.284197 -0.545163 0)
(0.30531 -0.543831 0)
(0.322038 -0.523393 0)
(0.332737 -0.475749 0)
(0.343109 -0.404816 0)
(0.358842 -0.350665 0)
(0.387152 -0.321217 0)
(0.427143 -0.311229 0)
(0.477124 -0.31668 0)
(0.535849 -0.334739 0)
(0.601733 -0.363377 0)
(0.672851 -0.400273 0)
(0.747579 -0.441667 0)
(0.014755 -0.442901 0)
(0.0381892 -0.455921 0)
(0.0638163 -0.462098 0)
(0.0888854 -0.469337 0)
(0.11359 -0.47901 0)
(0.137739 -0.491513 0)
(0.161216 -0.50672 0)
(0.183917 -0.523916 0)
(0.205747 -0.54157 0)
(0.2266 -0.556965 0)
(0.246342 -0.565808 0)
(0.264445 -0.561902 0)
(0.278309 -0.537551 0)
(0.287992 -0.484123 0)
(0.298357 -0.417172 0)
(0.316503 -0.374742 0)
(0.345443 -0.35565 0)
(0.383446 -0.354849 0)
(0.428711 -0.368298 0)
(0.480009 -0.393052 0)
(0.536122 -0.426818 0)
(0.59578 -0.467114 0)
(0.658474 -0.509725 0)
(0.0135791 -0.46674 0)
(0.0346802 -0.480211 0)
(0.057576 -0.485797 0)
(0.0793682 -0.492492 0)
(0.10052 -0.501555 0)
(0.120869 -0.513367 0)
(0.140362 -0.527802 0)
(0.158946 -0.544188 0)
(0.176612 -0.560984 0)
(0.193412 -0.575451 0)
(0.209439 -0.5831 0)
(0.224307 -0.577226 0)
(0.235438 -0.54932 0)
(0.244663 -0.491489 0)
(0.256156 -0.432426 0)
(0.276644 -0.39982 0)
(0.305898 -0.388901 0)
(0.341681 -0.394815 0)
(0.382275 -0.413636 0)
(0.426505 -0.442583 0)
(0.47317 -0.479519 0)
(0.521506 -0.521981 0)
(0.571409 -0.566219 0)
(0.0129557 -0.488394 0)
(0.0316579 -0.502136 0)
(0.0523989 -0.506562 0)
(0.0712789 -0.512346 0)
(0.0892839 -0.520521 0)
(0.106227 -0.531417 0)
(0.122058 -0.544911 0)
(0.136761 -0.560333 0)
(0.150362 -0.576242 0)
(0.162982 -0.589909 0)
(0.174983 -0.596787 0)
(0.186198 -0.589779 0)
(0.195065 -0.559129 0)
(0.204461 -0.499703 0)
(0.218675 -0.450168 0)
(0.2415 -0.425736 0)
(0.271148 -0.421048 0)
(0.305227 -0.431451 0)
(0.342074 -0.453455 0)
(0.380348 -0.48452 0)
(0.419052 -0.522709 0)
(0.457025 -0.565997 0)
(0.494372 -0.610838 0)
(0.0138247 -0.510396 0)
(0.0295171 -0.523611 0)
(0.0490119 -0.526059 0)
(0.0654093 -0.5304 0)
(0.0808148 -0.537299 0)
(0.0949182 -0.546971 0)
(0.10768 -0.559221 0)
(0.119009 -0.573455 0)
(0.128856 -0.588199 0)
(0.137356 -0.600888 0)
(0.144992 -0.607225 0)
(0.152163 -0.600059 0)
(0.159049 -0.568489 0)
(0.169522 -0.511808 0)
(0.187457 -0.47159 0)
(0.212787 -0.453967 0)
(0.243326 -0.453898 0)
(0.276649 -0.467359 0)
(0.311126 -0.491111 0)
(0.345577 -0.522752 0)
(0.378861 -0.560271 0)
(0.410608 -0.601004 0)
(0.440253 -0.642121 0)
(0.0181142 -0.532389 0)
(0.02805 -0.543242 0)
(0.0474647 -0.544004 0)
(0.0619486 -0.546781 0)
(0.0755282 -0.55207 0)
(0.0877305 -0.559994 0)
(0.0983569 -0.57024 0)
(0.107507 -0.581995 0)
(0.114704 -0.593893 0)
(0.119384 -0.604054 0)
(0.122597 -0.609133 0)
(0.125331 -0.602987 0)
(0.129911 -0.575517 0)
(0.142165 -0.528867 0)
(0.163653 -0.497945 0)
(0.191335 -0.485805 0)
(0.222931 -0.488722 0)
(0.256428 -0.502914 0)
(0.290427 -0.524927 0)
(0.32331 -0.553048 0)
(0.355274 -0.585714 0)
(0.385636 -0.620366 0)
(0.413921 -0.657589 0)
(0.0283309 -0.545592 0)
(0.0265676 -0.550593 0)
(0.0466984 -0.551 0)
(0.060329 -0.553169 0)
(0.0733582 -0.557415 0)
(0.0850352 -0.564011 0)
(0.0952569 -0.572725 0)
(0.103337 -0.583095 0)
(0.108686 -0.593735 0)
(0.111097 -0.602783 0)
(0.11 -0.607683 0)
(0.107884 -0.602876 0)
(0.109359 -0.576669 0)
(0.122916 -0.539638 0)
(0.146986 -0.517955 0)
(0.176598 -0.509809 0)
(0.209241 -0.513513 0)
(0.242842 -0.526074 0)
(0.277329 -0.545985 0)
(0.3145 -0.572423 0)
(0.352659 -0.604295 0)
(0.394376 -0.635468 0)
(0.441874 -0.661532 0)
(0.0543816 -0.562525 0)
(0.0257022 -0.561105 0)
(0.0478469 -0.562356 0)
(0.0622059 -0.564021 0)
(0.0768799 -0.567361 0)
(0.090609 -0.573127 0)
(0.10267 -0.580463 0)
(0.113447 -0.588131 0)
(0.119343 -0.593099 0)
(0.116067 -0.601122 0)
(0.110038 -0.606689 0)
(0.0925832 -0.603703 0)
(0.0824477 -0.582035 0)
(0.10342 -0.552805 0)
(0.134359 -0.535754 0)
(0.169347 -0.530218 0)
(0.2063 -0.534378 0)
(0.24556 -0.544281 0)
(0.293509 -0.551303 0)
(0.342454 -0.582469 0)
(0.382537 -0.629622 0)
(0.379384 -0.701607 0)
(0.323831 -0.764847 0)
(0.301348 -0.648317 0)
(0.0259137 -0.573217 0)
(0.0580329 -0.572681 0)
(0.0647402 -0.572683 0)
(0.0795623 -0.575544 0)
(0.0922021 -0.582492 0)
(0.099077 -0.594214 0)
(0.0930158 -0.601251 0)
(0.0827859 -0.614121 0)
(0.073658 -0.608395 0)
(0.067415 -0.597174 0)
(0.0666868 -0.597813 0)
(0.0744148 -0.599808 0)
(0.0850232 -0.572438 0)
(0.121519 -0.556437 0)
(0.16368 -0.554375 0)
(0.203029 -0.569773 0)
(0.224106 -0.612807 0)
(0.207154 -0.698563 0)
(0.209509 -0.730886 0)
(0.206053 -0.719313 0)
(0.188215 -0.687473 0)
(0.129218 -0.631836 0)
(0.004343 -0.803505 0)
(0.00182138 -0.445385 0)
(0.04688 -0.614311 0)
(0.0361868 -0.63933 0)
(0.0364776 -0.63857 0)
(0.0358137 -0.632219 0)
(0.033663 -0.617619 0)
(0.030323 -0.608793 0)
(0.0242206 -0.593744 0)
(0.0167577 -0.59195 0)
(0.0119577 -0.590362 0)
(0.00781478 -0.595031 0)
(0.00360548 -0.622753 0)
(0.00969094 -0.655064 0)
(0.0244329 -0.681667 0)
(0.0412264 -0.685407 0)
(0.0603879 -0.66807 0)
(0.0805831 -0.645511 0)
(0.0832703 -0.63356 0)
(0.0695913 -0.642197 0)
(0.0425465 -0.636091 0)
(-0.00260113 -0.601733 0)
(-0.0735493 -0.542144 0)
(-0.0469131 -0.722322 0)
(-0.0118438 -0.54525 0)
(0.0223933 -0.587669 0)
(0.0112128 -0.594427 0)
(0.00364207 -0.594692 0)
(-0.00562192 -0.59404 0)
(-0.0138731 -0.591623 0)
(-0.0212104 -0.584973 0)
(-0.0275398 -0.586757 0)
(-0.0329847 -0.587783 0)
(-0.038525 -0.589527 0)
(-0.0419425 -0.595383 0)
(-0.0450704 -0.603532 0)
(-0.0472711 -0.617474 0)
(-0.04886 -0.626683 0)
(-0.0508194 -0.629007 0)
(-0.0506036 -0.625109 0)
(-0.0495528 -0.615107 0)
(-0.0549297 -0.614819 0)
(-0.075284 -0.609824 0)
(-0.114565 -0.587927 0)
(-0.170703 -0.539842 0)
(-0.244052 -0.456016 0)
(-0.0384418 -0.681531 0)
(-0.0186233 -0.586099 0)
(-0.00446237 -0.587741 0)
(-0.013605 -0.583892 0)
(-0.0237469 -0.581327 0)
(-0.0357575 -0.579755 0)
(-0.0477354 -0.578274 0)
(-0.0578227 -0.577453 0)
(-0.0665137 -0.57683 0)
(-0.0751728 -0.578468 0)
(-0.0830811 -0.582029 0)
(-0.0901667 -0.588342 0)
(-0.0972856 -0.597868 0)
(-0.106012 -0.606918 0)
(-0.117282 -0.613662 0)
(-0.130028 -0.615896 0)
(-0.143411 -0.613313 0)
(-0.15729 -0.606311 0)
(-0.176389 -0.594769 0)
(-0.207681 -0.57511 0)
(-0.253526 -0.537453 0)
(-0.312939 -0.473833 0)
(-0.381754 -0.379585 0)
(-0.0263909 -0.652685 0)
(-0.0247021 -0.59828 0)
(-0.0252356 -0.583803 0)
(-0.0351642 -0.574561 0)
(-0.0467369 -0.569869 0)
(-0.0596488 -0.567384 0)
(-0.0728398 -0.565899 0)
(-0.0854643 -0.565123 0)
(-0.097429 -0.566007 0)
(-0.109069 -0.568422 0)
(-0.120473 -0.572514 0)
(-0.132105 -0.5787 0)
(-0.145059 -0.586356 0)
(-0.16043 -0.593994 0)
(-0.178494 -0.599031 0)
(-0.198871 -0.599736 0)
(-0.221507 -0.594993 0)
(-0.247009 -0.583682 0)
(-0.277708 -0.564795 0)
(-0.316941 -0.533779 0)
(-0.366145 -0.484457 0)
(-0.42374 -0.411734 0)
(-0.484313 -0.31303 0)
(-0.0205156 -0.627234 0)
(-0.0302548 -0.593742 0)
(-0.0395406 -0.575052 0)
(-0.051487 -0.563876 0)
(-0.0643414 -0.557895 0)
(-0.0780489 -0.55479 0)
(-0.0921503 -0.553283 0)
(-0.106314 -0.55287 0)
(-0.120511 -0.553664 0)
(-0.134961 -0.55576 0)
(-0.149951 -0.559299 0)
(-0.16604 -0.564263 0)
(-0.184093 -0.569983 0)
(-0.204824 -0.574968 0)
(-0.228469 -0.577303 0)
(-0.254985 -0.575292 0)
(-0.284552 -0.567364 0)
(-0.317731 -0.55172 0)
(-0.355633 -0.526206 0)
(-0.399442 -0.487428 0)
(-0.449037 -0.431376 0)
(-0.502287 -0.355058 0)
(-0.553867 -0.25784 0)
(-0.0185303 -0.602087 0)
(-0.034112 -0.580114 0)
(-0.0482422 -0.56207 0)
(-0.0621904 -0.550676 0)
(-0.0762765 -0.544075 0)
(-0.090809 -0.540389 0)
(-0.105788 -0.538479 0)
(-0.121188 -0.537783 0)
(-0.13712 -0.53814 0)
(-0.153838 -0.539515 0)
(-0.171701 -0.541866 0)
(-0.191251 -0.54498 0)
(-0.213146 -0.548159 0)
(-0.237908 -0.550155 0)
(-0.265765 -0.549374 0)
(-0.296774 -0.544159 0)
(-0.331054 -0.53276 0)
(-0.368818 -0.513184 0)
(-0.410303 -0.483173 0)
(-0.45538 -0.440087 0)
(-0.502988 -0.381394 0)
(-0.550657 -0.305663 0)
(-0.59373 -0.21338 0)
(-0.0175398 -0.576431 0)
(-0.0358722 -0.562133 0)
(-0.0526607 -0.546455 0)
(-0.0681771 -0.535829 0)
(-0.0833356 -0.529159 0)
(-0.0986564 -0.525078 0)
(-0.114411 -0.522645 0)
(-0.130786 -0.52131 0)
(-0.148003 -0.520806 0)
(-0.166361 -0.520979 0)
(-0.186248 -0.521673 0)
(-0.208152 -0.52257 0)
(-0.232593 -0.523008 0)
(-0.25997 -0.521919 0)
(-0.290474 -0.517923 0)
(-0.324135 -0.509461 0)
(-0.360901 -0.494808 0)
(-0.400615 -0.472065 0)
(-0.442887 -0.439234 0)
(-0.486868 -0.394353 0)
(-0.53099 -0.335901 0)
(-0.572846 -0.263385 0)
(-0.608576 -0.17787 0)
(-0.0165891 -0.550911 0)
(-0.0360212 -0.542287 0)
(-0.0541122 -0.529315 0)
(-0.0706583 -0.519851 0)
(-0.0866168 -0.513426 0)
(-0.102563 -0.509089 0)
(-0.118906 -0.506094 0)
(-0.135947 -0.503942 0)
(-0.153983 -0.502324 0)
(-0.173344 -0.501022 0)
(-0.194412 -0.499811 0)
(-0.217615 -0.498336 0)
(-0.243371 -0.495992 0)
(-0.271988 -0.491861 0)
(-0.303597 -0.484752 0)
(-0.338147 -0.473265 0)
(-0.375414 -0.455839 0)
(-0.414955 -0.430812 0)
(-0.456004 -0.396554 0)
(-0.497349 -0.351664 0)
(-0.537304 -0.29528 0)
(-0.57364 -0.227445 0)
(-0.603283 -0.1494 0)
(-0.0155258 -0.526161 0)
(-0.0350848 -0.521856 0)
(-0.0536483 -0.511404 0)
(-0.0707206 -0.503176 0)
(-0.0871443 -0.497132 0)
(-0.103469 -0.492628 0)
(-0.120143 -0.489078 0)
(-0.137519 -0.486048 0)
(-0.155923 -0.483222 0)
(-0.175689 -0.480352 0)
(-0.197175 -0.477181 0)
(-0.220748 -0.473357 0)
(-0.246744 -0.46834 0)
(-0.27539 -0.461355 0)
(-0.306753 -0.451396 0)
(-0.340701 -0.437265 0)
(-0.376884 -0.417636 0)
(-0.414688 -0.391139 0)
(-0.453166 -0.356507 0)
(-0.491007 -0.312769 0)
(-0.526559 -0.259479 0)
(-0.557909 -0.196937 0)
(-0.582628 -0.126365 0)
(-0.0144312 -0.502545 0)
(-0.0335528 -0.501558 0)
(-0.0520113 -0.493279 0)
(-0.0691771 -0.486203 0)
(-0.0857308 -0.480571 0)
(-0.102153 -0.475953 0)
(-0.118879 -0.471888 0)
(-0.136262 -0.467998 0)
(-0.154625 -0.463983 0)
(-0.174284 -0.459586 0)
(-0.195556 -0.454546 0)
(-0.218747 -0.448533 0)
(-0.244118 -0.441082 0)
(-0.27183 -0.431549 0)
(-0.30189 -0.419112 0)
(-0.334109 -0.402792 0)
(-0.36807 -0.381516 0)
(-0.403089 -0.354207 0)
(-0.438186 -0.319918 0)
(-0.472084 -0.277992 0)
(-0.503304 -0.228233 0)
(-0.530207 -0.171044 0)
(-0.550907 -0.107516 0)
(-0.0133299 -0.480295 0)
(-0.0316715 -0.481846 0)
(-0.0496617 -0.475362 0)
(-0.0665805 -0.469286 0)
(-0.082964 -0.464042 0)
(-0.0992137 -0.459341 0)
(-0.11572 -0.454817 0)
(-0.132813 -0.450139 0)
(-0.15079 -0.445028 0)
(-0.16993 -0.439235 0)
(-0.190503 -0.432513 0)
(-0.212753 -0.424566 0)
(-0.236874 -0.415001 0)
(-0.262967 -0.403301 0)
(-0.290995 -0.388812 0)
(-0.320738 -0.370769 0)
(-0.351762 -0.34834 0)
(-0.383394 -0.320713 0)
(-0.414707 -0.287204 0)
(-0.444549 -0.247385 0)
(-0.471624 -0.201206 0)
(-0.494599 -0.14908 0)
(-0.511992 -0.0919421 0)
(-0.0122586 -0.4595 0)
(-0.0296258 -0.46299 0)
(-0.046883 -0.457958 0)
(-0.0632883 -0.452719 0)
(-0.0792479 -0.447815 0)
(-0.0950837 -0.443054 0)
(-0.111132 -0.438135 0)
(-0.127682 -0.432767 0)
(-0.144993 -0.426694 0)
(-0.163304 -0.419687 0)
(-0.182833 -0.411521 0)
(-0.203766 -0.401939 0)
(-0.226236 -0.390623 0)
(-0.250293 -0.377163 0)
(-0.275868 -0.36106 0)
(-0.302732 -0.341733 0)
(-0.330473 -0.318566 0)
(-0.358471 -0.290973 0)
(-0.385905 -0.258479 0)
(-0.411775 -0.220821 0)
(-0.435008 -0.17803 0)
(-0.454499 -0.130496 0)
(-0.469108 -0.0789838 0)
(-0.011205 -0.440222 0)
(-0.0274742 -0.44517 0)
(-0.0438317 -0.44129 0)
(-0.0595239 -0.436734 0)
(-0.0748537 -0.432117 0)
(-0.0900716 -0.427313 0)
(-0.105458 -0.422067 0)
(-0.121258 -0.416118 0)
(-0.137691 -0.409235 0)
(-0.154952 -0.401213 0)
(-0.173212 -0.391856 0)
(-0.192603 -0.38095 0)
(-0.213207 -0.368243 0)
(-0.235033 -0.353422 0)
(-0.257988 -0.336114 0)
(-0.28185 -0.315897 0)
(-0.306244 -0.292333 0)
(-0.330633 -0.265017 0)
(-0.354314 -0.233638 0)
(-0.37646 -0.198051 0)
(-0.396178 -0.158336 0)
(-0.412609 -0.114837 0)
(-0.424865 -0.0681746 0)
(-0.0101693 -0.422481 0)
(-0.0252691 -0.428497 0)
(-0.040601 -0.425519 0)
(-0.0554269 -0.421511 0)
(-0.0699623 -0.417135 0)
(-0.0843943 -0.412306 0)
(-0.0989517 -0.406799 0)
(-0.113838 -0.400378 0)
(-0.129235 -0.392835 0)
(-0.145298 -0.383992 0)
(-0.162155 -0.373684 0)
(-0.179893 -0.361745 0)
(-0.198554 -0.347979 0)
(-0.218115 -0.332156 0)
(-0.238467 -0.314006 0)
(-0.259402 -0.293234 0)
(-0.280591 -0.269543 0)
(-0.301578 -0.242667 0)
(-0.321785 -0.212422 0)
(-0.340537 -0.178746 0)
(-0.357132 -0.141745 0)
(-0.370875 -0.101719 0)
(-0.381107 -0.0591642 0)
(-0.00912393 -0.406309 0)
(-0.0230066 -0.413045 0)
(-0.0372398 -0.410761 0)
(-0.051085 -0.407189 0)
(-0.0646953 -0.403019 0)
(-0.0782047 -0.398184 0)
(-0.0917988 -0.392478 0)
(-0.105646 -0.385686 0)
(-0.119894 -0.37762 0)
(-0.134664 -0.36813 0)
(-0.150049 -0.357087 0)
(-0.166103 -0.344366 0)
(-0.182834 -0.329826 0)
(-0.200196 -0.313304 0)
(-0.218076 -0.294614 0)
(-0.23628 -0.273557 0)
(-0.254524 -0.249944 0)
(-0.272429 -0.223614 0)
(-0.289528 -0.194474 0)
(-0.305283 -0.162522 0)
(-0.319133 -0.127877 0)
(-0.33056 -0.0907974 0)
(-0.339062 -0.0516782 0)
(-0.00805018 -0.391734 0)
(-0.0206931 -0.398855 0)
(-0.0337822 -0.397097 0)
(-0.0465571 -0.393878 0)
(-0.0591366 -0.389889 0)
(-0.0716112 -0.38507 0)
(-0.0841338 -0.379222 0)
(-0.0968449 -0.372144 0)
(-0.109865 -0.363672 0)
(-0.123288 -0.353684 0)
(-0.137178 -0.342085 0)
(-0.151563 -0.328791 0)
(-0.166428 -0.313708 0)
(-0.181714 -0.296729 0)
(-0.197307 -0.277733 0)
(-0.213031 -0.256596 0)
(-0.228644 -0.233206 0)
(-0.243832 -0.207482 0)
(-0.258219 -0.179393 0)
(-0.271379 -0.148977 0)
(-0.282883 -0.116359 0)
(-0.29232 -0.0817589 0)
(-0.299338 -0.0454873 0)
(-0.00692188 -0.378823 0)
(-0.0183135 -0.385937 0)
(-0.0302588 -0.384584 0)
(-0.0418887 -0.381661 0)
(-0.053347 -0.377844 0)
(-0.0646913 -0.373063 0)
(-0.0760543 -0.367119 0)
(-0.0875566 -0.359826 0)
(-0.0992969 -0.351043 0)
(-0.111347 -0.340677 0)
(-0.123746 -0.328666 0)
(-0.136504 -0.314963 0)
(-0.149591 -0.299515 0)
(-0.162942 -0.28226 0)
(-0.176448 -0.263129 0)
(-0.189952 -0.242054 0)
(-0.203249 -0.21898 0)
(-0.216082 -0.193882 0)
(-0.228147 -0.166774 0)
(-0.239108 -0.137719 0)
(-0.248619 -0.106841 0)
(-0.256384 -0.0743225 0)
(-0.262149 -0.0404023 0)
(-0.00575407 -0.367676 0)
(-0.0158785 -0.374261 0)
(-0.0267222 -0.373256 0)
(-0.0371273 -0.370613 0)
(-0.0473757 -0.366975 0)
(-0.0575027 -0.362249 0)
(-0.0676327 -0.356242 0)
(-0.0778724 -0.348784 0)
(-0.0883014 -0.339761 0)
(-0.0989705 -0.329108 0)
(-0.109901 -0.316797 0)
(-0.121085 -0.302809 0)
(-0.132487 -0.287129 0)
(-0.144041 -0.269728 0)
(-0.155647 -0.250577 0)
(-0.167171 -0.22965 0)
(-0.178441 -0.206936 0)
(-0.189248 -0.18245 0)
(-0.199346 -0.156239 0)
(-0.208461 -0.128384 0)
(-0.216324 -0.0990012 0)
(-0.222685 -0.0682369 0)
(-0.227381 -0.03626 0)
(-0.00466341 -0.358369 0)
(-0.0134163 -0.363747 0)
(-0.023268 -0.363149 0)
(-0.0323362 -0.360818 0)
(-0.0412719 -0.357369 0)
(-0.0500946 -0.352706 0)
(-0.0589286 -0.346647 0)
(-0.0678666 -0.339052 0)
(-0.0769677 -0.329836 0)
(-0.0862611 -0.318964 0)
(-0.0957502 -0.306435 0)
(-0.105416 -0.292256 0)
(-0.11522 -0.276435 0)
(-0.125099 -0.258975 0)
(-0.134968 -0.239873 0)
(-0.144717 -0.219135 0)
(-0.154207 -0.196783 0)
(-0.163271 -0.172864 0)
(-0.17171 -0.147451 0)
(-0.179303 -0.120642 0)
(-0.185808 -0.0925477 0)
(-0.191028 -0.0632775 0)
(-0.194832 -0.0329176 0)
(-0.00408489 -0.350669 0)
(-0.0110525 -0.354279 0)
(-0.0200676 -0.354342 0)
(-0.027604 -0.352397 0)
(-0.035092 -0.349134 0)
(-0.0425185 -0.344508 0)
(-0.0500016 -0.338381 0)
(-0.0576106 -0.330652 0)
(-0.0653765 -0.32127 0)
(-0.0733038 -0.310226 0)
(-0.0813787 -0.297538 0)
(-0.0895739 -0.283234 0)
(-0.0978498 -0.267339 0)
(-0.106153 -0.249871 0)
(-0.114416 -0.23085 0)
(-0.122554 -0.210304 0)
(-0.130462 -0.18828 0)
(-0.138014 -0.16485 0)
(-0.145057 -0.140116 0)
(-0.151404 -0.114197 0)
(-0.15685 -0.0872102 0)
(-0.16117 -0.0592333 0)
(-0.164238 -0.030249 0)
(-0.00516444 -0.343923 0)
(-0.00912832 -0.345815 0)
(-0.0173648 -0.347027 0)
(-0.023026 -0.345536 0)
(-0.0288943 -0.342393 0)
(-0.0348348 -0.337724 0)
(-0.0409238 -0.331475 0)
(-0.0471854 -0.323592 0)
(-0.0536117 -0.314054 0)
(-0.0601788 -0.302871 0)
(-0.0668568 -0.290071 0)
(-0.0736131 -0.27569 0)
(-0.0804112 -0.259761 0)
(-0.0872098 -0.242313 0)
(-0.0939599 -0.223378 0)
(-0.100604 -0.202997 0)
(-0.107074 -0.181235 0)
(-0.113288 -0.158185 0)
(-0.119142 -0.133978 0)
(-0.124501 -0.10877 0)
(-0.129164 -0.0827135 0)
(-0.132879 -0.055884 0)
(-0.135416 -0.0281298 0)
(-0.00994031 -0.337896 0)
(-0.00819126 -0.338517 0)
(-0.0153551 -0.34151 0)
(-0.0186492 -0.340479 0)
(-0.0227214 -0.33728 0)
(-0.0271138 -0.332416 0)
(-0.0317869 -0.325955 0)
(-0.0366897 -0.317884 0)
(-0.041767 -0.308194 0)
(-0.0469669 -0.296897 0)
(-0.0522475 -0.28402 0)
(-0.0575745 -0.269596 0)
(-0.0629182 -0.253658 0)
(-0.0682498 -0.236238 0)
(-0.0735398 -0.217373 0)
(-0.0787572 -0.19711 0)
(-0.0838711 -0.175519 0)
(-0.0888498 -0.152708 0)
(-0.0936546 -0.128831 0)
(-0.0982185 -0.1041 0)
(-0.102406 -0.0787581 0)
(-0.105875 -0.0529701 0)
(-0.108148 -0.0264426 0)
(-0.0204452 -0.33319 0)
(-0.00820804 -0.333524 0)
(-0.0139696 -0.338427 0)
(-0.0144467 -0.337533 0)
(-0.0165994 -0.333931 0)
(-0.0194378 -0.328655 0)
(-0.0227015 -0.321877 0)
(-0.0262362 -0.313583 0)
(-0.0299415 -0.303745 0)
(-0.0337472 -0.292355 0)
(-0.0376065 -0.279425 0)
(-0.0414886 -0.264979 0)
(-0.0453721 -0.249043 0)
(-0.0492404 -0.231646 0)
(-0.0530803 -0.212823 0)
(-0.0568838 -0.192618 0)
(-0.0606525 -0.171094 0)
(-0.0644044 -0.148353 0)
(-0.068179 -0.12456 0)
(-0.0720389 -0.0999783 0)