/*--------------------------------*- C++ -*----------------------------------*\
  =========                 |
  \\      /  F ield         | OpenFOAM: The Open Source CFD Toolbox
   \\    /   O peration     | Website:  https://openfoam.org
    \\  /    A nd           | Version:  13
     \\/     M anipulation  |
\*---------------------------------------------------------------------------*/
FoamFile
{
    format      ascii;
    class       surfaceScalarField;
    location    "0.001";
    object      meshPhi;
}
// * * * * * * * * * * * * * * * * * * * * * * * * * * * * * * * * * * * * * //

dimensions      [0 3 -1 0 0 0 0];

internalField   nonuniform List<scalar> 
3252
(
1.42191e-11
0
2.84382e-11
4.41514e-25
4.26574e-11
4.41514e-25
5.68766e-11
4.44085e-25
7.10995e-11
-4.42797e-25
8.5289e-11
-8.83098e-25
9.86993e-11
8.75277e-25
-4.51546e-25
4.26574e-11
-7.07452e-24
8.53148e-11
-1.76606e-24
1.27972e-10
-1.76606e-24
1.7063e-10
-3.54241e-24
2.13298e-10
-1.76605e-24
2.55868e-10
1.76879e-24
2.96099e-10
0
-1.81006e-24
7.10957e-11
-5.29818e-24
1.42191e-10
5.3136e-24
2.13287e-10
5.31359e-24
2.84383e-10
-5.31361e-24
3.55497e-10
5.31358e-24
4.26451e-10
-5.2911e-24
4.935e-10
5.25764e-24
0
9.9534e-11
7.0848e-24
1.99068e-10
-7.06424e-24
2.98602e-10
-7.06424e-24
3.98137e-10
-7.08481e-24
4.97696e-10
-1.4149e-23
5.97039e-10
1.41306e-23
6.90906e-10
-6.98924e-24
7.24248e-24
1.27972e-10
-5.13881e-26
2.55945e-10
-5.13881e-26
3.83917e-10
-1.7712e-23
5.1189e-10
-5.13885e-26
6.39893e-10
1.76605e-23
7.67634e-10
0
8.88316e-10
0
1.8073e-23
1.56411e-10
-2.12544e-23
3.12821e-10
-6.16657e-26
4.69232e-10
0
6.25644e-10
0
7.8209e-10
0
9.3824e-10
-2.11674e-23
1.08573e-09
2.09542e-23
2.17388e-23
1.84849e-10
2.47249e-23
3.69698e-10
-1.43887e-25
5.54547e-10
-7.19434e-26
7.39397e-10
2.47249e-23
9.24286e-10
-7.19582e-26
1.10886e-09
-2.47688e-23
1.28316e-09
-4.89402e-23
-5.23325e-26
2.13287e-10
-8.2221e-26
4.26574e-10
5.66784e-23
6.39862e-10
2.8257e-23
8.53151e-10
-8.49355e-23
1.06648e-09
-5.66781e-23
1.27949e-09
-5.65371e-23
1.48059e-09
-2.79907e-23
-2.90064e-23
2.41725e-10
6.36707e-23
4.83451e-10
0
7.25177e-10
-3.18816e-23
9.66904e-10
-9.546e-23
1.20867e-09
-3.17889e-23
1.45014e-09
0
1.67804e-09
-3.14716e-23
-3.25798e-23
2.70164e-10
-7.0848e-23
5.40327e-10
7.06424e-23
8.10492e-10
-2.05553e-25
1.08066e-09
0
1.35086e-09
-7.08474e-23
1.62081e-09
0
1.87549e-09
-1.93762e-25
7.25861e-23
2.98602e-10
-2.26108e-25
5.97204e-10
-2.26108e-25
8.95806e-10
7.77066e-23
1.19441e-09
-2.26109e-25
1.49305e-09
-2.26132e-25
1.7915e-09
-2.26031e-25
2.07296e-09
0
0
3.2704e-10
2.46663e-25
6.54081e-10
0
9.81121e-10
0
1.30816e-09
2.46665e-25
1.63523e-09
0
1.96222e-09
-8.47244e-23
2.27044e-09
0
0
3.55479e-10
9.18352e-23
7.10957e-10
9.18352e-23
1.06644e-09
0
1.42192e-09
9.18353e-23
1.77742e-09
9.21003e-23
2.13298e-09
-1.8387e-22
2.46795e-09
1.80776e-22
0
3.83917e-10
9.88995e-23
7.67834e-10
9.88994e-23
1.15175e-09
9.88993e-23
1.53567e-09
-2.87776e-25
1.9196e-09
-9.91849e-23
2.30366e-09
-2.87865e-25
2.66528e-09
1.94464e-22
-1.01921e-22
4.12355e-10
1.06272e-22
8.2471e-10
0
1.23707e-09
-1.05964e-22
1.64942e-09
-1.05964e-22
2.0618e-09
0
2.47404e-09
3.08062e-25
2.86551e-09
2.9505e-25
2.19839e-25
1.41656e-09
-2.9597e-24
1.36421e-09
3.10886e-24
1.3096e-09
0
1.25294e-09
-3.3464e-24
1.19418e-09
-3.47107e-24
1.13324e-09
-7.20024e-24
1.07004e-09
0
1.00449e-09
-3.86622e-24
9.36502e-10
4.0233e-24
8.65994e-10
8.33868e-24
7.92867e-10
7.20745e-27
7.17024e-10
4.4887e-24
6.38363e-10
4.6555e-24
5.56782e-10
4.83654e-24
4.72169e-10
0
3.84415e-10
-5.17671e-24
2.934e-10
-5.37805e-24
1.99007e-10
5.5779e-24
1.01113e-10
-5.78526e-24
6.01876e-24
3.85804e-09
1.14796e-23
3.71545e-09
3.98342e-26
3.56671e-09
4.15457e-26
3.4124e-09
-1.28933e-23
3.25237e-09
2.23504e-26
3.0864e-09
2.31796e-26
2.91427e-09
2.40402e-26
2.73575e-09
-1.49209e-23
2.5506e-09
-1.55012e-23
2.35857e-09
3.22082e-23
2.15941e-09
-1.66469e-23
1.95286e-09
-1.72944e-23
1.73863e-09
2.99197e-26
1.51644e-09
3.1031e-26
1.286e-09
6.43672e-26
1.04701e-09
-2.00452e-23
7.99132e-10
-2.07208e-23
5.42054e-10
-2.14908e-23
2.75445e-10
3.72355e-26
3.84751e-26
5.78281e-09
-3.31337e-23
5.56901e-09
3.47459e-23
5.34607e-09
3.6103e-23
5.11478e-09
3.74608e-23
4.87492e-09
-3.87914e-23
4.62616e-09
0
4.36817e-09
6.96127e-26
4.10059e-09
-8.65588e-23
3.82308e-09
4.49626e-23
3.53526e-09
4.66335e-23
3.23676e-09
0
2.92716e-09
0
2.60607e-09
5.20277e-23
2.27305e-09
0
1.92766e-09
5.59662e-23
1.56944e-09
5.80458e-23
1.19791e-09
6.02027e-23
8.12591e-10
-6.23359e-23
4.12982e-10
1.07824e-25
1.11449e-25
7.27408e-09
7.02194e-26
7.00504e-09
7.43244e-26
6.7246e-09
4.64866e-23
6.43368e-09
8.03519e-26
6.13198e-09
-4.99467e-23
5.81908e-09
8.64205e-26
5.49457e-09
1.07637e-22
5.15801e-09
9.29577e-26
4.80895e-09
5.77962e-23
4.44692e-09
6.00439e-23
4.07146e-09
1.03703e-25
3.68204e-09
0
3.27816e-09
6.69893e-23
2.85928e-09
6.94785e-23
2.42484e-09
1.19992e-25
1.97426e-09
-7.46134e-23
1.50694e-09
1.29072e-25
1.02227e-09
-1.60523e-22
5.19629e-10
-8.3106e-23
8.67171e-23
8.40283e-09
5.15196e-23
8.09189e-09
-5.40347e-23
7.76792e-09
-1.12188e-22
7.43187e-09
5.81522e-23
7.08338e-09
-1.00627e-25
6.72195e-09
-1.25223e-22
6.3471e-09
6.49926e-23
5.95833e-09
0
5.55512e-09
0
5.13694e-09
0
4.70323e-09
0
4.25341e-09
-2.3387e-22
3.78688e-09
-8.07634e-23
3.30302e-09
-1.67529e-22
2.80118e-09
8.6877e-23
2.28071e-09
0
1.7409e-09
9.32974e-23
1.18105e-09
9.69259e-23
6.00425e-10
1.67654e-25
1.04537e-22
9.22956e-09
5.9753e-23
8.88782e-09
-6.2677e-23
8.53197e-09
6.5008e-23
8.16288e-09
6.74477e-23
7.78011e-09
0
7.38314e-09
1.45239e-22
6.97144e-09
-2.25891e-22
6.54444e-09
0
6.10159e-09
-8.09522e-23
5.64229e-09
0
5.16593e-09
-1.74451e-22
4.67188e-09
9.04668e-23
4.15947e-09
1.56238e-25
3.62803e-09
0
3.07685e-09
-3.02456e-22
2.5052e-09
-1.04507e-22
1.9123e-09
0
1.29739e-09
1.12605e-22
6.59668e-10
0
1.21233e-22
9.80574e-09
2.69845e-22
9.44241e-09
2.35362e-25
9.06433e-09
1.46924e-22
8.67222e-09
0
8.26559e-09
0
7.84387e-09
0
7.40648e-09
1.70076e-22
6.95285e-09
-1.76102e-22
6.48238e-09
0
5.99444e-09
-1.89434e-22
5.48837e-09
3.93273e-22
4.9635e-09
0
4.41913e-09
-2.11345e-22
3.85455e-09
2.19198e-22
3.26898e-09
-2.27343e-22
2.66167e-09
-2.3579e-22
2.0318e-09
-2.44552e-22
1.37853e-09
0
7.01017e-10
0
4.54007e-25
1.01751e-08
0
9.7978e-09
0
9.40547e-09
0
8.99862e-09
0
8.5767e-09
1.74507e-22
8.13912e-09
0
7.68528e-09
-1.88031e-22
7.21459e-09
1.94694e-22
6.72643e-09
2.01929e-22
6.22013e-09
2.09432e-22
5.69503e-09
2.17577e-22
5.15042e-09
-4.50948e-22
4.58557e-09
-2.34047e-22
3.99975e-09
0
3.39216e-09
-2.51343e-22
2.76201e-09
0
2.10844e-09
-2.7082e-22
1.43059e-09
0
7.27585e-10
-5.82156e-22
0
1.03748e-08
2.65467e-25
9.98976e-09
0
9.58972e-09
1.76577e-22
9.17492e-09
-1.8349e-22
8.74474e-09
0
8.2986e-09
1.9706e-22
7.83589e-09
3.40916e-25
7.35599e-09
-2.12331e-22
6.85827e-09
0
6.34207e-09
2.28404e-22
5.80669e-09
3.94456e-25
5.25142e-09
-4.90979e-22
4.67552e-09
0
4.07824e-09
2.64291e-22
3.45876e-09
0
2.81627e-09
0
2.1499e-09
2.9486e-22
1.45879e-09
-3.05816e-22
7.42014e-10
3.16652e-22
0
1.04362e-08
0
1.00486e-08
-3.65793e-22
9.64616e-09
-1.8997e-22
9.22893e-09
1.974e-22
8.79624e-09
2.04741e-22
8.34748e-09
3.53619e-25
7.88205e-09
3.66753e-25
7.39934e-09
2.28425e-22
6.8987e-09
3.94501e-25
6.37947e-09
-2.45307e-22
5.84095e-09
-2.54423e-22
5.28243e-09
4.40117e-25
4.70315e-09
0
4.10236e-09
-2.8385e-22
3.47925e-09
-2.94397e-22
2.83298e-09
5.09255e-25
2.16271e-09
0
1.46754e-09
5.47796e-25
7.46545e-10
3.40652e-22
-3.53495e-22
1.0386e-08
-1.85674e-22
9.99983e-09
-1.94898e-22
9.59937e-09
3.37884e-25
9.18417e-09
2.10332e-22
8.75359e-09
2.18515e-22
8.30702e-09
0
7.84386e-09
4.69333e-22
7.36351e-09
2.43386e-22
6.86531e-09
2.52851e-22
6.3486e-09
-2.60939e-22
5.81271e-09
-2.70635e-22
5.2569e-09
-2.81159e-22
4.68044e-09
-5.83213e-22
4.08257e-09
5.04432e-25
3.46249e-09
3.14202e-22
2.81937e-09
0
2.15236e-09
-3.3686e-22
1.46057e-09
-3.50544e-22
7.43074e-10
3.63568e-22
6.27007e-25
1.02465e-08
1.96915e-22
9.86516e-09
-3.44985e-25
9.47008e-09
2.14001e-22
9.0605e-09
2.22354e-22
8.63572e-09
0
8.19518e-09
-3.98305e-25
7.73827e-09
-2.48077e-22
7.26439e-09
0
6.7729e-09
-2.66856e-22
6.26317e-09
0
5.7345e-09
-2.87056e-22
5.18619e-09
-2.97227e-22
4.6175e-09
0
4.02769e-09
0
3.41597e-09
0
2.78152e-09
-5.73618e-25
2.1235e-09
0
1.44103e-09
3.69958e-22
7.33202e-10
0
0
1.00367e-08
-2.06462e-22
9.66272e-09
2.16438e-22
9.27575e-09
0
8.87459e-09
-2.33141e-22
8.45854e-09
-4.84015e-22
8.02704e-09
2.51209e-22
7.57952e-09
-2.6011e-22
7.11537e-09
2.70225e-22
6.63398e-09
2.80266e-22
6.13471e-09
2.9068e-22
5.61689e-09
3.0098e-22
5.07984e-09
-3.11642e-22
4.52283e-09
3.24302e-22
3.94513e-09
5.60056e-25
3.34597e-09
0
2.72455e-09
-7.22417e-22
2.08004e-09
-3.7463e-22
1.41158e-09
0
7.18277e-10
1.34427e-24
1.2557e-21
9.77227e-09
2.15983e-22
9.40778e-09
-2.26091e-22
9.03102e-09
0
8.64045e-09
0
8.23539e-09
2.52562e-22
7.81528e-09
2.62383e-22
7.37957e-09
0
6.92768e-09
-5.6355e-22
6.45899e-09
5.84491e-22
5.97291e-09
6.0722e-22
5.46876e-09
-6.28735e-22
4.94588e-09
5.43811e-25
4.40358e-09
-3.38163e-22
3.84113e-09
3.50143e-22
3.25778e-09
3.64973e-22
2.65276e-09
3.77905e-22
2.02526e-09
3.91946e-22
1.37444e-09
0
6.99432e-10
0
4.3668e-22
9.46655e-09
-2.24156e-22
9.11308e-09
2.35858e-22
8.74813e-09
8.14695e-25
8.36981e-09
8.44547e-25
7.97744e-09
0
7.5705e-09
5.45088e-22
7.14844e-09
-2.82436e-22
6.71071e-09
4.88595e-25
6.25671e-09
3.04829e-22
5.78586e-09
-3.15105e-22
5.29751e-09
9.8153e-22
4.79101e-09
6.78478e-22
4.2657e-09
-7.03101e-22
3.72087e-09
6.0813e-25
3.15581e-09
3.79422e-22
2.56974e-09
3.92211e-22
1.9619e-09
-4.07463e-22
1.33148e-09
0
6.77615e-10
0
7.56398e-25
9.13056e-09
-4.64151e-22
8.78925e-09
0
8.43728e-09
-2.52733e-22
8.07241e-09
0
7.694e-09
4.53452e-25
7.30152e-09
4.70303e-25
6.89446e-09
5.85357e-22
6.47229e-09
-3.03301e-22
6.03443e-09
1.04937e-24
5.58031e-09
5.44171e-25
5.10931e-09
5.64389e-25
4.62082e-09
-3.50956e-22
4.11418e-09
-1.0932e-21
3.58872e-09
-3.77521e-22
3.04373e-09
0
2.4785e-09
0
1.89227e-09
4.21888e-22
1.28425e-09
-4.36835e-22
6.53617e-10
-4.53063e-22
0
8.77344e-09
-2.39436e-22
8.44511e-09
4.22742e-25
8.10693e-09
4.35145e-25
7.75636e-09
2.70906e-22
7.39277e-09
-2.80499e-22
7.01566e-09
2.91891e-22
6.62455e-09
3.02736e-22
6.2189e-09
3.13464e-22
5.79819e-09
5.41363e-25
5.36186e-09
3.37192e-22
4.90931e-09
-3.49139e-22
4.43995e-09
-3.62112e-22
3.95315e-09
-7.51759e-22
3.44826e-09
-3.89521e-22
2.92462e-09
4.04668e-22
2.38152e-09
1.3977e-24
1.81824e-09
8.70596e-22
1.23403e-09
4.51472e-22
6.28094e-10
7.79716e-25
8.08263e-25
8.40275e-09
7.39222e-22
8.08794e-09
0
7.76408e-09
-2.6781e-22
7.42835e-09
-2.78202e-22
7.08014e-09
-5.77546e-22
6.71898e-09
-4.9915e-25
6.34441e-09
0
5.95592e-09
0
5.55301e-09
-3.33308e-22
5.13513e-09
6.93697e-22
4.70172e-09
3.59737e-22
4.25221e-09
0
3.786e-09
-3.86322e-22
3.30247e-09
6.68286e-25
2.80098e-09
1.66364e-21
2.28085e-09
0
1.7414e-09
4.47765e-22
1.1819e-09
4.64402e-22
6.01589e-10
4.81652e-22
-4.99628e-22
8.02469e-09
-5.05256e-22
7.7237e-09
8.94282e-25
7.41446e-09
0
7.09385e-09
0
6.76132e-09
0
6.41644e-09
0
6.05873e-09
6.3787e-22
5.68775e-09
6.61572e-22
5.30298e-09
0
4.90392e-09
0
4.49003e-09
-1.47496e-21
4.06076e-09
1.27469e-24
3.61555e-09
-7.93963e-22
3.1538e-09
-8.22093e-22
2.67489e-09
8.54061e-22
2.17819e-09
0
1.66303e-09
-9.17178e-22
1.12873e-09
9.52843e-22
5.74549e-10
-9.8659e-22
0
7.64369e-09
0
7.3573e-09
9.12259e-25
7.06277e-09
0
6.75738e-09
5.85173e-22
6.44063e-09
0
6.1121e-09
-6.28394e-22
5.77137e-09
0
5.41798e-09
-6.77088e-22
5.05147e-09
-7.01078e-22
4.67134e-09
0
4.27709e-09
-7.54147e-22
3.86819e-09
7.83473e-22
3.4441e-09
0
3.00425e-09
1.68415e-21
2.54806e-09
-8.72635e-22
2.07492e-09
-9.0506e-22
1.58421e-09
9.40254e-22
1.07525e-09
9.73566e-22
5.4736e-10
1.01141e-21
1.04908e-21
1.07276e-09
-3.56291e-25
2.14551e-09
-3.56291e-25
3.21827e-09
1.22091e-22
4.29103e-09
1.22091e-22
5.36384e-09
-3.5631e-25
6.43511e-09
-1.23084e-22
7.47099e-09
-3.46991e-25
0
8.15282e-09
1.22759e-09
0
2.45517e-09
0
3.68276e-09
0
4.91035e-09
0
6.138e-09
0
7.36336e-09
0
8.56309e-09
0
2.26414e-22
9.24587e-09
1.38242e-09
0
2.76483e-09
3.10827e-22
4.14725e-09
-3.11731e-22
5.52967e-09
-3.11732e-22
6.91213e-09
-3.12638e-22
8.29261e-09
3.10729e-22
9.6458e-09
-3.10238e-22
-4.95664e-25
1.04053e-08
1.53725e-09
3.43793e-22
3.0745e-09
3.42793e-22
4.61174e-09
-3.44793e-22
6.14899e-09
-3.44794e-22
7.68625e-09
6.88592e-22
9.22241e-09
3.43751e-22
1.0723e-08
-9.75471e-25
-5.46002e-25
1.15637e-08
1.69208e-09
-3.7676e-22
3.38416e-09
7.55712e-22
5.07624e-09
3.77856e-22
6.76831e-09
3.7676e-22
8.46036e-09
3.76763e-22
1.01523e-08
3.77858e-22
1.18014e-08
3.72299e-22
0
1.27237e-08
1.84691e-09
0
3.69382e-09
4.10918e-22
5.54073e-09
-4.10918e-22
7.38763e-09
0
9.23448e-09
0
1.10819e-08
0
1.2881e-08
4.0457e-22
-3.27575e-22
1.38855e-08
2.00174e-09
-4.42693e-22
4.00348e-09
-4.43981e-22
6.00522e-09
0
8.00695e-09
4.41404e-22
1.00086e-08
-4.45271e-22
1.20113e-08
0
1.39621e-08
4.37158e-22
-3.5375e-22
1.50497e-08
2.15657e-09
1.38405e-24
4.31314e-09
4.77043e-22
6.46971e-09
1.38405e-24
8.62627e-09
0
1.07827e-08
-4.75659e-22
1.29405e-08
0
1.50449e-08
4.71467e-22
3.8042e-22
1.62167e-08
2.3114e-09
-5.08626e-22
4.6228e-09
0
6.93421e-09
5.10105e-22
9.2456e-09
-5.08624e-22
1.15569e-08
-5.08623e-22
1.38693e-08
1.48053e-24
1.61297e-08
5.04938e-22
-4.06858e-22
1.73867e-08
2.46623e-09
1.5759e-24
4.93246e-09
-1.08476e-21
7.3987e-09
5.43167e-22
9.86492e-09
0
1.2331e-08
5.43161e-22
1.47977e-08
-1.08484e-21
1.72168e-08
5.37319e-22
-4.34709e-22
1.85603e-08
2.62106e-09
0
5.24213e-09
1.14912e-21
7.86319e-09
-1.14912e-21
1.04842e-08
0
1.31051e-08
0
1.57257e-08
0
1.83061e-08
-2.28987e-21
-9.2664e-22
1.97378e-08
2.77589e-09
-1.21859e-21
5.55179e-09
0
8.32769e-09
1.21505e-21
1.11036e-08
0
1.38793e-08
-3.53532e-24
1.66532e-08
-1.22191e-21
1.9398e-08
-2.42945e-21
0
2.09196e-08
2.93073e-09
1.28098e-21
5.86145e-09
1.28471e-21
8.79218e-09
0
1.17229e-08
-1.2847e-21
1.46535e-08
0
1.75806e-08
1.28435e-21
2.04932e-08
-1.28751e-21
1.0465e-21
2.21062e-08
3.08556e-09
1.34692e-21
6.17111e-09
0
9.25667e-09
-1.35475e-21
1.23422e-08
1.34299e-21
1.54277e-08
1.34688e-21
1.85086e-08
1.34642e-21
2.15742e-08
1.34848e-21
-2.20734e-24
2.32941e-08
3.24039e-09
6.48077e-09
9.72116e-09
1.29615e-08
1.62018e-08
1.94374e-08
2.26308e-08
2.46631e-08
8.34335e-09
-1.77039e-09
8.46902e-09
-1.83336e-09
8.58062e-09
-1.88267e-09
8.68459e-09
-1.93036e-09
8.78142e-09
-1.97789e-09
8.87121e-09
-2.02539e-09
8.95397e-09
-2.07289e-09
9.0297e-09
-2.12039e-09
9.0984e-09
-2.16788e-09
9.16007e-09
-2.21538e-09
9.21471e-09
-2.26288e-09
9.26233e-09
-2.31037e-09
9.30292e-09
-2.35787e-09
9.33649e-09
-2.40537e-09
9.36302e-09
-2.45286e-09
9.38253e-09
-2.50036e-09
9.39501e-09
-2.54786e-09
9.40046e-09
-2.59535e-09
9.39889e-09
-2.64285e-09
9.39028e-09
-2.69035e-09
9.37465e-09
-2.73784e-09
9.35199e-09
-2.78534e-09
9.32231e-09
-2.83284e-09
9.2856e-09
-2.88033e-09
9.24186e-09
-2.92783e-09
9.19109e-09
-2.97533e-09
9.13329e-09
-3.02282e-09
9.06847e-09
-3.07032e-09
8.99662e-09
-3.11782e-09
8.91774e-09
-3.16531e-09
8.83183e-09
-3.21281e-09
8.7389e-09
-3.26031e-09
8.63894e-09
-3.3078e-09
8.53195e-09
-3.3553e-09
8.41793e-09
-3.4028e-09
8.29689e-09
-3.45029e-09
8.16882e-09
-3.49779e-09
8.03372e-09
-3.54529e-09
7.89159e-09
-3.59278e-09
7.74244e-09
-3.64028e-09
7.58626e-09
-3.68778e-09
7.42305e-09
-3.73527e-09
7.25281e-09
-3.78277e-09
7.07555e-09
-3.83027e-09
6.89126e-09
-3.87776e-09
6.69994e-09
-3.92526e-09
6.50159e-09
-3.97276e-09
6.29621e-09
-4.02025e-09
6.0835e-09
-4.06754e-09
-4.10152e-09
5.8451e-09
9.48416e-09
-1.85976e-09
9.58775e-09
-1.91736e-09
9.66811e-09
-1.96065e-09
9.74011e-09
-2.00193e-09
9.80526e-09
-2.04295e-09
9.86379e-09
-2.08391e-09
9.91577e-09
-2.12487e-09
9.96121e-09
-2.16582e-09
1.00001e-08
-2.20678e-09
1.00325e-08
-2.24773e-09
1.00583e-08
-2.28868e-09
1.00775e-08
-2.32964e-09
1.00903e-08
-2.37059e-09
1.00964e-08
-2.41155e-09
1.00961e-08
-2.4525e-09
1.00892e-08
-2.49345e-09
1.00757e-08
-2.53441e-09
1.00557e-08
-2.57536e-09
1.00292e-08
-2.61631e-09
9.99611e-09
-2.65727e-09
9.95649e-09
-2.69822e-09
9.91032e-09
-2.73918e-09
9.85762e-09
-2.78013e-09
9.79837e-09
-2.82108e-09
9.73257e-09
-2.86204e-09
9.66024e-09
-2.90299e-09
9.58136e-09
-2.94394e-09
9.49594e-09
-2.9849e-09
9.40397e-09
-3.02585e-09
9.30547e-09
-3.06681e-09
9.20042e-09
-3.10776e-09
9.08882e-09
-3.14871e-09
8.97069e-09
-3.18967e-09
8.84601e-09
-3.23062e-09
8.71479e-09
-3.27157e-09
8.57702e-09
-3.31253e-09
8.43272e-09
-3.35348e-09
8.28187e-09
-3.39444e-09
8.12447e-09
-3.43539e-09
7.96054e-09
-3.47634e-09
7.79006e-09
-3.5173e-09
7.61304e-09
-3.55825e-09
7.42947e-09
-3.5992e-09
7.23936e-09
-3.64016e-09
7.04271e-09
-3.68111e-09
6.83952e-09
-3.72207e-09
6.62978e-09
-3.76302e-09
6.41348e-09
-3.80397e-09
6.18987e-09
-3.84461e-09
-3.87246e-09
5.92168e-09
1.06308e-08
-1.91566e-09
1.07066e-08
-1.96831e-09
1.07556e-08
-2.00594e-09
1.07956e-08
-2.04128e-09
1.08291e-08
-2.07626e-09
1.08564e-08
-2.11117e-09
1.08776e-08
-2.14607e-09
1.08927e-08
-2.18097e-09
1.09018e-08
-2.21586e-09
1.09048e-08
-2.25076e-09
1.09018e-08
-2.28566e-09
1.08927e-08
-2.32055e-09
1.08776e-08
-2.35545e-09
1.08564e-08
-2.39034e-09
1.08291e-08
-2.42524e-09
1.07958e-08
-2.46013e-09
1.07564e-08
-2.49503e-09
1.0711e-08
-2.52992e-09
1.06595e-08
-2.56482e-09
1.06019e-08
-2.59971e-09
1.05383e-08
-2.63461e-09
1.04687e-08
-2.66951e-09
1.03929e-08
-2.7044e-09
1.03111e-08
-2.7393e-09
1.02233e-08
-2.77419e-09
1.01294e-08
-2.80909e-09
1.00294e-08
-2.84398e-09
9.92341e-09
-2.87888e-09
9.81133e-09
-2.91377e-09
9.6932e-09
-2.94867e-09
9.569e-09
-2.98357e-09
9.43875e-09
-3.01846e-09
9.30244e-09
-3.05336e-09
9.16007e-09
-3.08825e-09
9.01164e-09
-3.12315e-09
8.85716e-09
-3.15804e-09
8.69661e-09
-3.19294e-09
8.53001e-09
-3.22783e-09
8.35735e-09
-3.26273e-09
8.17863e-09
-3.29763e-09
7.99386e-09
-3.33252e-09
7.80302e-09
-3.36742e-09
7.60613e-09
-3.40231e-09
7.40318e-09
-3.43721e-09
7.19417e-09
-3.4721e-09
6.9791e-09
-3.507e-09
6.75797e-09
-3.54189e-09
6.53076e-09
-3.57678e-09
6.29639e-09
-3.6113e-09
-3.6338e-09
6.01727e-09
1.17778e-08
-1.93856e-09
1.18256e-08
-1.98625e-09
1.18431e-08
-2.01856e-09
1.18512e-08
-2.04841e-09
1.18529e-08
-2.07783e-09
1.1849e-08
-2.10717e-09
1.18394e-08
-2.1365e-09
1.18242e-08
-2.16582e-09
1.18035e-08
-2.19515e-09
1.17772e-08
-2.22447e-09
1.17454e-08
-2.25379e-09
1.17079e-08
-2.28311e-09
1.16649e-08
-2.31243e-09
1.16163e-08
-2.34175e-09
1.15622e-08
-2.37108e-09
1.15024e-08
-2.4004e-09
1.14371e-08
-2.42972e-09
1.13662e-08
-2.45904e-09
1.12898e-08
-2.48836e-09
1.12078e-08
-2.51769e-09
1.11202e-08
-2.54701e-09
1.1027e-08
-2.57633e-09
1.09282e-08
-2.60565e-09
1.08239e-08
-2.63497e-09
1.0714e-08
-2.6643e-09
1.05985e-08
-2.69362e-09
1.04775e-08
-2.72294e-09
1.03509e-08
-2.75226e-09
1.02187e-08
-2.78158e-09
1.00809e-08
-2.81091e-09
9.93759e-09
-2.84023e-09
9.78867e-09
-2.86955e-09
9.63419e-09
-2.89887e-09
9.47413e-09
-2.92819e-09
9.3085e-09
-2.95752e-09
9.13729e-09
-2.98684e-09
8.96051e-09
-3.01616e-09
8.77816e-09
-3.04548e-09
8.59023e-09
-3.0748e-09
8.39673e-09
-3.10412e-09
8.19766e-09
-3.13345e-09
7.99301e-09
-3.16277e-09
7.78279e-09
-3.19209e-09
7.56699e-09
-3.22141e-09
7.34562e-09
-3.25073e-09
7.11868e-09
-3.28006e-09
6.88617e-09
-3.30938e-09
6.64804e-09
-3.33869e-09
6.40297e-09
-3.3676e-09
-3.38532e-09
6.11328e-09
1.29254e-08
-1.92844e-09
1.29447e-08
-1.97117e-09
1.29306e-08
-1.99852e-09
1.29067e-08
-2.02332e-09
1.28768e-08
-2.04766e-09
1.28415e-08
-2.07192e-09
1.28012e-08
-2.09615e-09
1.27558e-08
-2.12039e-09
1.27052e-08
-2.14462e-09
1.26496e-08
-2.16885e-09
1.25889e-08
-2.19309e-09
1.25231e-08
-2.21732e-09
1.24522e-08
-2.24155e-09
1.23763e-08
-2.26578e-09
1.22952e-08
-2.29002e-09
1.22091e-08
-2.31425e-09
1.21178e-08
-2.33848e-09
1.20215e-08
-2.36272e-09
1.19201e-08
-2.38695e-09
1.18136e-08
-2.41118e-09
1.1702e-08
-2.43542e-09
1.15853e-08
-2.45965e-09
1.14635e-08
-2.48388e-09
1.13367e-08
-2.50811e-09
1.12047e-08
-2.53235e-09
1.10677e-08
-2.55658e-09
1.09256e-08
-2.58081e-09
1.07783e-08
-2.60505e-09
1.0626e-08
-2.62928e-09
1.04687e-08
-2.65351e-09
1.03062e-08
-2.67775e-09
1.01386e-08
-2.70198e-09
9.96594e-09
-2.72621e-09
9.78819e-09
-2.75044e-09
9.60535e-09
-2.77468e-09
9.41742e-09
-2.79891e-09
9.22441e-09
-2.82314e-09
9.0263e-09
-2.84738e-09
8.82311e-09
-2.87161e-09
8.61483e-09
-2.89584e-09
8.40146e-09
-2.92008e-09
8.183e-09
-2.94431e-09
7.95945e-09
-2.96854e-09
7.73081e-09
-2.99277e-09
7.49708e-09
-3.01701e-09
7.25826e-09
-3.04124e-09
7.01436e-09
-3.06547e-09
6.76532e-09
-3.08969e-09
6.50961e-09
-3.1135e-09
-3.12699e-09
6.20937e-09
1.40738e-08
-1.88529e-09
1.40641e-08
-1.92307e-09
1.40182e-08
-1.9458e-09
1.39622e-08
-1.966e-09
1.39006e-08
-1.98574e-09
1.38341e-08
-2.0054e-09
1.3763e-08
-2.02503e-09
1.36873e-08
-2.04466e-09
1.36069e-08
-2.06429e-09
1.3522e-08
-2.08392e-09
1.34325e-08
-2.10354e-09
1.33383e-08
-2.12317e-09
1.32396e-08
-2.1428e-09
1.31362e-08
-2.16243e-09
1.30283e-08
-2.18206e-09
1.29157e-08
-2.20169e-09
1.27985e-08
-2.22132e-09
1.26768e-08
-2.24095e-09
1.25504e-08
-2.26057e-09
1.24194e-08
-2.2802e-09
1.22838e-08
-2.29983e-09
1.21436e-08
-2.31946e-09
1.19988e-08
-2.33909e-09
1.18494e-08
-2.35872e-09
1.16954e-08
-2.37835e-09
1.15368e-08
-2.39798e-09
1.13736e-08
-2.4176e-09
1.12058e-08
-2.43723e-09
1.10334e-08
-2.45686e-09
1.08564e-08
-2.47649e-09
1.06748e-08
-2.49612e-09
1.04885e-08
-2.51575e-09
1.02977e-08
-2.53538e-09
1.01022e-08
-2.55501e-09
9.9022e-09
-2.57463e-09
9.69756e-09
-2.59426e-09
9.48831e-09
-2.61389e-09
9.27445e-09
-2.63352e-09
9.05599e-09
-2.65315e-09
8.83292e-09
-2.67278e-09
8.60526e-09
-2.69241e-09
8.37298e-09
-2.71203e-09
8.1361e-09
-2.73166e-09
7.89462e-09
-2.75129e-09
7.64854e-09
-2.77092e-09
7.39785e-09
-2.79055e-09
7.14255e-09
-2.81018e-09
6.8826e-09
-2.82979e-09
6.6163e-09
-2.84901e-09
-2.85881e-09
6.30555e-09
1.52233e-08
-1.80909e-09
1.51837e-08
-1.84193e-09
1.51059e-08
-1.86041e-09
1.50178e-08
-1.87647e-09
1.49244e-08
-1.89209e-09
1.48267e-08
-1.90762e-09
1.47248e-08
-1.92313e-09
1.46188e-08
-1.93864e-09
1.45087e-08
-1.95415e-09
1.43944e-08
-1.96966e-09
1.4276e-08
-1.98517e-09
1.41535e-08
-2.00068e-09
1.40269e-08
-2.01618e-09
1.38962e-08
-2.03169e-09
1.37613e-08
-2.0472e-09
1.36223e-08
-2.06271e-09
1.34792e-08
-2.07822e-09
1.3332e-08
-2.09373e-09
1.31807e-08
-2.10924e-09
1.30252e-08
-2.12475e-09
1.28657e-08
-2.14026e-09
1.2702e-08
-2.15577e-09
1.25341e-08
-2.17128e-09
1.23622e-08
-2.18678e-09
1.21862e-08
-2.20229e-09
1.2006e-08
-2.2178e-09
1.18217e-08
-2.23331e-09
1.16333e-08
-2.24882e-09
1.14408e-08
-2.26433e-09
1.12441e-08
-2.27984e-09
1.10433e-08
-2.29535e-09
1.08384e-08
-2.31086e-09
1.06294e-08
-2.32637e-09
1.04163e-08
-2.34188e-09
1.01991e-08
-2.35739e-09
9.97769e-09
-2.37289e-09
9.7522e-09
-2.3884e-09
9.5226e-09
-2.40391e-09
9.28887e-09
-2.41942e-09
9.05102e-09
-2.43493e-09
8.80905e-09
-2.45044e-09
8.56297e-09
-2.46595e-09
8.31276e-09
-2.48146e-09
8.05844e-09
-2.49697e-09
7.79999e-09
-2.51248e-09
7.53743e-09
-2.52799e-09
7.27074e-09
-2.54349e-09
6.99988e-09
-2.55899e-09
6.72305e-09
-2.57412e-09
-2.58076e-09
6.40181e-09
1.63739e-08
-1.69978e-09
1.63037e-08
-1.72775e-09
1.61936e-08
-1.74233e-09
1.60734e-08
-1.75471e-09
1.59483e-08
-1.76668e-09
1.58193e-08
-1.77858e-09
1.56866e-08
-1.79045e-09
1.55503e-08
-1.80233e-09
1.54104e-08
-1.8142e-09
1.52668e-08
-1.82608e-09
1.51196e-08
-1.83795e-09
1.49687e-08
-1.84983e-09
1.48142e-08
-1.8617e-09
1.46561e-08
-1.87357e-09
1.44944e-08
-1.88545e-09
1.4329e-08
-1.89732e-09
1.41599e-08
-1.9092e-09
1.39873e-08
-1.92107e-09
1.3811e-08
-1.93294e-09
1.36311e-08
-1.94482e-09
1.34475e-08
-1.95669e-09
1.32603e-08
-1.96857e-09
1.30695e-08
-1.98044e-09
1.2875e-08
-1.99232e-09
1.26769e-08
-2.00419e-09
1.24751e-08
-2.01606e-09
1.22698e-08
-2.02794e-09
1.20608e-08
-2.03981e-09
1.18481e-08
-2.05169e-09
1.16318e-08
-2.06356e-09
1.14119e-08
-2.07543e-09
1.11884e-08
-2.08731e-09
1.09612e-08
-2.09918e-09
1.07304e-08
-2.11106e-09
1.04959e-08
-2.12293e-09
1.02578e-08
-2.13481e-09
1.00161e-08
-2.14668e-09
9.77074e-09
-2.15855e-09
9.52175e-09
-2.17043e-09
9.26912e-09
-2.1823e-09
9.01285e-09
-2.19418e-09
8.75296e-09
-2.20605e-09
8.48942e-09
-2.21792e-09
8.22225e-09
-2.2298e-09
7.95145e-09
-2.24167e-09
7.67701e-09
-2.25355e-09
7.39894e-09
-2.26542e-09
7.11717e-09
-2.27728e-09
6.82987e-09
-2.28882e-09
-2.29284e-09
6.49816e-09
1.75259e-08
-1.55729e-09
1.7424e-08
-1.58048e-09
1.72814e-08
-1.59157e-09
1.7129e-08
-1.60073e-09
1.69721e-08
-1.60954e-09
1.68119e-08
-1.61828e-09
1.66484e-08
-1.627e-09
1.64818e-08
-1.63573e-09
1.63121e-08
-1.64445e-09
1.61392e-08
-1.65317e-09
1.59631e-08
-1.6619e-09
1.57839e-08
-1.67062e-09
1.56016e-08
-1.67935e-09
1.54161e-08
-1.68807e-09
1.52274e-08
-1.69679e-09
1.50356e-08
-1.70552e-09
1.48406e-08
-1.71424e-09
1.46425e-08
-1.72297e-09
1.44413e-08
-1.73169e-09
1.42369e-08
-1.74041e-09
1.40293e-08
-1.74914e-09
1.38186e-08
-1.75786e-09
1.36048e-08
-1.76658e-09
1.33878e-08
-1.77531e-09
1.31676e-08
-1.78403e-09
1.29443e-08
-1.79276e-09
1.27178e-08
-1.80148e-09
1.24882e-08
-1.8102e-09
1.22555e-08
-1.81893e-09
1.20196e-08
-1.82765e-09
1.17805e-08
-1.83638e-09
1.15383e-08
-1.8451e-09
1.12929e-08
-1.85382e-09
1.10444e-08
-1.86255e-09
1.07928e-08
-1.87127e-09
1.0538e-08
-1.88e-09
1.028e-08
-1.88872e-09
1.00189e-08
-1.89744e-09
9.75463e-09
-1.90617e-09
9.48722e-09
-1.91489e-09
9.21665e-09
-1.92361e-09
8.94294e-09
-1.93234e-09
8.66608e-09
-1.94106e-09
8.38607e-09
-1.94979e-09
8.10291e-09
-1.95851e-09
7.81659e-09
-1.96723e-09
7.52713e-09
-1.97596e-09
7.23445e-09
-1.98467e-09
6.93675e-09
-1.99311e-09
-1.99504e-09
6.59459e-09
1.86794e-08
-1.38155e-09
1.85448e-08
-1.4001e-09
1.83693e-08
-1.40812e-09
1.81846e-08
-1.41452e-09
1.7996e-08
-1.42064e-09
1.78044e-08
-1.42671e-09
1.76102e-08
-1.43277e-09
1.74133e-08
-1.43883e-09
1.72138e-08
-1.44489e-09
1.70116e-08
-1.45095e-09
1.68067e-08
-1.45701e-09
1.65991e-08
-1.46307e-09
1.63889e-08
-1.46912e-09
1.6176e-08
-1.47518e-09
1.59605e-08
-1.48124e-09
1.57422e-08
-1.4873e-09
1.55214e-08
-1.49336e-09
1.52978e-08
-1.49942e-09
1.50716e-08
-1.50547e-09
1.48427e-08
-1.51153e-09
1.46112e-08
-1.51759e-09
1.43769e-08
-1.52365e-09
1.41401e-08
-1.52971e-09
1.39005e-08
-1.53577e-09
1.36583e-08
-1.54182e-09
1.34134e-08
-1.54788e-09
1.31659e-08
-1.55394e-09
1.29157e-08
-1.56e-09
1.26628e-08
-1.56606e-09
1.24073e-08
-1.57212e-09
1.21491e-08
-1.57817e-09
1.18882e-08
-1.58423e-09
1.16247e-08
-1.59029e-09
1.13585e-08
-1.59635e-09
1.10896e-08
-1.60241e-09
1.08181e-08
-1.60846e-09
1.05439e-08
-1.61452e-09
1.0267e-08
-1.62058e-09
9.98751e-09
-1.62664e-09
9.70531e-09
-1.6327e-09
9.42045e-09
-1.63876e-09
9.13293e-09
-1.64481e-09
8.84274e-09
-1.65087e-09
8.54988e-09
-1.65693e-09
8.25436e-09
-1.66299e-09
7.95617e-09
-1.66905e-09
7.65532e-09
-1.67511e-09
7.35175e-09
-1.68116e-09
7.04369e-09
-1.68699e-09
-1.68734e-09
6.69112e-09
1.98346e-08
-1.17246e-09
1.9666e-08
-1.18658e-09
1.94573e-08
-1.19196e-09
1.92402e-08
-1.19608e-09
1.90198e-08
-1.20001e-09
1.8797e-08
-1.20389e-09
1.8572e-08
-1.20777e-09
1.83449e-08
-1.21165e-09
1.81155e-08
-1.21553e-09
1.78839e-08
-1.2194e-09
1.76502e-08
-1.22328e-09
1.74143e-08
-1.22716e-09
1.71762e-08
-1.23104e-09
1.6936e-08
-1.23491e-09
1.66935e-08
-1.23879e-09
1.64489e-08
-1.24267e-09
1.62021e-08
-1.24654e-09
1.59531e-08
-1.25042e-09
1.57019e-08
-1.2543e-09
1.54485e-08
-1.25818e-09
1.5193e-08
-1.26205e-09
1.49353e-08
-1.26593e-09
1.46754e-08
-1.26981e-09
1.44133e-08
-1.27369e-09
1.4149e-08
-1.27756e-09
1.38826e-08
-1.28144e-09
1.3614e-08
-1.28532e-09
1.33432e-08
-1.2892e-09
1.30702e-08
-1.29307e-09
1.2795e-08
-1.29695e-09
1.25177e-08
-1.30083e-09
1.22381e-08
-1.3047e-09
1.19564e-08
-1.30858e-09
1.16725e-08
-1.31246e-09
1.13865e-08
-1.31634e-09
1.10982e-08
-1.32021e-09
1.08078e-08
-1.32409e-09
1.05152e-08
-1.32797e-09
1.02204e-08
-1.33184e-09
9.92341e-09
-1.33572e-09
9.62425e-09
-1.3396e-09
9.32292e-09
-1.34348e-09
9.0194e-09
-1.34735e-09
8.7137e-09
-1.35123e-09
8.40582e-09
-1.35511e-09
8.09576e-09
-1.35899e-09
7.78351e-09
-1.36286e-09
7.46904e-09
-1.36674e-09
7.1507e-09
-1.37045e-09
-1.36973e-09
6.78775e-09
2.09917e-08
-9.2989e-10
2.07877e-08
-9.39856e-10
2.05453e-08
-9.43078e-10
2.02958e-08
-9.45415e-10
2.00437e-08
-9.47624e-10
1.97896e-08
-9.49811e-10
1.95338e-08
-9.51993e-10
1.92764e-08
-9.54174e-10
1.90172e-08
-9.56355e-10
1.87563e-08
-9.58536e-10
1.84938e-08
-9.60717e-10
1.82295e-08
-9.62898e-10
1.79636e-08
-9.65079e-10
1.76959e-08
-9.6726e-10
1.74265e-08
-9.69441e-10
1.71555e-08
-9.71622e-10
1.68828e-08
-9.73803e-10
1.66083e-08
-9.75984e-10
1.63322e-08
-9.78165e-10
1.60544e-08
-9.80346e-10
1.57748e-08
-9.82527e-10
1.54936e-08
-9.84707e-10
1.52107e-08
-9.86888e-10
1.49261e-08
-9.89069e-10
1.46398e-08
-9.9125e-10
1.43517e-08
-9.93431e-10
1.4062e-08
-9.95612e-10
1.37706e-08
-9.97793e-10
1.34775e-08
-9.99974e-10
1.31827e-08
-1.00216e-09
1.28863e-08
-1.00434e-09
1.25881e-08
-1.00652e-09
1.22882e-08
-1.0087e-09
1.19866e-08
-1.01088e-09
1.16833e-08
-1.01306e-09
1.13784e-08
-1.01524e-09
1.10717e-08
-1.01742e-09
1.07633e-08
-1.0196e-09
1.04533e-08
-1.02178e-09
1.01415e-08
-1.02396e-09
9.82805e-09
-1.02615e-09
9.5129e-09
-1.02833e-09
9.19606e-09
-1.03051e-09
8.87751e-09
-1.03269e-09
8.55727e-09
-1.03487e-09
8.23534e-09
-1.03705e-09
7.91171e-09
-1.03923e-09
7.58634e-09
-1.04141e-09
7.25778e-09
-1.04349e-09
-1.04221e-09
6.88447e-09
2.21507e-08
-6.5373e-10
2.19099e-08
-6.59891e-10
2.16335e-08
-6.61467e-10
2.13515e-08
-6.62513e-10
2.10675e-08
-6.63496e-10
2.07822e-08
-6.64468e-10
2.04957e-08
-6.65438e-10
2.02079e-08
-6.66407e-10
1.99189e-08
-6.67377e-10
1.96287e-08
-6.68346e-10
1.93373e-08
-6.69315e-10
1.90447e-08
-6.70285e-10
1.87509e-08
-6.71254e-10
1.84558e-08
-6.72223e-10
1.81596e-08
-6.73193e-10
1.78621e-08
-6.74162e-10
1.75635e-08
-6.75131e-10
1.72636e-08
-6.76101e-10
1.69625e-08
-6.7707e-10
1.66602e-08
-6.78039e-10
1.63567e-08
-6.79008e-10
1.60519e-08
-6.79978e-10
1.5746e-08
-6.80947e-10
1.54388e-08
-6.81916e-10
1.51305e-08
-6.82886e-10
1.48209e-08
-6.83855e-10
1.45101e-08
-6.84824e-10
1.41981e-08
-6.85794e-10
1.38849e-08
-6.86763e-10
1.35705e-08
-6.87732e-10
1.32548e-08
-6.88701e-10
1.2938e-08
-6.89671e-10
1.26199e-08
-6.9064e-10
1.23007e-08
-6.91609e-10
1.19802e-08
-6.92579e-10
1.16585e-08
-6.93548e-10
1.13356e-08
-6.94517e-10
1.10115e-08
-6.95487e-10