/*--------------------------------*- C++ -*----------------------------------*\
  =========                 |
  \\      /  F ield         | OpenFOAM: The Open Source CFD Toolbox
   \\    /   O peration     | Website:  https://openfoam.org
    \\  /    A nd           | Version:  13
     \\/     M anipulation  |
\*---------------------------------------------------------------------------*/
FoamFile
{
    format      ascii;
    class       volScalarField;
    location    "0.001";
    object      p;
}
// * * * * * * * * * * * * * * * * * * * * * * * * * * * * * * * * * * * * * //

dimensions      [0 2 -2 0 0 0 0];

internalField   nonuniform List<scalar> 
1690
(
0.00013632
0.0479074
0.0942411
0.136018
0.156749
0.129238
0.0641617
0.0162764
0.000377835
0.0482587
0.094785
0.136826
0.157549
0.12972
0.0638021
0.0149783
0.000630863
0.0480337
0.0941498
0.135888
0.156268
0.127783
0.0610176
0.0123163
0.00102262
0.047712
0.0932325
0.134544
0.154462
0.124947
0.0567321
0.00809982
0.00153098
0.0472835
0.0920182
0.132747
0.151974
0.121005
0.0508129
0.00226448
0.00212497
0.0467064
0.0904357
0.130372
0.148567
0.115663
0.0430582
-0.00531839
0.00277541
0.0459494
0.0884361
0.127304
0.144075
0.108709
0.0333859
-0.0147466
0.00345192
0.044987
0.0859805
0.123431
0.138423
0.100095
0.0219904
-0.0259066
0.00412153
0.0437992
0.0830348
0.118663
0.131631
0.0900891
0.00944912
-0.0382877
0.00475128
0.0423734
0.0795787
0.112952
0.123747
0.0794026
-0.0034241
-0.050889
0.00531135
0.0407092
0.0756201
0.106343
0.114875
0.0689581
-0.0157155
-0.0626031
0.00577828
0.0388207
0.0712065
0.0989782
0.105288
0.059414
-0.02581
-0.073205
0.00613703
0.0367327
0.0664156
0.0910618
0.0952741
0.0508893
-0.0321103
-0.0828731
0.00638024
0.034468
0.0613095
0.0827384
0.0849235
0.042647
-0.0366357
-0.100791
0.00650819
0.0320409
0.0559329
0.0741248
0.0742383
0.0334102
-0.0439144
-0.124456
4.65735
4.6527
4.64428
4.63132
4.61327
4.59033
4.56307
4.5323
4.49901
4.46426
4.42919
4.39488
4.3623
4.33231
4.30557
4.28265
4.26395
4.24979
4.24057
4.23685
4.65111
4.64639
4.63772
4.62462
4.60636
4.58324
4.55583
4.52499
4.49171
4.4571
4.42228
4.38831
4.35616
4.32663
4.30038
4.27793
4.25965
4.24583
4.23686
4.23328
4.64102
4.6362
4.62741
4.61402
4.59541
4.57187
4.54409
4.51299
4.47961
4.4451
4.41059
4.37712
4.34563
4.31686
4.29141
4.26974
4.25217
4.23892
4.23035
4.22694
4.62567
4.62067
4.61166
4.59788
4.57878
4.55474
4.52655
4.49522
4.46189
4.42771
4.39383
4.36126
4.33085
4.30329
4.27908
4.25858
4.24205
4.22965
4.22165
4.21849
4.60527
4.60006
4.59082
4.57663
4.55703
4.53248
4.50396
4.47257
4.43952
4.40601
4.37314
4.34188
4.31299
4.28704
4.26444
4.24546
4.23024
4.21888
4.21159
4.20875
4.57953
4.57415
4.56471
4.55016
4.53012
4.50521
4.47658
4.44543
4.41305
4.38064
4.34926
4.31978
4.29285
4.26894
4.24831
4.23112
4.21745
4.20731
4.20083
4.19834
4.54773
4.54225
4.53273
4.51797
4.49771
4.47274
4.44438
4.41397
4.38281
4.35209
4.32277
4.29561
4.27113
4.24964
4.23131
4.21618
4.20425
4.19545
4.18987
4.18775
4.50884
4.50341
4.49405
4.4794
4.45933
4.43482
4.40738
4.3784
4.3492
4.32087
4.29427
4.27
4.24843
4.22975
4.214
4.20114
4.19107
4.18372
4.17908
4.17735
4.46145
4.45638
4.4476
4.43365
4.41447
4.39125
4.36563
4.339
4.31264
4.28752
4.26433
4.24352
4.22531
4.20976
4.19682
4.18637
4.17828
4.17241
4.16874
4.16739
4.40367
4.39945
4.39202
4.37974
4.36256
4.34183
4.31924
4.29613
4.27365
4.25261
4.23354
4.21673
4.20227
4.19011
4.18014
4.17219
4.1661
4.16173
4.15903
4.15806
4.33285
4.3304
4.32563
4.31659
4.30305
4.28647
4.26846
4.25024
4.23278
4.21673
4.20246
4.19012
4.17972
4.17113
4.16422
4.1588
4.15472
4.15183
4.15007
4.14946
4.24536
4.24627
4.2464
4.24302
4.23552
4.22528
4.21373
4.20193
4.19069
4.1805
4.17163
4.16415
4.15801
4.15311
4.14927
4.14636
4.14423
4.14277
4.14192
4.14165
4.13595
4.14321
4.15195
4.15794
4.15974
4.15859
4.15567
4.15191
4.14805
4.14451
4.14153
4.13919
4.13744
4.13622
4.13543
4.13495
4.13469
4.13459
4.1346
4.13464
3.99687
4.01623
4.03965
4.06044
4.07583
4.08705
4.0951
4.10102
4.10559
4.10935
4.11261
4.11554
4.11821
4.12062
4.12276
4.1246
4.12611
4.12728
4.12808
4.1284
3.81606
3.85919
3.90676
3.95007
3.98437
4.01166
4.03303
4.05013
4.06401
4.07553
4.08522
4.09346
4.10046
4.10637
4.1113
4.11532
4.11847
4.1208
4.12233
4.12291
3.57391
3.66525
3.75069
3.82717
3.88649
3.93373
3.97062
4.00012
4.02395
4.04348
4.05964
4.07308
4.08426
4.09349
4.10103
4.10706
4.11172
4.11511
4.1173
4.11811
3.2363
3.42796
3.56934
3.69317
3.78397
3.85481
3.90911
3.95187
3.98595
4.01354
4.03605
4.05451
4.06964
4.08197
4.09192
4.09979
4.1058
4.11015
4.11293
4.11395
2.74526
3.14373
3.36188
3.55077
3.67933
3.77681
3.84964
3.9061
3.95048
3.98595
4.01457
4.03776
4.05658
4.07176
4.0839
4.09342
4.10066
4.10586
4.10916
4.11035
1.99036
2.80708
3.1314
3.4039
3.57544
3.70152
3.7933
3.86342
3.91782
3.96085
3.99521
4.02281
4.04501
4.06278
4.07689
4.08789
4.09621
4.10216
4.10592
4.10727
0.848423
2.41191
2.89301
3.25934
3.47565
3.6306
3.74098
3.82425
3.88816
3.93827
3.97795
4.00959
4.03485
4.05495
4.07081
4.08312
4.0924
4.09899
4.10317
4.10465
0.00655615
0.0277671
0.0467959
0.0599297
0.0569315
0.0181759
-0.0537572
-0.108831
0.00618622
0.0216851
0.0348754
0.0423871
0.0369963
0.00555401
-0.0496534
-0.0831021
0.00546653
0.0157006
0.0239334
0.026862
0.0195438
-0.00588348
-0.047696
-0.0730224
0.00461426
0.0100755
0.0142533
0.0136285
0.00494649
-0.0166391
-0.0476676
-0.0710749
0.00383845
0.00498726
0.00582374
0.00244455
-0.00739927
-0.0263845
-0.0511161
-0.0730186
0.00225248
0.000473613
-0.00148617
-0.00709538
-0.017856
-0.0351392
-0.0565674
-0.0771357
2.73565e-06
-0.00347115
-0.00783069
-0.0152179
-0.0267483
-0.0431212
-0.0629286
-0.0826611
-0.00167866
-0.00684932
-0.0132231
-0.0220857
-0.0343202
-0.0503593
-0.0694883
-0.0888861
-0.00301534
-0.0097351
-0.0177488
-0.0278619
-0.0407826
-0.0568714
-0.0758912
-0.0953738
-0.0040915
-0.0121376
-0.0215008
-0.0326777
-0.0462679
-0.0626356
-0.0818828
-0.101745
-0.00494047
-0.0140971
-0.0245627
-0.0366395
-0.0508686
-0.0676381
-0.0872979
-0.107728
-0.00559191
-0.0156528
-0.0270027
-0.0398254
-0.0546458
-0.0718804
-0.0920258
-0.113075
-0.00607125
-0.0168296
-0.028867
-0.0422896
-0.0576479
-0.0753971
-0.0960041
-0.117502
-0.00640686
-0.0176242
-0.0301514
-0.0439826
-0.0597004
-0.0778361
-0.0986447
-0.120069
-0.00665567
-0.0180396
-0.0309364
-0.0450231
-0.0609911
-0.0797168
-0.101347
-0.122655
-0.149413
-0.145055
-0.141859
-0.142653
-0.145625
-0.1502
-0.156096
-0.163121
-0.171136
-0.180041
-0.189757
-0.200215
-0.211349
-0.223084
-0.235321
-0.247912
-0.260636
-0.273163
-0.28504
-0.295709
-0.30462
-0.311453
-0.316471
-0.321032
-0.328218
-0.343423
-0.375007
-0.435198
-0.540426
-0.711207
-0.969413
-1.33386
-1.81369
-2.39764
-3.04513
-3.6861
-4.23955
-4.6416
-4.86189
-4.90695
-4.82692
-4.69177
-4.56548
-4.49104
-4.48854
-4.56095
-4.70376
-4.93062
-5.19842
-7.96735
-0.118259
-0.12709
-0.131395
-0.136109
-0.141721
-0.148223
-0.155561
-0.163699
-0.172599
-0.182229
-0.192549
-0.203521
-0.215096
-0.22721
-0.239769
-0.252615
-0.265491
-0.277998
-0.289576
-0.299552
-0.307316
-0.312649
-0.316199
-0.320028
-0.328175
-0.347147
-0.386237
-0.459218
-0.584258
-0.784327
-1.08379
-1.50094
-2.03889
-2.67656
-3.3606
-4.0095
-4.53292
-4.86573
-4.9896
-4.93743
-4.79098
-4.6273
-4.50825
-4.45897
-4.48456
-4.58022
-4.73353
-4.92541
-5.28909
-6.76202
-0.101314
-0.113261
-0.121627
-0.129245
-0.136927
-0.144949
-0.153452
-0.162504
-0.172138
-0.182368
-0.193191
-0.204595
-0.216552
-0.229011
-0.241873
-0.254962
-0.267977
-0.280469
-0.291842
-0.301462
-0.308865
-0.314082
-0.317989
-0.322807
-0.332933
-0.355856
-0.401833
-0.488441
-0.636428
-0.871308
-1.21838
-1.69392
-2.294
-2.98619
-3.70339
-4.35204
-4.83871
-5.10347
-5.1402
-4.99607
-4.76194
-4.5528
-4.43177
-4.40842
-4.46925
-4.59142
-4.74704
-4.92145
-5.23986
-5.45895
-0.0936957
-0.106514
-0.116281
-0.125324
-0.134306
-0.143458
-0.152918
-0.16277
-0.173073
-0.183864
-0.195162
-0.206971
-0.219276
-0.232031
-0.245146
-0.258457
-0.271704
-0.284513
-0.296415
-0.306923
-0.315697
-0.322806
-0.329114
-0.337037
-0.351485
-0.380776
-0.437759
-0.541455
-0.715501
-0.987409
-1.38287
-1.91577
-2.57614
-3.31902
-4.06297
-4.70461
-5.14865
-5.34376
-5.29187
-5.05095
-4.73547
-4.47725
-4.34881
-4.3513
-4.44866
-4.59154
-4.73408
-4.87668
-4.99369
-4.28551
-0.0925861
-0.105352
-0.115567
-0.125234
-0.134885
-0.144698
-0.154781
-0.165211
-0.176043
-0.187316
-0.199056
-0.211275
-0.223971
-0.237121
-0.250674
-0.264526
-0.278507
-0.292373
-0.305826
-0.31857
-0.330427
-0.341564
-0.353028
-0.36752
-0.390347
-0.430496
-0.501972
-0.624772
-0.824042
-1.12774
-1.56082
-2.13424
-2.83309
-3.6031
-4.35261
-4.97123
-5.3653
-5.49402
-5.3694
-5.06105
-4.69462
-4.4097
-4.28372
-4.31037
-4.42953
-4.5716
-4.67751
-4.70391
-4.49488
-3.2328
-0.0950476
-0.107611
-0.117987
-0.127997
-0.138085
-0.148393
-0.159001
-0.16997
-0.18135
-0.193182
-0.205499
-0.218326
-0.231683
-0.24558
-0.260009
-0.274938
-0.290314
-0.306067
-0.322156
-0.338614
-0.355659
-0.373871
-0.394579
-0.420642
-0.457369
-0.513382
-0.602108
-0.742686
-0.959477
-1.27956
-1.72633
-2.3089
-3.0092
-3.77035
-4.49801
-5.08132
-5.43065
-5.51359
-5.35162
-5.01992
-4.64663
-4.36634
-4.25147
-4.29084
-4.40521
-4.49833
-4.49842
-4.34506
-3.80555
-2.31887
-0.0997375
-0.112222
-0.122725
-0.132996
-0.14345
-0.15421
-0.165343
-0.176904
-0.188942
-0.201504
-0.214635
-0.22838
-0.242784
-0.257895
-0.273758
-0.290434
-0.308045
-0.326799
-0.347068
-0.3695
-0.395058
-0.425034
-0.461111
-0.505628
-0.56275
-0.639141
-0.745479
-0.898002
-1.1184
-1.43142
-1.85882
-2.40952
-3.06727
-3.78006
-4.46026
-5.00391
-5.32675
-5.39715
-5.24209
-4.93733
-4.59872
-4.34815
-4.24607
-4.264
-4.31734
-4.30916
-4.16636
-3.83055
-3.07636
-1.61613
-0.105607
-0.118134
-0.12881
-0.139379
-0.15024
-0.16151
-0.173254
-0.18553
-0.198395
-0.21191
-0.226144
-0.241169
-0.25707
-0.273949
-0.29194
-0.311251
-0.332287
-0.355686
-0.382476
-0.414175
-0.452714
-0.500108
-0.558138
-0.627761
-0.711045
-0.81019
-0.931495
-1.08655
-1.29316
-1.57339
-1.94805
-2.42767
-3.00159
-3.62871
-4.23662
-4.73639
-5.05151
-5.14568
-5.03773
-4.79866
-4.52349
-4.31146
-4.20308
-4.16792
-4.12932
-4.00324
-3.73472
-3.27268
-2.43641
-1.13088
-0.112078
-0.124764
-0.135678
-0.1466
-0.157925
-0.169773
-0.182215
-0.195319
-0.209162
-0.223831
-0.239425
-0.256064
-0.273894
-0.293106
-0.31398
-0.336912
-0.362752
-0.392615
-0.428457
-0.472804
-0.528519
-0.598229
-0.682808
-0.780352
-0.892888
-1.01394
-1.14505
-1.29243
-1.46969
-1.69676
-1.9946
-2.37674
-2.83947
-3.35417
-3.86643
-4.30676
-4.61182
-4.74528
-4.71185
-4.56484
-4.36288
-4.1918
-4.07456
-3.98539
-3.86405
-3.64827
-3.30016
-2.77267
-1.93523
-0.80762
-0.118654
-0.131576
-0.142773
-0.154094
-0.165929
-0.178403
-0.191599
-0.205603
-0.220516
-0.236458
-0.253577
-0.27205
-0.292107
-0.314036
-0.338346
-0.365743
-0.39726
-0.434839
-0.481171
-0.539715
-0.614042
-0.706802
-0.818774
-0.947628
-1.08211
-1.21972
-1.35448
-1.48683
-1.62677
-1.79272
-2.00647
-2.28522
-2.63247
-3.03114
-3.44272
-3.81528
-4.09899
-4.2617
-4.29699
-4.22573
-4.11583
-3.99458
-3.88216
-3.76026
-3.58616
-3.31749
-2.92715
-2.37179
-1.56505
-0.587228
-0.124963
-0.138154
-0.14965
-0.161384
-0.173737
-0.186837
-0.200782
-0.215678
-0.231646
-0.248842
-0.267486
-0.287787
-0.310069
-0.334766
-0.362469
-0.394187
-0.4314
-0.476409
-0.532449
-0.603542
-0.693652
-0.805129
-0.937011
-1.08424
-1.23702
-1.3848
-1.51767
-1.63319
-1.73911
-1.85226
-1.99395
-2.18359
-2.43096
-2.72959
-3.05468
-3.36831
-3.63068
-3.81217
-3.90068
-3.90508
-3.85983
-3.7824
-3.68287
-3.54626
-3.3431
-3.04522
-2.63217
-2.06718
-1.29844
-0.4312
-0.130643
-0.1441
-0.155885
-0.168016
-0.180852
-0.194524
-0.209138
-0.224815
-0.241695
-0.259921
-0.279929
-0.301806
-0.325951
-0.352913
-0.383442
-0.418663
-0.460265
-0.510744
-0.573501
-0.652584
-0.751807
-0.873118
-1.01461
-1.16943
-1.32731
-1.47654
-1.6034
-1.70607
-1.79131
-1.8737
-1.97147
-2.10189
-2.27664
-2.4973
-2.75198
-3.01615
-3.25895
-3.45237
-3.57932
-3.63816
-3.63993
-3.59834
-3.51189
-3.36927
-3.14996
-2.83476
-2.4079
-1.84186
-1.1093
-0.318746
-0.135353
-0.149083
-0.161146
-0.173622
-0.186855
-0.200978
-0.216116
-0.232401
-0.250014
-0.2692
-0.290003
-0.312942
-0.338404
-0.366955
-0.3994
-0.436918
-0.481226
-0.534751
-0.600676
-0.682614
-0.783762
-0.905492
-1.04565
-1.19759
-1.35159
-1.49852
-1.6168
-1.71472
-1.79627
-1.87311
-1.95907
-2.06596
-2.20217
-2.37172
-2.57168
-2.78993
-3.0063
-3.19773
-3.3452
-3.43856
-3.47529
-3.45676
-3.38071
-3.23579
-3.00725
-2.68121
-2.24522
-1.68202
-0.981281
-0.242169
-0.138488
-0.152706
-0.165049
-0.177778
-0.191258
-0.205644
-0.221073
-0.237704
-0.255711
-0.275304
-0.29673
-0.320355
-0.346626
-0.37615
-0.409755
-0.448612
-0.494345
-0.549139
-0.615761
-0.697185
-0.795923
-0.91285
-1.04595
-1.18951
-1.33415
-1.46711
-1.5922
-1.69683
-1.78813
-1.87532
-1.96822
-2.07543
-2.2029
-2.35347
-2.52621
-2.714
-2.90388
-3.07954
-3.22495
-3.32763
-3.3791
-3.3729
-3.30136
-3.155
-2.92085
-2.58791
-2.14543
-1.58566
-0.910467
-0.199762
-0.142475
-0.155777
-0.167446
-0.180003
-0.193424
-0.207824
-0.22331
-0.240024
-0.258141
-0.277874
-0.299497
-0.323378
-0.349966
-0.379906
-0.414009
-0.453413
-0.499638
-0.554656
-0.620863
-0.700798
-0.796559
-0.908833
-1.03597
-1.17333
-1.31346
-1.44914
-1.57464
-1.68669
-1.78804
-1.88553
-1.9885
-2.10541
-2.24124
-2.39658
-2.56907
-2.7493
-2.92658
-3.08804
-3.22116
-3.31519
-3.36137
-3.35166
-3.27703
-3.12735
-2.88963
-2.55075
-2.10219
-1.54039
-0.873347
-0.153196
-0.633749
1.95315
2.68514
3.1382
3.3935
3.57255
3.69844
3.79263
3.8644
3.92032
3.96433
3.99922
4.02693
4.04888
4.06613
4.07947
4.08948
4.09658
4.10108
4.10265
-0.910414
1.61899
2.52903
3.03864
3.32665
3.52485
3.6636
3.7668
3.84509
3.90579
3.95337
3.99092
4.02062
4.04407
4.06243
4.07659
4.08719
4.0947
4.09944
4.10109
-0.591867
1.43744
2.40712
2.94562
3.26293
3.47872
3.62995
3.74192
3.82658
3.89195
3.94297
3.98309
4.0147
4.03956
4.05898
4.07391
4.08507
4.09296
4.09793
4.09966
-0.245797
1.35432
2.31629
2.86308
3.20367
3.43494
3.59791
3.71825
3.80903
3.87888
3.9332
3.97577
4.00919
4.03539
4.0558
4.07146
4.08313
4.09137
4.09656
4.09836
-0.0249916
1.31158
2.24536
2.79176
3.14964
3.39412
3.56783
3.696
3.79258
3.86668
3.92413
3.969
4.00412
4.03157
4.0529
4.06922
4.08138
4.08993
4.09531
4.09718
0.124337
1.29259
2.18713
2.73063
3.10095
3.35661
3.53997
3.67537
3.77736
3.85544
3.91582
3.96282
3.99952
4.02812
4.05028
4.06722
4.0798
4.08865
4.09421
4.09614
0.234875
1.29148
2.13932
2.67863
3.05754
3.32263
3.51454
3.65652
3.76349
3.84523
3.9083
3.95727
3.9954
4.02505
4.04797
4.06545
4.07842
4.08753
4.09325
4.09522
0.315081
1.29991
2.10081
2.63485
3.01939
3.29237
3.49171
3.63959
3.75107
3.83614
3.90165
3.95239
3.9918
4.02238
4.04597
4.06393
4.07724
4.08657
4.09242
4.09445
0.376078
1.31133
2.07006
2.59841
2.98644
3.26594
3.47166
3.62474
3.74022
3.82825
3.89591
3.9482
3.98873
4.02012
4.04428
4.06266
4.07625
4.08577
4.09174
4.09381
0.427397
1.32289
2.04566
2.56853
2.95864
3.24346
3.45456
3.61212
3.73105
3.82163
3.89113
3.94475
3.98622
4.01828
4.04292
4.06163
4.07546
4.08514
4.0912
4.0933
0.471972
1.33344
2.02666
2.54465
2.93599
3.22508
3.4406
3.60188
3.72368
3.81636
3.88738
3.94207
3.98429
4.01688
4.0419
4.06087
4.07488
4.08467
4.0908
4.09293
0.508769
1.34221
2.01254
2.52655
2.91864
3.21106
3.43004
3.59424
3.71827
3.81256
3.88472
3.94019
3.98297
4.01594
4.04122
4.06037
4.0745
4.08438
4.09055
4.0927
0.536349
1.34952
2.00371
2.51477
2.9073
3.20205
3.42341
3.58958
3.71508
3.8104
3.88325
3.93921
3.9823
4.01548
4.0409
4.06014
4.07434
4.08426
4.09045
4.09261
0.559981
1.35865
2.00255
2.51131
2.90353
3.19915
3.42145
3.58838
3.7144
3.81006
3.88311
3.93917
3.98232
4.01553
4.04096
4.06021
4.0744
4.08432
4.0905
4.09266
0.601056
1.36861
2.00804
2.51488
2.90613
3.20128
3.42325
3.5899
3.71566
3.81108
3.88393
3.93983
3.98284
4.01594
4.04129
4.06047
4.07462
4.0845
4.09066
4.09284
)
;

boundaryField
{
    internal
    {
        type            internal;
    }
    movingWall
    {
        type            zeroGradient;
    }
    farFieldMoving
    {
        type            zeroGradient;
    }
    fixedWall
    {
        type            zeroGradient;
    }
    axis
    {
        type            empty;
    }
    left
    {
        type            totalPressure;
        rho             rho;
        psi             none;
        gamma           1;
        p0              uniform 0;
        value           nonuniform List<scalar> 
30
(
-0.0261833
-0.0258765
-0.0253093
-0.0244769
-0.0233984
-0.0221021
-0.0206231
-0.0190019
-0.0172833
-0.0155135
-0.0137383
-0.0119991
-0.0103314
-0.00876323
-0.00731455
-0.00516819
-0.00289031
-0.00134186
-0.000440582
-6.0091e-05
0
0
0
0
0
0
0
0
0
0
)
;
    }
    farField
    {
        type            zeroGradient;
    }
    back
    {
        type            wedge;
    }
    front
    {
        type            wedge;
    }
}


// ************************************************************************* //
