/*--------------------------------*- C++ -*----------------------------------*\
  =========                 |
  \\      /  F ield         | OpenFOAM: The Open Source CFD Toolbox
   \\    /   O peration     | Website:  https://openfoam.org
    \\  /    A nd           | Version:  13
     \\/     M anipulation  |
\*---------------------------------------------------------------------------*/
FoamFile
{
    format      ascii;
    class       surfaceScalarField;
    location    "0.001";
    object      phi;
}
// * * * * * * * * * * * * * * * * * * * * * * * * * * * * * * * * * * * * * //

dimensions      [0 3 -1 0 0 0 0];

internalField   nonuniform List<scalar> 
3252
(
1.24999e-11
-1.76935e-12
4.01789e-12
-5.73707e-12
4.45495e-13
-1.06467e-11
2.70582e-12
-1.64796e-11
9.71101e-12
-2.1228e-11
1.63767e-11
-2.08552e-11
1.40918e-11
-1.11254e-11
3.74281e-12
3.70745e-11
-7.09241e-12
1.14423e-11
-2.27622e-11
4.70287e-13
-4.23322e-11
7.25757e-12
-6.59246e-11
2.93383e-11
-8.59772e-11
5.04847e-11
-8.45713e-11
4.3578e-11
-4.44493e-11
1.62745e-11
6.03317e-11
-1.58713e-11
1.72889e-11
-5.08151e-11
-1.28197e-12
-9.48571e-11
1.04337e-11
-1.48737e-10
4.90276e-11
-1.95685e-10
8.63462e-11
-1.92843e-10
7.48406e-11
-9.99935e-11
3.93736e-11
8.13906e-11
-2.79345e-11
2.0505e-11
-8.94634e-11
-6.02818e-12
-1.67858e-10
1.12123e-11
-2.65512e-10
6.84998e-11
-3.52531e-10
1.24781e-10
-3.48467e-10
1.08802e-10
-1.77882e-10
7.57422e-11
9.93981e-11
-4.30335e-11
1.99912e-11
-1.38029e-10
-1.51786e-11
-2.60661e-10
8.12897e-12
-4.16793e-10
8.66675e-11
-5.59073e-10
1.65606e-10
-5.55147e-10
1.45966e-10
-2.78924e-10
1.28589e-10
1.13545e-10
-6.08341e-11
1.46366e-11
-1.95531e-10
-3.03108e-11
-3.72124e-10
-1.00607e-12
-6.02509e-10
1.00319e-10
-8.16844e-10
2.056e-10
-8.16577e-10
1.84991e-10
-4.05808e-10
1.99781e-10
1.23085e-10
-8.09088e-11
3.32523e-12
-2.6062e-10
-5.32497e-11
-5.00398e-10
-1.97274e-11
-8.20882e-10
1.02538e-10
-1.124e-09
2.36125e-10
-1.13474e-09
2.20989e-10
-5.64973e-10
2.86298e-10
1.27358e-10
-1.02728e-10
-1.50179e-11
-3.31531e-10
-8.61253e-11
-6.42578e-10
-5.33749e-11
-1.06692e-09
8.21941e-11
-1.4729e-09
2.4197e-10
-1.50752e-09
2.44176e-10
-7.6828e-10
3.7534e-10
1.25817e-10
-1.25662e-10
-4.13133e-11
-4.06126e-10
-1.31241e-10
-7.94377e-10
-1.08617e-10
-1.33127e-09
2.59203e-11
-1.8492e-09
2.03688e-10
-1.92676e-09
2.4048e-10
-1.03297e-09
4.40033e-10
1.18093e-10
-1.49018e-10
-7.61616e-11
-4.82034e-10
-1.90629e-10
-9.50074e-10
-1.91531e-10
-1.60054e-09
-7.7651e-11
-2.23329e-09
1.03685e-10
-2.37805e-09
1.94636e-10
-1.3786e-09
4.38241e-10
1.04034e-10
-1.72119e-10
-1.19686e-10
-5.56917e-10
-2.65341e-10
-1.10302e-09
-3.05163e-10
-1.85932e-09
-2.33563e-10
-2.60353e-09
-6.7213e-11
-2.84285e-09
9.36463e-11
-1.82091e-09
3.1483e-10
8.37281e-11
-1.94407e-10
-1.71472e-10
-6.28757e-10
-3.54798e-10
-1.24674e-09
-4.47644e-10
-2.09351e-09
-4.38772e-10
-2.93947e-09
-3.08214e-10
-3.3004e-09
-7.3818e-11
-2.36353e-09
3.33968e-12
5.74817e-11
-2.15549e-10
-2.30662e-10
-6.96092e-10
-4.56765e-10
-1.37611e-09
-6.12518e-10
-2.29324e-09
-6.82575e-10
-3.22491e-09
-6.12135e-10
-3.7264e-09
-3.26574e-10
-2.98406e-09
-5.815e-10
2.57223e-11
-2.35461e-10
-2.96226e-10
-7.58061e-10
-5.68233e-10
-1.48802e-09
-7.9133e-10
-2.45407e-09
-9.49176e-10
-3.45099e-09
-9.69907e-10
-4.08973e-09
-6.84168e-10
-3.63141e-09
-1.5447e-09
-1.11303e-11
-2.54257e-10
-3.67528e-10
-8.14017e-10
-6.86933e-10
-1.58097e-09
-9.77268e-10
-2.57609e-09
-1.22263e-09
-3.618e-09
-1.35443e-09
-4.37017e-09
-1.12387e-09
-4.25344e-09
-2.96547e-09
6.85489e-12
4.27703e-11
-2.80743e-11
8.72773e-11
-7.68059e-11
1.03342e-10
-1.27149e-10
1.07003e-10
-1.75393e-10
1.07005e-10
-2.19768e-10
1.05316e-10
-2.58906e-10
1.02341e-10
-2.91559e-10
9.82032e-11
-3.16629e-10
9.30535e-11
-3.33208e-10
8.70875e-11
-3.40618e-10
8.05375e-11
-3.38434e-10
7.36584e-11
-3.26487e-10
6.67139e-11
-3.04871e-10
5.99657e-11
-2.73928e-10
5.36696e-11
-2.3427e-10
4.80961e-11
-1.86822e-10
4.35672e-11
-1.32807e-10
4.03783e-11
-7.27255e-11
3.78117e-11
2.83879e-11
1.7155e-11
1.60718e-10
-8.36735e-11
3.30698e-10
-2.21568e-10
3.8997e-10
-3.63548e-10
4.03297e-10
-4.9878e-10
4.02267e-10
-6.22581e-10
3.95086e-10
-7.31161e-10
3.83051e-10
-8.21109e-10
3.66673e-10
-8.89469e-10
3.46565e-10
-9.33864e-10
3.23508e-10
-9.52571e-10
2.98403e-10
-9.44573e-10
2.72217e-10
-9.09565e-10
2.45934e-10
-8.47931e-10
2.20517e-10
-7.60727e-10
1.96904e-10
-6.4971e-10
1.76076e-10
-5.17468e-10
1.592e-10
-3.67379e-10
1.47367e-10
-2.00884e-10
1.37926e-10
1.02949e-10
1.38072e-11
3.49281e-10
-1.52507e-10
7.10805e-10
-3.73106e-10
8.33508e-10
-5.97788e-10
8.5927e-10
-8.10265e-10
8.54605e-10
-1.00325e-09
8.36826e-10
-1.1708e-09
8.08601e-10
-1.30777e-09
7.71219e-10
-1.40984e-09
7.26152e-10
-1.47372e-09
6.75198e-10
-1.49717e-09
6.20362e-10
-1.47909e-09
5.63732e-10
-1.41944e-09
5.07376e-10
-1.31918e-09
4.53276e-10
-1.18022e-09
4.03337e-10
-1.00544e-09
3.5952e-10
-7.98862e-10
3.24143e-10
-5.6553e-10
2.99356e-10
-3.07623e-10
2.79627e-10
2.08308e-10
-3.76785e-12
6.07393e-10
-2.41622e-10
1.21769e-09
-5.44938e-10
1.41726e-09
-8.49248e-10
1.4545e-09
-1.13407e-09
1.44112e-09
-1.38977e-09
1.40542e-09
-1.60854e-09
1.35188e-09
-1.78388e-09
1.28313e-09
-1.91069e-09
1.20202e-09
-1.98537e-09
1.1119e-09
-2.00587e-09
1.01633e-09
-1.9716e-09
9.18879e-10
-1.88332e-09
8.22968e-10
-1.74294e-09
7.3178e-10
-1.55346e-09
6.48297e-10
-1.31891e-09
5.75549e-10
-1.04455e-09
5.17104e-10
-7.36731e-10
4.76204e-10
-3.98234e-10
4.43775e-10
3.29703e-10
-3.76597e-11
9.38573e-10
-3.56643e-10
1.84762e-09
-7.46246e-10
2.13083e-09
-1.13006e-09
2.17437e-09
-1.48443e-09
2.14399e-09
-1.79761e-09
2.08003e-09
-2.06028e-09
1.9894e-09
-2.26522e-09
1.87684e-09
-2.40726e-09
1.74726e-09
-2.48332e-09
1.60615e-09
-2.4923e-09
1.45902e-09
-2.4348e-09
1.3112e-09
-2.31288e-09
1.16758e-09
-2.12981e-09
1.03257e-09
-1.88982e-09
9.1014e-10
-1.5981e-09
8.04302e-10
-1.26095e-09
7.19764e-10
-8.85597e-10
6.60704e-10
-4.75268e-10
6.14068e-10
4.5486e-10
-9.01208e-11
1.35073e-09
-5.0218e-10
2.60142e-09
-9.83177e-10
2.96768e-09
-1.4473e-09
3.00758e-09
-1.86863e-09
2.94808e-09
-2.23365e-09
2.84202e-09
-2.53214e-09
2.6996e-09
-2.75697e-09
2.52867e-09
-2.90387e-09
2.33702e-09
-2.97123e-09
2.13281e-09
-2.9597e-09
1.92384e-09
-2.87173e-09
1.71728e-09
-2.71116e-09
1.51943e-09
-2.48285e-09
1.33569e-09
-2.19236e-09
1.17083e-09
-1.84594e-09
1.02954e-09
-1.45068e-09
9.17396e-10
-1.01428e-09
8.39211e-10
-5.40228e-10
7.77741e-10
5.74299e-10
-1.63089e-10
1.85554e-09
-6.81895e-10
3.48355e-09
-1.26013e-09
3.924e-09
-1.80525e-09
3.94481e-09
-2.29007e-09
3.83954e-09
-2.69991e-09
3.67358e-09
-3.02459e-09
3.46167e-09
-3.25825e-09
3.21596e-09
-3.39867e-09
2.94791e-09
-3.44673e-09
2.66881e-09
-3.40566e-09
2.38884e-09
-3.28033e-09
2.11682e-09
-3.07668e-09
1.86015e-09
-2.80128e-09
1.62487e-09
-2.46096e-09
1.41607e-09
-2.06284e-09
1.23874e-09
-1.6145e-09
1.09893e-09
-1.1237e-09
1.00168e-09
-5.94013e-10
9.25564e-10
6.81303e-10
-2.58973e-10
2.46862e-09
-8.99507e-10
4.50138e-09
-1.58087e-09
4.99769e-09
-2.20668e-09
4.97747e-09
-2.74968e-09
4.80446e-09
-3.19507e-09
4.55655e-09
-3.53425e-09
4.25468e-09
-3.76409e-09
3.91648e-09
-3.88579e-09
3.55778e-09
-3.90378e-09
3.1931e-09
-3.82457e-09
2.83473e-09
-3.65584e-09
2.4927e-09
-3.40578e-09
2.17493e-09
-3.08256e-09
1.88748e-09
-2.69412e-09
1.63522e-09
-2.24818e-09
1.42295e-09
-1.75241e-09
1.25673e-09
-1.21428e-09
1.1414e-09
-6.37245e-10
1.05154e-09
7.71642e-10
-3.81001e-10
3.21018e-09
-1.15933e-09
5.66475e-09
-1.949e-09
6.18739e-09
-2.6532e-09
6.09648e-09
-3.24626e-09
5.82769e-09
-3.71508e-09
5.47153e-09
-4.0547e-09
5.05701e-09
-4.26661e-09
4.60829e-09
-4.35687e-09
4.14576e-09
-4.33438e-09
3.68682e-09
-4.20941e-09
3.24514e-09
-3.9926e-09
2.83116e-09
-3.69424e-09
2.45246e-09
-3.32389e-09
2.11442e-09
-2.89026e-09
1.82107e-09
-2.40127e-09
1.57646e-09
-1.86438e-09
1.38619e-09
-1.28641e-09
1.25454e-09
-6.70495e-10
1.1524e-09
8.43161e-10
-5.33457e-10
4.10579e-09
-1.46659e-09
6.98554e-09
-2.36819e-09
7.4914e-09
-3.14538e-09
7.2909e-09
-3.77666e-09
6.89166e-09
-4.25349e-09
6.39711e-09
-4.57722e-09
5.84617e-09
-4.75608e-09
5.26985e-09
-4.8023e-09
4.69262e-09
-4.72991e-09
4.13366e-09
-4.55308e-09
3.60683e-09
-4.28523e-09
3.12183e-09
-3.93839e-09
2.6849e-09
-3.52309e-09
2.29992e-09
-3.04835e-09
1.96945e-09
-2.52196e-09
1.69633e-09
-1.95076e-09
1.48527e-09
-1.34068e-09
1.33963e-09
-6.94383e-10
1.2271e-09
8.95323e-10
-7.22157e-10
5.18781e-09
-1.82776e-09
8.47731e-09
-2.84219e-09
8.9063e-09
-3.68259e-09
8.54649e-09
-4.33572e-09
7.97538e-09
-4.80167e-09
7.30962e-09
-5.09137e-09
6.59903e-09
-5.22175e-09
5.8806e-09
-5.21225e-09
5.18132e-09
-5.08219e-09
4.5203e-09
-4.84939e-09
3.90993e-09
-4.52949e-09
3.35774e-09
-4.13574e-09
2.8676e-09
-3.67906e-09
2.44111e-09
-3.16834e-09
2.07881e-09
-2.6108e-09
1.78191e-09
-2.01243e-09
1.5539e-09
-1.378e-09
1.39699e-09
-7.09624e-10
1.27622e-09
9.28773e-10
-9.55231e-10
6.49751e-09
-2.251e-09
1.01544e-08
-3.37472e-09
1.04251e-08
-4.2626e-09
9.84396e-09
-4.91609e-09
9.05364e-09
-5.34906e-09
8.18314e-09
-5.58551e-09
7.29239e-09
-5.65268e-09
6.42164e-09
-5.57752e-09
5.59764e-09
-5.38425e-09
4.83677e-09
-5.09363e-09
4.14798e-09
-4.72275e-09
3.53517e-09
-4.28531e-09
2.99884e-09
-3.79203e-09
2.53765e-09
-3.25121e-09
2.1497e-09
-2.66916e-09
1.83431e-09
-2.05077e-09
1.59353e-09
-1.39958e-09
1.42826e-09
-7.17021e-10
1.30149e-09
9.44954e-10
-1.24447e-09
8.08863e-09
-2.74647e-09
1.20304e-08
-3.96906e-09
1.20347e-08
-4.88108e-09
1.11571e-08
-5.50801e-09
1.00966e-08
-5.88342e-09
8.99005e-09
-6.04753e-09
7.90403e-09
-6.03846e-09
6.87671e-09
-5.89023e-09
5.93081e-09
-5.6309e-09
5.0767e-09
-5.28301e-09
4.31792e-09
-4.86414e-09
3.65334e-09
-4.38764e-09
3.07935e-09
-3.86347e-09
2.59118e-09
-3.29889e-09
2.18428e-09
-2.69908e-09
1.85593e-09
-2.06766e-09
1.60662e-09
-1.40683e-09
1.4359e-09
-7.17429e-10
1.30539e-09
9.45802e-10
-1.60758e-09
1.00332e-08
-3.32629e-09
1.41136e-08
-4.62734e-09
1.37125e-08
-5.53078e-09
1.24511e-08
-6.09923e-09
1.10701e-08
-6.39127e-09
9.7022e-09
-6.46552e-09
8.41399e-09
-6.37e-09
7.23309e-09
-6.14443e-09
6.17392e-09
-5.81901e-09
5.23737e-09
-5.41673e-09
4.41978e-09
-4.95454e-09
3.71403e-09
-4.44473e-09
3.11185e-09
-3.89597e-09
2.60487e-09
-3.31417e-09
2.18583e-09
-2.70318e-09
1.84996e-09
-2.0653e-09
1.59623e-09
-1.40149e-09
1.42291e-09
-7.11806e-10
1.29072e-09
9.33428e-10
-2.07163e-09
1.24307e-08
-4.00383e-09
1.63993e-08
-5.34942e-09
1.5423e-08
-6.20087e-09
1.36809e-08
-6.6752e-09
1.19368e-08
-6.85863e-09
1.02926e-08
-6.8286e-09
8.80602e-09
-6.64039e-09
7.48261e-09
-6.33648e-09
6.32401e-09
-5.94769e-09
5.31943e-09
-5.49589e-09
4.45633e-09
-4.99638e-09
3.72102e-09
-4.45972e-09
3.1005e-09
-3.8929e-09
2.58288e-09
-3.3003e-09
2.1583e-09
-2.68435e-09
1.82008e-09
-2.04604e-09
1.56576e-09
-1.38512e-09
1.39241e-09
-7.00991e-10
1.26045e-09
9.10052e-10
-2.67703e-09
1.54216e-08
-4.79153e-09
1.88551e-08
-6.13146e-09
1.71149e-08
-6.87638e-09
1.47907e-08
-7.21942e-09
1.26583e-08
-7.27377e-09
1.07394e-08
-7.12767e-09
9.06697e-09
-6.84416e-09
7.62128e-09
-6.46485e-09
6.38257e-09
-6.01809e-09
5.32679e-09
-5.52328e-09
4.43251e-09
-4.99335e-09
3.67958e-09
-4.43665e-09
3.05044e-09
-3.85827e-09
2.52996e-09
-3.26096e-09
2.10597e-09
-2.64574e-09
1.7701e-09
-2.01235e-09
1.5186e-09
-1.35947e-09
1.34754e-09
-6.85879e-10
1.2175e-09
8.7779e-10
-3.48272e-09
1.92054e-08
-5.70059e-09
2.14013e-08
-6.9638e-09
1.87163e-08
-7.54037e-09
1.57178e-08
-7.71396e-09
1.31955e-08
-7.61934e-09
1.10219e-08
-7.35551e-09
9.19426e-09
-6.97971e-09
7.65113e-09
-6.5308e-09
6.35437e-09
-6.0333e-09
5.26563e-09
-5.50308e-09
4.35484e-09
-4.95004e-09
3.59591e-09
-4.3801e-09
2.96729e-09
-3.79634e-09
2.45109e-09
-3.1999e-09
2.03317e-09
-2.59048e-09
1.70377e-09
-1.96665e-09
1.45805e-09
-1.32617e-09
1.29127e-09
-6.6729e-10
1.16456e-09
8.38594e-10
-4.55092e-09
2.40443e-08
-6.74964e-09
2.39148e-08
-7.82198e-09
2.01125e-08
-8.1652e-09
1.63968e-08
-8.14078e-09
1.35193e-08
-7.89013e-09
1.11324e-08
-7.50902e-09
9.18772e-09
-7.04748e-09
7.57807e-09
-6.53744e-09
6.24724e-09
-5.99787e-09
5.14393e-09
-5.44038e-09
4.23076e-09
-4.87161e-09
3.47664e-09
-4.29492e-09
2.85682e-09
-3.71147e-09
2.35116e-09
-3.12086e-09
1.94406e-09
-2.52159e-09
1.62463e-09
-1.91124e-09
1.38715e-09
-1.28675e-09
1.22628e-09
-6.45969e-10
1.10409e-09
7.94214e-10
-5.99098e-09
3.03098e-08
-8.02195e-09
2.62468e-08
-8.6918e-09
2.10916e-08
-8.72927e-09
1.67549e-08
-8.48422e-09
1.36067e-08
-8.0779e-09
1.10709e-08
-7.58754e-09
9.05507e-09
-7.05058e-09
7.4121e-09
-6.48967e-09
6.0711e-09
-5.91741e-09
4.97074e-09
-5.34088e-09
4.06811e-09
-4.76341e-09
3.32844e-09
-4.18596e-09
2.72458e-09
-3.60787e-09
2.23482e-09
-3.02737e-09
1.84247e-09
-2.4419e-09
1.53587e-09
-1.84822e-09
1.30862e-09
-1.24262e-09
1.15498e-09
-6.2259e-10
1.03825e-09
7.46172e-10
-7.33732e-09
3.79089e-08
-9.36335e-09
2.85592e-08
-9.49777e-09
2.15205e-08
-9.20463e-09
1.67671e-08
-8.7322e-09
1.34511e-08
-8.18088e-09
1.08481e-08
-7.59426e-09
8.80919e-09
-6.99465e-09
7.16588e-09
-6.39397e-09
5.83694e-09
-5.79846e-09
4.75536e-09
-5.2107e-09
3.8746e-09
-4.63098e-09
3.15762e-09
-4.05805e-09
2.57574e-09
-3.48963e-09
2.10625e-09
-2.92279e-09
1.73182e-09
-2.35409e-09
1.4403e-09
-1.77958e-09
1.22483e-09
-1.19506e-09
1.07941e-09
-5.97806e-10
9.68895e-10
6.95725e-10
-1.97198e-10
-2.93571e-10
-1.16722e-09
-9.16756e-10
-2.09835e-09
-1.72259e-09
-3.02631e-09
-2.72089e-09
-3.91091e-09
-3.80621e-09
-4.59158e-09
-4.76077e-09
-4.70718e-09
-5.17372e-09
-3.90454e-09
-4.44994e-09
-4.79047e-10
-3.26585e-10
-1.64326e-09
-9.80124e-10
-2.82065e-09
-1.77279e-09
-4.06165e-09
-2.70748e-09
-5.36146e-09
-3.73405e-09
-6.63718e-09
-4.71041e-09
-7.68265e-09
-5.32799e-09
-4.40825e-09
-7.86171e-09
-8.03444e-10
-3.56714e-10
-2.15956e-09
-1.00643e-09
-3.55209e-09
-1.76269e-09
-5.02604e-09
-2.61594e-09
-6.5987e-09
-3.54384e-09
-8.24752e-09
-4.44208e-09
-9.82104e-09
-5.10765e-09
-4.41312e-09
-1.05757e-08
-1.15715e-09
-3.87448e-10
-2.70028e-09
-1.00054e-09
-4.2925e-09
-1.70772e-09
-5.96426e-09
-2.48142e-09
-7.73981e-09
-3.30555e-09
-9.60202e-09
-4.11603e-09
-1.14707e-08
-4.73951e-09
-4.19539e-09
-1.25292e-08
-1.52535e-09
-4.12859e-10
-3.24977e-09
-9.68197e-10
-5.03232e-09
-1.61725e-09
-6.89085e-09
-2.31497e-09
-8.84266e-09
-3.04579e-09
-1.08864e-08
-3.76419e-09
-1.2942e-08
-4.33304e-09
-3.88038e-09
-1.41793e-08
-1.91822e-09
-4.28714e-10
-3.81265e-09
-9.20676e-10
-5.77621e-09
-1.50061e-09
-7.81298e-09
-2.1251e-09
-9.93633e-09
-2.76928e-09
-1.21481e-08
-3.39983e-09
-1.43663e-08
-3.91394e-09
-3.5247e-09
-1.57265e-08
-2.31352e-09
-4.36654e-10
-4.37794e-09
-8.57986e-10
-6.5116e-09
-1.3687e-09
-8.72381e-09
-1.91462e-09
-1.10204e-08
-2.47431e-09
-1.34009e-08
-3.02206e-09
-1.5785e-08
-3.48059e-09
-3.1435e-09
-1.72539e-08
-2.69033e-09
-4.23392e-10
-4.92652e-09
-7.78363e-10
-7.23423e-09
-1.21755e-09
-9.62169e-09
-1.68373e-09
-1.20921e-08
-2.1603e-09
-1.46444e-08
-2.62759e-09
-1.72014e-08
-3.02797e-09
-2.73869e-09
-1.8778e-08
-3.05039e-09
-3.88136e-10
-5.45809e-09
-6.82062e-10
-7.94027e-09
-1.04678e-09
-1.05028e-08
-1.43264e-09
-1.31477e-08
-1.82663e-09
-1.58741e-08
-2.21366e-09
-1.86103e-08
-2.55216e-09
-2.30918e-09
-2.02968e-08
-3.38996e-09
-3.35317e-10
-5.97029e-09
-5.67963e-10
-8.6265e-09
-8.56804e-10
-1.13636e-08
-1.16176e-09
-1.41834e-08
-1.47292e-09
-1.7085e-08
-1.77884e-09
-2.00048e-08
-2.05127e-09
-1.85437e-09
-2.18032e-08
-3.7067e-09
-2.68027e-10
-6.45848e-09
-4.37253e-10
-9.28737e-09
-6.48979e-10
-1.21978e-08
-8.72366e-10
-1.51916e-08
-1.10001e-09
-1.82673e-08
-1.32376e-09
-2.13727e-08
-1.52624e-09
-1.37554e-09
-2.32832e-08
-3.98424e-09
-1.89615e-10
-6.90382e-09
-2.93571e-10
-9.90065e-09
-4.28048e-10
-1.29788e-08
-5.70139e-10
-1.61404e-08
-7.14088e-10
-1.93828e-08
-8.55356e-10
-2.2668e-08
-9.85775e-10
-8.81427e-10
-2.46837e-08
-4.15189e-09
-1.0656e-10
-7.22703e-09
-1.49152e-10
-1.03746e-08
-2.11205e-10
-1.35984e-08
-2.77061e-10
-1.69012e-08
-3.41909e-10
-2.02785e-08
-4.05164e-10
-2.37086e-08
-4.68216e-10
-4.11407e-10
-2.57916e-08
-4.00313e-09
-3.32276e-11
-7.20268e-09
-3.51582e-11
-1.0456e-08
-4.34845e-11
-1.37653e-08
-5.32411e-11
-1.71311e-08
-6.16368e-11
-2.05467e-08
-7.04429e-11
-2.39912e-08
-8.93442e-11
-8.72924e-11
-2.60352e-08
-3.33575e-09
-6.61129e-09
-9.89517e-09
-1.31888e-08
-1.64907e-08
-1.97968e-08
-2.30795e-08
-2.5199e-08
-3.52112e-09
-1.01194e-09
-3.28699e-09
-2.43951e-10
-3.15543e-09
-1.32536e-10
-3.05746e-09
-9.81348e-11
-2.97859e-09
-7.89024e-11
-2.91243e-09
-6.61637e-11
-2.85497e-09
-5.7459e-11
-2.80345e-09
-5.15264e-11
-2.75591e-09
-4.7543e-11
-2.711e-09
-4.49093e-11
-2.66781e-09
-4.31879e-11
-2.62576e-09
-4.20433e-11
-2.58457e-09
-4.11918e-11
-2.54422e-09
-4.03539e-11
-2.50502e-09
-3.92036e-11
-2.46769e-09
-3.73219e-11
-2.43352e-09
-3.41776e-11
-2.40432e-09
-2.91925e-11
-2.38237e-09
-2.19579e-11
-2.3697e-09
-1.2662e-11
-2.36699e-09
-2.71468e-12
-2.37147e-09
4.4784e-12
-2.37419e-09
2.71881e-12
-2.35672e-09
-1.74618e-11
-2.28838e-09
-6.83469e-11
-2.12499e-09
-1.63388e-10
-1.8099e-09
-3.15086e-10
-1.28132e-09
-5.28581e-10
-4.87236e-10
-7.94086e-10
5.9623e-10
-1.08347e-09
1.94186e-09
-1.34563e-09
3.4638e-09
-1.52194e-09
5.01596e-09
-1.55216e-09
6.39792e-09
-1.38196e-09
7.3853e-09
-9.8738e-10
7.7736e-09
-3.88303e-10
7.44035e-09
3.33254e-10
6.42639e-09
1.01396e-09
4.94399e-09
1.48241e-09
3.33307e-09
1.61091e-09
1.96171e-09
1.37136e-09
1.06421e-09
8.97499e-10
6.85506e-10
3.78708e-10
7.20861e-10
-3.53549e-11
9.92648e-10
-2.71786e-10
1.33888e-09
-3.46233e-10
1.73374e-09
-3.94858e-10
2.47996e-09
-7.46217e-10
2.60684e-09
-1.26789e-10
8.13409e-09
-5.522e-09
-7.83251e-09
-1.19006e-09
-7.79653e-09
-2.99513e-10
-7.77644e-09
-1.55023e-10
-7.76431e-09
-1.10695e-10
-7.75439e-09
-8.89031e-11
-7.74433e-09
-7.62387e-11
-7.73297e-09
-6.8826e-11
-7.71949e-09
-6.49998e-11
-7.70329e-09
-6.37456e-11
-7.68388e-09
-6.43252e-11
-7.66091e-09
-6.61522e-11
-7.63423e-09
-6.872e-11
-7.60391e-09
-7.15203e-11
-7.57034e-09
-7.39213e-11
-7.53454e-09
-7.50027e-11
-7.49845e-09
-7.34114e-11
-7.46525e-09
-6.7382e-11
-7.4393e-09
-5.51333e-11
-7.42539e-09
-3.58676e-11
-7.42656e-09
-1.14938e-11
-7.4404e-09
1.1119e-11
-7.45374e-09
1.78245e-11
-7.43679e-09
-1.42375e-11
-7.33878e-09
-1.15464e-10
-7.08921e-09
-3.17925e-10
-6.60705e-09
-6.45545e-10
-5.8154e-09
-1.10673e-09
-4.65693e-09
-1.68706e-09
-3.11448e-09
-2.33653e-09
-1.21171e-09
-2.98624e-09
9.79077e-10
-3.53642e-09
3.32834e-09
-3.87121e-09
5.65449e-09
-3.87831e-09
7.74739e-09
-3.47486e-09
9.39162e-09
-2.63161e-09
1.04037e-08
-1.40036e-09
1.06574e-08
7.95516e-11
1.00905e-08
1.58085e-09
8.75902e-09
2.81387e-09
6.90509e-09
3.46485e-09
4.95099e-09
3.32546e-09
3.37131e-09
2.47718e-09
2.44355e-09
1.30647e-09
2.1667e-09
2.41493e-10
2.31239e-09
-4.17476e-10
2.56684e-09
-6.00675e-10
2.63806e-09
-4.66076e-10
1.62057e-09
2.71279e-10
-3.63395e-09
5.12843e-09
1.71597e-08
-1.26204e-08
-1.08096e-08
-1.12571e-09
-1.09022e-08
-2.31814e-10
-1.09877e-08
-7.32189e-11
-1.10665e-08
-3.25454e-11
-1.11386e-08
-1.70147e-11
-1.12049e-08
-9.89577e-12
-1.12664e-08
-7.32515e-12
-1.13235e-08
-7.96374e-12
-1.13762e-08
-1.10282e-11
-1.14246e-08
-1.58801e-11
-1.14689e-08
-2.19239e-11
-1.15091e-08
-2.85098e-11
-1.15458e-08
-3.47434e-11
-1.15806e-08
-3.92103e-11
-1.16158e-08
-3.97528e-11
-1.16556e-08
-3.35694e-11
-1.17051e-08
-1.79567e-11
-1.17683e-08
8.07626e-12
-1.18455e-08
4.13289e-11
-1.19283e-08
7.13625e-11
-1.1995e-08
7.77672e-11
-1.20063e-08
2.91712e-11
-1.19064e-08
-1.14208e-10
-1.16288e-08
-3.93053e-10
-1.11076e-08
-8.39071e-10
-1.02873e-08
-1.46584e-09
-9.13315e-09
-2.26091e-09
-7.63783e-09
-3.18238e-09
-5.81131e-09
-4.16306e-09
-3.6911e-09
-5.10644e-09
-1.35816e-09
-5.86935e-09
1.06984e-09
-6.29921e-09
3.42905e-09
-6.23752e-09
5.52922e-09
-5.57502e-09
7.19401e-09
-4.2964e-09
8.29062e-09
-2.49697e-09
8.7592e-09
-3.89031e-10
8.60276e-09
1.7373e-09
7.87732e-09
3.53931e-09
6.61903e-09
4.72313e-09
5.14706e-09
4.79743e-09
3.82791e-09
3.79632e-09
2.95386e-09
2.18052e-09
2.55739e-09
6.37968e-10
2.3669e-09
-2.26988e-10
1.97003e-09
-2.03808e-10
7.42159e-10
7.618e-10
-2.97259e-09
3.98605e-09
-1.01448e-08
1.23017e-08
2.35683e-08
-1.65129e-08
-1.2909e-08
-9.37076e-10
-1.30724e-08
-9.82337e-11
-1.32126e-08
6.20552e-11
-1.33445e-08
9.83654e-11
-1.34704e-08
1.08783e-10
-1.35922e-08
1.11853e-10
-1.37111e-08
1.11561e-10
-1.38282e-08
1.09065e-10
-1.39441e-08
1.04958e-10
-1.40598e-08
9.97625e-11
-1.41758e-08
9.41216e-11
-1.42934e-08
8.90316e-11
-1.44142e-08
8.61187e-11
-1.45412e-08
8.77994e-11
-1.4678e-08
9.70128e-11
-1.48278e-08
1.16242e-10
-1.49915e-08
1.45747e-10
-1.51647e-08
1.81209e-10
-1.53345e-08
2.11215e-10
-1.54783e-08
2.1516e-10
-1.55629e-08
1.623e-10
-1.5547e-08
1.32687e-11
-1.53864e-08
-2.74805e-10
-1.50386e-08
-7.40816e-10
-1.44658e-08
-1.41191e-09
-1.36362e-08
-2.29536e-09
-1.25256e-08
-3.37154e-09
-1.11182e-08
-4.58979e-09
-9.42048e-09
-5.86076e-09
-7.47668e-09
-7.05024e-09
-5.34623e-09
-7.99981e-09
-3.1366e-09
-8.50884e-09
-9.91766e-10
-8.38235e-09
9.24854e-10
-7.49164e-09
2.45357e-09
-5.82512e-09
3.49511e-09
-3.53851e-09
4.03623e-09
-9.30153e-10
4.13929e-09
1.63423e-09
3.86136e-09
3.81724e-09
3.33478e-09
5.24972e-09
2.67158e-09
5.46062e-09
2.05986e-09
4.40805e-09
1.61344e-09
2.62694e-09
1.18157e-09
1.06984e-09
3.86025e-10
5.6856e-10
-1.27024e-09
1.45246e-09
-4.5776e-09
4.06916e-09
-1.01617e-08
9.57018e-09
-1.62778e-08
1.84191e-08
2.66453e-08
-1.93136e-08
-1.46189e-08
-7.09329e-10
-1.48112e-08
5.96851e-11
-1.49691e-08
2.13976e-10
-1.51189e-08
2.47014e-10
-1.52657e-08
2.55359e-10
-1.54118e-08
2.57884e-10
-1.55588e-08
2.5857e-10
-1.57082e-08
2.58496e-10
-1.58615e-08
2.58239e-10
-1.60202e-08
2.5844e-10
-1.61861e-08
2.60071e-10
-1.63618e-08
2.6467e-10
-1.65501e-08
2.74411e-10
-1.6754e-08
2.91782e-10
-1.69757e-08
3.187e-10
-1.72146e-08
3.5515e-10
-1.74665e-08
3.97593e-10
-1.77226e-08
4.3728e-10
-1.79698e-08
4.58457e-10
-1.81911e-08
4.3649e-10
-1.83655e-08
3.36713e-10
-1.84679e-08
1.15617e-10
-1.8468e-08
-2.74704e-10
-1.83303e-08
-8.78556e-10
-1.8015e-08
-1.72715e-09
-1.74816e-08
-2.82884e-09
-1.66938e-08
-4.15926e-09
-1.5631e-08
-5.65267e-09
-1.42966e-08
-7.19517e-09
-1.2719e-08
-8.62778e-09
-1.09668e-08
-9.75206e-09
-9.13378e-09
-1.03418e-08
-7.32976e-09
-1.01864e-08
-5.68264e-09
-9.13876e-09
-4.30617e-09
-7.20159e-09
-3.27409e-09
-4.57058e-09
-2.59046e-09
-1.61379e-09
-2.19709e-09
1.24087e-09
-1.99805e-09
3.6182e-09
-1.82145e-09
5.07311e-09
-1.65433e-09
5.2935e-09
-1.55054e-09
4.30425e-09
-1.74251e-09
2.81891e-09
-2.68735e-09
2.01467e-09
-4.65247e-09
2.53367e-09
-7.83172e-09
4.63171e-09
-1.23095e-08
8.54697e-09
-1.73031e-08
1.45638e-08
-2.08509e-08
2.19685e-08
2.67326e-08
-2.08963e-08
-1.61874e-08
-4.79895e-10
-1.63825e-08
2.1642e-10
-1.65359e-08
3.60461e-10
-1.6682e-08
3.91794e-10
-1.68279e-08
4.01022e-10
-1.69763e-08
4.06234e-10
-1.7129e-08
4.11322e-10
-1.7288e-08
4.17436e-10
-1.74551e-08
4.25347e-10
-1.76327e-08
4.36032e-10
-1.78235e-08
4.50909e-10
-1.80308e-08
4.71902e-10
-1.82576e-08
5.01213e-10
-1.85065e-08
5.40775e-10
-1.87793e-08
5.9146e-10
-1.90764e-08
6.52282e-10
-1.93982e-08
7.19398e-10
-1.97452e-08
7.8419e-10
-2.01168e-08
8.3006e-10
-2.05088e-08
8.2857e-10
-2.0909e-08
7.36888e-10
-2.12933e-08
4.99953e-10
-2.16253e-08
5.72765e-11
-2.18576e-08
-6.46282e-10
-2.1938e-08
-1.64676e-09
-2.1817e-08
-2.94985e-09
-2.14569e-08
-4.51936e-09
-2.0841e-08
-6.26853e-09
-1.99776e-08
-8.05861e-09
-1.88992e-08
-9.70618e-09
-1.76582e-08
-1.09931e-08
-1.63162e-08
-1.16838e-08
-1.49432e-08
-1.15593e-08
-1.36089e-08
-1.04731e-08
-1.2379e-08
-8.43151e-09
-1.13001e-08
-5.64947e-09
-1.03801e-08
-2.53371e-09
-9.56628e-09
4.27003e-10
-8.75746e-09
2.80938e-09
-7.96502e-09
4.28068e-09
-7.28993e-09
4.61841e-09
-7.11494e-09
4.12926e-09
-7.90747e-09
3.61144e-09
-9.79943e-09
3.90663e-09
-1.26605e-08
5.39475e-09
-1.6196e-08
8.16724e-09
-1.99142e-08
1.22651e-08
-2.27601e-08
1.74098e-08
-2.34562e-08
2.26665e-08
2.47016e-08
-2.13826e-08
-1.77208e-08
-2.62706e-10
-1.79056e-08
3.59675e-10
-1.80429e-08
4.90201e-10
-1.81733e-08
5.20676e-10
-1.83052e-08
5.32707e-10
-1.84418e-08
5.4274e-10
-1.8585e-08
5.54483e-10
-1.87368e-08
5.69249e-10
-1.88996e-08
5.88132e-10
-1.90761e-08
6.12525e-10
-1.92694e-08
6.4427e-10
-1.94831e-08
6.8559e-10
-1.97208e-08
7.38879e-10
-1.99865e-08
8.06495e-10
-2.02857e-08
8.90678e-10
-2.06267e-08
9.93218e-10
-2.10211e-08
1.11382e-09
-2.14825e-08
1.24562e-09
-2.20208e-08
1.36839e-09
-2.2636e-08
1.44373e-09
-2.33114e-08
1.41233e-09
-2.40128e-08
1.20133e-09
-2.4692e-08
7.36462e-10
-2.52938e-08
-4.44448e-11
-2.57634e-08
-1.17716e-09
-2.60548e-08
-2.65846e-09
-2.61392e-08
-4.43495e-09
-2.60103e-08
-6.39743e-09
-2.56831e-08
-8.3858e-09
-2.51879e-08
-1.02014e-08
-2.45591e-08
-1.16219e-08
-2.38228e-08
-1.24201e-08
-2.29896e-08
-1.23925e-08
-2.20568e-08
-1.1406e-08
-2.10235e-08
-9.46472e-09
-1.99067e-08
-6.76627e-09
-1.8742e-08
-3.69847e-09
-1.75725e-08
-7.42498e-10
-1.64482e-08
1.68513e-09
-1.54886e-08
3.32104e-09
-1.50185e-08
4.14834e-09
-1.5403e-08
4.51379e-09
-1.67664e-08
4.97477e-09
-1.88733e-08
6.01357e-09
-2.13444e-08
7.86582e-09
-2.37596e-08
1.05824e-08
-2.55267e-08
1.40322e-08
-2.59159e-08
1.77991e-08
-2.43991e-08
2.11516e-08
2.15466e-08
-2.1201e-08
-1.92438e-08
-6.34842e-11
-1.94108e-08
4.82705e-10
-1.95258e-08
5.9724e-10
-1.96339e-08
6.27227e-10
-1.97445e-08
6.43104e-10
-1.98609e-08
6.59041e-10
-1.99849e-08
6.78463e-10
-2.01185e-08
7.0288e-10
-2.02641e-08
7.33743e-10
-2.04245e-08
7.72878e-10
-2.06028e-08
8.22583e-10
-2.08029e-08
8.85655e-10
-2.10295e-08
9.65551e-10
-2.12899e-08
1.06689e-09
-2.15953e-08
1.19602e-09
-2.19622e-08
1.36011e-09
-2.24116e-08
1.56324e-09
-2.29646e-08
1.79861e-09
-2.36326e-08
2.03641e-09
-2.44144e-08
2.22548e-09
-2.52867e-08
2.28466e-09
-2.62087e-08
2.12338e-09
-2.71302e-08
1.65791e-09
-2.79971e-08
8.22451e-10
-2.87656e-08
-4.08655e-10
-2.94048e-08
-2.01928e-09
-2.99002e-08
-3.93948e-09
-3.02552e-08
-6.0425e-09
-3.04857e-08
-8.15524e-09
-3.06128e-08
-1.00743e-08
-3.06517e-08
-1.1583e-08
-3.05996e-08
-1.24722e-08
-3.04261e-08
-1.2566e-08
-3.00746e-08
-1.17575e-08
-2.94861e-08
-1.00533e-08
-2.8638e-08
-7.61431e-09
-2.75798e-08
-4.7567e-09
-2.64405e-08
-1.88184e-09
-2.54014e-08
6.46047e-10
-2.46888e-08
2.6085e-09
-2.44962e-08
3.95572e-09
-2.49348e-08
4.95235e-09
-2.58925e-08
5.93245e-09
-2.70894e-08
7.21053e-09
-2.81882e-08
8.96464e-09
-2.88127e-08
1.12069e-08
-2.85493e-08
1.37688e-08
-2.7073e-08
1.63229e-08
-2.43241e-08
1.84047e-08
1.81048e-08
-2.08385e-08
-2.07564e-08
1.14437e-10
-2.08999e-08
5.8084e-10
-2.09884e-08
6.77635e-10
-2.107e-08
7.0719e-10
-2.11544e-08
7.27235e-10
-2.12446e-08
7.49231e-10
-2.13424e-08
7.76217e-10
-2.14494e-08
8.09859e-10
-2.15675e-08
8.51919e-10
-2.16993e-08
9.04613e-10
-2.18475e-08
9.70775e-10
-2.20159e-08
1.05413e-09
-2.22104e-08
1.15999e-09
-2.24398e-08
1.29629e-09
-2.2718e-08
1.47423e-09
-2.30642e-08
1.70631e-09
-2.35008e-08
1.9999e-09
-2.40491e-08
2.34683e-09
-2.47209e-08
2.7082e-09
-2.55103e-08
3.01496e-09
-2.63968e-08
3.1711e-09
-2.73464e-08
3.07303e-09
-2.83195e-08
2.631e-09
-2.92707e-08
1.77366e-09
-3.01851e-08
5.0573e-10
-3.10537e-08
-1.15068e-09
-3.18817e-08
-3.11154e-09
-3.26818e-08
-5.24239e-09
-3.34629e-08
-7.37415e-09
-3.42221e-08
-9.31506e-09
-3.49425e-08
-1.08627e-08
-3.55922e-08
-1.18225e-08
-3.61205e-08
-1.20377e-08
-3.64557e-08
-1.14223e-08
-3.65182e-08
-9.99071e-09
-3.62551e-08
-7.87742e-09
-3.56803e-08
-5.3315e-09
-3.48914e-08
-2.6707e-09
-3.40421e-08
-2.03274e-10
-3.33286e-08
1.89499e-09
-3.28484e-08
3.47552e-09
-3.26303e-08
4.73424e-09
-3.25659e-08
5.86811e-09
-3.24566e-08
7.10116e-09
-3.20622e-08
8.57027e-09
-3.11373e-08
1.0282e-08
-2.94842e-08
1.21157e-08
-2.70377e-08
1.38763e-08
-2.39087e-08
1.52777e-08
1.48491e-08
-2.06086e-08
-2.22513e-08
2.6764e-10
-2.23657e-08
6.49548e-10
-2.24238e-08
7.27742e-10
-2.24748e-08
7.56699e-10
-2.25284e-08
7.80528e-10
-2.25869e-08
8.07768e-10
-2.26517e-08
8.40972e-10
-2.27237e-08
8.81843e-10
-2.28041e-08
9.32301e-10
-2.28943e-08
9.94812e-10
-2.29962e-08
1.07268e-09
-2.31125e-08
1.17046e-09
-2.32476e-08
1.29509e-09
-2.34085e-08
1.45716e-09
-2.36056e-08
1.67133e-09
-2.38534e-08
1.95413e-09
-2.41674e-08
2.31392e-09
-2.4561e-08
2.74037e-09
-2.50433e-08
3.19055e-09
-2.56146e-08
3.58618e-09
-2.62661e-08
3.82261e-09
-2.69828e-08
3.78976e-09
-2.77471e-08
3.39536e-09
-2.85595e-08
2.58605e-09
-2.93979e-08
1.34405e-09
-3.03182e-08
-2.30373e-10
-3.1343e-08
-2.08666e-09
-3.25048e-08
-4.08062e-09
-3.38058e-08
-6.07314e-09
-3.52059e-08
-7.91499e-09
-3.66283e-08
-9.44026e-09
-3.79804e-08
-1.04704e-08
-3.91718e-08
-1.08463e-08
-4.01202e-08
-1.04738e-08
-4.07514e-08
-9.35956e-09
-4.10086e-08
-7.62023e-09
-4.08747e-08
-5.4654e-09
-4.03896e-08
-3.15576e-09
-3.96487e-08
-9.44207e-10
-3.87463e-08
9.92586e-10
-3.78246e-08
2.5539e-09
-3.68975e-08
3.80713e-09
-3.5928e-08
4.89859e-09
-3.48119e-08
5.98502e-09
-3.34145e-08
7.17292e-09
-3.16136e-08
8.48104e-09
-2.93457e-08
9.84783e-09
-2.66365e-08
1.11672e-08
-2.35878e-08
1.2231e-08
1.18833e-08
-2.05772e-08
-2.37125e-08
3.90997e-10
-2.37907e-08
6.82801e-10
-2.38126e-08
7.4231e-10
-2.38273e-08
7.69982e-10
-2.38431e-08
7.96132e-10
-2.38618e-08
8.2641e-10
-2.38837e-08
8.62782e-10
-2.39086e-08
9.06819e-10
-2.39367e-08
9.6035e-10
-2.39676e-08
1.02573e-09
-2.40013e-08
1.10636e-09
-2.40377e-08
1.20692e-09
-2.40774e-08
1.33472e-09
-2.41216e-08
1.50139e-09
-2.4172e-08
1.7217e-09
-2.42297e-08
2.0119e-09
-2.42972e-08
2.38137e-09
-2.43774e-08
2.82058e-09
-2.4476e-08
3.2891e-09
-2.46011e-08
3.71135e-09
-2.47639e-08
3.98539e-09
-2.4978e-08
4.00382e-09
-2.5262e-08
3.67941e-09
-2.56438e-08
2.96786e-09
-2.61811e-08
1.88136e-09
-2.69108e-08
4.99342e-10
-2.79159e-08
-1.0816e-09
-2.92606e-08
-2.7359e-09
-3.09641e-08
-4.36967e-09
-3.29648e-08
-5.91426e-09
-3.51216e-08
-7.28349e-09
-3.72498e-08
-8.34224e-09
-3.91701e-08
-8.92599e-09
-4.07421e-08
-8.90186e-09
-4.18747e-08
-8.22687e-09
-4.25231e-08
-6.97191e-09
-4.26838e-08
-5.3047e-09
-4.23941e-08
-3.44543e-09
-4.17264e-08
-1.61196e-09
-4.07604e-08
2.65995e-11
-3.96009e-08
1.39443e-09
-3.83026e-08
2.50881e-09
-3.68765e-08
3.47253e-09
-3.52861e-08
4.3946e-09
-3.3471e-08
5.35779e-09
-3.13781e-08
6.38815e-09
-2.89904e-08
7.46021e-09
-2.63315e-08
8.50835e-09
-2.34526e-08
9.35381e-09
9.1133e-09
-2.06372e-08
-2.50791e-08
4.71798e-10
-2.51066e-08
6.67471e-10
-2.50793e-08