/*--------------------------------*- C++ -*----------------------------------*\
  =========                 |
  \\      /  F ield         | OpenFOAM: The Open Source CFD Toolbox
   \\    /   O peration     | Website:  https://openfoam.org
    \\  /    A nd           | Version:  13
     \\/     M anipulation  |
\*---------------------------------------------------------------------------*/
FoamFile
{
    format      ascii;
    class       volVectorField;
    location    "0.001";
    object      U;
}
// * * * * * * * * * * * * * * * * * * * * * * * * * * * * * * * * * * * * * //

dimensions      [0 1 -1 0 0 0 0];

internalField   nonuniform List<vector> 
1690
(
(0.228843 -0.00132382 3.34111e-18)
(0.260916 -0.00427811 2.55149e-17)
(0.334625 -0.0079396 7.63009e-18)
(0.457329 -0.012292 -5.51486e-17)
(0.637782 -0.0158229 -9.02357e-17)
(0.843284 -0.0155535 -3.39901e-17)
(1.01603 -0.00834563 4.73224e-18)
(1.05044 0.0027533 8.02902e-18)
(0.227498 -0.00345787 3.21059e-18)
(0.259367 -0.0111624 3.1375e-18)
(0.332819 -0.0207203 6.69595e-18)
(0.455614 -0.0321224 6.73228e-17)
(0.636964 -0.0415866 -8.39038e-17)
(0.844287 -0.0409267 2.29589e-17)
(1.01839 -0.0219134 -2.21367e-17)
(1.05165 0.00737385 -1.4519e-17)
(0.224991 -0.00548821 -1.19066e-18)
(0.256452 -0.0176033 -8.53993e-18)
(0.329299 -0.0327813 1.63193e-17)
(0.452028 -0.0511696 5.55857e-18)
(0.635137 -0.0669544 -2.11763e-17)
(0.846328 -0.065963 -2.26872e-17)
(1.02308 -0.0347827 -4.81761e-17)
(1.05398 0.012749 -3.82774e-17)
(0.22126 -0.00756602 -1.6376e-18)
(0.252113 -0.0242364 -5.70393e-18)
(0.323956 -0.0453394 -8.23359e-18)
(0.446399 -0.0713368 -4.02733e-17)
(0.632054 -0.0941948 -4.68272e-17)
(0.849034 -0.0930185 -3.78146e-18)
(1.03 -0.0483201 -7.79365e-17)
(1.05762 0.0191537 -6.31295e-17)
(0.21633 -0.00958938 -1.36238e-18)
(0.24635 -0.0307511 4.40364e-18)
(0.316721 -0.0578613 -1.93514e-17)
(0.438544 -0.0919367 -6.26038e-17)
(0.627173 -0.122585 -7.14945e-17)
(0.851089 -0.121498 -1.63636e-17)
(1.038 -0.0620977 -6.16085e-17)
(1.06241 0.0266909 -6.43139e-17)
(0.210252 -0.0115176 -7.86515e-19)
(0.239196 -0.0370074 -2.01796e-18)
(0.307521 -0.0701327 -2.80244e-17)
(0.428176 -0.112756 -7.90344e-17)
(0.619331 -0.151997 -9.11928e-17)
(0.849595 -0.151466 -3.82607e-17)
(1.04431 -0.0763164 -5.09073e-17)
(1.06779 0.0353687 -6.17102e-17)
(0.203096 -0.0133235 -7.38515e-19)
(0.230703 -0.0429064 -9.02534e-18)
(0.296283 -0.0819972 -3.08494e-17)
(0.414871 -0.133579 -7.26769e-17)
(0.606478 -0.182055 -8.58788e-17)
(0.8398 -0.1829 -3.97327e-17)
(1.04393 -0.0916477 -3.31965e-17)
(1.07253 0.0446418 -4.87498e-17)
(0.19495 -0.0149789 -2.09959e-19)
(0.220942 -0.0483412 -8.34851e-18)
(0.282983 -0.0932472 -3.41257e-17)
(0.398018 -0.15392 -7.71261e-17)
(0.585885 -0.211774 -6.05858e-17)
(0.816077 -0.215334 -3.46165e-17)
(1.02994 -0.109133 -1.52062e-17)
(1.07464 0.0531158 -3.44291e-17)
(0.185924 -0.0164536 -1.8072e-19)
(0.210016 -0.0531931 -8.94879e-18)
(0.267714 -0.103593 -3.63929e-17)
(0.376974 -0.172934 -6.28333e-17)
(0.555012 -0.239615 -5.23995e-17)
(0.774151 -0.24769 -1.60176e-17)
(0.99547 -0.130067 2.43505e-18)
(1.0717 0.0584255 -1.72446e-17)
(0.176148 -0.0177184 -3.19423e-19)
(0.198089 -0.0573509 -8.73827e-18)
(0.250732 -0.112673 -4.2288e-17)
(0.351416 -0.189538 -6.82528e-17)
(0.512805 -0.263975 -4.33603e-17)
(0.713269 -0.278294 -1.04974e-18)
(0.936531 -0.155994 1.30677e-17)
(1.06122 0.0574128 -1.02606e-17)
(0.165763 -0.0187518 -1.80261e-19)
(0.185394 -0.0607302 -1.17203e-17)
(0.232476 -0.120102 -3.69644e-17)
(0.321744 -0.202652 -5.52779e-17)
(0.460591 -0.283347 -3.65858e-17)
(0.636702 -0.305529 3.90744e-18)
(0.854239 -0.188166 1.97464e-17)
(1.04007 0.0465439 8.54221e-19)
(0.154916 -0.0195459 -3.43097e-19)
(0.172222 -0.0632904 -1.27645e-17)
(0.213507 -0.125564 -4.08115e-17)
(0.289255 -0.211494 -4.68707e-17)
(0.402195 -0.296601 -3.26294e-17)
(0.549813 -0.328242 1.56196e-18)
(0.754682 -0.225078 2.28829e-17)
(1.00112 0.0209123 6.48572e-18)
(0.143748 -0.0201115 -6.69603e-19)
(0.158886 -0.0650476 -9.18298e-18)
(0.194411 -0.128922 -2.8839e-17)
(0.255855 -0.215848 -3.64862e-17)
(0.342624 -0.303366 -2.29326e-17)
(0.459094 -0.345365 5.77838e-18)
(0.643779 -0.263807 2.73763e-17)
(0.93157 -0.0203505 1.8666e-17)
(0.13239 -0.0204812 -5.4432e-19)
(0.145658 -0.06609 -6.19176e-18)
(0.175664 -0.130327 -2.37311e-17)
(0.223367 -0.216192 -2.86786e-17)
(0.286346 -0.304095 -1.69018e-17)
(0.371852 -0.356105 7.47934e-18)
(0.525067 -0.304951 2.77535e-17)
(0.821136 -0.0890338 2.24755e-17)
(0.120953 -0.02071 -1.15555e-18)
(0.132703 -0.0665761 -5.13281e-18)
(0.157539 -0.130166 -2.0206e-17)
(0.193013 -0.21342 -2.63273e-17)
(0.236079 -0.299994 -1.63437e-17)
(0.294094 -0.360199 6.35687e-18)
(0.408446 -0.34431 2.3858e-17)
(0.670918 -0.190979 2.54509e-17)
(0.991621 0.0199271 -1.45969e-15)
(0.946982 0.0388342 1.45154e-15)
(0.875476 0.0443415 2.00321e-15)
(0.803871 0.0442851 7.11878e-16)
(0.730017 0.0427215 -3.05504e-15)
(0.657397 0.0405547 -4.55226e-15)
(0.586382 0.0380079 -4.43657e-15)
(0.517862 0.0351729 -1.8493e-15)
(0.452567 0.0321412 7.68759e-16)
(0.391127 0.0290085 6.21455e-16)
(0.334014 0.0258704 -7.50517e-16)
(0.281533 0.0228172 -3.20904e-15)
(0.233808 0.0199294 -4.30566e-15)
(0.190784 0.0172754 -1.38324e-15)
(0.152229 0.0149109 -9.97501e-16)
(0.11775 0.0128865 1.25055e-15)
(0.0867509 0.0112565 4.519e-15)
(0.0583191 0.0100579 7.5802e-15)
(0.0315592 0.00908245 6.26861e-15)
(0.00746496 0.00658646 9.46333e-16)
(0.991551 0.0478266 -7.87559e-17)
(0.945845 0.0938884 2.00233e-16)
(0.873039 0.106795 2.61875e-15)
(0.799976 0.106573 2.62498e-15)
(0.725097 0.102666 -7.9135e-16)
(0.651593 0.0973885 -4.46658e-15)
(0.57997 0.091212 -5.23282e-15)
(0.511091 0.084353 -2.68637e-15)
(0.445682 0.0770292 2.38444e-15)
(0.384356 0.0694708 2.44614e-15)
(0.327555 0.0619076 1.80848e-16)
(0.275548 0.0545557 -2.22295e-15)
(0.228419 0.0476075 -3.23375e-15)
(0.186073 0.0412256 -1.35052e-15)
(0.148247 0.0355443 1.24632e-15)
(0.114521 0.0306844 2.76851e-15)
(0.0842755 0.0267761 6.71905e-15)
(0.0565796 0.023913 9.55316e-15)
(0.0305464 0.0215821 9.24961e-15)
(0.00717549 0.0155208 1.63696e-15)
(0.990988 0.0765498 1.21967e-16)
(0.942473 0.149763 1.23425e-15)
(0.8673 0.16959 2.80349e-15)
(0.792062 0.168823 2.47874e-15)
(0.715344 0.162156 9.18991e-16)
(0.640417 0.153371 -1.0251e-15)
(0.567778 0.143179 -2.67247e-15)
(0.498329 0.131954 -1.46736e-15)
(0.432789 0.12006 1.30951e-15)
(0.371737 0.107877 2.79035e-15)
(0.315562 0.0957748 1.51387e-15)
(0.264464 0.084091 -3.05076e-16)
(0.21846 0.0731191 -1.20966e-15)
(0.177383 0.0631003 1.18883e-16)
(0.140912 0.0542294 1.60679e-15)
(0.108579 0.046677 1.45943e-15)
(0.079731 0.0406278 4.12888e-15)
(0.053432 0.0362126 7.34316e-15)
(0.0288009 0.0326392 9.52522e-15)
(0.00677552 0.0234217 3.39994e-15)
(0.990379 0.107459 6.57961e-16)
(0.937546 0.207355 1.05501e-15)
(0.85886 0.233254 1.14435e-15)
(0.78047 0.231336 1.10046e-15)
(0.701086 0.221492 1.23125e-15)
(0.624169 0.208783 4.91072e-16)
(0.550141 0.194164 -1.1667e-15)
(0.479976 0.178201 -3.53577e-16)
(0.414364 0.161433 1.26382e-15)
(0.353821 0.144404 1.32914e-15)
(0.298647 0.127626 9.33727e-16)
(0.248937 0.111557 -3.46492e-16)
(0.204597 0.096579 -1.98125e-16)
(0.165362 0.082997 7.95861e-17)
(0.130823 0.0710469 4.42934e-16)
(0.100445 0.0609304 5.25836e-16)
(0.0735361 0.0528655 1.10761e-15)
(0.0491518 0.0469976 1.61042e-15)
(0.0264169 0.0422674 3.13119e-15)
(0.00618492 0.0302603 3.77782e-16)
(0.989448 0.140476 4.13795e-16)
(0.930885 0.26661 6.43572e-16)
(0.847523 0.297456 4.95001e-17)
(0.765 0.293519 -7.68448e-17)
(0.682251 0.279827 7.92203e-17)
(0.602901 0.262554 6.14239e-16)
(0.527285 0.242921 3.98426e-16)
(0.456443 0.221731 4.7696e-16)
(0.390987 0.199725 8.45248e-16)
(0.331328 0.177628 8.3994e-16)
(0.277624 0.156093 3.13885e-16)
(0.229821 0.135679 -3.48288e-16)
(0.187681 0.116832 -4.06695e-16)
(0.150809 0.0998907 4.04796e-16)
(0.118696 0.0851019 1.27858e-15)
(0.0907291 0.072669 2.47593e-15)
(0.0661743 0.0628153 2.46492e-15)
(0.0440881 0.0556746 1.93636e-15)
(0.0236109 0.049946 7.02751e-16)
(0.00550097 0.0356608 -7.56823e-17)
(0.98805 0.176495 2.05218e-16)
(0.922154 0.328312 -2.20088e-17)
(0.832943 0.362682 -6.07095e-16)
(0.745365 0.355649 -8.71128e-16)
(0.658683 0.33725 -3.13341e-16)
(0.576609 0.31461 4.28703e-16)
(0.499389 0.289257 2.92563e-16)
(0.428091 0.262279 4.18181e-17)
(0.36318 0.234649 -4.60998e-17)
(0.304899 0.207276 -3.5071e-16)
(0.25321 0.180939 -2.79521e-16)
(0.207864 0.15627 -2.32111e-16)
(0.168444 0.133745 -2.69199e-16)
(0.134411 0.113698 1.71963e-16)
(0.105139 0.0963527 1.25675e-15)
(0.0799413 0.0818839 2.36152e-15)
(0.0580471 0.0704909 2.8921e-15)
(0.0385259 0.0622709 1.65688e-15)
(0.0205469 0.0557106 -9.46345e-16)
(0.00476015 0.0396615 -1.90914e-15)
(0.986037 0.216605 -2.71217e-16)
(0.910979 0.393461 -6.08867e-16)
(0.814672 0.429605 -9.78081e-16)
(0.721149 0.418164 -6.42193e-16)
(0.630083 0.393978 -1.12485e-16)
(0.545156 0.364989 1.94369e-16)
(0.466518 0.333091 -1.31463e-16)
(0.395179 0.299705 -5.92262e-16)
(0.331368 0.266056 -8.20662e-16)
(0.275084 0.233226 -1.06681e-15)
(0.226029 0.202089 -6.12368e-16)
(0.183716 0.173308 -3.32552e-16)
(0.147523 0.147345 -2.01497e-16)
(0.116753 0.124488 -3.12203e-16)
(0.0906679 0.1049 4.3412e-16)
(0.0685119 0.0886964 1.06972e-15)
(0.0494898 0.0760249 1.6075e-15)
(0.0327007 0.0669251 9.82436e-16)
(0.0173576 0.0597016 -8.45017e-16)
(0.00399449 0.0423759 -1.33852e-15)
(0.983194 0.261963 -2.4141e-16)
(0.896863 0.462987 -7.43911e-16)
(0.792109 0.498759 -9.44539e-16)
(0.691793 0.481301 -3.48773e-16)
(0.596031 0.450004 1.64963e-16)
(0.508334 0.413506 7.44093e-17)
(0.428705 0.374145 -5.12863e-16)
(0.35796 0.333718 -9.22852e-16)
(0.29598 0.293697 -7.67724e-16)
(0.242431 0.255304 -7.73675e-16)
(0.19669 0.219456 -8.55276e-16)
(0.157993 0.18679 -9.65234e-16)
(0.125504 0.157699 -1.15564e-15)
(0.0983655 0.132379 -1.24416e-15)
(0.075738 0.110897 -1.27495e-16)
(0.056812 0.0932794 3.54692e-16)
(0.0407864 0.0795993 3.25854e-16)
(0.0268088 0.0698219 1.35988e-16)
(0.014152 0.0621026 -5.89272e-16)
(0.00323065 0.0439493 -1.72171e-16)
(0.979224 0.31388 -3.31986e-16)
(0.879145 0.537785 -8.91813e-16)
(0.764479 0.570545 -7.03965e-16)
(0.656601 0.545112 -1.318e-16)
(0.556042 0.505108 3.18967e-16)
(0.465934 0.459785 6.47857e-17)
(0.386026 0.412003 -4.32433e-16)
(0.31675 0.363945 -6.11375e-16)
(0.257501 0.317298 -4.2111e-16)
(0.207521 0.273357 -4.85009e-16)
(0.165804 0.233002 -9.14992e-16)
(0.131293 0.196775 -1.53805e-15)
(0.102932 0.164939 -1.81494e-15)
(0.0797229 0.137552 -1.39659e-15)
(0.0607435 0.114551 -9.5042e-16)
(0.0451547 0.0958509 -6.1558e-16)
(0.0321717 0.081433 -4.26992e-16)
(0.0210092 0.0711772 -5.38163e-16)
(0.0110162 0.0631233 -1.19942e-16)
(0.00248911 0.0445431 5.64656e-16)
(0.973722 0.373899 -4.25099e-16)
(0.856955 0.618754 -7.03798e-16)
(0.730811 0.64524 -3.70366e-16)
(0.61476 0.609456 1.55135e-16)
(0.5096 0.558869 3.8256e-16)
(0.417801 0.503286 1.9682e-16)
(0.338649 0.446147 -1.70269e-16)
(0.271956 0.389982 -2.66244e-16)
(0.216486 0.336607 -1.4869e-16)
(0.170969 0.287282 -4.39607e-16)
(0.133985 0.242755 -9.8004e-16)
(0.104181 0.203389 -1.54893e-15)
(0.0803034 0.169255 -1.67904e-15)
(0.0612391 0.140234 -1.368e-15)
(0.0460169 0.116106 -8.43146e-16)
(0.0337961 0.0966559 -5.66683e-16)
(0.0238319 0.0817637 -3.83914e-16)
(0.0154253 0.0712192 -3.00041e-16)
(0.0080151 0.0629811 3.03957e-16)
(0.00178478 0.0443215 7.54238e-16)
(0.966128 0.443876 -2.39319e-16)
(0.829148 0.706795 -3.38348e-16)
(0.689899 0.722955 -8.19393e-17)
(0.56535 0.673952 2.66598e-16)
(0.456214 0.610636 2.80721e-16)
(0.363883 0.54331 1.45426e-16)
(0.286875 0.475986 7.49426e-18)
(0.224101 0.411421 2.10681e-17)
(0.173566 0.351414 -8.28997e-17)
(0.133424 0.297046 -3.62647e-16)
(0.101837 0.248816 -8.8056e-16)
(0.0771846 0.206823 -1.13452e-15)
(0.0580553 0.170892 -1.13869e-15)
(0.0432642 0.140692 -7.89414e-16)
(0.031828 0.115828 -2.96464e-16)
(0.0229363 0.0959506 -2.32422e-16)
(0.0159084 0.0808318 -3.26748e-16)
(0.0101477 0.0701745 8.40221e-18)
(0.00519491 0.0618879 6.53677e-16)
(0.00112788 0.0434415 7.238e-16)
(0.955642 0.526101 -1.37827e-16)
(0.794193 0.802794 -1.04739e-16)
(0.64027 0.803558 5.02356e-17)
(0.507373 0.737917 1.0759e-16)
(0.395478 0.659514 1.90742e-16)
(0.304295 0.579021 1.37307e-16)
(0.23117 0.500897 1.29895e-16)
(0.173834 0.427897 -2.93825e-17)
(0.129438 0.361592 -2.53068e-16)
(0.0955443 0.302705 -4.8625e-16)
(0.0699349 0.251364 -6.69731e-16)
(0.0507769 0.207327 -8.62376e-16)
(0.0365607 0.170132 -7.75368e-16)
(0.0260812 0.139212 -2.5948e-16)
(0.0183848 0.113993 1.65419e-16)
(0.012723 0.0939895 5.94925e-17)
(0.00850119 0.0788704 -2.31113e-16)
(0.00523827 0.0682572 -1.70482e-16)
(0.00258554 0.0600414 5.59321e-16)
(0.000524554 0.0420472 3.22456e-16)
(0.941087 0.623485 -6.48419e-17)
(0.750012 0.907546 4.37867e-18)
(0.580145 0.886568 5.33792e-17)
(0.43982 0.800292 9.93311e-17)
(0.327152 0.704357 1.33123e-16)
(0.239373 0.609483 1.49128e-16)
(0.172188 0.52028 4.86697e-17)
(0.121919 0.439131 -2.097e-16)
(0.084846 0.367118 -3.22586e-16)
(0.057978 0.304409 -4.08466e-16)
(0.0388056 0.250652 -4.756e-16)
(0.0253653 0.205204 -4.99253e-16)
(0.0161217 0.167286 -3.73832e-16)
(0.00990594 0.136092 -3.65407e-17)
(0.00583637 0.110873 1.83043e-16)
(0.00325557 0.0910165 -1.61402e-17)
(0.00167363 0.0760964 -5.16686e-16)
(0.000733664 0.0656634 -5.91236e-16)
(0.000203401 0.0576203 4.4298e-17)
(-2.21757e-05 0.0402668 2.00821e-16)
(0.920666 0.739893 9.30478e-18)
(0.693745 1.02158 1.4717e-16)
(0.507453 0.971008 1.17301e-16)
(0.361762 0.859579 3.53025e-17)
(0.251268 0.743802 4.3401e-17)
(0.169723 0.633728 3.10623e-17)
(0.110774 0.53362 -4.57941e-18)
(0.0692167 0.444972 -2.77871e-16)
(0.040546 0.368094 -2.97141e-16)
(0.0213343 0.302407 -2.96227e-16)
(0.00891024 0.247001 -3.03203e-16)
(0.00128165 0.20079 -2.33586e-16)
(-0.00303335 0.162677 -2.64309e-16)
(-0.00511052 0.131626 -7.91787e-17)
(-0.00572164 0.106729 1.63793e-16)
(-0.0054083 0.0872572 -1.45425e-16)
(-0.0045419 0.0727062 -6.01163e-16)
(-0.00334975 0.0625677 -7.16395e-16)
(-0.0019457 0.0547796 -1.27603e-16)
(-0.000511788 0.0382096 1.37535e-16)
(0.891552 0.880562 1.77969e-16)
(0.621396 1.14478 2.58151e-16)
(0.419919 1.05524 9.71495e-17)
(0.272494 0.913771 -2.15743e-17)
(0.168235 0.776325 -3.05167e-17)
(0.0962527 0.650845 -4.42697e-17)
(0.0479518 0.540563 -5.99015e-17)
(0.0166384 0.445432 -2.20194e-16)
(-0.00273008 0.364745 -2.67144e-16)
(-0.0138441 0.297037 -1.16654e-16)
(-0.0193716 0.240778 -1.22497e-16)
(-0.0212231 0.194442 -1.44048e-16)
(-0.0207473 0.156629 -2.10784e-16)
(-0.0188766 0.126098 -1.83956e-17)
(-0.0162406 0.101799 9.24228e-17)
(-0.0132464 0.0829148 -6.92055e-17)
(-0.0101378 0.0688725 -4.86189e-16)
(-0.00701225 0.0591213 -4.55783e-16)
(-0.00386505 0.0516522 -2.6441e-16)
(-0.000945751 0.0359684 1.18079e-17)
(0.849189 1.05316 2.16312e-16)
(0.527386 1.27581 3.02504e-16)
(0.315325 1.1368 7.82164e-17)
(0.17171 0.960362 -3.25379e-17)
(0.0789563 0.800376 -4.24237e-17)
(0.0201758 0.660099 -8.96255e-17)
(-0.0151347 0.540896 -7.11091e-17)
(-0.0349054 0.440696 -2.66208e-17)
(-0.0443143 0.35743 2.4491e-17)
(-0.0471005 0.288709 1.44231e-16)
(-0.0457503 0.232386 1.10957e-16)
(-0.041978 0.186523 -8.3531e-18)
(-0.0369296 0.149455 -6.90517e-17)
(-0.0313526 0.119768 -5.64228e-17)
(-0.0257108 0.0963016 -6.44105e-17)
(-0.0202647 0.0781668 -5.89244e-17)
(-0.0151263 0.0647433 -1.57532e-16)
(-0.0102662 0.0554504 -2.09357e-16)
(-0.00556368 0.0483491 -1.43575e-16)
(-0.0013268 0.0336194 -1.13803e-16)
(0.78618 1.26717 2.06431e-16)
(0.403625 1.41088 2.82098e-16)
(0.191952 1.21224 6.21069e-17)
(0.059688 0.99641 -6.50722e-17)
(-0.0150915 0.814409 -5.4298e-17)
(-0.0570659 0.660974 -5.89343e-17)
(-0.0772915 0.534739 2.28928e-17)
(-0.0845213 0.431131 1.56223e-16)
(-0.0836301 0.346616 2.21997e-16)
(-0.0780856 0.277884 3.35457e-16)
(-0.0700306 0.222237 3.28878e-16)
(-0.0608888 0.177384 2.1291e-16)
(-0.0515483 0.141445 1.19053e-16)
(-0.0425422 0.11287 -2.99958e-17)
(-0.0341537 0.0904233 -5.89732e-17)
(-0.0264908 0.0731647 3.39228e-17)
(-0.0195338 0.0604421 7.60297e-17)
(-0.0131326 0.0516596 1.57386e-17)
(-0.00705462 0.0449605 -7.01995e-17)
(-0.00165852 0.0312239 -2.07904e-16)
(0.692581 1.54046 2.15795e-16)
(0.239153 1.5448 2.53002e-16)
(0.0494114 1.27667 2.68015e-17)
(-0.0625004 1.01888 -7.74543e-17)
(-0.111871 0.817178 -6.68654e-17)
(-0.133767 0.653288 1.21885e-17)
(-0.137303 0.522492 1.55701e-16)
(-0.131463 0.417275 3.04654e-16)
(-0.120231 0.332839 4.249e-16)
(-0.106562 0.265042 4.70278e-16)
(-0.0921064 0.210735 5.21188e-16)
(-0.0779282 0.167353 4.42906e-16)
(-0.0646197 0.132858 2.04505e-16)
(-0.0524829 0.105611 4.31046e-17)
(-0.0416138 0.0843248 -2.93931e-17)
(-0.0319676 0.0680344 5.34313e-17)
(-0.0233967 0.05607 2.08483e-16)
(-0.0156381 0.0478329 3.09561e-16)
(-0.00835351 0.041558 7.70381e-17)
(-0.00194499 0.0288299 -1.69005e-16)
(0.541169 1.87183 1.96065e-16)
(0.0163753 1.66614 1.84233e-16)
(-0.111826 1.32104 -4.28177e-17)
(-0.192567 1.02457 -7.16895e-17)
(-0.208849 0.807975 2.96589e-17)
(-0.208164 0.63738 1.41211e-16)
(-0.194082 0.504748 3.04774e-16)
(-0.175129 0.399776 4.4183e-16)
(-0.15381 0.316676 5.90871e-16)
(-0.1324 0.250659 7.10559e-16)
(-0.111951 0.198259 7.27393e-16)
(-0.0931244 0.156725 6.09886e-16)
(-0.0761982 0.123922 3.76512e-16)
(-0.0612372 0.0981629 1.26845e-16)
(-0.0481515 0.0781394 3.94634e-17)
(-0.0367478 0.0628787 1.18122e-16)
(-0.0267568 0.0517082 3.0973e-16)
(-0.0178124 0.0440368 3.73613e-16)
(-0.00947716 0.0381973 2.19718e-16)
(-0.00219036 0.0264746 -1.209e-16)
(0.396791 2.30908 1.80348e-16)
(-0.282584 1.77902 1.27558e-16)
(-0.287869 1.33505 -4.99146e-17)
(-0.325653 1.01109 -2.55268e-17)
(-0.303023 0.786485 8.98461e-17)
(-0.278566 0.613924 2.59731e-16)
(-0.246753 0.482263 4.0847e-16)
(-0.215088 0.379337 5.76092e-16)
(-0.184197 0.298698 6.786e-16)
(-0.155569 0.235184 7.993e-16)
(-0.129604 0.185152 8.49217e-16)
(-0.106549 0.145761 6.78389e-16)
(-0.0863648 0.114833 3.99841e-16)
(-0.0688838 0.0906726 1.64822e-16)
(-0.0538364 0.0719758 6.90456e-17)
(-0.040889 0.0577798 1.80629e-16)
(-0.0296587 0.0474199 3.79395e-16)
(-0.0196861 0.0403219 4.80457e-16)
(-0.0104424 0.0349215 2.01234e-16)
(-0.00239853 0.0241849 -3.83806e-17)
(0.10167 -0.0209149 -7.72979e-19)
(0.111386 -0.0664035 -4.92863e-18)
(0.128387 -0.12689 -1.75787e-17)
(0.147486 -0.203145 -2.57463e-17)
(0.165336 -0.284615 -1.67011e-17)
(0.187754 -0.351353 -5.99803e-18)
(0.250264 -0.36938 3.23431e-18)
(0.412691 -0.309781 1.41202e-17)
(0.0760316 -0.0206765 -1.84664e-19)
(0.0830999 -0.0634788 -1.29053e-18)
(0.0910453 -0.116633 -1.07577e-17)
(0.0946221 -0.180695 -1.36635e-17)
(0.0891214 -0.251327 -8.77274e-18)
(0.0753774 -0.317094 -1.19588e-17)
(0.0724799 -0.355912 -2.44039e-17)
(0.115265 -0.352644 -2.11857e-17)
(0.0518054 -0.0202226 -2.0087e-19)
(0.0568734 -0.0588743 -1.5039e-18)
(0.0587103 -0.104227 -6.12896e-18)
(0.0552159 -0.156207 -5.19035e-18)
(0.0417403 -0.213164 -3.47335e-18)
(0.0169164 -0.26849 -8.21474e-18)
(-0.0101027 -0.309084 -2.53535e-17)
(-0.0161995 -0.325297 -2.37084e-17)
(0.029685 -0.0197603 -2.99664e-19)
(0.033587 -0.0533087 -2.18607e-18)
(0.0310883 -0.0918137 -3.74183e-18)
(0.024047 -0.134424 -5.31279e-19)
(0.00827576 -0.180313 4.25365e-18)
(-0.0177775 -0.225531 -5.67654e-19)
(-0.0489091 -0.262514 -1.65123e-17)
(-0.0715577 -0.284604 -1.63696e-17)
(0.0109632 -0.0185845 -5.21383e-19)
(0.013487 -0.0473332 -1.31551e-18)
(0.00806073 -0.0797259 -1.46537e-18)
(-0.000923393 -0.114721 1.31263e-18)
(-0.0174475 -0.151671 6.03689e-18)
(-0.042308 -0.188126 5.38597e-18)
(-0.0721951 -0.219465 -3.16947e-18)
(-0.0989264 -0.242009 -6.94502e-18)
(-0.00608475 -0.0194977 -7.38242e-19)
(-0.00476619 -0.0416096 5.5114e-19)
(-0.0113242 -0.068488 1.51966e-18)
(-0.0214827 -0.0973997 -2.93245e-19)
(-0.038188 -0.127417 -4.75118e-19)
(-0.0616053 -0.156916 1.41911e-18)
(-0.0895937 -0.18313 -2.41319e-18)
(-0.116598 -0.203776 -3.84353e-18)
(-0.0207877 -0.0174874 -3.29732e-19)
(-0.0207324 -0.0360905 3.64919e-18)
(-0.0273142 -0.0581223 5.41056e-18)
(-0.0382597 -0.0817302 -2.25437e-18)
(-0.0549446 -0.105989 -9.3373e-18)
(-0.0773181 -0.129778 -9.03398e-18)
(-0.103984 -0.151489 -9.34246e-18)
(-0.130633 -0.169379 -6.08913e-18)
(-0.0314506 -0.0163028 9.61094e-19)
(-0.0333465 -0.0308483 4.85087e-18)
(-0.0403074 -0.0486379 5.93817e-18)
(-0.0518158 -0.0675967 -3.06385e-18)
(-0.0684462 -0.0870056 -1.26554e-17)
(-0.0901302 -0.106049 -1.46568e-17)
(-0.115985 -0.123771 -1.41284e-17)
(-0.14232 -0.138706 -7.98409e-18)
(-0.039692 -0.0143436 1.70249e-18)
(-0.0432304 -0.0256864 2.23989e-18)
(-0.0506693 -0.0397324 -2.07398e-18)
(-0.0625782 -0.0546216 -8.74172e-18)
(-0.0791643 -0.0698427 -9.75736e-18)
(-0.100398 -0.0848017 -1.08429e-17)
(-0.125759 -0.0988905 -1.18408e-17)
(-0.151884 -0.110884 -9.39818e-18)
(-0.0460476 -0.0119667 1.53381e-18)
(-0.0508221 -0.0206017 -1.6515e-18)
(-0.0587019 -0.0313037 -1.06164e-17)
(-0.0709067 -0.0426184 -1.41313e-17)
(-0.0874588 -0.054177 -6.06357e-18)
(-0.108379 -0.0655468 -1.49213e-18)
(-0.133396 -0.0763041 -2.96046e-18)
(-0.159334 -0.085458 7.64971e-19)
(-0.050669 -0.009379 1.3397e-18)
(-0.0563273 -0.0155814 -2.2631e-18)
(-0.064554 -0.0232875 -1.36599e-17)
(-0.0769449 -0.0314241 -1.43226e-17)
(-0.093425 -0.0397282 -2.74198e-18)
(-0.114051 -0.047894 2.66945e-18)
(-0.13872 -0.0556083 4.03094e-18)
(-0.164382 -0.0620916 1.00956e-17)
(-0.0530892 -0.00670133 1.20309e-18)
(-0.0592844 -0.0106652 -5.75007e-20)
(-0.067636 -0.0156733 -8.8723e-18)
(-0.079941 -0.0209625 -1.18157e-17)
(-0.0960909 -0.0263465 -3.05384e-18)
(-0.116166 -0.0316339 -2.82643e-18)
(-0.140152 -0.0365974 -7.65228e-18)
(-0.165109 -0.0405932 -2.1644e-18)
(-0.0506518 -0.00404885 1.71421e-18)
(-0.056811 -0.00600082 -2.07932e-18)
(-0.0646241 -0.00863676 -1.05214e-17)
(-0.0759725 -0.0114541 -1.22943e-17)
(-0.0907673 -0.0143147 -7.23458e-18)
(-0.109095 -0.017124 -9.61346e-18)
(-0.130891 -0.0197305 -2.35686e-17)
(-0.153415 -0.0214918 -2.72959e-17)
(-0.0356947 -0.0016602 1.60512e-18)
(-0.0407019 -0.00202346 -2.53154e-18)
(-0.0464297 -0.00267961 -6.141e-18)
(-0.0546973 -0.00337812 -2.05834e-18)
(-0.0653944 -0.00395987 3.6762e-18)
(-0.0785296 -0.00441277 -2.28065e-18)
(-0.0937343 -0.00488676 -2.26274e-17)
(-0.108807 -0.00506009 -3.48178e-17)
(-0.00252143 -8.94694e-05 9.95218e-19)
(-0.00460378 0.000190015 -8.87438e-19)
(-0.00593523 0.000371617 -2.15076e-18)
(-0.00784752 0.000550026 -8.72383e-20)
(-0.0101735 0.000675576 3.83812e-18)
(-0.0131359 0.000568537 2.01513e-18)
(-0.0163773 -8.59648e-05 -6.96893e-18)
(-0.0184617 -0.000712152 -1.50936e-17)
(0.572629 -0.204239 2.51483e-17)
(0.603532 -0.164809 2.29154e-17)
(0.622905 -0.147441 2.74462e-17)
(0.640706 -0.137862 2.91888e-17)
(0.654832 -0.131156 1.90222e-17)
(0.66659 -0.125931 1.55377e-17)
(0.676678 -0.121695 1.87658e-17)
(0.685537 -0.118153 1.53293e-17)
(0.693472 -0.115102 1.42873e-17)
(0.7007 -0.112406 2.39602e-17)
(0.707372 -0.109969 1.33809e-17)
(0.713594 -0.107724 1.05064e-17)
(0.719433 -0.105626 6.23733e-18)
(0.724923 -0.10364 7.13088e-19)
(0.730066 -0.101745 -1.70058e-18)
(0.734822 -0.0999255 3.06434e-18)
(0.7391 -0.098184 -6.08191e-18)
(0.742748 -0.0965417 1.64331e-17)
(0.745557 -0.0950506 1.68303e-17)
(0.747296 -0.0937977 2.54728e-17)
(0.747807 -0.0928921 5.40333e-17)
(0.747165 -0.0924239 3.98419e-17)
(0.745942 -0.0923889 4.82108e-18)
(0.745539 -0.0926079 -4.99471e-17)
(0.748556 -0.0926548 -4.52842e-17)
(0.759088 -0.0918028 -6.88374e-17)
(0.782876 -0.089079 -7.81045e-17)
(0.827026 -0.0832377 -4.72662e-17)
(0.898736 -0.0723873 -9.01104e-19)
(1.00314 -0.0543028 -8.45375e-17)
(1.14093 -0.0262898 -3.95246e-17)
(1.30654 0.0138296 5.95547e-18)
(1.48796 0.0661207 1.71846e-17)
(1.66656 0.127923 -4.55569e-17)
(1.81833 0.193459 -1.70464e-17)
(1.91731 0.253769 -7.03148e-17)
(1.94019 0.297074 -1.59344e-17)
(1.87261 0.310796 -2.50619e-16)
(1.72751 0.287926 -5.22543e-17)
(1.53603 0.232978 1.15491e-16)
(1.34355 0.162657 6.72289e-17)
(1.19342 0.0968736 -4.29342e-17)
(1.10867 0.0513475 1.09401e-17)
(1.08881 0.0301789 7.82689e-17)
(1.11719 0.029075 -2.96902e-17)
(1.17012 0.0402059 6.16815e-17)
(1.23226 0.0521163 2.95848e-17)
(1.2903 0.0589513 -2.30584e-17)
(1.7896 0.0640413 7.07287e-17)
(0.30595 0.0563467 4.51444e-17)
(0.173544 -0.322925 -6.76353e-18)
(0.184421 -0.299593 4.42526e-18)
(0.192233 -0.287798 1.57106e-17)
(0.19959 -0.27957 2.3406e-17)
(0.206173 -0.273477 2.70555e-17)
(0.212134 -0.268853 2.82644e-17)
(0.217592 -0.265263 2.70592e-17)
(0.222656 -0.262408 1.83555e-17)
(0.22741 -0.260074 1.27607e-18)
(0.231922 -0.25811 -6.60833e-18)
(0.236246 -0.256403 -1.6017e-17)
(0.240416 -0.254867 -1.56415e-17)
(0.244448 -0.253436 -2.02838e-17)
(0.24833 -0.252054 -2.61696e-17)
(0.252005 -0.250676 -3.65469e-17)
(0.255342 -0.249263 -4.03546e-17)
(0.258098 -0.247792 -5.64114e-17)
(0.259897 -0.246269 -6.05216e-17)
(0.260261 -0.244752 -6.66065e-17)
(0.25874 -0.243381 -6.75967e-17)
(0.255194 -0.242413 -7.21027e-17)
(0.250253 -0.242261 -1.02177e-16)
(0.245927 -0.243528 -1.20749e-16)
(0.246235 -0.246942 -1.64814e-16)
(0.257575 -0.253068 -1.38219e-16)
(0.288282 -0.261821 -9.18068e-17)
(0.347579 -0.272057 -3.83899e-17)
(0.443827 -0.280754 -2.46367e-17)
(0.582306 -0.282764 4.31233e-17)
(0.763946 -0.27237 7.12261e-17)
(0.98435 -0.242537 1.1701e-16)
(1.23354 -0.186943 1.5479e-16)
(1.49593 -0.101785 2.44451e-16)
(1.75212 0.0126931 4.0297e-16)
(1.97917 0.150711 3.97808e-16)
(2.15293 0.299902 3.86176e-16)
(2.25366 0.442128 5.33249e-16)
(2.26526 0.549386 5.42679e-16)
(2.17667 0.595422 5.88074e-16)
(1.99557 0.565881 4.79915e-16)
(1.75974 0.46418 3.50673e-16)
(1.53062 0.323429 1.75356e-16)
(1.36692 0.190803 1.36895e-16)
(1.29535 0.100712 9.3204e-17)
(1.30263 0.0625377 4.93063e-17)
(1.35022 0.0627753 8.45202e-17)
(1.3932 0.0709206 9.16306e-17)
(1.43463 0.0614309 9.62543e-17)
(1.22994 0.193836 1.29657e-16)
(-0.645953 0.630001 1.84006e-16)
(-0.00927138 -0.328918 -4.14978e-18)
(-0.0150483 -0.322472 2.07316e-17)
(-0.0193574 -0.318861 4.04999e-17)
(-0.0232316 -0.316633 4.6485e-17)
(-0.026789 -0.31553 4.71146e-17)
(-0.0302981 -0.315296 3.01349e-17)
(-0.0338792 -0.315736 1.1984e-17)
(-0.0375968 -0.316696 -8.04301e-18)
(-0.0414793 -0.31805 -2.20956e-17)
(-0.0455398 -0.319694 -3.48263e-17)
(-0.0497878 -0.32154 -4.57734e-17)
(-0.0542389 -0.323517 -6.00755e-17)
(-0.0589305 -0.325557 -8.02509e-17)
(-0.0639518 -0.327586 -1.01506e-16)
(-0.0694875 -0.329494 -1.27031e-16)
(-0.075859 -0.331134 -1.40325e-16)
(-0.0835258 -0.332329 -1.47044e-16)
(-0.0929932 -0.332939 -1.51108e-16)
(-0.104584 -0.333006 -1.46913e-16)
(-0.118071 -0.33297 -1.49752e-16)
(-0.132182 -0.333892 -1.58695e-16)
(-0.144111 -0.337572 -1.81302e-16)
(-0.149196 -0.346364 -1.50247e-16)
(-0.141113 -0.362593 -1.07529e-16)
(-0.112826 -0.387629 -5.01747e-17)
(-0.0577915 -0.421017 3.40852e-17)
(0.0295028 -0.45996 1.08362e-16)
(0.152866 -0.499423 1.7448e-16)
(0.313195 -0.532722 2.12001e-16)
(0.509046 -0.551719 2.14794e-16)
(0.735472 -0.546318 2.02597e-16)
(0.982759 -0.507312 2.32021e-16)
(1.23768 -0.42641 4.66618e-16)
(1.48297 -0.300173 4.3016e-16)
(1.69996 -0.133206 6.29265e-16)
(1.87042 0.0611573 5.66658e-16)
(1.98063 0.261811 7.50521e-16)
(2.02585 0.446473 4.08187e-16)
(2.00054 0.583926 4.04861e-16)
(1.90224 0.636876 4.51008e-16)
(1.74276 0.585218 4.16128e-16)
(1.56532 0.449406 3.91305e-16)
(1.42396 0.284141 2.72169e-16)
(1.35159 0.147153 1.99765e-16)
(1.33258 0.0685875 1.6037e-16)
(1.31575 0.0430297 1.14527e-16)
(1.24182 0.0434873 7.15446e-17)
(1.0083 0.102537 1.16928e-16)
(0.0516957 0.399088 1.58906e-16)
(-1.42647 1.06623 1.76721e-16)
(-0.0851279 -0.298303 1.19647e-17)
(-0.0990321 -0.299809 4.02243e-17)
(-0.110106 -0.300993 5.54568e-17)
(-0.120711 -0.302471 6.06443e-17)
(-0.131158 -0.304496 5.27597e-17)
(-0.141707 -0.307055 3.4263e-17)
(-0.1525 -0.310107 8.44568e-18)
(-0.163656 -0.313597 -1.08972e-17)
(-0.175268 -0.317471 -2.93403e-17)
(-0.187419 -0.321677 -5.15754e-17)
(-0.200185 -0.326162 -7.29368e-17)
(-0.213661 -0.330856 -1.0564e-16)
(-0.227988 -0.335657 -1.3721e-16)
(-0.243394 -0.340392 -1.61213e-16)
(-0.260204 -0.34482 -1.68629e-16)
(-0.278796 -0.348673 -1.63277e-16)
(-0.29946 -0.35179 -1.49532e-16)
(-0.322166 -0.354324 -1.33108e-16)
(-0.346281 -0.356985 -1.31357e-16)
(-0.37031 -0.36123 -1.37298e-16)
(-0.391752 -0.369332 -1.37931e-16)
(-0.407127 -0.384176 -1.07264e-16)
(-0.412231 -0.408736 -5.1951e-17)
(-0.40273 -0.445316 3.09925e-17)
(-0.37442 -0.494862 1.16237e-16)
(-0.323406 -0.556383 1.90465e-16)
(-0.246173 -0.626515 2.35124e-16)
(-0.140009 -0.699653 2.24911e-16)
(-0.00347601 -0.767675 1.90459e-16)
(0.163438 -0.819689 1.55691e-16)
(0.356553 -0.843229 9.27126e-17)
(0.567191 -0.824692 1.30455e-16)
(0.783619 -0.75192 2.8725e-16)
(0.991248 -0.61926 3.99869e-16)
(1.17474 -0.430644 5.11987e-16)
(1.31992 -0.202594 5.74266e-16)
(1.41894 0.0390105 2.38013e-16)
(1.4722 0.266154 3.10822e-16)
(1.47922 0.45135 3.65732e-16)
(1.44746 0.55534 4.53476e-16)
(1.38021 0.551486 5.70426e-16)
(1.29648 0.442107 5.20587e-16)
(1.22707 0.27523 3.08704e-16)
(1.18073 0.121533 2.16394e-16)
(1.11528 0.0275119 1.4673e-16)
(0.972142 0.0021262 1.38377e-16)
(0.669458 0.0473023 9.88196e-17)
(-0.000967852 0.23855 1.4045e-16)
(-1.11879 0.666007 2.0736e-16)
(-2.03008 1.32552 1.41051e-16)
(-0.119347 -0.257295 1.04902e-17)
(-0.136447 -0.26201 3.20489e-17)
(-0.150573 -0.265378 4.48567e-17)
(-0.164373 -0.268622 4.67229e-17)
(-0.178319 -0.272121 4.15529e-17)
(-0.192672 -0.275943 2.47252e-17)
(-0.207588 -0.280097 9.27855e-18)
(-0.223212 -0.284577 -1.07379e-17)
(-0.23968 -0.289367 -3.25872e-17)
(-0.257137 -0.294446 -5.84205e-17)
(-0.275747 -0.29977 -9.19133e-17)
(-0.295716 -0.30525 -1.27633e-16)
(-0.317308 -0.310731 -1.49364e-16)
(-0.340835 -0.316006 -1.5443e-16)
(-0.366593 -0.320872 -1.44e-16)
(-0.394753 -0.32527 -1.33438e-16)
(-0.425225 -0.329445 -1.2878e-16)
(-0.457561 -0.334127 -1.29386e-16)
(-0.490927 -0.340668 -1.38725e-16)
(-0.524113 -0.351134 -1.27158e-16)
(-0.555524 -0.36828 -9.93803e-17)
(-0.583146 -0.395335 -3.60065e-17)
(-0.604515 -0.43554 5.38397e-17)
(-0.616554 -0.491508 1.33182e-16)
(-0.615603 -0.564493 1.96509e-16)
(-0.597504 -0.653679 1.86849e-16)
(-0.557985 -0.755544 1.37216e-16)
(-0.493496 -0.863422 8.69495e-17)
(-0.402071 -0.967127 3.35121e-17)
(-0.284113 -1.05338 3.51944e-17)