/*--------------------------------*- C++ -*----------------------------------*\
  =========                 |
  \\      /  F ield         | OpenFOAM: The Open Source CFD Toolbox
   \\    /   O peration     | Website:  https://openfoam.org
    \\  /    A nd           | Version:  13
     \\/     M anipulation  |
\*---------------------------------------------------------------------------*/
FoamFile
{
    format      ascii;
    class       surfaceVectorField;
    location    "0.001";
    object      Uf;
}
// * * * * * * * * * * * * * * * * * * * * * * * * * * * * * * * * * * * * * //

dimensions      [0 1 -1 0 0 0 0];

internalField   nonuniform List<vector> 
3252
(
(0.24502 -0.00280097 1.4428e-17)
(0.228338 -0.00216614 3.29216e-18)
(0.297631 -0.00610886 1.65725e-17)
(0.260335 -0.00702367 1.71234e-17)
(0.395264 -0.0101158 -2.37592e-17)
(0.333948 -0.0130344 7.27979e-18)
(0.546386 -0.0140574 -7.26922e-17)
(0.456686 -0.0201752 -9.22184e-18)
(0.741052 -0.0156881 -6.20936e-17)
(0.637475 -0.0259887 -8.78613e-17)
(0.9323 -0.0119335 -1.45423e-17)
(0.84366 -0.0255674 -1.26342e-17)
(1.03432 -0.00288471 6.3543e-18)
(1.01692 -0.0137619 -5.34374e-18)
(1.05089 0.00448412 -4.26425e-19)
(0.24372 -0.00731012 3.17404e-18)
(0.226358 -0.00434147 1.21002e-18)
(0.295762 -0.0159414 4.91673e-18)
(0.258042 -0.0139334 -2.17042e-18)
(0.392616 -0.0264214 3.70093e-17)
(0.331219 -0.0259128 1.10702e-17)
(0.543758 -0.0368545 -8.29077e-18)
(0.453984 -0.0403543 3.92482e-17)
(0.74168 -0.0412564 -3.0436e-17)
(0.636133 -0.0526293 -5.53913e-17)
(0.936442 -0.0313774 3.09311e-19)
(0.845215 -0.0518392 2.21077e-18)
(1.03831 -0.00750353 -1.83889e-17)
(1.02053 -0.027494 -3.39731e-17)
(1.05271 0.0097482 -2.53181e-17)
(0.241044 -0.0115458 -4.86529e-18)
(0.223233 -0.00647684 -1.40124e-18)
(0.292494 -0.0251923 3.88969e-18)
(0.254408 -0.0207369 -7.20374e-18)
(0.388828 -0.0419754 1.09389e-17)
(0.326781 -0.0387099 4.75111e-18)
(0.540709 -0.059062 -7.80889e-18)
(0.449376 -0.0606972 -1.60353e-17)
(0.741918 -0.0664583 -2.19322e-17)
(0.633684 -0.0798566 -3.32618e-17)
(0.94049 -0.0503019 -3.54901e-17)
(0.847603 -0.078802 -1.37797e-17)
(1.04237 -0.0113985 -4.3307e-17)
(1.02634 -0.0412403 -6.21983e-17)
(1.0557 0.0157208 -4.99862e-17)
(0.237017 -0.0159012 -3.67077e-18)
(0.2189 -0.00854974 -1.50584e-18)
(0.287648 -0.0347879 -6.96876e-18)
(0.249354 -0.0273816 -8.65201e-19)
(0.383282 -0.0583381 -2.42534e-17)
(0.320492 -0.0513754 -1.35559e-17)
(0.536262 -0.0827658 -4.35502e-17)
(0.442639 -0.0812635 -5.09634e-17)
(0.741735 -0.0936062 -2.52902e-17)
(0.629717 -0.107898 -5.8636e-17)
(0.945599 -0.0705652 -4.10329e-17)
(0.850018 -0.106792 -9.80476e-18)
(1.04765 -0.0151308 -7.06535e-17)
(1.03383 -0.055035 -7.01196e-17)
(1.05991 0.0226773 -6.36965e-17)
(0.231671 -0.0201702 1.52063e-18)
(0.213394 -0.0105368 -1.08417e-18)
(0.281155 -0.0443062 -7.47388e-18)
(0.242894 -0.0337966 1.30132e-18)
(0.375713 -0.0748989 -4.09775e-17)
(0.312276 -0.0638232 -2.35414e-17)
(0.529856 -0.107261 -6.70491e-17)
(0.433535 -0.102052 -7.05415e-17)
(0.740304 -0.122041 -4.39114e-17)
(0.623384 -0.13689 -8.10109e-17)
(0.950877 -0.0916551 -3.90956e-17)
(0.850367 -0.136099 -2.69421e-17)
(1.05386 -0.0184345 -6.29389e-17)
(1.04105 -0.069057 -5.64384e-17)
(1.06501 0.0307925 -6.30561e-17)
(0.225051 -0.0242625 -1.40224e-18)
(0.206774 -0.0124128 -7.63188e-19)
(0.272988 -0.05357 -1.50212e-17)
(0.235068 -0.0398967 -5.42341e-18)
(0.36591 -0.0914442 -5.35294e-17)
(0.30206 -0.0759293 -2.93973e-17)
(0.520734 -0.132377 -8.51136e-17)
(0.42171 -0.122938 -7.59447e-17)
(0.735627 -0.151731 -6.47106e-17)
(0.613085 -0.166672 -8.86103e-17)
(0.953547 -0.113703 -4.46156e-17)
(0.844835 -0.166817 -3.8976e-17)
(1.05937 -0.0214102 -5.62175e-17)
(1.04413 -0.0837562 -4.22996e-17)
(1.07009 0.0398555 -5.5412e-17)
(0.217218 -0.028115 -4.88193e-18)
(0.19912 -0.0141504 -4.80573e-19)
(0.263131 -0.0624518 -1.99374e-17)
(0.225939 -0.0455808 -8.69504e-18)
(0.353616 -0.107788 -5.17631e-17)
(0.289793 -0.0875167 -3.24483e-17)
(0.507657 -0.157817 -7.92779e-17)
(0.406646 -0.143567 -7.48482e-17)
(0.724325 -0.182478 -6.27924e-17)
(0.596429 -0.196581 -7.35355e-17)
(0.948719 -0.137036 -3.64474e-17)
(0.828223 -0.198683 -3.7236e-17)
(1.06106 -0.0246702 -4.08393e-17)
(1.0371 -0.0999909 -2.44163e-17)
(1.07356 0.0489395 -4.17616e-17)
(0.208253 -0.0316601 -4.27924e-18)
(0.190531 -0.0157207 -1.95646e-19)
(0.251605 -0.0707942 -2.12371e-17)
(0.215593 -0.0507349 -8.64236e-18)
(0.338526 -0.123583 -5.56259e-17)
(0.275508 -0.0983352 -3.52356e-17)
(0.488942 -0.182847 -6.8856e-17)
(0.387716 -0.163273 -7.01294e-17)
(0.702242 -0.213555 -4.75941e-17)
(0.570772 -0.225402 -5.65784e-17)
(0.930093 -0.161942 -2.48578e-17)
(0.795553 -0.230941 -2.5512e-17)
(1.05448 -0.0294325 -2.46485e-17)
(1.01307 -0.119035 -6.5695e-18)
(1.0732 0.0561178 -2.60174e-17)
(0.198262 -0.0348233 -4.56476e-18)
(0.181127 -0.0170936 -2.48782e-19)
(0.2385 -0.0783931 -2.26709e-17)
(0.204163 -0.0552447 -8.84549e-18)
(0.320384 -0.138263 -4.96131e-17)
(0.259381 -0.108058 -3.92856e-17)
(0.462982 -0.206274 -5.76164e-17)
(0.364433 -0.181091 -6.54927e-17)
(0.665972 -0.243654 -3.41996e-17)
(0.534301 -0.251546 -4.79639e-17)
(0.89205 -0.188538 -6.73746e-18)
(0.744276 -0.262343 -8.67298e-18)
(1.03496 -0.0375214 -7.22687e-18)
(0.966545 -0.142343 7.65303e-18)
(1.06656 0.0584536 -1.38178e-17)
(0.18739 -0.0375347 -4.52885e-18)
(0.171043 -0.0182436 -2.51006e-19)
(0.224027 -0.0850117 -2.55131e-17)
(0.191848 -0.0590134 -1.02044e-17)
(0.299173 -0.151105 -5.52704e-17)
(0.241757 -0.116314 -3.96707e-17)
(0.429132 -0.226757 -5.58065e-17)
(0.336828 -0.195946 -6.18738e-17)
(0.61451 -0.271138 -2.21957e-17)
(0.487135 -0.273414 -4.00297e-17)
(0.832227 -0.216768 6.05266e-18)
(0.675626 -0.291376 1.38735e-18)
(0.999236 -0.0512749 1.62062e-18)
(0.896069 -0.171085 1.63516e-17)
(1.05082 0.0523672 -4.79664e-18)
(0.175822 -0.039741 -5.95031e-18)
(0.160422 -0.0191561 -2.60442e-19)
(0.208522 -0.0904159 -2.43424e-17)
(0.178908 -0.0619827 -1.22345e-17)
(0.27531 -0.161377 -4.61211e-17)
(0.223136 -0.122762 -3.88587e-17)
(0.388315 -0.243 -4.59318e-17)
(0.305747 -0.206934 -5.11382e-17)
(0.549994 -0.294442 -1.63316e-17)
(0.431837 -0.289766 -3.46377e-17)
(0.752841 -0.246464 1.18792e-17)
(0.593919 -0.316619 2.75254e-18)
(0.946269 -0.0730668 1.0482e-17)
(0.805211 -0.205582 2.1291e-17)
(1.02089 0.0341808 3.62691e-18)
(0.163776 -0.0414182 -6.55378e-18)
(0.14941 -0.0198337 -5.04077e-19)
(0.192419 -0.094427 -2.6788e-17)
(0.165647 -0.0641467 -1.09987e-17)
(0.249719 -0.168529 -4.38411e-17)
(0.204092 -0.127194 -3.49086e-17)
(0.343095 -0.254048 -3.975e-17)
(0.272787 -0.213583 -4.17507e-17)
(0.477043 -0.312426 -1.55285e-17)
(0.372824 -0.299894 -2.78485e-17)
(0.659312 -0.2763 1.22976e-17)
(0.505087 -0.336896 3.64076e-18)
(0.87606 -0.104531 1.48476e-17)
(0.699995 -0.244803 2.50986e-17)
(0.966832 0.00033216 1.24904e-17)
(0.151478 -0.0425795 -4.92629e-18)
(0.138142 -0.020299 -6.07766e-19)
(0.176177 -0.0969847 -1.9011e-17)
(0.152357 -0.0655535 -7.70658e-18)
(0.223633 -0.172385 -3.26626e-17)
(0.185158 -0.129594 -2.63179e-17)
(0.296896 -0.259608 -2.97093e-17)
(0.23982 -0.215963 -3.26325e-17)
(0.401603 -0.32437 -8.57401e-18)
(0.314847 -0.303708 -1.9956e-17)
(0.557658 -0.304281 1.66588e-17)
(0.416034 -0.351057 6.61792e-18)
(0.785855 -0.144592 2.31111e-17)
(0.585176 -0.285554 2.75625e-17)
(0.877071 -0.05335 2.0546e-17)
(0.139129 -0.0432856 -3.36804e-18)
(0.126739 -0.0205903 -8.46289e-19)
(0.160176 -0.0982085 -1.49614e-17)
(0.139258 -0.0662901 -5.6686e-18)
(0.198185 -0.173259 -2.62048e-17)
(0.16671 -0.130123 -2.19896e-17)
(0.252808 -0.260144 -2.27901e-17)
(0.208371 -0.2146 -2.7517e-17)
(0.329596 -0.330104 -4.70919e-18)
(0.261512 -0.301786 -1.66261e-17)
(0.452982 -0.330321 1.76986e-17)
(0.333436 -0.357761 6.92479e-18)
(0.673677 -0.19931 2.51715e-17)
(0.467481 -0.323042 2.58299e-17)
(0.746888 -0.131456 2.39461e-17)
(0.126873 -0.0436431 -3.14418e-18)
(0.11531 -0.0207517 -1.04359e-18)
(0.144568 -0.098371 -1.26694e-17)
(0.126465 -0.0664378 -5.07306e-18)
(0.17396 -0.171793 -2.32667e-17)
(0.149008 -0.129035 -1.94372e-17)
(0.212545 -0.256707 -2.13355e-17)
(0.17969 -0.210253 -2.61573e-17)
(0.265338 -0.330103 -4.99104e-18)
(0.215377 -0.295294 -1.64483e-17)
(0.354236 -0.352201 1.51645e-17)
(0.262974 -0.356866 2.74131e-18)
(0.543752 -0.269242 2.4633e-17)
(0.362228 -0.350628 1.78321e-17)
(0.593387 -0.237139 2.20489e-17)
(0.970829 0.0291639 -3.74522e-17)
(0.991593 0.0312837 -9.16435e-16)
(0.911303 0.0415351 1.72209e-15)
(0.946535 0.0609764 9.59276e-16)
(0.84082 0.0443138 1.36947e-15)
(0.874517 0.0694837 2.24536e-15)
(0.767839 0.0435176 -1.13714e-15)
(0.802339 0.0693361 1.46449e-15)
(0.694857 0.0416579 -3.78999e-15)
(0.728082 0.0668465 -2.16451e-15)
(0.623028 0.0393045 -4.49547e-15)
(0.655114 0.0634331 -4.51855e-15)
(0.553227 0.0366162 -3.16653e-15)
(0.58386 0.0594326 -4.74982e-15)
(0.486248 0.0336847 -5.6415e-16)
(0.515198 0.0549863 -2.1786e-15)
(0.422781 0.0306034 6.9645e-16)
(0.449859 0.0502359 1.40437e-15)
(0.363384 0.027468 -5.20176e-17)
(0.388463 0.0453305 1.33928e-15)
(0.308454 0.0243716 -1.95736e-15)
(0.331473 0.0404192 -3.8412e-16)
(0.258216 0.0213996 -3.74735e-15)
(0.279178 0.0356423 -2.82111e-15)
(0.212714 0.0186266 -2.8711e-15)
(0.231688 0.0311253 -3.88397e-15)
(0.171815 0.0161147 -1.19389e-15)
(0.188931 0.0269746 -1.37037e-15)
(0.13521 0.0139172 1.06019e-16)
(0.150662 0.0232774 -1.14787e-16)
(0.102406 0.0120864 2.85497e-15)
(0.11648 0.0201127 1.84771e-15)
(0.0726912 0.0106681 6.02168e-15)
(0.0857771 0.0175661 5.3845e-15)
(0.0451515 0.00957907 6.93637e-15)
(0.0576348 0.015697 8.35636e-15)
(0.0193622 0.00785815 3.65794e-15)
(0.0311608 0.0141724 7.44133e-15)
(0.00735108 0.0102444 1.21803e-15)
(0.970465 0.0703297 5.75415e-17)
(0.991283 0.0609168 1.66893e-17)
(0.909508 0.100218 1.38631e-15)
(0.944241 0.11973 6.91914e-16)
(0.837729 0.106686 2.62181e-15)
(0.87031 0.13588 2.7066e-15)
(0.763529 0.104655 9.48052e-16)
(0.796213 0.135428 2.55544e-15)
(0.689587 0.100076 -2.59543e-15)
(0.720459 0.13023 2.19353e-17)
(0.61702 0.0943566 -4.84271e-15)
(0.646279 0.123321 -2.83012e-15)
(0.546722 0.087845 -3.98283e-15)
(0.574173 0.11528 -4.01535e-15)
(0.479489 0.0807579 -1.97217e-16)
(0.505023 0.106397 -2.10672e-15)
(0.416001 0.0733189 2.41473e-15)
(0.439552 0.0969592 1.8733e-15)
(0.356794 0.0657582 1.33416e-15)
(0.378356 0.0872655 2.60982e-15)
(0.302234 0.0582987 -9.99126e-16)
(0.321852 0.0776094 8.14713e-16)
(0.252509 0.051145 -2.71913e-15)
(0.270277 0.0682623 -1.31098e-15)
(0.207626 0.0444747 -2.30931e-15)
(0.223683 0.0594619 -2.27127e-15)
(0.167419 0.0384368 -7.57871e-17)
(0.181941 0.0514063 -6.51803e-16)
(0.131548 0.0331587 1.99353e-15)
(0.14476 0.0442571 1.41772e-15)
(0.0994981 0.0287659 4.70775e-15)
(0.111696 0.0381579 2.14603e-15)
(0.07054 0.0253707 8.11026e-15)
(0.0821145 0.0332644 5.4874e-15)
(0.0437466 0.0227688 9.40415e-15)
(0.0550828 0.0296889 8.50228e-15)
(0.0186745 0.0186088 5.51529e-15)
(0.0297164 0.0267909 9.38066e-15)
(0.00698529 0.0192554 2.47529e-15)
(0.968497 0.112317 6.65362e-16)
(0.990688 0.0914336 3.85808e-16)
(0.904995 0.159486 2.00384e-15)
(0.940048 0.177733 1.14602e-15)
(0.830892 0.169213 2.64412e-15)
(0.863145 0.200582 1.98679e-15)
(0.754709 0.16555 1.71313e-15)
(0.786356 0.199286 1.80029e-15)
(0.679133 0.157844 -3.53157e-17)
(0.708325 0.191087 1.0727e-15)
(0.605327 0.148368 -1.83376e-15)
(0.632419 0.180405 -2.78769e-16)
(0.534226 0.137669 -2.08091e-15)
(0.559096 0.168074 -1.93126e-15)
(0.466635 0.126115 -1.04253e-16)
(0.489295 0.15456 -9.19103e-16)
(0.403213 0.114079 2.03642e-15)
(0.423719 0.140314 1.28702e-15)
(0.344452 0.101936 2.16375e-15)
(0.362918 0.125793 2.07107e-15)
(0.290658 0.0900394 6.20986e-16)
(0.307235 0.111436 1.2283e-15)
(0.241951 0.0787051 -7.49119e-16)
(0.256821 0.0976354 -3.25463e-16)
(0.198269 0.0682011 -5.57506e-16)
(0.211636 0.0847264 -7.11736e-16)
(0.159379 0.0587458 8.49264e-16)
(0.171466 0.0729805 9.95394e-17)
(0.124887 0.0505221 1.53445e-15)
(0.135946 0.0626132 1.03388e-15)
(0.094237 0.0437076 2.76981e-15)
(0.104575 0.0538117 9.9987e-16)
(0.0666777 0.0384605 5.70671e-15)
(0.0766816 0.0467784 2.64167e-15)
(0.0412832 0.0344585 8.41428e-15)
(0.0513251 0.0416533 4.52123e-15)
(0.0176071 0.0281174 6.52033e-15)
(0.0276274 0.0375139 6.37777e-15)
(0.00648479 0.0269129 1.91226e-15)
(0.965716 0.156262 8.5193e-16)
(0.989913 0.123489 5.35921e-16)
(0.898396 0.220057 1.09882e-15)
(0.934217 0.236459 8.49365e-16)
(0.820862 0.232313 1.12281e-15)
(0.853194 0.264879 5.97121e-16)
(0.741799 0.226504 1.16466e-15)
(0.772738 0.261991 5.12016e-16)
(0.663891 0.215253 8.67914e-16)
(0.691672 0.250262 6.5544e-16)
(0.588364 0.201607 -3.22694e-16)
(0.613539 0.235314 5.52633e-16)
(0.5162 0.186328 -7.67556e-16)
(0.538717 0.218239 -3.84417e-16)
(0.448202 0.16997 4.40369e-16)
(0.468214 0.199718 6.15433e-17)
(0.384992 0.153074 1.29588e-15)
(0.40268 0.18039 1.05461e-15)
(0.326983 0.136168 1.13504e-15)
(0.342579 0.160888 1.08463e-15)
(0.274385 0.119738 3.05294e-16)
(0.288139 0.14179 6.23917e-16)
(0.227209 0.104205 -2.73662e-16)
(0.239383 0.123601 -3.4739e-16)
(0.185288 0.0899119 -6.18023e-17)
(0.196142 0.106734 -3.02373e-16)
(0.148293 0.0771309 2.57946e-16)
(0.158088 0.091507 2.42133e-16)
(0.115754 0.0660809 4.83629e-16)
(0.124761 0.0781632 8.6061e-16)
(0.0870576 0.0569715 8.11415e-16)
(0.0955888 0.0669061 1.50054e-15)
(0.0614259 0.0499851 1.35443e-15)
(0.0698565 0.0579584 1.78602e-15)
(0.0379346 0.0446756 2.35693e-15)
(0.0466209 0.0514619 1.77333e-15)
(0.0161298 0.0363768 1.78037e-15)
(0.0250144 0.0462387 1.9174e-15)
(0.00584306 0.033087 1.51126e-16)
(0.961917 0.202094 5.26044e-16)
(0.988743 0.158014 3.08633e-16)
(0.889497 0.281738 3.52216e-16)
(0.926483 0.297072 3.08e-16)
(0.807452 0.295524 -1.25075e-17)
(0.840172 0.329759 -2.81544e-16)
(0.724676 0.286798 -2.38526e-19)
(0.7551 0.324315 -4.7731e-16)
(0.643853 0.271348 3.41848e-16)
(0.670368 0.308305 -1.18703e-16)
(0.566279 0.252917 5.08301e-16)
(0.589645 0.288388 5.20694e-16)
(0.492968 0.232519 4.36976e-16)
(0.51322 0.26594 3.45051e-16)
(0.424696 0.210928 6.57745e-16)
(0.442148 0.241902 2.57568e-16)
(0.361997 0.188878 8.42643e-16)
(0.376967 0.217133 3.95844e-16)
(0.305161 0.167057 5.81711e-16)
(0.318003 0.192445 2.39632e-16)
(0.254254 0.146072 -1.11624e-17)
(0.265315 0.168553 1.46985e-17)
(0.209139 0.126427 -3.76959e-16)
(0.218751 0.146049 -2.89714e-16)
(0.169509 0.108516 -8.35042e-18)
(0.177982 0.125393 -3.37372e-16)
(0.13492 0.0926312 8.33721e-16)
(0.142541 0.10692 2.87405e-16)
(0.104809 0.0789989 1.86634e-15)
(0.11186 0.0908665 1.26758e-15)
(0.0785031 0.067832 2.47053e-15)
(0.08529 0.077423 2.41825e-15)
(0.0551981 0.0593101 2.20546e-15)
(0.0620767 0.066803 2.6803e-15)
(0.0339814 0.0528625 1.33081e-15)
(0.0412837 0.0591245 1.79545e-15)
(0.0143978 0.0429373 3.2083e-16)
(0.022066 0.052982 -1.287e-16)
(0.00512746 0.0378032 -1.0001e-15)
(0.956847 0.250656 9.42207e-17)
(0.98703 0.196069 -3.6349e-17)
(0.87795 0.345169 -3.08964e-16)
(0.916488 0.360599 -3.19558e-16)
(0.790348 0.35923 -7.36679e-16)
(0.823679 0.395959 -7.95195e-16)
(0.703119 0.346618 -5.97331e-16)
(0.733087 0.386768 -7.55051e-16)
(0.618934 0.326136 5.09112e-17)
(0.644182 0.365511 -2.11501e-16)
(0.539157 0.302165 3.61875e-16)
(0.560661 0.339733 3.09889e-16)
(0.464802 0.276014 1.69477e-16)
(0.482722 0.311145 7.75694e-17)
(0.396557 0.248716 -1.33898e-18)
(0.411403 0.281002 -2.79679e-16)
(0.33481 0.221212 -1.95627e-16)
(0.34705 0.250399 -4.38825e-16)
(0.279669 0.194348 -3.15765e-16)
(0.289782 0.220332 -7.13793e-16)
(0.231002 0.16883 -2.56248e-16)
(0.239429 0.191624 -4.48284e-16)
(0.188485 0.145213 -2.50317e-16)
(0.19562 0.164921 -2.83038e-16)
(0.151646 0.123904 -5.26417e-17)
(0.157836 0.140692 -2.34873e-16)
(0.119908 0.105183 7.04464e-16)
(0.125458 0.119248 -7.35234e-17)
(0.0926133 0.0892503 1.79906e-15)
(0.0978015 0.100785 8.39653e-16)
(0.0690306 0.0762913 2.62197e-15)
(0.0741463 0.0854473 1.70654e-15)
(0.0483384 0.0664559 2.28575e-15)
(0.0537083 0.0734121 2.24077e-15)
(0.0296486 0.0590506 3.79015e-16)
(0.0355724 0.0647496 1.31492e-15)
(0.0125114 0.047836 -1.41874e-15)
(0.0189298 0.0578566 -8.94969e-16)
(0.00437194 0.0411566 -1.61981e-15)
(0.950247 0.302992 -4.36145e-16)
(0.98459 0.238765 -2.56044e-16)
(0.863345 0.411188 -7.89953e-16)
(0.903794 0.427998 -6.77607e-16)
(0.76912 0.42399 -8.13229e-16)
(0.803187 0.464078 -9.61007e-16)
(0.676762 0.406292 -3.82178e-16)
(0.706206 0.449678 -4.92834e-16)
(0.588911 0.379748 3.81425e-17)
(0.61275 0.421974 2.8744e-17)
(0.506962 0.349331 3.44247e-17)
(0.526412 0.389266 1.33306e-16)
(0.43186 0.316702 -3.5766e-16)
(0.44727 0.353669 -3.25606e-16)
(0.364127 0.283187 -7.04379e-16)
(0.376234 0.316793 -7.60542e-16)
(0.303922 0.24994 -9.41491e-16)
(0.313354 0.279984 -7.93715e-16)
(0.251097 0.217941 -8.43734e-16)
(0.258463 0.244395 -9.17596e-16)
(0.205269 0.187961 -4.75012e-16)
(0.211095 0.210918 -7.36015e-16)
(0.165893 0.160563 -2.6822e-16)
(0.170622 0.180205 -6.54605e-16)
(0.132313 0.136125 -2.55841e-16)
(0.136315 0.152682 -6.87182e-16)
(0.103812 0.114873 5.41522e-17)
(0.107393 0.128592 -7.86598e-16)
(0.0796424 0.0969461 7.46125e-16)
(0.0830681 0.108052 1.48242e-16)
(0.0590243 0.0824762 1.33371e-15)
(0.0625563 0.0911348 7.05752e-16)
(0.0411334 0.071558 1.30067e-15)
(0.0450595 0.0779523 9.55108e-16)
(0.0251215 0.0633793 8.53783e-17)
(0.0297015 0.0685084 5.5157e-16)
(0.0105521 0.0512003 -1.08717e-15)
(0.0157259 0.0610343 -7.14836e-16)
(0.00360567 0.0432845 -7.44805e-16)
(0.941763 0.360148 -4.86844e-16)
(0.981167 0.287333 -2.8765e-16)
(0.845134 0.480532 -8.42314e-16)
(0.887818 0.500189 -8.19415e-16)
(0.743182 0.49019 -6.52135e-16)
(0.778004 0.534593 -8.21725e-16)
(0.64511 0.465938 -9.65967e-17)
(0.673827 0.513207 -2.38007e-16)
(0.553466 0.432088 1.20512e-16)
(0.575616 0.477599 2.43584e-16)
(0.469603 0.394184 -2.1387e-16)
(0.486688 0.436723 6.94964e-17)
(0.394284 0.3543 -7.14118e-16)
(0.406917 0.393179 -4.71802e-16)
(0.327749 0.314072 -8.46703e-16)
(0.336922 0.348959 -7.6384e-16)
(0.269822 0.27485 -7.70645e-16)
(0.276336 0.305641 -5.90774e-16)
(0.220024 0.237707 -8.13731e-16)
(0.224609 0.264484 -6.26308e-16)
(0.177672 0.203421 -9.09253e-16)
(0.180922 0.226388 -8.85762e-16)
(0.141969 0.17251 -1.0587e-15)
(0.144363 0.191941 -1.25766e-15)
(0.11207 0.14527 -1.19909e-15)
(0.113981 0.161472 -1.49222e-15)
(0.0871263 0.121834 -6.96013e-16)
(0.0888483 0.135111 -1.32198e-15)
(0.06631 0.102249 1.09201e-16)
(0.0680832 0.11286 -5.47606e-16)
(0.0488125 0.0865641 3.40536e-16)
(0.0508609 0.0946909 -1.40641e-16)
(0.0338242 0.0747998 2.32653e-16)
(0.0363885 0.0806332 -5.84808e-17)
(0.0205533 0.0660327 -2.20027e-16)
(0.0238481 0.07061 -2.08172e-16)
(0.00858732 0.0531948 -3.846e-16)
(0.0125512 0.0627201 -3.49675e-16)
(0.00285208 0.0443467 2.03991e-16)
(0.93091 0.423233 -6.05399e-16)
(0.976409 0.343195 -3.79627e-16)
(0.822591 0.553854 -7.99675e-16)
(0.867792 0.578075 -7.95617e-16)
(0.711796 0.558062 -4.2314e-16)
(0.747253 0.607861 -5.33282e-16)
(0.607563 0.525475 8.94678e-17)
(0.635193 0.577325 1.50092e-17)
(0.512247 0.48286 1.94195e-16)
(0.53228 0.532079 3.51505e-16)
(0.427012 0.43633 -1.79288e-16)
(0.441307 0.48166 1.32341e-16)
(0.35227 0.388412 -5.20272e-16)
(0.361786 0.42922 -2.98297e-16)
(0.287823 0.341047 -5.17977e-16)
(0.293831 0.377121 -4.3479e-16)
(0.233047 0.295728 -4.52476e-16)
(0.236516 0.327114 -2.81727e-16)
(0.187052 0.253547 -6.96079e-16)
(0.188819 0.28048 -4.61779e-16)
(0.148817 0.215219 -1.22084e-15)
(0.149524 0.238033 -9.48274e-16)
(0.117285 0.181147 -1.67397e-15)
(0.117421 0.200228 -1.54362e-15)
(0.0914287 0.151495 -1.60958e-15)
(0.0913543 0.167232 -1.74541e-15)
(0.0702851 0.126261 -1.17757e-15)
(0.0702657 0.139015 -1.38196e-15)
(0.0529707 0.105372 -7.86054e-16)
(0.0532087 0.115439 -8.95534e-16)
(0.0386692 0.0887735 -5.23006e-16)
(0.0393431 0.0963528 -5.90562e-16)
(0.0266076 0.0763986 -4.81564e-16)
(0.0279046 0.0816885 -4.04951e-16)
(0.0160672 0.0672237 -3.32867e-16)
(0.0181522 0.0712816 -4.16328e-16)
(0.00666949 0.0540056 2.16005e-16)
(0.00948069 0.0631322 9.69452e-17)
(0.00212874 0.0445098 6.61656e-16)
(0.917041 0.493474 -5.61201e-16)
(0.96983 0.408036 -3.29877e-16)
(0.794788 0.631746 -5.40248e-16)
(0.842703 0.66256 -5.16491e-16)
(0.674059 0.627677 -1.12439e-16)
(0.709842 0.684083 -2.22535e-16)
(0.56345 0.584624 2.66772e-16)
(0.589435 0.641782 2.12265e-16)
(0.464916 0.531584 2.91384e-16)
(0.482237 0.584887 3.30363e-16)
(0.379194 0.475237 1.66234e-17)
(0.390165 0.523463 1.70478e-16)
(0.306106 0.418576 -2.17381e-16)
(0.312113 0.461241 -7.91568e-17)
(0.244834 0.363781 -2.08539e-16)
(0.247428 0.400875 -1.18983e-16)
(0.194185 0.312394 -2.91495e-16)
(0.194488 0.344176 -1.14969e-16)
(0.152798 0.265424 -7.04894e-16)
(0.151726 0.292317 -4.00161e-16)
(0.119297 0.223431 -1.2593e-15)
(0.117508 0.245924 -9.29052e-16)
(0.0923742 0.186633 -1.6128e-15)
(0.0903441 0.205229 -1.33653e-15)
(0.0708447 0.155009 -1.52636e-15)
(0.0689002 0.170182 -1.40209e-15)
(0.0536627 0.12839 -1.11036e-15)
(0.0520261 0.140558 -1.07145e-15)
(0.0399186 0.106558 -7.07436e-16)
(0.0387444 0.116049 -5.62945e-16)
(0.0288156 0.0893456 -4.76965e-16)
(0.02823 0.0963744 -3.95358e-16)
(0.0196385 0.0765876 -3.42742e-16)
(0.0197707 0.0813604 -3.54614e-16)
(0.0117576 0.0671753 -3.55018e-18)
(0.0127203 0.0707534 -1.41949e-16)
(0.00483786 0.0538241 5.24928e-16)
(0.00656962 0.0624883 4.83205e-16)
(0.00144808 0.0439367 7.38637e-16)
(0.899281 0.572262 -2.87676e-16)
(0.960746 0.483898 -1.87225e-16)
(0.760534 0.714722 -2.12574e-16)
(0.811207 0.754539 -2.18444e-16)
(0.628901 0.698903 8.91335e-17)
(0.664426 0.763253 -1.40975e-17)
(0.512058 0.642872 2.7353e-16)
(0.535592 0.706051 1.84983e-16)
(0.411202 0.577587 2.14307e-16)
(0.42504 0.635252 2.34536e-16)
(0.326276 0.510262 7.77181e-17)
(0.333298 0.561363 1.41259e-16)
(0.256208 0.444292 1.41574e-17)
(0.258283 0.488633 7.03199e-17)
(0.199364 0.381965 -2.99676e-17)
(0.1983 0.419835 -4.82702e-18)
(0.153878 0.324726 -2.20222e-16)
(0.150916 0.356659 -1.70243e-16)
(0.117891 0.273371 -6.1688e-16)
(0.113981 0.300009 -4.26089e-16)
(0.0896784 0.228202 -1.00522e-15)
(0.0854626 0.250202 -7.72347e-16)
(0.0677192 0.189185 -1.13657e-15)
(0.0636302 0.207169 -9.94835e-16)
(0.0507121 0.156068 -9.67239e-16)
(0.0470226 0.17059 -9.52207e-16)
(0.0375687 0.128487 -5.47435e-16)
(0.0344445 0.140016 -5.17412e-16)
(0.0273884 0.106071 -2.65027e-16)
(0.0249279 0.114963 -5.93901e-17)
(0.0194217 0.0885291 -2.78725e-16)
(0.0176941 0.0950135 -8.25892e-17)
(0.0130326 0.0756003 -1.62229e-16)
(0.0121065 0.0798878 -2.77661e-16)
(0.0076929 0.0661067 3.25155e-16)
(0.00762782 0.0692477 -8.3415e-17)
(0.00311988 0.0528352 6.8809e-16)
(0.00385558 0.0609948 6.05246e-16)
(0.000818201 0.0427794 5.17798e-16)
(0.876418 0.661201 -1.21671e-16)
(0.948162 0.573331 -1.00321e-16)
(0.718304 0.803169 -2.87181e-17)
(0.77149 0.854861 -4.86671e-17)
(0.575076 0.771339 7.83874e-17)
(0.609373 0.845075 5.1851e-17)
(0.452685 0.69943 1.48407e-16)
(0.472659 0.76927 1.03346e-16)
(0.350963 0.620001 1.64512e-16)
(0.360367 0.682153 1.61133e-16)
(0.268553 0.540671 1.33669e-16)
(0.270933 0.594474 1.43382e-16)
(0.203137 0.465063 5.17091e-17)
(0.20086 0.510785 8.81554e-17)
(0.152091 0.39535 -1.39185e-16)
(0.147156 0.433679 -1.22043e-16)
(0.11281 0.332686 -3.67532e-16)
(0.106523 0.364487 -2.88792e-16)
(0.0829488 0.277503 -5.76317e-16)
(0.0762398 0.30366 -4.46279e-16)
(0.0604862 0.229747 -7.64297e-16)
(0.0539383 0.251087 -5.69972e-16)
(0.0437432 0.189069 -8.19666e-16)
(0.0377185 0.206325 -6.75775e-16)
(0.0313584 0.154954 -5.22129e-16)
(0.0260576 0.168753 -5.69028e-16)
(0.0222479 0.126833 -5.09058e-17)
(0.0177691 0.137685 -1.44917e-16)
(0.0155569 0.104174 1.13422e-16)
(0.0119364 0.112458 1.74475e-16)
(0.0106107 0.0865678 -8.31602e-17)
(0.00785788 0.0925208 2.06266e-17)
(0.0068704 0.0736606 -2.01351e-16)
(0.00499266 0.0774967 -3.77863e-16)
(0.00391909 0.0642243 1.87764e-16)
(0.00292346 0.0669707 -3.86698e-16)
(0.00153297 0.0512104 4.43074e-16)
(0.00136141 0.0588404 2.94662e-16)
(0.000243599 0.0411744 2.5995e-16)
(0.846713 0.762171 -3.10466e-17)
(0.930583 0.679617 -2.6702e-17)
(0.666154 0.897255 2.84161e-17)
(0.72107 0.96422 7.78262e-17)
(0.511185 0.84422 7.59346e-17)
(0.542754 0.928825 8.62588e-17)
(0.384713 0.7532 1.15919e-16)
(0.399669 0.830163 6.63961e-17)
(0.284255 0.657785 1.4098e-16)
(0.288119 0.724335 8.69719e-17)
(0.20653 0.565695 9.98153e-17)
(0.203547 0.621843 8.83977e-17)
(0.147612 0.480445 -7.81585e-17)
(0.140598 0.527136 2.12795e-17)
(0.103773 0.403781 -2.65113e-16)
(0.0948102 0.442191 -2.44766e-16)
(0.0716774 0.336335 -3.64743e-16)
(0.062059 0.367703 -3.09498e-16)
(0.0485612 0.278021 -4.41421e-16)
(0.0391292 0.303473 -3.50733e-16)
(0.0321879 0.228343 -4.87211e-16)
(0.023428 0.248867 -3.86923e-16)
(0.0208002 0.186591 -4.37686e-16)
(0.0129772 0.20302 -3.62599e-16)
(0.0130415 0.151973 -2.08262e-16)
(0.00626872 0.164992 -3.17496e-16)
(0.00788183 0.123713 7.12484e-17)
(0.00218178 0.133862 -5.84728e-17)
(0.00454809 0.101126 8.52677e-17)
(-0.000108831 0.108799 1.73141e-16)
(0.00246393 0.0836925 -2.61848e-16)
(-0.00120094 0.0891319 -8.26415e-17)
(0.00120208 0.070975 -5.53281e-16)
(-0.00152351 0.0743944 -5.60139e-16)
(0.000465312 0.0617152 -2.79264e-16)
(-0.00136676 0.0641073 -6.55615e-16)
(8.7828e-05 0.0491034 1.21117e-16)
(-0.000902051 0.056193 -4.41243e-17)
(-0.000274024 0.0392416 1.68268e-16)
(0.807581 0.877409 7.66082e-17)
(0.905678 0.80715 9.61348e-17)
(0.601645 0.996772 1.32517e-16)
(0.6565 1.08289 2.04303e-16)
(0.435728 0.916312 7.70511e-17)
(0.462391 1.0132 1.06927e-16)
(0.30772 0.802747 3.92779e-17)
(0.315807 0.886983 6.02213e-18)
(0.211407 0.689769 3.73441e-17)
(0.208523 0.760351 5.34785e-18)
(0.140947 0.584587 1.35665e-17)
(0.1319 0.642522 -7.71895e-18)
(0.0904884 0.490104 -1.38733e-16)
(0.078433 0.537248 -3.30595e-17)
(0.0552236 0.407234 -2.8733e-16)
(0.0421491 0.445299 -2.48179e-16)
(0.0311646 0.33585 -2.96692e-16)
(0.0182673 0.366474 -2.81698e-16)
(0.0152625 0.275209 -2.99652e-16)
(0.00322428 0.299744 -2.03782e-16)
(0.00517828 0.224317 -2.69029e-16)
(-0.00564938 0.24389 -2.10175e-16)
(-0.000831222 0.182081 -2.48667e-16)
(-0.0103039 0.197603 -1.87491e-16)
(-0.00405074 0.147435 -1.73432e-16)
(-0.0121526 0.159633 -2.36754e-16)
(-0.00540878 0.119405 4.00913e-17)
(-0.0121973 0.128839 -4.78873e-17)
(-0.00556487 0.0971705 1.20041e-17)
(-0.0111368 0.10424 1.27051e-16)
(-0.00497709 0.0801144 -3.69137e-16)
(-0.00944337 0.0850617 -1.06187e-16)
(-0.00395175 0.0677294 -6.57728e-16)
(-0.00742271 0.0707659 -5.41974e-16)
(-0.00266792 0.0587447 -4.27368e-16)
(-0.00523522 0.0608218 -5.82231e-16)
(-0.00121838 0.0466471 2.52681e-18)
(-0.00293379 0.0531953 -1.98032e-16)
(-0.000735195 0.0370807 7.28099e-17)
(0.755081 1.00954 2.17109e-16)
(0.869728 0.962005 1.97723e-16)
(0.521825 1.10085 1.79166e-16)
(0.572966 1.21021 2.81e-16)
(0.347202 0.985796 3.88718e-17)
(0.366036 1.09614 8.73958e-17)
(0.22161 0.846301 -2.59639e-17)
(0.220573 0.937465 -2.72224e-17)
(0.133086 0.714729 -3.72678e-17)
(0.122242 0.788656 -3.66508e-17)
(0.0727814 0.59671 -5.1943e-17)
(0.0570603 0.655661 -6.76355e-17)
(0.0327324 0.493865 -1.38586e-16)
(0.0154517 0.540867 -6.56753e-17)
(0.00723845 0.405824 -2.43241e-16)
(-0.00991535 0.443118 -1.20471e-16)
(-0.00809976 0.331508 -1.93271e-16)
(-0.0241529 0.361088 -1.16903e-16)
(-0.0164893 0.269421 -1.19522e-16)
(-0.0309767 0.292847 1.77459e-17)
(-0.0202284 0.218033 -1.33076e-16)
(-0.032961 0.236542 -2.22922e-18)
(-0.0209481 0.175881 -1.76807e-16)
(-0.0319154 0.190436 -7.41423e-17)
(-0.0197943 0.141642 -1.16344e-16)
(-0.0290839 0.152994 -1.37768e-16)
(-0.0175523 0.11417 3.6003e-17)
(-0.0253038 0.122886 -3.7986e-17)
(-0.0147436 0.0925294 1.30827e-17)
(-0.0211193 0.0990068 1.16273e-17)
(-0.0116944 0.0760217 -2.73895e-16)
(-0.016862 0.0805007 -6.3909e-17)
(-0.0085836 0.0640858 -4.71264e-16)
(-0.0127077 0.0667713 -3.16875e-16)
(-0.00547081 0.0554548 -3.61842e-16)
(-0.00868858 0.0572518 -3.28832e-16)
(-0.00238199 0.0439544 -1.2884e-16)
(-0.00474013 0.0499698 -2.0216e-16)
(-0.00114206 0.0347769 -5.29033e-17)
(0.683208 1.16183 2.58382e-16)
(0.816708 1.15274 2.11219e-16)
(0.423366 1.20761 1.92468e-16)
(0.463591 1.34372 2.91985e-16)
(0.244284 1.05019 2.38496e-17)
(0.251729 1.17474 6.99123e-17)
(0.126763 0.881828 -3.73907e-17)
(0.113965 0.978851 -4.93087e-17)
(0.0503532 0.731517 -6.55941e-17)
(0.0304764 0.807725 -4.85447e-17)
(0.00302329 0.601585 -8.05361e-17)
(-0.0196409 0.660733 -7.38047e-17)
(-0.0246232 0.49171 -4.92707e-17)
(-0.0471754 0.537853 -2.26528e-17)
(-0.0393192 0.399822 -1.53105e-18)
(-0.0604815 0.435898 6.76317e-17)
(-0.0455302 0.323696 8.32692e-17)
(-0.0645809 0.351971 1.26302e-16)
(-0.0463183 0.261061 1.27898e-16)
(-0.0630727 0.283225 2.42805e-16)
(-0.0438041 0.209873 5.239e-17)
(-0.0582664 0.227233 2.23291e-16)
(-0.0394221 0.168327 -3.81488e-17)
(-0.0517262 0.181876 1.05704e-16)
(-0.0341263 0.134882 -6.28524e-17)
(-0.0444653 0.145377 2.79127e-17)
(-0.0285269 0.108249 -6.03438e-17)
(-0.0371206 0.116253 -4.28001e-17)
(-0.0229891 0.0873996 -6.17175e-17)
(-0.030063 0.0933033 -6.16077e-17)
(-0.0176993 0.0715775 -1.07329e-16)
(-0.0234741 0.0756133 -1.10633e-17)
(-0.0127078 0.0601816 -1.82972e-16)
(-0.0173983 0.062546 -3.71352e-17)
(-0.00795827 0.0519645 -1.77066e-16)
(-0.0117438 0.0535125 -9.33243e-17)
(-0.00341151 0.0411195 -1.28962e-16)
(-0.00633223 0.0466166 -1.05751e-16)
(-0.0014978 0.0323983 -1.6231e-16)
(0.582888 1.33731 2.4336e-16)
(0.737905 1.39144 2.11261e-16)
(0.30252 1.31342 1.74166e-16)
(0.318799 1.47803 2.67092e-16)
(0.126115 1.10629 -3.23608e-19)
(0.118437 1.24503 4.38981e-17)
(0.0239292 0.907068 -5.97833e-17)
(-0.00333116 1.00816 -7.14583e-17)
(-0.0352913 0.73909 -5.65739e-17)
(-0.0650061 0.816063 -6.07797e-17)
(-0.0664405 0.599007 -1.8767e-17)
(-0.0966248 0.657222 -2.22524e-17)
(-0.080484 0.48388 8.83417e-17)
(-0.108243 0.528602 9.13893e-17)
(-0.083787 0.389644 1.8851e-16)
(-0.108732 0.424124 2.32777e-16)
(-0.0806905 0.312877 2.77692e-16)
(-0.102507 0.339621 3.26645e-16)
(-0.0739589 0.250568 3.32227e-16)
(-0.0927724 0.271348 4.04992e-16)
(-0.0654064 0.20022 2.71952e-16)
(-0.0814163 0.216373 4.28063e-16)
(-0.0561915 0.159742 1.66837e-16)
(-0.069677 0.172265 3.31532e-16)
(-0.0470337 0.127418 4.58877e-17)
(-0.0582899 0.137058 1.63125e-16)
(-0.0383455 0.101851 -4.42202e-17)
(-0.0476692 0.109159 7.70609e-18)