/*--------------------------------*- C++ -*----------------------------------*\
  =========                 |
  \\      /  F ield         | OpenFOAM: The Open Source CFD Toolbox
   \\    /   O peration     | Website:  https://openfoam.org
    \\  /    A nd           | Version:  13
     \\/     M anipulation  |
\*---------------------------------------------------------------------------*/
FoamFile
{
    format      ascii;
    class       volScalarField;
    location    "0.5";
    object      alphas;
}
// * * * * * * * * * * * * * * * * * * * * * * * * * * * * * * * * * * * * * //

dimensions      [];

internalField   nonuniform List<scalar> 
2268
(
2
2
2
2
2
2
2
2
2
2
2
2
2
2
2
2
2
2
2
2
2
2
1.99943
2
2
2
2
2
2
2
2
2
2
2
2
2
2
2
2
2
2
2
2
2
2
1.99943
2
2
2
2
2
2
2
2
2
2
2
2
2
2
2
2
2
2
2
2
2
2
1.99943
2
2
2
2
2
2
2
2
2
2
2
2
2
2
2
2
2
2
2
2
2
2
1.99968
1.63124
1.64949
1.65104
1.6624
1.68682
1.72047
1.75979
1.8035
1.85148
1.90263
1.95241
1.99018
2
2
2
2
2
2
2
2
2
2
2
0.118587
0.162152
0.169931
0.179941
0.199938
0.230881
0.272775
0.328265
0.403879
0.511184
0.67079
0.919685
1.27403
1.62823
1.94983
2
2
2
2
2
2
2
2
1.08128e-09
9.58192e-10
9.5619e-10
9.55073e-10
9.37639e-10
9.0567e-10
8.62285e-10
7.92816e-10
7.11593e-10
6.19874e-10
5.21505e-10
4.26238e-10
0.0154811
0.149894
0.516418
1.23448
1.92737
2
2
2
2
2
2
1.48391e-09
1.39993e-09
1.43316e-09
1.4588e-09
1.45211e-09
1.45622e-09
1.38773e-09
1.27001e-09
1.12712e-09
9.92744e-10
8.35823e-10
6.8703e-10
5.60936e-10
4.14199e-10
2.79259e-10
0.056874
0.593708
1.70535
2
2
2
2
2
1.00002
1
1
1
1.00153
1.17969
1.66622
2.00475
2.276
2.8082
2.91969
2.91176
2.88844
1.88621
1.0003
1.00016
1
1.04391
1.19347
1.00001
1.00043
1.08393
1.38071
1.9221
2.7726
2.9199
2.9474
2.81031
2.47295
2.51816
2.86438
2.91438
2.46858
1.14579
1
1
1.0279
1.24312
1.00001
1.00001
1.54498
2.64612
2.94735
2.89853
2.77247
2.50716
2.17911
1.73945
1.76353
2.41358
2.88235
2.75567
1.24673
1
1
1.02037
1.26027
1.00001
1.00001
1.2356
1.75925
1.84452
1.65511
1.63959
1.67062
1.63289
1.58036
1.60786
1.93687
2.81017
2.68737
1.23467
1
1
1.01365
1.26052
1.00004
1.00001
1.00184
1.01601
1.08998
1.32456
1.63875
1.6317
1.35697
1.07902
1.15183
1.66573
2.73188
2.40521
1.11845
1
1
1.00075
1.26027
1.00005
1.07543
1.35484
1.67872
1.68875
1.54267
1.64199
1.35749
1.0004
0.999988
1.00022
1.32888
2.65046
1.90974
1.01078
1
1
1
1.19705
1.16232
1.71089
2.03694
2.05482
1.83753
1.38482
1.32399
1.03141
1.00001
0.999999
0.999997
1.17201
2.55211
2.07049
1.06481
1
1
1
1.00901
2.02172
2.03999
2.01856
1.9101
1.14026
0.2453
0.173326
0.753172
1.00011
1
0.999998
1.0094
2.21681
2.27046
1.13887
1
1
1
1
1.92619e-09
1.86251e-09
1.85593e-09
1.99486e-09
2.13291e-09
2.17429e-09
2.12479e-09
2.02379e-09
1.87508e-09
1.665e-09
1.44459e-09
1.19502e-09
9.20759e-10
8.21627e-10
1.11131e-09
1.01563e-09
9.27925e-10
0.165119
0.933257
1.80876
1.99999
2
2
2.11273e-09
2.19476e-09
1.84652e-09
2.99582e-09
3.34419e-09
2.93711e-09
3.00831e-09
3.09426e-09
3.02578e-09
2.89399e-09
2.72167e-09
2.29523e-09
1.90078e-09
1.50029e-09
1.2931e-09
1.81448e-09
2.61937e-09
5.87785e-08
2.49602e-06
0.219444
0.852433
1.61006
1.92796
2.16209e-09
2.21366e-09
1.9709e-09
1.71148e-09
1.46599e-09
2.24727e-09
2.29494e-09
3.53228e-09
6.27047e-09
1.05078e-08
1.26964e-08
4.18739e-09
2.92123e-09
2.54107e-09
2.29974e-09
2.57804e-09
2.48193e-09
1.09699e-08
5.79463e-07
1.94582e-07
0.00246531
0.0666443
0.246826
0.242689
0.201097
0.13887
0.075612
0.0270062
0.0025565
1.97279e-09
1.29787e-08
5.66484e-08
1.09938e-07
1.46393e-07
1.46369e-07
5.20496e-09
2.91852e-09
2.73173e-09
4.42088e-09
5.61997e-09
7.25549e-09
9.39489e-09
1.9299e-07
9.75892e-06
0.000179267
7.44931e-07
2.40451
2.32159
2.19058
1.99172
1.72644
1.39668
1.02298
0.720285
0.442855
0.212894
0.0578697
0.00111511
4.29671e-08
2.14057e-08
3.06449e-09
3.80363e-09
2.78224e-08
4.48433e-08
4.30513e-08
2.30707e-07
1.62747e-05
8.70787e-05
8.43449e-07
3
3
3
3
3
3
2.98572
2.85749
2.65979
2.36283
1.91894
1.30859
0.71482
0.311186
0.0771392
0.00433771
1.38861e-06
1.41304e-06
2.2517e-06
1.01451e-06
2.30087e-06
0.00109995
0.0118683
3
3
3
3
3
3
3
3
3
3
3
3
2.91708
2.65681
2.24215
1.61622
0.913767
0.46986
0.25038
0.114744
0.140073
0.26936
0.531153
3
3
3
3
3
3
3
3
3
3
3
3
3
3
2.99997
2.9999
2.99982
2.99981
2.84332
2.24542
2.21983
2.50853
2.66478
3
3
3
3
3
3
3
3
3
3
3
3
3
3
3
3
2.99981
2.99971
2.99974
2.99985
2.99987
2.99996
3
3
3
3
3
3
3
3
3
3
3
3
3
3
3
3
3
2.99999
2.99975
2.99972
2.99982
3
3
3
3
3
3
3
3
3
3
3
3
3
3
3
3
3
3
3
3
3
3
3
3
3
3
3
3
3
3
3
3
3
3
3
3
3
3
3
3
3
3
3
3
3
3
3
3
3
3
3
3
3
3
3
3
3
3
3
3
3
3
3
3
3
3
3
3
3
3
3
3
3
3
3
3
3
3
3
3
3
3
3
3
3
3
3
3
3
3
3
3
3
3
3
3
3
3
3
3
3
3
3
3
3
3
3
3
3
3
3
3
3
3
3
3
3
3
3
3
3
3
3
3
3
3
3
3
3
3
3
3
3
3
3
3
3
3
3
3
3
3
3
3
3
3
3
3
3
3
3
3
3
3
3
3
3
3
3
3
3
3
3
3
3
3
3
3
3
3
3
3
3
3
3
3
3
3
3
3
3
3
3
3
3
3
3
3
3
3
3
3
3
3
3
3
3
3
3
3
3
3
3
3
3
3
3
3
3
3
3
3
3
3
3
3
3
3
3
3
3
3
3
3
3
3
3
3
3
3
3
3
3
3
3
3
3
3
3
3
3
3
3
3
3
3
3
3
3
3
3
3
3
3
3
3
3
3
3
3
3
3
3
3
3
3
3
3
3
3
3
3
3
3
3
3
3
3
3
3
3
3
3
3
3
3
3
3
3
3
3
3
3
3
3
3
3
3
3
3
3
3
3
3
3
3
3
3
3
3
3
3
3
3
3
3
3
3
3
3
3
3
3
3
3
3
3
3
3
3
3
3
3
3
3
3
3
3
3
3
3
3
3
3
3
3
3
3
3
3
3
3
3
3
3
3
3
3
3
3
3
3
3
3
3
3
3
3
3
3
3
3
3
3
3
3
3
3
3
3
3
3
3
3
3
3
3
3
3
3
3
3
3
3
3
3
3
3
3
3
3
3
3
3
3
3
3
3
3
3
3
3
3
3
3
3
3
3
3
3
3
3
3
3
3
3
3
3
3
3
3
3
3
3
3
3
3
3
3
3
3
3
3
3
3
3
3
3
3
3
3
3
3
3
3
3
3
3
3
3
3
3
3
3
3
3
3
3
3
3
3
3
3
3
3
3
3
3
3
3
3
3
3
3
3
3
3
3
3
3
3
3
3
3
3
3
3
3
3
3
3
3
3
3
3
3
3
3
3
3
3
3
3
3
3
3
3
3
3
3
3
3
3
3
3
3
3
3
3
3
3
3
3
3
3
3
3
3
3
3
3
3
3
3
3
3
3
3
3
3
3
3
3
3
3
3
3
3
3
3
3
3
3
3
3
3
3
3
3
3
3
3
3
3
3
3
3
3
3
3
3
3
3
3
3
3
3
3
3
3
3
3
3
3
3
3
3
3
3
3
3
3
3
3
3
3
3
3
3
3
3
3
3
3
3
3
3
3
3
3
3
3
3
3
3
3
3
3
3
3
3
3
3
3
3
3
3
3
3
3
3
3
3
3
3
3
3
3
3
3
3
3
3
3
3
3
3
3
3
3
3
3
3
3
3
3
3
3
3
3
3
3
3
3
3
3
3
3
3
3
3
3
3
3
3
3
3
3
3
3
3
3
3
3
3
3
3
3
3
3
3
3
3
3
3
3
3
3
3
3
3
3
3
3
3
3
3
3
3
3
3
3
3
3
3
3
3
3
3
3
3
3
3
3
3
3
3
3
3
1.99981
1.99911
1.99864
1.99824
1.89113
1.82045
1.63798
1.38984
0.258899
0.215125
0.0714386
0.00139579
6.64511e-07
6.66493e-07
6.94795e-07
8.36255e-07
8.34646e-07
8.90249e-07
8.17808e-07
7.97478e-07
0.0387804
0.0864964
0.17712
0.243929
0.780301
0.984279
0.956537
1.21692
2.47536
1.97166
1.64105
1.72585
3
3
2.99999
2.99999
3
3
2.99999
2.99999
3
3
3
3
3
3
3
3
3
3
3
3
3
3
3
3
3
3
3
3
3
3
3
3
3
3
3
3
3
3
3
3
3
3
3
3
3
3
3
3
3
3
3
3
3
3
3
3
3
3
3
3
3
3
3
3
3
3
3
3
3
3
3
3
3
3
3
3
3
3
3
3
3
3
3
3
3
3
3
3
3
3
3
3
3
3
3
3
3
3
3
3
3
3
3
3
3
3
3
3
3
3
3
3
3
3
3
3
3
3
3
3
3
3
3
3
3
3
3
3
3
3
3
3
3
3
3
3
1.98797
1.89894
1.57623
0.830521
0.119389
0.0401161
0.0235552
0.640466
1.00181
1
1
1
1.17219
1.30711
1.04948
1
1
1
1
1.00956
0.56647
0.113949
0.0323726
0.0235318
0.0228608
0.0803853
0.748521
1.00005
1.00004
1
1
1
1
1.00113
1.00017
1
1
1
0.00269204
0.00184077
0.00648786
0.0125071
0.0410648
0.212074
0.644113
0.985457
0.999999
1
1
1
1
1
1
1.00007
1
1
1
4.80795e-06
4.86201e-06
8.1564e-05
0.183273
0.605244
0.97819
1.00195
1.00019
1
1
1
1
1
1
1
1
1
1
1
0.00199333
0.077796
0.403489
0.924744
1.02064
1.00312
1.00118
1.00463
1
1
1
1
1
1
1
1
1
1
1
0.476949
0.923316
1.11942
1.14417
1.35695
1.56268
1.80367
2.00057
1.69542
1.12705
1
1
1
1
1
1
1
1
1
1.51182
1.5107
1.68694
2.21007
2.73855
2.94311
3
3
2.91432
2.21672
1.10344
1
1
1
1
1
1
1
1
2.61597
2.80849
2.91134
2.99998
2.99999
2.99999
2.99999
3
3
2.96046
2.08167
1.01072
1
1
1
1
1
1
1
2.99999
2.99997
2.99997
2.99998
3
3
3
3
3
3
2.96382
1.75257
1
1
1.00004
1.00022
1
1
1
3
2.99999
2.99999
3
3
3
3
3
3
3
3
2.82503
1.22971
1
1.00008
1.00051
1
1
1
3
3
3
3
3
3
3
3
3
3
3
3
2.21464
1
1.00003
1.00052
1.00008
1
1
3
3
3
3
3
3
3
3
2.99999
2.99999
3
3
2.67834
1.08593
1
1.00024
1.00029
1
1
3
3
3
3
3
3
3
3
2.99998
2.99998
3
3
2.75745
1.22739
1
1.00005
1.00028
1
1
3
3
3
3
3
3
3
3
2.99998
2.99998
2.99999
3
2.84907
1.35724
1
1
1.00004
1
1
3
3
3
3
3
3
3
3
2.99999
2.99998
2.99999
3
2.97267
1.7429
1
1
1
1.00001
1
3
3
3
3
3
3
3
3
3
2.99999
3
3
3
2.50311
1
1
1
1.00001
1
3
3
3
3
3
3
3
3
3
3
3
3
3
2.96788
1.70347
1
1
1
1
3
3
3
3
3
3
3
3
3
3
3
3
3
3
2.81916
1.29002
1
1
1
3
3
3
3
3
3
3
3
3
3
3
3
3
3
3
2.55864
1.11144
1
1
3
3
3
3
3
3
3
3
3
3
3
3
3
3
3
2.98931
1.8926
1
1.00436
3
3
3
3
3
3
3
3
3
3
3
3
3
3
3
3
2.82671
1.55147
1.02246
3
3
3
3
3
3
3
3
3
3
3
3
3
3
3
3
3
2.86578
1.03213
3
3
3
3
3
3
3
3
3
3
3
3
3
3
3
3
3
2.95413
1.03511
3
3
3
3
3
3
3
3
3
3
3
3
3
3
3
3
3
2.962
1.70247
3
3
3
3
3
3
3
3
3
3
3
3
3
3
3
3
3
3
2.60892
3
3
3
3
3
3
3
3
3
3
3
3
3
3
3
3
3
3
2.24459
3
3
3
3
3
3
3
3
3
3
3
3
3
3
3
3
3
3
1.3974
3
3
3
3
3
3
3
3
3
3
3
3
3
3
3
3
3
2.99914
1.12535
3
3
3
3
3
3
3
3
3
3
3
3
3
3
3
3
3
2.96713
1.12502
3
3
3
3
3
3
3
3
3
3
3
3
3
3
3
3
3
2.84324
1.12741
3
3
3
3
3
3
3
3
3
3
3
3
3
3
3
3
3
2.62824
1.12573
3
3
3
3
3
3
3
3
3
3
3
3
3
3
3
3
3
2.74431
1.99198
3
3
3
3
3
3
3
3
3
3
3
3
3
3
3
3
2.99999
3
2.99511
3
3
3
3
3
3
3
3
3
3
3
3
3
3
3
2.99999
2.99997
3
3
3
3
3
3
3
3
3
3
3
3
3
3
3
3
3
2.99999
2.99997
3
3
3
3
3
3
3
3
3
3
3
3
3
3
3
3
3
3
3
3
3
3
3
3
3
3
3
3
3
3
3
3
3
3
3
3
3
3
3
3
3
3
3
3
3
3
3
3
3
3
3
3
3
3
3
3
3
3
3
3
3
3
3
3
3
3
3
3
3
3
3
3
3
3
3
3
3
3
3
3
3
3
3
3
3
3
3
3
3
3
3
3
3
3
3
3
3
3
3
3
3
3
3
3
3
3
3
3
3
3
3
3
3
3
3
3
3
3
3
3
3
3
3
3
3
3
3
3
3
3
3
3
3
3
3
)
;

boundaryField
{
    leftWall
    {
        type            calculated;
        value           nonuniform List<scalar> 
50
(
2
2
2
2
1.63124
0.118587
1.08128e-09
1.48391e-09
1.92619e-09
2.11273e-09
2.16209e-09
0.242689
2.40451
3
3
3
3
3
3
3
3
3
3
3
3
3
3
3
3
3
3
3
3
3
3
3
3
3
3
3
3
3
3
3
3
3
3
3
3
3
)
;
    }
    rightWall
    {
        type            calculated;
        value           nonuniform List<scalar> 
50
(
1.19347
1.24312
1.26027
1.26052
1.26027
1.19705
1.00901
1
1
1
1
1
1
1
1
1
1
1
1
1
1
1
1
1
1
1
1
1.00436
1.02246
1.03213
1.03511
1.70247
2.60892
2.24459
1.3974
1.12535
1.12502
1.12741
1.12573
1.99198
2.99511
3
3
3
3
3
3
3
3
3
)
;
    }
    lowerWall
    {
        type            calculated;
        value           nonuniform List<scalar> 
62
(
2
2
2
2
2
2
2
2
2
2
2
2
2
2
2
2
2
2
2
2
2
2
1.99943
1.99943
1.99943
1.99943
1.99968
2
2
2
2
1.99981
1.99911
1.99864
1.99824
1.00002
1.00001
1.00001
1.00001
1.00004
1.00005
1.16232
2.02172
1.00002
1
1
1
1.00153
1.17969
1.66622
2.00475
2.276
2.8082
2.91969
2.91176
2.88844
1.88621
1.0003
1.00016
1
1.04391
1.19347
)
;
    }
    atmosphere
    {
        type            calculated;
        value           nonuniform List<scalar> 
46
(
3
3
3
3
3
3
3
3
3
3
3
3
3
3
3
3
3
3
3
3
3
3
3
3
3
3
3
3
3
3
3
3
3
3
3
3
3
3
3
3
3
3
3
3
3
3
)
;
    }
    defaultFaces
    {
        type            empty;
    }
}


// ************************************************************************* //
