/*--------------------------------*- C++ -*----------------------------------*\
  =========                 |
  \\      /  F ield         | OpenFOAM: The Open Source CFD Toolbox
   \\    /   O peration     | Website:  https://openfoam.org
    \\  /    A nd           | Version:  13
     \\/     M anipulation  |
\*---------------------------------------------------------------------------*/
FoamFile
{
    format      ascii;
    class       volScalarField;
    location    "0.5";
    object      alpha.mercury;
}
// * * * * * * * * * * * * * * * * * * * * * * * * * * * * * * * * * * * * * //

dimensions      [];

internalField   nonuniform List<scalar> 
2268
(
1
1
1
1
1
1
1
1
1
1
1
1
1
1
1
1
1
1
1
1
1
1
0.999433
1
1
1
1
1
1
1
1
1
1
1
1
1
1
1
1
1
1
1
1
1
1
0.999426
1
1
1
1
1
1
1
1
1
1
1
1
1
1
1
1
1
1
1
1
1
1
0.999426
1
1
1
1
1
1
1
1
1
1
1
1
1
1
1
1
1
1
1
1
1
1
0.999678
0.815622
0.824746
0.82552
0.831202
0.843408
0.860237
0.879894
0.901748
0.925738
0.951315
0.976207
0.995088
1
1
1
1
1
1
1
1
1
1
0.999998
0.0592933
0.0810761
0.0849657
0.0899707
0.099969
0.11544
0.136387
0.164133
0.20194
0.255592
0.335395
0.459843
0.637015
0.814116
0.974917
1
1
1
1
1
1
1
1
-1.08827e-83
-5.48233e-21
-4.7601e-21
-7.02022e-19
-5.72228e-19
-2.34218e-15
-2.2062e-15
-1.48184e-15
-7.91257e-16
-3.41844e-16
-1.18722e-16
-3.10587e-17
0.00774054
0.0749468
0.258209
0.617241
0.963683
1
1
1
1
1
1
-2.77425e-82
-7.97973e-21
-7.27304e-21
-1.52507e-19
-2.72914e-19
-2.68777e-15
-4.00931e-15
-3.37547e-15
-2.09657e-15
-1.06281e-15
-4.617e-16
-1.76151e-16
-1.42711e-21
6.98576e-20
-2.07711e-19
0.028437
0.296854
0.852673
1
0.999998
1
1
1
1.23806e-09
1.53136e-09
1.58048e-09
2.40734e-09
5.67399e-07
5.35985e-07
5.385e-07
0.00586241
0.0519488
0.0576318
0.0552857
0.0557564
0.0212825
0.000109522
5.19031e-11
5.24699e-10
6.54255e-10
2.19481e-10
1.27162e-11
1.29862e-09
1.855e-09
1.36374e-08
2.12511e-09
2.15147e-07
9.62174e-10
0.0189847
0.0525184
0.189663
0.473247
0.459655
0.13269
0.0724154
0.00546307
7.24234e-11
4.43594e-10
6.31724e-10
2.61378e-10
1.66106e-11
1.47521e-09
2.48354e-08
5.23672e-07
2.40818e-10
9.62629e-10
2.40704e-10
0.115447
0.42368
0.61587
0.614166
0.614077
0.502902
0.098025
0.0272856
7.40341e-20
3.82028e-10
5.16115e-10
2.69813e-10
3.81341e-11
1.24616e-09
2.85865e-10
5.59404e-10
0.000499755
0.00950063
0.114015
0.548472
0.617679
0.631722
0.580395
0.607858
0.613881
0.167254
0.021272
5.31042e-11
1.20196e-10
2.55657e-10
2.62618e-10
1.03667e-10
7.90904e-10
2.81774e-10
2.85852e-10
0.0160925
0.105095
0.337596
0.638786
0.631722
0.357048
0.0790779
0.151837
0.439422
0.188529
0.0145011
-1.63938e-20
4.06461e-11
1.06085e-09
1.01709e-09
1.63039e-10
2.8175e-10
0.000379095
0.120179
0.475708
0.729794
0.754301
0.748236
0.357741
0.000405081
2.41414e-07
0.000230438
0.0468914
0.111958
0.0156269
5.31042e-11
1.18496e-09
5.62853e-09
2.79524e-09
1.55538e-10
0.106841
0.427961
0.74175
0.796161
0.792108
0.688985
0.646578
0.137665
1.88443e-07
2.63249e-07
2.15056e-06
0.00167862
0.0436341
0.013432
1.0882e-19
7.20948e-09
8.86978e-09
3.15e-09
2.49616e-10
0.899903
0.921829
0.826452
0.783686
0.518414
0.119765
0.0781431
0.04222
7.12217e-05
2.48721e-07
1.24425e-07
0.000660488
0.0140631
0.00838282
1.92137e-05
8.03722e-09
9.38554e-09
3.32637e-09
2.37118e-10
-5.05113e-81
-6.08737e-21
-6.50311e-21
-1.62988e-19
-2.86595e-19
-3.18462e-19
-2.83605e-19
-2.19533e-19
-1.53036e-19
-9.78028e-20
-8.92407e-20
-3.41365e-19
-1.70631e-18
5.5859e-11
2.96133e-10
3.07093e-10
3.1658e-10
0.0825596
0.466627
0.904374
0.999993
1
1
7.15615e-94
-4.47083e-21
-4.80117e-21
-9.0173e-20
-1.55993e-19
-1.72733e-19
-1.53355e-19
-1.18725e-19
-8.36115e-20
-5.49351e-20
-3.42771e-20
-3.52811e-19
-3.25091e-18
2.24868e-12
2.14169e-11
3.65727e-10
8.53175e-10
2.91047e-08
7.52217e-10
0.109718
0.426216
0.804735
0.960577
4.53037e-76
-1.42708e-21
-1.53615e-21
-1.31968e-21
-1.0536e-21
-8.19335e-22
-6.32719e-22
-4.89254e-22
-3.80192e-22
-3.01901e-22
-2.63307e-22
-1.94596e-19
-2.12023e-18
7.23103e-16
2.2868e-14
4.79032e-11
1.04359e-10
4.80639e-09
8.81074e-10
6.3631e-10
0.00123265
0.0333221
0.121301
1.57433e-75
-1.76312e-22
-1.92949e-22
-1.65589e-22
-1.30675e-22
-9.90166e-23
-7.33554e-23
-5.36772e-23
-3.91189e-23
-2.94314e-23
-2.66085e-23
-4.17148e-20
-4.86079e-19
-1.20694e-18
1.5952e-18
2.10652e-13
4.76222e-13
3.38087e-10
-3.01912e-12
9.43365e-08
4.80413e-06
7.70157e-14
9.63066e-27
1.36029e-59
1.58305e-75
2.0976e-72
7.00866e-71
1.60487e-69
1.31467e-67
1.48209e-59
-1.27288e-69
6.22336e-70
-3.23414e-70
3.25429e-71
-4.69169e-72
7.59768e-60
-1.32457e-20
-4.33021e-19
3.54248e-15
3.10482e-14
2.67766e-11
-4.64488e-13
1.05073e-07
1.30944e-07
5.90304e-08
4.70871e-09
8.95808e-59
6.58142e-58
3.09295e-56
6.15908e-55
8.55354e-54
8.45084e-53
4.42132e-52
5.1263e-52
3.42655e-52
1.08544e-52
2.0864e-53
3.26534e-54
1.09783e-54
-6.152e-69
-6.11362e-21
1.59579e-16
6.08778e-15
1.31323e-12
5.07551e-24
5.59374e-09
7.80773e-09
5.52271e-09
7.56637e-10
4.25778e-58
5.87115e-57
1.83878e-55
3.43358e-54
4.83326e-53
4.33112e-52
2.01017e-51
2.72292e-51
1.89533e-51
6.16026e-52
1.42294e-52
3.38223e-53
3.74406e-52
4.22108e-50
1.96704e-55
-2.41455e-42
2.63044e-17
2.21597e-15
1.30966e-15
1.719e-18
1.52723e-18
4.22411e-14
1.89145e-11
1.73338e-57
4.51476e-56
1.0934e-54
1.87743e-53
2.72721e-52
2.47715e-51
1.20237e-50
1.40518e-50
1.02328e-50
3.48373e-51
7.86465e-52
1.64668e-52
7.05701e-51
6.10054e-49
4.93247e-48
6.10121e-48
1.77841e-49
9.43464e-50
1.48519e-18
1.51805e-18
1.53025e-18
2.18878e-12
2.41824e-12
6.48929e-57
2.40747e-55
5.745e-54
9.45905e-53
1.34773e-51
1.13408e-50
6.05091e-50
7.18246e-50
5.1923e-50
1.67282e-50
5.85775e-51
1.64124e-51
8.91773e-50
3.31086e-47
8.46065e-47
3.65363e-46
8.41335e-47
7.12011e-44
5.83978e-44
3.68076e-19
1.75655e-16
3.93351e-16
3.01203e-18
2.18311e-56
9.68314e-55
2.5231e-53
4.18999e-52
5.74965e-51
4.90483e-50
2.79698e-49
3.4847e-49
2.43144e-49
6.77739e-50
4.44795e-50
1.30388e-50
7.40069e-49
2.74257e-46
8.56298e-46
6.30977e-45
6.13692e-45
6.52527e-43
3.74146e-41
2.6644e-41
6.88914e-44
-3.66521e-37
6.60653e-20
7.84432e-56
3.87055e-54
9.41594e-53
1.49652e-51
1.96048e-50
1.73414e-49
1.06853e-48
1.56435e-48
9.95858e-49
2.24888e-49
4.19034e-49
1.05237e-49
8.54192e-48
9.40228e-46
1.12888e-44
5.26065e-44
4.28542e-44
1.04805e-41
3.49644e-40
2.16902e-39
3.75418e-38
9.00314e-37
2.39675e-38
2.32496e-55
1.23512e-53
3.04058e-52
5.44471e-51
6.93316e-50
5.79312e-49
3.91343e-48
8.4276e-48
3.92627e-48
5.63895e-49
4.2173e-48
6.79286e-49
2.01911e-45
3.3178e-44
1.22936e-43
2.71523e-42
1.78662e-42
6.43992e-41
2.38678e-39
9.45781e-39
2.24697e-37
4.21469e-36
1.13619e-34
6.38641e-55
3.56526e-53
8.59184e-52
1.44105e-50
1.76003e-49
1.66067e-48
1.23205e-47
3.87083e-47
1.02838e-47
5.27003e-48
4.01917e-47
3.51399e-46
2.92313e-44
1.00836e-42
4.37036e-42
3.12219e-40
2.11647e-40
5.3476e-39
1.53736e-37
5.93305e-37
5.79523e-36
7.86182e-35
5.76427e-34
1.58309e-54
9.02751e-53
2.1243e-51
3.40461e-50
3.86291e-49
3.74756e-48
3.12524e-47
1.34234e-46
1.93196e-46
1.60771e-45
1.66129e-44
1.50406e-43
1.29905e-42
9.21051e-42
5.55876e-41
2.43147e-39
1.41185e-38
2.34985e-37
1.63877e-36
1.42871e-35
9.53932e-35
7.92493e-34
3.22778e-33
3.28771e-54
1.86067e-52
4.20614e-51
6.37472e-50
6.91044e-49
7.29169e-48
7.59601e-47
7.61496e-46
8.90683e-45
9.76993e-44
9.59092e-43
9.2823e-42
7.06542e-41
4.57867e-40
3.0412e-39
5.59523e-38
3.50398e-37
3.09356e-36
1.67383e-35
1.08966e-34
5.37912e-34
2.90917e-33
7.73123e-33
9.3255e-54
4.9933e-52
1.28602e-50
2.55709e-49
4.31458e-48
6.79014e-47
9.48376e-46
1.26589e-44
1.29602e-43
1.49983e-42
1.42353e-41
1.39001e-40
1.00189e-39
6.26831e-39
4.17186e-38
4.15445e-37
2.54306e-36
1.5327e-35
7.05022e-35
3.90711e-34
1.93132e-33
5.0164e-33
3.33159e-32
4.4184e-53
2.36939e-51
6.90213e-50
1.48166e-48
2.603e-47
4.01315e-46
5.35721e-45
7.12509e-44
8.04732e-43
9.1027e-42
8.64334e-41
8.13639e-40
5.95108e-39
3.45068e-38
2.50648e-37
1.48226e-36
9.11715e-36
4.44826e-35
2.49438e-34
1.26228e-33
7.99599e-33
1.62237e-31
3.42416e-30
1.08603e-52
6.24672e-51
1.98399e-49
4.55608e-48
8.54382e-47
1.3409e-45
1.82609e-44
2.42678e-43
2.9379e-42
3.16758e-41
3.03164e-40
2.65234e-39
1.94757e-38
1.15258e-37
7.91916e-37
4.02332e-36
2.76269e-35
1.50059e-34
1.70414e-33
3.61287e-32
7.24362e-31
1.41084e-29
2.36058e-28
2.09862e-52
1.35935e-50
4.5389e-49
1.10825e-47
2.14223e-46
3.43487e-45
4.89898e-44
6.58691e-43
7.72511e-42
8.00309e-41
7.43679e-40
6.03776e-39
4.42941e-38
2.88397e-37
2.2318e-36
1.51602e-35
1.6364e-34
3.99508e-33
8.63977e-32
1.63123e-30
2.34556e-29
3.8891e-28
4.72779e-27
3.35388e-52
2.4011e-50
8.90198e-49
2.27347e-47
4.411e-46
7.4264e-45
1.09918e-43
1.43362e-42
1.63031e-41
1.63526e-40
1.47377e-39
1.22559e-38
1.03575e-37
1.00821e-36
1.27645e-35
2.35491e-34
4.69785e-33
1.02622e-31
1.69741e-30
2.41188e-29
2.94591e-28
3.85246e-27
3.97186e-26
4.34205e-52
3.33111e-50
1.32452e-48
3.5733e-47
7.65019e-46
1.3772e-44
2.05512e-43
2.63954e-42
2.97202e-41
3.0457e-40
3.15521e-39
3.74456e-38
5.68861e-37
1.04548e-35
2.08791e-34
4.08279e-33
6.89106e-32
1.01158e-30
1.35824e-29
1.54838e-28
1.75161e-27
1.98766e-26
1.75786e-25
4.67897e-52
3.73737e-50
1.53552e-48
4.42549e-47
1.04335e-45
1.93198e-44
3.03816e-43
4.17441e-42
5.31113e-41
7.03015e-40
1.19371e-38
2.35676e-37
4.71289e-36
9.31168e-35
1.75001e-33
2.86833e-32
4.03053e-31
4.92874e-30
5.72117e-29
5.28865e-28
5.82376e-27
4.72003e-26
4.04096e-25
4.16738e-52
3.48996e-50
1.47496e-48
4.82287e-47
1.12984e-45
2.16546e-44
3.58251e-43
5.62774e-42
9.34267e-41
1.86347e-39
4.20795e-38
9.10912e-37
1.8241e-35
3.42325e-34
5.61299e-33
7.97237e-32
9.95801e-31
1.14833e-29
1.25781e-28
1.1335e-27
8.91413e-27
8.63075e-26
6.24824e-25
2.81968e-52
2.5094e-50
1.13498e-48
3.92725e-47
9.70215e-46
1.98245e-44
3.64532e-43
6.8767e-42
1.51177e-40
3.62023e-39
8.35879e-38
1.80304e-36
3.55736e-35
6.12736e-34
9.17765e-33
1.2174e-31
1.457e-30
1.65386e-29
1.69504e-28
1.46844e-27
1.29482e-26
8.48415e-26
7.39929e-25
1.39497e-52
1.36942e-50
6.92347e-49
2.38383e-47
6.32512e-46
1.42488e-44
3.06785e-43
7.1168e-42
1.79154e-40
4.45101e-39
1.04307e-37
2.2689e-36
4.32683e-35
7.1096e-34
1.03418e-32
1.33234e-31
1.57133e-30
1.77535e-29
1.80712e-28
1.48394e-27
1.09555e-26
9.46943e-26
6.33342e-25
4.85982e-53
5.28538e-51
2.90119e-49
1.08102e-47
3.13118e-46
7.88709e-45
1.94634e-43
5.07803e-42
1.36012e-40
3.51544e-39
8.42754e-38
1.78429e-36
3.27806e-35
5.36036e-34
7.72928e-33
9.79649e-32
1.11961e-30
1.18817e-29
1.13828e-28
9.95077e-28
8.04621e-27
5.81934e-26
4.68328e-25
1.25835e-53
1.48029e-51
8.80639e-50
3.55029e-48
1.11509e-46
3.06103e-45
8.30081e-44
2.38982e-42
6.93553e-41
1.85202e-39
4.36836e-38
9.12576e-37
1.68799e-35
2.74789e-34
3.92191e-33
4.96747e-32
5.84197e-31
6.49318e-30
6.23459e-29
4.8558e-28
3.72779e-27
3.35984e-26
2.60018e-25
2.14587e-54
2.79174e-52
1.82482e-50
8.05757e-49
2.76907e-47
8.27269e-46
2.39126e-44
7.23087e-43
2.20351e-41
6.05966e-40
1.4592e-38
3.08633e-37
5.7554e-36
9.41075e-35
1.34464e-33
1.70325e-32
1.99899e-31
2.21001e-30
2.21053e-29
2.00074e-28
1.60794e-27
1.25066e-26
1.09704e-25
2.19666e-55
3.18221e-53
2.28288e-51
1.0962e-49
4.10047e-48
1.34536e-46
4.26028e-45
1.35456e-43
4.19489e-42
1.19296e-40
2.97904e-39
6.49037e-38
1.25813e-36
2.19187e-35
3.43769e-34
4.8518e-33
6.16633e-32
7.02257e-31
7.03557e-30
6.11378e-29
5.21234e-28
4.84507e-27
3.55083e-26
1.38205e-56
2.24895e-54
1.79524e-52
9.52651e-51
3.90551e-49
1.39563e-47
4.7976e-46
1.62436e-44
5.18443e-43
1.52407e-41
4.14908e-40
1.01354e-38
2.12551e-37
3.83854e-36
6.09778e-35
8.68842e-34
1.1546e-32
1.43015e-31
1.552e-30
1.41086e-29
1.13803e-28
1.09224e-27
1.17764e-26
5.73018e-58
1.05182e-55
9.41009e-54
5.52276e-52
2.47187e-50
9.55926e-49
3.5654e-47
1.31885e-45
4.57961e-44
1.43006e-42
4.06766e-41
1.06752e-39
2.48516e-38
4.95053e-37
8.57916e-36
1.32376e-34
1.81643e-33
2.22661e-32
2.48713e-31
2.59851e-30
2.68205e-29
2.99993e-28
3.21484e-27
1.46976e-59
3.17232e-57
3.13714e-55
2.1782e-53
1.0897e-51
4.59008e-50
1.80425e-48
6.994e-47
2.60851e-45
8.8988e-44
2.71129e-42
7.51433e-41
1.91985e-39
4.33186e-38
8.30148e-37
1.38062e-35
2.06454e-34
2.80125e-33
3.42881e-32
3.77527e-31
4.09966e-30
4.80137e-29
5.15434e-28
2.46199e-61
6.13703e-59
7.14405e-57
5.13809e-55
2.89139e-53
1.33574e-51
5.86864e-50
2.50982e-48
1.08284e-46
4.39013e-45
1.57134e-43
4.8467e-42
1.28313e-40
2.89575e-39
5.6236e-38
1.00117e-36
1.70706e-35
2.65921e-34
3.64517e-33
4.29126e-32
4.95496e-31
6.71014e-30
7.98852e-29
2.49275e-63
7.14556e-61
1.02801e-58
9.16154e-57
5.96117e-55
3.16402e-53
1.51068e-51
7.03326e-50
3.25115e-48
1.42768e-46
5.63984e-45
1.93592e-43
5.69113e-42
1.42835e-40
3.07078e-39
5.86333e-38
1.08266e-36
1.93994e-35
3.00168e-34
4.09792e-33
5.87927e-32
8.05015e-31
9.10861e-30
1.39296e-65
4.98636e-63
8.06484e-61
8.39204e-59
6.53352e-57
4.16296e-55
2.35229e-53
1.2675e-51
6.65216e-50
3.31947e-48
1.50946e-46
6.0312e-45
2.0741e-43
6.10409e-42
1.54091e-40
3.3525e-39
6.38986e-38
1.11565e-36
1.81104e-35
2.55744e-34
3.56379e-33
3.922e-32
8.23242e-31
5.57553e-68
2.32333e-65
4.37992e-63
5.41859e-61
5.00044e-59
3.72392e-57
2.41032e-55
1.43501e-53
8.14979e-52
4.44404e-50
2.27498e-48
1.05468e-46
4.294e-45
1.50944e-43
4.56186e-42
1.19053e-40
2.70783e-39
5.39731e-38
9.34957e-37
1.48045e-35
2.45237e-34
3.92777e-33
5.47468e-32
1.05763e-70
4.98546e-68
1.10888e-65
1.64777e-63
1.84739e-61
1.68141e-59
1.30924e-57
9.11038e-56
5.86824e-54
3.57723e-52
2.0593e-50
1.08929e-48
5.11207e-47
2.07626e-45
7.25777e-44
2.22308e-42
6.1388e-41
1.53617e-39
3.37694e-38
6.03901e-37
9.26726e-36
1.91809e-34
3.89193e-33
1.31971e-73
6.4198e-71
1.59625e-68
2.90407e-66
4.13721e-64
4.82886e-62
4.74942e-60
4.05073e-58
3.10498e-56
2.22583e-54
1.5193e-52
9.6543e-51
5.48955e-49
2.72877e-47
1.18571e-45
4.47052e-44
1.41241e-42
3.96298e-41
1.13977e-39
2.95151e-38
6.02955e-37
1.14164e-35
1.99316e-34
7.48472e-77
2.58714e-74
6.57499e-72
1.41261e-69
2.60254e-67
4.0492e-65
5.29121e-63
5.86681e-61
5.65037e-59
4.90074e-57
3.98655e-55
3.04421e-53
2.11805e-51
1.35941e-49
8.06579e-48
4.1611e-46
1.9453e-44
8.84512e-43
3.28509e-41
9.19319e-40
2.19815e-38
4.64898e-37
9.09217e-36
1.46175e-80
3.15559e-78
7.42099e-76
1.84307e-73
4.50976e-71
9.96662e-69
1.88988e-66
3.01955e-64
4.09811e-62
4.88878e-60
5.37997e-58
5.61034e-56
5.44945e-54
4.75714e-52
3.66493e-50
2.45698e-48
1.38852e-46
7.07865e-45
3.6102e-43
1.54423e-41
4.95532e-40
1.32806e-38
2.75204e-37
9.60768e-86
1.33777e-83
2.66843e-81
7.79729e-79
2.77935e-76
9.83939e-74
3.06403e-71
7.99609e-69
1.73572e-66
3.19867e-64
5.27748e-62
8.39579e-60
1.32524e-57
1.96064e-55
2.521e-53
2.72759e-51
2.5278e-49
2.11966e-47
1.65309e-45
1.07185e-43
5.38694e-42
2.61852e-40
1.10264e-38
2.86788e-95
2.11793e-93
4.51594e-91
2.19838e-88
1.7334e-85
1.59196e-82
1.35483e-79
9.65943e-77
5.63415e-74
2.73553e-71
1.15515e-68
4.49668e-66
1.68674e-63
6.13363e-61
2.10527e-58
6.53578e-56
1.76678e-53
4.14817e-51
8.67333e-49
1.57822e-46
2.28907e-44
2.44631e-42
1.83133e-40
0.999813
0.999113
0.998644
0.998862
0.940373
0.905029
0.813798
0.693071
0.124423
0.102414
0.0312564
-3.41461e-17
1.77277e-09
2.32148e-09
1.03604e-08
1.02229e-09
5.60213e-08
7.30484e-08
7.48362e-08
1.28332e-09
6.12187e-11
1.9631e-10
3.13553e-10
8.27867e-10
4.80165e-11
6.36569e-11
1.37148e-09
2.50595e-09
2.02524e-12
5.3704e-13
7.13593e-19
9.295e-19
1.2572e-19
1.76083e-19
3.58354e-18
4.78761e-18
2.0381e-19
2.33693e-19
4.13923e-19
7.35449e-19
4.24861e-37
2.37751e-38
7.3508e-37
7.17104e-37
1.92475e-34
2.74035e-34
3.21145e-34
3.05772e-34
1.3206e-33
1.94658e-33
2.24199e-33
2.31775e-33
5.01957e-33
6.57701e-33
8.47228e-33
1.06049e-32
1.33115e-32
2.49134e-32
1.27761e-31
1.36234e-30
2.19907e-31
3.44441e-30
4.53986e-29
4.26707e-28
4.6307e-29
4.85284e-28
3.99168e-27
2.54837e-26
2.66693e-27
1.6719e-26
9.81903e-26
4.26281e-25
4.5575e-26
2.19475e-25
8.58439e-25
3.08163e-24
3.21947e-25
1.18676e-24
4.07668e-24
1.25923e-23
1.20027e-24
3.74074e-24
1.19275e-23
3.49657e-23
2.47398e-24
7.42338e-24
2.52018e-23
6.62947e-23
3.83951e-24
1.19533e-23
3.77061e-23
1.01957e-22
4.18356e-24
1.35183e-23
4.73807e-23
1.24198e-22
3.927e-24
1.52792e-23
4.5747e-23
1.27033e-22
2.96612e-24
1.12612e-23
3.86021e-23
1.05456e-22
1.89739e-24
7.04166e-24
2.3201e-23
6.85898e-23
7.37959e-25
3.06488e-24
1.14007e-23
3.16149e-23
2.74429e-25
1.49028e-24
5.04889e-24
1.65657e-23
9.38979e-26
4.13352e-25
1.66008e-24
5.80818e-24
2.81558e-26
1.20843e-25
4.71679e-25
1.58116e-24
4.69634e-27
2.22335e-26
9.78944e-26
3.9744e-25
8.12957e-28
3.94862e-27
1.69861e-26
7.24521e-26
9.42442e-29
4.93469e-28
2.52598e-27
1.28388e-26
9.78162e-30
5.73004e-29
3.17289e-28
1.65885e-27
7.49519e-31
5.19195e-30
3.36815e-29
1.99857e-28
5.33342e-32
4.14732e-31
3.08638e-30
2.01307e-29
3.34089e-33
2.80129e-32
2.29279e-31
1.81508e-30
1.71521e-34
1.14175e-33
1.59386e-32
1.40394e-31
5.14767e-36
6.94561e-35
8.29589e-34
9.73917e-33
3.11489e-37
4.25201e-36
5.6737e-35
7.15796e-34
9.18058e-39
1.89866e-37
3.39077e-36
5.33432e-35
0.993881
0.942424
0.768923
0.400298
0.0552161
0.0157554
1.53639e-10
0.00190188
0.00175735
4.65443e-07
1.22886e-07
1.02148e-08
1.55415e-05
0.000966876
0.000134867
4.79433e-09
5.8387e-09
2.15378e-09
2.37825e-10
0.504666
0.25949
0.0300345
1.73757e-12
2.38871e-14
3.02443e-15
-2.03296e-11
1.53722e-10
5.24191e-05
3.92757e-05
8.99305e-09
9.84544e-09
7.56442e-09
6.99252e-21
3.02409e-05
1.32137e-06
9.34115e-10
1.11214e-09
2.78462e-10
1.60743e-17
8.30538e-15
9.46467e-19
2.06296e-08
3.02374e-15
2.96199e-07
2.20334e-06
9.52017e-07
1.95721e-08
2.10176e-08
5.79051e-08
3.9275e-08
8.62223e-09
1.05081e-08
1.69167e-07
3.89935e-07
1.03601e-09
6.9473e-10
3.06359e-10
5.38522e-08
3.55513e-07
5.49557e-07
2.36306e-07
1.54171e-12
6.66271e-09
1.85655e-06
3.17664e-06
1.80027e-06
2.20559e-08
3.48687e-08
4.14973e-08
1.21959e-08
8.70431e-09
9.61748e-09
5.22017e-08
3.42856e-09
6.45442e-10
3.03573e-10
6.95568e-08
9.3626e-07
9.79245e-07
5.12076e-07
2.66542e-20
4.53043e-14
7.97954e-17
2.09275e-06
1.85692e-06
6.31391e-08
2.40814e-08
5.38725e-08
3.72092e-08
8.63649e-09
2.51352e-08
7.11902e-09
1.14433e-09
5.26607e-10
3.00089e-10
8.69755e-10
9.13465e-08
3.32117e-07
1.4525e-07
1.6001e-10
3.73738e-11
1.16511e-11
2.04541e-13
2.10212e-13
1.47976e-08
3.39682e-08
5.58895e-08
5.58961e-08
1.20623e-08
4.6319e-09
2.92426e-10
4.43543e-10
4.35035e-10
2.91211e-10
1.4962e-09
1.21588e-21
1.03609e-19
2.46373e-23
4.30129e-11
7.40888e-11
4.9905e-11
5.50244e-12
3.36212e-13
9.65212e-11
1.07891e-08
5.12877e-08
3.63277e-08
8.9865e-09
9.59918e-10
2.87981e-10
3.40912e-10
3.93564e-10
2.71534e-10
7.13595e-19
4.73053e-18
1.9459e-17
2.73611e-17
4.38455e-16
4.76408e-13
3.55296e-12
5.2918e-12
2.53704e-12
8.92923e-13
4.72199e-10
1.31535e-08
1.97845e-08
4.36856e-09
6.44556e-10
2.57173e-10
2.68809e-10
3.24267e-10
2.49742e-10
6.43612e-18
1.57738e-17
3.66219e-17
3.97393e-17
1.97355e-17
5.10017e-18
3.15962e-14
8.14001e-13
8.56534e-13
8.95146e-13
8.77014e-12
6.63489e-10
8.61924e-09
1.48096e-09
3.17965e-10
1.94505e-10
2.30208e-10
2.63692e-10
2.17597e-10
1.88888e-18
2.66856e-18
8.46837e-18
1.46703e-17
1.3236e-17
5.50895e-18
1.07373e-15
1.03562e-13
2.04391e-13
2.68336e-12
2.54643e-11
8.01965e-11
5.45374e-10
6.24147e-10
1.6804e-10
1.41344e-10
1.8081e-10
2.25979e-10
1.91469e-10
1.74749e-35
2.5747e-35
3.08755e-35
2.11181e-27
1.23563e-25
1.64246e-24
1.14002e-17
1.82498e-14
5.25751e-14
3.65228e-12
3.7173e-11
5.1316e-11
2.45859e-11
1.27088e-10
1.01096e-10
1.13203e-10
1.46529e-10
1.91489e-10
1.60657e-10
1.67919e-33
1.84772e-32
1.62219e-31
7.01205e-31
1.01914e-29
8.46043e-28
4.11451e-19
1.94433e-15
2.30991e-14
5.26751e-12
3.33594e-11
3.96013e-11
9.19299e-12
1.65432e-11
6.85078e-11
9.41957e-11
1.2827e-10
1.64133e-10
1.36144e-10
5.51585e-33
3.5642e-32
6.07305e-31
2.78619e-30
1.82195e-28
8.06633e-27
5.30709e-21
1.24227e-16
4.92693e-14
4.3045e-12
2.82398e-11
3.0018e-11
6.15618e-12
7.82085e-12
4.45826e-11
7.77835e-11
1.19208e-10
1.36746e-10
1.13191e-10
1.04656e-31
1.01774e-29
2.95074e-28
1.08893e-27
6.57996e-27
1.15724e-25
3.3246e-23
1.30919e-16
5.99058e-14
2.08004e-12
1.99471e-11
2.25925e-11
4.93519e-12
5.24982e-12
2.95274e-11
6.11982e-11
9.87316e-11
1.12618e-10
9.56711e-11
5.17713e-29
2.20098e-27
3.10585e-26
9.87739e-26
3.35966e-25
9.46932e-25
3.15733e-24
3.91542e-17
1.8681e-14
7.58983e-13
1.05393e-11
1.68639e-11
3.83934e-12
3.7905e-12
2.2585e-11
4.06513e-11
6.51193e-11
7.54628e-11
6.95996e-11
5.70704e-27
1.04705e-25
9.3026e-25
3.21936e-24
8.61153e-24
1.44317e-23
2.74568e-23
2.50779e-18
6.25324e-16
2.01433e-13
3.74551e-12
9.12802e-12
2.72481e-12
1.68176e-12
1.38184e-11
2.97565e-11
3.95451e-11
4.78595e-11
4.50961e-11
1.79107e-25
1.60557e-24
1.07659e-23
4.08057e-23
9.21019e-23
1.46139e-22
1.73682e-22
8.71299e-20
9.7499e-17
1.36167e-14
8.24393e-13
3.85155e-12
1.86197e-12
4.42533e-13
5.47945e-12
1.79389e-11
2.35879e-11
3.18826e-11
3.54071e-11
2.03144e-24
1.29262e-23
6.60028e-23
2.32491e-22
4.7216e-22
6.99109e-22
9.1179e-22
1.36942e-21
1.12951e-17
4.34482e-15
2.35847e-13
2.37826e-12
1.24776e-12
1.2399e-13
9.69275e-13
7.13731e-12
1.45933e-11
1.64683e-11
2.02711e-11
1.05215e-23
6.16234e-23
2.66493e-22
6.05466e-22
1.21786e-21
2.20557e-21
3.24157e-21
3.14134e-21
9.61613e-19
8.07827e-16
5.76757e-14
1.56357e-12
1.0782e-12
6.18793e-14
4.742e-14
1.28797e-12
6.57674e-12
1.16762e-11
1.37635e-11
3.63361e-23
1.98306e-22
5.83775e-22
1.44027e-21
3.01876e-21
5.15722e-21
7.11519e-21
8.72247e-21
8.36465e-20
8.58964e-17
1.54716e-14
8.57802e-13
8.41889e-13
8.23436e-14
5.06224e-15
6.06195e-14
1.4837e-12
7.35556e-12
1.14137e-11
8.5846e-23
3.767e-22
1.19132e-21
2.9531e-21
6.12815e-21
1.02998e-20
1.42745e-20
1.66092e-20
2.11854e-20
3.22503e-17
8.33908e-15
4.2221e-13
5.79394e-13
9.96188e-14
5.08101e-15
1.2213e-15
7.33943e-14
1.68989e-12
8.29136e-12
1.52988e-22
6.54209e-22
2.04023e-21
5.23219e-21
1.07494e-20
1.8227e-20
2.57125e-20
3.0777e-20
3.3458e-20
7.20383e-18
3.13149e-15
1.85642e-13
3.48871e-13
8.71297e-14
6.60154e-15
8.89715e-16
5.1944e-16
1.82125e-13
5.4165e-12
2.35458e-22
9.78495e-22
3.11661e-21
7.84041e-21
1.72817e-20
2.9757e-20
4.36037e-20
5.40364e-20
5.98421e-20
1.24855e-18
9.37582e-16
7.60559e-14
1.80679e-13
5.90005e-14
6.39903e-15
1.37274e-15
2.46848e-16
9.6108e-14
3.42722e-12
2.87777e-22
1.2726e-21
4.23191e-21
1.11672e-20
2.50617e-20
4.49628e-20
6.88766e-20
9.01074e-20
1.04079e-19
1.60047e-19
1.54418e-16
2.03346e-14
7.93099e-14
3.23136e-14
5.13049e-15
1.25841e-15
2.01113e-16
8.21863e-14
1.91997e-12
2.95658e-22
1.38751e-21
4.83324e-21
1.36713e-20
3.10053e-20
6.14787e-20
9.94098e-20
1.39438e-19
1.71727e-19
2.04899e-19
7.2189e-18
9.03991e-15
3.28489e-14
1.5456e-14
3.51618e-15
9.02005e-16
1.71539e-16
8.23266e-16
8.29495e-13
2.50847e-22
1.23927e-21
4.20896e-21
1.35515e-20
3.34033e-20
6.97723e-20
1.28083e-19
1.94697e-19
2.59575e-19
3.15211e-19
5.90647e-19
8.25189e-16
1.08886e-14
6.61812e-15
2.48651e-15
4.72821e-16
1.48659e-16
2.91031e-16
2.04144e-13
1.67679e-22
8.97288e-22
3.28884e-21
1.14821e-20
3.09846e-20
7.21814e-20
1.40939e-19
2.42071e-19
3.5018e-19
4.53949e-19
6.29532e-19
8.65343e-18
4.89454e-16
2.48101e-15
8.0681e-16
2.09549e-16
1.45541e-16
3.53293e-16
2.17166e-14
1.1106e-22
5.51536e-22
2.22833e-21
8.27509e-21
2.45352e-20
6.32048e-20
1.38604e-19
2.60426e-19
4.19108e-19
5.93171e-19
7.74763e-19
1.21966e-18
5.39455e-18
2.91172e-16
5.46541e-17
8.57701e-17
1.78075e-16
3.97594e-16
5.2081e-16
4.45047e-23
2.93973e-22
1.25963e-21
5.13856e-21
1.68097e-20
4.80476e-20
1.17131e-19
2.44921e-19
4.45141e-19
7.07119e-19
9.75202e-19
1.32193e-18
3.05198e-18
3.49549e-17
1.61494e-17
6.95359e-17
2.15261e-16
3.98769e-16
2.98868e-17
1.96719e-23
1.20393e-22
6.32721e-22
2.62592e-21
9.68134e-21
3.07905e-20
8.35472e-20
1.94538e-19
3.93902e-19
7.10888e-19
1.17852e-18
1.67016e-18
2.55481e-18
9.31413e-18
1.13202e-17
6.92855e-17
2.05931e-16
3.65555e-16
1.98129e-17
6.26705e-24
4.23937e-23
2.4768e-22
1.14658e-21
4.73078e-21
1.67282e-20
5.01254e-20
1.28085e-19
2.8544e-19
5.74004e-19
1.15198e-18
2.05655e-18
2.86239e-18
5.10043e-18
1.29416e-17
6.28857e-17
1.63058e-16
2.27433e-16
1.67467e-17
1.57297e-24
1.20581e-23
8.12691e-23
4.29333e-22
1.96784e-21
7.7063e-21
2.56553e-20
7.30238e-20
1.80296e-19
3.9911e-19
8.60701e-19
1.97343e-18
3.31027e-18
5.41765e-18
1.35269e-17
4.79096e-17
6.219e-17
4.46297e-17
1.3534e-17
3.52677e-25
3.26728e-24
2.2382e-23
1.32096e-22
6.8602e-22
3.02971e-21
1.133e-20
3.58004e-20
9.65594e-20
2.29528e-19
5.28655e-19
1.42082e-18
2.88408e-18
5.35186e-18
1.221e-17
3.16506e-17
1.43674e-17
3.97004e-18
7.94553e-18
6.51234e-26
6.187e-25
4.92572e-24
3.43424e-23
2.02521e-22
1.01048e-21
4.22032e-21
1.47573e-20
4.4004e-20
1.17379e-19
3.00709e-19
7.37976e-19
1.83325e-18
3.67542e-18
7.60075e-18
1.82996e-17
7.39247e-18
2.44516e-18
3.81801e-18
8.91358e-27
1.00578e-25
9.835e-25
7.76352e-24
5.18047e-23
2.88331e-22
1.33798e-21
5.19893e-21
1.72119e-20
5.099e-20
1.4325e-19
3.58705e-19
7.86714e-19
1.69072e-18
2.79302e-18
3.46028e-18
3.71765e-18
1.36849e-18
9.90193e-19
1.15755e-27
1.43373e-26
1.61494e-25
1.46893e-24
1.10554e-23
6.89312e-23
3.56575e-22
1.54725e-21
5.76769e-21
1.90964e-20
5.63242e-20
1.43344e-19
3.14665e-19
5.79021e-19
5.22345e-19
4.94093e-19
1.14058e-18
8.40673e-19
4.90738e-19
1.34264e-28
1.90252e-27
2.40287e-26
2.41206e-25
2.02094e-24
1.40474e-23
8.10602e-23
3.9241e-22
1.64169e-21
6.08131e-21
1.89104e-20
4.90095e-20
1.06151e-19
1.7909e-19
1.90515e-19
2.60917e-19
5.10575e-19
5.4133e-19
2.32992e-19
1.33818e-29
2.02657e-28
2.94649e-27
3.50447e-26
3.23596e-25
2.49106e-24
1.59846e-23
8.6105e-23
4.02264e-22
1.66623e-21
5.64031e-21
1.57088e-20
3.4978e-20
6.41528e-20
7.59281e-20
1.29941e-19
2.46678e-19
2.70164e-19
1.1229e-19
1.21777e-30
2.06572e-29
3.02094e-28
3.79198e-27
4.10597e-26
3.72231e-25
2.6374e-24
1.57227e-23
8.13417e-23
3.74777e-22
1.4097e-21
4.40744e-21
1.0984e-20
2.18607e-20
3.59919e-20
6.3698e-20
1.13458e-19
1.37907e-19
3.57984e-20
1.01579e-31
2.02705e-30
3.30377e-29
4.44001e-28
5.0774e-27
4.94891e-26
3.85441e-25
2.51443e-24
1.42059e-23
7.15202e-23
2.98341e-22
1.08064e-21
3.17952e-21
7.10694e-21
1.2615e-20
2.51434e-20
4.9111e-20
3.30096e-20
1.30572e-20
8.50878e-33
1.89161e-31
3.38777e-30
4.94518e-29
5.92377e-28
5.85913e-27
4.76754e-26
3.33162e-25
2.02832e-24
1.1048e-23
4.89895e-23
1.90725e-22
5.31029e-22
1.4249e-21
3.30118e-21
6.55581e-21
8.89913e-21
1.13534e-20
4.31713e-21
7.17757e-34
1.53717e-32
2.44178e-31
3.9599e-30
5.48405e-29
6.50014e-28
5.33724e-27
4.16554e-26
2.75152e-25
1.61002e-24
7.73322e-24
2.57107e-23
1.13575e-22
3.43832e-22
8.97622e-22
1.89373e-21
2.63607e-21
3.02758e-21
1.22675e-21
)
;

boundaryField
{
    leftWall
    {
        type            alphaContactAngle;
        contactAngleProperties 
        {
            air             
            {
                theta0          90;
            }
            water           
            {
                theta0          90;
            }
            oil             
            {
                theta0          90;
            }
        }
        value           nonuniform List<scalar> 
50
(
1
1
1
1
0.815622
0.0592933
-1.08827e-83
-2.77425e-82
-5.05113e-81
7.15615e-94
4.53037e-76
1.57433e-75
1.36029e-59
8.95808e-59
4.25778e-58
1.73338e-57
6.48929e-57
2.18311e-56
7.84432e-56
2.32496e-55
6.38641e-55
1.58309e-54
3.28771e-54
9.3255e-54
4.4184e-53
1.08603e-52
2.09862e-52
3.35388e-52
4.34205e-52
4.67897e-52
4.16738e-52
2.81968e-52
1.39497e-52
4.85982e-53
1.25835e-53
2.14587e-54
2.19666e-55
1.38205e-56
5.73018e-58
1.46976e-59
2.46199e-61
2.49275e-63
1.39296e-65
5.57553e-68
1.05763e-70
1.31971e-73
7.48472e-77
1.46175e-80
9.60768e-86
2.86788e-95
)
;
    }
    rightWall
    {
        type            alphaContactAngle;
        contactAngleProperties 
        {
            air             
            {
                theta0          90;
            }
            water           
            {
                theta0          90;
            }
            oil             
            {
                theta0          90;
            }
        }
        value           nonuniform List<scalar> 
50
(
1.27162e-11
1.66106e-11
3.81341e-11
1.03667e-10
1.63039e-10
1.55538e-10
2.49616e-10
2.37118e-10
2.37825e-10
2.78462e-10
3.06359e-10
3.03573e-10
3.00089e-10
2.91211e-10
2.71534e-10
2.49742e-10
2.17597e-10
1.91469e-10
1.60657e-10
1.36144e-10
1.13191e-10
9.56711e-11
6.95996e-11
4.50961e-11
3.54071e-11
2.02711e-11
1.37635e-11
1.14137e-11
8.29136e-12
5.4165e-12
3.42722e-12
1.91997e-12
8.29495e-13
2.04144e-13
2.17166e-14
5.2081e-16
2.98868e-17
1.98129e-17
1.67467e-17
1.3534e-17
7.94553e-18
3.81801e-18
9.90193e-19
4.90738e-19
2.32992e-19
1.1229e-19
3.57984e-20
1.30572e-20
4.31713e-21
1.22675e-21
)
;
    }
    lowerWall
    {
        type            alphaContactAngle;
        contactAngleProperties 
        {
            air             
            {
                theta0          90;
            }
            water           
            {
                theta0          90;
            }
            oil             
            {
                theta0          90;
            }
        }
        value           nonuniform List<scalar> 
62
(
1
1
1
1
1
1
1
1
1
1
1
1
1
1
1
1
1
1
1
1
1
1
0.999433
0.999433
0.999426
0.999426
0.999678
0.999998
1
1
1
0.999813
0.999113
0.998644
0.998862
1.23806e-09
1.29862e-09
1.47521e-09
1.24616e-09
7.90904e-10
2.8175e-10
0.106841
0.899903
1.23806e-09
1.53136e-09
1.58048e-09
2.40734e-09
5.67399e-07
5.35985e-07
5.385e-07
0.00586241
0.0519488
0.0576318
0.0552857
0.0557564
0.0212825
0.000109522
5.19031e-11
5.24699e-10
6.54255e-10
2.19481e-10
1.27162e-11
)
;
    }
    atmosphere
    {
        type            inletOutlet;
        inletValue      uniform 0;
        value           nonuniform List<scalar> 
46
(
0
0
0
0
0
0
0
0
0
0
0
0
0
0
0
0
0
0
0
0
0
0
0
0
1.89866e-37
3.39077e-36
5.33432e-35
7.17757e-34
1.53717e-32
2.44178e-31
3.9599e-30
5.48405e-29
6.50014e-28
5.33724e-27
4.16554e-26
2.75152e-25
1.61002e-24
7.73322e-24
2.57107e-23
1.13575e-22
3.43832e-22
8.97622e-22
1.89373e-21
2.63607e-21
3.02758e-21
1.22675e-21
)
;
    }
    defaultFaces
    {
        type            empty;
    }
}


// ************************************************************************* //
