/*--------------------------------*- C++ -*----------------------------------*\
  =========                 |
  \\      /  F ield         | OpenFOAM: The Open Source CFD Toolbox
   \\    /   O peration     | Website:  https://openfoam.org
    \\  /    A nd           | Version:  13
     \\/     M anipulation  |
\*---------------------------------------------------------------------------*/
FoamFile
{
    format      ascii;
    class       volScalarField;
    location    "0.5";
    object      alpha.oil;
}
// * * * * * * * * * * * * * * * * * * * * * * * * * * * * * * * * * * * * * //

dimensions      [];

internalField   nonuniform List<scalar> 
2268
(
2.88003e-44
2.68321e-42
1.56442e-40
1.22841e-39
5.78994e-39
3.80667e-38
1.79007e-37
2.2548e-36
-2.19484e-32
-1.10261e-28
-1.5834e-27
-1.29563e-26
9.10682e-19
2.13302e-17
1.42298e-16
1.36846e-15
2.50502e-14
1.54566e-13
7.44804e-13
3.40356e-12
3.54647e-12
4.77112e-07
0.00056662
4.6939e-46
2.25522e-40
8.93949e-39
1.28596e-37
7.28258e-37
4.37773e-36
6.36954e-36
6.1981e-35
-1.96522e-31
-2.16501e-27
-3.18518e-26
-2.58112e-25
5.54731e-20
6.22437e-17
6.1438e-16
2.12804e-15
1.12596e-14
8.94872e-13
8.76239e-12
4.02011e-11
6.58302e-11
2.92586e-09
0.00057419
2.04588e-39
1.3143e-38
3.40128e-37
4.16591e-36
2.49986e-35
1.46764e-34
2.07527e-34
1.0126e-33
-5.66767e-31
-2.23561e-26
-3.41773e-25
-2.76022e-24
3.394e-20
3.05645e-16
3.6368e-15
1.32235e-14
2.93924e-13
1.31177e-12
6.06784e-12
2.46616e-11
3.9457e-11
4.14031e-13
0.000574358
3.12369e-37
4.92509e-37
6.59489e-36
7.36007e-35
4.63776e-34
2.57676e-33
5.39726e-33
1.84009e-32
1.58654e-31
-1.58682e-25
-2.56699e-24
-2.07238e-23
5.41087e-21
2.89857e-16
7.27526e-15
4.31765e-14
2.30646e-13
4.26065e-13
1.35925e-12
2.97145e-12
4.5585e-13
4.14379e-13
0.00032235
1.11353e-34
1.20845e-34
1.95083e-33
2.22441e-32
1.47525e-31
9.8276e-31
4.4096e-30
1.63018e-29
1.72535e-28
-8.63466e-25
-1.51695e-23
-1.22723e-22
8.33783e-20
3.25177e-17
5.52885e-15
6.8534e-14
9.88313e-14
2.73254e-10
2.28347e-09
3.3014e-09
2.16728e-09
7.90169e-10
2.00184e-06
2.86616e-33
3.75505e-33
6.19277e-32
5.99857e-31
3.87754e-30
3.43807e-29
2.0538e-28
7.77633e-28
8.08531e-27
-3.82324e-24
-7.58701e-23
-6.18718e-22
7.87475e-18
2.57794e-16
2.91662e-15
1.15688e-13
8.73634e-14
9.64799e-10
5.07497e-09
4.8951e-09
3.54133e-09
8.16835e-10
2.52878e-08
1.32378e-32
2.46054e-32
3.66464e-31
2.75401e-30
1.58017e-29
1.7603e-28
1.12801e-27
4.14192e-27
4.03864e-26
-1.42166e-23
-3.37116e-22
-2.82493e-21
1.16671e-16
5.55333e-15
2.67967e-14
9.52283e-13
8.87905e-14
1.40473e-09
4.32791e-09
2.69783e-09
2.63036e-09
7.19832e-09
5.6574e-09
6.64296e-32
1.68234e-31
2.52017e-30
1.43283e-29
6.41668e-29
8.63737e-28
5.63727e-27
1.96251e-26
1.58355e-25
-4.36814e-23
-1.33528e-21
-1.20609e-20
6.85867e-16
2.12526e-14
1.55372e-13
1.33024e-12
2.53937e-12
8.4082e-10
8.36577e-10
2.28881e-06
2.16339e-07
1.58794e-08
4.80846e-09
0.999989
1
1
1
0.999236
0.910154
0.666889
0.494694
0.336025
0.0670855
0.0125122
0.0162421
0.0451388
0.556839
0.999849
0.99992
1
0.978046
0.903264
0.999993
0.999784
0.958037
0.809646
0.538948
0.113698
0.0305453
3.48149e-05
1.48156e-05
0.0269023
0.0110948
0.00146258
0.00660399
0.262981
0.927104
1
1
0.98605
0.878442
0.999993
0.999993
0.727511
0.176941
0.0263247
0.0507343
0.0559936
0.0344806
0.102429
0.32317
0.311195
0.0417604
0.00981145
0.108522
0.876635
1
1
0.989815
0.869863
0.999993
0.999993
0.882201
0.620085
0.571312
0.613909
0.405871
0.355715
0.367554
0.419566
0.392141
0.224625
0.0112858
0.145681
0.882666
1
1
0.993174
0.869739
0.99998
0.999993
0.999081
0.983887
0.879786
0.649472
0.361176
0.368256
0.642872
0.920861
0.848161
0.447426
0.039794
0.290145
0.940773
1
1
0.999625
0.869863
0.999976
0.962096
0.762493
0.421728
0.129963
0.0282276
0.144737
0.64194
0.999588
0.999989
0.999761
0.812113
0.11879
0.537316
0.994611
1
1
1
0.901475
0.865385
0.430115
0.0955201
0.00563698
0.00560623
0.00562987
0.0292806
0.754973
0.999994
0.999999
0.999993
0.91315
0.202129
0.458038
0.967593
1
1
1
0.995493
0.0359552
0.00573535
0.00579395
0.00647994
0.00563486
0.00560124
0.015794
0.667576
0.999909
0.999999
0.999998
0.994967
0.384565
0.360579
0.930555
1
1
1
1
2.98193e-31
8.31e-31
1.47311e-29
1.36987e-28
9.05183e-28
5.77847e-27
2.96965e-26
1.06828e-25
8.0787e-25
-1.05554e-22
-4.5703e-21
-4.61238e-20
1.2226e-14
8.909e-14
6.99454e-13
1.42583e-11
2.66672e-11
-1.53304e-26
2.74214e-06
1.3659e-05
6.94925e-06
2.08052e-08
9.71058e-09
1.17496e-30
4.18604e-30
9.11851e-29
1.45772e-27
1.29547e-26
7.76133e-26
1.63823e-25
9.61258e-25
4.51517e-24
-2.66112e-22
-2.12025e-20
-2.49807e-19
6.42061e-13
3.92438e-13
5.67619e-13
9.52292e-12
2.65352e-11
-1.99129e-15
2.49407e-06
8.09664e-06
1.4566e-09
0.00058773
0.00680276
2.08058e-29
5.42309e-29
1.2649e-27
1.41707e-26
1.2248e-25
1.87001e-24
4.34386e-24
1.29917e-23
5.53593e-23
-2.85426e-22
-7.41183e-20
-1.07655e-18
1.82941e-11
7.92884e-12
2.36074e-12
2.25125e-12
1.00684e-11
-1.01367e-13
5.76674e-07
1.92355e-07
3.01064e-09
1.45662e-09
0.00422531
1.2778e-27
3.68781e-27
7.2585e-26
7.29343e-25
4.8111e-24
2.27636e-23
5.29973e-23
1.88403e-22
6.63155e-22
6.61715e-22
-1.82751e-19
-3.83028e-18
3.44784e-10
1.92372e-10
6.53303e-11
3.0522e-12
-8.20569e-13
-2.01623e-12
4.91816e-09
3.5403e-10
1.47775e-07
0.000179264
7.26272e-07
1.54624e-26
5.0283e-26
1.20112e-24
1.48576e-23
1.27385e-22
8.43053e-22
3.13558e-21
1.42804e-20
5.49729e-20
1.1466e-19
-1.80105e-19
-1.14603e-17
2.38134e-09
1.78453e-09
6.11506e-10
1.30578e-09
2.98207e-16
-5.06051e-13
4.82324e-27
4.21131e-12
1.60093e-05
8.69605e-05
7.73888e-07
4.28286e-26
1.44619e-25
3.60325e-24
4.78586e-23
4.58009e-22
3.83012e-21
2.61772e-20
1.39181e-19
5.72829e-19
1.69475e-18
9.23176e-19
-2.86721e-17
2.69636e-09
2.13617e-08
1.54468e-08
1.36634e-09
1.38861e-06
1.41304e-06
2.2517e-06
1.02006e-06
2.28526e-06
0.00109994
0.0118683
9.59889e-26
5.6832e-25
9.48621e-24
1.15023e-22
1.04312e-21
8.27057e-21
5.7637e-20
3.36292e-19
1.4414e-18
4.69719e-18
6.27625e-18
-5.64422e-17
5.39266e-10
5.31438e-10
7.1296e-06
1.5171e-05
1.18764e-05
1.92164e-06
0.000119069
0.000152043
2.93262e-05
7.57333e-08
0.0822517
1.89743e-25
2.1256e-24
2.6852e-23
2.90392e-22
2.56404e-21
2.01043e-20
1.28637e-19
7.00535e-19
3.00454e-18
1.03732e-17
2.01182e-17
-6.38048e-17
7.47366e-09
1.2052e-06
1.60101e-05
5.11083e-05
8.85844e-05
9.55002e-05
4.61098e-05
1.86377e-05
1.07785e-05
2.99995e-08
0.0913161
3.47782e-25
5.72138e-24
7.00862e-23
6.97675e-22
6.01648e-21
4.39754e-20
2.84275e-19
1.53803e-18
6.71397e-18
2.32933e-17
6.35897e-17
-1.98538e-17
5.49365e-09
9.76279e-09
8.61352e-09
7.63336e-09
9.36256e-05
0.000146606
0.000127723
7.55836e-05
6.26546e-05
1.88098e-05
-9.21153e-10
5.9124e-25
1.18716e-23
1.55284e-22
1.53004e-21
1.31724e-20
9.61017e-20
6.03094e-19
3.19185e-18
1.42537e-17
5.31128e-17
1.54415e-16
5.92453e-18
1.48762e-08
4.50275e-08
4.21311e-08
3.67703e-08
4.16821e-06
0.000126484
0.000138467
8.76048e-05
5.0081e-07
7.38e-08
8.83064e-08
9.72947e-25
2.18761e-23
2.92689e-22
2.93837e-21
2.48964e-20
1.83931e-19
1.12265e-18
5.93013e-18
2.6751e-17
1.06819e-16
3.38454e-16
1.51729e-17
1.74169e-08
8.72647e-08
1.20046e-07
9.83395e-08
3.23989e-08
2.1152e-09
3.20896e-07
2.93418e-10
8.74832e-08
1.00238e-07
9.33222e-08
1.42605e-24
3.42557e-23
4.80385e-22
5.10729e-21
4.36672e-20
3.09351e-19
1.89472e-18
1.00192e-17
4.62642e-17
1.79577e-16
6.46081e-16
1.37749e-16
1.2853e-08
6.21316e-08
1.06736e-07
8.33741e-08
3.39109e-08
1.86892e-09
2.93356e-10
5.97493e-11
-4.83096e-12
1.1535e-11
2.73725e-10
1.92944e-24
4.81741e-23
6.90473e-22
7.26835e-21
6.22466e-20
4.46166e-19
2.72629e-18
1.44371e-17
6.59503e-17
2.92866e-16
1.05783e-15
1.60522e-15
-8.5761e-16
6.52426e-09
1.39897e-08
1.34525e-08
7.79441e-09
4.63536e-09
2.55798e-09
1.15781e-09
2.29327e-10
3.01048e-11
1.1183e-11
2.36864e-24
6.03292e-23
8.74278e-22
9.21256e-21
7.81354e-20
5.5208e-19
3.32287e-18
1.75603e-17
8.36652e-17
3.51132e-16
1.29689e-15
4.04287e-15
2.85687e-15
-7.14608e-14
-2.28058e-12
-7.80856e-12
-1.52744e-11
-2.19018e-11
-2.53514e-11
-2.47716e-11
-2.02683e-11
-7.77777e-12
3.08744e-11
2.61765e-24
6.70916e-23
9.75806e-22
1.02103e-20
8.55827e-20
5.8847e-19
3.48668e-18
1.8303e-17
8.47031e-17
3.43491e-16
1.26429e-15
4.09543e-15
9.60776e-15
-2.00217e-14
-1.07188e-12
-3.31682e-12
-5.79796e-12
-7.37483e-12
-7.33681e-12
-5.80641e-12
-2.50819e-12
6.17127e-12
3.8516e-11
2.57474e-24
6.58487e-23
9.50759e-22
9.82817e-21
8.05445e-20
5.41211e-19
3.15789e-18
1.63663e-17
7.29265e-17
2.90567e-16
1.06633e-15
3.37212e-15
9.25582e-15
7.42185e-15
-3.31156e-13
-8.78824e-13
-1.22385e-12
-1.12199e-12
-4.28329e-13
5.34269e-13
2.42053e-12
7.18961e-12
2.82889e-11
2.23868e-24
5.65055e-23
8.06695e-22
8.18259e-21
6.51559e-20
4.25497e-19
2.44523e-18
1.24042e-17
5.32787e-17
2.11762e-16
7.40167e-16
2.35313e-15
6.74832e-15
1.34843e-14
-4.47339e-14
-9.17943e-14
-1.52782e-14
1.74086e-13
6.29224e-13
1.25456e-12
2.10632e-12
5.48523e-12
1.33735e-11
1.70635e-24
4.19524e-23
5.88682e-22
5.81415e-21
4.48341e-20
2.84645e-19
1.60118e-18
7.66544e-18
3.25899e-17
1.28323e-16
4.34894e-16
1.34929e-15
3.83832e-15
8.99341e-15
1.46952e-14
3.46254e-14
1.02884e-13
2.26694e-13
4.30357e-13
8.24639e-13
1.7094e-12
3.22127e-12
6.89578e-12
1.0803e-24
2.69526e-23
3.64156e-22
3.47321e-21
2.59689e-20
1.61011e-19
8.74776e-19
4.03356e-18
1.66442e-17
6.01978e-17
2.05862e-16
6.28134e-16
1.65984e-15
4.19121e-15
1.14539e-14
2.6015e-14
5.76562e-14
1.2647e-13
2.8689e-13
6.47105e-13
1.28853e-12
2.7492e-12
4.80574e-12
5.32429e-25
1.35596e-23
1.84607e-22
1.73443e-21
1.25801e-20
7.56886e-20
3.9074e-19
1.76472e-18
6.96465e-18
2.51368e-17
8.05073e-17
2.40026e-16
6.70469e-16
1.78684e-15
4.78418e-15
1.26577e-14
3.30874e-14
8.58314e-14
2.1932e-13
5.21906e-13
1.13002e-12
2.06255e-12
3.7791e-12
1.96334e-25
5.07214e-24
6.96699e-23
6.6468e-22
4.86997e-21
2.92426e-20
1.44217e-19
6.30447e-19
2.42549e-18
8.47832e-18
2.7274e-17
8.37871e-17
2.56737e-16
7.92409e-16
2.56991e-15
7.99019e-15
2.3616e-14
6.67101e-14
1.7656e-13
4.03996e-13
8.10243e-13
1.62748e-12
2.56023e-12
5.20846e-26
1.34696e-24
1.88988e-23
1.83416e-22
1.39444e-21
8.24483e-21
4.15122e-20
1.85961e-19
7.43787e-19
2.73041e-18
9.85882e-18
3.59653e-17
1.34937e-16
5.02602e-16
1.81105e-15
6.03831e-15
1.84638e-14
5.21348e-14
1.31302e-13
2.83472e-13
5.7846e-13
9.19684e-13
1.63351e-12
8.83656e-27
2.46952e-25
3.54041e-24
3.69773e-23
2.83578e-22
1.74213e-21
9.42489e-21
4.71317e-20
2.1956e-19
9.69671e-19
4.25909e-18
1.93873e-17
8.16453e-17
3.27496e-16
1.23035e-15
4.0953e-15
1.24306e-14
3.36719e-14
8.25909e-14
1.73319e-13
3.18161e-13
6.43779e-13
1.00021e-12
9.59662e-28
2.81786e-26
4.347e-25
4.91782e-24
4.19845e-23
3.06724e-22
2.02977e-21
1.23487e-20
7.09384e-20
3.86579e-19
2.03109e-18
9.94857e-18
4.4536e-17
1.88099e-16
7.01462e-16
2.35063e-15
7.0775e-15
1.89835e-14
4.54973e-14
9.47301e-14
1.91036e-13
3.08357e-13
5.97513e-13
7.13345e-29
2.49818e-27
4.70095e-26
6.18006e-25
6.49792e-24
5.94196e-23
4.86425e-22
3.56726e-21
2.35803e-20
1.53004e-19
8.62201e-19
4.41411e-18
2.11166e-17
8.89297e-17
3.36642e-16
1.13546e-15
3.42087e-15
9.13266e-15
2.24155e-14
4.73886e-14
9.03304e-14
1.80784e-13
3.22541e-13
5.01289e-30
2.22358e-28
5.15768e-27
8.50665e-26
1.12138e-24
1.24905e-23
1.19914e-22
1.00139e-21
7.43836e-21
5.02735e-20
3.02847e-19
1.68731e-18
8.12232e-18
3.52476e-17
1.36136e-16
4.68882e-16
1.44283e-15
3.94403e-15
9.82625e-15
2.13898e-14
4.45856e-14
8.2447e-14
1.67867e-13
3.89861e-31
2.06449e-29
5.83692e-28
1.16096e-26
1.81331e-25
2.32803e-24
2.50652e-23
2.3036e-22
1.85236e-21
1.37272e-20
9.05157e-20
5.10303e-19
2.5515e-18
1.13626e-17
4.53735e-17
1.62878e-16
5.18508e-16
1.46223e-15
3.83118e-15
8.61777e-15
1.75846e-14
3.73115e-14
7.77275e-14
2.43612e-32
1.60075e-30
5.5104e-29
1.30527e-27
2.3696e-26
3.45749e-25
4.13068e-24
4.10018e-23
3.70019e-22
2.91843e-21
2.06205e-20
1.23326e-19
6.55617e-19
3.09147e-18
1.29481e-17
4.81811e-17
1.58958e-16
4.70463e-16
1.29355e-15
3.13743e-15
7.12039e-15
1.41506e-14
3.22193e-14
1.1992e-33
9.49482e-32
3.89482e-30
1.08718e-28
2.28448e-27
3.79857e-26
5.12675e-25
5.69633e-24
5.36947e-23
4.4925e-22
3.47082e-21
2.28152e-20
1.30798e-19
6.69396e-19
3.04802e-18
1.22652e-17
4.35172e-17
1.38228e-16
3.94604e-16
9.996e-16
2.28275e-15
5.26103e-15
1.16486e-14
4.66606e-35
4.39651e-33
2.10316e-31
6.76695e-30
1.62494e-28
3.04351e-27
4.57147e-26
5.70766e-25
6.10009e-24
5.67703e-23
4.57803e-22
3.26371e-21
2.13558e-20
1.16453e-19
5.61636e-19
2.39907e-18
9.31708e-18
3.19872e-17
1.01802e-16
2.84477e-16
7.02053e-16
1.55764e-15
3.95595e-15
1.41216e-36
1.5829e-34
8.86161e-33
3.29372e-31
9.02751e-30
1.90791e-28
3.21928e-27
4.46416e-26
5.26905e-25
5.4139e-24
4.76975e-23
3.6124e-22
2.52608e-21
1.6056e-20
8.55368e-20
4.07051e-19
1.74465e-18
6.72788e-18
2.28343e-17
6.85541e-17
1.8337e-16
4.55689e-16
1.21592e-15
2.6234e-38
3.58609e-36
2.30305e-34
1.05375e-32
3.34911e-31
8.17953e-30
1.58565e-28
2.52474e-27
3.42067e-26
4.02903e-25
4.07091e-24
3.50235e-23
2.62763e-22
1.75978e-21
1.09017e-20
5.71563e-20
2.70161e-19
1.1285e-18
4.1765e-18
1.41155e-17
4.19147e-17
1.13127e-16
3.08598e-16
3.56892e-40
5.98997e-38
4.75765e-36
2.28778e-34
8.4994e-33
2.41635e-31
5.60909e-30
1.02883e-28
1.60991e-27
2.18166e-26
2.53739e-25
2.50896e-24
2.12909e-23
1.58595e-22
1.0474e-21
6.17164e-21
3.27565e-20
1.62247e-19
6.63248e-19
2.4211e-18
7.75109e-18
2.4314e-17
7.21527e-17
3.23467e-42
6.11424e-40
5.94455e-38
3.62441e-36
1.5757e-34
5.28215e-33
1.41863e-31
3.12749e-30
5.75355e-29
8.9516e-28
1.19287e-26
1.37535e-25
1.37753e-24
1.19706e-23
9.04491e-23
6.00757e-22
3.51786e-21
1.83373e-20
8.92694e-20
3.64469e-19
1.34993e-18
4.8219e-18
1.48135e-17
1.82027e-44
4.50289e-42
5.05882e-40
3.59644e-38
1.85802e-36
7.43132e-35
2.34805e-33
6.10502e-32
1.33411e-30
2.48505e-29
3.97021e-28
5.44145e-27
6.40721e-26
6.53937e-25
5.85792e-24
4.63075e-23
3.21522e-22
1.93555e-21
1.00521e-20
4.65519e-20
1.8932e-19
6.97304e-19
2.67289e-18
6.51422e-47
1.92519e-44
2.54416e-42
2.18807e-40
1.37798e-38
6.65687e-37
2.59062e-35
8.33213e-34
2.25453e-32
5.17295e-31
1.00467e-29
1.65043e-28
2.31781e-27
2.83024e-26
3.02925e-25
2.82503e-24
2.28165e-23
1.60488e-22
9.85053e-22
5.19852e-21
2.42388e-20
1.08124e-19
4.14091e-19
1.16477e-49
3.95719e-47
6.39053e-45
6.82801e-43
5.35308e-41
3.26867e-39
1.60734e-37
6.53038e-36
2.22881e-34
6.42369e-33
1.56121e-31
3.20506e-30
5.60935e-29
8.46062e-28
1.10316e-26
1.23338e-25
1.16726e-24
9.33035e-24
6.43415e-23
3.94272e-22
2.17299e-21
1.11341e-20
6.0413e-20
1.42599e-52
4.95912e-50
8.75765e-48
1.13757e-45
1.13883e-43
9.13496e-42
5.97598e-40
3.24075e-38
1.47072e-36
5.58162e-35
1.76321e-33
4.64123e-32
1.02848e-30
1.94328e-29
3.14511e-28
4.32872e-27
5.00349e-26
4.81552e-25
4.07304e-24
3.4527e-23
2.28164e-22
1.34301e-21
6.80235e-21
8.13967e-56
2.05413e-53
3.8002e-51
5.89448e-49
7.7683e-47
8.53243e-45
7.71927e-43
5.73995e-41
3.50909e-39
1.7609e-37
7.35293e-36
2.63922e-34
8.01141e-33
2.02522e-31
4.32199e-30
7.65358e-29
1.10317e-27
1.39411e-26
1.81367e-25
1.92856e-24
1.70436e-23
1.22382e-22
7.43488e-22
1.63253e-59
2.57993e-57
4.46117e-55
8.1297e-53
1.44927e-50
2.30874e-48
3.12301e-46
3.51814e-44
3.27226e-42
2.49545e-40
1.55626e-38
7.98688e-37
3.4197e-35
1.23712e-33
3.78864e-32
9.71443e-31
2.04754e-29
3.50336e-28
5.23952e-27
7.83832e-26
8.98507e-25
8.23988e-24
6.2357e-23
1.27125e-64
1.34475e-62
2.04431e-60
4.53505e-58
1.21918e-55
3.22453e-53
7.40974e-51
1.4056e-48
2.17279e-46
2.74095e-44
2.83387e-42
2.40974e-40
1.69328e-38
9.94101e-37
4.96472e-35
2.13597e-33
7.83245e-32
2.37326e-30
5.81413e-29
1.17843e-27
2.07844e-26
3.21196e-25
4.55541e-24
4.10499e-74
2.30317e-72
3.81255e-70
1.45078e-67
8.98082e-65
6.45024e-62
4.27111e-59
2.35777e-56
1.04828e-53
3.73811e-51
1.07778e-48
2.55427e-46
5.08731e-44
8.66568e-42
1.26217e-39
1.54558e-37
1.56155e-35
1.28453e-33
8.51371e-32
4.55955e-30
2.00918e-28
6.85896e-27
1.55996e-25
0.000186744
0.000887263
0.001356
0.000505137
0.0103822
0.0103961
0.010382
0.00368075
0.010053
0.0102976
0.00892572
0.00139579
6.23211e-07
6.09972e-07
6.3745e-07
8.18585e-07
6.05322e-07
6.20646e-07
6.16246e-07
7.9362e-07
0.0387804
0.0864964
0.17712
0.241944
0.300084
0.639392
0.768938
0.771329
0.262321
0.514171
0.679475
0.637073
2.06106e-17
5.04424e-18
2.13961e-18
3.42986e-26
1.29316e-08
7.20141e-09
6.03298e-09
3.70338e-09
5.72514e-08
3.66949e-08
2.23179e-08
1.51371e-08
6.81947e-09
7.87951e-09
7.62588e-09
5.96551e-09
2.63065e-11
3.94899e-11
1.16447e-10
2.95675e-10
7.89585e-11
1.32404e-10
2.40375e-10
3.59316e-10
7.81416e-11
1.28879e-10
1.92663e-10
2.70476e-10
5.00183e-11
6.41738e-11
1.02723e-10
1.39587e-10
2.10659e-11
3.05829e-11
3.56318e-11
4.89647e-11
9.99102e-12
1.16137e-11
1.50219e-11
1.72674e-11
7.16998e-12
8.98142e-12
1.03592e-11
1.28711e-11
5.47745e-12
6.09245e-12
8.01969e-12
9.35048e-12
3.74343e-12
4.54419e-12
5.57136e-12
7.83803e-12
2.43149e-12
2.99372e-12
4.70111e-12
7.05589e-12
1.65575e-12
2.37997e-12
3.79214e-12
6.75187e-12
1.03848e-12
1.5998e-12
3.25734e-12
6.10987e-12
6.38449e-13
1.20907e-12
2.31826e-12
4.93325e-12
3.54777e-13
6.95254e-13
1.61346e-12
3.475e-12
1.83741e-13
3.80176e-13
8.58345e-13
2.0229e-12
7.55519e-14
1.62205e-13
4.06519e-13
9.0039e-13
2.84625e-14
7.41897e-14
1.727e-13
4.41768e-13
1.04704e-14
2.31858e-14
6.0435e-14
1.58938e-13
3.36161e-15
7.48441e-15
1.8695e-14
4.71467e-14
8.60732e-16
1.85318e-15
4.6475e-15
1.28951e-14
2.07204e-16
4.51012e-16
1.07888e-15
2.84967e-15
4.50627e-17
9.47465e-17
2.22615e-16
6.19906e-16
8.47787e-18
1.81198e-17
4.35306e-17
1.16102e-16
1.46453e-18
3.23157e-18
7.71478e-18
2.05594e-17
2.26338e-19
5.33705e-19
1.36879e-18
3.53744e-18
3.0956e-20
7.97942e-20
2.05119e-19
5.64452e-19
3.92065e-21
1.03975e-20
3.1982e-20
8.85652e-20
3.77407e-22
1.31951e-21
3.98685e-21
1.27738e-20
3.71453e-23
1.52899e-22
5.97611e-22
2.19534e-21
2.30325e-24
1.43967e-23
7.72316e-23
3.69393e-22
0.000209325
0.0140908
0.0383885
0.0299253
0.00887923
0.00678202
0.0233971
0.636372
0.998218
1
1
1
0.913899
0.84596
0.975192
1
1
1
1
0.000216167
0.0474895
0.0538798
0.0323726
0.0235318
0.0228206
0.0803831
0.74852
0.999947
0.999961
1
1
1
1
0.999419
0.999915
1
1
1
0.00269204
0.00184074
0.00648784
0.012507
0.0410648
0.210295
0.643079
0.985264
0.999999
1
1
1
1
1
1
0.999967
0.999999
1
1
4.68509e-06
4.12765e-06
8.04513e-05
0.183272
0.60382
0.970189
0.999024
0.999903
0.999998
1
1
1
1
1
1
1
1
1
1
0.00199319
0.0777941
0.403487
0.85703
0.98968
0.99844
0.999409
0.997686
0.999997
0.999999
1
1
1
1
1
1
1
1
1
0.380339
0.66405
0.931252
0.927913
0.821524
0.718658
0.598164
0.499714
0.652289
0.936477
1
1
1
0.999998
0.999998
1
1
1
1
0.74409
0.744652
0.656531
0.394961
0.130717
0.0284383
-7.08551e-08
1.22881e-07
0.0428393
0.391641
0.948279
1
1
0.999998
0.999999
1
0.999999
1
1
0.192016
0.0957534
0.0443238
4.61701e-13
4.37338e-24
4.93761e-27
-2.29925e-28
-1.00016e-13
-7.37556e-21
0.0197712
0.459164
0.994642
1
0.999999
1
1
0.999998
1
1
3.04111e-20
1.73696e-26
1.42959e-18
7.63504e-11
8.06345e-10
2.2011e-09
9.75263e-10
1.62499e-12
2.05157e-08
2.37478e-08
0.0180903
0.623715
1
1
0.99998
0.999892
1
1
1
2.13703e-09
1.72982e-09
2.23521e-09
3.13272e-09
1.57558e-08
3.38113e-08
1.53097e-08
2.49949e-09
3.4037e-09
3.37773e-08
1.31599e-07
0.0874842
0.885145
1
0.999958
0.999744
1
1
1
6.87118e-09
4.58639e-09
6.1292e-09
1.01454e-08
3.05848e-08
5.01761e-08
3.37702e-08
1.15923e-09
1.27726e-09
1.15923e-09
1.38446e-07
1.13899e-06
0.39268
1
0.999987
0.999739
0.999958
1
1
3.11663e-09
3.85722e-09
7.68529e-09
1.53419e-08
3.7994e-08
6.11823e-08
3.49359e-08
5.82715e-07
5.80833e-06
4.35068e-06
1.26658e-07
3.65331e-07
0.16083
0.957034
1
0.99988
0.999856
1
1
9.35642e-10
3.65914e-09
8.9671e-09
1.68359e-08
3.78922e-08
6.39408e-08
3.09872e-08
1.5765e-06
9.8226e-06
8.96109e-06
1.18839e-07
4.56507e-07
0.121273
0.886307
1
0.999975
0.999859
1
1
8.36117e-10
3.14283e-09
7.74307e-09
1.32463e-08
1.72807e-08
2.99246e-08
2.49459e-08
9.00328e-07
1.01833e-05
9.6372e-06
2.50572e-06
4.31002e-07
0.0754657
0.821378
1
1
0.99998
1
1
6.69634e-10
1.76252e-09
3.37751e-09
5.03601e-09
4.80656e-09
7.7706e-09
1.29082e-08
3.20352e-07
6.85724e-06
9.6944e-06
3.63984e-06
5.7018e-08
0.0136633
0.628552
1
1
1
0.999997
1
2.61376e-10
5.83523e-10
7.57741e-10
1.07421e-09
1.27233e-09
1.94595e-09
4.83885e-09
6.7352e-08
5.26043e-07
7.3563e-06
1.50057e-06
5.33066e-08
7.98422e-07
0.248444
0.999999
1
0.999999
0.999996
1
6.06449e-11
5.8093e-11
5.21989e-11
6.31111e-11
1.84703e-10
5.07066e-10
1.45266e-09
1.15176e-08
1.42566e-07
1.06018e-07
4.14416e-09
4.58096e-08
3.63109e-08
0.0160605
0.648267
1
1
0.999999
1
2.1124e-11
2.81445e-11
3.95592e-11
5.66857e-11
8.82824e-11
1.96629e-10
4.68163e-10
2.22933e-09
2.71285e-08
3.80147e-09
7.65498e-09
6.67722e-08
3.38381e-08
7.12569e-07
0.0904209
0.85499
1
1
1
1.57064e-11
2.33763e-11
3.80582e-11
6.6067e-11
1.14648e-10
1.92165e-10
3.08219e-10
7.23806e-10
5.19561e-09
5.86242e-09
1.75737e-08
6.8367e-08
3.49194e-08
2.41093e-08
1.98186e-06
0.220679
0.944282
1
1
1.22886e-11
2.36932e-11
4.81468e-11
9.66259e-11
1.79391e-10
2.85819e-10
3.93439e-10
5.36733e-10
1.9713e-09
6.32144e-09
1.97485e-08
5.48466e-08
2.94952e-08
2.41209e-08
2.41092e-08
0.00534299
0.553698
1
0.997819
1.12353e-11
2.76489e-11
6.49214e-11
1.37726e-10
2.603e-10
4.15151e-10
5.6648e-10
6.8412e-10
1.24394e-09
5.14074e-09
1.62961e-08
3.73328e-08
2.52465e-08
2.42239e-08
3.88673e-08
1.6786e-07
0.0866451
0.724265
0.988771
1.15359e-11
3.29291e-11
8.22352e-11
1.83986e-10
3.49136e-10
5.66938e-10
7.89903e-10
9.61906e-10
1.20982e-09
3.72083e-09
1.19041e-08
2.37019e-08
2.16342e-08
2.25887e-08
3.27147e-08
3.78962e-08
1.40341e-07
0.0671108
0.983935
1.20397e-11
3.77286e-11
1.01293e-10
2.30215e-10
4.73144e-10
7.81835e-10
1.12061e-09
1.38376e-09
1.58103e-09
2.81868e-09
8.71355e-09
1.6374e-08
1.75594e-08
1.98508e-08
2.4435e-08
1.86671e-08
1.98972e-08
0.0229329
0.982446
1.15679e-11
4.08732e-11
1.20692e-10
2.98564e-10
6.4253e-10
1.11479e-09
1.65929e-09
2.12087e-09
2.42189e-09
3.0134e-09
5.83705e-09
9.68179e-09
1.38904e-08
1.69754e-08
2.01365e-08
1.64887e-08
1.3023e-08
0.0190021
0.648764
9.83229e-12
3.90008e-11
1.25736e-10
3.44253e-10
7.69347e-10
1.51553e-09
2.41406e-09
3.32495e-09
4.00649e-09
4.46134e-09
5.91307e-09
8.64078e-09
1.14796e-08
1.44729e-08
1.68801e-08
1.56639e-08
1.58022e-08
2.48988e-07
0.195542
7.20715e-12
3.08163e-11
9.87843e-11
3.14006e-10
7.83251e-10
1.66307e-09
3.13991e-09
4.79646e-09
6.35812e-09
7.33595e-09
8.18512e-09
9.19359e-09
1.10544e-08
1.2813e-08
1.46616e-08
1.57863e-08
1.69821e-08
7.75825e-09
0.377706
4.32847e-12
2.00461e-11
6.94747e-11
2.40498e-10
6.65521e-10
1.61604e-09
3.27762e-09
5.98273e-09
8.87239e-09
1.15253e-08
1.35305e-08
1.23088e-08
1.212e-08
1.27626e-08
1.51924e-08
1.54724e-08
2.10398e-08
7.54827e-09
0.801302
2.58807e-12
1.12653e-11
4.27772e-11
1.56904e-10
4.78949e-10
1.30718e-09
3.07865e-09
6.26177e-09
1.09644e-08
1.66261e-08
2.14263e-08
2.02214e-08
1.20274e-08
1.31829e-08
1.7667e-08
1.50151e-08
1.47429e-08
0.000429583
0.937323
1.02048e-12
5.70762e-12
2.27437e-11
9.03314e-11
2.99821e-10
8.96865e-10
2.34272e-09
5.36389e-09
1.09176e-08
2.00421e-08
3.11645e-08
2.52902e-08
1.20035e-08
1.30975e-08
1.91167e-08
1.48033e-08
1.49435e-08
0.0164374
0.937489
4.43121e-13
2.29822e-12
1.1007e-11
4.36021e-11
1.58625e-10
5.10276e-10
1.42674e-09
3.49324e-09
7.73157e-09
1.6776e-08
3.91748e-08
8.06679e-08
5.29165e-08
1.30226e-08
1.70182e-08
1.4902e-08
1.46699e-08
0.07838
0.936295
1.46098e-13
8.25703e-13
4.34598e-12
1.8926e-11
7.54419e-11
2.61434e-10
7.71004e-10
1.93607e-09
4.27157e-09
9.09456e-09
3.12063e-08
1.42688e-07
2.07987e-07
1.14513e-07
1.4817e-08
1.45766e-08
1.4817e-08
0.18588
0.937137
3.93951e-14
2.44794e-13
1.47089e-12
7.29621e-12
3.2191e-11
1.22502e-10
3.94191e-10
1.06217e-09
2.40608e-09
4.79877e-09
1.26983e-08
1.0111e-07
3.00845e-07
3.09544e-07
6.36707e-08
1.82225e-08
4.24188e-07
0.127843
0.504011
9.48254e-15
6.9372e-14
4.21698e-13
2.32667e-12
1.16832e-11
5.05868e-11
1.84844e-10
5.58092e-10
1.3777e-09
2.82478e-09
5.88405e-09
3.9249e-08
1.86155e-07
4.19534e-07
4.09945e-07
1.40867e-08
6.68898e-06
3.74868e-07
0.00244384
2.06142e-15
1.45078e-14
9.79195e-14
6.2674e-13
3.55712e-12
1.75348e-11
7.28666e-11
2.51212e-10
7.26082e-10
1.89215e-09
5.13805e-09
1.61892e-08
7.62636e-08
2.31916e-07
3.44421e-07
5.25366e-06
1.28559e-05
3.2081e-08
5.77182e-09
3.62192e-16
2.6495e-15
2.08829e-14
1.46252e-13
9.27911e-13
5.11773e-12
2.41069e-11
9.63904e-11
3.33899e-10
1.08008e-09
3.53568e-09
1.07981e-08
2.92249e-08
1.17065e-07
3.21311e-07
5.58788e-06
1.3444e-05
8.76734e-07
5.15729e-09
6.33153e-17
4.546e-16
3.78044e-15
2.90529e-14
2.01792e-13
1.23207e-12
6.51278e-12
2.9996e-11
1.23986e-10
4.77393e-10
1.69356e-09
5.32148e-09
1.49797e-08
6.10587e-08
2.65594e-07
8.71031e-07
1.21907e-06
1.58723e-07
7.90908e-09
1.07296e-17
7.61444e-17
6.51414e-16
5.17314e-15
3.81775e-14
2.5202e-13
1.46654e-12
7.57627e-12
3.59809e-11
1.59206e-10
6.10386e-10
2.00134e-09
6.05757e-09
1.96947e-08
6.76893e-08
9.36364e-08
8.99042e-08
3.19232e-08
3.47083e-09
1.7229e-18
1.17338e-17
9.85105e-17
8.55091e-16
6.52381e-15
4.54616e-14
2.84737e-13
1.60467e-12
8.44035e-12
4.17341e-11
1.75603e-10
6.22549e-10
1.90183e-09
5.70747e-09
7.47004e-09
5.3302e-09
1.153e-08
6.757e-09
1.67035e-09
2.76012e-19
1.864e-18
1.41927e-17
1.13583e-16
9.21585e-16
7.12637e-15
4.69361e-14
2.81358e-13
1.58603e-12
8.52203e-12
3.93331e-11
1.55062e-10
4.98534e-10
1.36506e-09
2.21893e-09
1.93947e-09
3.84236e-09
3.18642e-09
4.98578e-10
4.49126e-20
3.12835e-19
2.25847e-18
1.7301e-17
1.35585e-16
1.04086e-15
7.08532e-15
4.39209e-14
2.56112e-13
1.43808e-12
7.13795e-12
3.1738e-11
1.15952e-10
3.12263e-10
5.67905e-10
7.92988e-10
1.6157e-09
5.57032e-10
1.71314e-10
8.00504e-21
5.47595e-20
3.69233e-19
2.66635e-18
1.99639e-17
1.44109e-16
9.5135e-16
5.9072e-15
3.46874e-14
1.97617e-13
9.85552e-13
4.55169e-12
1.43911e-11
4.39984e-11
1.05865e-10
2.02747e-10
2.72318e-10
1.75152e-10
5.5776e-11
1.54257e-21
1.01656e-20
5.6577e-20
3.62672e-19
2.59219e-18
1.96597e-17
1.23443e-16
7.91875e-16
4.67509e-15
2.65444e-14
1.33271e-13
4.65037e-13
2.51577e-12
8.75684e-12
2.56366e-11
5.59728e-11
7.59289e-11
4.19844e-11
1.59776e-11
)
;

boundaryField
{
    leftWall
    {
        type            alphaContactAngle;
        contactAngleProperties 
        {
            mercury         
            {
                theta0          90;
            }
            air             
            {
                theta0          90;
            }
            water           
            {
                theta0          90;
            }
        }
        value           nonuniform List<scalar> 
50
(
2.88003e-44
4.6939e-46
2.04588e-39
3.12369e-37
1.11353e-34
2.86616e-33
1.32378e-32
6.64296e-32
2.98193e-31
1.17496e-30
2.08058e-29
1.2778e-27
1.54624e-26
4.28286e-26
9.59889e-26
1.89743e-25
3.47782e-25
5.9124e-25
9.72947e-25
1.42605e-24
1.92944e-24
2.36864e-24
2.61765e-24
2.57474e-24
2.23868e-24
1.70635e-24
1.0803e-24
5.32429e-25
1.96334e-25
5.20846e-26
8.83656e-27
9.59662e-28
7.13345e-29
5.01289e-30
3.89861e-31
2.43612e-32
1.1992e-33
4.66606e-35
1.41216e-36
2.6234e-38
3.56892e-40
3.23467e-42
1.82027e-44
6.51422e-47
1.16477e-49
1.42599e-52
8.13967e-56
1.63253e-59
1.27125e-64
4.10499e-74
)
;
    }
    rightWall
    {
        type            alphaContactAngle;
        contactAngleProperties 
        {
            mercury         
            {
                theta0          90;
            }
            air             
            {
                theta0          90;
            }
            water           
            {
                theta0          90;
            }
        }
        value           nonuniform List<scalar> 
50
(
0.903264
0.878442
0.869863
0.869739
0.869863
0.901475
0.995493
1
1
1
1
1
1
1
1
1
1
1
1
1
1
1
1
1
1
1
1
0.997819
0.988771
0.983935
0.982446
0.648764
0.195542
0.377706
0.801302
0.937323
0.937489
0.936295
0.937137
0.504011
0.00244384
5.77182e-09
5.15729e-09
7.90908e-09
3.47083e-09
1.67035e-09
4.98578e-10
1.71314e-10
5.5776e-11
1.59776e-11
)
;
    }
    lowerWall
    {
        type            alphaContactAngle;
        contactAngleProperties 
        {
            mercury         
            {
                theta0          90;
            }
            air             
            {
                theta0          90;
            }
            water           
            {
                theta0          90;
            }
        }
        value           nonuniform List<scalar> 
62
(
2.88003e-44
2.68321e-42
1.56442e-40
1.22841e-39
5.78994e-39
3.80667e-38
1.79007e-37
2.2548e-36
-2.19484e-32
-1.10261e-28
-1.5834e-27
-1.29563e-26
9.10682e-19
2.13302e-17
1.42298e-16
1.36846e-15
2.50502e-14
1.54566e-13
7.44804e-13
3.40356e-12
3.54647e-12
4.77112e-07
0.00056662
0.00056662
0.00057419
0.000574358
0.00032235
2.00184e-06
2.52878e-08
5.6574e-09
4.80846e-09
0.000186744
0.000887263
0.001356
0.000505137
0.999989
0.999993
0.999993
0.999993
0.99998
0.999976
0.865385
0.0359552
0.999989
1
1
1
0.999236
0.910154
0.666889
0.494694
0.336025
0.0670855
0.0125122
0.0162421
0.0451388
0.556839
0.999849
0.99992
1
0.978046
0.903264
)
;
    }
    atmosphere
    {
        type            inletOutlet;
        inletValue      uniform 0;
        value           nonuniform List<scalar> 
46
(
0
0
0
0
0
0
0
0
0
0
0
0
0
0
0
0
0
0
0
0
0
0
0
0
1.43967e-23
7.72317e-23
3.69393e-22
1.54257e-21
1.01656e-20
5.6577e-20
3.62672e-19
2.59219e-18
1.96597e-17
1.23443e-16
7.91875e-16
4.67509e-15
2.65444e-14
1.33271e-13
4.65037e-13
2.51577e-12
8.75684e-12
2.56366e-11
5.59728e-11
7.59289e-11
4.19844e-11
1.59776e-11
)
;
    }
    defaultFaces
    {
        type            empty;
    }
}


// ************************************************************************* //
