/*--------------------------------*- C++ -*----------------------------------*\
  =========                 |
  \\      /  F ield         | OpenFOAM: The Open Source CFD Toolbox
   \\    /   O peration     | Website:  https://openfoam.org
    \\  /    A nd           | Version:  13
     \\/     M anipulation  |
\*---------------------------------------------------------------------------*/
FoamFile
{
    format      ascii;
    class       volScalarField;
    location    "0.5";
    object      alpha.water;
}
// * * * * * * * * * * * * * * * * * * * * * * * * * * * * * * * * * * * * * //

dimensions      [];

internalField   nonuniform List<scalar> 
2268
(
2.27174e-13
3.608e-12
8.0158e-12
8.9442e-12
9.19643e-12
9.79335e-12
1.12655e-11
1.29685e-11
1.57955e-11
1.87425e-11
2.26185e-11
2.67127e-11
3.11975e-11
3.53806e-11
3.93096e-11
4.27711e-11
4.60128e-11
4.93597e-11
5.30668e-11
7.72123e-11
3.78175e-10
2.19915e-09
2.57073e-09
1.31069e-14
2.67516e-11
5.88703e-11
6.9816e-11
7.32391e-11
7.3338e-11
7.36316e-11
7.59638e-11
8.12034e-11
8.81674e-11
9.63576e-11
1.05305e-10
1.18106e-10
1.3212e-10
1.50918e-10
1.68517e-10
1.81297e-10
1.81241e-10
1.83634e-10
2.97771e-10
7.77891e-10
2.52378e-09
2.61117e-09
1.00908e-14
4.56905e-16
2.73203e-10
3.17886e-10
3.71894e-10
3.89508e-10
4.63367e-10
4.75321e-10
5.3924e-10
5.20585e-10
5.0533e-10
4.04059e-10
2.60867e-10
2.50808e-10
2.77391e-10
3.13275e-10
3.44545e-10
3.51702e-10
3.49852e-10
4.84188e-10
1.00542e-09
2.66335e-09
2.95476e-09
8.49994e-09
7.52169e-09
8.60957e-09
8.92567e-09
1.06589e-08
1.11169e-08
1.28755e-08
1.36595e-08
1.55659e-08
1.57721e-08
1.66206e-08
1.56919e-08
8.03034e-09
1.09829e-09
3.50628e-10
3.50315e-10
4.0396e-10
4.68703e-10
5.19132e-10
6.44614e-10
1.0029e-09
2.39732e-09
2.70615e-09
0.184378
0.175254
0.17448
0.168798
0.156592
0.139763
0.120106
0.0982522
0.0742615
0.0486848
0.0237932
0.00491194
1.78846e-10
-2.34492e-12
1.76419e-10
1.79759e-10
5.02389e-10
6.35474e-10
6.35294e-10
6.39431e-10
6.76961e-10
6.58673e-10
7.55072e-10
0.940707
0.918924
0.915034
0.910029
0.900031
0.88456
0.863613
0.835867
0.79806
0.744408
0.664605
0.540157
0.362985
0.185884
0.0250831
4.60928e-09
3.03621e-10
2.92237e-10
3.16476e-10
3.2709e-10
3.18771e-10
1.71102e-08
3.69672e-09
1
1
1
1
1
1
1
1
1
1
1
1
0.992259
0.925053
0.741791
0.382759
0.0363169
2.48121e-09
3.0629e-10
7.67767e-10
1.28128e-08
4.1356e-08
2.42598e-08
1
1
1
1
1
1
1
1
1
1
1
1
1
1
1
0.971563
0.703146
0.147327
9.28266e-09
8.2636e-10
8.55811e-09
3.52984e-08
3.60761e-08
1.31992e-10
1.78944e-10
2.55257e-10
2.65931e-10
2.57975e-10
2.61012e-10
2.64046e-10
1.54086e-07
2.31216e-08
3.102e-10
5.59415e-10
9.90773e-10
6.44431e-10
3.16102e-10
3.129e-10
2.65222e-10
1.01754e-10
1.76192e-11
1.16983e-12
1.41953e-10
2.78208e-10
3.52123e-10
3.64167e-10
1.79555e-19
1.48872e-07
7.89117e-06
3.79371e-06
-1.34552e-10
1.34917e-10
1.66721e-10
2.77611e-09
2.93656e-09
8.13405e-10
3.25458e-10
2.36418e-10
1.01849e-10
2.37743e-11
1.32438e-12
1.53113e-10
3.11225e-10
2.74185e-10
1.09055e-19
1.20454e-16
-7.0974e-12
3.24258e-05
6.62969e-05
5.30618e-05
1.40328e-05
6.1618e-09
1.78967e-08
1.9019e-09
1.50608e-09
5.21863e-10
2.11998e-10
1.16246e-10
3.77014e-11
2.92605e-12
1.48135e-10
8.18557e-10
1.44546e-11
2.66832e-05
0.00111773
0.00102024
6.39921e-05
8.96747e-05
9.43697e-05
3.93024e-05
6.60479e-07
4.1551e-07
6.07926e-10
6.58584e-10
4.62056e-10
2.44888e-10
1.49203e-10
5.64597e-11
6.56387e-12
9.4049e-11
8.39908e-09
-1.75694e-08
4.10092e-05
0.0151196
0.0129649
3.77489e-05
2.18359e-05
8.00323e-05
6.09972e-05
2.37743e-06
2.04462e-08
9.85724e-09
3.41794e-09
4.73812e-10
2.80841e-10
1.86207e-10
8.69185e-11
1.24759e-11
3.9234e-11
3.77559e-22
6.7583e-10
0.000704499
0.107176
0.215524
0.106767
0.000295112
6.65777e-06
1.14041e-05
9.19041e-06
2.24493e-06
1.1392e-08
4.14487e-10
4.09923e-10
3.35934e-10
2.2112e-10
1.13272e-10
2.00645e-11
2.17179e-05
0.000305634
0.0100912
0.0459147
0.119717
0.304978
0.323624
0.106994
-3.6549e-08
1.07198e-06
4.50483e-06
4.41143e-06
1.25983e-07
4.659e-10
4.45039e-10
3.69512e-10
2.35726e-10
1.20457e-10
3.03423e-11
0.0021567
0.00890222
0.047801
0.0977526
0.443352
0.874577
0.905648
0.289819
-4.48238e-09
4.50704e-07
2.22327e-06
1.73251e-06
1.47435e-07
4.80739e-10
4.89354e-10
3.71895e-10
2.52894e-10
1.45367e-10
3.65101e-11
1
1
1
1
1
1
1
1
1
1
1
1
1
1
1
1
1
0.91744
0.53337
0.0956127
8.786e-09
8.74781e-09
1.36067e-08
1
1
1
1
1
1
1
1
1
1
1
1
1
1
1
1
1
1
0.999998
0.890274
0.573784
0.194678
0.0326205
1
1
1
1
1
1
1
1
1
1
1
1
1
1
1
1
1
1
0.999999
1
0.998767
0.966678
0.874474
0.919104
0.932968
0.95371
0.974796
0.990998
0.999148
1
1
1
1
1
1
1
1
1
1
1
1
1
1
0.999995
0.999821
0.999999
0.198495
0.226138
0.269806
0.336093
0.42452
0.53444
0.659006
0.759905
0.852382
0.929035
0.98071
0.999628
1
1
1
1
1
1
1
1
0.999984
0.999913
0.999999
-1.79938e-17
-2.91788e-17
-7.0804e-16
-3.62078e-14
-3.81317e-14
-1.65541e-14
0.0047612
0.0475033
0.113404
0.212391
0.360354
0.563804
0.761727
0.896271
0.974287
0.998554
0.999999
0.999999
0.999998
0.999999
0.999998
0.9989
0.988132
-4.0141e-17
-1.30065e-16
-2.32419e-15
-1.2623e-13
-1.90324e-13
-1.70141e-13
-1.21684e-13
-1.07785e-13
-8.27581e-14
-1.04643e-14
5.38211e-15
8.19571e-27
0.02764
0.114397
0.252613
0.461251
0.695403
0.843379
0.916461
0.961651
0.95329
0.910213
0.768114
-5.18628e-17
-3.0669e-16
-4.0353e-15
-1.69949e-13
-2.73021e-13
-2.65718e-13
-2.45111e-13
-2.37656e-13
-1.96668e-13
-2.46989e-14
2.63836e-13
4.05643e-13
3.3517e-29
-1.35426e-13
-2.44771e-13
1.11694e-21
1.62101e-22
1.78464e-22
0.0521945
0.251513
0.260049
0.163822
0.0508616
-5.71638e-17
-4.94614e-16
-5.93097e-15
-1.86916e-13
-2.83732e-13
-2.71903e-13
-2.56553e-13
-2.56679e-13
-2.10606e-13
5.58278e-14
1.14985e-12
5.23624e-12
1.72668e-11
5.78318e-11
1.62562e-10
2.80287e-10
2.53508e-10
8.33401e-11
9.45114e-20
3.01617e-25
1.33979e-28
-8.5516e-13
-5.08006e-11
-5.65344e-17
-6.11958e-16
-7.19632e-15
-1.74231e-13
-2.36981e-13
-2.10819e-13
-1.99202e-13
-2.0059e-13
-1.34658e-13
2.83654e-13
1.78142e-12
8.38822e-12
3.19104e-11
9.36097e-11
2.7686e-10
6.03016e-10
7.97153e-10
7.66765e-10
6.36173e-10
5.68393e-10
1.80064e-10
-3.52322e-27
5.08026e-11
-5.05696e-17
-6.30002e-16
-7.25389e-15
-1.34928e-13
-1.59097e-13
-1.2641e-13
-1.19332e-13
-1.15233e-13
-2.21921e-14
5.344e-13
2.43228e-12
1.03886e-11
4.28373e-11
1.28148e-10
2.84991e-10
5.73457e-10
8.32405e-10
8.60403e-10
7.92488e-10
1.17578e-09
8.80819e-10
3.43581e-10
5.11261e-11
-4.08539e-17
-5.53216e-16
-6.09765e-15
-8.59488e-14
-8.53882e-14
-5.866e-14
-5.56111e-14
-4.38736e-14
6.60753e-14
6.61367e-13
2.68812e-12
1.0801e-11
4.70942e-11
1.24164e-10
2.32026e-10
3.38474e-10
4.59325e-10
4.80671e-10
4.33887e-10
3.75385e-10
2.47489e-10
1.09685e-10
4.44807e-11
-2.94214e-17
-4.13048e-16
-4.24527e-15
-4.45273e-14
-3.6244e-14
-2.07508e-14
-1.93832e-14
-3.32197e-15
1.03663e-13
6.41995e-13
2.85914e-12
1.00642e-11
3.49336e-11
8.71512e-11
1.4041e-10
2.0743e-10
2.03379e-10
1.71539e-10
1.46626e-10
1.14311e-10
7.72249e-11
6.06759e-11
3.99979e-11
-1.83964e-17
-2.57716e-16
-2.40549e-15
-1.84694e-14
-1.1971e-14
-5.38402e-15
-4.09811e-15
1.08309e-14
9.64466e-14
4.85621e-13
2.14999e-12
7.79702e-12
2.18339e-11
4.41605e-11
6.61887e-11
7.26722e-11
7.81177e-11
6.96802e-11
4.95723e-11
3.62755e-11
2.43542e-11
1.58653e-11
1.12155e-11
-9.60999e-18
-1.30214e-16
-1.07561e-15
-5.98432e-15
-3.00091e-15
-8.98779e-16
3.54288e-16
1.06185e-14
6.44211e-14
2.98911e-13
1.19256e-12
4.29325e-12
1.15873e-11
1.78935e-11
2.12307e-11
2.27984e-11
2.06915e-11
1.6157e-11
1.16595e-11
7.72655e-12
4.72944e-12
3.14987e-12
1.51646e-12
-3.97548e-18
-5.06057e-17
-3.6162e-16
-1.46036e-15
-5.50148e-16
-2.22537e-17
8.06144e-16
6.11254e-15
3.23261e-14
1.3854e-13
5.22396e-13
1.51752e-12
3.76796e-12
5.68392e-12
5.9143e-12
5.0444e-12
3.70448e-12
2.54261e-12
1.4769e-12
9.86163e-13
4.80077e-13
1.31075e-13
4.30114e-14
-1.20771e-18
-1.3967e-17
-8.50364e-17
-2.54639e-16
-6.8516e-17
4.52209e-17
4.0471e-16
2.49207e-15
1.18123e-14
4.81812e-14
1.52018e-13
4.22413e-13
8.41324e-13
9.60667e-13
8.60225e-13
6.03648e-13
3.43459e-13
2.07297e-13
8.94662e-14
2.39325e-14
3.92766e-15
1.85706e-15
9.60166e-16
-2.38015e-19
-2.43624e-18
-1.2476e-17
-2.89211e-17
-4.34797e-18
1.6596e-17
1.13896e-16
6.05758e-16
2.82542e-15
1.08105e-14
3.23566e-14
7.25687e-14
1.13067e-13
9.38632e-14
5.44707e-14
3.04012e-14
8.3712e-15
6.24181e-16
9.70889e-17
1.58366e-16
2.45447e-16
1.59924e-16
8.69226e-17
-2.23721e-20
-2.04584e-19
-8.80518e-19
-1.61584e-18
6.4885e-20
2.56383e-18
1.5639e-17
7.18512e-17
3.34394e-16
1.00922e-15
3.06762e-15
5.82087e-15
5.70249e-15
2.7906e-15
2.67807e-16
2.69117e-18
4.71232e-21
1.02042e-22
7.30149e-24
9.99503e-25
1.65192e-26
3.98332e-27
8.72126e-27
1.48717e-32
3.2663e-31
3.38934e-30
2.0433e-29
6.54022e-29
2.33116e-41
3.05296e-40
3.60773e-39
3.80456e-38
3.63135e-37
3.21556e-36
2.69926e-35
2.13389e-34
1.62071e-33
1.19891e-32
8.62478e-32
6.06074e-31
3.29305e-30
2.37816e-29
1.71007e-28
1.23952e-27
9.68003e-27
7.06267e-26
1.61278e-42
4.04036e-41
4.59353e-40
2.73232e-39
6.88878e-39
3.50938e-41
4.65428e-40
5.40574e-39
5.60389e-38
5.31433e-37
4.74437e-36
4.12828e-35
3.3402e-34
2.59444e-33
1.98292e-32
1.52392e-31
1.17458e-30
1.15662e-29
9.03053e-29
6.41803e-28
4.62213e-27
3.33096e-26
2.08739e-25
2.39119e-48
1.59378e-46
5.55176e-45
1.34337e-43
2.70695e-42
4.37287e-41
6.07993e-40
7.45075e-39
8.1805e-38
8.17319e-37
7.85793e-36
7.34426e-35
6.34875e-34
5.39139e-33
4.66604e-32
3.95078e-31
3.25634e-30
2.51529e-29
1.90101e-28
1.20232e-27
8.70014e-27
5.0906e-26
3.10921e-25
1.69526e-48
1.19816e-46
4.32025e-45
1.21146e-43
2.49436e-42
4.24867e-41
6.16043e-40
7.80497e-39
8.84585e-38
9.21514e-37
9.29459e-36
8.99315e-35
8.33849e-34
7.79234e-33
7.07003e-32
6.0438e-31
4.83762e-30
3.61254e-29
2.64831e-28
1.68908e-27
9.79511e-27
6.99864e-26
3.5622e-25
9.1615e-49
6.88529e-47
2.66503e-45
8.0013e-44
1.74548e-42
3.12418e-41
4.74406e-40
6.3138e-39
7.61248e-38
8.5023e-37
9.0694e-36
9.21271e-35
9.16542e-34
8.95418e-33
8.08555e-32
6.868e-31
5.3706e-30
3.95126e-29
2.78035e-28
1.69111e-27
1.09527e-26
5.2848e-26
3.39544e-25
3.56159e-49
2.95478e-47
1.28848e-45
3.88644e-44
9.02912e-43
1.70907e-41
2.74194e-40
3.86796e-39
4.99764e-38
6.10596e-37
6.78233e-36
7.3693e-35
7.76751e-34
7.47009e-33
6.73523e-32
5.59008e-31
4.25669e-30
3.11894e-29
2.21603e-28
1.33472e-27
7.26916e-27
4.67449e-26
2.39624e-25
9.46219e-50
8.82213e-48
4.22534e-46
1.38558e-44
3.46965e-43
7.03699e-42
1.20475e-40
1.81327e-39
2.49487e-38
3.18509e-37
3.80785e-36
4.33219e-35
4.44314e-34
4.28393e-33
3.84842e-32
3.17639e-31
2.4036e-30
1.72544e-29
1.17043e-28
7.25245e-28
4.41179e-27
2.40145e-26
1.52059e-25
1.85857e-50
1.8958e-48
9.9526e-47
3.55058e-45
9.60731e-44
2.0893e-42
3.80772e-41
6.09287e-40
8.97631e-39
1.23564e-37
1.52298e-36
1.70116e-35
1.78333e-34
1.75245e-33
1.59328e-32
1.32009e-31
1.01257e-30
7.56795e-30
5.30948e-29
3.12507e-28
1.7769e-27
1.22108e-26
7.59474e-26
2.34709e-51
2.68842e-49
1.57126e-47
6.19517e-46
1.83765e-44
4.33214e-43
8.38937e-42
1.40521e-40
2.21881e-39
3.20174e-38
4.16715e-37
4.86002e-36
5.25938e-35
5.27516e-34
4.86564e-33
4.08832e-32
3.18159e-31
2.39278e-30
1.71067e-29
1.13274e-28
7.06555e-28
4.19314e-27
3.03136e-26
1.85446e-52
2.4182e-50
1.58077e-48
6.85173e-47
2.20842e-45
5.63407e-44
1.18437e-42
2.13833e-41
3.49128e-40
5.35584e-39
7.60935e-38
9.58181e-37
1.09105e-35
1.14143e-34
1.10578e-33
9.98331e-33
8.45275e-32
6.73326e-31
4.96082e-30
3.28156e-29
2.10455e-28
1.52849e-27
9.42555e-27
9.62383e-54
1.42474e-51
1.04537e-49
5.04385e-48
1.79116e-46
4.98424e-45
1.14294e-43
2.26762e-42
4.02639e-41
6.46481e-40
9.53752e-39
1.32656e-37
1.6759e-36
1.85262e-35
1.87856e-34
1.76456e-33
1.57123e-32
1.35118e-31
1.08958e-30
7.66035e-30
4.76478e-29
3.33897e-28
2.97771e-27
3.52105e-55
5.89825e-53
4.86683e-51
2.61733e-49
1.02776e-47
3.1394e-46
7.86758e-45
1.70165e-43
3.29235e-42
5.71044e-41
8.89616e-40
1.29885e-38
1.81207e-37
2.288e-36
2.57201e-35
2.69051e-34
2.5962e-33
2.28806e-32
1.84485e-31
1.38743e-30
1.0316e-29
8.67957e-29
7.86602e-28
7.78109e-57
1.54378e-54
1.41412e-52
9.04854e-51
4.02815e-49
1.39369e-47
3.94732e-46
9.63417e-45
2.08712e-43
4.01096e-42
6.78879e-41
1.02869e-39
1.46015e-38
2.00552e-37
2.54565e-36
2.8754e-35
2.98586e-34
2.86116e-33
2.55155e-32
2.09584e-31
1.64584e-30
1.43618e-29
1.29649e-28
1.17808e-58
2.69987e-56
2.91293e-54
1.93247e-52
9.83628e-51
3.8546e-49
1.26555e-47
3.40679e-46
8.11322e-45
1.73661e-43
3.35181e-42
5.85595e-41
9.37099e-40
1.38022e-38
1.84704e-37
2.27233e-36
2.68047e-35
2.9406e-34
2.8513e-33
2.48751e-32
2.07926e-31
2.10214e-30
2.05406e-29
1.05892e-60
2.77715e-58
3.70188e-56
3.06458e-54
1.82141e-52
8.39815e-51
3.13641e-49
9.80882e-48
2.64552e-46
6.31076e-45
1.35564e-43
2.64768e-42
4.71544e-41
7.64383e-40
1.11944e-38
1.4758e-37
1.82772e-36
2.25712e-35
2.57742e-34
2.55036e-33
2.58949e-32
2.72742e-31
2.52408e-30
5.59717e-63
1.82553e-60
2.70777e-58
2.57742e-56
1.80608e-54
9.90904e-53
4.41509e-51
1.66187e-49
5.39287e-48
1.52933e-46
3.84473e-45
8.72717e-44
1.81415e-42
3.44995e-41
5.92672e-40
9.09693e-39
1.24546e-37
1.55086e-36
1.81005e-35
1.91908e-34
1.93869e-33
1.69334e-32
2.51025e-31
2.04656e-65
7.79088e-63
1.34585e-60
1.52851e-58
1.28525e-56
8.48422e-55
4.60909e-53
2.10979e-51
8.22783e-50
2.75125e-48
7.98918e-47
2.0611e-45
4.83238e-44
1.03844e-42
2.03488e-41
3.61513e-40
5.81965e-39
8.45961e-38
1.09318e-36
1.27432e-35
1.51714e-34
1.84294e-33
1.96159e-32
3.66653e-68
1.578e-65
3.22339e-63
4.40038e-61
4.50004e-59
3.67035e-57
2.47245e-55
1.4029e-53
6.75792e-52
2.77631e-50
9.82402e-49
3.04204e-47
8.35986e-46
2.0487e-44
4.4678e-43
8.7011e-42
1.54748e-40
2.59793e-39
4.13811e-38
5.88075e-37
7.1637e-36
1.02141e-34
1.61166e-33
4.26807e-71
1.88925e-68
4.29148e-66
7.17811e-64
9.39274e-62
1.00021e-59
8.81465e-58
6.47987e-56
3.97978e-54
2.04917e-52
8.95804e-51
3.3942e-49
1.13533e-47
3.37518e-46
8.92372e-45
2.1093e-43
4.43421e-42
8.42051e-41
1.65005e-39
3.20602e-38
4.98531e-37
7.21843e-36
9.52125e-35
2.33273e-74
7.35636e-72
1.7113e-69
3.3728e-67
5.70784e-65
8.14339e-63
9.67492e-61
9.53116e-59
7.76844e-57
5.24852e-55
3.00926e-53
1.50653e-51
6.50321e-50
2.41109e-48
7.87501e-47
2.30434e-45
6.40012e-44
1.92239e-42
5.47333e-41
1.19435e-39
2.22404e-38
3.6197e-37
5.33337e-36
4.47358e-78
8.76843e-76
1.88526e-73
4.29891e-71
9.67604e-69
1.96676e-66
3.42017e-64
4.95829e-62
5.92527e-60
5.83952e-58
4.80639e-56
3.37183e-54
2.05152e-52
1.08857e-50
5.027e-49
2.02501e-47
7.13232e-46
2.28855e-44
7.68906e-43
2.46451e-41
6.04894e-40
1.25407e-38
2.08408e-37
3.1051e-83
3.9383e-81
7.18917e-79
1.92685e-76
6.30754e-74
2.05111e-71
5.86233e-69
1.40015e-66
2.75346e-64
4.44959e-62
5.9324e-60
6.61608e-58
6.35566e-56
5.45959e-54
4.26713e-52
2.9742e-50
1.79213e-48
9.37771e-47
4.53391e-45
2.05516e-43
7.90104e-42
2.81254e-40
9.11614e-39
9.27891e-93
6.26111e-91
1.23029e-88
5.5409e-86
4.05426e-83
3.45743e-80
2.7318e-77
1.80509e-74
9.67826e-72
4.22682e-69
1.53397e-66
4.75698e-64
1.29098e-61
3.08891e-59
6.4734e-57
1.18061e-54
1.87346e-52
2.60557e-50
3.27124e-48
3.82552e-46
3.92718e-44
3.11193e-42
1.74569e-40
1.33229e-08
1.29943e-08
1.35191e-08
0.000629988
0.0492446
0.084575
0.175818
0.303243
0.865524
0.887289
0.959818
0.998604
0.999999
0.999999
0.999999
0.999999
0.999999
0.999999
0.999999
0.999999
0.96122
0.913504
0.82288
0.757394
0.539844
0.245645
0.168529
0.0801411
9.01049e-14
3.50033e-14
-4.25283e-24
1.75609e-23
2.25468e-07
8.81692e-07
1.78928e-06
2.02487e-06
3.41137e-07
1.56539e-06
2.1753e-06
1.7133e-06
1.88323e-11
-1.95947e-16
5.69268e-12
-7.95833e-17
3.0729e-11
2.55974e-11
2.28968e-11
1.63988e-11
3.21157e-11
2.60533e-11
2.00952e-11
1.16632e-11
7.40461e-12
4.6356e-12
3.05589e-12
1.75533e-12
6.84497e-13
3.76219e-13
1.93533e-13
6.84585e-14
1.33714e-14
4.75934e-15
1.71793e-15
5.63426e-16
4.65118e-16
2.20199e-16
5.59288e-17
9.51199e-18
2.24899e-17
1.77965e-18
3.86778e-20
6.32675e-21
1.12295e-25
3.85819e-25
1.13414e-24
3.13437e-24
5.10668e-25
1.42774e-24
3.80268e-24
9.47349e-24
1.03916e-24
2.58949e-24
6.78721e-24
1.68205e-23
1.44857e-24
3.55477e-24
1.02363e-23
2.41795e-23
1.72762e-24
4.52911e-24
1.22831e-23
3.07777e-23
1.53574e-24
4.26501e-24
1.36357e-23
3.39032e-23
1.21464e-24
4.19813e-24
1.18097e-23
3.19269e-23
8.12187e-25
2.82641e-24
9.33286e-24
2.50615e-23
4.77816e-25
1.67141e-24
5.35182e-24
1.56757e-23
1.7938e-25
7.00963e-25
2.54732e-24
7.01242e-24
6.40978e-26
3.29481e-25
1.09588e-24
3.5816e-24
2.13794e-26
8.96778e-26
3.53133e-25
1.22826e-24
6.25481e-27
2.577e-26
9.86241e-26
3.28265e-25
1.05882e-27
4.73955e-27
2.02934e-26
8.14297e-26
1.84632e-28
8.45708e-28
3.52074e-27
1.47527e-26
2.26222e-29
1.08544e-28
5.2642e-28
2.60267e-27
2.46235e-30
1.29476e-29
6.72408e-29
3.38524e-28
2.10558e-31
1.24202e-30
7.3184e-30
4.12044e-29
1.70727e-32
1.08526e-31
7.12227e-31
4.27928e-30
1.21113e-33
8.14915e-33
5.64618e-32
4.00483e-31
7.46673e-35
4.12845e-34
4.34227e-33
3.29846e-32
2.93363e-36
2.83212e-35
2.55044e-34
2.49261e-33
1.92426e-37
2.00228e-36
2.07731e-35
2.10611e-34
6.62714e-39
1.05497e-37
1.46716e-36
1.83378e-35
0.00590945
0.0434848
0.192688
0.569777
0.935879
0.976855
0.97655
0.361629
-6.87795e-12
5.05653e-09
2.25089e-07
4.02438e-07
1.01459e-07
5.62032e-10
5.22576e-10
3.90678e-10
3.01638e-10
1.76336e-10
4.30074e-11
0.495115
0.69302
0.916086
0.967627
0.976468
0.977166
0.919616
0.251479
3.30999e-13
2.67579e-09
6.21043e-11
1.42209e-08
1.33509e-08
1.76867e-09
8.02249e-10
5.62228e-10
4.00079e-10
2.37061e-10
4.90813e-11
0.997308
0.998159
0.993512
0.987493
0.958935
0.789112
0.356575
0.0146714
1.33972e-06
1.43542e-07
2.33091e-09
4.91732e-09
6.26556e-09
3.20874e-09
1.52473e-09
1.0232e-09
5.48026e-10
2.79498e-10
5.90394e-11
0.999995
0.999996
0.999919
0.816727
0.395705
0.0271445
3.09728e-14
1.98165e-14
2.6314e-07
1.27338e-07
4.34927e-09
1.42798e-09
2.93067e-09
3.09416e-09
2.38428e-09
1.46485e-09
7.85123e-10
3.18352e-10
6.02152e-11
0.998007
0.922205
0.596512
0.120399
2.18353e-09
1.26311e-12
2.43681e-12
3.30917e-07
7.31735e-07
4.55453e-07
4.69393e-09
1.53832e-09
2.31321e-09
2.89493e-09
2.4158e-09
1.51447e-09
8.33879e-10
3.09952e-10
6.03167e-11
0.587458
0.249528
0.0060234
7.15647e-07
9.42424e-07
7.58086e-07
1.40224e-07
3.78868e-09
4.1152e-09
2.03016e-09
2.08886e-09
1.47097e-09
1.71775e-09
2.01658e-09
2.09088e-09
1.44206e-09
7.69766e-10
2.81781e-10
6.11969e-11
1.0582e-18
-7.50496e-24
1.63606e-12
2.10896e-06
3.83337e-06
3.71189e-06
1.54556e-06
4.02339e-09
1.34671e-08
6.73966e-09
1.3938e-09
1.27431e-09
1.09957e-09
1.30248e-09
1.46355e-09
1.04713e-09
6.21196e-10
2.56709e-10
5.78936e-11
2.58778e-07
1.96403e-06
3.79035e-06
6.3297e-06
3.96107e-06
3.43925e-06
2.20987e-06
5.87698e-07
9.73797e-08
1.15991e-08
9.88131e-10
9.86696e-10
9.12622e-10
8.58462e-10
7.96046e-10
7.15556e-10
4.62965e-10
2.13372e-10
5.52492e-11
3.29073e-06
8.94629e-06
9.93263e-06
7.26606e-06
1.36014e-06
9.00713e-07
6.96474e-07
2.78209e-07
5.58956e-08
1.09926e-08
8.023e-10
6.40572e-10
6.80904e-10
4.71673e-10
3.72698e-10
4.12658e-10
3.55938e-10
1.61514e-10
5.10202e-11
7.4606e-07
2.52703e-06
4.65876e-06
1.20519e-06
3.21252e-07
9.11595e-08
9.52237e-08
7.97739e-08
4.02971e-08
1.01682e-08
7.51612e-10
2.5806e-10
2.69002e-10
2.4856e-10
2.00263e-10
2.27452e-10
2.10339e-10
1.23573e-10
4.64225e-11
-6.69894e-29
4.18058e-26
-3.27096e-32
-2.68505e-14
-1.51473e-14
-2.14761e-15
7.97241e-09
3.27063e-08
2.66363e-08
5.61918e-09
7.9653e-10
8.11373e-11
4.25208e-11
8.07807e-11
1.1402e-10
1.42407e-10
1.12728e-10
9.4958e-11
4.00802e-11
8.15902e-12
1.25437e-12
3.02602e-14
-8.35971e-14
-7.58635e-14
-2.62129e-14
1.20291e-09
9.98465e-09
1.10486e-08
2.74687e-09
5.06694e-10
5.50593e-11
6.25867e-12
1.96081e-11
6.57502e-11
7.73472e-11
7.40806e-11
7.53998e-11
3.47212e-11
4.53722e-12
6.75428e-13
2.26088e-14
-2.04157e-15
8.65068e-14
7.68539e-13
1.48563e-10
2.46717e-10
1.21279e-09
5.58841e-10
4.31318e-10
3.7377e-11
3.58572e-12
7.75116e-12
3.38368e-11
4.36805e-11
5.89821e-11
5.79096e-11
2.94441e-11
5.14665e-13
4.30418e-14
1.13141e-15
4.56642e-17
1.98778e-16
1.55854e-13
1.80247e-11
1.03042e-11
3.51865e-10
2.07551e-10
2.65646e-10
2.93113e-11
3.05871e-12
4.13024e-12
1.82687e-11
2.75389e-11
4.1107e-11
4.47164e-11
2.53202e-11
1.27323e-14
1.50039e-15
1.99533e-16
2.98078e-17
1.56535e-17
1.86953e-14
2.72597e-12
9.73156e-12
1.15265e-10
1.48958e-10
1.07825e-10
2.81302e-11
2.49994e-12
2.58929e-12
1.22631e-11
1.74745e-11
2.45675e-11
2.76799e-11
1.90692e-11
2.74649e-16
1.04744e-16
1.5824e-17
2.20345e-18
1.45825e-18
1.68898e-15
5.6062e-13
5.48196e-12
2.89849e-11
9.1106e-11
3.52739e-11
2.34554e-11
1.96238e-12
1.1317e-12
7.20507e-12
1.30572e-11
1.51338e-11
1.70704e-11
1.2989e-11
1.67442e-18
6.01077e-19
2.05752e-19
1.40272e-20
8.75029e-20
1.26535e-16
1.22338e-13
2.48969e-12
1.39457e-11
1.98661e-11
1.09517e-11
1.7391e-11
1.68291e-12
3.30461e-13
3.0301e-12
8.18142e-12
9.39462e-12
1.1047e-11
1.04495e-11
3.26751e-21
3.03906e-22
1.13203e-22
2.03665e-22
4.22655e-21
7.97975e-18
2.32415e-14
9.59565e-13
6.20489e-12
7.6282e-12
6.23928e-12
1.41202e-11
1.79437e-12
1.21212e-13
5.9417e-13
3.46596e-12
5.82717e-12
5.56871e-12
6.11457e-12
8.6692e-24
3.96716e-23
1.48495e-22
4.53201e-22
1.47902e-20
4.88654e-18
3.86604e-15
3.17869e-13
2.68227e-12
2.48363e-12
3.5544e-12
1.09647e-11
1.97941e-12
9.86995e-14
4.9155e-14
6.55199e-13
2.64725e-12
4.00497e-12
3.98746e-12
2.29212e-23
9.92021e-23
2.91003e-22
1.36432e-21
4.10619e-20
2.93955e-18
3.20383e-16
7.48205e-14
1.05403e-12
9.74392e-13
1.97307e-12
7.26711e-12
1.90726e-12
1.4016e-13
2.36612e-14
3.65964e-14
6.61599e-13
2.54453e-12
3.19889e-12
3.68784e-23
1.47683e-22
4.70376e-22
1.69775e-21
2.10601e-20
7.38097e-19
3.36255e-17
2.86718e-15
3.73676e-13
5.45704e-13
1.33142e-12
4.26868e-12
1.57088e-12
1.81397e-13
2.40264e-14
1.00063e-14
3.73454e-14
5.97387e-13
2.23516e-12
5.2469e-23
2.12014e-22
6.65146e-22
2.18054e-21
1.28287e-20
1.97148e-19
4.90274e-18
2.06907e-16
5.6732e-14
2.48199e-13
7.32181e-13
2.23916e-12
1.10023e-12
2.03099e-13
3.58381e-14
1.00165e-14
3.58646e-15
5.17126e-14
1.35608e-12
6.85927e-23
2.78147e-22
8.88557e-22
2.36148e-21
8.85906e-21
6.89091e-20
1.05722e-18
2.1335e-17
6.78734e-16
9.78637e-14
3.72611e-13
1.12525e-12
6.63049e-13
1.7941e-13
4.22161e-14
1.5905e-14
3.59404e-15
2.04427e-14
7.15215e-13
7.6496e-23
3.3311e-22
1.11607e-21
3.02633e-21
7.88214e-21
2.67333e-20
2.44296e-19
3.86792e-18
8.73994e-17
8.83091e-15
1.65669e-13
4.30344e-13
3.56332e-13
1.3475e-13
4.03969e-14
1.70673e-14
3.73023e-15
1.23738e-14
2.73738e-13
7.3436e-23
3.44428e-22
1.21651e-21
3.52426e-21
8.33015e-21
1.9419e-20
6.15599e-20
6.09989e-19
1.10382e-17
2.83358e-16
3.81928e-14
2.42348e-13
1.93218e-13
9.20871e-14
3.52021e-14
1.43136e-14
3.66609e-15
5.19735e-16
6.11687e-14
5.93292e-23
2.95075e-22
1.01942e-21
3.37183e-21
8.60345e-21
1.89201e-20
3.98097e-20
9.78812e-20
8.50859e-19
2.07497e-17
1.77683e-15
4.41097e-14
9.10061e-14
5.58642e-14
2.99978e-14
9.89195e-15
2.20739e-15
3.44074e-16
5.83222e-15
3.83001e-23
2.07419e-22
7.75541e-22
2.78223e-21
7.75489e-21
1.87956e-20
3.87681e-20
7.48348e-20
1.33279e-19
4.35996e-19
9.12914e-18
1.33964e-15
1.17855e-14
2.94656e-14
1.53197e-14
5.74839e-15
1.311e-15
2.96141e-16
2.03845e-16
2.47399e-23
1.24235e-22
5.12071e-22
1.95491e-21
5.98661e-21
1.60249e-20
3.67744e-20
7.34144e-20
1.31284e-19
2.17393e-19
3.28683e-19
4.67029e-18
3.09203e-16
6.86876e-15
2.23843e-15
2.55987e-15
6.25585e-16
2.7282e-16
6.29276e-18
9.64162e-24
6.46025e-23
2.82483e-22
1.18418e-21
3.99814e-21
1.18536e-20
3.01298e-20
6.6198e-20
1.27946e-19
2.22884e-19
3.48239e-19
5.40961e-19
4.98049e-17
1.00504e-15
4.84091e-16
1.02025e-15
3.36133e-16
2.28747e-16
4.48144e-18
4.17348e-24
2.58392e-23
1.38261e-22
5.87676e-22
2.23081e-21
7.34096e-21
2.07089e-20
5.0429e-20
1.07632e-19
2.06752e-19
3.64119e-19
5.8384e-19
3.73164e-18
1.83875e-16
8.18957e-17
3.14405e-16
1.78419e-16
1.60157e-16
5.10348e-18
1.3034e-24
8.90103e-24
5.28102e-23
2.49563e-22
1.05582e-21
3.84321e-21
1.19066e-20
3.16475e-20
7.3962e-20
1.57031e-19
3.36455e-19
6.43385e-19
1.13665e-18
1.55214e-17
9.89372e-18
7.69646e-17
7.12565e-17
6.09409e-17
4.23113e-18
3.21936e-25
2.48541e-24
1.69593e-23
9.108e-23
4.26251e-22
1.7103e-21
5.8579e-21
1.7243e-20
4.43368e-20
1.03041e-19
2.35006e-19
5.85777e-19
1.06584e-18
2.10176e-18
6.9918e-18
3.15142e-17
7.99372e-18
5.92841e-18
3.50859e-18
7.14243e-26
6.63535e-25
4.58812e-24
2.74585e-23
1.45052e-22
6.53309e-22
2.49911e-21
8.11335e-21
2.26209e-20
5.59809e-20
1.35136e-19
3.87502e-19
8.50211e-19
1.73502e-18
4.64929e-18
1.14374e-17
2.0365e-18
6.79195e-19
1.99805e-18
1.30669e-26
1.24141e-25
9.95753e-25
7.02237e-24
4.1996e-23
2.12848e-22
9.04946e-22
3.23197e-21
9.89517e-21
2.72943e-20
7.27103e-20
1.85958e-19
4.89712e-19
9.86521e-19
1.85585e-18
5.31402e-18
1.19939e-18
5.16791e-19
9.15824e-19
1.78445e-27
2.002e-26
1.96574e-25
1.56604e-24
1.05686e-23
5.95835e-23
2.8048e-22
1.1076e-21
3.7388e-21
1.1356e-20
3.29095e-20
8.527e-20
1.93562e-19
4.0996e-19
5.14068e-19
6.22745e-19
6.37936e-19
3.12753e-19
2.21951e-19
2.32063e-28
2.83796e-27
3.19789e-26
2.92839e-25
2.22514e-24
1.40268e-23
7.34247e-23
3.22674e-22
1.2198e-21
4.10542e-21
1.23641e-20
3.22546e-20
7.24559e-20
1.30592e-19
9.08075e-20
9.70744e-20
2.57141e-19
1.94916e-19
1.07037e-19
2.71857e-29
3.75578e-28
4.71989e-27
4.75708e-26
4.01846e-25
2.82097e-24
1.64493e-23
8.04812e-23
3.4037e-22
1.27465e-21
4.0127e-21
1.05339e-20
2.31209e-20
3.83894e-20
3.6522e-20
5.59359e-20
1.20876e-19
1.21479e-19
4.93695e-20
2.7648e-30
4.02413e-29
5.76363e-28
6.85007e-27
6.36411e-26
4.94306e-25
3.20284e-24
1.74206e-23
8.21464e-23
3.43086e-22
1.16994e-21
3.27687e-21
7.32488e-21
1.3361e-20
1.52836e-20
2.76343e-20
5.56492e-20
5.85919e-20
2.32273e-20
2.60338e-31
4.16341e-30
5.91979e-29
7.36851e-28
8.00122e-27
7.3062e-26
5.22496e-25
3.14435e-24
1.64137e-23
7.61939e-23
2.8823e-22
9.04312e-22
2.25555e-21
4.47474e-21
7.29926e-21
1.3274e-20
2.44524e-20
2.94672e-20
7.15939e-21
2.30357e-32
4.20812e-31
6.53477e-30
8.60588e-29
9.80906e-28
9.61031e-27
7.5482e-26
4.97061e-25
2.83417e-24
1.43797e-23
6.03317e-23
2.19317e-22
6.46211e-22
1.44192e-21
2.55716e-21
5.17799e-21
1.03481e-20
6.90759e-21
2.53569e-21
2.10879e-33
4.12842e-32
6.84878e-31
9.62828e-30
1.13837e-28
1.12635e-27
9.22691e-27
6.50787e-26
4.00104e-25
2.19779e-24
9.80925e-24
3.83711e-23
1.0695e-22
2.87332e-22
6.67694e-22
1.33757e-21
1.83406e-21
2.35621e-21
8.18663e-22
2.02101e-34
3.70075e-33
5.24662e-32
7.89519e-31
1.05714e-29
1.24108e-28
1.02158e-27
8.03481e-27
5.36005e-26
3.16703e-25
1.53305e-24
5.11631e-24
2.27461e-23
6.90599e-23
1.81001e-22
3.84758e-22
5.40733e-22
6.22232e-22
2.28329e-22
)
;

boundaryField
{
    leftWall
    {
        type            alphaContactAngle;
        contactAngleProperties 
        {
            mercury         
            {
                theta0          90;
            }
            air             
            {
                theta0          90;
            }
            oil             
            {
                theta0          90;
            }
        }
        value           nonuniform List<scalar> 
50
(
2.27174e-13
1.31069e-14
1.00908e-14
8.49994e-09
0.184378
0.940707
1
1
1
1
1
0.919104
0.198495
-1.79938e-17
-4.0141e-17
-5.18628e-17
-5.71638e-17
-5.65344e-17
-5.05696e-17
-4.08539e-17
-2.94214e-17
-1.83964e-17
-9.60999e-18
-3.97548e-18
-1.20771e-18
-2.38015e-19
-2.23721e-20
1.48717e-32
1.61278e-42
2.39119e-48
1.69526e-48
9.1615e-49
3.56159e-49
9.46219e-50
1.85857e-50
2.34709e-51
1.85446e-52
9.62383e-54
3.52105e-55
7.78109e-57
1.17808e-58
1.05892e-60
5.59717e-63
2.04656e-65
3.66653e-68
4.26807e-71
2.33273e-74
4.47358e-78
3.1051e-83
9.27891e-93
)
;
    }
    rightWall
    {
        type            alphaContactAngle;
        contactAngleProperties 
        {
            mercury         
            {
                theta0          90;
            }
            air             
            {
                theta0          90;
            }
            oil             
            {
                theta0          90;
            }
        }
        value           nonuniform List<scalar> 
50
(
1.16983e-12
1.32438e-12
2.92605e-12
6.56387e-12
1.24759e-11
2.00645e-11
3.03423e-11
3.65101e-11
4.30074e-11
4.90813e-11
5.90394e-11
6.02152e-11
6.03167e-11
6.11969e-11
5.78936e-11
5.52492e-11
5.10202e-11
4.64225e-11
4.00802e-11
3.47212e-11
2.94441e-11
2.53202e-11
1.90692e-11
1.2989e-11
1.04495e-11
6.11457e-12
3.98746e-12
3.19889e-12
2.23516e-12
1.35608e-12
7.15215e-13
2.73738e-13
6.11687e-14
5.83222e-15
2.03845e-16
6.29276e-18
4.48144e-18
5.10348e-18
4.23113e-18
3.50859e-18
1.99805e-18
9.15824e-19
2.21951e-19
1.07037e-19
4.93695e-20
2.32273e-20
7.15939e-21
2.53569e-21
8.18663e-22
2.28329e-22
)
;
    }
    lowerWall
    {
        type            alphaContactAngle;
        contactAngleProperties 
        {
            mercury         
            {
                theta0          90;
            }
            air             
            {
                theta0          90;
            }
            oil             
            {
                theta0          90;
            }
        }
        value           nonuniform List<scalar> 
62
(
2.27174e-13
3.608e-12
8.0158e-12
8.9442e-12
9.19643e-12
9.79335e-12
1.12655e-11
1.29685e-11
1.57955e-11
1.87425e-11
2.26185e-11
2.67127e-11
3.11975e-11
3.53806e-11
3.93096e-11
4.27711e-11
4.60128e-11
4.93597e-11
5.30668e-11
7.72123e-11
3.78175e-10
2.19915e-09
2.57073e-09
2.57073e-09
2.61117e-09
2.95476e-09
2.70615e-09
7.55072e-10
3.69672e-09
2.42598e-08
3.60761e-08
1.33229e-08
1.29943e-08
1.35191e-08
0.000629988
1.31992e-10
1.41953e-10
1.53113e-10
1.48135e-10
9.4049e-11
3.9234e-11
2.17179e-05
0.0021567
1.31992e-10
1.78944e-10
2.55257e-10
2.65931e-10
2.57975e-10
2.61012e-10
2.64046e-10
1.54086e-07
2.31216e-08
3.102e-10
5.59415e-10
9.90773e-10
6.44431e-10
3.16102e-10
3.129e-10
2.65222e-10
1.01754e-10
1.76192e-11
1.16983e-12
)
;
    }
    atmosphere
    {
        type            inletOutlet;
        inletValue      uniform 0;
        value           nonuniform List<scalar> 
46
(
0
0
0
0
0
0
0
0
0
0
0
0
0
0
0
0
0
0
0
0
0
0
0
0
1.05497e-37
1.46716e-36
1.83378e-35
2.02101e-34
3.70075e-33
5.24662e-32
7.89519e-31
1.05714e-29
1.24108e-28
1.02158e-27
8.03481e-27
5.36005e-26
3.16703e-25
1.53305e-24
5.11631e-24
2.27461e-23
6.90599e-23
1.81001e-22
3.84758e-22
5.40733e-22
6.22232e-22
2.28329e-22
)
;
    }
    defaultFaces
    {