/*--------------------------------*- C++ -*----------------------------------*\
  =========                 |
  \\      /  F ield         | OpenFOAM: The Open Source CFD Toolbox
   \\    /   O peration     | Website:  https://openfoam.org
    \\  /    A nd           | Version:  13
     \\/     M anipulation  |
\*---------------------------------------------------------------------------*/
FoamFile
{
    format      ascii;
    class       volScalarField;
    location    "0.5";
    object      k;
}
// * * * * * * * * * * * * * * * * * * * * * * * * * * * * * * * * * * * * * //

dimensions      [0 2 -2 0 0 0 0];

internalField   nonuniform List<scalar> 
2268
(
0.00229368
0.00564068
0.00859008
0.0107984
0.0126943
0.0143545
0.0158143
0.0170831
0.0181569
0.0190264
0.019685
0.0201344
0.0203883
0.0205009
0.0205956
0.0206238
0.0205098
0.0201091
0.019224
0.0176347
0.0151481
0.0114509
0.00577198
0.00436241
0.0118254
0.0173523
0.0219178
0.0257953
0.0291474
0.0320591
0.0345659
0.036679
0.038404
0.0397557
0.0407703
0.0415146
0.0421187
0.0426385
0.0430742
0.0432703
0.0428876
0.0414683
0.0384994
0.0335195
0.0258639
0.0135564
0.00601878
0.0143557
0.0212503
0.0270134
0.0319091
0.0361214
0.0397574
0.0428713
0.0454909
0.0476396
0.0493556
0.0507095
0.051816
0.0528487
0.0538774
0.0548705
0.0555743
0.0555288
0.0541565
0.0508318
0.0449623
0.0355562
0.0184922
0.0073335
0.0162188
0.0240347
0.0305699
0.0361186
0.0408808
0.0449764
0.0484732
0.0514129
0.0538349
0.0557993
0.0574099
0.0588296
0.0602606
0.0617857
0.0633203
0.064502
0.0647761
0.0635099
0.0600496
0.0537347
0.0432357
0.022437
0.00844782
0.0181008
0.0266019
0.0336257
0.0395909
0.0447146
0.0491201
0.0528805
0.0560462
0.0586689
0.0608278
0.0626573
0.0643684
0.0661761
0.0681782
0.0702287
0.071853
0.0724174
0.0712821
0.0678227
0.061329
0.0500405
0.0257786
0.00953011
0.0203209
0.0292656
0.0365365
0.0427381
0.0480874
0.0526999
0.0566458
0.0599777
0.0627554
0.0650739
0.0670969
0.0690813
0.0712632
0.0737285
0.076256
0.0782816
0.0791359
0.0782017
0.0749325
0.0685764
0.0568704
0.0290308
0.0105082
0.0227535
0.0318384
0.0391891
0.0455104
0.0510033
0.0557714
0.0598773
0.0633694
0.0663065
0.0687892
0.0710005
0.0732444
0.075805
0.0787515
0.0817692
0.0841822
0.085328
0.0847165
0.0819159
0.0761599
0.0648293
0.0334487
0.0112542
0.0246699
0.0337974
0.0412196
0.0476266
0.0532251
0.0581226
0.0623843
0.0660609
0.069211
0.07193
0.0743925
0.0769098
0.07984
0.0833291
0.0869802
0.0898448
0.0913398
0.0912157
0.0892264
0.0846883
0.0752944
0.0450845
0.0156767
0.0284098
0.0475806
0.0685536
0.0920272
0.121298
0.138811
0.145767
0.154329
0.170551
0.192047
0.202799
0.190848
0.167658
0.135187
0.0996967
0.0685089
0.0437234
0.0181376
0.027623
0.0592743
0.101036
0.152187
0.212287
0.283377
0.273615
0.242639
0.241261
0.26873
0.317593
0.367563
0.35796
0.289786
0.219003
0.161649
0.122041
0.0897157
0.0467954
0.0331562
0.0763294
0.133217
0.20773
0.282624
0.314511
0.269267
0.255144
0.26117
0.282831
0.312519
0.336345
0.330793
0.293904
0.242634
0.195413
0.15931
0.124336
0.0654729
0.0352639
0.0920533
0.157312
0.224358
0.262422
0.265348
0.257652
0.259586
0.270586
0.289066
0.309062
0.319854
0.31144
0.287438
0.252477
0.216379
0.185691
0.150602
0.0799606
0.0358093
0.107298
0.160525
0.201471
0.230608
0.244785
0.253513
0.264344
0.278646
0.296306
0.312383
0.318116
0.307728
0.28647
0.259406
0.231263
0.205338
0.171027
0.091414
0.0390184
0.108497
0.152986
0.188114
0.217747
0.238579
0.254761
0.270589
0.287523
0.305666
0.320986
0.325022
0.313276
0.290091
0.265792
0.242869
0.220642
0.187173
0.100731
0.056242
0.112245
0.155319
0.188841
0.21726
0.240104
0.259402
0.277999
0.296981
0.315916
0.331658
0.336265
0.323514
0.297185
0.272756
0.252886
0.233192
0.20019
0.108574
0.0938096
0.132647
0.167304
0.19666
0.222962
0.245989
0.266503
0.286551
0.306747
0.326567
0.342703
0.348455
0.336321
0.307326
0.28145
0.262729
0.244279
0.211191
0.115409
0.0118023
0.0263022
0.0357252
0.0433639
0.0499374
0.055695
0.0607731
0.0652632
0.0692405
0.0727854
0.0760055
0.0790631
0.0822025
0.0857558
0.0899317
0.0944876
0.0984486
0.100878
0.101866
0.101683
0.0999918
0.09613
0.0861948
0.0122541
0.0273283
0.0371991
0.0451716
0.0520084
0.0580077
0.0633539
0.0681862
0.0726258
0.0767939
0.0808243
0.084869
0.0890883
0.0936913
0.0987745
0.104164
0.109351
0.113773
0.117465
0.120783
0.123984
0.128016
0.134496
0.0124496
0.0276826
0.0380657
0.0464154
0.053554
0.0598389
0.0655069
0.0707451
0.0757206
0.0805956
0.0855331
0.090686
0.0961693
0.102067
0.108417
0.115035
0.121588
0.127776
0.133759
0.140105
0.147423
0.156409
0.166312
0.0127116
0.0278444
0.0387758
0.0474953
0.054935
0.0615233
0.0675466
0.0732336
0.0787889
0.0844151
0.0903107
0.0966473
0.10353
0.110941
0.118884
0.127176
0.135561
0.143842
0.152025
0.160405
0.169545
0.179449
0.189613
0.0133569
0.0282397
0.0396786
0.0487113
0.0564277
0.0633227
0.0697316
0.0759056
0.0820632
0.0884433
0.0952883
0.102803
0.11112
0.120242
0.130017
0.140273
0.150705
0.161108
0.171437
0.18167
0.191622
0.201228
0.210672
0.0148167
0.0293036
0.0409193
0.0502495
0.0582644
0.0654915
0.072318
0.0790463
0.085855
0.0929944
0.10075
0.109356
0.119007
0.129893
0.141721
0.153998
0.166251
0.17814
0.189715
0.20094
0.211362
0.220929
0.229812
0.016528
0.031232
0.0422862
0.0516348
0.0601377
0.0678825
0.0752126
0.0825765
0.0902211
0.0982173
0.10698
0.116806
0.12753
0.140202
0.154282
0.168778
0.182811
0.195194
0.206102
0.217118
0.227913
0.23783
0.24648
0.0181275
0.0357138
0.0446959
0.0532168
0.0613967
0.0691577
0.0767738
0.0845737
0.0927535
0.101475
0.11102
0.122036
0.134639
0.150051
0.16757
0.185402
0.20277
0.215322
0.22141
0.231224
0.242577
0.253131
0.261602
0.0191875
0.0375914
0.0472673
0.055424
0.0631093
0.070544
0.0778772
0.0854622
0.0936468
0.102609
0.112392
0.122979
0.135193
0.149685
0.166385
0.183795
0.200994
0.216107
0.229282
0.243588
0.256415
0.267161
0.274815
0.0199025
0.0387425
0.0493363
0.0576847
0.0652326
0.0724814
0.0796973
0.0871406
0.0951545
0.103947
0.113557
0.123888
0.134891
0.146897
0.160423
0.175025
0.190389
0.206502
0.223997
0.240757
0.254086
0.264828
0.273143
0.0204907
0.039655
0.0509019
0.0595665
0.0672266
0.0745124
0.0817576
0.0892335
0.0971947
0.105818
0.115143
0.125067
0.135453
0.146373
0.158325
0.17141
0.185515
0.200528
0.216144
0.231335
0.245035
0.257323
0.268164
0.0210321
0.0405425
0.0521253
0.0610045
0.0688073
0.0762031
0.0835544
0.0911135
0.0990861
0.107607
0.116703
0.126302
0.136295
0.146732
0.157903
0.170016
0.183086
0.196989
0.211287
0.225078
0.237992
0.249921
0.26096
0.0215244
0.041385
0.053105
0.0620698
0.0699456
0.0774106
0.0848287
0.0924371
0.100406
0.108839
0.117761
0.127126
0.136872
0.14702
0.157732
0.169155
0.181304
0.194031
0.206957
0.219507
0.231368
0.242524
0.253126
0.0219526
0.0421405
0.0538936
0.0628491
0.0707144
0.0781704
0.0855758
0.0931536
0.101052
0.109358
0.118098
0.127248
0.136769
0.146667
0.157009
0.167858
0.179191
0.19086
0.202572
0.213965
0.224838
0.235187
0.245167
0.0223115
0.0427922
0.0545306
0.0634216
0.0712124
0.0785878
0.0859011
0.0933655
0.101117
0.109233
0.117744
0.126639
0.135893
0.145491
0.155443
0.165746
0.176345
0.187102
0.197803
0.208215
0.218202
0.227768
0.237052
0.0226059
0.0433421
0.05505
0.0638528
0.0715329
0.0787796
0.0859435
0.0932313
0.100772
0.10864
0.116867
0.125451
0.134371
0.1436
0.153112
0.162867
0.172791
0.182759
0.192608
0.202176
0.211364
0.220174
0.228726
0.0228466
0.043798
0.0554768
0.0641894
0.0717467
0.0788428
0.0858265
0.092901
0.100191
0.107771
0.115672
0.123899
0.13243
0.141232
0.150263
0.159463
0.168748
0.178006
0.187105
0.195917
0.20436
0.212432
0.220236
0.0230488
0.0441647
0.0558258
0.0644594
0.071899
0.0788426
0.0856382
0.0924868
0.0995113
0.106784
0.11434
0.122184
0.130297
0.138642
0.147168
0.15581
0.164481
0.173077
0.181481
0.189585
0.197313
0.204655
0.211703
0.0232074
0.0444671
0.0561031
0.0646758
0.0720116
0.0788143
0.08543
0.092058
0.0988204
0.10579
0.113001
0.12046
0.128149
0.136031
0.144053
0.152145
0.160222
0.168186
0.17593
0.183352
0.190379
0.196994
0.203282
0.0233053
0.0447068
0.0563304
0.0648422
0.0720886
0.0787701
0.0852226
0.0916457
0.0981625
0.104846
0.111729
0.11882
0.126101
0.133535
0.141068
0.148631
0.15614
0.1635
0.170611
0.177373
0.183711
0.189606
0.195129
0.0233447
0.0448673
0.0564922
0.0649672
0.0721422
0.0787107
0.0850153
0.0912535
0.0975476
0.103972
0.110555
0.117305
0.124207
0.131222
0.138298
0.145364
0.152337
0.159127
0.165638
0.171768
0.177439
0.182626
0.187385
0.0233307
0.0449493
0.0565795
0.0650306
0.0721501
0.0786277
0.0848056
0.0908813
0.0969758
0.103161
0.109473
0.115916
0.122475
0.129111
0.135769
0.14238
0.14886
0.155119
0.16106
0.166588
0.171626
0.176142
0.180175
0.0232701
0.0449598
0.0565938
0.065026
0.0720985
0.0784971
0.0845631
0.090494
0.0964111
0.102387
0.108456
0.114626
0.120879
0.127175
0.133458
0.139658
0.145693
0.151472
0.156899
0.161884
0.16635
0.170257
0.173629
0.0231718
0.0449104
0.0565437
0.0649566
0.0719836
0.0783072
0.0842683
0.0900654
0.0958206
0.101607
0.107461
0.113388
0.11937
0.125367
0.131322
0.137164
0.14281
0.148171
0.153153
0.157667
0.161638
0.165018
0.167816
0.0230471
0.0448182
0.0564451
0.0648337
0.0718109
0.0780568
0.083913
0.0895797
0.0951812
0.100792
0.106449
0.112159
0.117903
0.12364
0.129312
0.134848
0.140164
0.145173
0.149784
0.153909
0.157473
0.160422
0.162749
0.0229098
0.0447057
0.0563207
0.0646772
0.0715954
0.0777548
0.0834993
0.0890323
0.0944809
0.0999221
0.105395
0.110906
0.116437
0.121946
0.127376
0.132654
0.137697
0.14242
0.146733
0.150551
0.153796
0.156415
0.158383
0.0227762
0.0446012
0.0562007
0.0645153
0.0713612
0.0774202
0.0830403
0.0884294
0.093719
0.0989892
0.104281
0.109604
0.11494
0.120247
0.125467
0.130528
0.135348
0.139843
0.143924
0.147509
0.150523
0.152906
0.154625
0.0226656
0.0445388
0.0561223
0.064384
0.0711412
0.0770812
0.0825589
0.0877883
0.0929062
0.0979971
0.103106
0.108243
0.113392
0.118513
0.123547
0.128422
0.133059
0.137372
0.141277
0.144694
0.147549
0.14978
0.151349
0.0225999
0.0445585
0.05613
0.0643273
0.0709764
0.0767749
0.0820874
0.087136
0.0920639
0.0969608
0.101875
0.106822
0.111785
0.116726
0.121587
0.126298
0.130778
0.134946
0.138718
0.142016
0.144768
0.146915
0.148411
0.0226044
0.0447064
0.056275
0.0643961
0.0709151
0.0765461
0.0816664
0.0865084
0.0912228
0.0959054
0.100609
0.105352
0.110122
0.114881
0.119574
0.12413
0.128471
0.132515
0.136182
0.139395
0.142085
0.144193
0.145673
0.0227081
0.0450351
0.0566156
0.064648
0.0710121
0.0764457
0.0813432
0.0859488
0.0904219
0.0948649
0.0993359
0.103857
0.108419
0.112987
0.117506
0.121908
0.126115
0.130046
0.133622
0.136769
0.13942
0.141517
0.143014
0.0229457
0.0456053
0.057217
0.0651464
0.0713271
0.0765298
0.0811702
0.0855062
0.0897066
0.0938805
0.0980917
0.102367
0.1067
0.11106
0.115394
0.119634
0.123704
0.127523
0.131011
0.134098
0.136717
0.138814
0.140343
0.0233602
0.0464877
0.0581525
0.06596
0.0719234
0.0768573
0.0812029
0.0852331
0.0891266
0.0929991
0.0969198
0.10092
0.104998
0.109128
0.113258
0.117322
0.121244
0.124943
0.12834
0.131362
0.133946
0.13604
0.1376
0.0240077
0.0477673
0.0595044
0.067162
0.0728661
0.0774879
0.0814976
0.085184
0.0887345
0.0922711
0.095868
0.0995611
0.103355
0.107225
0.111126
0.114994
0.118753
0.122319
0.125613
0.128561
0.1311
0.133179
0.134758
0.0249666
0.0495496
0.0613664
0.068829
0.0742196
0.0784788
0.0821086
0.0854121
0.0885836
0.0917493
0.0949875
0.098339
0.101813
0.105392
0.109035
0.112681
0.116254
0.119671
0.122849
0.12571
0.12819
0.130239
0.13182
0.026353
0.0519715
0.0638458
0.0710393
0.0760439
0.0798814
0.0830849
0.0859672
0.0887254
0.091487
0.0943325
0.0973065
0.100424
0.103674
0.107023
0.110413
0.113774
0.117021
0.120066
0.122828
0.125236
0.127241
0.12881
0.0283527
0.0552192
0.0670661
0.0738681
0.0783885
0.081736
0.0844658
0.0868923
0.0892082
0.0915372
0.0939589
0.0965205
0.0992423
0.102121
0.105131
0.108225
0.111336
0.114384
0.117278
0.119928
0.122256
0.12421
0.125763
0.0312844
0.0595556
0.0711651
0.0773781
0.0812843
0.0840651
0.0862777
0.0882217
0.0900753
0.0919517
0.0939253
0.0960431
0.0983297
0.10079
0.103409
0.106151
0.108961
0.111767
0.114479
0.117002
0.119247
0.121154
0.122703
0.03574
0.0653603
0.0762804
0.0815986
0.0847286
0.0868664
0.0885294
0.0899788
0.0913645
0.0927815
0.0942934
0.0959434
0.0977582
0.0997498
0.101915
0.104234
0.106668
0.109161
0.111635
0.113998
0.116153
0.118029
0.119614
0.0429745
0.0731696
0.0824916
0.0864825
0.0886661
0.0901061
0.0912121
0.0921773
0.0931095
0.0940773
0.0951287
0.0962986
0.0976124
0.0990864
0.100727
0.102532
0.104482
0.106547
0.108676
0.110797
0.112825
0.114685
0.116382
0.056339
0.0836067
0.0896487
0.0918355
0.0929712
0.0937201
0.0943054
0.0948276
0.095344
0.0958925
0.096502
0.0971953
0.0979916
0.0989063
0.0999514
0.101134
0.102458
0.103918
0.105502
0.107188
0.108943
0.110738
0.112637
0.0876972
0.0962213
0.0969242
0.0972371
0.0974582
0.0976381
0.0977978
0.0979523
0.0981137
0.0982921
0.0984965
0.0987351
0.0990158
0.0993464
0.0997342
0.100187
0.100714
0.101325
0.102035
0.102872
0.103882
0.105152
0.106919
0.0748616
0.0733161
0.0779412
0.0895527
0.141167
0.146959
0.153824
0.161927
0.174209
0.180303
0.186707
0.19311
0.197225
0.202849
0.208531
0.214207
0.217608
0.222678
0.227804
0.233048
0.236179
0.240811
0.245507
0.250363
0.252193
0.256305
0.260564
0.265178
0.266357
0.269762
0.273572
0.278055
0.278938
0.281802
0.28505
0.28938
0.278603
0.282794
0.287874
0.294124
0.27578
0.281294
0.287196
0.293682
0.268861
0.274555
0.280601
0.287131
0.260915
0.266485
0.272356
0.278643
0.252581
0.257827
0.263334
0.269215
0.243963
0.248798
0.253863
0.259273
0.235081
0.239473
0.244072
0.248987
0.226011
0.229954
0.23408
0.238495
0.216888
0.220383
0.224036
0.227951
0.207871
0.210923
0.214111
0.217529
0.199121
0.201743
0.204479
0.207417
0.190775
0.192982
0.195277
0.197745
0.182987
0.184793
0.186655
0.18865
0.175896
0.177322
0.178766
0.180297
0.169596
0.170677
0.171736
0.172829
0.164119
0.164906
0.165631
0.16634
0.159435
0.159992
0.160451
0.160847
0.155455
0.155849
0.156117
0.156284
0.152046
0.15234
0.15249
0.152513
0.149049
0.1493
0.149395
0.149345
0.146308
0.146555
0.146642
0.146577
0.14368
0.143949
0.14406
0.144018
0.141055
0.14136
0.14151
0.14151
0.13836
0.138701
0.138895
0.138943
0.135557
0.135931
0.136164
0.136256
0.132645
0.133044
0.133307
0.133435
0.129652
0.130068
0.130355
0.130509
0.126621
0.127056
0.127366
0.127542
0.1236
0.12407
0.124415
0.124621
0.120613
0.121164
0.121588
0.121852
0.117621
0.118363
0.118964
0.119353
0.114404
0.11561
0.116614
0.117259
0.109666
0.11252
0.114332
0.115387
0.129893
0.160417
0.186586
0.211141
0.234901
0.257339
0.278812
0.300559
0.322379
0.343318
0.360125
0.366917
0.356041
0.326512
0.298702
0.279396
0.260872
0.226726
0.125852
0.176567
0.193976
0.213192
0.233597
0.255051
0.277419
0.301085
0.325299
0.348733
0.370092
0.386338
0.391817
0.379204
0.350959
0.321753
0.299173
0.277476
0.240028
0.133868
0.203505
0.217811
0.234798
0.253973
0.275809
0.300666
0.327664
0.354282
0.378237
0.398303
0.411947
0.414353
0.400556
0.37375
0.344472
0.319118
0.293524
0.251847
0.140358
0.223808
0.237439
0.253966
0.274084
0.29859
0.327453
0.358539
0.387295
0.41021
0.42671
0.435794
0.433847
0.418764
0.393409
0.364949
0.337811
0.308559
0.262425
0.145722
0.242209
0.255664
0.272842
0.295219
0.323781
0.357995
0.394509
0.425883
0.445509
0.45519
0.45737
0.450566
0.434029
0.409847
0.382455
0.354257
0.321884
0.271508
0.14991
0.259061
0.272783
0.291458
0.317263
0.351314
0.393051
0.438731
0.475206
0.486997
0.485168
0.47821
0.466079
0.447664
0.423907
0.397154
0.368064
0.332949
0.278657
0.152655
0.27388
0.288622
0.309585
0.340075
0.381441
0.434307
0.498723
0.547223
0.535794
0.5172
0.500304
0.482384
0.46119
0.436667
0.409643
0.379333
0.341535
0.283514
0.153636
0.287081
0.303424
0.327261
0.364425
0.414579
0.472921
0.535508
0.577738
0.577071
0.549563
0.524431
0.500262
0.475166
0.448645
0.4204
0.38839
0.347802
0.286035
0.152608
0.299221
0.317873
0.343732
0.380332
0.426032
0.475822
0.521994
0.558496
0.583685
0.579122
0.550103
0.519178
0.489141
0.459539
0.429219
0.39501
0.351422
0.286144
0.150381
0.306405
0.326134
0.351057
0.380673
0.419719
0.466222
0.511728
0.54967
0.582236
0.60044
0.576657
0.537848
0.502071
0.468643
0.435659
0.398998
0.352361
0.283501
0.147176
0.305585
0.324154
0.347754
0.377751
0.416423
0.461309
0.506127
0.546861
0.584569
0.609594
0.598382
0.555202
0.512972
0.475329
0.439208
0.39998
0.35043
0.278237
0.142807
0.299017
0.317559
0.341197
0.371774
0.410326
0.454886
0.50084
0.544899
0.586466
0.614996
0.612524
0.569028
0.521124
0.479273
0.439709
0.397693
0.34545
0.27046
0.137246
0.29003
0.308229
0.331787
0.362554
0.401351
0.446529
0.494416
0.541538
0.584996
0.614862
0.618507
0.578589
0.527
0.481087
0.437725
0.39251
0.337668
0.260534
0.13065
0.279878
0.297393
0.320552
0.351265
0.390234
0.43625
0.485882
0.535114
0.57913
0.609152
0.617697
0.586214
0.532377
0.482389
0.434788
0.385799
0.328193
0.24941
0.12343
0.269111
0.285747
0.308209
0.338497
0.377382
0.423886
0.474606
0.524859
0.5687
0.598101
0.608927
0.590926
0.539694
0.485124
0.433004
0.379739
0.319055
0.238796
0.116305
0.257959
0.273571
0.295079
0.324587
0.363004
0.409471
0.460518
0.510893
0.554101
0.582929
0.594204
0.59013
0.550101
0.490845
0.434298
0.376709
0.312734
0.230918
0.110268
0.246583
0.261051
0.281383
0.30978
0.347344
0.393248
0.443965
0.493868
0.536259
0.564815
0.57662
0.57868
0.558651
0.500921
0.44005
0.378538
0.311367
0.227882
0.106386
0.235144
0.248364
0.267323
0.294329
0.330673
0.375556
0.425469
0.474632
0.516247
0.544575
0.557553
0.560276
0.556122
0.514687
0.449993
0.385609
0.316033
0.230832
0.105454
0.223824
0.235701
0.253113
0.278491
0.313233
0.356673
0.405454
0.453816
0.49497
0.5234
0.537497
0.540804
0.54017
0.521861
0.463919
0.397119
0.326056
0.239513
0.107624
0.212828
0.223282
0.238979
0.262403
0.295159
0.336783
0.384121
0.431699
0.472791
0.501824
0.517146
0.521736
0.521015
0.512899
0.475433
0.410775
0.339557
0.252576
0.11228
0.202256
0.211173
0.224961
0.246156
0.276576
0.316043
0.361713
0.408385
0.44971
0.479796
0.496729
0.502774
0.502355
0.496665
0.474735
0.425058
0.3562
0.268534
0.118239
0.192261
0.199559
0.211257
0.229919
0.257612
0.29453
0.338244
0.383877
0.425409
0.456904
0.475789
0.483705
0.484424
0.480186
0.467513
0.437476
0.377891
0.28353
0.12385
0.183029
0.188674
0.198137
0.21396
0.238483
0.272362
0.3137
0.358019
0.399524
0.432556
0.453613
0.463788
0.466476
0.464751
0.45871
0.442924
0.394855
0.293418
0.126808
0.17474
0.178768
0.185934
0.198671
0.219567
0.249809
0.288186
0.330726
0.371853
0.406127
0.429475
0.442118
0.447165
0.447903
0.445251
0.435514
0.394024
0.291531
0.127136
0.167528
0.170065
0.175002
0.184559
0.201432
0.227392
0.262059
0.302152
0.342386
0.377308
0.402838
0.41795
0.425445
0.428551
0.428053
0.419104
0.382785
0.291219
0.128219
0.161444
0.162709
0.16563
0.172123
0.184789
0.2059
0.236017
0.272798
0.311422
0.346396
0.373486
0.39095
0.400724
0.406134
0.408179
0.40252
0.370248
0.280541
0.129314
0.156446
0.156717
0.157968
0.161739
0.170341
0.186305
0.211088
0.243558
0.279672
0.314014
0.341962
0.361335
0.373065
0.380296
0.38472
0.382316
0.353033
0.261649
0.113162
0.152391
0.151973
0.151972
0.153545
0.158574
0.169519
0.18848
0.215654
0.248201
0.281086
0.309322
0.329986
0.343203
0.351539
0.357173
0.356631
0.323822
0.234661
0.0968422
0.149075
0.148246
0.147412
0.147385
0.149579
0.156097
0.169265
0.190421
0.218283
0.248718
0.276596
0.29816
0.312429
0.32111
0.326677
0.327205
0.290427
0.204175
0.0842551
0.146264
0.145248
0.14394
0.142875
0.143039
0.146047
0.15403
0.168983
0.191188
0.218005
0.244691
0.266756
0.281889
0.290474
0.294939
0.296458
0.260367
0.176286
0.073693
0.143731
0.142687
0.14117
0.139513
0.138374
0.138873
0.142701
0.151927
0.16795
0.18992
0.214241
0.23618
0.252085
0.260601
0.263305
0.264583
0.230158
0.148265
0.0628494
0.141288
0.14031
0.138756
0.136823
0.134933
0.133808
0.134643
0.139161
0.149171
0.165321
0.185769
0.206424
0.222788
0.231685
0.232302
0.226579
0.181577
0.121654
0.0531422
0.138801
0.137929
0.136428
0.134411
0.132142
0.130065
0.128949
0.130019
0.134897
0.144961
0.160071
0.177665
0.193463
0.203147
0.203885
0.192949
0.157401
0.0981426
0.0466034
0.136189
0.135425
0.134005
0.131999
0.129571
0.126988
0.124716
0.12353
0.12459
0.129255
0.138342
0.150986
0.164149
0.173505
0.174725
0.165059
0.137651
0.0841945
0.0366596
0.133428
0.132747
0.131393
0.129425
0.126944
0.124117
0.121219
0.118703
0.11728
0.117921
0.121572
0.128405
0.136922
0.143794
0.144284
0.135142
0.111523
0.0692927
0.0289646
0.130544
0.129908
0.128584
0.126632
0.124127
0.121185
0.117971
0.114741
0.111886
0.109974
0.109674
0.111412
0.11472
0.117627
0.116268
0.107324
0.0876067
0.0557217
0.0259962
0.127604
0.126966
0.125623
0.123642
0.1211
0.11809
0.114721
0.111134
0.107531
0.104202
0.101509
0.0997554
0.0988543
0.0978444
0.0943239
0.0855749
0.069796
0.046509
0.0231019
0.12471
0.124032
0.122616
0.120552
0.117939
0.114866
0.111411
0.107653
0.10369
0.0996529
0.0956996
0.0919666
0.0884214
0.0846051
0.0792851
0.0706468
0.0575632
0.0396534
0.020465
0.121993
0.121255
0.119717
0.117523
0.114805
0.111656
0.108139
0.104297
0.100172
0.0958099
0.0912609
0.0865551
0.0816377
0.0762516
0.0697755
0.0612942
0.0497666
0.0348589
0.0183128
0.119604
0.118808
0.117122
0.114776
0.111936
0.108702
0.105128
0.101237
0.0970394
0.0925396
0.0877351
0.0826045
0.0770769
0.0709791
0.0639683
0.0555657
0.0451594
0.0319107
0.0167136
0.117714
0.116866
0.115045
0.112569
0.109626
0.10632
0.102696
0.0987684
0.0945319
0.0899707
0.0850589
0.0797533
0.0739789
0.0676044
0.060414
0.0521119
0.0423035
0.0302355
0.0157494
0.116215
0.115504
0.113691
0.111193
0.108225
0.104894
0.101248
0.0972947
0.0930245
0.0884132
0.0834255
0.078011
0.0720965
0.0655747
0.0582916
0.0500414
0.0405212
0.0291017
0.0151192
)
;

boundaryField
{
    leftWall
    {
        type            kqRWallFunction;
        value           nonuniform List<scalar> 
50
(
0.00229368
0.00436241
0.00601878
0.0073335
0.00844782
0.00953011
0.0105082
0.0112542
0.0118023
0.0122541
0.0124496
0.0127116
0.0133569
0.0148167
0.016528
0.0181275
0.0191875
0.0199025
0.0204907
0.0210321
0.0215244
0.0219526
0.0223115
0.0226059
0.0228466
0.0230488
0.0232074
0.0233053
0.0233447
0.0233307
0.0232701
0.0231718
0.0230471
0.0229098
0.0227762
0.0226656
0.0225999
0.0226044
0.0227081
0.0229457
0.0233602
0.0240077
0.0249666
0.026353
0.0283527
0.0312844
0.03574
0.0429745
0.056339
0.0876972
)
;
    }
    rightWall
    {
        type            kqRWallFunction;
        value           nonuniform List<scalar> 
50
(
0.0181376
0.0467954
0.0654729
0.0799606
0.091414
0.100731
0.108574
0.115409
0.125852
0.133868
0.140358
0.145722
0.14991
0.152655
0.153636
0.152608
0.150381
0.147176
0.142807
0.137246
0.13065
0.12343
0.116305
0.110268
0.106386
0.105454
0.107624
0.11228
0.118239
0.12385
0.126808
0.127136
0.128219
0.129314
0.113162
0.0968422
0.0842551
0.073693
0.0628494
0.0531422
0.0466034
0.0366596
0.0289646
0.0259962
0.0231019
0.020465
0.0183128
0.0167136
0.0157494
0.0151192
)
;
    }
    lowerWall
    {
        type            kqRWallFunction;
        value           nonuniform List<scalar> 
62
(
0.00229368
0.00564068
0.00859008
0.0107984
0.0126943
0.0143545
0.0158143
0.0170831
0.0181569
0.0190264
0.019685
0.0201344
0.0203883
0.0205009
0.0205956
0.0206238
0.0205098
0.0201091
0.019224
0.0176347
0.0151481
0.0114509
0.00577198
0.00577198
0.0135564
0.0184922
0.022437
0.0257786
0.0290308
0.0334487
0.0450845
0.0748616
0.0733161
0.0779412
0.0895527
0.0156767
0.027623
0.0331562
0.0352639
0.0358093
0.0390184
0.056242
0.0938096
0.0156767
0.0284098
0.0475806
0.0685536
0.0920272
0.121298
0.138811
0.145767
0.154329
0.170551
0.192047
0.202799
0.190848
0.167658
0.135187
0.0996967
0.0685089
0.0437234
0.0181376
)
;
    }
    atmosphere
    {
        type            inletOutlet;
        inletValue      uniform 0.1;
        value           nonuniform List<scalar> 
46
(
0.1
0.1
0.1
0.1
0.1
0.1
0.1
0.1
0.1
0.1
0.1
0.1
0.1
0.1
0.1
0.1
0.1
0.1
0.1
0.1
0.1
0.1
0.1
0.1
0.11252
0.114332
0.115387
0.116215
0.115504
0.113691
0.111193
0.108225
0.104894
0.101248
0.0972947
0.0930245
0.0884132
0.0834255
0.078011
0.0720965
0.0655747
0.0582916
0.0500414
0.0405212
0.0291017
0.0151192
)
;
    }
    defaultFaces
    {
        type            empty;
    }
}


// ************************************************************************* //
