/*--------------------------------*- C++ -*----------------------------------*\
  =========                 |
  \\      /  F ield         | OpenFOAM: The Open Source CFD Toolbox
   \\    /   O peration     | Website:  https://openfoam.org
    \\  /    A nd           | Version:  13
     \\/     M anipulation  |
\*---------------------------------------------------------------------------*/
FoamFile
{
    format      ascii;
    class       volScalarField;
    location    "0.5";
    object      nut;
}
// * * * * * * * * * * * * * * * * * * * * * * * * * * * * * * * * * * * * * //

dimensions      [0 2 -1 0 0 0 0];

internalField   nonuniform List<scalar> 
2268
(
3.20157e-05
5.01831e-05
6.18909e-05
6.93603e-05
7.51837e-05
7.99367e-05
8.38904e-05
8.71744e-05
8.98496e-05
9.19465e-05
9.34897e-05
9.45156e-05
9.50809e-05
9.53778e-05
9.5639e-05
9.57332e-05
9.54809e-05
9.4528e-05
9.23683e-05
8.83619e-05
8.1736e-05
7.08068e-05
5.02172e-05
9.32739e-05
0.000317023
0.000454313
0.000556269
0.000633991
0.000694766
0.000742787
0.000780414
0.000809041
0.000829657
0.000843246
0.000851092
0.000854962
0.000858034
0.000856055
0.000849089
0.000833495
0.000802537
0.000750055
0.000671411
0.000563634
0.000421904
0.000162977
0.00010963
0.000451809
0.000740852
0.00097096
0.00115451
0.00130233
0.00142168
0.00151711
0.00159152
0.00164706
0.00168587
0.00171077
0.00172568
0.00173608
0.00173712
0.00172462
0.00168814
0.0016134
0.0014895
0.00131014
0.00107111
0.000752057
0.000190507
0.000121145
0.00052345
0.000931845
0.00127379
0.00155517
0.00178752
0.00197944
0.00213663
0.0022628
0.00236072
0.00243321
0.00248411
0.00251903
0.00254315
0.00255168
0.00253569
0.00247874
0.00236163
0.00217115
0.0018993
0.00153505
0.00103003
0.000209845
0.000130173
0.000586124
0.00108462
0.00151374
0.00187584
0.00218169
0.00243981
0.00265599
0.00283403
0.00297679
0.0030872
0.00316945
0.00323031
0.0032722
0.00329083
0.00327274
0.00319736
0.00304328
0.00279659
0.00244597
0.00196657
0.00127394
0.000224979
0.000138355
0.000665509
0.00123049
0.00172203
0.00214651
0.00251303
0.00282882
0.00309883
0.00332639
0.00351392
0.00366392
0.00378016
0.0038692
0.00393171
0.00396218
0.00394361
0.00385333
0.00366998
0.00337987
0.00296688
0.00238629
0.00151019
0.000239023
0.000145254
0.000768464
0.00137729
0.00191161
0.00238325
0.00279915
0.00316456
0.00348312
0.00375722
0.00398849
0.00417849
0.00432973
0.00444754
0.00453212
0.00457579
0.00455949
0.00445955
0.00425625
0.0039375
0.00348188
0.00282246
0.00177765
0.000257693
0.000150254
0.000865999
0.00151109
0.00208023
0.00259062
0.00304854
0.00345774
0.0038207
0.00413887
0.00441293
0.00464311
0.00482994
0.00497676
0.00508415
0.0051424
0.00513217
0.00502922
0.00481703
0.00448594
0.00401159
0.00331049
0.00214205
0.000303644
8.38954e-05
0.000114457
0.00014873
0.000178708
0.000205548
0.000233501
0.000249025
0.000249014
0.000250357
0.000258655
0.00027579
0.000292769
0.00029091
0.000282312
0.000261806
0.000229041
0.000187596
0.000145641
9.29706e-05
0.000262255
0.000714619
0.00116122
0.00153335
0.00178186
0.00198416
0.00191889
0.0017716
0.00171617
0.00171272
0.001736
0.0017348
0.00152902
0.00115022
0.000860698
0.000688991
0.000619123
0.000574289
0.000340508
0.000288235
0.00114553
0.00194291
0.00259486
0.00295211
0.00310694
0.00306551
0.00317287
0.00323985
0.00317922
0.00300348
0.00273432
0.00231711
0.0017739
0.00137896
0.00116878
0.0011052
0.00103821
0.000399798
0.000297298
0.00142454
0.00244169
0.00317652
0.00354198
0.00380126
0.00416111
0.00450138
0.00467878
0.00462694
0.00435188
0.00386265
0.00316586
0.00239034
0.00189719
0.00166509
0.00160455
0.00147627
0.000439824
0.000299324
0.00158047
0.0027137
0.00357002
0.00415947
0.00473285
0.00532513
0.00578857
0.00602725
0.00599848
0.00568252
0.00504399
0.00409205
0.00305506
0.00244382
0.00218199
0.00210549
0.00187222
0.000468835
0.000312463
0.00158872
0.00295278
0.00411307
0.00499968
0.00578857
0.00649056
0.00699857
0.00725593
0.00723561
0.00689646
0.0061662
0.0050317
0.00376543
0.00302554
0.00272069
0.00260155
0.00222078
0.000490919
0.000380124
0.00166198
0.00340708
0.0048688
0.0059607
0.0068576
0.00758957
0.00809416
0.00834232
0.00831229
0.00795363
0.00717923
0.00595043
0.00452306
0.00365389
0.00328594
0.00309034
0.00252358
0.00050866
0.000492111
0.00208483
0.00415967
0.00577078
0.00694749
0.00787459
0.00859104
0.00906684
0.00928911
0.00924213
0.00886887
0.00808125
0.00683252
0.00533135
0.00434692
0.00388714
0.0035747
0.00278775
0.000523639
0.000153833
0.000959542
0.00166521
0.00228811
0.00285448
0.00337253
0.00384561
0.00427541
0.00466254
0.00500662
0.00530603
0.00555775
0.00575765
0.00590316
0.00598374
0.00598501
0.00588929
0.00568219
0.00535838
0.00489662
0.00422136
0.00318321
0.00161443
0.000156708
0.00101633
0.00179534
0.00249009
0.00312918
0.00372263
0.00427472
0.00478736
0.00526074
0.0056931
0.00608002
0.00641362
0.00668134
0.00687525
0.00698679
0.00701003
0.00694474
0.00679171
0.00655331
0.00621522
0.00576116
0.00519034
0.00455736
0.000157981
0.00102665
0.0018686
0.00263583
0.00334963
0.00401938
0.00464989
0.00524335
0.00579948
0.00631507
0.00678326
0.00719311
0.0075296
0.00778026
0.00794273
0.00801621
0.00800817
0.00793141
0.00780189
0.00763425
0.00744896
0.00728653
0.00716864
0.000159696
0.00100555
0.00190696
0.00274822
0.00353899
0.00428664
0.00499565
0.00566781
0.00630193
0.00689348
0.00743414
0.00791221
0.00831422
0.00862695
0.00885336
0.00899678
0.00906793
0.00908449
0.00906883
0.00904567
0.00904501
0.00908102
0.00916784
0.000163712
0.000958209
0.001925
0.00284367
0.00371294
0.00453886
0.00532548
0.00607286
0.00677792
0.00743539
0.00803684
0.00857164
0.00902996
0.009406
0.00969986
0.00992051
0.0100771
0.0101856
0.0102687
0.0103526
0.0104497
0.0105642
0.0107166
0.000172381
0.000875972
0.00192016
0.00292529
0.00387555
0.00477946
0.00564122
0.00645895
0.00722606
0.00793778
0.00858677
0.00916445
0.00966494
0.0100944
0.0104556
0.0107513
0.010988
0.0111739
0.0113251
0.0114659
0.0116069
0.0117568
0.0119269
0.000181989
0.000934339
0.00192871
0.00298069
0.00400937
0.00499017
0.00591956
0.00679851
0.00762353
0.00838214
0.00907101
0.00968494
0.0102131
0.0106823
0.0111005
0.0114638
0.0117729
0.0120184
0.0121941
0.0123551
0.012522
0.012695
0.0128725
0.000190499
0.0010961
0.00204921
0.00310471
0.00416617
0.00518523
0.00615107
0.00706335
0.00791783
0.00870753
0.00942531
0.0100714
0.0106406
0.0111605
0.0116416
0.0120683
0.0124496
0.0127412
0.0128783
0.0130393
0.013229
0.0134252
0.0136109
0.000195874
0.00121005
0.0022541
0.0033361
0.00441146
0.00544322
0.00641519
0.00732701
0.00817963
0.00897056
0.00969373
0.0103406
0.0109196
0.0114482
0.0119385
0.0123783
0.0127661
0.0130777
0.0133125
0.0135522
0.0137806
0.0139921
0.014175
0.000199563
0.00129985
0.00247757
0.00362429
0.00472409
0.00576154
0.0067291
0.00762623
0.00845807
0.00922741
0.00993366
0.0105731
0.011142
0.0116477
0.012106
0.0125181
0.0128871
0.0132183
0.0135309
0.0138317
0.0140806
0.0142905
0.0144653
0.000202613
0.00137997
0.00268869
0.00391529
0.005052
0.00609979
0.00706103
0.00794109
0.00874762
0.00948761
0.0101652
0.0107807
0.011332
0.0118208
0.0122605
0.0126598
0.0130242
0.0133619
0.0136793
0.0139729
0.0142229
0.014433
0.0146105
0.000205378
0.00145381
0.00287348
0.00417649
0.00535383
0.00641615
0.00737428
0.00823909
0.00902187
0.00973287
0.0103797
0.0109662
0.0114934
0.0119646
0.0123896
0.0127783
0.0131376
0.0134732
0.0137857
0.0140618
0.0142933
0.0144827
0.0146409
0.000207839
0.00151895
0.00302714
0.00439504
0.00560985
0.00668736
0.0076444
0.00849672
0.00925906
0.00994445
0.0105632
0.0111222
0.0116259
0.0120792
0.0124902
0.012867
0.0132153
0.0135374
0.0138301
0.0140829
0.0142894
0.0144538
0.0145882
0.00020994
0.00157425
0.00315111
0.00457053
0.00581622
0.00690669
0.00786291
0.00870447
0.00944913
0.0101124
0.0107069
0.011242
0.0117246
0.0121608
0.0125573
0.0129201
0.0132525
0.0135545
0.0138218
0.014047
0.0142266
0.0143648
0.0144733
0.000211675
0.00162021
0.00324992
0.00470855
0.00597763
0.00707738
0.00803169
0.00886311
0.00959193
0.0102358
0.0108092
0.0113236
0.0117873
0.0122071
0.0125884
0.0129354
0.0132495
0.0135292
0.0137704
0.013968
0.0141201
0.0142309
0.0143108
0.000213085
0.00165804
0.00332867
0.00481646
0.00610202
0.00720711
0.00815789
0.00897917
0.00969331
0.0103197
0.0108744
0.0113702
0.0118164
0.0122201
0.0125859
0.0129164
0.0132117
0.0134694
0.0136859
0.013857
0.0139817
0.0140635
0.0141116
0.000214228
0.00168879
0.00339178
0.00490108
0.0061975
0.00730452
0.00825022
0.00906124
0.00976151
0.0103718
0.0109095
0.0113882
0.0118181
0.0122061
0.0125563
0.0128704
0.0131474
0.0133845
0.0135779
0.0137239
0.0138211
0.0138724
0.0138855
0.000215176
0.00171272
0.00344242
0.00496778
0.00627082
0.00737722
0.0083168
0.00911761
0.00980484
0.0104004
0.0109224
0.0113853
0.0117997
0.0121726
0.0125077
0.012806
0.0130658
0.0132838
0.0134556
0.0135774
0.0136472
0.0136666
0.0136422
0.000215959
0.00173365
0.0034828
0.00502034
0.00632684
0.00743104
0.00836409
0.00915513
0.00983033
0.0104124
0.0109201
0.0113685
0.0117685
0.0121272
0.012448
0.0127314
0.0129752
0.0131755
0.0133273
0.013426
0.0134686
0.0134555
0.0133917
0.000216467
0.00175329
0.00351823
0.00506121
0.00636839
0.00746995
0.0083966
0.0091787
0.00984318
0.0104133
0.0109083
0.0113435
0.0117303
0.0120758
0.0123834
0.0126532
0.0128824
0.0130665
0.0131997
0.0132765
0.0132929
0.0132476
0.013144
0.000216702
0.0017699
0.00354758
0.00509452
0.00640033
0.00749678
0.00841699
0.00919127
0.00984666
0.0104066
0.0108905
0.0113142
0.0116892
0.0120229
0.0123185
0.0125759
0.0127921
0.0129615
0.0130778
0.0131344
0.013126
0.0130501
0.0129084
0.000216688
0.00178307
0.00356957
0.00511828
0.00642198
0.00751406
0.00842855
0.00919598
0.00984338
0.0103944
0.0108687
0.0112825
0.0116472
0.0119705
0.0122556
0.0125022
0.0127068
0.0128636
0.0129654
0.0130047
0.0129748
0.0128718
0.0126955
0.000216454
0.00179262
0.00358364
0.00513162
0.00643246
0.00752074
0.00843072
0.00919284
0.009834
0.0103778
0.0108443
0.0112497
0.0116058
0.0119202
0.0121964
0.0124339
0.012629
0.0127756
0.0128659
0.0128914
0.0128441
0.0127184
0.0125119
0.000216042
0.00179848
0.0035895
0.00513411
0.00643125
0.00751613
0.00842275
0.0091811
0.00981778
0.0103563
0.0108167
0.0112154
0.0115645
0.0118717
0.0121407
0.012371
0.012559
0.0126981
0.0127801
0.0127958
0.012736
0.0125932
0.0123628
0.000215501
0.00180072
0.00358717
0.00512572
0.00641819
0.00749986
0.00840399
0.00915985
0.00979353
0.0103283
0.0107843
0.011178
0.0115216
0.0118234
0.0120869
0.0123121
0.0124952
0.0126297
0.0127069
0.0127172
0.0126502
0.0124969
0.0122504
0.000214895
0.00179954
0.00357698
0.00510687
0.00639362
0.007472
0.00837416
0.00912836
0.0097601
0.0102923
0.0107452
0.0111352
0.011475
0.0117728
0.0120326
0.0122545
0.012435
0.0125677
0.0126437
0.012653
0.0125846
0.0124281
0.0121746
0.000214299
0.00179533
0.00355967
0.00507853
0.0063585
0.00743328
0.0083335
0.00908635
0.00971662
0.010247
0.0106975
0.0110849
0.0114219
0.0117171
0.0119747
0.0121952
0.0123753
0.0125087
0.012587
0.0125997
0.0125355
0.012383
0.0121319
0.000213804
0.00178868
0.00353646
0.00504235
0.00631456
0.00738513
0.00828299
0.00903412
0.00966273
0.0101913
0.0106397
0.011025
0.01136
0.0116535
0.0119102
0.0121308
0.0123123
0.012449
0.0125325
0.0125526
0.0124977
0.0123562
0.0121165
0.000213514
0.00178039
0.00350907
0.00500072
0.0062644
0.00732994
0.00822441
0.00897275
0.0095987
0.0101246
0.0105706
0.0109536
0.0112869
0.0115793
0.011836
0.0120579
0.0122425
0.0123844
0.0124757
0.0125065
0.0124656
0.0123408
0.0121204
0.000213548
0.00177149
0.00347982
0.00495689
0.00621161
0.0072711
0.00816056
0.00890415
0.00952552
0.0100472
0.0104894
0.0108694
0.0112006
0.0114921
0.0117492
0.0119732
0.012162
0.0123108
0.012412
0.0124562
0.0124327
0.0123294
0.0121345
0.000214044
0.00176324
0.00345168
0.00491509
0.00616094
0.00721315
0.00809529
0.00883123
0.00944501
0.0099597
0.010396
0.0107715
0.0110995
0.0113896
0.011647
0.0118734
0.0120673
0.0122239
0.0123366
0.0123963
0.0123927
0.0123144
0.0121496
0.00021516
0.00175714
0.00342826
0.00488057
0.00611833
0.00716187
0.00803359
0.00875786
0.00935986
0.00986372
0.0102909
0.0106593
0.0109824
0.0112697
0.0115268
0.0117555
0.0119545
0.0121197
0.0122447
0.0123212
0.0123395
0.0122885
0.0121569
0.000217087
0.00175492
0.00341398
0.00485976
0.00609105
0.00712432
0.00798158
0.00868888
0.00927356
0.00976147
0.0101752
0.0105329
0.0108483
0.011131
0.0113863
0.0116164
0.0118201
0.0119938
0.0121316
0.0122257
0.0122669
0.0122447
0.0121482
0.00022006
0.00175861
0.00341417
0.00486047
0.00608782
0.00710877
0.00794636
0.00862996
0.00919033
0.00965587
0.0100505
0.010393
0.0106971
0.0109722
0.0112236
0.0114533
0.0116605
0.011842
0.0119923
0.0121042
0.0121689
0.0121765
0.0121162
0.000224388
0.00177067
0.00343551
0.00489233
0.00611901
0.00712468
0.00793575
0.00858721
0.00911483
0.00955033
0.00991932
0.0102411
0.0105293
0.0107929
0.011037
0.0112637
0.0114723
0.0116599
0.0118216
0.0119507
0.012039
0.012077
0.0120541
0.000230499
0.00179435
0.00348694
0.00496771
0.00619703
0.00718249
0.00795776
0.00856664
0.00905165
0.00944846
0.00978442
0.0100791
0.010346
0.0105934
0.0108261
0.0110459
0.0112525
0.0114433
0.011614
0.0117587
0.01187
0.0119387
0.0119546
0.000239036
0.00183454
0.00358159
0.00510343
0.00633699
0.00729328
0.00801982
0.00857335
0.00900471
0.00935367
0.00964889
0.0099099
0.0101493
0.010375
0.0105909
0.0107989
0.0109987
0.0111881
0.0113639
0.0115211
0.0116533
0.0117526
0.011809
0.000251027
0.00189983
0.00374097
0.00532405
0.00655756
0.00746797
0.0081274
0.00861026
0.00897636
0.00926859
0.00951581
0.00973661
0.00994249
0.0101402
0.0103333
0.0105231
0.0107096
0.0108913
0.0110659
0.0112299
0.011379
0.0115073
0.0116063
0.000268237
0.00200768
0.00400451
0.00566772
0.00688146
0.00771534
0.00828195
0.00867673
0.00896655
0.00919465
0.009388
0.00956303
0.00972949
0.00989293
0.0100562
0.0102204
0.0103855
0.0105508
0.0107151
0.0108771
0.0110353
0.011188
0.0113315
0.000294106
0.00219995
0.00445376
0.00619606
0.00733349
0.00803749
0.00847774
0.00876701
0.0089722
0.00913177
0.00926786
0.0093933
0.00951546
0.00963846
0.00976445
0.00989429
0.0100282
0.010166
0.0103077
0.010454
0.0106077
0.0107742
0.0109616
0.000336989
0.00260433
0.00528215
0.00700553
0.00792905
0.00842049
0.00869798
0.00886933
0.00898726
0.00907855
0.00915745
0.00923189
0.00930639
0.00938354
0.00946472
0.00955065
0.00964164
0.00973801
0.00984055
0.00995165
0.0100776
0.0102337
0.0104523
0.000421964
0.00386742
0.00702561
0.00820589
0.0086358
0.00881976
0.00891269
0.00896726
0.0090043
0.00903323
0.0090588
0.0090836
0.00910916
0.00913637
0.0091658
0.00919781
0.00923267
0.00927074
0.00931276
0.00936069
0.00942011
0.00950854
0.00968516
0.000398874
0.000395785
0.000407696
0.0004354
0.00402869
0.00398938
0.00408671
0.0043169
0.00716838
0.00724053
0.00739227
0.00762603
0.00930205
0.00942186
0.00957716
0.00976913
0.0108736
0.0109948
0.0111342
0.0112927
0.0120783
0.0121889
0.0123101
0.0124429
0.0130113
0.0131089
0.0132134
0.0133269
0.0137349
0.0138191
0.0139091
0.0140075
0.0142887
0.0143616
0.0144354
0.0145187
0.0145779
0.0146493
0.0147262
0.0148144
0.0147284
0.0147999
0.0148728
0.0149521
0.0147456
0.014809
0.0148745
0.0149453
0.0146767
0.0147298
0.0147849
0.0148445
0.014542
0.014582
0.0146237
0.0146693
0.0143561
0.0143806
0.0144062
0.0144353
0.0141301
0.0141371
0.0141446
0.0141552
0.0138741
0.0138619
0.0138494
0.0138393
0.0135982
0.013565
0.0135306
0.0134978
0.0133126
0.0132569
0.0131985
0.0131404
0.0130278
0.0129477
0.0128628
0.0127763
0.0127553
0.0126497
0.0125365
0.0124188
0.0125064
0.012375
0.012233
0.0120832
0.0122897
0.0121342
0.0119647
0.0117838
0.0121128
0.0119364
0.0117426
0.0115335
0.01198
0.0117877
0.0115746
0.0113424
0.0118927
0.0116905
0.0114648
0.0112165
0.0118482
0.0116431
0.0114123
0.0111561
0.0118405
0.0116391
0.0114108
0.0111553
0.0118604
0.011669
0.0114501
0.0112032
0.0118974
0.011721
0.0115173
0.0112855
0.0119404
0.0117825
0.0115983
0.0113867
0.0119786
0.0118418
0.0116798
0.0114917
0.0120029
0.0118884
0.0117503
0.0115875
0.012005
0.0119136
0.0118002
0.0116636
0.0119778
0.0119102
0.011822
0.0117119
0.0119145
0.0118715
0.0118093
0.0117264
0.0118076
0.0117909
0.0117564
0.0117023
0.0116479
0.0116609
0.0116574
0.0116351
0.0114236
0.0114723
0.0115062
0.0115214
0.0111185
0.0112154
0.0112991
0.011362
0.0107012
0.0108813
0.0110431
0.011171
0.0100432
0.0104795
0.0107844
0.0109974
0.00179699
0.00379561
0.00567074
0.00715928
0.00830349
0.00919618
0.00986157
0.0102968
0.0104929
0.010433
0.0100667
0.00932422
0.0081685
0.00671629
0.0056093
0.00495093
0.00436598
0.00316028
0.000545905
0.00536652
0.00671681
0.00798019
0.00907547
0.00999531
0.010741
0.0113074
0.0116751
0.011828
0.0117471
0.0113936
0.0107159
0.00961846
0.00824708
0.00702628
0.00608894
0.00512645
0.00345804
0.000562569
0.00818507
0.00902715
0.00989355
0.0107086
0.0114395
0.0120597
0.0125415
0.0128532
0.0129669
0.0128597
0.0125013
0.0118478
0.0108321
0.0095627
0.00828897
0.00710721
0.00577347
0.00368683
0.000575854
0.0101528
0.0107475
0.0113942
0.0120423
0.0126507
0.0131843
0.0136088
0.0138786
0.0139518
0.0138034
0.0134175
0.0127529
0.0117943
0.0106039
0.0093081
0.00794093
0.00629416
0.00386184
0.000586785
0.0115912
0.0120582
0.0125851
0.0131357
0.0136696
0.0141528
0.0145472
0.0147857
0.0148027
0.0145831
0.0141352
0.0134443
0.0125144
0.0113738
0.0100667
0.0085689
0.00668399
0.00398807
0.000595413
0.0126874
0.0130818
0.0135416
0.0140376
0.0145324
0.0150008
0.0154052
0.0156243
0.0155406
0.0152047
0.0146702
0.0139424
0.0130197
0.0119037
0.0105863
0.008999
0.00694584
0.00406605
0.000601339
0.0135361
0.013889
0.0143122
0.0147844
0.0152701
0.0157673
0.0162704
0.0164927
0.0161725
0.0156754
0.0150496
0.0142781
0.013345
0.0122323
0.0109005
0.00925178
0.00708814
0.00409612
0.000604023
0.0141911
0.0145218
0.0149307
0.0154184
0.0159176
0.0163758
0.0167644
0.0168893
0.0165852
0.0160069
0.0153046
0.0144829
0.0135213
0.0123919
0.0110387
0.00934821
0.00712341
0.00408154
0.000603041
0.0146859
0.0150128
0.0154103
0.015863
0.016294
0.0166405
0.016861
0.0169117
0.0167449
0.0162353
0.0154721
0.0145919
0.0135831
0.0124126
0.0110197
0.00928725
0.0070273
0.00400076
0.000600102
0.0149885
0.0153056
0.0156674
0.0160367
0.0164053
0.0167261
0.0169211
0.016944
0.0167918
0.0163694
0.0155935
0.0146361
0.0135597
0.0123242
0.0108718
0.00909214
0.00681477
0.00384427
0.000594911
0.0151047
0.0153851
0.0157129
0.0160629
0.0164168
0.0167205
0.016904
0.0169294
0.0167804
0.0163881
0.0156616
0.0146429
0.0134816
0.0121606
0.0106294
0.00879516
0.00651351
0.00363678
0.00058705
0.0150822
0.0153358
0.0156405
0.0159779
0.0163198
0.0166172
0.0168089
0.0168517
0.0167125
0.0163481
0.0156714
0.0146232
0.0133764
0.0119596
0.0103367
0.00844061
0.00616261
0.00340443
0.000576277
0.0149612
0.0151859
0.0154667
0.0157896
0.016126
0.0164295
0.0166438
0.0167151
0.0165978
0.0162598
0.0156319
0.0145857
0.0132717
0.0117643
0.0100471
0.00808405
0.00581012
0.00317452
0.000562655
0.0147617
0.0149527
0.015207
0.0155151
0.0158489
0.0161671
0.0164129
0.0165221
0.0164389
0.0161312
0.0155558
0.0145549
0.013197
0.0116182
0.00981635
0.00778614
0.00550785
0.00297424
0.000546754
0.0144998
0.0146526
0.0148762
0.0151668
0.0154991
0.0158356
0.0161178
0.0162726
0.0162342
0.0159635
0.0154324
0.014527
0.0131756
0.0115534
0.00969004
0.00760094
0.0053044
0.00283048
0.000529963
0.0141883
0.0142971
0.0144846
0.0147533
0.0150827
0.0154383
0.015759
0.0159647
0.0159796
0.0157568
0.0152675
0.0144835
0.0132181
0.0115807
0.00968986
0.00756267
0.00523669
0.00276794
0.000514679
0.0138374
0.0138955
0.0140396
0.0142798
0.0146033
0.0149765
0.0153358
0.0155958
0.0156714
0.0155103
0.0150803
0.014386
0.0132826
0.0116846
0.00980777
0.0076763
0.00532162
0.00280515
0.00050404
0.0134568
0.0134558
0.0135469
0.0137504
0.0140622
0.01445
0.0148469
0.015162
0.015305
0.0152148
0.0148608
0.0142353
0.0132968
0.0118454
0.0100103
0.00791541
0.00555345
0.0029512
0.000500852
0.0130558
0.0129857
0.0130126
0.013168
0.0134598
0.0138575
0.0142903
0.014661
0.014874
0.0148615
0.0145919
0.0140512
0.0132229
0.0119939
0.0102645
0.00823985
0.00590434
0.00320357
0.000506087
0.0126431
0.012494
0.0124434
0.012538
0.0127976
0.0131971
0.0136625
0.0140895
0.0143749
0.0144457
0.014265
0.0138183
0.0130895
0.0120325
0.0105207
0.00859571
0.00631679
0.00353209
0.000518186
0.0122343
0.0119985
0.0118573
0.0118736
0.0120841
0.0124718
0.0129614
0.0134422
0.0138019
0.0139597
0.0138734
0.0135253
0.0129013
0.0119806
0.0106841
0.0089263
0.00672709
0.00388521
0.000533904
0.0118459
0.011517
0.0112726
0.0111919
0.0113317
0.011688
0.0121878
0.0127146
0.0131474
0.0133938
0.0134056
0.0131612
0.0126488
0.0118552
0.0107493
0.00923434
0.00710936
0.0041703
0.00054792
0.0114945
0.0110698
0.0107122
0.0105155
0.0105594
0.0108584
0.0113475
0.0119063
0.0124052
0.0127393
0.0128499
0.0127116
0.0123132
0.0116448
0.0106817
0.00932686
0.00726494
0.00428645
0.000555325
0.0111962
0.0106783
0.0102031
0.00987434
0.00979526
0.0100047
0.010454
0.0110234
0.0115744
0.0119906
0.0121975
0.0121637
0.0118755
0.0113196
0.010464
0.00921806
0.00726594
0.00421226
0.000555507
0.0109649
0.010363
0.00977358
0.00930422
0.00907662
0.00916021
0.00953216
0.0100817
0.0106633
0.0111477
0.0114452
0.0115109
0.0113261
0.0108721
0.0101092
0.00894647
0.00715726
0.00433093
0.000561586
0.0108096
0.0101401
0.00944923
0.00884134
0.00844791
0.00836985
0.00862021
0.00910946
0.00969103
0.0102222
0.0105979
0.010755
0.0106652
0.0103045
0.00962977
0.00855717
0.00688183
0.00420745
0.00057264
0.0107329
0.0100175
0.00924699
0.00851544
0.00795351
0.00768641
0.0077692
0.00814887
0.00868968
0.00923815
0.00967117
0.00990857
0.00990381
0.00962624
0.00903157
0.00804178
0.0064701
0.00395526
0.000530324
0.0107295
0.00999313
0.00917111
0.00834264
0.00762724
0.0071608
0.00703778
0.0072546
0.00770411
0.00823108
0.00869419
0.008993
0.00906299
0.0088574
0.00832831
0.00741235
0.00593746
0.0036037
0.000488252
0.010788
0.0100551
0.00921211
0.00832101
0.007483
0.00682908
0.00648091
0.00648758
0.00678936
0.00724644
0.00770488
0.00804153
0.00817019
0.00802661
0.00755796
0.00672678
0.00534985
0.00321133
0.000454679
0.010892
0.0101843
0.00934924
0.00843182
0.00751153
0.00670262
0.00613607
0.00590383
0.00600449
0.0063359
0.00674603
0.00709191
0.00726335
0.00717636
0.00676974
0.00602423
0.00473501
0.00281936
0.000425586
0.0110233
0.0103581
0.00955538
0.00864533
0.00768486
0.00676675
0.00601394
0.00554184
0.00540356
0.00555273
0.00586194
0.00617993
0.00637409
0.00633825
0.00599157
0.00530743
0.00404398
0.00233433
0.000390668
0.0111644
0.0105538
0.00980171
0.00892635
0.0079643
0.00698704
0.00609779
0.00541416
0.00502623
0.00494735
0.00509783
0.00533939
0.00552612
0.00553034
0.00524139
0.00456281
0.00319556
0.00180667
0.000357307
0.0112997
0.010751
0.0100611
0.00923936
0.00830794
0.00731811
0.00634942
0.00550541
0.00488957
0.00456188
0.00450141
0.00460815
0.00474239
0.0047636
0.0045362
0.00394572
0.00288677
0.00159322
0.000334479
0.0114169
0.0109334
0.0103121
0.00955535
0.00867713
0.00771222
0.00671789
0.0057758
0.00498238
0.00442052
0.00412021
0.00403516
0.00405593
0.00404484
0.00385168
0.00337085
0.00253167
0.00137453
0.000300707
0.0115072
0.0110897
0.0105387
0.00985219
0.00904031
0.00812615
0.00714929
0.00616934
0.00526433
0.00451715
0.003987
0.00367782
0.00352694
0.00342154
0.00321298
0.00279549
0.00210628
0.00117129
0.000268505
0.0115645
0.0112124
0.0107302
0.0101151
0.00937487
0.00852587
0.00759557
0.00662577
0.00567412
0.00480974
0.00409795
0.00357471
0.00322403
0.00297442
0.00270228
0.00230664
0.00173828
0.0010197
0.000255956
0.0115852
0.0112988
0.0108829
0.0103367
0.0096676
0.00888874
0.00802049
0.00709236
0.0061451
0.00523049
0.00440519
0.00371597
0.00317927
0.00276648
0.00239815
0.00198422
0.00149317
0.000925053
0.000241497
0.0115674
0.0113484
0.0109971
0.0105159
0.00991363
0.00920325
0.00840175
0.00753119
0.00662053
0.00570668
0.00483297
0.00404246
0.00336535
0.00280435
0.00232464
0.00185827
0.0013811
0.000874977
0.000227124
0.0115112
0.0113635
0.0110762
0.0106555
0.0101139
0.0094664
0.00872906
0.00792009
0.00706111
0.00617848
0.00530358
0.00447032
0.0037091
0.00303722
0.00244903
0.00191277
0.0013924
0.00086764
0.000214444
0.0114217
0.0113507
0.0111255
0.0107598
0.0102715
0.00967864
0.00899837
0.00824718
0.00744249
0.00660393
0.0057541
0.00491795
0.00412018
0.00338022
0.00270548
0.00208642
0.00149861
0.000894683
0.000204201
0.0113165
0.0113217
0.0111516
0.0108315
0.010386
0.0098369
0.00920273
0.00849971
0.00774312
0.0069486
0.00613299
0.00531425
0.00451042
0.00373701
0.00300312
0.00230688
0.00163156
0.000929903
0.000197529
0.0112304
0.0112941
0.0111606
0.0108692
0.0104501
0.00992792
0.00932253
0.00865037
0.00792596
0.00716315
0.00637581
0.00557778
0.00478211
0.00399939
0.0032352
0.00248654
0.0017369
0.000948739
0.000193276
)
;

boundaryField
{
    leftWall
    {
        type            nutkWallFunction;
        Cmu             0.09;
        kappa           0.41;
        E               9.8;
        value           nonuniform List<scalar> 
50
(
3.54031e-06
9.39432e-06
1.08757e-05
1.18987e-05
1.28296e-05
1.5525e-05
1.69113e-05
1.74585e-05
1.78479e-05
1.81615e-05
1.82952e-05
1.84743e-05
1.89762e-05
1.59895e-05
1.74066e-05
1.86575e-05
1.94522e-05
1.99741e-05
2.03957e-05
2.07776e-05
2.112e-05
2.14143e-05
2.16584e-05
2.18571e-05
2.20184e-05
2.21531e-05
2.22583e-05
2.23231e-05
2.23491e-05
2.23398e-05
2.22998e-05
2.22347e-05
2.2152e-05
2.20605e-05
2.19713e-05
2.18971e-05
2.1853e-05
2.1856e-05
2.19256e-05
2.20845e-05
2.23593e-05
2.27832e-05
2.33991e-05
2.42663e-05
2.54728e-05
2.71574e-05
2.95544e-05
3.311e-05
3.88779e-05
4.98996e-05
)
;
    }
    rightWall
    {
        type            nutkWallFunction;
        Cmu             0.09;
        kappa           0.41;
        E               9.8;
        value           nonuniform List<scalar> 
50
(
1.08124e-05
3.70352e-05
4.31682e-05
4.72853e-05
5.02581e-05
5.25237e-05
5.43336e-05
5.58639e-05
5.81104e-05
5.97664e-05
6.10679e-05
6.21191e-05
6.2925e-05
6.34468e-05
6.36319e-05
6.34379e-05
6.30149e-05
6.24002e-05
6.15506e-05
6.04481e-05
5.91083e-05
5.75988e-05
5.6061e-05
5.47171e-05
5.38318e-05
5.36166e-05
5.41161e-05
5.51697e-05
5.6485e-05
5.76901e-05
5.83135e-05
5.84571e-05
5.91688e-05
5.90671e-05
5.54e-05
5.15853e-05
4.84159e-05
4.555e-05
4.23624e-05
3.93274e-05
4.14044e-05
3.41584e-05
2.95615e-05
2.76043e-05
2.55697e-05
2.3586e-05
2.18566e-05
2.04953e-05
1.96384e-05
1.90622e-05
)
;
    }
    lowerWall
    {
        type            nutkWallFunction;
        Cmu             0.09;
        kappa           0.41;
        E               9.8;
        value           nonuniform List<scalar> 
62
(
3.54031e-06
5.33816e-06
6.46488e-06
7.17422e-06
7.72207e-06
8.16614e-06
8.53396e-06
8.83888e-06
9.08741e-06
9.28285e-06
9.42767e-06
9.52497e-06
9.57943e-06
9.60346e-06
9.62361e-06
9.62959e-06
9.60536e-06
9.51953e-06
9.32659e-06
8.96757e-06
8.3685e-06
7.36831e-06
5.39449e-06
5.39449e-06
1.57392e-05
1.81309e-05
1.98015e-05
2.10954e-05
2.22703e-05
2.37573e-05
2.72262e-05
3.44913e-05
3.41644e-05
3.51342e-05
3.74392e-05
1.00856e-05
2.90935e-05
3.16295e-05
3.25337e-05
3.27628e-05
3.40737e-05
3.63241e-05
4.19595e-05
1.00856e-05
1.33622e-05
1.69997e-05
2.01328e-05
2.30606e-05
2.61873e-05
2.78838e-05
2.79658e-05
2.6233e-05
2.60695e-05
2.70913e-05
2.78048e-05
2.81628e-05
3.04118e-05
2.75164e-05
2.39257e-05
2.01268e-05
1.63452e-05
1.08124e-05
)
;
    }
    atmosphere
    {
        type            calculated;
        value           nonuniform List<scalar> 
46
(
0.009
0.009
0.009
0.009
0.009
0.009
0.009
0.009
0.009
0.009
0.009
0.009
0.009
0.009
0.009
0.009
0.009
0.009
0.009
0.009
0.009
0.009
0.009
0.009
0.0104795
0.0107844
0.0109974
0.0112304
0.0112941
0.0111606
0.0108692
0.0104501
0.00992792
0.00932253
0.00865037
0.00792596
0.00716315
0.00637581
0.00557778
0.00478211
0.00399939
0.0032352
0.00248654
0.0017369
0.000948739
0.000193276
)
;
    }
    defaultFaces
    {
        type            empty;
    }
}


// ************************************************************************* //
