/*--------------------------------*- C++ -*----------------------------------*\
  =========                 |
  \\      /  F ield         | OpenFOAM: The Open Source CFD Toolbox
   \\    /   O peration     | Website:  https://openfoam.org
    \\  /    A nd           | Version:  13
     \\/     M anipulation  |
\*---------------------------------------------------------------------------*/
FoamFile
{
    format      ascii;
    class       volScalarField;
    location    "0.5";
    object      p;
}
// * * * * * * * * * * * * * * * * * * * * * * * * * * * * * * * * * * * * * //

dimensions      [1 -1 -2 0 0 0 0];

internalField   nonuniform List<scalar> 
2268
(
4260.57
4286.46
4332.67
4378.7
4420.37
4463.51
4513.41
4574.12
4649.71
4745.25
4866.98
5021.89
5216.19
5453.38
5736.22
6058.91
6414.48
6791.51
7175.44
7545.84
7877.21
8124.03
8265.93
3461.2
3474.35
3507.1
3545.18
3583.22
3625.34
3675.59
3737.55
3815.36
3914.25
4040.64
4201.66
4403.49
4651.29
4944.24
5276.97
5643.52
6031.31
6425.18
6803.46
7138.42
7376.29
7501.32
2662.73
2675.75
2691.62
2717.05
2747.54
2785.6
2834.02
2895.82
2975.1
3077.24
3208.92
3377.54
3588.92
3848.27
4154.03
4499.44
4878.97
5278.08
5680.84
6063.89
6397.07
6625.77
6760.65
1856.91
1879.32
1881.4
1895.2
1917.71
1950.67
1995.76
2055.52
2134.05
2237.1
2372.04
2547.43
2768.49
3040.82
3361.63
3720.02
4112
4521.67
4933.88
5323.99
5658.55
5888.37
6047.1
1119.14
1146.54
1145.43
1153.83
1169.63
1194.51
1229.58
1276.99
1340.73
1427.12
1545.8
1711.11
1935.84
2215.48
2557.67
2933.7
3341.4
3761.01
4184.11
4586.91
4930.38
5173.44
5358.2
740.23
756.784
760.886
769.941
782.068
798.32
819.276
845.894
880.042
925.013
986.657
1075.5
1208.08
1408.61
1707.22
2103.94
2554.93
2994.58
3432.75
3854.71
4214.99
4483.93
4694.77
659.717
667.095
673.396
682.765
693.633
706.23
720.739
737.32
756.224
777.886
803.032
833.175
873.704
944.436
1076.58
1324.33
1713.25
2200.62
2672.72
3124.03
3506.61
3813.85
4059.23
598.329
604.564
611.637
621.356
632.824
646.103
661.25
678.305
697.339
718.451
741.76
767.463
795.658
827.701
868.848
932.328
1078.69
1407.47
1884.74
2390.67
2790.29
3128.08
3434.2
3302.49
3310.47
3348.14
3394.77
3446.59
3483.31
3590.25
3747.22
3929.6
3785.54
2839.73
1626.9
1023.42
865.361
974.184
1146.98
1252.54
1293.63
1298.8
3270.02
3276.78
3313.17
3362.41
3419.45
3457.9
3522.03
3657.66
3632.6
3267.75
2402.68
1415.52
915.019
866.124
947.878
1115.15
1222.06
1262.25
1268.32
3231.62
3241.21
3282.33
3340.52
3394.4
3448.29
3409.8
3263.84
2805.02
2207.47
1739.59
1121.61
863.057
834.65
908.239
1063.1
1170.46
1215.42
1232.68
3190.17
3205.07
3246.58
3304.15
3344.69
3316.4
2934.58
2375.71
1628.91
1188.14
1124.25
885.225
771.619
776.856
868.439
1004.93
1109.33
1160.18
1190.87
3151.82
3171.81
3197.39
3218.31
3148.91
2792.56
2136.23
1452.88
843.927
724.706
709.36
696.606
629.805
727.745
828.478
947.722
1046.85
1101.92
1144.11
3119.25
3124.38
3063.85
2822.22
2413.32
1851.33
1359.77
893.501
658.285
631.249
577.125
527.364
543.75
655.797
777.907
892.016
985.583
1042.65
1093.05
2988.2
2894.97
2528.12
2000.46
1402.58
979.485
830.862
701.119
630.121
588.407
533.645
484.872
505.58
596.8
725.131
838.147
926.2
983.063
1036.96
2118.77
2235.21
1773.55
1245.23
804.695
671.314
624.624
615.2
586.05
548.553
505.681
470.565
490.143
572.013
684.487
788.306
869.532
924.681
977.494
501.781
506.661
513.448
522.819
534.214
547.512
562.668
579.676
598.565
619.368
642.093
666.632
692.594
718.912
745.162
773.537
807.048
870.023
1055.59
1338.32
1655.89
1968.56
2166.31
368.402
373.008
379.445
388.683
400.101
413.454
428.581
445.409
463.942
484.188
506.143
529.71
554.615
580.072
604.574
625.217
637.458
637.49
614.129
602.246
663.783
751.877
870.293
231.544
236.664
242.924
252.456
264.318
278.133
293.568
310.535
328.999
348.907
370.208
392.746
416.209
439.899
462.474
481.014
490.867
490.165
479.007
446.977
388.009
328.597
297.309
95.7551
100.962
106.295
115.479
127.38
141.649
157.501
174.595
193.093
212.754
233.48
255.064
277.257
299.368
320.013
337.451
348.427
350.34
342.53
325.783
302.07
271.87
233.876
17.689
19.8682
22.0973
26.0124
31.3208
38.1089
46.2669
56.9744
69.6748
84.4561
101.601
120.682
140.271
159.443
177.814
193.863
205.903
212.01
211.205
202.077
185.013
164.512
144.238
5.12774
5.20549
5.10488
5.0859
5.07081
5.07133
5.40965
7.68709
11.1548
16.05
22.7077
30.5371
38.1478
45.2869
52.8546
62.108
71.0878
78.396
83.8324
84.1392
75.4499
61.5772
48.9831
4.98257
4.97974
4.97402
4.9727
4.97381
4.98038
4.99749
4.95965
4.88198
4.81315
4.73621
4.6448
5.18406
6.43541
7.69725
8.87186
7.69662
5.56029
6.82788
8.1711
5.67004
1.4108
-0.801937
4.83184
4.83909
4.83442
4.83086
4.83023
4.8322
4.83501
4.82605
4.81213
4.8022
4.803
4.81372
4.72959
4.4095
4.20279
4.13614
3.9149
3.58352
2.28974
3.68647
3.21856
1.28317
1.32321
4.6829
4.68756
4.6872
4.68516
4.68328
4.68263
4.67801
4.66889
4.65453
4.64046
4.63119
4.63203
4.63349
4.61065
4.59461
4.58824
4.56736
4.49131
4.18255
3.77113
3.83087
3.78309
3.68019
4.53426
4.53739
4.53878
4.53801
4.53585
4.53258
4.52716
4.51676
4.50343
4.48944
4.4756
4.46304
4.44423
4.41413
4.38184
4.35464
4.33334
4.33876
4.39859
4.37609
4.37328
4.36562
4.34772
4.38588
4.38822
4.39002
4.38987
4.38789
4.38423
4.37828
4.3694
4.35837
4.34617
4.33272
4.31711
4.29581
4.26553
4.2344
4.20633
4.18079
4.16935
4.17392
4.16228
4.14558
4.13496
4.12417
4.23801
4.23973
4.24137
4.24139
4.23963
4.23617
4.23081
4.22323
4.21382
4.20304
4.19079
4.1763
4.15775
4.1344
4.11
4.08656
4.06406
4.04561
4.03291
4.01397
4.00112
3.99545
3.99736
4.09091
4.0921
4.09336
4.09332
4.09168
4.08848
4.08361
4.07697
4.06872
4.05908
4.04801
4.03507
4.01948
4.00103
3.98144
3.96208
3.9436
3.92739
3.91362
3.9002
3.89174
3.88929
3.89533
3.94473
3.94545
3.94628
3.94607
3.94447
3.94146
3.937
3.93105
3.9237
3.91504
3.90505
3.8935
3.88008
3.8648
3.84857
3.83241
3.81714
3.8037
3.79241
3.78261
3.77655
3.77579
3.78246
3.79953
3.79983
3.80023
3.79977
3.79813
3.79526
3.79114
3.78573
3.77909
3.77127
3.76226
3.75196
3.74027
3.72731
3.71365
3.70001
3.6871
3.6756
3.66586
3.65796
3.65317
3.65296
3.65895
3.6553
3.65522
3.65518
3.65445
3.65273
3.64995
3.64608
3.6411
3.63505
3.62794
3.61979
3.61057
3.6003
3.58912
3.57743
3.56575
3.55461
3.54453
3.53589
3.52904
3.52481
3.52438
3.529
3.51201
3.51155
3.51112
3.51009
3.50826
3.50553
3.50185
3.49722
3.49164
3.48514
3.47773
3.46944
3.46032
3.45052
3.44033
3.43013
3.42033
3.41132
3.40347
3.39718
3.39304
3.39193
3.3948
3.36963
3.36875
3.36796
3.36666
3.3647
3.36198
3.35845
3.3541
3.34892
3.34294
3.33618
3.32867
3.32048
3.31176
3.30272
3.29365
3.28485
3.27665
3.26935
3.26331
3.25895
3.25695
3.25803
3.228
3.22682
3.22567
3.2241
3.22201
3.21928
3.21587
3.21176
3.20693
3.20139
3.19519
3.18834
3.18093
3.17307
3.16493
3.15673
3.1487
3.14109
3.13417
3.1282
3.1235
3.12057
3.11995
3.08708
3.08565
3.08416
3.08236
3.08014
3.07741
3.0741
3.07019
3.06566
3.06053
3.0548
3.04853
3.04177
3.03461
3.0272
3.01969
3.01226
3.00512
2.99847
2.9925
2.98742
2.98362
2.98157
2.94681
2.94515
2.94337
2.94136
2.93904
2.9363
2.9331
2.92938
2.92513
2.92035
2.91506
2.90928
2.90308
2.89652
2.88972
2.88278
2.87586
2.86911
2.86267
2.8567
2.85131
2.84682
2.84361
2.8071
2.80525
2.80324
2.80105
2.79865
2.79592
2.79282
2.78928
2.78529
2.78085
2.77595
2.77063
2.76493
2.7589
2.75262
2.74619
2.73972
2.73331
2.7271
2.72117
2.71558
2.71056
2.7065
2.66789
2.66589
2.66368
2.66135
2.6589
2.65621
2.65321
2.64985
2.64612
2.642
2.63748
2.63258
2.62734
2.6218
2.616
2.61004
2.60399
2.59793
2.59196
2.58613
2.58044
2.57506
2.57036
2.5291
2.52698
2.52463
2.52221
2.51974
2.51709
2.51421
2.51105
2.50757
2.50376
2.4996
2.49512
2.49031
2.48523
2.4799
2.47438
2.46874
2.46304
2.45734
2.45166
2.44597
2.44038
2.43529
2.39066
2.38847
2.38602
2.38355
2.38109
2.37852
2.37578
2.37281
2.36959
2.36609
2.36229
2.3582
2.35382
2.34918
2.3443
2.33922
2.33399
2.32865
2.32325
2.31778
2.31217
2.3065
2.30119
2.25251
2.25028
2.24779
2.24531
2.24289
2.24042
2.23783
2.23507
2.23211
2.22892
2.22548
2.22178
2.21782
2.21362
2.20918
2.20453
2.19971
2.19475
2.18967
2.18444
2.17898
2.17334
2.16798
2.11459
2.11237
2.10988
2.10743
2.10508
2.10273
2.1003
2.09776
2.09507
2.0922
2.08911
2.0858
2.08226
2.07848
2.07448
2.07026
2.06586
2.06129
2.05655
2.0516
2.04635
2.04083
2.03549
1.97685
1.97468
1.97224
1.96985
1.9676
1.96538
1.96314
1.96083
1.95842
1.95586
1.95313
1.95021
1.94707
1.94372
1.94015
1.93636
1.93238
1.9282
1.92382
1.91918
1.91418
1.90885
1.90365
1.83927
1.83716
1.83481
1.83252
1.83039
1.82832
1.82628
1.82421
1.82208
1.81984
1.81746
1.81492
1.81219
1.80926
1.80612
1.80277
1.7992
1.79542
1.79141
1.78711
1.78241
1.77732
1.7723
1.70179
1.69978
1.69755
1.69538
1.69339
1.6915
1.68966
1.68784
1.68599
1.68408
1.68205
1.67989
1.67756
1.67505
1.67233
1.6694
1.66625
1.66288
1.65926
1.65532
1.65094
1.64614
1.64138
1.56442
1.56251
1.56042
1.5584
1.55656
1.55486
1.55324
1.55167
1.55011
1.54851
1.54684
1.54504
1.54311
1.541
1.53871
1.5362
1.53348
1.53052
1.5273
1.52374
1.51973
1.51526
1.51079
1.42711
1.42532
1.42339
1.42153
1.41986
1.41835
1.41696
1.41565
1.41437
1.41309
1.41175
1.41033
1.40878
1.40707
1.40519
1.40311
1.40081
1.39828
1.39547
1.39232
1.3887
1.38462
1.38048
1.28986
1.28818
1.28642
1.28473
1.28324
1.28193
1.28077
1.27972
1.27873
1.27775
1.27675
1.27567
1.27449
1.27318
1.27171
1.27005
1.26818
1.26608
1.26371
1.26099
1.25781
1.25415
1.2504
1.15267
1.15107
1.14949
1.14796
1.14666
1.14556
1.14464
1.14384
1.14313
1.14245
1.14176
1.14102
1.1402
1.13927
1.1382
1.13696
1.13553
1.13387
1.13195
1.12969
1.12698
1.1238
1.12049
1.01553
1.01396
1.01256
1.0112
1.01009
1.0092
1.00851
1.00796
1.00751
1.00711
1.00672
1.0063
1.00583
1.00527
1.00459
1.00377
1.00278
1.00158
1.00013
0.998354
0.996161
0.993517
0.990698
0.878455
0.876799
0.875601
0.874405
0.873484
0.872817
0.872352
0.87204
0.871832
0.871688
0.871574
0.871458
0.871313
0.871109
0.870818
0.87041
0.869855
0.869121
0.868164
0.866919
0.865293
0.863255
0.861018
0.741531
0.739515
0.738549
0.737528
0.736811
0.73636
0.736112
0.736014
0.736027
0.736117
0.736256
0.736419
0.736581
0.736716
0.736797
0.736794
0.736679
0.73642
0.735978
0.735299
0.734307
0.732971
0.731458
0.604788
0.602007
0.601348
0.600521
0.60002
0.599784
0.599734
0.599826
0.600031
0.600327
0.600694
0.601112
0.60156
0.602014
0.602449
0.602838
0.603154
0.60337
0.603459
0.603385
0.603103
0.602613
0.602037
0.467992
0.464204
0.463993
0.463388
0.463105
0.463065
0.463186
0.463435
0.463801
0.464274
0.464842
0.46549
0.466198
0.466946
0.467708
0.468462
0.469183
0.469853
0.470461
0.471
0.471478
0.47196
0.472658
0.330557
0.325602
0.326341
0.326233
0.326182
0.326292
0.326538
0.326907
0.327402
0.328022
0.328761
0.329605
0.330537
0.331536
0.332579
0.333641
0.334704
0.335755
0.336799
0.337862
0.339019
0.340529
0.343083
0.193518
0.182863
0.186955
0.18868
0.18908
0.189333
0.189685
0.190157
0.190764
0.191511
0.192395
0.193404
0.19452
0.195722
0.196984
0.198282
0.199593
0.200909
0.202245
0.20367
0.205379
0.208164
0.214566
0.0667401
0.0295337
0.0433497
0.0482329
0.0494422
0.0500555
0.0506245
0.0512657
0.0520346
0.0529527
0.0540215
0.0552317
0.0565665
0.0580037
0.0595174
0.0610809
0.0626728
0.0642934
0.0660049
0.0680215
0.0709221
0.0765911
0.0922514
2071.45
2052.46
2015.32
1839.34
799.837
736.765
664.916
572.047
271.395
240.161
206.415
194.76
215.374
206.725
202.41
196.187
124.819
113.086
105.107
101.554
39.8441
37.6342
39.5559
41.8602
-7.25798
-5.75766
2.93265
9.92534
3.0719
8.32333
16.5342
17.8011
3.56631
3.6451
4.1248
4.45952
4.38163
4.40318
4.4213
4.4321
4.11193
4.13019
4.16724
4.21354
4.01517
4.03756
4.06713
4.09994
3.91477
3.93291
3.95417
3.9785
3.79887
3.81393
3.8311
3.85063
3.6728
3.68554
3.69976
3.7158
3.54027
3.5508
3.56254
3.57557
3.40353
3.41202
3.42142
3.43182
3.26433
3.27088
3.27826
3.28625
3.12408
3.1289
3.13432
3.14012
2.9838
2.98718
2.99089
2.99469
2.84442
2.84645
2.84872
2.85085
2.70612
2.70711
2.70823
2.70898
2.5691
2.56928
2.56943
2.56908
2.43338
2.43294
2.43237
2.43111
2.29885
2.29796
2.29679
2.29484
2.16533
2.16408
2.16251
2.16005
2.03267
2.03118
2.0293
2.02648
1.90073
1.89908
1.89701
1.89395
1.76937
1.76763
1.76543
1.76224
1.63848
1.63669
1.63445
1.63122
1.50797
1.50619
1.50395
1.50077
1.37781
1.37607
1.37388
1.37081
1.24791
1.24625
1.24416
1.24123
1.11822
1.11668
1.11471
1.11198
0.988709
0.987306
0.985507
0.982994
0.859368
0.858155
0.856546
0.854282
0.730248
0.729272
0.727896
0.725883
0.601486
0.600845
0.599711
0.597917
0.473275
0.473145
0.472242
0.470514
0.34613
0.346828
0.345688
0.343732
0.224164
0.225935
0.221266
0.218864
0.123025
0.129179
0.119266
0.10828
1087.12
1063.56
878.173
697.7
608.472
596.381
560.394
528.901
511.077
488.454
465.826
452.471
474.796
542.573
635.016
717.676
786.952
839.297
887.704
420.328
417.383
390.162
422.36
470.559
460.467
434.339
418.161
415.332
408.659
403.641
409.929
441.32
500.11
567.764
631.626
687.893
733.294
777.455
206.288
274.638
325.077
341.077
337.404
324.916
318.401
323.828
330.324
332.17
337.965
354.702
388.277
438.173
493.423
546.701
593.528
631.94
671.409
188.091
204.639
216.794
221.506
223.533
228.082
237.706
248.923
254.967
258.916
269.518
291.199
325.208
369.853
418.251
464.609
504.941
537.71
572.111
104.06
115.923
126.188
136.21
145.454
155.399
165.233
171.542
177.841
185.316
198.782
223.483
258.759
301.283
345.798
387.64
423.528
451.911
481.647
46.6793
57.3492
67.2374
75.0502
71.8311
65.7153
63.9
64.3995
80.5397
102.002
124.393
154.488
193.148
236.084
278.831
317.801
350.398
374.987
400.372
17.3163
26.1209
28.9336
24.6902
15.8812
9.78618
7.241
7.8971
13.1308
26.2247
51.987
89.163
132.818
177.871
220.167
257.146
286.907
307.634
328.596
9.93165
7.90122
6.93639
5.45731
5.72367
5.65173
5.52636
5.7313
6.1625
6.86029
13.2886
37.1737
82.0506
129.511
171.672
206.919
233.992
250.763
267.032
4.60366
4.74565
4.88002
4.89387
4.96674
5.11812
5.41621
5.53399
5.48826
5.47372
5.21231
8.85265
42.5457
91.9631
134.109
167.574
191.966
205.423
215.849
4.43906
4.48909
4.58335
4.73624
4.87602
5.039
5.22898
5.34201
5.32983
5.28512
5.12403
4.36821
16.4018
64.4987
107.289
139.013
160.756
170.635
175.842
4.28641
4.36083
4.45439
4.5849
4.7079
4.84246
4.98258
5.0938
5.13978
5.13991
5.1388
5.19278
6.46809
43.5786
89.222
119.705
139.161
145.812
146.265
4.15243
4.2232
4.3064
4.40369
4.51047
4.62602
4.74734
4.861
4.94231
4.98895
5.0645
5.21502
5.30113
30.6543
76.9872
106.929
124.957
129.379
125.466
4.01901
4.0771
4.14707
4.2283
4.31896
4.41969
4.52826
4.63794
4.73105
4.80167
4.89549
4.97793
5.29223
24.5547
68.1283
97.6194
115.14
118.638
111.147
3.88289
3.93039
3.98755
4.05379
4.12902
4.21428
4.30878
4.40816
4.49694
4.56352
4.6288
4.48692
4.83932
19.2741
59.3249
88.5865
106.605
110.461
100.514
3.7416
3.77906
3.8242
3.87673
3.9372
4.0063
4.08416
4.16726
4.24028
4.28248
4.28737
4.08748
4.38382
12.2014
47.2166
77.5037
96.7517
101.964
90.7927
3.59583
3.6241
3.65818
3.69802
3.74426
3.79725
3.85681
3.91929
3.97219
3.98064
3.93726
3.78754
3.6941
6.11547
30.8258
63.0969
84.097
91.0811
79.8474
3.44723
3.4673
3.49141
3.51962
3.55248
3.58996
3.63102
3.67138
3.70311
3.69652
3.63357
3.512
3.27248
3.65864
15.0695
44.0744
68.3264
76.9924
66.6741
3.29731
3.31019
3.32552
3.34332
3.36404
3.38734
3.41142
3.43177
3.44025
3.41961
3.33994
3.21023
2.98184
2.84779
4.58146
22.4377
49.8136
60.0281
51.6274
3.14732
3.15402
3.16181
3.17073
3.18089
3.19177
3.20124
3.20464
3.19462
3.16025
3.08355
2.93968
2.73989
2.50996
2.6036
7.45961
28.0982
41.8027
36.365
2.99851
3.00011
3.00157
3.00297
3.00418
3.00457
3.0021
2.99258
2.96971
2.92658
2.85418
2.74108
2.57674
2.38927
2.28075
2.88666
12.219
24.3318
23.7482
2.85188
2.84934
2.84561
2.84068
2.83445
2.82628
2.81441
2.79547
2.76493
2.71695
2.64807
2.55502
2.43422
2.29189
2.13143
2.17682
3.84472
13.6255
16.644
2.70769
2.70185
2.69401
2.68407
2.67195
2.65714
2.63825
2.61286
2.57769
2.52807
2.46282
2.38129
2.2851
2.1725
2.04003
1.92314
2.12579
3.3802
10.1941
2.56598
2.55763
2.54673
2.53305
2.51652
2.49683
2.47294
2.44325
2.40553
2.35659
2.29566
2.22349
2.14338
2.06032
1.9796
1.92725
1.97415
2.22789
9.12954
2.4266
2.4165
2.40348
2.38722
2.36767
2.34464
2.31741
2.28502
2.24613
2.19917
2.14272
2.07894
2.01089
1.94431
1.89156
1.86177
1.77026
2.08572
11.1193
2.28934
2.2781
2.26378
2.246
2.22466
2.19962
2.17043
2.1366
2.09751
2.05257
2.00096
1.94448
1.88611
1.82975
1.77841
1.73639
1.63698
1.58683
2.03804
2.15386
2.14203
2.1271
2.10867
2.08659
2.0607
2.03072
1.99646
1.95783
1.91487
1.86797
1.81811
1.76916
1.72469
1.68724
1.66069
1.6301
1.43996
1.40798
2.01989
2.00787
1.99288
1.9745
1.95252
1.92676
1.89701
1.86322
1.82559
1.78464
1.74145
1.69768
1.6574
1.626
1.60978
1.61493
1.65653
1.59178
4.5953
1.88715
1.87526
1.86059
1.84277
1.82156
1.79673
1.76809
1.73557
1.69946
1.66049
1.62005
1.5806
1.54648
1.52418
1.52213
1.55401
1.68411
1.61043
6.09746
1.75543
1.74388
1.7298
1.71289
1.69292
1.66964
1.6428
1.61229
1.57826
1.54136
1.50291
1.46526
1.43255
1.41085
1.40759
1.4421
1.64962
1.24388
5.88835
1.62454
1.61348
1.60016
1.58436
1.56592
1.54457
1.52006
1.49215
1.4608
1.42629
1.38948
1.35201
1.31663
1.28714
1.26747
1.27953
1.46701
0.422086
4.88281
1.49433
1.48387
1.47139
1.45679
1.44
1.42077
1.39884
1.37393
1.34577
1.31418
1.27931
1.24172
1.20223
1.16142
1.12324
1.11049
1.05181
-0.167494
6.37108
1.36467
1.35487
1.34328
1.32992
1.31474
1.29758
1.27825
1.25646
1.23178
1.20365
1.1715
1.13484
1.09286
1.04319
0.987841
0.96388
0.83438
2.42367
16.1395
1.23546
1.22636
1.21568
1.20351
1.18984
1.1746
1.15767
1.13882
1.11758
1.09317
1.06453
1.03025
0.988052
0.932971
0.856351
0.768759
0.602235
0.342374
0.624194
1.10662
1.09824
1.08847
1.07743
1.06514
1.05159
1.03676
1.02049
1.00236
0.981591
0.956933
0.926559
0.887623
0.835375
0.763877
0.674584
0.580478
0.519364
0.524167
0.978095
0.970433
0.961563
0.951586
0.940535
0.928474
0.915438
0.90134
0.885866
0.868356
0.847676
0.822091
0.789056
0.745224
0.689825
0.624338
0.562353
0.506384
0.495781
0.849851
0.842909
0.8349
0.825905
0.815995
0.805269
0.793791
0.781529
0.768271
0.753524
0.73641
0.715554
0.688998
0.654461
0.61287
0.565115
0.521329
0.483226
0.472801
0.721894
0.715641
0.708434
0.700351
0.69151
0.682018
0.671949
0.661303
0.649944
0.637534
0.623454
0.606734
0.586
0.559751
0.528598
0.493101
0.462079
0.437947
0.432239
0.594242
0.588578
0.582091
0.574868
0.567053
0.558748
0.550021
0.540886
0.531258
0.520916
0.509451
0.496236
0.480398
0.461055
0.438416
0.411845
0.390223
0.37398
0.370486
0.466861
0.461622
0.455765
0.449372
0.442577
0.43546
0.428074
0.420432
0.412484
0.404091
0.395
0.384828
0.373063
0.359185
0.343145
0.324857
0.309474
0.297728
0.295029
0.340132
0.335366
0.329948
0.324224
0.318339
0.312329
0.306215
0.300006
0.293675
0.287146
0.280279
0.272867
0.264636
0.255315
0.244843
0.233249
0.223377
0.214755
0.212663
0.216821
0.211897
0.206231
0.200622
0.195174
0.189857
0.184646
0.179533
0.174515
0.169575
0.164672
0.15974
0.154684
0.1494
0.143849
0.138009
0.133057
0.128806
0.127175
0.0938235
0.085118
0.079461
0.0746967
0.0704314
0.0664959
0.0627926
0.0592837
0.0559646
0.0528581
0.0500067
0.0474631
0.0452789
0.0434959
0.0421378
0.0411548
0.0407163
0.040414
0.0399287
)
;

boundaryField
{
    leftWall
    {
        type            calculated;
        value           nonuniform List<scalar> 
50
(
4260.57
3461.2
2662.73
1856.91
1119.14
740.23
659.717
598.329
501.781
368.402
231.544
95.7551
17.689
5.12774
4.98257
4.83184
4.6829
4.53426
4.38588
4.23801
4.09091
3.94473
3.79953
3.6553
3.51201
3.36963
3.228
3.08708
2.94681
2.8071
2.66789
2.5291
2.39066
2.25251
2.11459
1.97685
1.83927
1.70179
1.56442
1.42711
1.28986
1.15267
1.01553
0.878455
0.741531
0.604788
0.467992
0.330557
0.193518
0.0667401
)
;
    }
    rightWall
    {
        type            calculated;
        value           nonuniform List<scalar> 
50
(
1298.8
1268.32
1232.68
1190.87
1144.11
1093.05
1036.96
977.494
887.704
777.455
671.409
572.111
481.647
400.372
328.596
267.032
215.849
175.842
146.265
125.466
111.147
100.514
90.7927
79.8474
66.6741
51.6274
36.365
23.7482
16.644
10.1941
9.12954
11.1193
2.03804
1.40798
4.5953
6.09746
5.88835
4.88281
6.37108
16.1395
0.624194
0.524167
0.495781
0.472801
0.432239
0.370486
0.295029
0.212663
0.127175
0.0399287
)
;
    }
    lowerWall
    {
        type            calculated;
        value           nonuniform List<scalar> 
62
(
4658.72
4684.61
4730.82
4776.85
4818.52
4861.66
4911.56
4972.27
5047.86
5143.4
5265.13
5420.04
5614.34
5851.53
6134.37
6457.06
6812.63
7189.66
7573.59
7943.99
8275.36
8522.18
8663.86
8265.93
7501.32
6760.65
6047.1
5358.2
4694.77
4059.23
3434.2
2918.17
2898.61
2861.09
2685.31
3302.49
3270.02
3231.62
3190.17
3151.82
3119.25
2988.2
2118.77
3317.21
3325.18
3362.86
3409.48
3461.3
3496.7
3600.07
3756.85
3955.25
3809.49
2861.96
1649.37
1032.59
873.612
988.897
1161.69
1267.26
1308.02
1312.09
)
;
    }
    atmosphere
    {
        type            calculated;
        value           nonuniform List<scalar> 
46
(
-0.0081254
-0.0240428
-0.0230643
-0.0224221
-0.0218898
-0.0213567
-0.0207474
-0.0200146
-0.0191312
-0.0180865
-0.0168809
-0.0155241
-0.0140328
-0.0124304
-0.0107461
-0.00901444
-0.00727561
-0.00557521
-0.00396582
-0.00251178
-0.00130024
-0.000450479
-6.14046e-05
-2.36343e-05
0
0
0
0
0
0
0
0
0
0
0
0
0
0
0
0
0
0
0
0
0
0
)
;
    }
    defaultFaces
    {
        type            empty;
    }
}


// ************************************************************************* //
