/*--------------------------------*- C++ -*----------------------------------*\
  =========                 |
  \\      /  F ield         | OpenFOAM: The Open Source CFD Toolbox
   \\    /   O peration     | Website:  https://openfoam.org
    \\  /    A nd           | Version:  13
     \\/     M anipulation  |
\*---------------------------------------------------------------------------*/
FoamFile
{
    format      ascii;
    class       volScalarField;
    location    "0.5";
    object      rho;
}
// * * * * * * * * * * * * * * * * * * * * * * * * * * * * * * * * * * * * * //

dimensions      [1 -3 0 0 0 0 0];

internalField   nonuniform List<scalar> 
2268
(
13529
13529
13529
13529
13529
13529
13529
13529
13529
13529
13529
13529
13529
13529
13529
13529
13529
13529
13529
13529
13529
13529
13521.6
13529
13529
13529
13529
13529
13529
13529
13529
13529
13529
13529
13529
13529
13529
13529
13529
13529
13529
13529
13529
13529
13529
13521.5
13529
13529
13529
13529
13529
13529
13529
13529
13529
13529
13529
13529
13529
13529
13529
13529
13529
13529
13529
13529
13529
13529
13521.5
13529
13529
13529
13529
13529
13529
13529
13529
13529
13529
13529
13529
13529
13529
13529
13529
13529
13529
13529
13529
13529
13529
13524.8
11218.9
11333.2
11342.9
11414.1
11567.1
11777.9
12024.2
12298
12598.6
12919
13230.9
13467.5
13529
13529
13529
13529
13529
13529
13529
13529
13529
13529
13529
1742.89
2015.8
2064.53
2127.24
2252.51
2446.35
2708.8
3056.42
3530.1
4202.31
5202.17
6761.37
8981.16
11200.1
13214.7
13529
13529
13529
13529
13529
13529
13529
13529
1000
1000
1000
1000
1000
1000
1000
1000
1000
1000
1000
1000
1096.98
1939.01
4235.1
8733.41
13074
13529
13529
13529
13529
13529
13529
1000
1000
1000
1000
1000
1000
1000
1000
1000
1000
1000
1000
1000
1000
1000
1356.29
4719.29
11683.1
13529
13529
13529
13529
13529
499.994
500
500
500
499.627
455.174
333.785
327.159
871.439
814.119
755.149
763.377
311.434
280.344
499.925
499.96
500
489.045
451.729
499.997
499.892
479.061
405.013
269.938
57.7354
273.075
711.49
2566.76
6416.51
6224.75
1796.76
983.931
206.132
463.625
500
500
493.039
439.343
499.997
499.997
364.035
89.2937
14.136
26.3164
1590.74
5749.82
8383.66
8470.71
8463.53
6825.09
1331.98
424.272
438.441
500
500
494.917
435.062
499.997
499.997
441.218
317.21
415.726
1850.76
7623.32
8534.56
8730.44
8061.98
8419.79
8417.67
2269.24
361.462
441.451
500
500
496.594
435
499.99
499.997
499.541
709.699
1876.84
4905.04
8822.77
8730.72
5152.02
1530.34
2478.28
6168.76
2571.27
341.953
470.446
500
500
499.813
435.062
499.988
486.214
2007.26
6647.52
10045.6
10434.6
10302
5161.15
505.281
500.009
503.007
1040.59
1574.85
480.521
497.311
500
500
500
450.836
1878.19
6005.39
10093.1
10820.1
10839
9629.07
9085.82
2346.95
499.999
500.004
500.03
479.375
692.145
411.269
483.829
500
500
500
497.751
12195
12483.3
11231.9
10703.6
7459.82
2497.68
1970.74
1194.8
500.918
500.003
500.003
506.425
383.144
294.332
465.607
500
500
500
500
1000
1000
1000
1000
1000
1000
1000
1000
1000
1000
1000
1000
1000
1000
1000
1000
1000
2034.39
6846.37
12330.9
13528.9
13529
13529
1000
1000
1000
1000
1000
1000
1000
1000
1000
1000
1000
1000
1000
1000
1000
1000
1000
1000
999.999
2374.65
6340.07
11082.2
13031.7
1000
1000
1000
1000
1000
1000
1000
1000
1000
1000
1000
1000
1000
1000
1000
1000
1000
1000
1000
1000
1015.44
1417.49
2517.66
919.185
933.035
953.756
974.821
991.007
999.149
1000
1000
1000
1000
1000
1000
1000
1000
1000
1000
1000
1000
1000
1000
1000.06
999.91
1000
199.297
226.912
270.536
336.757
425.096
534.906
659.347
760.145
852.529
929.106
980.729
999.629
1000
1000
1000
1000
1000
1000
1000
1000
999.994
999.957
1000
1
1
1
1
1
1
5.75644
48.4558
114.29
213.179
360.993
564.24
761.965
896.375
974.313
998.556
999.999
999.999
999.999
1000
999.999
999.45
994.066
1
1
1
1
1
1
1
1
1
1
1
1
28.6124
115.282
253.364
461.797
695.714
843.536
916.604
961.765
953.351
910.303
809.39
1
1
1
1
1
1
1
1
1
1
1
1
1
1.0006
1.00799
1.0255
1.0442
1.04765
53.1653
252.271
260.794
164.658
97.3775
1
1
1
1
1
1
1
1
1
1
1
1
1
1
1
1
1.04672
1.07316
1.06373
1.03772
1.03126
1.00939
0.999999
1
1
1
1
1
1
1
1
1
1
1
1
1.00001
1.00002
1.00002
1.00002
1.00208
1.06312
1.0691
1.04372
1.00025
1.00004
1.00004
1
1
1
1
1
1
1
1
1
1
1
1
1.00001
1.00004
1.00006
1.00005
1.00002
1
1.00016
1
1.00004
1.00005
1.00005
1
1
1
1
1
1
1
1
1
1
1
1
1.00001
1.00003
1.00005
1.00004
1.00002
1
1
1
1
1
1
1
1
1
1
1
1
1
1
1
1
1
1
1
1
1.00001
1.00001
1
1
1
1
1
1
1
1
1
1
1
1
1
1
1
1
1
1
1
1
1
1
1
1
1
1
1
1
1
1
1
1
1
1
1
1
1
1
1
1
1
1
1
1
1
1
1
1
1
1
1
1
1
1
1
1
1
1
1
1
1
1
1
1
1
1
1
1
1
1
1
1
1
1
1
1
1
1
1
1
1
1
1
1
1
1
1
1
1
1
1
1
1
1
1
1
1
1
1
1
1
1
1
1
1
1
1
1
1
1
1
1
1
1
1
1
1
1
1
1
1
1
1
1
1
1
1
1
1
1
1
1
1
1
1
1
1
1
1
1
1
1
1
1
1
1
1
1
1
1
1
1
1
1
1
1
1
1
1
1
1
1
1
1
1
1
1
1
1
1
1
1
1
1
1
1
1
1
1
1
1
1
1
1
1
1
1
1
1
1
1
1
1
1
1
1
1
1
1
1
1
1
1
1
1
1
1
1
1
1
1
1
1
1
1
1
1
1
1
1
1
1
1
1
1
1
1
1
1
1
1
1
1
1
1
1
1
1
1
1
1
1
1
1
1
1
1
1
1
1
1
1
1
1
1
1
1
1
1
1
1
1
1
1
1
1
1
1
1
1
1
1
1
1
1
1
1
1
1
1
1
1
1
1
1
1
1
1
1
1
1
1
1
1
1
1
1
1
1
1
1
1
1
1
1
1
1
1
1
1
1
1
1
1
1
1
1
1
1
1
1
1
1
1
1
1
1
1
1
1
1
1
1
1
1
1
1
1
1
1
1
1
1
1
1
1
1
1
1
1
1
1
1
1
1
1
1
1
1
1
1
1
1
1
1
1
1
1
1
1
1
1
1
1
1
1
1
1
1
1
1
1
1
1
1
1
1
1
1
1
1
1
1
1
1
1
1
1
1
1
1
1
1
1
1
1
1
1
1
1
1
1
1
1
1
1
1
1
1
1
1
1
1
1
1
1
1
1
1
1
1
1
1
1
1
1
1
1
1
1
1
1
1
1
1
1
1
1
1
1
1
1
1
1
1
1
1
1
1
1
1
1
1
1
1
1
1
1
1
1
1
1
1
1
1
1
1
1
1
1
1
1
1
1
1
1
1
1
1
1
1
1
1
1
1
1
1
1
1
1
1
1
1
1
1
1
1
1
1
1
1
1
1
1
1
1
1
1
1
1
1
1
1
1
1
1
1
1
1
1
1
1
1
1
1
1
1
1
1
1
1
1
1
1
1
1
1
1
1
1
1
1
1
1
1
1
1
1
1
1
1
1
1
1
1
1
1
1
1
1
1
1
1
1
1
1
1
1
1
1
1
1
1
1
1
1
1
1
1
1
1
1
1
1
1
1
1
1
1
1
1
1
1
1
1
1
1
1
1
1
1
1
1
1
1
1
1
1
1
1
1
1
1
1
1
1
1
1
1
1
1
1
1
1
1
1
1
1
1
1
1
1
1
1
1
1
1
1
1
1
1
1
1
1
1
1
1
1
1
1
1
1
1
1
1
1
1
1
1
1
1
1
1
1
13526.6
13517.4
13511.3
13514.5
12776.7
12333.9
11190.9
9681.64
2553.87
2277.99
1387.15
999.302
1000
1000
1000
1000
1000
1000
1000
1000
980.61
956.752
911.44
878.367
690.046
565.457
553.061
465.954
131.898
257.572
340.058
318.899
1.00023
1.00088
1.00179
1.00202
1.00035
1.00157
1.00218
1.00171
1.00003
1.00002
1.00001
1.00001
1
1
1
1
1
1
1
1
1
1
1
1
1
1
1
1
1
1
1
1
1
1
1
1
1
1
1
1
1
1
1
1
1
1
1
1
1
1
1
1
1
1
1
1
1
1
1
1
1
1
1
1
1
1
1
1
1
1
1
1
1
1
1
1
1
1
1
1
1
1
1
1
1
1
1
1
1
1
1
1
1
1
1
1
1
1
1
1
1
1
1
1
1
1
1
1
1
1
1
1
1
1
1
1
1
1
1
1
1
1
1
1
1
1
1
1
1
1
1
1
1
1
1
1
13452.2
12800.6
10614.6
6000.37
1687.34
1193.4
988.249
705.546
522.884
500.006
500.002
500
457.246
436.214
489.445
500
500
500
500
7322.85
4227.41
1349.36
983.814
988.234
988.576
959.808
625.74
500.683
500.512
500
500
500
500
500.119
499.976
500
500
500
998.654
999.08
996.756
993.747
979.468
894.264
678.145
507.316
500.001
500
500.001
500.001
500
500
500.002
499.989
499.999
500
500
999.998
1000
999.967
908.367
697.616
512.241
499.538
499.995
500.024
500
500
500.001
500
500
500
500.001
500
500
500
999.004
961.115
798.269
548.943
494.85
499.221
499.705
498.874
500.025
500.001
500
500.001
500
500
500
500
500
500
500
777.659
581.641
471.717
464.031
410.941
359.611
299.484
250.357
326.492
468.302
500
500.001
500.001
499.999
499.999
500
500
500
500
372.301
372.581
328.609
198.088
66.2318
15.1944
1.00151
1.00007
22.3768
196.429
474.191
500.001
500
499.999
499.999
500
500
500
500
96.8164
48.7829
23.1214
1.00632
1.00396
1.00344
1.00221
1.00059
1.0001
10.8659
230.123
497.326
500
500
500
500
499.999
500
500
1.00329
1.00894
1.00992
1.00726
1.00136
1.0009
1.0007
1.00028
1.00007
1.00002
10.027
312.234
500
500
499.99
499.946
500
500
500
1.00075
1.00253
1.00466
1.00121
1.00033
1.00011
1.0001
1.00008
1.00004
1.00003
1.00007
44.6546
442.687
500
499.979
499.872
500
500
500
1
1
1
1.00001
1.00002
1.00003
1.00002
1.00003
1.00003
1.00001
1.00007
1.00057
196.947
500
499.994
499.87
499.979
500
500
1
1
1
1.00001
1.00002
1.00003
1.00002
1.0003
1.00291
1.00217
1.00006
1.00018
81.2543
478.56
500
499.94
499.928
500
500
1
1
1
1.00001
1.00002
1.00003
1.00002
1.00079
1.0049
1.00447
1.00006
1.00023
61.515
443.267
500
499.988
499.93
500
500
1
1
1
1.00001
1.00001
1.00001
1.00001
1.00045
1.00508
1.00481
1.00125
1.00022
38.6574
410.867
500
500
499.99
500
500
1
1
1
1
1
1
1.00001
1.00016
1.00342
1.00484
1.00182
1.00003
7.818
314.648
500
500
500
499.998
500
1
1
1
1
1
1
1
1.00003
1.00026
1.00367
1.00075
1.00003
1.0004
124.973
500
500
499.999
499.998
500
1
1
1
1
1
1
1
1.00001
1.00007
1.00005
1
1.00002
1.00002
9.01418
324.485
500
500
499.999
500
1
1
1
1
1
1
1
1
1.00001
1
1
1.00003
1.00002
1.00036
46.12
427.64
500
500
500
1
1
1
1
1
1
1
1
1
1
1.00001
1.00003
1.00002
1.00001
1.00099
111.119
472.197
500
500
1
1
1
1
1
1
1
1
1
1
1.00001
1.00003
1.00001
1.00001
1.00001
3.66615
277.295
500
498.912
1
1
1
1
1
1
1
1
1
1
1.00001
1.00002
1.00001
1.00001
1.00002
1.00008
44.2359
362.408
494.397
1
1
1
1
1
1
1
1
1
1
1.00001
1.00001
1.00001
1.00001
1.00002
1.00002
1.00007
34.4883
491.983
1
1
1
1
1
1
1
1
1
1
1
1.00001
1.00001
1.00001
1.00001
1.00001
1.00001
12.4435
491.24
1
1
1
1
1
1
1
1
1
1
1
1
1.00001
1.00001
1.00001
1.00001
1.00001
10.482
324.733
1
1
1
1
1
1
1
1
1
1
1
1
1.00001
1.00001
1.00001
1.00001
1.00001
1.00012
98.5752
1
1
1
1
1
1
1
1
1
1
1
1
1.00001
1.00001
1.00001
1.00001
1.00001
1
189.475
1
1
1
1
1
1
1
1
1
1.00001
1.00001
1.00001
1.00001
1.00001
1.00001
1.00001
1.00001
1
400.85
1
1
1
1
1
1
1
1
1.00001
1.00001
1.00001
1.00001
1.00001
1.00001
1.00001
1.00001
1.00001
1.21436
468.724
1
1
1
1
1
1
1
1
1.00001
1.00001
1.00002
1.00001
1.00001
1.00001
1.00001
1.00001
1.00001
9.20226
468.807
1
1
1
1
1
1
1
1
1
1.00001
1.00002
1.00004
1.00003
1.00001
1.00001
1.00001
1.00001
40.1116
468.211
1
1
1
1
1
1
1
1
1
1
1.00002
1.00007
1.0001
1.00006
1.00001
1.00001
1.00001
93.7543
468.631
1
1
1
1
1
1
1
1
1
1
1.00001
1.00005
1.00015
1.00015
1.00003
1.00001
1.00021
64.7935
252.501
1
1
1
1
1
1
1
1
1
1
1
1.00002
1.00009
1.00021
1.0002
1.00001
1.00334
1.00019
2.21948
1
1
1
1
1
1
1
1
1
1
1
1.00001
1.00004
1.00012
1.00017
1.00262
1.00642
1.00002
1
1
1
1
1
1
1
1
1
1
1
1
1.00001
1.00001
1.00006
1.00016
1.00279
1.00671
1.00044
1
1
1
1
1
1
1
1
1
1
1
1
1
1.00001
1.00003
1.00013
1.00043
1.00061
1.00008
1
1
1
1
1
1
1
1
1
1
1
1
1
1
1.00001
1.00003
1.00005
1.00004
1.00002
1
1
1
1
1
1
1
1
1
1
1
1
1
1
1
1
1
1.00001
1
1
1
1
1
1
1
1
1
1
1
1
1
1
1
1
1
1
1
1
1
1
1
1
1
1
1
1
1
1
1
1
1
1
1
1
1
1
1
1
1
1
1
1
1
1
1
1
1
1
1
1
1
1
1
1
1
1
1
1
1
1
1
1
1
1
1
1
1
1
1
1
1
1
1
1
1
1
)
;

boundaryField
{
    leftWall
    {
        type            calculated;
        value           nonuniform List<scalar> 
50
(
13529
13529
13529
13529
11218.9
1742.89
1000
1000
1000
1000
1000
919.185
199.297
1
1
1
1
1
1
1
1
1
1
1
1
1
1
1
1
1
1
1
1
1
1
1
1
1
1
1
1
1
1
1
1
1
1
1
1
1
)
;
    }
    rightWall
    {
        type            calculated;
        value           nonuniform List<scalar> 
50
(
451.729
439.343
435.062
435
435.062
450.836
497.751
500
500
500
500
500
500
500
500
500
500
500
500
500
500
500
500
500
500
500
500
498.912
494.397
491.983
491.24
324.733
98.5752
189.475
400.85
468.724
468.807
468.211
468.631
252.501
2.21948
1
1
1
1
1
1
1
1
1
)
;
    }
    lowerWall
    {
        type            calculated;
        value           nonuniform List<scalar> 
62
(
13529
13529
13529
13529
13529
13529
13529
13529
13529
13529
13529
13529
13529
13529
13529
13529
13529
13529
13529
13529
13529
13529
13521.6
13521.6
13521.5
13521.5
13524.8
13529
13529
13529
13529
13526.6
13517.4
13511.3
13514.5
499.994
499.997
499.997
499.997
499.99
499.988
1878.19
12195
499.994
500
500
500
499.627
455.174
333.785
327.159
871.439
814.119
755.149
763.377
311.434
280.344
499.925
499.96
500
489.045
451.729
)
;
    }
    atmosphere
    {
        type            calculated;
        value           nonuniform List<scalar> 
46
(
1
1
1
1
1
1
1
1
1
1
1
1
1
1
1
1
1
1
1
1
1
1
1
1
1
1
1
1
1
1
1
1
1
1
1
1
1
1
1
1
1
1
1
1
1
1
)
;
    }
    defaultFaces
    {
        type            empty;
    }
}


// ************************************************************************* //
