/*--------------------------------*- C++ -*----------------------------------*\
  =========                 |
  \\      /  F ield         | OpenFOAM: The Open Source CFD Toolbox
   \\    /   O peration     | Website:  https://openfoam.org
    \\  /    A nd           | Version:  13
     \\/     M anipulation  |
\*---------------------------------------------------------------------------*/
FoamFile
{
    format      ascii;
    class       volVectorField;
    location    "0.5";
    object      U;
}
// * * * * * * * * * * * * * * * * * * * * * * * * * * * * * * * * * * * * * //

dimensions      [0 1 -1 0 0 0 0];

internalField   nonuniform List<vector> 
2268
(
(-0.0259058 0.00713009 0)
(-0.0113361 -0.0087841 0)
(0.023641 -0.0126876 0)
(0.055372 -0.0118922 0)
(0.0858709 -0.0107279 0)
(0.113898 -0.00967047 0)
(0.139476 -0.00876916 0)
(0.162745 -0.00793808 0)
(0.183606 -0.00707711 0)
(0.201688 -0.00610109 0)
(0.216421 -0.00495501 0)
(0.227157 -0.00362086 0)
(0.233278 -0.00208951 0)
(0.234219 -0.000400163 0)
(0.229595 0.00116407 0)
(0.219259 0.00300371 0)
(0.203086 0.00508694 0)
(0.180682 0.00763292 0)
(0.151483 0.0106973 0)
(0.114918 0.0142582 0)
(0.072272 0.0183651 0)
(0.0160529 0.0206415 0)
(-0.0270798 -0.00258535 0)
(-0.00370107 0.0100856 0)
(0.0239776 -0.0175633 0)
(0.0520524 -0.0225797 0)
(0.0793722 -0.0219639 0)
(0.10567 -0.0203399 0)
(0.130231 -0.0186831 0)
(0.152969 -0.0171146 0)
(0.173791 -0.0155013 0)
(0.192392 -0.0136647 0)
(0.208249 -0.0114472 0)
(0.220674 -0.00875653 0)
(0.228928 -0.00558905 0)
(0.232287 -0.00196377 0)
(0.22999 0.00201839 0)
(0.221762 0.00604548 0)
(0.207683 0.0103309 0)
(0.188006 0.0146779 0)
(0.163188 0.0193401 0)
(0.133717 0.0240991 0)
(0.100457 0.028638 0)
(0.065672 0.0326555 0)
(0.025739 0.0309973 0)
(0.0025036 -0.0026301 0)
(0.0211837 -0.000558365 0)
(0.0456534 -0.0299745 0)
(0.0702668 -0.0348525 0)
(0.0934642 -0.0338646 0)
(0.11614 -0.0316352 0)
(0.137831 -0.0293041 0)
(0.158286 -0.0269692 0)
(0.177172 -0.024426 0)
(0.193989 -0.0214108 0)
(0.20807 -0.017689 0)
(0.218608 -0.0131303 0)
(0.224771 -0.00775826 0)
(0.225783 -0.0016233 0)
(0.220818 0.00514429 0)
(0.209742 0.0118914 0)
(0.192873 0.0187212 0)
(0.17096 0.025272 0)
(0.145063 0.0318559 0)
(0.116317 0.0379977 0)
(0.0865462 0.043214 0)
(0.0585412 0.0471848 0)
(0.0298977 0.0437058 0)
(0.0177497 0.00813936 0)
(0.039044 -0.0226985 0)
(0.0590248 -0.0426722 0)
(0.0814147 -0.0459522 0)
(0.101475 -0.0445564 0)
(0.121479 -0.0419902 0)
(0.141097 -0.0392475 0)
(0.159909 -0.0363299 0)
(0.17738 -0.0329546 0)
(0.19285 -0.0287768 0)
(0.205528 -0.0234778 0)
(0.214487 -0.0168695 0)
(0.218806 -0.00899923 0)
(0.217662 -9.16546e-07 0)
(0.210191 0.00987871 0)
(0.196483 0.019356 0)
(0.177168 0.0285899 0)
(0.153482 0.036836 0)
(0.126969 0.0446704 0)
(0.0991563 0.0512821 0)
(0.0725497 0.0558986 0)
(0.0500418 0.0584681 0)
(0.0292808 0.0528445 0)
(0.0237632 0.0197114 0)
(0.0480172 -0.0477461 0)
(0.0639513 -0.053472 0)
(0.0854095 -0.0544594 0)
(0.103733 -0.0526893 0)
(0.122256 -0.0499576 0)
(0.140692 -0.0469935 0)
(0.158513 -0.0436865 0)
(0.175063 -0.0396964 0)
(0.18959 -0.0346178 0)
(0.201214 -0.0280513 0)
(0.20891 -0.0197131 0)
(0.211621 -0.00955778 0)
(0.20847 0.00240373 0)
(0.198606 0.0156131 0)
(0.182352 0.0282421 0)
(0.160735 0.0399201 0)
(0.135605 0.0493214 0)
(0.108908 0.0576449 0)
(0.0823091 0.0637913 0)
(0.0587357 0.0667496 0)
(0.0408207 0.0670681 0)
(0.0259892 0.0592057 0)
(0.0248809 0.0307889 0)
(0.047282 -0.0676087 0)
(0.0589167 -0.0605522 0)
(0.0811194 -0.0604523 0)
(0.0986334 -0.0585926 0)
(0.116549 -0.0559421 0)
(0.134415 -0.0529609 0)
(0.15167 -0.0493955 0)
(0.167643 -0.0448713 0)
(0.181581 -0.0389606 0)
(0.192612 -0.0312335 0)
(0.199712 -0.0213943 0)
(0.201739 -0.00944068 0)
(0.197406 0.0046869 0)
(0.185797 0.0204026 0)
(0.167622 0.0359399 0)
(0.143822 0.0508501 0)
(0.117604 0.0621066 0)
(0.091291 0.0704714 0)
(0.0665351 0.0753801 0)
(0.0463068 0.0757888 0)
(0.0326123 0.07351 0)
(0.0227533 0.0636823 0)
(0.0245084 0.0411801 0)
(0.0231604 -0.0941019 0)
(0.0400033 -0.0740017 0)
(0.0626592 -0.0730767 0)
(0.0802666 -0.0707841 0)
(0.097909 -0.0680314 0)
(0.115313 -0.064584 0)
(0.132185 -0.0600364 0)
(0.148043 -0.0539933 0)
(0.162245 -0.0460142 0)
(0.173978 -0.0356717 0)
(0.18218 -0.0227377 0)
(0.185291 -0.00751728 0)
(0.180694 0.00940917 0)
(0.167866 0.0272221 0)
(0.148659 0.0438959 0)
(0.125184 0.0596139 0)
(0.100384 0.0721726 0)
(0.0751216 0.0818667 0)
(0.0532414 0.0855077 0)
(0.0371924 0.0827725 0)
(0.0280351 0.0779601 0)
(0.0230365 0.0670485 0)
(0.0261329 0.0541255 0)
(0.00478395 -0.103186 0)
(0.0226697 -0.0859104 0)
(0.0430851 -0.0828789 0)
(0.0598151 -0.079783 0)
(0.0761532 -0.0768496 0)
(0.0919642 -0.0734172 0)
(0.107136 -0.0688665 0)
(0.121387 -0.0626399 0)
(0.134294 -0.0541319 0)
(0.145291 -0.0426655 0)
(0.153617 -0.0275446 0)
(0.158185 -0.00814427 0)
(0.157356 0.0155306 0)
(0.15003 0.0395728 0)
(0.133977 0.0584063 0)
(0.10823 0.0714057 0)
(0.0831564 0.0818664 0)
(0.061831 0.0902381 0)
(0.044676 0.0926595 0)
(0.0340341 0.0870399 0)
(0.03047 0.0796565 0)
(0.0311891 0.0673745 0)
(0.0394607 0.0731563 0)
(-0.155262 0.0497214 0)
(-0.197561 0.00412245 0)
(-0.165391 -0.0354812 0)
(-0.0644993 -0.0436738 0)
(0.0002272 -0.0325777 0)
(0.0168433 -0.0402516 0)
(0.158062 -0.0161677 0)
(0.57412 -0.119285 0)
(1.00429 -0.169578 0)
(1.27597 -0.193768 0)
(1.62114 -0.207552 0)
(2.07975 -0.134254 0)
(2.34215 -0.0234451 0)
(2.18288 0.0829221 0)
(1.77146 0.133191 0)
(1.24003 0.153891 0)
(0.736847 0.143956 0)
(0.302439 0.123726 0)
(-0.0569055 0.012392 0)
(-0.128598 0.0986279 0)
(-0.147819 0.0179435 0)
(-0.114379 -0.0373429 0)
(-0.0629287 -0.0331145 0)
(-0.0156255 0.00526534 0)
(0.00695365 0.0117397 0)
(0.65117 -0.250352 0)
(0.834965 -0.243799 0)
(0.957044 -0.215456 0)
(1.06941 -0.218878 0)
(1.17087 -0.22168 0)
(1.31369 -0.158581 0)
(1.52305 -0.0244111 0)
(1.58798 0.169926 0)
(1.35414 0.253827 0)
(1.00578 0.29083 0)
(0.649375 0.276254 0)
(0.319664 0.233283 0)
(0.0742239 0.100415 0)
(-0.109524 0.144478 0)
(-0.0968017 0.0147684 0)
(-0.0316485 -0.058267 0)
(0.0445928 -0.0707226 0)
(0.299314 -0.103981 0)
(0.695223 -0.259605 0)
(0.78216 -0.308026 0)
(0.852008 -0.271806 0)
(0.913094 -0.239739 0)
(0.969163 -0.23435 0)
(1.015 -0.249996 0)
(1.06288 -0.211271 0)
(1.1542 -0.0441472 0)
(1.17059 0.143173 0)
(1.05142 0.343871 0)
(0.818393 0.407038 0)
(0.563079 0.398331 0)
(0.311014 0.340399 0)
(0.122852 0.188515 0)
(-0.0891815 0.175659 0)
(7.11345e-05 -0.00750144 0)
(0.142745 -0.103802 0)
(0.345458 -0.178281 0)
(0.582595 -0.239619 0)
(0.714019 -0.300246 0)
(0.775219 -0.327047 0)
(0.830741 -0.289853 0)
(0.878281 -0.253091 0)
(0.913639 -0.248544 0)
(0.927629 -0.261246 0)
(0.934396 -0.221414 0)
(0.9583 -0.0774589 0)
(0.94669 0.214725 0)
(0.840047 0.411858 0)
(0.674428 0.492227 0)
(0.486607 0.491645 0)
(0.289355 0.428897 0)
(0.137343 0.279258 0)
(-0.0555513 0.179199 0)
(0.154935 -0.0620739 0)
(0.356049 -0.191758 0)
(0.516817 -0.277126 0)
(0.618672 -0.299545 0)
(0.695151 -0.327278 0)
(0.750502 -0.346575 0)
(0.80007 -0.308889 0)
(0.84746 -0.26671 0)
(0.87951 -0.250023 0)
(0.872883 -0.267002 0)
(0.842216 -0.219871 0)
(0.827709 -0.069973 0)
(0.772716 0.24064 0)
(0.682295 0.462816 0)
(0.561128 0.554815 0)
(0.420202 0.561778 0)
(0.262454 0.501558 0)
(0.133787 0.364394 0)
(0.0783894 0.221827 0)
(0.340395 -0.19846 0)
(0.480126 -0.27175 0)
(0.548875 -0.303719 0)
(0.612058 -0.321677 0)
(0.671465 -0.348097 0)
(0.718078 -0.366976 0)
(0.760764 -0.327453 0)
(0.814609 -0.270756 0)
(0.836859 -0.253241 0)
(0.823974 -0.25107 0)
(0.758531 -0.212061 0)
(0.696543 -0.0391854 0)
(0.621746 0.263378 0)
(0.554467 0.500961 0)
(0.46764 0.600878 0)
(0.36283 0.615571 0)
(0.234663 0.562842 0)
(0.122997 0.440445 0)
(0.334264 -0.0246467 0)
(0.410884 -0.243908 0)
(0.488316 -0.29524 0)
(0.548567 -0.32316 0)
(0.603646 -0.339618 0)
(0.655457 -0.363969 0)
(0.691204 -0.381413 0)
(0.71928 -0.345391 0)
(0.756651 -0.292148 0)
(0.770907 -0.259688 0)
(0.745606 -0.228929 0)
(0.671264 -0.173254 0)
(0.572412 -0.00618595 0)
(0.484733 0.294001 0)
(0.445258 0.529415 0)
(0.389483 0.633601 0)
(0.313549 0.657182 0)
(0.208803 0.614801 0)
(0.113357 0.506235 0)
(0.355339 -0.21074 0)
(0.416853 -0.276047 0)
(0.48687 -0.318647 0)
(0.541799 -0.344273 0)
(0.591351 -0.357944 0)
(0.640344 -0.377466 0)
(0.672776 -0.393532 0)
(0.688675 -0.359011 0)
(0.709341 -0.299049 0)
(0.709728 -0.255117 0)
(0.673708 -0.206641 0)
(0.59416 -0.128934 0)
(0.48184 0.0384255 0)
(0.381059 0.32709 0)
(0.36172 0.546756 0)
(0.327305 0.655759 0)
(0.271566 0.68937 0)
(0.185727 0.658469 0)
(0.105888 0.566098 0)
(-0.000186628 -0.104901 0)
(0.010567 -0.0963488 0)
(0.0257724 -0.0927936 0)
(0.0395669 -0.0894263 0)
(0.0533204 -0.0861603 0)
(0.0666988 -0.0823353 0)
(0.079523 -0.0772992 0)
(0.0916009 -0.0704325 0)
(0.102693 -0.0610764 0)
(0.112499 -0.0485043 0)
(0.120644 -0.0319646 0)
(0.126641 -0.0107912 0)
(0.129877 0.0152059 0)
(0.129162 0.045482 0)
(0.121928 0.0785942 0)
(0.104982 0.107269 0)
(0.0761629 0.109995 0)
(0.0504247 0.104535 0)
(0.0426958 0.100423 0)
(0.0432345 0.0900586 0)
(0.0500658 0.0765693 0)
(0.0676911 0.053384 0)
(0.11269 0.0304498 0)
(-9.49257e-05 -0.106997 0)
(0.00530986 -0.107293 0)
(0.0159211 -0.104331 0)
(0.0259788 -0.101322 0)
(0.0366415 -0.0980112 0)
(0.0473899 -0.0938502 0)
(0.0579214 -0.0882513 0)
(0.0680319 -0.0806485 0)
(0.0775967 -0.0703886 0)
(0.0865322 -0.0567505 0)
(0.0947747 -0.0390117 0)
(0.10226 -0.0165981 0)
(0.108974 0.0105916 0)
(0.114778 0.0417854 0)
(0.119344 0.0752938 0)
(0.122401 0.107262 0)
(0.122382 0.129432 0)
(0.117457 0.129943 0)
(0.101306 0.105768 0)
(0.0971712 0.0869102 0)
(0.119567 0.0649335 0)
(0.153496 0.0264162 0)
(0.205195 -0.0262539 0)
(0.00235111 -0.109087 0)
(0.00280661 -0.115085 0)
(0.0107703 -0.113391 0)
(0.0179682 -0.111225 0)
(0.0263147 -0.108291 0)
(0.0351288 -0.104103 0)
(0.0440356 -0.0981721 0)
(0.0528219 -0.0901168 0)
(0.0614819 -0.0794326 0)
(0.0701379 -0.0654247 0)
(0.0789951 -0.0474115 0)
(0.088287 -0.0248445 0)
(0.0983077 0.00229103 0)
(0.10951 0.0330546 0)
(0.122487 0.065305 0)
(0.137979 0.0950562 0)
(0.155667 0.115902 0)
(0.174234 0.121292 0)
(0.192253 0.105116 0)
(0.208096 0.0686846 0)
(0.223201 0.0262772 0)
(0.255796 -0.0216484 0)
(0.303705 -0.079457 0)
(0.00710335 -0.12164 0)
(0.000626263 -0.125221 0)
(0.0073846 -0.123198 0)
(0.0127865 -0.120905 0)
(0.0196054 -0.1178 0)
(0.0269084 -0.113489 0)
(0.034564 -0.107557 0)
(0.0423679 -0.0995246 0)
(0.0503682 -0.0889906 0)
(0.0589827 -0.0754557 0)
(0.0686806 -0.0582899 0)
(0.0799522 -0.0368168 0)
(0.093225 -0.0110358 0)
(0.109036 0.017874 0)
(0.128088 0.0471783 0)
(0.151311 0.0729817 0)
(0.179081 0.0899848 0)
(0.210801 0.0929456 0)
(0.245291 0.0779732 0)
(0.281031 0.0440248 0)
(0.318095 -0.00731173 0)
(0.357493 -0.0702313 0)
(0.396028 -0.136738 0)
(0.0134978 -0.126971 0)
(-0.0043238 -0.128688 0)
(0.00314586 -0.127957 0)
(0.00907753 -0.126901 0)
(0.0160838 -0.124697 0)
(0.0227452 -0.120967 0)
(0.0285904 -0.114861 0)
(0.0350672 -0.106982 0)
(0.0425163 -0.0970588 0)
(0.0510033 -0.0846638 0)
(0.0614389 -0.0695581 0)
(0.0746683 -0.0511976 0)
(0.0912752 -0.0291922 0)
(0.111232 -0.0042116 0)
(0.135046 0.0209307 0)
(0.163572 0.0419312 0)
(0.197228 0.0541453 0)
(0.235847 0.0530089 0)
(0.278681 0.035608 0)
(0.324172 0.00202932 0)
(0.369637 -0.0448655 0)
(0.412413 -0.102234 0)
(0.452208 -0.167241 0)
(0.107473 -0.102576 0)
(0.00340594 -0.122545 0)
(0.00564253 -0.120992 0)
(0.00911778 -0.121151 0)
(0.0140632 -0.120371 0)
(0.0159829 -0.117588 0)
(0.0151357 -0.112674 0)
(0.0207194 -0.107925 0)
(0.02922 -0.100271 0)
(0.0403743 -0.0901379 0)
(0.0545657 -0.0777129 0)
(0.0721163 -0.0622834 0)
(0.0923684 -0.0438813 0)
(0.115906 -0.0242662 0)
(0.143931 -0.00571242 0)
(0.177236 0.00762335 0)
(0.215838 0.0125036 0)
(0.258941 0.00576107 0)
(0.305887 -0.0158999 0)
(0.35485 -0.0507301 0)
(0.402963 -0.0943903 0)
(0.447325 -0.145454 0)
(0.486837 -0.202776 0)
(0.0325006 -0.201527 0)
(0.0382104 -0.0303123 0)
(0.0521864 -0.124175 0)
(0.0537501 -0.143235 0)
(0.0534576 -0.138101 0)
(0.0503943 -0.125535 0)
(0.0387773 -0.11301 0)
(0.0246173 -0.115177 0)
(0.0238501 -0.104529 0)
(0.0308128 -0.0931798 0)
(0.0414668 -0.0803193 0)
(0.058419 -0.063778 0)
(0.0847806 -0.0525917 0)
(0.11554 -0.0401414 0)
(0.152948 -0.0274093 0)
(0.195527 -0.0193734 0)
(0.240551 -0.0177519 0)
(0.290063 -0.0274803 0)
(0.339945 -0.0533215 0)
(0.387435 -0.0919956 0)
(0.433121 -0.133713 0)
(0.476483 -0.179074 0)
(0.517588 -0.231358 0)
(-0.00353851 -0.206881 0)
(0.0392441 -0.124428 0)
(0.0699298 -0.135693 0)
(0.0801756 -0.137261 0)
(0.088108 -0.129517 0)
(0.0965095 -0.115043 0)
(0.104012 -0.112785 0)
(0.110423 -0.116923 0)
(0.1144 -0.128609 0)
(0.116558 -0.133342 0)
(0.118488 -0.134211 0)
(0.126781 -0.130607 0)
(0.0923351 -0.0960033 0)
(0.103517 -0.0646095 0)
(0.140225 -0.0415233 0)
(0.188166 -0.0277238 0)
(0.244221 -0.0206582 0)
(0.324691 -0.0303769 0)
(0.393681 -0.0808959 0)
(0.43107 -0.124044 0)
(0.468538 -0.163751 0)
(0.51133 -0.207371 0)
(0.559286 -0.257684 0)
(-0.00351643 -0.216399 0)
(0.0359356 -0.161799 0)
(0.0670411 -0.15599 0)
(0.0869364 -0.150278 0)
(0.103079 -0.141171 0)
(0.120038 -0.130692 0)
(0.136992 -0.120831 0)
(0.151714 -0.120081 0)
(0.162693 -0.118651 0)
(0.169675 -0.113053 0)
(0.175716 -0.104045 0)
(0.18471 -0.0937514 0)
(0.193058 -0.107039 0)
(0.215951 -0.152056 0)
(0.245633 -0.18897 0)
(0.286366 -0.209226 0)
(0.338742 -0.238424 0)
(0.40044 -0.255108 0)
(0.404271 -0.139552 0)
(0.462119 -0.135387 0)
(0.512397 -0.177122 0)
(0.562296 -0.230972 0)
(0.609996 -0.29386 0)
(0.00142464 -0.231744 0)
(0.0321086 -0.19604 0)
(0.0596032 -0.181735 0)
(0.0826081 -0.170968 0)
(0.103366 -0.160209 0)
(0.123811 -0.149523 0)
(0.144688 -0.141318 0)
(0.16426 -0.135295 0)
(0.180926 -0.129913 0)
(0.195946 -0.122949 0)
(0.211685 -0.114715 0)
(0.232042 -0.107941 0)
(0.256952 -0.109633 0)
(0.284036 -0.129878 0)
(0.309625 -0.150066 0)
(0.335886 -0.166615 0)
(0.362592 -0.185668 0)
(0.386678 -0.205021 0)
(0.414864 -0.243885 0)
(0.466952 -0.304691 0)
(0.509015 -0.351633 0)
(0.54518 -0.399367 0)
(0.565934 -0.441116 0)
(0.00371053 -0.247249 0)
(0.0271878 -0.223249 0)
(0.0505468 -0.206725 0)
(0.0730304 -0.193772 0)
(0.0948432 -0.182233 0)
(0.11666 -0.171719 0)
(0.138695 -0.162711 0)
(0.160265 -0.155671 0)
(0.180981 -0.149424 0)
(0.201774 -0.143262 0)
(0.224248 -0.137913 0)
(0.250015 -0.135542 0)
(0.278903 -0.140851 0)
(0.30693 -0.155277 0)
(0.331096 -0.172476 0)
(0.353166 -0.188649 0)
(0.373971 -0.203858 0)
(0.396844 -0.217049 0)
(0.427052 -0.229612 0)
(0.461661 -0.270297 0)
(0.488714 -0.306535 0)
(0.507149 -0.340311 0)
(0.514627 -0.367174 0)
(0.00386607 -0.260869 0)
(0.0220221 -0.244593 0)
(0.0414847 -0.228706 0)
(0.0618585 -0.215527 0)
(0.0826825 -0.204106 0)
(0.104012 -0.194051 0)
(0.125891 -0.185434 0)
(0.148087 -0.178289 0)
(0.170573 -0.172258 0)
(0.193905 -0.167311 0)
(0.218873 -0.164245 0)
(0.245947 -0.164666 0)
(0.274242 -0.170687 0)
(0.301079 -0.182947 0)
(0.324798 -0.197926 0)
(0.346233 -0.213191 0)
(0.366562 -0.228202 0)
(0.38764 -0.242826 0)
(0.412078 -0.261268 0)
(0.434481 -0.288942 0)
(0.447967 -0.318086 0)
(0.452685 -0.34319 0)
(0.447314 -0.359912 0)
(0.00309988 -0.271963 0)
(0.0171915 -0.261463 0)
(0.0331532 -0.247444 0)
(0.0508628 -0.235175 0)
(0.0697125 -0.224531 0)
(0.0895149 -0.215282 0)
(0.110216 -0.20739 0)
(0.131725 -0.200866 0)
(0.154065 -0.195662 0)
(0.177473 -0.191977 0)
(0.202198 -0.190456 0)
(0.228136 -0.19212 0)
(0.254405 -0.198006 0)
(0.279368 -0.208113 0)
(0.302 -0.220727 0)
(0.322548 -0.234464 0)
(0.341662 -0.24891 0)
(0.360116 -0.264282 0)
(0.377842 -0.282088 0)
(0.391425 -0.304331 0)
(0.397508 -0.325698 0)
(0.395671 -0.342126 0)
(0.385655 -0.350142 0)
(0.00206635 -0.280491 0)
(0.0128796 -0.274739 0)
(0.0257138 -0.263067 0)
(0.0406343 -0.252303 0)
(0.0570618 -0.242874 0)
(0.0747304 -0.234735 0)
(0.0935287 -0.227873 0)
(0.113378 -0.22232 0)
(0.134256 -0.218149 0)
(0.15619 -0.21559 0)
(0.179138 -0.2151 0)
(0.202787 -0.21728 0)
(0.226391 -0.222612 0)
(0.2489 -0.230993 0)
(0.269584 -0.24154 0)
(0.28832 -0.253451 0)
(0.305229 -0.266357 0)
(0.320346 -0.280254 0)
(0.333027 -0.295507 0)
(0.341232 -0.311825 0)
(0.34314 -0.326206 0)
(0.338548 -0.335662 0)
(0.327483 -0.337497 0)
(0.00104546 -0.286636 0)
(0.00910031 -0.284957 0)
(0.0191193 -0.275751 0)
(0.0313008 -0.266754 0)
(0.0451339 -0.25877 0)
(0.0603457 -0.251916 0)
(0.0767898 -0.24623 0)
(0.0943642 -0.241771 0)
(0.112987 -0.238642 0)
(0.132567 -0.237037 0)
(0.152924 -0.237258 0)
(0.173689 -0.23964 0)
(0.194257 -0.244399 0)
(0.213886 -0.251409 0)
(0.231986 -0.260163 0)
(0.248248 -0.270124 0)
(0.262479 -0.280907 0)
(0.274388 -0.29225 0)
(0.283294 -0.303888 0)
(0.287991 -0.315018 0)
(0.287498 -0.323609 0)
(0.281766 -0.327461 0)
(0.27078 -0.324527 0)
(0.000136238 -0.29064 0)
(0.00581077 -0.292506 0)
(0.0132722 -0.285695 0)
(0.0228421 -0.278527 0)
(0.034064 -0.272066 0)
(0.0466868 -0.266549 0)
(0.0605466 -0.262067 0)
(0.0755149 -0.258694 0)
(0.0914659 -0.256529 0)
(0.108244 -0.255713 0)
(0.125613 -0.256431 0)
(0.143214 -0.258854 0)
(0.160544 -0.263054 0)
(0.177036 -0.268897 0)
(0.192183 -0.276035 0)
(0.205604 -0.284051 0)
(0.216971 -0.292541 0)
(0.225896 -0.301097 0)
(0.231813 -0.309195 0)
(0.234005 -0.315935 0)
(0.231932 -0.319816 0)
(0.225667 -0.319158 0)
(0.215099 -0.312311 0)
(-0.000655381 -0.292742 0)
(0.00294292 -0.297705 0)
(0.00807384 -0.293112 0)
(0.0151986 -0.287713 0)
(0.0238858 -0.282746 0)
(0.0339174 -0.278535 0)
(0.0451238 -0.275207 0)
(0.0573583 -0.272846 0)
(0.0704681 -0.271531 0)
(0.0842675 -0.271353 0)
(0.0985078 -0.272411 0)
(0.112854 -0.274772 0)
(0.126886 -0.278423 0)
(0.140141 -0.283218 0)
(0.152177 -0.288874 0)
(0.162611 -0.295029 0)
(0.171084 -0.301278 0)
(0.17722 -0.307153 0)
(0.18059 -0.312056 0)
(0.18076 -0.31513 0)
(0.17745 -0.315196 0)
(0.170791 -0.310909 0)
(0.160626 -0.300886 0)
(-0.0013716 -0.293155 0)
(0.000423832 -0.300817 0)
(0.00344565 -0.298214 0)
(0.00830906 -0.294457 0)
(0.0145953 -0.290892 0)
(0.0221205 -0.287898 0)
(0.0307169 -0.285629 0)
(0.0402286 -0.284168 0)
(0.0504899 -0.283573 0)
(0.0613054 -0.283895 0)
(0.0724315 -0.285167 0)
(0.0835652 -0.28739 0)
(0.0943482 -0.290495 0)
(0.104392 -0.294322 0)
(0.113316 -0.298616 0)
(0.120765 -0.303043 0)
(0.126406 -0.307211 0)
(0.129917 -0.310648 0)
(0.130987 -0.312766 0)
(0.129361 -0.312802 0)
(0.124898 -0.309791 0)
(0.117793 -0.30263 0)
(0.107891 -0.290119 0)
(-0.00205201 -0.292104 0)
(-0.00181442 -0.302037 0)
(-0.000659256 -0.301208 0)
(0.00212443 -0.298934 0)
(0.00617747 -0.29664 0)
(0.0113385 -0.294742 0)
(0.0174446 -0.293409 0)
(0.0243374 -0.29272 0)
(0.0318481 -0.292714 0)
(0.039783 -0.293407 0)
(0.0479123 -0.294787 0)
(0.0559649 -0.296807 0)
(0.0636328 -0.299363 0)
(0.0705877 -0.302284 0)
(0.076503 -0.305325 0)
(0.0810694 -0.308176 0)
(0.0840013 -0.310466 0)
(0.0850403 -0.311751 0)
(0.0839691 -0.311491 0)
(0.0806451 -0.309026 0)
(0.0750297 -0.303558 0)
(0.0673457 -0.294166 0)
(0.0574853 -0.2798 0)
(-0.00265247 -0.289769 0)
(-0.00380392 -0.301566 0)
(-0.00429587 -0.302298 0)
(-0.00339106 -0.301335 0)
(-0.00138233 -0.300164 0)
(0.00159399 -0.299226 0)
(0.00537973 -0.298695 0)
(0.00981844 -0.298645 0)
(0.0147446 -0.299097 0)
(0.0199728 -0.300041 0)
(0.0252906 -0.301434 0)
(0.0304569 -0.303194 0)
(0.0352065 -0.305195 0)
(0.0392614 -0.307258 0)
(0.0423458 -0.309146 0)
(0.0441996 -0.310572 0)
(0.0445887 -0.311192 0)
(0.0433155 -0.310607 0)
(0.0402349 -0.308339 0)
(0.0352835 -0.303828 0)
(0.0284772 -0.296416 0)
(0.020081 -0.285335 0)
(0.0100438 -0.269679 0)
(-0.00317465 -0.286278 0)
(-0.00555777 -0.299622 0)
(-0.00750242 -0.301696 0)
(-0.00826404 -0.301865 0)
(-0.00809063 -0.301662 0)
(-0.00709797 -0.301541 0)
(-0.00543318 -0.301676 0)
(-0.003246 -0.302133 0)
(-0.000695155 -0.30292 0)
(0.00204619 -0.304006 0)
(0.00478226 -0.305325 0)
(0.00730038 -0.306774 0)
(0.00937252 -0.308213 0)
(0.010764 -0.309458 0)
(0.0112452 -0.310284 0)
(0.0106028 -0.310424 0)
(0.00865124 -0.309569 0)
(0.00524523 -0.307366 0)
(0.000293255 -0.303404 0)
(-0.00621404 -0.297216 0)
(-0.0142071 -0.288267 0)
(-0.0234146 -0.27593 0)
(-0.0338114 -0.259469 0)
(-0.00361987 -0.281776 0)
(-0.00707593 -0.29639 0)
(-0.0102892 -0.299602 0)
(-0.0125139 -0.300735 0)
(-0.0139645 -0.301348 0)
(-0.0147374 -0.301902 0)
(-0.0149704 -0.302569 0)
(-0.0148056 -0.303408 0)
(-0.0143927 -0.304416 0)
(-0.0138931 -0.305545 0)
(-0.0134819 -0.306714 0)
(-0.0133462 -0.307807 0)
(-0.0136816 -0.308675 0)
(-0.0146851 -0.309137 0)
(-0.0165453 -0.308979 0)
(-0.0194331 -0.307957 0)
(-0.0234901 -0.305797 0)
(-0.0288172 -0.302193 0)
(-0.0354594 -0.296807 0)
(-0.0433873 -0.289259 0)
(-0.0525151 -0.27912 0)
(-0.062552 -0.265892 0)
(-0.0734221 -0.248993 0)
(-0.00398487 -0.276412 0)
(-0.00835257 -0.292045 0)
(-0.012654 -0.296211 0)
(-0.0161434 -0.298152 0)
(-0.0190082 -0.299439 0)
(-0.0213269 -0.300534 0)
(-0.0232287 -0.301609 0)
(-0.0248469 -0.302714 0)
(-0.0263211 -0.303837 0)
(-0.0277992 -0.304921 0)
(-0.0294378 -0.305874 0)
(-0.0314006 -0.306572 0)
(-0.0338538 -0.306865 0)
(-0.036961 -0.306576 0)
(-0.0408744 -0.305506 0)
(-0.0457268 -0.303436 0)
(-0.0516219 -0.300126 0)
(-0.058624 -0.295319 0)
(-0.0667453 -0.288737 0)
(-0.075935 -0.280079 0)
(-0.0860863 -0.269012 0)
(-0.096931 -0.255153 0)
(-0.108351 -0.238053 0)
(-0.00426657 -0.270341 0)
(-0.00938251 -0.286765 0)
(-0.0145922 -0.291717 0)
(-0.0191511 -0.294322 0)
(-0.0232222 -0.29615 0)
(-0.0268679 -0.297664 0)
(-0.0302078 -0.299032 0)
(-0.0333661 -0.3003 0)
(-0.0364713 -0.301448 0)
(-0.0396577 -0.302412 0)
(-0.0430646 -0.303093 0)
(-0.0468338 -0.303366 0)
(-0.0511057 -0.303083 0)
(-0.0560138 -0.302077 0)
(-0.0616787 -0.300163 0)
(-0.0682003 -0.297148 0)
(-0.0756504 -0.292825 0)
(-0.0840647 -0.286981 0)
(-0.0934323 -0.279394 0)
(-0.103687 -0.269828 0)
(-0.114727 -0.258034 0)
(-0.126293 -0.243726 0)
(-0.138253 -0.226572 0)
(-0.00446172 -0.263722 0)
(-0.0101614 -0.280727 0)
(-0.0161015 -0.28631 0)
(-0.0215376 -0.289445 0)
(-0.0266105 -0.291694 0)
(-0.0313672 -0.293517 0)
(-0.035917 -0.295078 0)
(-0.0403741 -0.296419 0)
(-0.0448558 -0.297513 0)
(-0.0494829 -0.298294 0)
(-0.0543783 -0.29866 0)
(-0.0596638 -0.298488 0)
(-0.0654565 -0.297635 0)
(-0.0718641 -0.295946 0)
(-0.0789792 -0.293254 0)
(-0.0868739 -0.289387 0)
(-0.0955941 -0.284173 0)
(-0.105153 -0.277436 0)
(-0.115523 -0.269 0)
(-0.126635 -0.258689 0)
(-0.138384 -0.246319 0)
(-0.150551 -0.231686 0)
(-0.162987 -0.214554 0)
(-0.00456996 -0.256716 0)
(-0.0106903 -0.27411 0)
(-0.0171855 -0.280179 0)
(-0.0233104 -0.283722 0)
(-0.029185 -0.286281 0)
(-0.0348416 -0.288314 0)
(-0.0403783 -0.28998 0)
(-0.0458988 -0.291316 0)
(-0.0515091 -0.292292 0)
(-0.0573168 -0.29284 0)
(-0.0634295 -0.292859 0)
(-0.069951 -0.29223 0)
(-0.0769777 -0.290819 0)
(-0.0845943 -0.288483 0)
(-0.0928697 -0.285074 0)
(-0.101852 -0.280444 0)
(-0.111567 -0.274446 0)
(-0.122008 -0.266941 0)
(-0.13314 -0.25779 0)
(-0.144887 -0.246864 0)
(-0.157163 -0.234032 0)
(-0.169765 -0.219157 0)
(-0.182547 -0.202075 0)
(-0.00459231 -0.249482 0)
(-0.0109737 -0.267086 0)
(-0.0178544 -0.273506 0)
(-0.0244853 -0.277343 0)
(-0.0309678 -0.280115 0)
(-0.0373197 -0.282271 0)
(-0.0436278 -0.283965 0)
(-0.0499851 -0.285231 0)
(-0.0564861 -0.286036 0)
(-0.0632264 -0.286311 0)
(-0.0702993 -0.28596 0)
(-0.0777922 -0.284869 0)
(-0.0857832 -0.282915 0)
(-0.0943372 -0.279971 0)
(-0.103502 -0.275905 0)
(-0.113307 -0.270591 0)
(-0.123759 -0.263908 0)
(-0.134838 -0.255744 0)
(-0.146501 -0.245992 0)
(-0.158675 -0.23456 0)
(-0.171276 -0.221358 0)
(-0.184146 -0.206296 0)
(-0.197126 -0.189271 0)
(-0.00453357 -0.242176 0)
(-0.0110234 -0.259823 0)
(-0.018127 -0.26647 0)
(-0.0250881 -0.270498 0)
(-0.0319917 -0.273392 0)
(-0.0388425 -0.275593 0)
(-0.0457157 -0.27725 0)
(-0.0526937 -0.278392 0)
(-0.0598606 -0.278983 0)
(-0.0673004 -0.278955 0)
(-0.0750935 -0.278217 0)
(-0.0833129 -0.276665 0)
(-0.0920203 -0.274188 0)
(-0.101263 -0.270671 0)
(-0.111072 -0.266005 0)
(-0.121459 -0.260081 0)
(-0.132415 -0.252801 0)
(-0.143911 -0.244074 0)
(-0.155896 -0.233822 0)
(-0.168297 -0.221977 0)
(-0.181047 -0.208481 0)
(-0.194002 -0.193278 0)
(-0.207015 -0.176304 0)
(-0.00439969 -0.234944 0)
(-0.0108547 -0.252481 0)
(-0.0180294 -0.25924 0)
(-0.0251535 -0.263363 0)
(-0.0323001 -0.2663 0)
(-0.0394624 -0.26848 0)
(-0.0467048 -0.270043 0)
(-0.0540996 -0.271013 0)
(-0.0617216 -0.271355 0)
(-0.0696443 -0.271 0)
(-0.0779368 -0.269865 0)
(-0.0866592 -0.267854 0)
(-0.095859 -0.264872 0)
(-0.105569 -0.26082 0)
(-0.115803 -0.255604 0)
(-0.12656 -0.249136 0)
(-0.137818 -0.241337 0)
(-0.149537 -0.232135 0)
(-0.161662 -0.221471 0)
(-0.174121 -0.209297 0)
(-0.186849 -0.195576 0)
(-0.199734 -0.180271 0)
(-0.212627 -0.163348 0)
(-0.00419976 -0.227919 0)
(-0.0104891 -0.245204 0)
(-0.0175957 -0.251973 0)
(-0.0247254 -0.256108 0)
(-0.0319465 -0.259018 0)
(-0.0392426 -0.261117 0)
(-0.0466687 -0.262538 0)
(-0.054289 -0.263297 0)
(-0.0621699 -0.263358 0)
(-0.0703761 -0.262656 0)
(-0.0789668 -0.261114 0)
(-0.0879906 -0.25865 0)
(-0.0974828 -0.25518 0)
(-0.107463 -0.250624 0)
(-0.117932 -0.244904 0)
(-0.128877 -0.237951 0)
(-0.140264 -0.229702 0)
(-0.152045 -0.220101 0)
(-0.164157 -0.209104 0)
(-0.176529 -0.196676 0)
(-0.189103 -0.182792 0)
(-0.201773 -0.16743 0)
(-0.214405 -0.150564 0)
(-0.003944 -0.22122 0)
(-0.00995075 -0.238124 0)
(-0.016867 -0.244816 0)
(-0.0238561 -0.248892 0)
(-0.0309929 -0.251715 0)
(-0.0382549 -0.253684 0)
(-0.0456904 -0.254919 0)
(-0.0533572 -0.255432 0)
(-0.0613154 -0.255184 0)
(-0.0696223 -0.254116 0)
(-0.0783283 -0.252159 0)
(-0.0874724 -0.249242 0)
(-0.0970794 -0.245299 0)
(-0.107158 -0.240264 0)
(-0.117699 -0.234079 0)
(-0.128677 -0.226689 0)
(-0.14005 -0.218047 0)
(-0.15176 -0.208112 0)
(-0.163741 -0.196852 0)
(-0.175916 -0.18424 0)
(-0.188222 -0.170256 0)
(-0.200575 -0.154881 0)
(-0.212833 -0.138094 0)
(-0.0036476 -0.214947 0)
(-0.00926924 -0.231351 0)
(-0.0158921 -0.237901 0)
(-0.0226058 -0.241861 0)
(-0.0295097 -0.24455 0)
(-0.0365795 -0.246345 0)
(-0.0438605 -0.247357 0)
(-0.051407 -0.247591 0)
(-0.0592744 -0.247009 0)
(-0.067514 -0.245555 0)
(-0.0761691 -0.243172 0)
(-0.0852703 -0.239801 0)
(-0.0948338 -0.235393 0)
(-0.104859 -0.229897 0)
(-0.11533 -0.223273 0)
(-0.126212 -0.215484 0)
(-0.137454 -0.206495 0)
(-0.148994 -0.196281 0)
(-0.160753 -0.184817 0)
(-0.172649 -0.172083 0)
(-0.184619 -0.15806 0)
(-0.196569 -0.142724 0)
(-0.208373 -0.126049 0)
(-0.00333244 -0.209183 0)
(-0.00847794 -0.224973 0)
(-0.0147284 -0.231344 0)
(-0.0210423 -0.235153 0)
(-0.0275741 -0.237671 0)
(-0.0343032 -0.239259 0)
(-0.0412763 -0.240014 0)
(-0.0485472 -0.239938 0)
(-0.0561683 -0.238994 0)
(-0.0641862 -0.237134 0)
(-0.0726376 -0.23431 0)
(-0.0815466 -0.23048 0)
(-0.0909225 -0.225608 0)
(-0.100759 -0.219661 0)
(-0.111035 -0.212615 0)
(-0.121709 -0.204448 0)
(-0.132727 -0.195144 0)
(-0.144018 -0.184688 0)
(-0.155496 -0.173067 0)
(-0.167069 -0.160266 0)
(-0.178657 -0.146263 0)
(-0.190169 -0.131025 0)
(-0.201467 -0.11451 0)
(-0.00303666 -0.203988 0)
(-0.00761881 -0.219056 0)
(-0.0134442 -0.225247 0)
(-0.0192419 -0.228893 0)
(-0.0252701 -0.23122 0)
(-0.0315188 -0.232571 0)
(-0.0380411 -0.233039 0)
(-0.0448926 -0.232622 0)
(-0.0521238 -0.231289 0)
(-0.0597764 -0.229 0)
(-0.0678816 -0.225721 0)
(-0.0764579 -0.221421 0)
(-0.0855105 -0.216079 0)
(-0.0950303 -0.20968 0)
(-0.104993 -0.202214 0)
(-0.11536 -0.193677 0)
(-0.126072 -0.184068 0)
(-0.137056 -0.173389 0)
(-0.148218 -0.16164 0)
(-0.159452 -0.148814 0)
(-0.17066 -0.134887 0)
(-0.181727 -0.119813 0)
(-0.192509 -0.103521 0)
(-0.00282537 -0.199393 0)
(-0.00674323 -0.213633 0)
(-0.0121218 -0.219699 0)
(-0.0172882 -0.223201 0)
(-0.0226864 -0.225328 0)
(-0.0283239 -0.22642 0)
(-0.034264 -0.22657 0)
(-0.0405646 -0.225782 0)
(-0.0472733 -0.224033 0)
(-0.0544264 -0.221294 0)
(-0.0620494 -0.217542 0)
(-0.0701563 -0.212759 0)
(-0.0787507 -0.206938 0)
(-0.0878242 -0.200076 0)
(-0.0973565 -0.192179 0)
(-0.107312 -0.183258 0)
(-0.11764 -0.173332 0)
(-0.128265 -0.162422 0)
(-0.139092 -0.150549 0)
(-0.150001 -0.137718 0)
(-0.160862 -0.123915 0)
(-0.171534 -0.109074 0)
(-0.181831 -0.0930867 0)
(-0.0028215 -0.195337 0)
(-0.00591874 -0.208717 0)
(-0.0108611 -0.214788 0)
(-0.0152712 -0.218193 0)
(-0.0199142 -0.220122 0)
(-0.0248187 -0.220932 0)
(-0.030059 -0.220734 0)
(-0.0356915 -0.219545 0)
(-0.0417572 -0.217355 0)
(-0.0482846 -0.214147 0)
(-0.0552926 -0.209908 0)
(-0.062792 -0.204632 0)
(-0.070787 -0.198318 0)
(-0.0792744 -0.190976 0)
(-0.0882429 -0.182623 0)
(-0.0976698 -0.173286 0)
(-0.107517 -0.163003 0)
(-0.117723 -0.15182 0)
(-0.128197 -0.139785 0)
(-0.138811 -0.126938 0)
(-0.149405 -0.11328 0)
(-0.159776 -0.098743 0)
(-0.169685 -0.083162 0)
(-0.00329947 -0.191534 0)
(-0.00525493 -0.204322 0)
(-0.00978266 -0.210621 0)
(-0.0132815 -0.214001 0)
(-0.0170402 -0.215725 0)
(-0.0211026 -0.216222 0)
(-0.0255437 -0.21564 0)
(-0.0304086 -0.214022 0)
(-0.0357245 -0.211373 0)
(-0.0415078 -0.207687 0)
(-0.0477693 -0.202957 0)
(-0.0545177 -0.197183 0)
(-0.0617599 -0.190368 0)
(-0.0695019 -0.182527 0)
(-0.0777472 -0.173685 0)
(-0.0864934 -0.163881 0)
(-0.0957277 -0.153171 0)
(-0.105417 -0.141628 0)
(-0.115494 -0.129343 0)
(-0.125839 -0.116405 0)
(-0.136269 -0.102868 0)
(-0.146511 -0.0886858 0)
(-0.156197 -0.0736409 0)
(-0.00489696 -0.18745 0)
(-0.00498376 -0.200509 0)
(-0.00901699 -0.207362 0)
(-0.011391 -0.210784 0)
(-0.0141342 -0.212266 0)
(-0.0172672 -0.212394 0)
(-0.0208367 -0.211385 0)
(-0.0248578 -0.209315 0)
(-0.0293332 -0.206201 0)
(-0.0342624 -0.202043 0)
(-0.0396471 -0.196833 0)
(-0.0454941 -0.19057 0)
(-0.0518152 -0.183258 0)
(-0.0586276 -0.174907 0)
(-0.0659532 -0.165544 0)
(-0.0738167 -0.155211 0)
(-0.0822417 -0.143978 0)
(-0.0912421 -0.131945 0)
(-0.100804 -0.119247 0)
(-0.110856 -0.10605 0)
(-0.121226 -0.0925119 0)
(-0.131572 -0.0786802 0)
(-0.14134 -0.0643246 0)
(-0.00873066 -0.182842 0)
(-0.00549119 -0.197349 0)
(-0.0086445 -0.205192 0)
(-0.00962095 -0.208703 0)
(-0.0112318 -0.209844 0)
(-0.0133889 -0.209513 0)
(-0.0160539 -0.208031 0)
(-0.0191838 -0.2055 0)
(-0.0227465 -0.201937 0)
(-0.0267219 -0.197335 0)
(-0.0311027 -0.191682 0)
(-0.0358944 -0.184965 0)
(-0.0411134 -0.177178 0)
(-0.0467876 -0.168327 0)
(-0.0529567 -0.158426 0)
(-0.0596733 -0.147514 0)
(-0.0670032 -0.135658 0)